<event>
 5    1  0.2818690E-006  0.2000141E+02  0.7818608E-02  0.1745300E+00
         -2   -1    0    0    0  501 -0.00000000000E+00  0.00000000000E+00  0.85403289499E+00  0.85403685267E+00  0.26000000000E-02 0. -1.
          2   -1    0    0  501    0  0.00000000000E+00 -0.00000000000E+00 -0.11710780214E+03  0.11710780217E+03  0.26000000000E-02 0.  1.
       1023    2    1    2    0    0  0.00000000000E+00  0.00000000000E+00 -0.11625376925E+03  0.11796183902E+03  0.20001414992E+02 0.  0.
        -13    1    3    3    0    0  0.20249773074E+01  0.97929281840E+01 -0.58313610693E+02  0.59164941816E+02  0.10570000000E+00 0. -1.
         13    1    3    3    0    0 -0.20249773074E+01 -0.97929281840E+01 -0.57940158554E+02  0.58796897207E+02  0.10570000000E+00 0.  1.
<mgrwt>
<rscale>  0 0.20001415E+02</rscale>
<asrwt>0</asrwt>
<pdfrwt beam="2">  1        2 0.18016573E-01 0.20001415E+02</pdfrwt>
<pdfrwt beam="1">  1       -2 0.13139008E-03 0.20001415E+02</pdfrwt>
<totfact> 0.54753148E+06</totfact>
</mgrwt>
</event>
<event>
 5    1  0.1607476E-006  0.2000385E+02  0.7818608E-02  0.1745252E+00
          2   -1    0    0  501    0  0.00000000000E+00  0.00000000000E+00  0.10092748313E+03  0.10092748316E+03  0.26000000000E-02 0.  1.
         -2   -1    0    0    0  501 -0.00000000000E+00 -0.00000000000E+00 -0.99118969194E+00  0.99119310198E+00  0.26000000000E-02 0. -1.
       1023    2    1    2    0    0  0.00000000000E+00  0.00000000000E+00  0.99936293435E+02  0.10191867626E+03  0.20003845269E+02 0.  0.
        -13    1    3    3    0    0  0.25179907760E+01  0.96779377387E+01  0.50766080251E+02  0.51741751352E+02  0.10570000000E+00 0. -1.
         13    1    3    3    0    0 -0.25179907760E+01 -0.96779377387E+01  0.49170213184E+02  0.50176924910E+02  0.10570000000E+00 0.  1.
<mgrwt>
<rscale>  0 0.20003845E+02</rscale>
<asrwt>0</asrwt>
<pdfrwt beam="1">  1        2 0.15527312E-01 0.20003845E+02</pdfrwt>
<pdfrwt beam="2">  1       -2 0.15249092E-03 0.20003845E+02</pdfrwt>
<totfact> 0.52846474E+06</totfact>
</mgrwt>
</event>
<event>
 5    1  0.1732822E-006  0.2000159E+02  0.7818608E-02  0.1745296E+00
          2   -1    0    0  501    0  0.00000000000E+00  0.00000000000E+00  0.95944418445E+02  0.95944418481E+02  0.26000000000E-02 0. -1.
         -2   -1    0    0    0  501 -0.00000000000E+00 -0.00000000000E+00 -0.10424342388E+01  0.10424374812E+01  0.26000000000E-02 0.  1.
       1023    2    1    2    0    0  0.00000000000E+00  0.00000000000E+00  0.94901984207E+02  0.96986855962E+02  0.20001590512E+02 0.  0.
        -13    1    3    3    0    0 -0.78977644056E+01  0.61340843771E+01  0.47719201609E+02  0.48755871938E+02  0.10570000000E+00 0.  1.
         13    1    3    3    0    0  0.78977644056E+01 -0.61340843771E+01  0.47182782597E+02  0.48230984023E+02  0.10570000000E+00 0. -1.
<mgrwt>
<rscale>  0 0.20001591E+02</rscale>
<asrwt>0</asrwt>
<pdfrwt beam="1">  1        2 0.14760680E-01 0.20001591E+02</pdfrwt>
<pdfrwt beam="2">  1       -2 0.16037475E-03 0.20001591E+02</pdfrwt>
<totfact> 0.52260570E+06</totfact>
</mgrwt>
</event>
<event>
 5    1  0.1607476E-006  0.2000150E+02  0.7818608E-02  0.1745298E+00
         -2   -1    0    0    0  501 -0.00000000000E+00  0.00000000000E+00  0.10545016157E+01  0.10545048210E+01  0.26000000000E-02 0. -1.
          2   -1    0    0  501    0  0.00000000000E+00 -0.00000000000E+00 -0.94845587341E+02  0.94845587377E+02  0.26000000000E-02 0.  1.
       1023    2    1    2    0    0  0.00000000000E+00  0.00000000000E+00 -0.93791085726E+02  0.95900092198E+02  0.20001497993E+02 0.  0.
        -13    1    3    3    0    0 -0.43350171810E+00  0.99907824229E+01 -0.46836656327E+02  0.47892454578E+02  0.10570000000E+00 0.  1.
         13    1    3    3    0    0  0.43350171810E+00 -0.99907824229E+01 -0.46954429399E+02  0.48007637620E+02  0.10570000000E+00 0. -1.
<mgrwt>
<rscale>  0 0.20001498E+02</rscale>
<asrwt>0</asrwt>
<pdfrwt beam="2">  1        2 0.14591622E-01 0.20001498E+02</pdfrwt>
<pdfrwt beam="1">  1       -2 0.16223134E-03 0.20001498E+02</pdfrwt>
<totfact> 0.52127953E+06</totfact>
</mgrwt>
</event>
<event>
 5    1  0.1607476E-006  0.2000499E+02  0.7818608E-02  0.1745229E+00
          2   -1    0    0  501    0  0.00000000000E+00  0.00000000000E+00  0.16080505952E+02  0.16080506162E+02  0.26000000000E-02 0. -1.
         -2   -1    0    0    0  501 -0.00000000000E+00 -0.00000000000E+00 -0.62218125108E+01  0.62218130540E+01  0.26000000000E-02 0.  1.
       1023    2    1    2    0    0  0.00000000000E+00  0.00000000000E+00  0.98586934410E+01  0.22302319216E+02  0.20004989529E+02 0.  0.
        -13    1    3    3    0    0  0.69874740795E+01 -0.71562149750E+01  0.48733574177E+01  0.11126409654E+02  0.10570000000E+00 0. -1.
         13    1    3    3    0    0 -0.69874740795E+01  0.71562149750E+01  0.49853360233E+01  0.11175909562E+02  0.10570000000E+00 0.  1.
<mgrwt>
<rscale>  0 0.20004990E+02</rscale>
<asrwt>0</asrwt>
<pdfrwt beam="1">  1        2 0.24739240E-02 0.20004990E+02</pdfrwt>
<pdfrwt beam="2">  1       -2 0.95720198E-03 0.20004990E+02</pdfrwt>
<totfact> 0.40893579E+06</totfact>
</mgrwt>
</event>
<event>
 5    1  0.1607476E-006  0.2000247E+02  0.7818608E-02  0.1745279E+00
         -2   -1    0    0    0  501 -0.00000000000E+00  0.00000000000E+00  0.12185372915E+01  0.12185400654E+01  0.26000000000E-02 0. -1.
          2   -1    0    0  501    0  0.00000000000E+00 -0.00000000000E+00 -0.82085765712E+02  0.82085765753E+02  0.26000000000E-02 0.  1.
       1023    2    1    2    0    0  0.00000000000E+00  0.00000000000E+00 -0.80867228420E+02  0.83304305818E+02  0.20002468235E+02 0.  0.
        -13    1    3    3    0    0  0.87470199274E+01 -0.48477853025E+01 -0.40625887956E+02  0.41838801664E+02  0.10570000000E+00 0.  1.
         13    1    3    3    0    0 -0.87470199274E+01  0.48477853025E+01 -0.40241340464E+02  0.41465504154E+02  0.10570000000E+00 0. -1.
<mgrwt>
<rscale>  0 0.20002468E+02</rscale>
<asrwt>0</asrwt>
<pdfrwt beam="2">  1        2 0.12628575E-01 0.20002468E+02</pdfrwt>
<pdfrwt beam="1">  1       -2 0.18746756E-03 0.20002468E+02</pdfrwt>
<totfact> 0.50547994E+06</totfact>
</mgrwt>
</event>
<event>
 4    1  0.1607476E-006  0.2005586E+02  0.7818608E-02  0.1744219E+00
          2   -1    0    0  501    0  0.00000000000E+00  0.00000000000E+00  0.24394320341E+01  0.24394334197E+01  0.26000000000E-02 0. -1.
         -2   -1    0    0    0  501 -0.00000000000E+00 -0.00000000000E+00 -0.41222455678E+02  0.41222455760E+02  0.26000000000E-02 0.  1.
        -13    1    1    2    0    0 -0.17445782155E+01  0.98694588855E+01 -0.20074645459E+02  0.22437743528E+02  0.10570000000E+00 0. -1.
         13    1    1    2    0    0  0.17445782155E+01 -0.98694588855E+01 -0.18708378185E+02  0.21224145652E+02  0.10570000000E+00 0.  1.
<mgrwt>
<rscale>  0 0.20055863E+02</rscale>
<asrwt>0</asrwt>
<pdfrwt beam="1">  1        2 0.37529738E-03 0.20055863E+02</pdfrwt>
<pdfrwt beam="2">  1       -2 0.63419158E-02 0.20055863E+02</pdfrwt>
<totfact> 0.34578769E+06</totfact>
</mgrwt>
</event>
<event>
 5    1  0.1607476E-006  0.2000285E+02  0.7818608E-02  0.1745272E+00
         -2   -1    0    0    0  501 -0.00000000000E+00  0.00000000000E+00  0.10050626475E+03  0.10050626478E+03  0.26000000000E-02 0. -1.
          2   -1    0    0  501    0  0.00000000000E+00 -0.00000000000E+00 -0.99524421564E+00  0.99524761179E+00  0.26000000000E-02 0.  1.
       1023    2    1    2    0    0  0.00000000000E+00  0.00000000000E+00  0.99511020535E+02  0.10150151240E+03  0.20002845067E+02 0.  0.
        -13    1    3    3    0    0  0.33761719803E+01 -0.94133263688E+01  0.50210214172E+02  0.51196543148E+02  0.10570000000E+00 0. -1.
         13    1    3    3    0    0 -0.33761719803E+01  0.94133263688E+01  0.49300806363E+02  0.50304969248E+02  0.10570000000E+00 0.  1.
<mgrwt>
<rscale>  0 0.20002845E+02</rscale>
<asrwt>0</asrwt>
<pdfrwt beam="2">  1        2 0.15311473E-03 0.20002845E+02</pdfrwt>
<pdfrwt beam="1">  1       -2 0.15462506E-01 0.20002845E+02</pdfrwt>
<totfact> 0.29684789E+06</totfact>
</mgrwt>
</event>
<event>
 5    1  0.1607476E-006  0.2000304E+02  0.7818608E-02  0.1745268E+00
          2   -1    0    0  501    0  0.00000000000E+00  0.00000000000E+00  0.87025027825E+01  0.87025031709E+01  0.26000000000E-02 0. -1.
         -2   -1    0    0    0  501 -0.00000000000E+00 -0.00000000000E+00 -0.11494443201E+02  0.11494443495E+02  0.26000000000E-02 0.  1.
       1023    2    1    2    0    0  0.00000000000E+00  0.00000000000E+00 -0.27919404180E+01  0.20196946665E+02  0.20003042851E+02 0.  0.
        -13    1    3    3    0    0 -0.77422614405E+01 -0.63302979675E+01 -0.13323213098E+01  0.10089674778E+02  0.10570000000E+00 0.  1.
         13    1    3    3    0    0  0.77422614405E+01  0.63302979675E+01 -0.14596191082E+01  0.10107271887E+02  0.10570000000E+00 0. -1.
<mgrwt>
<rscale>  0 0.20003043E+02</rscale>
<asrwt>0</asrwt>
<pdfrwt beam="1">  1        2 0.13388466E-02 0.20003043E+02</pdfrwt>
<pdfrwt beam="2">  1       -2 0.17683759E-02 0.20003043E+02</pdfrwt>
<totfact> 0.39050248E+06</totfact>
</mgrwt>
</event>
<event>
 4    1  0.1607476E-006  0.2237695E+02  0.7818608E-02  0.1701813E+00
         -2   -1    0    0    0  501 -0.00000000000E+00  0.00000000000E+00  0.19010809762E+02  0.19010809940E+02  0.26000000000E-02 0. -1.
          2   -1    0    0  501    0  0.00000000000E+00 -0.00000000000E+00 -0.65847765715E+01  0.65847770848E+01  0.26000000000E-02 0.  1.
        -13    1    1    2    0    0  0.97046567873E+01 -0.53941315213E+01  0.77870933443E+01  0.13561969380E+02  0.10570000000E+00 0. -1.
         13    1    1    2    0    0 -0.97046567873E+01  0.53941315213E+01  0.46389398466E+01  0.12033617645E+02  0.10570000000E+00 0.  1.
<mgrwt>
<rscale>  0 0.22376947E+02</rscale>
<asrwt>0</asrwt>
<pdfrwt beam="2">  1        2 0.10130426E-02 0.22376947E+02</pdfrwt>
<pdfrwt beam="1">  1       -2 0.29247400E-02 0.22376947E+02</pdfrwt>
<totfact> 0.29406068E+06</totfact>
</mgrwt>
</event>
<event>
 4    1  0.1607476E-006  0.2001581E+02  0.7818608E-02  0.1745014E+00
         -2   -1    0    0    0  501 -0.00000000000E+00  0.00000000000E+00  0.95015842037E+01  0.95015845594E+01  0.26000000000E-02 0.  1.
          2   -1    0    0  501    0  0.00000000000E+00 -0.00000000000E+00 -0.10541201238E+02  0.10541201559E+02  0.26000000000E-02 0. -1.
        -13    1    1    2    0    0 -0.51894624476E+01 -0.85566131245E+01 -0.54807424524E+00  0.10022859199E+02  0.10570000000E+00 0. -1.
         13    1    1    2    0    0  0.51894624476E+01  0.85566131245E+01 -0.49154278928E+00  0.10019926919E+02  0.10570000000E+00 0.  1.
<mgrwt>
<rscale>  0 0.20015806E+02</rscale>
<asrwt>0</asrwt>
<pdfrwt beam="2">  1        2 0.16217233E-02 0.20015806E+02</pdfrwt>
<pdfrwt beam="1">  1       -2 0.14617822E-02 0.20015806E+02</pdfrwt>
<totfact> 0.39544837E+06</totfact>
</mgrwt>
</event>
<event>
 5    1  0.1607476E-006  0.2000883E+02  0.7818608E-02  0.1745152E+00
         -2   -1    0    0    0  501 -0.00000000000E+00  0.00000000000E+00  0.41505319503E+01  0.41505327647E+01  0.26000000000E-02 0. -1.
          2   -1    0    0  501    0  0.00000000000E+00 -0.00000000000E+00 -0.24114583123E+02  0.24114583263E+02  0.26000000000E-02 0.  1.
       1023    2    1    2    0    0  0.00000000000E+00  0.00000000000E+00 -0.19964051173E+02  0.28265116028E+02  0.20008834170E+02 0.  0.
        -13    1    3    3    0    0  0.73555001170E+01 -0.67798797775E+01 -0.10100526400E+02  0.14216256814E+02  0.10570000000E+00 0.  1.
         13    1    3    3    0    0 -0.73555001170E+01  0.67798797775E+01 -0.98635247732E+01  0.14048859214E+02  0.10570000000E+00 0. -1.
<mgrwt>
<rscale>  0 0.20008834E+02</rscale>
<asrwt>0</asrwt>
<pdfrwt beam="2">  1        2 0.37099359E-02 0.20008834E+02</pdfrwt>
<pdfrwt beam="1">  1       -2 0.63854346E-03 0.20008834E+02</pdfrwt>
<totfact> 0.42364307E+06</totfact>
</mgrwt>
</event>
<event>
 5    1  0.1607476E-006  0.2000210E+02  0.7818608E-02  0.1745286E+00
          2   -1    0    0  501    0  0.00000000000E+00  0.00000000000E+00  0.22931664229E+01  0.22931678968E+01  0.26000000000E-02 0. -1.
         -2   -1    0    0    0  501 -0.00000000000E+00 -0.00000000000E+00 -0.43616959456E+02  0.43616959533E+02  0.26000000000E-02 0.  1.
       1023    2    1    2    0    0  0.00000000000E+00  0.00000000000E+00 -0.41323793033E+02  0.45910127430E+02  0.20002098141E+02 0.  0.
        -13    1    3    3    0    0 -0.77536180016E+00 -0.99700216078E+01 -0.20857913207E+02  0.23131498711E+02  0.10570000000E+00 0.  1.
         13    1    3    3    0    0  0.77536180016E+00  0.99700216078E+01 -0.20465879825E+02  0.22778628719E+02  0.10570000000E+00 0. -1.
<mgrwt>
<rscale>  0 0.20002098E+02</rscale>
<asrwt>0</asrwt>
<pdfrwt beam="1">  1        2 0.35279499E-03 0.20002098E+02</pdfrwt>
<pdfrwt beam="2">  1       -2 0.67103009E-02 0.20002098E+02</pdfrwt>
<totfact> 0.34531491E+06</totfact>
</mgrwt>
</event>
<event>
 4    1  0.1607476E-006  0.2001340E+02  0.7818608E-02  0.1745062E+00
         -2   -1    0    0    0  501 -0.00000000000E+00  0.00000000000E+00  0.59619369139E+01  0.59619374809E+01  0.26000000000E-02 0. -1.
          2   -1    0    0  501    0  0.00000000000E+00 -0.00000000000E+00 -0.16795559742E+02  0.16795559943E+02  0.26000000000E-02 0.  1.
        -13    1    1    2    0    0 -0.17511218846E+01  0.98500416733E+01 -0.56238629126E+01  0.11477314815E+02  0.10570000000E+00 0. -1.
         13    1    1    2    0    0  0.17511218846E+01 -0.98500416733E+01 -0.52097599155E+01  0.11280182609E+02  0.10570000000E+00 0.  1.
<mgrwt>
<rscale>  0 0.20013403E+02</rscale>
<asrwt>0</asrwt>
<pdfrwt beam="2">  1        2 0.25839323E-02 0.20013403E+02</pdfrwt>
<pdfrwt beam="1">  1       -2 0.91722113E-03 0.20013403E+02</pdfrwt>
<totfact> 0.41000063E+06</totfact>
</mgrwt>
</event>
<event>
 5    1  0.1607476E-006  0.2000286E+02  0.7818608E-02  0.1745271E+00
          2   -1    0    0  501    0  0.00000000000E+00  0.00000000000E+00  0.24161516616E+02  0.24161516756E+02  0.26000000000E-02 0. -1.
         -2   -1    0    0    0  501 -0.00000000000E+00 -0.00000000000E+00 -0.41399972183E+01  0.41399980347E+01  0.26000000000E-02 0.  1.
       1023    2    1    2    0    0  0.00000000000E+00  0.00000000000E+00  0.20021519398E+02  0.28301514791E+02  0.20002862307E+02 0.  0.
        -13    1    3    3    0    0  0.30009319218E+01  0.95398527010E+01  0.99323564577E+01  0.14095292095E+02  0.10570000000E+00 0.  1.
         13    1    3    3    0    0 -0.30009319218E+01 -0.95398527010E+01  0.10089162940E+02  0.14206222696E+02  0.10570000000E+00 0. -1.
<mgrwt>
<rscale>  0 0.20002862E+02</rscale>
<asrwt>0</asrwt>
<pdfrwt beam="1">  1        2 0.37171565E-02 0.20002862E+02</pdfrwt>
<pdfrwt beam="2">  1       -2 0.63692271E-03 0.20002862E+02</pdfrwt>
<totfact> 0.42400758E+06</totfact>
</mgrwt>
</event>
<event>
 5    1  0.1607476E-006  0.2000528E+02  0.7818608E-02  0.1745223E+00
         -2   -1    0    0    0  501 -0.00000000000E+00  0.00000000000E+00  0.13815059418E+01  0.13815083884E+01  0.26000000000E-02 0. -1.
          2   -1    0    0  501    0  0.00000000000E+00 -0.00000000000E+00 -0.72422913824E+02  0.72422913870E+02  0.26000000000E-02 0.  1.
       1023    2    1    2    0    0  0.00000000000E+00  0.00000000000E+00 -0.71041407882E+02  0.73804422259E+02  0.20005277082E+02 0.  0.
        -13    1    3    3    0    0  0.14079196655E+01  0.99022654217E+01 -0.35273028701E+02  0.36663808101E+02  0.10570000000E+00 0. -1.
         13    1    3    3    0    0 -0.14079196655E+01 -0.99022654217E+01 -0.35768379181E+02  0.37140614157E+02  0.10570000000E+00 0.  1.
<mgrwt>
<rscale>  0 0.20005277E+02</rscale>
<asrwt>0</asrwt>
<pdfrwt beam="2">  1        2 0.11141984E-01 0.20005277E+02</pdfrwt>
<pdfrwt beam="1">  1       -2 0.21253962E-03 0.20005277E+02</pdfrwt>
<totfact> 0.49304740E+06</totfact>
</mgrwt>
</event>
<event>
 5    1  0.1607476E-006  0.2000297E+02  0.7818608E-02  0.1745269E+00
         -2   -1    0    0    0  501 -0.00000000000E+00  0.00000000000E+00  0.14374247628E+02  0.14374247863E+02  0.26000000000E-02 0. -1.
          2   -1    0    0  501    0  0.00000000000E+00 -0.00000000000E+00 -0.69589486069E+01  0.69589490926E+01  0.26000000000E-02 0.  1.
       1023    2    1    2    0    0  0.00000000000E+00  0.00000000000E+00  0.74152990213E+01  0.21333196956E+02  0.20002965600E+02 0.  0.
        -13    1    3    3    0    0  0.92163570677E+01 -0.38826628650E+01  0.37574128099E+01  0.10683895920E+02  0.10570000000E+00 0.  1.
         13    1    3    3    0    0 -0.92163570677E+01  0.38826628650E+01  0.36578862114E+01  0.10649301036E+02  0.10570000000E+00 0. -1.
<mgrwt>
<rscale>  0 0.20002966E+02</rscale>
<asrwt>0</asrwt>
<pdfrwt beam="2">  1        2 0.10706076E-02 0.20002966E+02</pdfrwt>
<pdfrwt beam="1">  1       -2 0.22114227E-02 0.20002966E+02</pdfrwt>
<totfact> 0.38409037E+06</totfact>
</mgrwt>
</event>
<event>
 5    1  0.1607476E-006  0.2000160E+02  0.7818608E-02  0.1745296E+00
          2   -1    0    0  501    0  0.00000000000E+00  0.00000000000E+00  0.20786563188E+01  0.20786579448E+01  0.26000000000E-02 0.  1.
         -2   -1    0    0    0  501 -0.00000000000E+00 -0.00000000000E+00 -0.48115688568E+02  0.48115688638E+02  0.26000000000E-02 0. -1.
       1023    2    1    2    0    0  0.00000000000E+00  0.00000000000E+00 -0.46037032249E+02  0.50194346583E+02  0.20001602200E+02 0.  0.
        -13    1    3    3    0    0 -0.83610852376E+01 -0.54860615021E+01 -0.23056822262E+02  0.25132306748E+02  0.10570000000E+00 0. -1.
         13    1    3    3    0    0  0.83610852376E+01  0.54860615021E+01 -0.22980209987E+02  0.25062039835E+02  0.10570000000E+00 0.  1.
<mgrwt>
<rscale>  0 0.20001602E+02</rscale>
<asrwt>0</asrwt>
<pdfrwt beam="1">  1        2 0.31979345E-03 0.20001602E+02</pdfrwt>
<pdfrwt beam="2">  1       -2 0.74024129E-02 0.20001602E+02</pdfrwt>
<totfact> 0.34078035E+06</totfact>
</mgrwt>
</event>
<event>
 5    1  0.1607476E-006  0.2000575E+02  0.7818608E-02  0.1745214E+00
         -2   -1    0    0    0  501 -0.00000000000E+00  0.00000000000E+00  0.11054244255E+03  0.11054244258E+03  0.26000000000E-02 0.  1.
          2   -1    0    0  501    0  0.00000000000E+00 -0.00000000000E+00 -0.90514795579E+00  0.90515168998E+00  0.26000000000E-02 0. -1.
       1023    2    1    2    0    0  0.00000000000E+00  0.00000000000E+00  0.10963729459E+03  0.11144759427E+03  0.20005746743E+02 0.  0.
        -13    1    3    3    0    0 -0.76825122172E+01  0.64043148957E+01  0.55377392424E+02  0.56273466283E+02  0.10570000000E+00 0. -1.
         13    1    3    3    0    0  0.76825122172E+01 -0.64043148957E+01  0.54259902167E+02  0.55174127985E+02  0.10570000000E+00 0.  1.
<mgrwt>
<rscale>  0 0.20005747E+02</rscale>
<asrwt>0</asrwt>
<pdfrwt beam="2">  1        2 0.13925393E-03 0.20005747E+02</pdfrwt>
<pdfrwt beam="1">  1       -2 0.17006517E-01 0.20005747E+02</pdfrwt>
<totfact> 0.28964598E+06</totfact>
</mgrwt>
</event>
<event>
 5    1  0.1607476E-006  0.2000204E+02  0.7818608E-02  0.1745288E+00
          2   -1    0    0  501    0  0.00000000000E+00  0.00000000000E+00  0.16522758431E+02  0.16522758636E+02  0.26000000000E-02 0. -1.
         -2   -1    0    0    0  501 -0.00000000000E+00 -0.00000000000E+00 -0.60534928221E+01  0.60534933805E+01  0.26000000000E-02 0.  1.
       1023    2    1    2    0    0  0.00000000000E+00  0.00000000000E+00  0.10469265609E+02  0.22576252016E+02  0.20002040713E+02 0.  0.
        -13    1    3    3    0    0  0.43568607821E+00  0.99905866053E+01  0.53329825006E+01  0.11333733627E+02  0.10570000000E+00 0. -1.
         13    1    3    3    0    0 -0.43568607821E+00 -0.99905866053E+01  0.51362831083E+01  0.11242518389E+02  0.10570000000E+00 0.  1.
<mgrwt>
<rscale>  0 0.20002041E+02</rscale>
<asrwt>0</asrwt>
<pdfrwt beam="1">  1        2 0.25419629E-02 0.20002041E+02</pdfrwt>
<pdfrwt beam="2">  1       -2 0.93130666E-03 0.20002041E+02</pdfrwt>
<totfact> 0.40997620E+06</totfact>
</mgrwt>
</event>
<event>
 4    1  0.1607476E-006  0.2008996E+02  0.7818608E-02  0.1743545E+00
          2   -1    0    0  501    0  0.00000000000E+00  0.00000000000E+00  0.20495863399E+01  0.20495879890E+01  0.26000000000E-02 0.  1.
         -2   -1    0    0    0  501 -0.00000000000E+00 -0.00000000000E+00 -0.49230225804E+02  0.49230225873E+02  0.26000000000E-02 0. -1.
        -13    1    1    2    0    0 -0.50482452510E+01  0.86655564247E+01 -0.22160409583E+02  0.24324300065E+02  0.10570000000E+00 0. -1.
         13    1    1    2    0    0  0.50482452510E+01 -0.86655564247E+01 -0.25020229882E+02  0.26955513798E+02  0.10570000000E+00 0.  1.
<mgrwt>
<rscale>  0 0.20089962E+02</rscale>
<asrwt>0</asrwt>
<pdfrwt beam="1">  1        2 0.31532115E-03 0.20089962E+02</pdfrwt>
<pdfrwt beam="2">  1       -2 0.75738801E-02 0.20089962E+02</pdfrwt>
<totfact> 0.33642425E+06</totfact>
</mgrwt>
</event>
<event>
 5    1  0.1607476E-006  0.2000275E+02  0.7818608E-02  0.1745273E+00
         -2   -1    0    0    0  501 -0.00000000000E+00  0.00000000000E+00  0.11986577693E+02  0.11986577975E+02  0.26000000000E-02 0. -1.
          2   -1    0    0  501    0  0.00000000000E+00 -0.00000000000E+00 -0.83449577289E+01  0.83449581339E+01  0.26000000000E-02 0.  1.
       1023    2    1    2    0    0  0.00000000000E+00  0.00000000000E+00  0.36416199644E+01  0.20331536109E+02  0.20002748926E+02 0.  0.
        -13    1    3    3    0    0  0.58267837942E+00  0.99834370631E+01  0.17311041647E+01  0.10149700676E+02  0.10570000000E+00 0.  1.
         13    1    3    3    0    0 -0.58267837942E+00 -0.99834370631E+01  0.19105157997E+01  0.10181835434E+02  0.10570000000E+00 0. -1.
<mgrwt>
<rscale>  0 0.20002749E+02</rscale>
<asrwt>0</asrwt>
<pdfrwt beam="2">  1        2 0.12838397E-02 0.20002749E+02</pdfrwt>
<pdfrwt beam="1">  1       -2 0.18440889E-02 0.20002749E+02</pdfrwt>
<totfact> 0.38931550E+06</totfact>
</mgrwt>
</event>
<event>
 5    1  0.1607476E-006  0.2000604E+02  0.7818608E-02  0.1745208E+00
          2   -1    0    0  501    0  0.00000000000E+00  0.00000000000E+00  0.12991450373E+02  0.12991450633E+02  0.26000000000E-02 0. -1.
         -2   -1    0    0    0  501 -0.00000000000E+00 -0.00000000000E+00 -0.77020163712E+01  0.77020168100E+01  0.26000000000E-02 0.  1.
       1023    2    1    2    0    0  0.00000000000E+00  0.00000000000E+00  0.52894340013E+01  0.20693467443E+02  0.20006036158E+02 0.  0.
        -13    1    3    3    0    0 -0.36523961227E+01 -0.93117438428E+01  0.26188090626E+01  0.10340111422E+02  0.10570000000E+00 0. -1.
         13    1    3    3    0    0  0.36523961227E+01  0.93117438428E+01  0.26706249388E+01  0.10353356020E+02  0.10570000000E+00 0.  1.
<mgrwt>
<rscale>  0 0.20006036E+02</rscale>
<asrwt>0</asrwt>
<pdfrwt beam="1">  1        2 0.19986847E-02 0.20006036E+02</pdfrwt>
<pdfrwt beam="2">  1       -2 0.11849257E-02 0.20006036E+02</pdfrwt>
<totfact> 0.40211492E+06</totfact>
</mgrwt>
</event>
<event>
 5    1  0.1607476E-006  0.2000468E+02  0.7818608E-02  0.1745235E+00
         -2   -1    0    0    0  501 -0.00000000000E+00  0.00000000000E+00  0.66514137126E+02  0.66514137177E+02  0.26000000000E-02 0.  1.
          2   -1    0    0  501    0  0.00000000000E+00 -0.00000000000E+00 -0.15041419538E+01  0.15041442009E+01  0.26000000000E-02 0. -1.
       1023    2    1    2    0    0  0.00000000000E+00  0.00000000000E+00  0.65009995172E+02  0.68018281377E+02  0.20004677685E+02 0.  0.
        -13    1    3    3    0    0 -0.76021643348E+01 -0.64980290316E+01  0.32044711843E+02  0.33569212285E+02  0.10570000000E+00 0. -1.
         13    1    3    3    0    0  0.76021643348E+01  0.64980290316E+01  0.32965283329E+02  0.34449069092E+02  0.10570000000E+00 0.  1.
<mgrwt>
<rscale>  0 0.20004678E+02</rscale>
<asrwt>0</asrwt>
<pdfrwt beam="2">  1        2 0.23140669E-03 0.20004678E+02</pdfrwt>
<pdfrwt beam="1">  1       -2 0.10232942E-01 0.20004678E+02</pdfrwt>
<totfact> 0.32365932E+06</totfact>
</mgrwt>
</event>
<event>
 5    1  0.1607476E-006  0.2000308E+02  0.7818608E-02  0.1745267E+00
         -2   -1    0    0    0  501 -0.00000000000E+00  0.00000000000E+00  0.94421352355E+01  0.94421355935E+01  0.26000000000E-02 0.  1.
          2   -1    0    0  501    0  0.00000000000E+00 -0.00000000000E+00 -0.10594089706E+02  0.10594090025E+02  0.26000000000E-02 0. -1.
       1023    2    1    2    0    0  0.00000000000E+00  0.00000000000E+00 -0.11519544706E+01  0.20036225619E+02  0.20003083211E+02 0.  0.
        -13    1    3    3    0    0  0.40417455158E+00  0.99926489211E+01 -0.51867698436E+00  0.10014818412E+02  0.10570000000E+00 0. -1.
         13    1    3    3    0    0 -0.40417455158E+00 -0.99926489211E+01 -0.63327748626E+00  0.10021407206E+02  0.10570000000E+00 0.  1.
<mgrwt>
<rscale>  0 0.20003083E+02</rscale>
<asrwt>0</asrwt>
<pdfrwt beam="2">  1        2 0.16298600E-02 0.20003083E+02</pdfrwt>
<pdfrwt beam="1">  1       -2 0.14526363E-02 0.20003083E+02</pdfrwt>
<totfact> 0.39616832E+06</totfact>
</mgrwt>
</event>
<event>
 4    1  0.1607476E-006  0.2015402E+02  0.7818608E-02  0.1742282E+00
         -2   -1    0    0    0  501 -0.00000000000E+00  0.00000000000E+00  0.42531881673E+02  0.42531881752E+02  0.26000000000E-02 0. -1.
          2   -1    0    0  501    0  0.00000000000E+00 -0.00000000000E+00 -0.23875294877E+01  0.23875309034E+01  0.26000000000E-02 0.  1.
        -13    1    1    2    0    0 -0.99666128021E+01 -0.14836351111E+01  0.20118867372E+02  0.22501434193E+02  0.10570000000E+00 0. -1.
         13    1    1    2    0    0  0.99666128021E+01  0.14836351111E+01  0.20025484813E+02  0.22417978463E+02  0.10570000000E+00 0.  1.
<mgrwt>
<rscale>  0 0.20154022E+02</rscale>
<asrwt>0</asrwt>
<pdfrwt beam="2">  1        2 0.36731236E-03 0.20154022E+02</pdfrwt>
<pdfrwt beam="1">  1       -2 0.65433663E-02 0.20154022E+02</pdfrwt>
<totfact> 0.34076156E+06</totfact>
</mgrwt>
</event>
<event>
 5    1  0.1607476E-006  0.2000918E+02  0.7818608E-02  0.1745146E+00
          2   -1    0    0  501    0  0.00000000000E+00  0.00000000000E+00  0.84877102612E+02  0.84877102651E+02  0.26000000000E-02 0.  1.
         -2   -1    0    0    0  501 -0.00000000000E+00 -0.00000000000E+00 -0.11792540378E+01  0.11792569040E+01  0.26000000000E-02 0. -1.
       1023    2    1    2    0    0  0.00000000000E+00  0.00000000000E+00  0.83697848574E+02  0.86056359555E+02  0.20009176996E+02 0.  0.
        -13    1    3    3    0    0  0.63340185739E+01 -0.77395497324E+01  0.42904141300E+02  0.44054476895E+02  0.10570000000E+00 0.  1.
         13    1    3    3    0    0 -0.63340185739E+01  0.77395497324E+01  0.40793707274E+02  0.42001882660E+02  0.10570000000E+00 0. -1.
<mgrwt>
<rscale>  0 0.20009177E+02</rscale>
<asrwt>0</asrwt>
<pdfrwt beam="1">  1        2 0.13058017E-01 0.20009177E+02</pdfrwt>
<pdfrwt beam="2">  1       -2 0.18142391E-03 0.20009177E+02</pdfrwt>
<totfact> 0.50858955E+06</totfact>
</mgrwt>
</event>
<event>
 5    1  0.1607476E-006  0.2001128E+02  0.7818608E-02  0.1745104E+00
         -2   -1    0    0    0  501 -0.00000000000E+00  0.00000000000E+00  0.13430318872E+01  0.13430344039E+01  0.26000000000E-02 0.  1.
          2   -1    0    0  501    0  0.00000000000E+00 -0.00000000000E+00 -0.74542358251E+02  0.74542358297E+02  0.26000000000E-02 0. -1.
       1023    2    1    2    0    0  0.00000000000E+00  0.00000000000E+00 -0.73199326364E+02  0.75885392700E+02  0.20011282946E+02 0.  0.
        -13    1    3    3    0    0 -0.32024717772E+01 -0.94787030290E+01 -0.36572265078E+02  0.37916268039E+02  0.10570000000E+00 0. -1.
         13    1    3    3    0    0  0.32024717772E+01  0.94787030290E+01 -0.36627061286E+02  0.37969124661E+02  0.10570000000E+00 0.  1.
<mgrwt>
<rscale>  0 0.20011283E+02</rscale>
<asrwt>0</asrwt>
<pdfrwt beam="2">  1        2 0.11468052E-01 0.20011283E+02</pdfrwt>
<pdfrwt beam="1">  1       -2 0.20662055E-03 0.20011283E+02</pdfrwt>
<totfact> 0.49544047E+06</totfact>
</mgrwt>
</event>
<event>
 5    1  0.1634389E-006  0.2000159E+02  0.7818608E-02  0.1745296E+00
          2   -1    0    0  501    0  0.00000000000E+00  0.00000000000E+00  0.37749674642E+02  0.37749674731E+02  0.26000000000E-02 0.  1.
         -2   -1    0    0    0  501 -0.00000000000E+00 -0.00000000000E+00 -0.26494511645E+01  0.26494524403E+01  0.26000000000E-02 0. -1.
       1023    2    1    2    0    0  0.00000000000E+00  0.00000000000E+00  0.35100223477E+02  0.40399127172E+02  0.20001594638E+02 0.  0.
        -13    1    3    3    0    0 -0.88099812968E+01  0.47313974210E+01  0.17658552783E+02  0.20293781089E+02  0.10570000000E+00 0.  1.
         13    1    3    3    0    0  0.88099812968E+01 -0.47313974210E+01  0.17441670695E+02  0.20105346083E+02  0.10570000000E+00 0. -1.
<mgrwt>
<rscale>  0 0.20001595E+02</rscale>
<asrwt>0</asrwt>
<pdfrwt beam="1">  1        2 0.58076419E-02 0.20001595E+02</pdfrwt>
<pdfrwt beam="2">  1       -2 0.40760801E-03 0.20001595E+02</pdfrwt>
<totfact> 0.44555150E+06</totfact>
</mgrwt>
</event>
<event>
 4    1  0.1607476E-006  0.2038121E+02  0.7818608E-02  0.1737852E+00
          2   -1    0    0  501    0  0.00000000000E+00  0.00000000000E+00  0.10270091018E+03  0.10270091021E+03  0.26000000000E-02 0.  1.
         -2   -1    0    0    0  501 -0.00000000000E+00 -0.00000000000E+00 -0.10111717595E+01  0.10111751021E+01  0.26000000000E-02 0. -1.
        -13    1    1    2    0    0  0.75814892112E+01 -0.66673969826E+01  0.57866604140E+02  0.58740856381E+02  0.10570000000E+00 0. -1.
         13    1    1    2    0    0 -0.75814892112E+01  0.66673969826E+01  0.43823134281E+02  0.44971228934E+02  0.10570000000E+00 0.  1.
<mgrwt>
<rscale>  0 0.20381210E+02</rscale>
<asrwt>0</asrwt>
<pdfrwt beam="1">  1        2 0.15800144E-01 0.20381210E+02</pdfrwt>
<pdfrwt beam="2">  1       -2 0.15556511E-03 0.20381210E+02</pdfrwt>
<totfact> 0.50911371E+06</totfact>
</mgrwt>
</event>
<event>
 5    1  0.1607476E-006  0.2001124E+02  0.7818608E-02  0.1745105E+00
          2   -1    0    0  501    0  0.00000000000E+00  0.00000000000E+00  0.18036884352E+02  0.18036884539E+02  0.26000000000E-02 0. -1.
         -2   -1    0    0    0  501 -0.00000000000E+00 -0.00000000000E+00 -0.55504277288E+01  0.55504283377E+01  0.26000000000E-02 0.  1.
       1023    2    1    2    0    0  0.00000000000E+00  0.00000000000E+00  0.12486456623E+02  0.23587312877E+02  0.20011240085E+02 0.  0.
        -13    1    3    3    0    0 -0.98951285927E+01  0.14466151673E+01  0.58799378314E+01  0.11601340729E+02  0.10570000000E+00 0.  1.
         13    1    3    3    0    0  0.98951285927E+01 -0.14466151673E+01  0.66065187917E+01  0.11985972148E+02  0.10570000000E+00 0. -1.
<mgrwt>
<rscale>  0 0.20011240E+02</rscale>
<asrwt>0</asrwt>
<pdfrwt beam="1">  1        2 0.27749053E-02 0.20011240E+02</pdfrwt>
<pdfrwt beam="2">  1       -2 0.85391202E-03 0.20011240E+02</pdfrwt>
<totfact> 0.41254870E+06</totfact>
</mgrwt>
</event>
<event>
 5    1  0.1607476E-006  0.2000215E+02  0.7818608E-02  0.1745285E+00
          2   -1    0    0  501    0  0.00000000000E+00  0.00000000000E+00  0.49699918665E+02  0.49699918733E+02  0.26000000000E-02 0.  1.
         -2   -1    0    0    0  501 -0.00000000000E+00 -0.00000000000E+00 -0.20125074420E+01  0.20125091215E+01  0.26000000000E-02 0. -1.
       1023    2    1    2    0    0  0.00000000000E+00  0.00000000000E+00  0.47687411223E+02  0.51712427854E+02  0.20002150021E+02 0.  0.
        -13    1    3    3    0    0  0.99337869740E+01  0.11491461213E+01  0.24097917583E+02  0.26090639409E+02  0.10570000000E+00 0.  1.
         13    1    3    3    0    0 -0.99337869740E+01 -0.11491461213E+01  0.23589493640E+02  0.25621788445E+02  0.10570000000E+00 0. -1.
<mgrwt>
<rscale>  0 0.20002150E+02</rscale>
<asrwt>0</asrwt>
<pdfrwt beam="1">  1        2 0.76461409E-02 0.20002150E+02</pdfrwt>
<pdfrwt beam="2">  1       -2 0.30961669E-03 0.20002150E+02</pdfrwt>
<totfact> 0.46275069E+06</totfact>
</mgrwt>
</event>
<event>
 5    1  0.1607476E-006  0.2000138E+02  0.7818608E-02  0.1745301E+00
          2   -1    0    0  501    0  0.00000000000E+00  0.00000000000E+00  0.22134951416E+01  0.22134966686E+01  0.26000000000E-02 0. -1.
         -2   -1    0    0    0  501 -0.00000000000E+00 -0.00000000000E+00 -0.45183627218E+02  0.45183627293E+02  0.26000000000E-02 0.  1.
       1023    2    1    2    0    0  0.00000000000E+00  0.00000000000E+00 -0.42970132076E+02  0.47397123961E+02  0.20001377681E+02 0.  0.
        -13    1    3    3    0    0  0.63854909149E+01 -0.76958316137E+01 -0.21598374650E+02  0.23801287328E+02  0.10570000000E+00 0. -1.
         13    1    3    3    0    0 -0.63854909149E+01  0.76958316137E+01 -0.21371757426E+02  0.23595836633E+02  0.10570000000E+00 0.  1.
<mgrwt>
<rscale>  0 0.20001378E+02</rscale>
<asrwt>0</asrwt>
<pdfrwt beam="1">  1        2 0.34053787E-03 0.20001378E+02</pdfrwt>
<pdfrwt beam="2">  1       -2 0.69513267E-02 0.20001378E+02</pdfrwt>
<totfact> 0.34373446E+06</totfact>
</mgrwt>
</event>
<event>
 4    1  0.1607476E-006  0.2001860E+02  0.7818608E-02  0.1744958E+00
          2   -1    0    0  501    0  0.00000000000E+00  0.00000000000E+00  0.54437253852E+02  0.54437253914E+02  0.26000000000E-02 0.  1.
         -2   -1    0    0    0  501 -0.00000000000E+00 -0.00000000000E+00 -0.18403953865E+01  0.18403972231E+01  0.26000000000E-02 0. -1.
        -13    1    1    2    0    0 -0.99779968058E+01 -0.67616360692E+00  0.27413529402E+02  0.29180993544E+02  0.10570000000E+00 0. -1.
         13    1    1    2    0    0  0.99779968058E+01  0.67616360692E+00  0.25183329063E+02  0.27096657592E+02  0.10570000000E+00 0.  1.
<mgrwt>
<rscale>  0 0.20018604E+02</rscale>
<asrwt>0</asrwt>
<pdfrwt beam="1">  1        2 0.83749603E-02 0.20018604E+02</pdfrwt>
<pdfrwt beam="2">  1       -2 0.28313796E-03 0.20018604E+02</pdfrwt>
<totfact> 0.46845357E+06</totfact>
</mgrwt>
</event>
<event>
 5    1  0.1607476E-006  0.2000175E+02  0.7818608E-02  0.1745293E+00
         -2   -1    0    0    0  501 -0.00000000000E+00  0.00000000000E+00  0.17245712340E+01  0.17245731939E+01  0.26000000000E-02 0. -1.
          2   -1    0    0  501    0  0.00000000000E+00 -0.00000000000E+00 -0.57995517887E+02  0.57995517945E+02  0.26000000000E-02 0.  1.
       1023    2    1    2    0    0  0.00000000000E+00  0.00000000000E+00 -0.56270946653E+02  0.59720091139E+02  0.20001746135E+02 0.  0.
        -13    1    3    3    0    0 -0.59341406685E+01  0.80491791096E+01 -0.28298458056E+02  0.30013617087E+02  0.10570000000E+00 0.  1.
         13    1    3    3    0    0  0.59341406685E+01 -0.80491791096E+01 -0.27972488597E+02  0.29706474053E+02  0.10570000000E+00 0. -1.
<mgrwt>
<rscale>  0 0.20001746E+02</rscale>
<asrwt>0</asrwt>
<pdfrwt beam="2">  1        2 0.89223861E-02 0.20001746E+02</pdfrwt>
<pdfrwt beam="1">  1       -2 0.26531885E-03 0.20001746E+02</pdfrwt>
<totfact> 0.47417940E+06</totfact>
</mgrwt>
</event>
<event>
 5    1  0.1607476E-006  0.2000413E+02  0.7818608E-02  0.1745246E+00
         -2   -1    0    0    0  501 -0.00000000000E+00  0.00000000000E+00  0.60089787071E+02  0.60089787128E+02  0.26000000000E-02 0. -1.
          2   -1    0    0  501    0  0.00000000000E+00 -0.00000000000E+00 -0.16648621046E+01  0.16648641348E+01  0.26000000000E-02 0.  1.
       1023    2    1    2    0    0  0.00000000000E+00  0.00000000000E+00  0.58424924967E+02  0.61754651262E+02  0.20004126954E+02 0.  0.
        -13    1    3    3    0    0 -0.52286274235E+01 -0.85259003188E+01  0.29138094478E+02  0.30806967447E+02  0.10570000000E+00 0. -1.
         13    1    3    3    0    0  0.52286274235E+01  0.85259003188E+01  0.29286830489E+02  0.30947683815E+02  0.10570000000E+00 0.  1.
<mgrwt>
<rscale>  0 0.20004127E+02</rscale>
<asrwt>0</asrwt>
<pdfrwt beam="2">  1        2 0.25613284E-03 0.20004127E+02</pdfrwt>
<pdfrwt beam="1">  1       -2 0.92445812E-02 0.20004127E+02</pdfrwt>
<totfact> 0.32936994E+06</totfact>
</mgrwt>
</event>
<event>
 5    1  0.1655625E-006  0.2000157E+02  0.7818608E-02  0.1745297E+00
         -2   -1    0    0    0  501 -0.00000000000E+00  0.00000000000E+00  0.13617692760E+01  0.13617717581E+01  0.26000000000E-02 0.  1.
          2   -1    0    0  501    0  0.00000000000E+00 -0.00000000000E+00 -0.73445337728E+02  0.73445337774E+02  0.26000000000E-02 0. -1.
       1023    2    1    2    0    0  0.00000000000E+00  0.00000000000E+00 -0.72083568452E+02  0.74807109532E+02  0.20001569833E+02 0.  0.
        -13    1    3    3    0    0 -0.61049704972E+01 -0.79203275840E+01 -0.35863487069E+02  0.37231748966E+02  0.10570000000E+00 0. -1.
         13    1    3    3    0    0  0.61049704972E+01  0.79203275840E+01 -0.36220081383E+02  0.37575360566E+02  0.10570000000E+00 0.  1.
<mgrwt>
<rscale>  0 0.20001570E+02</rscale>
<asrwt>0</asrwt>
<pdfrwt beam="2">  1        2 0.11299280E-01 0.20001570E+02</pdfrwt>
<pdfrwt beam="1">  1       -2 0.20950322E-03 0.20001570E+02</pdfrwt>
<totfact> 0.49456606E+06</totfact>
</mgrwt>
</event>
<event>
 5    1  0.1607476E-006  0.2000574E+02  0.7818608E-02  0.1745214E+00
         -2   -1    0    0    0  501 -0.00000000000E+00  0.00000000000E+00  0.12604416457E+01  0.12604443273E+01  0.26000000000E-02 0. -1.
          2   -1    0    0  501    0  0.00000000000E+00 -0.00000000000E+00 -0.79382763780E+02  0.79382763823E+02  0.26000000000E-02 0.  1.
       1023    2    1    2    0    0  0.00000000000E+00  0.00000000000E+00 -0.78122322134E+02  0.80643208150E+02  0.20005744301E+02 0.  0.
        -13    1    3    3    0    0  0.99513866800E+01  0.10065658373E+01 -0.38840111703E+02  0.40107464658E+02  0.10570000000E+00 0. -1.
         13    1    3    3    0    0 -0.99513866800E+01 -0.10065658373E+01 -0.39282210431E+02  0.40535743492E+02  0.10570000000E+00 0.  1.
<mgrwt>
<rscale>  0 0.20005744E+02</rscale>
<asrwt>0</asrwt>
<pdfrwt beam="2">  1        2 0.12212729E-01 0.20005744E+02</pdfrwt>
<pdfrwt beam="1">  1       -2 0.19391437E-03 0.20005744E+02</pdfrwt>
<totfact> 0.50189784E+06</totfact>
</mgrwt>
</event>
<event>
 5    1  0.1607476E-006  0.2000311E+02  0.7818608E-02  0.1745266E+00
          2   -1    0    0  501    0  0.00000000000E+00  0.00000000000E+00  0.10315103274E+03  0.10315103278E+03  0.26000000000E-02 0.  1.
         -2   -1    0    0    0  501 -0.00000000000E+00 -0.00000000000E+00 -0.96975198710E+00  0.96975547252E+00  0.26000000000E-02 0. -1.
       1023    2    1    2    0    0  0.00000000000E+00  0.00000000000E+00  0.10218128076E+03  0.10412078825E+03  0.20003109972E+02 0.  0.
        -13    1    3    3    0    0  0.73194374027E+01  0.68142662011E+01  0.51649854889E+02  0.52609191880E+02  0.10570000000E+00 0.  1.
         13    1    3    3    0    0 -0.73194374027E+01 -0.68142662011E+01  0.50531425869E+02  0.51511596370E+02  0.10570000000E+00 0. -1.
<mgrwt>
<rscale>  0 0.20003110E+02</rscale>
<asrwt>0</asrwt>
<pdfrwt beam="1">  1        2 0.15869376E-01 0.20003110E+02</pdfrwt>
<pdfrwt beam="2">  1       -2 0.14919301E-03 0.20003110E+02</pdfrwt>
<totfact> 0.53115546E+06</totfact>
</mgrwt>
</event>
<event>
 4    1  0.1607476E-006  0.2018019E+02  0.7818608E-02  0.1741768E+00
         -2   -1    0    0    0  501 -0.00000000000E+00  0.00000000000E+00  0.73013974709E+02  0.73013974756E+02  0.26000000000E-02 0.  1.
          2   -1    0    0  501    0  0.00000000000E+00 -0.00000000000E+00 -0.13943890488E+01  0.13943914728E+01  0.26000000000E-02 0. -1.
        -13    1    1    2    0    0 -0.82930550670E+01 -0.57424792456E+01  0.36617415110E+02  0.37981536199E+02  0.10570000000E+00 0.  1.
         13    1    1    2    0    0  0.82930550670E+01  0.57424792456E+01  0.35002170551E+02  0.36426830029E+02  0.10570000000E+00 0. -1.
<mgrwt>
<rscale>  0 0.20180186E+02</rscale>
<asrwt>0</asrwt>
<pdfrwt beam="2">  1        2 0.21452154E-03 0.20180186E+02</pdfrwt>
<pdfrwt beam="1">  1       -2 0.11232922E-01 0.20180186E+02</pdfrwt>
<totfact> 0.31211713E+06</totfact>
</mgrwt>
</event>
<event>
 4    1  0.1607476E-006  0.2002966E+02  0.7818608E-02  0.1744739E+00
         -2   -1    0    0    0  501 -0.00000000000E+00  0.00000000000E+00  0.64695812723E+02  0.64695812776E+02  0.26000000000E-02 0. -1.
          2   -1    0    0  501    0  0.00000000000E+00 -0.00000000000E+00 -0.15502821994E+01  0.15502843796E+01  0.26000000000E-02 0.  1.
        -13    1    1    2    0    0  0.99523409694E+01 -0.10516034399E+01  0.32768506786E+02  0.34262824898E+02  0.10570000000E+00 0. -1.
         13    1    1    2    0    0 -0.99523409694E+01  0.10516034399E+01  0.30377023738E+02  0.31983272257E+02  0.10570000000E+00 0.  1.
<mgrwt>
<rscale>  0 0.20029662E+02</rscale>
<asrwt>0</asrwt>
<pdfrwt beam="2">  1        2 0.23850511E-03 0.20029662E+02</pdfrwt>
<pdfrwt beam="1">  1       -2 0.99532027E-02 0.20029662E+02</pdfrwt>
<totfact> 0.32435995E+06</totfact>
</mgrwt>
</event>
<event>
 4    1  0.1607476E-006  0.2012992E+02  0.7818608E-02  0.1742757E+00
          2   -1    0    0  501    0  0.00000000000E+00  0.00000000000E+00  0.13140609477E+01  0.13140635199E+01  0.26000000000E-02 0.  1.
         -2   -1    0    0    0  501 -0.00000000000E+00 -0.00000000000E+00 -0.77091760853E+02  0.77091760897E+02  0.26000000000E-02 0. -1.
        -13    1    1    2    0    0  0.86440554023E+01  0.51328464255E+01 -0.39742129404E+02  0.40994070648E+02  0.10570000000E+00 0.  1.
         13    1    1    2    0    0 -0.86440554023E+01 -0.51328464255E+01 -0.36035570502E+02  0.37411753769E+02  0.10570000000E+00 0. -1.
<mgrwt>
<rscale>  0 0.20129916E+02</rscale>
<asrwt>0</asrwt>
<pdfrwt beam="1">  1        2 0.20216348E-03 0.20129916E+02</pdfrwt>
<pdfrwt beam="2">  1       -2 0.11860268E-01 0.20129916E+02</pdfrwt>
<totfact> 0.31050762E+06</totfact>
</mgrwt>
</event>
<event>
 4    1  0.1607476E-006  0.2001373E+02  0.7818608E-02  0.1745055E+00
         -2   -1    0    0    0  501 -0.00000000000E+00  0.00000000000E+00  0.19984470836E+02  0.19984471005E+02  0.26000000000E-02 0.  1.
          2   -1    0    0  501    0  0.00000000000E+00 -0.00000000000E+00 -0.50107564483E+01  0.50107571228E+01  0.26000000000E-02 0. -1.
        -13    1    1    2    0    0 -0.22464128324E+01  0.97508704455E+01  0.75088145373E+01  0.12510767894E+02  0.10570000000E+00 0.  1.
         13    1    1    2    0    0  0.22464128324E+01 -0.97508704455E+01  0.74648998503E+01  0.12484460234E+02  0.10570000000E+00 0. -1.
<mgrwt>
<rscale>  0 0.20013728E+02</rscale>
<asrwt>0</asrwt>
<pdfrwt beam="2">  1        2 0.77088567E-03 0.20013728E+02</pdfrwt>
<pdfrwt beam="1">  1       -2 0.30745340E-02 0.20013728E+02</pdfrwt>
<totfact> 0.37380633E+06</totfact>
</mgrwt>
</event>
<event>
 4    1  0.1607476E-006  0.2001841E+02  0.7818608E-02  0.1744962E+00
          2   -1    0    0  501    0  0.00000000000E+00  0.00000000000E+00  0.47669805081E+01  0.47669812171E+01  0.26000000000E-02 0.  1.
         -2   -1    0    0    0  501 -0.00000000000E+00 -0.00000000000E+00 -0.21016267142E+02  0.21016267303E+02  0.26000000000E-02 0. -1.
        -13    1    1    2    0    0  0.37261876894E+01  0.92858454911E+01 -0.84442417000E+01  0.13093043632E+02  0.10570000000E+00 0.  1.
         13    1    1    2    0    0 -0.37261876894E+01 -0.92858454911E+01 -0.78050449342E+01  0.12690204888E+02  0.10570000000E+00 0. -1.
<mgrwt>
<rscale>  0 0.20018406E+02</rscale>
<asrwt>0</asrwt>
<pdfrwt beam="1">  1        2 0.73338169E-03 0.20018406E+02</pdfrwt>
<pdfrwt beam="2">  1       -2 0.32332719E-02 0.20018406E+02</pdfrwt>
<totfact> 0.37203519E+06</totfact>
</mgrwt>
</event>
<event>
 4    1  0.1607476E-006  0.2008089E+02  0.7818608E-02  0.1743724E+00
          2   -1    0    0  501    0  0.00000000000E+00  0.00000000000E+00  0.50516688852E+02  0.50516688918E+02  0.26000000000E-02 0. -1.
         -2   -1    0    0    0  501 -0.00000000000E+00 -0.00000000000E+00 -0.19955885334E+01  0.19955902271E+01  0.26000000000E-02 0.  1.
        -13    1    1    2    0    0 -0.99284446261E+01  0.14432174232E+01  0.25247737980E+02  0.27168296502E+02  0.10570000000E+00 0. -1.
         13    1    1    2    0    0  0.99284446261E+01 -0.14432174232E+01  0.23273362338E+02  0.25343982644E+02  0.10570000000E+00 0.  1.
<mgrwt>
<rscale>  0 0.20080894E+02</rscale>
<asrwt>0</asrwt>
<pdfrwt beam="1">  1        2 0.77717974E-02 0.20080894E+02</pdfrwt>
<pdfrwt beam="2">  1       -2 0.30701380E-03 0.20080894E+02</pdfrwt>
<totfact> 0.45984867E+06</totfact>
</mgrwt>
</event>
<event>
 5    1  0.1607476E-006  0.2000301E+02  0.7818608E-02  0.1745268E+00
         -2   -1    0    0    0  501 -0.00000000000E+00  0.00000000000E+00  0.68778899745E+01  0.68778904659E+01  0.26000000000E-02 0. -1.
          2   -1    0    0  501    0  0.00000000000E+00 -0.00000000000E+00 -0.14543722283E+02  0.14543722515E+02  0.26000000000E-02 0.  1.
       1023    2    1    2    0    0  0.00000000000E+00  0.00000000000E+00 -0.76658323084E+01  0.21421612981E+02  0.20003012716E+02 0.  0.
        -13    1    3    3    0    0 -0.18364632321E+01  0.98304123421E+01 -0.37293469900E+01  0.10673743743E+02  0.10570000000E+00 0. -1.
         13    1    3    3    0    0  0.18364632321E+01 -0.98304123421E+01 -0.39364853184E+01  0.10747869239E+02  0.10570000000E+00 0.  1.
<mgrwt>
<rscale>  0 0.20003013E+02</rscale>
<asrwt>0</asrwt>
<pdfrwt beam="2">  1        2 0.22374958E-02 0.20003013E+02</pdfrwt>
<pdfrwt beam="1">  1       -2 0.10581370E-02 0.20003013E+02</pdfrwt>
<totfact> 0.40576927E+06</totfact>
</mgrwt>
</event>
<event>
 5    1  0.1607476E-006  0.2000295E+02  0.7818608E-02  0.1745269E+00
         -2   -1    0    0    0  501 -0.00000000000E+00  0.00000000000E+00  0.10422553020E+02  0.10422553344E+02  0.26000000000E-02 0. -1.
          2   -1    0    0  501    0  0.00000000000E+00 -0.00000000000E+00 -0.95974056678E+01  0.95974060200E+01  0.26000000000E-02 0.  1.
       1023    2    1    2    0    0  0.00000000000E+00  0.00000000000E+00  0.82514735193E+00  0.20019959364E+02  0.20002947403E+02 0.  0.
        -13    1    3    3    0    0  0.32267632849E+00 -0.99954179239E+01  0.33632344332E+00  0.10006836935E+02  0.10570000000E+00 0. -1.
         13    1    3    3    0    0 -0.32267632849E+00  0.99954179239E+01  0.48882390861E+00  0.10013122430E+02  0.10570000000E+00 0.  1.
<mgrwt>
<rscale>  0 0.20002947E+02</rscale>
<asrwt>0</asrwt>
<pdfrwt beam="2">  1        2 0.14765240E-02 0.20002947E+02</pdfrwt>
<pdfrwt beam="1">  1       -2 0.16034697E-02 0.20002947E+02</pdfrwt>
<totfact> 0.39331366E+06</totfact>
</mgrwt>
</event>
<event>
 5    1  0.1607476E-006  0.2000141E+02  0.7818608E-02  0.1745300E+00
         -2   -1    0    0    0  501 -0.00000000000E+00  0.00000000000E+00  0.86423973454E+01  0.86423977365E+01  0.26000000000E-02 0.  1.
          2   -1    0    0  501    0  0.00000000000E+00 -0.00000000000E+00 -0.11572491776E+02  0.11572492068E+02  0.26000000000E-02 0. -1.
       1023    2    1    2    0    0  0.00000000000E+00  0.00000000000E+00 -0.29300944308E+01  0.20214889805E+02  0.20001407862E+02 0.  0.
        -13    1    3    3    0    0  0.51921955980E+01 -0.85465374303E+01 -0.14919669339E+01  0.10111346844E+02  0.10570000000E+00 0. -1.
         13    1    3    3    0    0 -0.51921955980E+01  0.85465374303E+01 -0.14381274968E+01  0.10103542961E+02  0.10570000000E+00 0.  1.
<mgrwt>
<rscale>  0 0.20001408E+02</rscale>
<asrwt>0</asrwt>
<pdfrwt beam="2">  1        2 0.17803834E-02 0.20001408E+02</pdfrwt>
<pdfrwt beam="1">  1       -2 0.13295996E-02 0.20001408E+02</pdfrwt>
<totfact> 0.39884199E+06</totfact>
</mgrwt>
</event>
<event>
 5    1  0.1607476E-006  0.2000226E+02  0.7818608E-02  0.1745283E+00
          2   -1    0    0  501    0  0.00000000000E+00  0.00000000000E+00  0.45732069489E+01  0.45732076880E+01  0.26000000000E-02 0.  1.
         -2   -1    0    0    0  501 -0.00000000000E+00 -0.00000000000E+00 -0.21871437556E+02  0.21871437711E+02  0.26000000000E-02 0. -1.
       1023    2    1    2    0    0  0.00000000000E+00  0.00000000000E+00 -0.17298230607E+02  0.26444645399E+02  0.20002262075E+02 0.  0.
        -13    1    3    3    0    0 -0.95686146844E+01  0.29074110031E+01 -0.86426628691E+01  0.13218101970E+02  0.10570000000E+00 0.  1.
         13    1    3    3    0    0  0.95686146844E+01 -0.29074110031E+01 -0.86555677380E+01  0.13226543429E+02  0.10570000000E+00 0. -1.
<mgrwt>
<rscale>  0 0.20002262E+02</rscale>
<asrwt>0</asrwt>
<pdfrwt beam="1">  1        2 0.70357038E-03 0.20002262E+02</pdfrwt>
<pdfrwt beam="2">  1       -2 0.33648366E-02 0.20002262E+02</pdfrwt>
<totfact> 0.37141316E+06</totfact>
</mgrwt>
</event>
<event>
 4    1  0.1607476E-006  0.2001248E+02  0.7818608E-02  0.1745080E+00
          2   -1    0    0  501    0  0.00000000000E+00  0.00000000000E+00  0.55883440096E+01  0.55883446144E+01  0.26000000000E-02 0. -1.
         -2   -1    0    0    0  501 -0.00000000000E+00 -0.00000000000E+00 -0.17916718925E+02  0.17916719114E+02  0.26000000000E-02 0.  1.
        -13    1    1    2    0    0 -0.10002242145E+02  0.20525769459E+00 -0.63559153447E+01  0.11853092888E+02  0.10570000000E+00 0.  1.
         13    1    1    2    0    0  0.10002242145E+02 -0.20525769459E+00 -0.59724595712E+01  0.11651970841E+02  0.10570000000E+00 0. -1.
<mgrwt>
<rscale>  0 0.20012476E+02</rscale>
<asrwt>0</asrwt>
<pdfrwt beam="1">  1        2 0.85974530E-03 0.20012476E+02</pdfrwt>
<pdfrwt beam="2">  1       -2 0.27564183E-02 0.20012476E+02</pdfrwt>
<totfact> 0.37720532E+06</totfact>
</mgrwt>
</event>
<event>
 5    1  0.1607476E-006  0.2000242E+02  0.7818608E-02  0.1745280E+00
          2   -1    0    0  501    0  0.00000000000E+00  0.00000000000E+00  0.27351006687E+01  0.27351019045E+01  0.26000000000E-02 0. -1.
         -2   -1    0    0    0  501 -0.00000000000E+00 -0.00000000000E+00 -0.36570575119E+02  0.36570575211E+02  0.26000000000E-02 0.  1.
       1023    2    1    2    0    0  0.00000000000E+00  0.00000000000E+00 -0.33835474450E+02  0.39305677116E+02  0.20002422910E+02 0.  0.
        -13    1    3    3    0    0 -0.43128681976E+01  0.90225276169E+01 -0.17072731733E+02  0.19786262356E+02  0.10570000000E+00 0. -1.
         13    1    3    3    0    0  0.43128681976E+01 -0.90225276169E+01 -0.16762742717E+02  0.19519414760E+02  0.10570000000E+00 0.  1.
<mgrwt>
<rscale>  0 0.20002423E+02</rscale>
<asrwt>0</asrwt>
<pdfrwt beam="1">  1        2 0.42078485E-03 0.20002423E+02</pdfrwt>
<pdfrwt beam="2">  1       -2 0.56262421E-02 0.20002423E+02</pdfrwt>
<totfact> 0.35286390E+06</totfact>
</mgrwt>
</event>
<event>
 4    1  0.1607476E-006  0.2004470E+02  0.7818608E-02  0.1744441E+00
          2   -1    0    0  501    0  0.00000000000E+00  0.00000000000E+00  0.33319357637E+02  0.33319357739E+02  0.26000000000E-02 0. -1.
         -2   -1    0    0    0  501 -0.00000000000E+00 -0.00000000000E+00 -0.30146874530E+01  0.30146885742E+01  0.26000000000E-02 0.  1.
        -13    1    1    2    0    0  0.48994457530E+01  0.87409229184E+01  0.14849036867E+02  0.17914055111E+02  0.10570000000E+00 0.  1.
         13    1    1    2    0    0 -0.48994457530E+01 -0.87409229184E+01  0.15455633318E+02  0.18419991202E+02  0.10570000000E+00 0. -1.
<mgrwt>
<rscale>  0 0.20044697E+02</rscale>
<asrwt>0</asrwt>
<pdfrwt beam="1">  1        2 0.51260548E-02 0.20044697E+02</pdfrwt>
<pdfrwt beam="2">  1       -2 0.46379819E-03 0.20044697E+02</pdfrwt>
<totfact> 0.43673082E+06</totfact>
</mgrwt>
</event>
<event>
 5    1  0.1607476E-006  0.2000390E+02  0.7818608E-02  0.1745251E+00
         -2   -1    0    0    0  501 -0.00000000000E+00  0.00000000000E+00  0.24100008127E+01  0.24100022152E+01  0.26000000000E-02 0.  1.
          2   -1    0    0  501    0  0.00000000000E+00 -0.00000000000E+00 -0.41509914913E+02  0.41509914994E+02  0.26000000000E-02 0. -1.
       1023    2    1    2    0    0  0.00000000000E+00  0.00000000000E+00 -0.39099914100E+02  0.43919917209E+02  0.20003895747E+02 0.  0.
        -13    1    3    3    0    0  0.16720024099E+01  0.98594895609E+01 -0.19880478025E+02  0.22254206466E+02  0.10570000000E+00 0.  1.
         13    1    3    3    0    0 -0.16720024099E+01 -0.98594895609E+01 -0.19219436075E+02  0.21665710743E+02  0.10570000000E+00 0. -1.
<mgrwt>
<rscale>  0 0.20003896E+02</rscale>
<asrwt>0</asrwt>
<pdfrwt beam="2">  1        2 0.63861403E-02 0.20003896E+02</pdfrwt>
<pdfrwt beam="1">  1       -2 0.37076950E-03 0.20003896E+02</pdfrwt>
<totfact> 0.45097767E+06</totfact>
</mgrwt>
</event>
<event>
 4    1  0.1607476E-006  0.2010622E+02  0.7818608E-02  0.1743224E+00
         -2   -1    0    0    0  501 -0.00000000000E+00  0.00000000000E+00  0.10326761226E+02  0.10326761553E+02  0.26000000000E-02 0. -1.
          2   -1    0    0  501    0  0.00000000000E+00 -0.00000000000E+00 -0.97867103865E+01  0.97867107319E+01  0.26000000000E-02 0.  1.
        -13    1    1    2    0    0 -0.87045378020E+01  0.49344064368E+01 -0.69805827571E+00  0.10030742897E+02  0.10570000000E+00 0.  1.
         13    1    1    2    0    0  0.87045378020E+01 -0.49344064368E+01  0.12381091150E+01  0.10082729387E+02  0.10570000000E+00 0. -1.
<mgrwt>
<rscale>  0 0.20106221E+02</rscale>
<asrwt>0</asrwt>
<pdfrwt beam="2">  1        2 0.15056478E-02 0.20106221E+02</pdfrwt>
<pdfrwt beam="1">  1       -2 0.15887326E-02 0.20106221E+02</pdfrwt>
<totfact> 0.38926579E+06</totfact>
</mgrwt>
</event>
<event>
 4    1  0.1607476E-006  0.2038900E+02  0.7818608E-02  0.1737701E+00
          2   -1    0    0  501    0  0.00000000000E+00  0.00000000000E+00  0.92539487793E+01  0.92539491446E+01  0.26000000000E-02 0.  1.
         -2   -1    0    0    0  501 -0.00000000000E+00 -0.00000000000E+00 -0.11230649163E+02  0.11230649464E+02  0.26000000000E-02 0. -1.
        -13    1    1    2    0    0  0.50790558363E+01  0.87849681623E+01 -0.19646121799E+01  0.10336505566E+02  0.10570000000E+00 0. -1.
         13    1    1    2    0    0 -0.50790558363E+01 -0.87849681623E+01 -0.12088204154E-01  0.10148093043E+02  0.10570000000E+00 0.  1.
<mgrwt>
<rscale>  0 0.20389003E+02</rscale>
<asrwt>0</asrwt>
<pdfrwt beam="1">  1        2 0.14236845E-02 0.20389003E+02</pdfrwt>
<pdfrwt beam="2">  1       -2 0.17277922E-02 0.20389003E+02</pdfrwt>
<totfact> 0.37542920E+06</totfact>
</mgrwt>
</event>
<event>
 5    1  0.1607476E-006  0.2000492E+02  0.7818608E-02  0.1745230E+00
          2   -1    0    0  501    0  0.00000000000E+00  0.00000000000E+00  0.10360455694E+02  0.10360456020E+02  0.26000000000E-02 0. -1.
         -2   -1    0    0    0  501 -0.00000000000E+00 -0.00000000000E+00 -0.96568369074E+01  0.96568372574E+01  0.26000000000E-02 0.  1.
       1023    2    1    2    0    0  0.00000000000E+00  0.00000000000E+00  0.70361878646E+00  0.20017293278E+02  0.20004923163E+02 0.  0.
        -13    1    3    3    0    0 -0.53643928581E+00 -0.99859117881E+01  0.17319452078E+00  0.10002368229E+02  0.10570000000E+00 0.  1.
         13    1    3    3    0    0  0.53643928581E+00  0.99859117881E+01  0.53042426568E+00  0.10014925049E+02  0.10570000000E+00 0. -1.
<mgrwt>
<rscale>  0 0.20004923E+02</rscale>
<asrwt>0</asrwt>
<pdfrwt beam="1">  1        2 0.15939163E-02 0.20004923E+02</pdfrwt>
<pdfrwt beam="2">  1       -2 0.14856673E-02 0.20004923E+02</pdfrwt>
<totfact> 0.39543608E+06</totfact>
</mgrwt>
</event>
<event>
 5    1  0.1607476E-006  0.2000772E+02  0.7818608E-02  0.1745175E+00
          2   -1    0    0  501    0  0.00000000000E+00  0.00000000000E+00  0.16382365759E+01  0.16382386391E+01  0.26000000000E-02 0. -1.
         -2   -1    0    0    0  501 -0.00000000000E+00 -0.00000000000E+00 -0.61088316233E+02  0.61088316289E+02  0.26000000000E-02 0.  1.
       1023    2    1    2    0    0  0.00000000000E+00  0.00000000000E+00 -0.59450079657E+02  0.62726554928E+02  0.20007716557E+02 0.  0.
        -13    1    3    3    0    0 -0.69775730841E+01  0.71652627276E+01 -0.30340129449E+02  0.31946238332E+02  0.10570000000E+00 0. -1.
         13    1    3    3    0    0  0.69775730841E+01 -0.71652627276E+01 -0.29109950208E+02  0.30780316596E+02  0.10570000000E+00 0.  1.
<mgrwt>
<rscale>  0 0.20007717E+02</rscale>
<asrwt>0</asrwt>
<pdfrwt beam="1">  1        2 0.25203661E-03 0.20007717E+02</pdfrwt>
<pdfrwt beam="2">  1       -2 0.93982009E-02 0.20007717E+02</pdfrwt>
<totfact> 0.32834050E+06</totfact>
</mgrwt>
</event>
<event>
 5    1  0.1607476E-006  0.2000237E+02  0.7818608E-02  0.1745281E+00
          2   -1    0    0  501    0  0.00000000000E+00  0.00000000000E+00  0.29217089353E+02  0.29217089469E+02  0.26000000000E-02 0. -1.
         -2   -1    0    0    0  501 -0.00000000000E+00 -0.00000000000E+00 -0.34234644725E+01  0.34234654598E+01  0.26000000000E-02 0.  1.
       1023    2    1    2    0    0  0.00000000000E+00  0.00000000000E+00  0.25793624881E+02  0.32640554929E+02  0.20002368399E+02 0.  0.
        -13    1    3    3    0    0  0.66058061056E+01 -0.75082305233E+01  0.12975293434E+02  0.16382295690E+02  0.10570000000E+00 0. -1.
         13    1    3    3    0    0 -0.66058061056E+01  0.75082305233E+01  0.12818331447E+02  0.16258259239E+02  0.10570000000E+00 0.  1.
<mgrwt>
<rscale>  0 0.20002368E+02</rscale>
<asrwt>0</asrwt>
<pdfrwt beam="1">  1        2 0.44949368E-02 0.20002368E+02</pdfrwt>
<pdfrwt beam="2">  1       -2 0.52668694E-03 0.20002368E+02</pdfrwt>
<totfact> 0.43237017E+06</totfact>
</mgrwt>
</event>
<event>
 5    1  0.1607476E-006  0.2000169E+02  0.7818608E-02  0.1745294E+00
         -2   -1    0    0    0  501 -0.00000000000E+00  0.00000000000E+00  0.51341774743E+02  0.51341774809E+02  0.26000000000E-02 0.  1.
          2   -1    0    0  501    0  0.00000000000E+00 -0.00000000000E+00 -0.19480607664E+01  0.19480625015E+01  0.26000000000E-02 0. -1.
       1023    2    1    2    0    0  0.00000000000E+00  0.00000000000E+00  0.49393713977E+02  0.53289837310E+02  0.20001694432E+02 0.  0.
        -13    1    3    3    0    0 -0.95545718732E+01  0.29517213489E+01  0.24544505042E+02  0.26503705455E+02  0.10570000000E+00 0. -1.
         13    1    3    3    0    0  0.95545718732E+01 -0.29517213489E+01  0.24849208934E+02  0.26786131855E+02  0.10570000000E+00 0.  1.
<mgrwt>
<rscale>  0 0.20001694E+02</rscale>
<asrwt>0</asrwt>
<pdfrwt beam="2">  1        2 0.29970180E-03 0.20001694E+02</pdfrwt>
<pdfrwt beam="1">  1       -2 0.78987345E-02 0.20001694E+02</pdfrwt>
<totfact> 0.33762243E+06</totfact>
</mgrwt>
</event>
<event>
 5    1  0.1607476E-006  0.2000517E+02  0.7818608E-02  0.1745225E+00
          2   -1    0    0  501    0  0.00000000000E+00  0.00000000000E+00  0.68409945776E+01  0.68409950716E+01  0.26000000000E-02 0.  1.
         -2   -1    0    0    0  501 -0.00000000000E+00 -0.00000000000E+00 -0.14625311835E+02  0.14625312066E+02  0.26000000000E-02 0. -1.
       1023    2    1    2    0    0  0.00000000000E+00  0.00000000000E+00 -0.77843172578E+01  0.21466307138E+02  0.20005168007E+02 0.  0.
        -13    1    3    3    0    0 -0.47737105304E+01 -0.87888404706E+01 -0.37933155216E+01  0.10697310138E+02  0.10570000000E+00 0.  1.
         13    1    3    3    0    0  0.47737105304E+01  0.87888404706E+01 -0.39910017362E+01  0.10768997000E+02  0.10570000000E+00 0. -1.
<mgrwt>
<rscale>  0 0.20005168E+02</rscale>
<asrwt>0</asrwt>
<pdfrwt beam="1">  1        2 0.10524608E-02 0.20005168E+02</pdfrwt>
<pdfrwt beam="2">  1       -2 0.22500480E-02 0.20005168E+02</pdfrwt>
<totfact> 0.38349761E+06</totfact>
</mgrwt>
</event>
<event>
 4    1  0.1607476E-006  0.2001880E+02  0.7818608E-02  0.1744954E+00
         -2   -1    0    0    0  501 -0.00000000000E+00  0.00000000000E+00  0.95518718313E+00  0.95519072170E+00  0.26000000000E-02 0.  1.
          2   -1    0    0  501    0  0.00000000000E+00 -0.00000000000E+00 -0.10488825255E+03  0.10488825259E+03  0.26000000000E-02 0. -1.
        -13    1    1    2    0    0  0.69173303225E+01  0.72326165886E+01 -0.52650392436E+02  0.53593238358E+02  0.10570000000E+00 0. -1.
         13    1    1    2    0    0 -0.69173303225E+01 -0.72326165886E+01 -0.51282672934E+02  0.52250204950E+02  0.10570000000E+00 0.  1.
<mgrwt>
<rscale>  0 0.20018802E+02</rscale>
<asrwt>0</asrwt>
<pdfrwt beam="2">  1        2 0.16136645E-01 0.20018802E+02</pdfrwt>
<pdfrwt beam="1">  1       -2 0.14695223E-03 0.20018802E+02</pdfrwt>
<totfact> 0.53229105E+06</totfact>
</mgrwt>
</event>
<event>
 4    1  0.2194471E-006  0.2002790E+02  0.7818608E-02  0.1744774E+00
          2   -1    0    0  501    0  0.00000000000E+00  0.00000000000E+00  0.11492058234E+03  0.11492058236E+03  0.26000000000E-02 0. -1.
         -2   -1    0    0    0  501 -0.00000000000E+00 -0.00000000000E+00 -0.87259398538E+00  0.87259785888E+00  0.26000000000E-02 0.  1.
        -13    1    1    2    0    0  0.88400872745E+01 -0.46831068414E+01  0.54507641405E+02  0.55418162877E+02  0.10570000000E+00 0. -1.
         13    1    1    2    0    0 -0.88400872745E+01  0.46831068414E+01  0.59540346945E+02  0.60375017346E+02  0.10570000000E+00 0.  1.
<mgrwt>
<rscale>  0 0.20027904E+02</rscale>
<asrwt>0</asrwt>
<pdfrwt beam="1">  1        2 0.17680086E-01 0.20027904E+02</pdfrwt>
<pdfrwt beam="2">  1       -2 0.13424556E-03 0.20027904E+02</pdfrwt>
<totfact> 0.54343037E+06</totfact>
</mgrwt>
</event>
<event>
 5    1  0.1607476E-006  0.2000597E+02  0.7818608E-02  0.1745209E+00
          2   -1    0    0  501    0  0.00000000000E+00  0.00000000000E+00  0.43653509086E+01  0.43653516829E+01  0.26000000000E-02 0. -1.
         -2   -1    0    0    0  501 -0.00000000000E+00 -0.00000000000E+00 -0.22921335619E+02  0.22921335766E+02  0.26000000000E-02 0.  1.
       1023    2    1    2    0    0  0.00000000000E+00  0.00000000000E+00 -0.18555984710E+02  0.27286687449E+02  0.20005967694E+02 0.  0.
        -13    1    3    3    0    0 -0.32968294727E+01  0.94429479917E+01 -0.91404992090E+01  0.13549843159E+02  0.10570000000E+00 0.  1.
         13    1    3    3    0    0  0.32968294727E+01 -0.94429479917E+01 -0.94154855014E+01  0.13736844291E+02  0.10570000000E+00 0. -1.
<mgrwt>
<rscale>  0 0.20005968E+02</rscale>
<asrwt>0</asrwt>
<pdfrwt beam="1">  1        2 0.67159253E-03 0.20005968E+02</pdfrwt>
<pdfrwt beam="2">  1       -2 0.35263593E-02 0.20005968E+02</pdfrwt>
<totfact> 0.36974235E+06</totfact>
</mgrwt>
</event>
<event>
 5    1  0.1607476E-006  0.2000385E+02  0.7818608E-02  0.1745252E+00
         -2   -1    0    0    0  501 -0.00000000000E+00  0.00000000000E+00  0.97214409367E+01  0.97214412844E+01  0.26000000000E-02 0.  1.
          2   -1    0    0  501    0  0.00000000000E+00 -0.00000000000E+00 -0.10290500599E+02  0.10290500927E+02  0.26000000000E-02 0. -1.
       1023    2    1    2    0    0  0.00000000000E+00  0.00000000000E+00 -0.56905966224E+00  0.20011942212E+02  0.20003849684E+02 0.  0.
        -13    1    3    3    0    0  0.80521431928E+01  0.59321373699E+01 -0.29255084615E+00  0.10006199192E+02  0.10570000000E+00 0. -1.
         13    1    3    3    0    0 -0.80521431928E+01 -0.59321373699E+01 -0.27650881609E+00  0.10005743020E+02  0.10570000000E+00 0.  1.
<mgrwt>
<rscale>  0 0.20003850E+02</rscale>
<asrwt>0</asrwt>
<pdfrwt beam="2">  1        2 0.15831540E-02 0.20003850E+02</pdfrwt>
<pdfrwt beam="1">  1       -2 0.14956063E-02 0.20003850E+02</pdfrwt>
<totfact> 0.39528774E+06</totfact>
</mgrwt>
</event>
<event>
 4    1  0.1607476E-006  0.2001343E+02  0.7818608E-02  0.1745061E+00
          2   -1    0    0  501    0  0.00000000000E+00  0.00000000000E+00  0.96902040845E+00  0.96902389650E+00  0.26000000000E-02 0.  1.
         -2   -1    0    0    0  501 -0.00000000000E+00 -0.00000000000E+00 -0.10333547968E+03  0.10333547971E+03  0.26000000000E-02 0. -1.
        -13    1    1    2    0    0 -0.93732700570E+01  0.34935676505E+01 -0.49906693650E+02  0.50899434674E+02  0.10570000000E+00 0. -1.
         13    1    1    2    0    0  0.93732700570E+01 -0.34935676505E+01 -0.52459765617E+02  0.53405068931E+02  0.10570000000E+00 0.  1.
<mgrwt>
<rscale>  0 0.20013433E+02</rscale>
<asrwt>0</asrwt>
<pdfrwt beam="1">  1        2 0.14908042E-03 0.20013433E+02</pdfrwt>
<pdfrwt beam="2">  1       -2 0.15897758E-01 0.20013433E+02</pdfrwt>
<totfact> 0.29447134E+06</totfact>
</mgrwt>
</event>
<event>
 5    1  0.1607476E-006  0.2000245E+02  0.7818608E-02  0.1745279E+00
          2   -1    0    0  501    0  0.00000000000E+00  0.00000000000E+00  0.41242366442E+01  0.41242374637E+01  0.26000000000E-02 0. -1.
         -2   -1    0    0    0  501 -0.00000000000E+00 -0.00000000000E+00 -0.24252859253E+02  0.24252859392E+02  0.26000000000E-02 0.  1.
       1023    2    1    2    0    0  0.00000000000E+00  0.00000000000E+00 -0.20128622609E+02  0.28377096856E+02  0.20002454296E+02 0.  0.
        -13    1    3    3    0    0 -0.91346096690E+01  0.40708539709E+01 -0.10093596492E+02  0.14209321183E+02  0.10570000000E+00 0. -1.
         13    1    3    3    0    0  0.91346096690E+01 -0.40708539709E+01 -0.10035026117E+02  0.14167775673E+02  0.10570000000E+00 0.  1.
<mgrwt>
<rscale>  0 0.20002454E+02</rscale>
<asrwt>0</asrwt>
<pdfrwt beam="1">  1        2 0.63449804E-03 0.20002454E+02</pdfrwt>
<pdfrwt beam="2">  1       -2 0.37312091E-02 0.20002454E+02</pdfrwt>
<totfact> 0.36801392E+06</totfact>
</mgrwt>
</event>
<event>
 5    1  0.1607476E-006  0.2000400E+02  0.7818608E-02  0.1745249E+00
          2   -1    0    0  501    0  0.00000000000E+00  0.00000000000E+00  0.95494278851E+02  0.95494278887E+02  0.26000000000E-02 0. -1.
         -2   -1    0    0    0  501 -0.00000000000E+00 -0.00000000000E+00 -0.10476000986E+01  0.10476033251E+01  0.26000000000E-02 0.  1.
       1023    2    1    2    0    0  0.00000000000E+00  0.00000000000E+00  0.94446678753E+02  0.96541882212E+02  0.20003996940E+02 0.  0.
        -13    1    3    3    0    0  0.86884770253E+01  0.49528677934E+01  0.46784493031E+02  0.47841618838E+02  0.10570000000E+00 0. -1.
         13    1    3    3    0    0 -0.86884770253E+01 -0.49528677934E+01  0.47662185722E+02  0.48700263374E+02  0.10570000000E+00 0.  1.
<mgrwt>
<rscale>  0 0.20003997E+02</rscale>
<asrwt>0</asrwt>
<pdfrwt beam="1">  1        2 0.14691439E-01 0.20003997E+02</pdfrwt>
<pdfrwt beam="2">  1       -2 0.16116937E-03 0.20003997E+02</pdfrwt>
<totfact> 0.52192216E+06</totfact>
</mgrwt>
</event>
<event>
 5    1  0.1607476E-006  0.2000597E+02  0.7818608E-02  0.1745209E+00
         -2   -1    0    0    0  501 -0.00000000000E+00  0.00000000000E+00  0.11617368237E+01  0.11617397331E+01  0.26000000000E-02 0.  1.
          2   -1    0    0  501    0  0.00000000000E+00 -0.00000000000E+00 -0.86129301172E+02  0.86129301211E+02  0.26000000000E-02 0. -1.
       1023    2    1    2    0    0  0.00000000000E+00  0.00000000000E+00 -0.84967564348E+02  0.87291040944E+02  0.20005970055E+02 0.  0.
        -13    1    3    3    0    0  0.31910243420E+01 -0.94783702137E+01 -0.41774855271E+02  0.42955463490E+02  0.10570000000E+00 0.  1.
         13    1    3    3    0    0 -0.31910243420E+01  0.94783702137E+01 -0.43192709077E+02  0.44335577454E+02  0.10570000000E+00 0. -1.
<mgrwt>
<rscale>  0 0.20005970E+02</rscale>
<asrwt>0</asrwt>
<pdfrwt beam="2">  1        2 0.13250657E-01 0.20005970E+02</pdfrwt>
<pdfrwt beam="1">  1       -2 0.17872904E-03 0.20005970E+02</pdfrwt>
<totfact> 0.51032706E+06</totfact>
</mgrwt>
</event>
<event>
 4    1  0.1607476E-006  0.2111648E+02  0.7818608E-02  0.1723996E+00
          2   -1    0    0  501    0  0.00000000000E+00  0.00000000000E+00  0.89441977214E+02  0.89441977252E+02  0.26000000000E-02 0. -1.
         -2   -1    0    0    0  501 -0.00000000000E+00 -0.00000000000E+00 -0.12463533425E+01  0.12463560544E+01  0.26000000000E-02 0.  1.
        -13    1    1    2    0    0  0.69926571024E+01  0.78148620657E+01  0.38845064174E+02  0.40235798807E+02  0.10570000000E+00 0.  1.
         13    1    1    2    0    0 -0.69926571024E+01 -0.78148620657E+01  0.49350559697E+02  0.50452534499E+02  0.10570000000E+00 0. -1.
<mgrwt>
<rscale>  0 0.21116480E+02</rscale>
<asrwt>0</asrwt>
<pdfrwt beam="1">  1        2 0.13760307E-01 0.21116480E+02</pdfrwt>
<pdfrwt beam="2">  1       -2 0.19174685E-03 0.21116480E+02</pdfrwt>
<totfact> 0.45625737E+06</totfact>
</mgrwt>
</event>
<event>
 5    1  0.1607476E-006  0.2000359E+02  0.7818608E-02  0.1745257E+00
         -2   -1    0    0    0  501 -0.00000000000E+00  0.00000000000E+00  0.11837347833E+01  0.11837376387E+01  0.26000000000E-02 0. -1.
          2   -1    0    0  501    0  0.00000000000E+00 -0.00000000000E+00 -0.84508623977E+02  0.84508624017E+02  0.26000000000E-02 0.  1.
       1023    2    1    2    0    0  0.00000000000E+00  0.00000000000E+00 -0.83324889193E+02  0.85692361655E+02  0.20003591852E+02 0.  0.
        -13    1    3    3    0    0 -0.88475358016E+01 -0.46631232426E+01 -0.41807155192E+02  0.42986893420E+02  0.10570000000E+00 0.  1.
         13    1    3    3    0    0  0.88475358016E+01  0.46631232426E+01 -0.41517734001E+02  0.42705468236E+02  0.10570000000E+00 0. -1.
<mgrwt>
<rscale>  0 0.20003592E+02</rscale>
<asrwt>0</asrwt>
<pdfrwt beam="2">  1        2 0.13001322E-01 0.20003592E+02</pdfrwt>
<pdfrwt beam="1">  1       -2 0.18211333E-03 0.20003592E+02</pdfrwt>
<totfact> 0.50844424E+06</totfact>
</mgrwt>
</event>
<event>
 5    1  0.1607476E-006  0.2000232E+02  0.7818608E-02  0.1745282E+00
         -2   -1    0    0    0  501 -0.00000000000E+00  0.00000000000E+00  0.53121779714E+01  0.53121786076E+01  0.26000000000E-02 0.  1.
          2   -1    0    0  501    0  0.00000000000E+00 -0.00000000000E+00 -0.18829029233E+02  0.18829029413E+02  0.26000000000E-02 0. -1.
       1023    2    1    2    0    0  0.00000000000E+00  0.00000000000E+00 -0.13516851262E+02  0.24141208020E+02  0.20002316282E+02 0.  0.
        -13    1    3    3    0    0 -0.90862844158E+01 -0.41769916045E+01 -0.68363475135E+01  0.12114233082E+02  0.10570000000E+00 0. -1.
         13    1    3    3    0    0  0.90862844158E+01  0.41769916045E+01 -0.66805037484E+01  0.12026974939E+02  0.10570000000E+00 0.  1.
<mgrwt>
<rscale>  0 0.20002316E+02</rscale>
<asrwt>0</asrwt>
<pdfrwt beam="2">  1        2 0.28967738E-02 0.20002316E+02</pdfrwt>
<pdfrwt beam="1">  1       -2 0.81725822E-03 0.20002316E+02</pdfrwt>
<totfact> 0.41448353E+06</totfact>
</mgrwt>
</event>
<event>
 5    1  0.1607476E-006  0.2000332E+02  0.7818608E-02  0.1745262E+00
         -2   -1    0    0    0  501 -0.00000000000E+00  0.00000000000E+00  0.12263121160E+01  0.12263148722E+01  0.26000000000E-02 0. -1.
          2   -1    0    0  501    0  0.00000000000E+00 -0.00000000000E+00 -0.81572281274E+02  0.81572281315E+02  0.26000000000E-02 0.  1.
       1023    2    1    2    0    0  0.00000000000E+00  0.00000000000E+00 -0.80345969158E+02  0.82798596187E+02  0.20003318992E+02 0.  0.
        -13    1    3    3    0    0 -0.87274890282E+01 -0.48837640840E+01 -0.39997184992E+02  0.41228705972E+02  0.10570000000E+00 0.  1.
         13    1    3    3    0    0  0.87274890282E+01  0.48837640840E+01 -0.40348784166E+02  0.41569890215E+02  0.10570000000E+00 0. -1.
<mgrwt>
<rscale>  0 0.20003319E+02</rscale>
<asrwt>0</asrwt>
<pdfrwt beam="2">  1        2 0.12549578E-01 0.20003319E+02</pdfrwt>
<pdfrwt beam="1">  1       -2 0.18866368E-03 0.20003319E+02</pdfrwt>
<totfact> 0.50478851E+06</totfact>
</mgrwt>
</event>
<event>
 4    1  0.1607476E-006  0.2003177E+02  0.7818608E-02  0.1744697E+00
          2   -1    0    0  501    0  0.00000000000E+00  0.00000000000E+00  0.80883829853E+02  0.80883829895E+02  0.26000000000E-02 0. -1.
         -2   -1    0    0    0  501 -0.00000000000E+00 -0.00000000000E+00 -0.12402711761E+01  0.12402739013E+01  0.26000000000E-02 0.  1.
        -13    1    1    2    0    0 -0.37768534059E+01  0.92638669139E+01  0.41757650494E+02  0.42939450382E+02  0.10570000000E+00 0.  1.
         13    1    1    2    0    0  0.37768534059E+01 -0.92638669139E+01  0.37885908183E+02  0.39184653414E+02  0.10570000000E+00 0. -1.
<mgrwt>
<rscale>  0 0.20031774E+02</rscale>
<asrwt>0</asrwt>
<pdfrwt beam="1">  1        2 0.12443669E-01 0.20031774E+02</pdfrwt>
<pdfrwt beam="2">  1       -2 0.19081112E-03 0.20031774E+02</pdfrwt>
<totfact> 0.50234095E+06</totfact>
</mgrwt>
</event>
<event>
 5    1  0.1607476E-006  0.2000384E+02  0.7818608E-02  0.1745252E+00
          2   -1    0    0  501    0  0.00000000000E+00  0.00000000000E+00  0.50469147829E+02  0.50469147896E+02  0.26000000000E-02 0. -1.
         -2   -1    0    0    0  501 -0.00000000000E+00 -0.00000000000E+00 -0.19821681701E+01  0.19821698753E+01  0.26000000000E-02 0.  1.
       1023    2    1    2    0    0  0.00000000000E+00  0.00000000000E+00  0.48486979659E+02  0.52451317772E+02  0.20003838119E+02 0.  0.
        -13    1    3    3    0    0  0.21552448573E+01  0.97660027098E+01  0.24019107090E+02  0.26018235283E+02  0.10570000000E+00 0. -1.
         13    1    3    3    0    0 -0.21552448573E+01 -0.97660027098E+01  0.24467872569E+02  0.26433082489E+02  0.10570000000E+00 0.  1.
<mgrwt>
<rscale>  0 0.20003838E+02</rscale>
<asrwt>0</asrwt>
<pdfrwt beam="1">  1        2 0.77644835E-02 0.20003838E+02</pdfrwt>
<pdfrwt beam="2">  1       -2 0.30494912E-03 0.20003838E+02</pdfrwt>
<totfact> 0.46373781E+06</totfact>
</mgrwt>
</event>
<event>
 5    1  0.1607476E-006  0.2000638E+02  0.7818608E-02  0.1745201E+00
          2   -1    0    0  501    0  0.00000000000E+00  0.00000000000E+00  0.45367102328E+01  0.45367109778E+01  0.26000000000E-02 0.  1.
         -2   -1    0    0    0  501 -0.00000000000E+00 -0.00000000000E+00 -0.22056462751E+02  0.22056462904E+02  0.26000000000E-02 0. -1.
       1023    2    1    2    0    0  0.00000000000E+00  0.00000000000E+00 -0.17519752518E+02  0.26593173882E+02  0.20006378203E+02 0.  0.
        -13    1    3    3    0    0  0.88248838029E+01 -0.47034332666E+01 -0.90622913017E+01  0.13495819899E+02  0.10570000000E+00 0. -1.
         13    1    3    3    0    0 -0.88248838029E+01  0.47034332666E+01 -0.84574612166E+01  0.13097353983E+02  0.10570000000E+00 0.  1.
<mgrwt>
<rscale>  0 0.20006378E+02</rscale>
<asrwt>0</asrwt>
<pdfrwt beam="1">  1        2 0.69795550E-03 0.20006378E+02</pdfrwt>
<pdfrwt beam="2">  1       -2 0.33933020E-02 0.20006378E+02</pdfrwt>
<totfact> 0.37097577E+06</totfact>
</mgrwt>
</event>
<event>
 5    1  0.1607476E-006  0.2000979E+02  0.7818608E-02  0.1745133E+00
         -2   -1    0    0    0  501 -0.00000000000E+00  0.00000000000E+00  0.97605156165E+01  0.97605159628E+01  0.26000000000E-02 0. -1.
          2   -1    0    0  501    0  0.00000000000E+00 -0.00000000000E+00 -0.10255391924E+02  0.10255392254E+02  0.26000000000E-02 0.  1.
       1023    2    1    2    0    0  0.00000000000E+00  0.00000000000E+00 -0.49487630787E+00  0.20015908217E+02  0.20009789584E+02 0.  0.
        -13    1    3    3    0    0  0.48995552524E+01 -0.87192491643E+01 -0.11146441322E-01  0.10002111997E+02  0.10570000000E+00 0. -1.
         13    1    3    3    0    0 -0.48995552524E+01  0.87192491643E+01 -0.48372986655E+00  0.10013796220E+02  0.10570000000E+00 0.  1.
<mgrwt>
<rscale>  0 0.20009790E+02</rscale>
<asrwt>0</asrwt>
<pdfrwt beam="2">  1        2 0.15777526E-02 0.20009790E+02</pdfrwt>
<pdfrwt beam="1">  1       -2 0.15016178E-02 0.20009790E+02</pdfrwt>
<totfact> 0.39492080E+06</totfact>
</mgrwt>
</event>
<event>
 4    1  0.1607476E-006  0.2019736E+02  0.7818608E-02  0.1741432E+00
          2   -1    0    0  501    0  0.00000000000E+00  0.00000000000E+00  0.46149667743E+02  0.46149667816E+02  0.26000000000E-02 0. -1.
         -2   -1    0    0    0  501 -0.00000000000E+00 -0.00000000000E+00 -0.22098386951E+01  0.22098402246E+01  0.26000000000E-02 0.  1.
        -13    1    1    2    0    0 -0.38752211021E+01  0.92229957585E+01  0.25262641881E+02  0.27171551973E+02  0.10570000000E+00 0.  1.
         13    1    1    2    0    0  0.38752211021E+01 -0.92229957585E+01  0.18677187167E+02  0.21187956068E+02  0.10570000000E+00 0. -1.
<mgrwt>
<rscale>  0 0.20197362E+02</rscale>
<asrwt>0</asrwt>
<pdfrwt beam="1">  1        2 0.70999484E-02 0.20197362E+02</pdfrwt>
<pdfrwt beam="2">  1       -2 0.33997534E-03 0.20197362E+02</pdfrwt>
<totfact> 0.44793032E+06</totfact>
</mgrwt>
</event>
<event>
 5    1  0.2187752E-006  0.2001141E+02  0.7818608E-02  0.1745101E+00
         -2   -1    0    0    0  501 -0.00000000000E+00  0.00000000000E+00  0.89404437562E+00  0.89404815618E+00  0.26000000000E-02 0. -1.
          2   -1    0    0  501    0  0.00000000000E+00 -0.00000000000E+00 -0.11197871638E+03  0.11197871641E+03  0.26000000000E-02 0.  1.
       1023    2    1    2    0    0  0.00000000000E+00  0.00000000000E+00 -0.11108467201E+03  0.11287276457E+03  0.20011412407E+02 0.  0.
        -13    1    3    3    0    0  0.97865808152E+01 -0.20750983314E+01 -0.54748919053E+02  0.55655534380E+02  0.10570000000E+00 0. -1.
         13    1    3    3    0    0 -0.97865808152E+01  0.20750983314E+01 -0.56335752952E+02  0.57217230187E+02  0.10570000000E+00 0.  1.
<mgrwt>
<rscale>  0 0.20011412E+02</rscale>
<asrwt>0</asrwt>
<pdfrwt beam="2">  1        2 0.17227484E-01 0.20011412E+02</pdfrwt>
<pdfrwt beam="1">  1       -2 0.13754567E-03 0.20011412E+02</pdfrwt>
<totfact> 0.54101799E+06</totfact>
</mgrwt>
</event>
<event>
 4    1  0.1607476E-006  0.2004786E+02  0.7818608E-02  0.1744378E+00
         -2   -1    0    0    0  501 -0.00000000000E+00  0.00000000000E+00  0.14706766539E+01  0.14706789522E+01  0.26000000000E-02 0.  1.
          2   -1    0    0  501    0  0.00000000000E+00 -0.00000000000E+00 -0.68321657435E+02  0.68321657484E+02  0.26000000000E-02 0. -1.
        -13    1    1    2    0    0 -0.91042442458E+01 -0.41488791936E+01 -0.31315032020E+02  0.32874653835E+02  0.10570000000E+00 0. -1.
         13    1    1    2    0    0  0.91042442458E+01  0.41488791936E+01 -0.35535948761E+02  0.36917682602E+02  0.10570000000E+00 0.  1.
<mgrwt>
<rscale>  0 0.20047858E+02</rscale>
<asrwt>0</asrwt>
<pdfrwt beam="2">  1        2 0.10511022E-01 0.20047858E+02</pdfrwt>
<pdfrwt beam="1">  1       -2 0.22625818E-03 0.20047858E+02</pdfrwt>
<totfact> 0.48542911E+06</totfact>
</mgrwt>
</event>
<event>
 5    1  0.1607476E-006  0.2000813E+02  0.7818608E-02  0.1745166E+00
          2   -1    0    0  501    0  0.00000000000E+00  0.00000000000E+00  0.98680639700E+02  0.98680639735E+02  0.26000000000E-02 0.  1.
         -2   -1    0    0    0  501 -0.00000000000E+00 -0.00000000000E+00 -0.10141924406E+01  0.10141957733E+01  0.26000000000E-02 0. -1.
       1023    2    1    2    0    0  0.00000000000E+00  0.00000000000E+00  0.97666447260E+02  0.99694835508E+02  0.20008131012E+02 0.  0.
        -13    1    3    3    0    0 -0.96734323395E+01  0.25351681752E+01  0.47535962627E+02  0.48576550786E+02  0.10570000000E+00 0.  1.
         13    1    3    3    0    0  0.96734323395E+01 -0.25351681752E+01  0.50130484633E+02  0.51118284722E+02  0.10570000000E+00 0. -1.
<mgrwt>
<rscale>  0 0.20008131E+02</rscale>
<asrwt>0</asrwt>
<pdfrwt beam="1">  1        2 0.15181644E-01 0.20008131E+02</pdfrwt>
<pdfrwt beam="2">  1       -2 0.15602979E-03 0.20008131E+02</pdfrwt>
<totfact> 0.52552531E+06</totfact>
</mgrwt>
</event>
<event>
 5    1  0.1607476E-006  0.2000112E+02  0.7818608E-02  0.1745306E+00
          2   -1    0    0  501    0  0.00000000000E+00  0.00000000000E+00  0.30982655495E+02  0.30982655605E+02  0.26000000000E-02 0. -1.
         -2   -1    0    0    0  501 -0.00000000000E+00 -0.00000000000E+00 -0.32279737025E+01  0.32279747496E+01  0.26000000000E-02 0.  1.
       1023    2    1    2    0    0  0.00000000000E+00  0.00000000000E+00  0.27754681793E+02  0.34210630354E+02  0.20001121664E+02 0.  0.
        -13    1    3    3    0    0 -0.48672561101E+01  0.87355508918E+01  0.13871165045E+02  0.17100304781E+02  0.10570000000E+00 0. -1.
         13    1    3    3    0    0  0.48672561101E+01 -0.87355508918E+01  0.13883516748E+02  0.17110325573E+02  0.10570000000E+00 0.  1.
<mgrwt>
<rscale>  0 0.20001122E+02</rscale>
<asrwt>0</asrwt>
<pdfrwt beam="1">  1        2 0.47665624E-02 0.20001122E+02</pdfrwt>
<pdfrwt beam="2">  1       -2 0.49661144E-03 0.20001122E+02</pdfrwt>
<totfact> 0.43522949E+06</totfact>
</mgrwt>
</event>
<event>
 4    1  0.1607476E-006  0.2002000E+02  0.7818608E-02  0.1744931E+00
          2   -1    0    0  501    0  0.00000000000E+00  0.00000000000E+00  0.57651851154E+02  0.57651851213E+02  0.26000000000E-02 0.  1.
         -2   -1    0    0    0  501 -0.00000000000E+00 -0.00000000000E+00 -0.17380199411E+01  0.17380218858E+01  0.26000000000E-02 0. -1.
        -13    1    1    2    0    0  0.56368139419E+01 -0.82606808365E+01  0.26710852021E+02  0.28521804071E+02  0.10570000000E+00 0.  1.
         13    1    1    2    0    0 -0.56368139419E+01  0.82606808365E+01  0.29202979193E+02  0.30868069028E+02  0.10570000000E+00 0. -1.
<mgrwt>
<rscale>  0 0.20020003E+02</rscale>
<asrwt>0</asrwt>
<pdfrwt beam="1">  1        2 0.88695149E-02 0.20020003E+02</pdfrwt>
<pdfrwt beam="2">  1       -2 0.26738786E-03 0.20020003E+02</pdfrwt>
<totfact> 0.47275402E+06</totfact>
</mgrwt>
</event>
<event>
 5    1  0.1607476E-006  0.2000295E+02  0.7818608E-02  0.1745270E+00
         -2   -1    0    0    0  501 -0.00000000000E+00  0.00000000000E+00  0.14733422940E+01  0.14733445881E+01  0.26000000000E-02 0. -1.
          2   -1    0    0  501    0  0.00000000000E+00 -0.00000000000E+00 -0.67892828573E+02  0.67892828623E+02  0.26000000000E-02 0.  1.
       1023    2    1    2    0    0  0.00000000000E+00  0.00000000000E+00 -0.66419486279E+02  0.69366173211E+02  0.20002945492E+02 0.  0.
        -13    1    3    3    0    0  0.10000078955E+02  0.11439258172E+00 -0.33001103145E+02  0.34483309673E+02  0.10570000000E+00 0. -1.
         13    1    3    3    0    0 -0.10000078955E+02 -0.11439258172E+00 -0.33418383134E+02  0.34882863537E+02  0.10570000000E+00 0.  1.
<mgrwt>
<rscale>  0 0.20002945E+02</rscale>
<asrwt>0</asrwt>
<pdfrwt beam="2">  1        2 0.10445048E-01 0.20002945E+02</pdfrwt>
<pdfrwt beam="1">  1       -2 0.22666828E-03 0.20002945E+02</pdfrwt>
<totfact> 0.48728968E+06</totfact>
</mgrwt>
</event>
<event>
 5    1  0.1607476E-006  0.2000631E+02  0.7818608E-02  0.1745203E+00
         -2   -1    0    0    0  501 -0.00000000000E+00  0.00000000000E+00  0.15034047336E+02  0.15034047561E+02  0.26000000000E-02 0.  1.
          2   -1    0    0  501    0  0.00000000000E+00 -0.00000000000E+00 -0.66557674651E+01  0.66557679730E+01  0.26000000000E-02 0. -1.
       1023    2    1    2    0    0  0.00000000000E+00  0.00000000000E+00  0.83782798708E+01  0.21689815534E+02  0.20006312111E+02 0.  0.
        -13    1    3    3    0    0 -0.40644087581E+01 -0.91392983351E+01  0.41068161919E+01  0.10813107987E+02  0.10570000000E+00 0. -1.
         13    1    3    3    0    0  0.40644087581E+01  0.91392983351E+01  0.42714636789E+01  0.10876707547E+02  0.10570000000E+00 0.  1.
<mgrwt>
<rscale>  0 0.20006312E+02</rscale>
<asrwt>0</asrwt>
<pdfrwt beam="2">  1        2 0.10239643E-02 0.20006312E+02</pdfrwt>
<pdfrwt beam="1">  1       -2 0.23129304E-02 0.20006312E+02</pdfrwt>
<totfact> 0.38264955E+06</totfact>
</mgrwt>
</event>
<event>
 5    1  0.1607476E-006  0.2000557E+02  0.7818608E-02  0.1745217E+00
          2   -1    0    0  501    0  0.00000000000E+00  0.00000000000E+00  0.88630170802E+02  0.88630170840E+02  0.26000000000E-02 0.  1.
         -2   -1    0    0    0  501 -0.00000000000E+00 -0.00000000000E+00 -0.11289107310E+01  0.11289137250E+01  0.26000000000E-02 0. -1.
       1023    2    1    2    0    0  0.00000000000E+00  0.00000000000E+00  0.87501260071E+02  0.89759084565E+02  0.20005567924E+02 0.  0.
        -13    1    3    3    0    0 -0.12299103638E+01  0.99255110762E+01  0.43181952365E+02  0.44325169285E+02  0.10570000000E+00 0.  1.
         13    1    3    3    0    0  0.12299103638E+01 -0.99255110762E+01  0.44319307706E+02  0.45433915280E+02  0.10570000000E+00 0. -1.
<mgrwt>
<rscale>  0 0.20005568E+02</rscale>
<asrwt>0</asrwt>
<pdfrwt beam="1">  1        2 0.13635418E-01 0.20005568E+02</pdfrwt>
<pdfrwt beam="2">  1       -2 0.17367872E-03 0.20005568E+02</pdfrwt>
<totfact> 0.51344422E+06</totfact>
</mgrwt>
</event>
<event>
 5    1  0.1607476E-006  0.2000207E+02  0.7818608E-02  0.1745287E+00
          2   -1    0    0  501    0  0.00000000000E+00  0.00000000000E+00  0.50034402957E+02  0.50034403024E+02  0.26000000000E-02 0. -1.
         -2   -1    0    0    0  501 -0.00000000000E+00 -0.00000000000E+00 -0.19990379531E+01  0.19990396439E+01  0.26000000000E-02 0.  1.
       1023    2    1    2    0    0  0.00000000000E+00  0.00000000000E+00  0.48035365003E+02  0.52033442668E+02  0.20002071515E+02 0.  0.
        -13    1    3    3    0    0  0.76956955221E+01 -0.63863268602E+01  0.23951697329E+02  0.25955806244E+02  0.10570000000E+00 0. -1.
         13    1    3    3    0    0 -0.76956955221E+01  0.63863268602E+01  0.24083667674E+02  0.26077636424E+02  0.10570000000E+00 0.  1.
<mgrwt>
<rscale>  0 0.20002072E+02</rscale>
<asrwt>0</asrwt>
<pdfrwt beam="1">  1        2 0.76976002E-02 0.20002072E+02</pdfrwt>
<pdfrwt beam="2">  1       -2 0.30754445E-03 0.20002072E+02</pdfrwt>
<totfact> 0.46322232E+06</totfact>
</mgrwt>
</event>
<event>
 5    1  0.1607476E-006  0.2000474E+02  0.7818608E-02  0.1745234E+00
         -2   -1    0    0    0  501 -0.00000000000E+00  0.00000000000E+00  0.67796674044E+02  0.67796674093E+02  0.26000000000E-02 0.  1.
          2   -1    0    0  501    0  0.00000000000E+00 -0.00000000000E+00 -0.14756973120E+01  0.14756996024E+01  0.26000000000E-02 0. -1.
       1023    2    1    2    0    0  0.00000000000E+00  0.00000000000E+00  0.66320976732E+02  0.69272373696E+02  0.20004744508E+02 0.  0.
        -13    1    3    3    0    0  0.98629258382E+01 -0.16609766848E+01  0.33121222505E+02  0.34598593936E+02  0.10570000000E+00 0.  1.
         13    1    3    3    0    0 -0.98629258382E+01  0.16609766848E+01  0.33199754226E+02  0.34673779760E+02  0.10570000000E+00 0. -1.
<mgrwt>
<rscale>  0 0.20004745E+02</rscale>
<asrwt>0</asrwt>
<pdfrwt beam="2">  1        2 0.22703054E-03 0.20004745E+02</pdfrwt>
<pdfrwt beam="1">  1       -2 0.10430258E-01 0.20004745E+02</pdfrwt>
<totfact> 0.32254900E+06</totfact>
</mgrwt>
</event>
<event>
 5    1  0.1607476E-006  0.2000494E+02  0.7818608E-02  0.1745230E+00
          2   -1    0    0  501    0  0.00000000000E+00  0.00000000000E+00  0.27603427714E+01  0.27603439958E+01  0.26000000000E-02 0. -1.
         -2   -1    0    0    0  501 -0.00000000000E+00 -0.00000000000E+00 -0.36245260778E+02  0.36245260872E+02  0.26000000000E-02 0.  1.
       1023    2    1    2    0    0  0.00000000000E+00  0.00000000000E+00 -0.33484918007E+02  0.39005604867E+02  0.20004936319E+02 0.  0.
        -13    1    3    3    0    0  0.60885865782E+01 -0.79351773724E+01 -0.16774517895E+02  0.19530323847E+02  0.10570000000E+00 0. -1.
         13    1    3    3    0    0 -0.60885865782E+01  0.79351773724E+01 -0.16710400111E+02  0.19475281020E+02  0.10570000000E+00 0.  1.
<mgrwt>
<rscale>  0 0.20004936E+02</rscale>
<asrwt>0</asrwt>
<pdfrwt beam="1">  1        2 0.42466825E-03 0.20004936E+02</pdfrwt>
<pdfrwt beam="2">  1       -2 0.55761937E-02 0.20004936E+02</pdfrwt>
<totfact> 0.35313103E+06</totfact>
</mgrwt>
</event>
<event>
 4    1  0.1607476E-006  0.2002553E+02  0.7818608E-02  0.1744821E+00
          2   -1    0    0  501    0  0.00000000000E+00  0.00000000000E+00  0.33142833824E+02  0.33142833926E+02  0.26000000000E-02 0. -1.
         -2   -1    0    0    0  501 -0.00000000000E+00 -0.00000000000E+00 -0.30249498555E+01  0.30249509728E+01  0.26000000000E-02 0.  1.
        -13    1    1    2    0    0 -0.92716704929E+01 -0.37764063158E+01  0.14809064832E+02  0.17875813046E+02  0.10570000000E+00 0. -1.
         13    1    1    2    0    0  0.92716704929E+01  0.37764063158E+01  0.15308819137E+02  0.18291971852E+02  0.10570000000E+00 0.  1.
<mgrwt>
<rscale>  0 0.20025527E+02</rscale>
<asrwt>0</asrwt>
<pdfrwt beam="1">  1        2 0.50988974E-02 0.20025527E+02</pdfrwt>
<pdfrwt beam="2">  1       -2 0.46537701E-03 0.20025527E+02</pdfrwt>
<totfact> 0.43739615E+06</totfact>
</mgrwt>
</event>
<event>
 5    1  0.1607476E-006  0.2000122E+02  0.7818608E-02  0.1745304E+00
          2   -1    0    0  501    0  0.00000000000E+00  0.00000000000E+00  0.10855814327E+03  0.10855814330E+03  0.26000000000E-02 0.  1.
         -2   -1    0    0    0  501 -0.00000000000E+00 -0.00000000000E+00 -0.92127559854E+00  0.92127926736E+00  0.26000000000E-02 0. -1.
       1023    2    1    2    0    0  0.00000000000E+00  0.00000000000E+00  0.10763686767E+03  0.10947942257E+03  0.20001217058E+02 0.  0.
        -13    1    3    3    0    0  0.54297133195E+01 -0.83975466323E+01  0.53930915011E+02  0.54850299385E+02  0.10570000000E+00 0. -1.
         13    1    3    3    0    0 -0.54297133195E+01  0.83975466323E+01  0.53705952658E+02  0.54629123182E+02  0.10570000000E+00 0.  1.
<mgrwt>
<rscale>  0 0.20001217E+02</rscale>
<asrwt>0</asrwt>
<pdfrwt beam="1">  1        2 0.16701246E-01 0.20001217E+02</pdfrwt>
<pdfrwt beam="2">  1       -2 0.14173505E-03 0.20001217E+02</pdfrwt>
<totfact> 0.53763866E+06</totfact>
</mgrwt>
</event>
<event>
 5    1  0.1607476E-006  0.2000931E+02  0.7818608E-02  0.1745143E+00
         -2   -1    0    0    0  501 -0.00000000000E+00  0.00000000000E+00  0.13917690701E+01  0.13917714987E+01  0.26000000000E-02 0.  1.
          2   -1    0    0  501    0  0.00000000000E+00 -0.00000000000E+00 -0.71917848799E+02  0.71917848846E+02  0.26000000000E-02 0. -1.
       1023    2    1    2    0    0  0.00000000000E+00  0.00000000000E+00 -0.70526079729E+02  0.73309620345E+02  0.20009310662E+02 0.  0.
        -13    1    3    3    0    0  0.99561386384E+01 -0.96107828400E+00 -0.35934498509E+02  0.37300773767E+02  0.10570000000E+00 0. -1.
         13    1    3    3    0    0 -0.99561386384E+01  0.96107828400E+00 -0.34591581220E+02  0.36008846578E+02  0.10570000000E+00 0.  1.
<mgrwt>
<rscale>  0 0.20009311E+02</rscale>
<asrwt>0</asrwt>
<pdfrwt beam="2">  1        2 0.11064282E-01 0.20009311E+02</pdfrwt>
<pdfrwt beam="1">  1       -2 0.21411856E-03 0.20009311E+02</pdfrwt>
<totfact> 0.49217599E+06</totfact>
</mgrwt>
</event>
<event>
 5    1  0.1607476E-006  0.2000174E+02  0.7818608E-02  0.1745294E+00
         -2   -1    0    0    0  501 -0.00000000000E+00  0.00000000000E+00  0.18535931101E+01  0.18535949336E+01  0.26000000000E-02 0. -1.
          2   -1    0    0  501    0  0.00000000000E+00 -0.00000000000E+00 -0.53958614590E+02  0.53958614653E+02  0.26000000000E-02 0.  1.
       1023    2    1    2    0    0  0.00000000000E+00  0.00000000000E+00 -0.52105021480E+02  0.55812209587E+02  0.20001736812E+02 0.  0.
        -13    1    3    3    0    0  0.99602475564E+01 -0.89329321657E+00 -0.26167297212E+02  0.28013266858E+02  0.10570000000E+00 0.  1.
         13    1    3    3    0    0 -0.99602475564E+01  0.89329321657E+00 -0.25937724268E+02  0.27798942729E+02  0.10570000000E+00 0. -1.
<mgrwt>
<rscale>  0 0.20001737E+02</rscale>
<asrwt>0</asrwt>
<pdfrwt beam="2">  1        2 0.83013243E-02 0.20001737E+02</pdfrwt>
<pdfrwt beam="1">  1       -2 0.28516836E-03 0.20001737E+02</pdfrwt>
<totfact> 0.46867588E+06</totfact>
</mgrwt>
</event>
<event>
 4    1  0.1607476E-006  0.2003375E+02  0.7818608E-02  0.1744658E+00
         -2   -1    0    0    0  501 -0.00000000000E+00  0.00000000000E+00  0.13921672681E+02  0.13921672924E+02  0.26000000000E-02 0. -1.
          2   -1    0    0  501    0  0.00000000000E+00 -0.00000000000E+00 -0.72073095259E+01  0.72073099949E+01  0.26000000000E-02 0.  1.
        -13    1    1    2    0    0 -0.99803700743E+01  0.67831234344E+00  0.28207034489E+01  0.10394009568E+02  0.10570000000E+00 0.  1.
         13    1    1    2    0    0  0.99803700743E+01 -0.67831234344E+00  0.38936597066E+01  0.10734973351E+02  0.10570000000E+00 0. -1.
<mgrwt>
<rscale>  0 0.20033753E+02</rscale>
<asrwt>0</asrwt>
<pdfrwt beam="2">  1        2 0.11088169E-02 0.20033753E+02</pdfrwt>
<pdfrwt beam="1">  1       -2 0.21417958E-02 0.20033753E+02</pdfrwt>
<totfact> 0.38374003E+06</totfact>
</mgrwt>
</event>
<event>
 4    1  0.1607476E-006  0.2014451E+02  0.7818608E-02  0.1742470E+00
          2   -1    0    0  501    0  0.00000000000E+00  0.00000000000E+00  0.29245341109E+02  0.29245341225E+02  0.26000000000E-02 0.  1.
         -2   -1    0    0    0  501 -0.00000000000E+00 -0.00000000000E+00 -0.34689373726E+01  0.34689383470E+01  0.26000000000E-02 0. -1.
        -13    1    1    2    0    0  0.90637369723E+01 -0.43000724116E+01  0.14338145667E+02  0.17499586976E+02  0.10570000000E+00 0.  1.
         13    1    1    2    0    0 -0.90637369723E+01  0.43000724116E+01  0.11438258069E+02  0.15214692596E+02  0.10570000000E+00 0. -1.
<mgrwt>
<rscale>  0 0.20144505E+02</rscale>
<asrwt>0</asrwt>
<pdfrwt beam="1">  1        2 0.44992833E-02 0.20144505E+02</pdfrwt>
<pdfrwt beam="2">  1       -2 0.53368277E-03 0.20144505E+02</pdfrwt>
<totfact> 0.42560006E+06</totfact>
</mgrwt>
</event>
<event>
 5    1  0.1607476E-006  0.2000969E+02  0.7818608E-02  0.1745135E+00
          2   -1    0    0  501    0  0.00000000000E+00  0.00000000000E+00  0.14749533389E+02  0.14749533618E+02  0.26000000000E-02 0. -1.
         -2   -1    0    0    0  501 -0.00000000000E+00 -0.00000000000E+00 -0.67864471894E+01  0.67864476875E+01  0.26000000000E-02 0.  1.
       1023    2    1    2    0    0  0.00000000000E+00  0.00000000000E+00  0.79630861994E+01  0.21535981305E+02  0.20009691376E+02 0.  0.
        -13    1    3    3    0    0 -0.90674057788E+01 -0.42196806156E+01  0.37130928612E+01  0.10668729219E+02  0.10570000000E+00 0. -1.
         13    1    3    3    0    0  0.90674057788E+01  0.42196806156E+01  0.42499933382E+01  0.10867252087E+02  0.10570000000E+00 0.  1.
<mgrwt>
<rscale>  0 0.20009691E+02</rscale>
<asrwt>0</asrwt>
<pdfrwt beam="1">  1        2 0.22691590E-02 0.20009691E+02</pdfrwt>
<pdfrwt beam="2">  1       -2 0.10440689E-02 0.20009691E+02</pdfrwt>
<totfact> 0.40591002E+06</totfact>
</mgrwt>
</event>
<event>
 5    1  0.1607476E-006  0.2000197E+02  0.7818608E-02  0.1745289E+00
         -2   -1    0    0    0  501 -0.00000000000E+00  0.00000000000E+00  0.18632915823E+01  0.18632933963E+01  0.26000000000E-02 0. -1.
          2   -1    0    0  501    0  0.00000000000E+00 -0.00000000000E+00 -0.53679037504E+02  0.53679037567E+02  0.26000000000E-02 0.  1.
       1023    2    1    2    0    0  0.00000000000E+00  0.00000000000E+00 -0.51815745922E+02  0.55542330963E+02  0.20001974988E+02 0.  0.
        -13    1    3    3    0    0  0.33969193756E+01 -0.94057556113E+01 -0.25808583864E+02  0.27678538137E+02  0.10570000000E+00 0.  1.
         13    1    3    3    0    0 -0.33969193756E+01  0.94057556113E+01 -0.26007162058E+02  0.27863792826E+02  0.10570000000E+00 0. -1.
<mgrwt>
<rscale>  0 0.20001975E+02</rscale>
<asrwt>0</asrwt>
<pdfrwt beam="2">  1        2 0.82583124E-02 0.20001975E+02</pdfrwt>
<pdfrwt beam="1">  1       -2 0.28666043E-03 0.20001975E+02</pdfrwt>
<totfact> 0.46827909E+06</totfact>
</mgrwt>
</event>
<event>
 5    1  0.1607476E-006  0.2000168E+02  0.7818608E-02  0.1745295E+00
         -2   -1    0    0    0  501 -0.00000000000E+00  0.00000000000E+00  0.88194259271E+01  0.88194263104E+01  0.26000000000E-02 0. -1.
          2   -1    0    0  501    0  0.00000000000E+00 -0.00000000000E+00 -0.11340512746E+02  0.11340513044E+02  0.26000000000E-02 0.  1.
       1023    2    1    2    0    0  0.00000000000E+00  0.00000000000E+00 -0.25210868188E+01  0.20159939354E+02  0.20001681830E+02 0.  0.
        -13    1    3    3    0    0  0.54749602464E+01  0.83683869139E+01 -0.12367499483E+01  0.10076994203E+02  0.10570000000E+00 0.  1.
         13    1    3    3    0    0 -0.54749602464E+01 -0.83683869139E+01 -0.12843368705E+01  0.10082945151E+02  0.10570000000E+00 0. -1.
<mgrwt>
<rscale>  0 0.20001682E+02</rscale>
<asrwt>0</asrwt>
<pdfrwt beam="2">  1        2 0.17446943E-02 0.20001682E+02</pdfrwt>
<pdfrwt beam="1">  1       -2 0.13568348E-02 0.20001682E+02</pdfrwt>
<totfact> 0.39823002E+06</totfact>
</mgrwt>
</event>
<event>
 5    1  0.1607476E-006  0.2000323E+02  0.7818608E-02  0.1745264E+00
          2   -1    0    0  501    0  0.00000000000E+00  0.00000000000E+00  0.26372971802E+01  0.26372984618E+01  0.26000000000E-02 0. -1.
         -2   -1    0    0    0  501 -0.00000000000E+00 -0.00000000000E+00 -0.37929860457E+02  0.37929860546E+02  0.26000000000E-02 0.  1.
       1023    2    1    2    0    0  0.00000000000E+00  0.00000000000E+00 -0.35292563277E+02  0.40567159008E+02  0.20003233922E+02 0.  0.
        -13    1    3    3    0    0 -0.11623933516E+01  0.99324195127E+01 -0.17911121395E+02  0.20513984445E+02  0.10570000000E+00 0. -1.
         13    1    3    3    0    0  0.11623933516E+01 -0.99324195127E+01 -0.17381441882E+02  0.20053174563E+02  0.10570000000E+00 0.  1.
<mgrwt>
<rscale>  0 0.20003234E+02</rscale>
<asrwt>0</asrwt>
<pdfrwt beam="1">  1        2 0.40573816E-03 0.20003234E+02</pdfrwt>
<pdfrwt beam="2">  1       -2 0.58353629E-02 0.20003234E+02</pdfrwt>
<totfact> 0.35132781E+06</totfact>
</mgrwt>
</event>
<event>
 4    1  0.1607476E-006  0.2004512E+02  0.7818608E-02  0.1744432E+00
         -2   -1    0    0    0  501 -0.00000000000E+00  0.00000000000E+00  0.53263153139E+01  0.53263159485E+01  0.26000000000E-02 0. -1.
          2   -1    0    0  501    0  0.00000000000E+00 -0.00000000000E+00 -0.18859515445E+02  0.18859515624E+02  0.26000000000E-02 0.  1.
        -13    1    1    2    0    0  0.65063933023E+01 -0.75953889612E+01 -0.59870068257E+01  0.11656693806E+02  0.10570000000E+00 0.  1.
         13    1    1    2    0    0 -0.65063933023E+01  0.75953889612E+01 -0.75461933053E+01  0.12529137766E+02  0.10570000000E+00 0. -1.
<mgrwt>
<rscale>  0 0.20045123E+02</rscale>
<asrwt>0</asrwt>
<pdfrwt beam="2">  1        2 0.29014639E-02 0.20045123E+02</pdfrwt>
<pdfrwt beam="1">  1       -2 0.81943320E-03 0.20045123E+02</pdfrwt>
<totfact> 0.41254658E+06</totfact>
</mgrwt>
</event>
<event>
 5    1  0.1607476E-006  0.2001193E+02  0.7818608E-02  0.1745091E+00
          2   -1    0    0  501    0  0.00000000000E+00  0.00000000000E+00  0.84600705987E+02  0.84600706027E+02  0.26000000000E-02 0. -1.
         -2   -1    0    0    0  501 -0.00000000000E+00 -0.00000000000E+00 -0.11834328742E+01  0.11834357303E+01  0.26000000000E-02 0.  1.
       1023    2    1    2    0    0  0.00000000000E+00  0.00000000000E+00  0.83417273113E+02  0.85784141757E+02  0.20011934526E+02 0.  0.
        -13    1    3    3    0    0 -0.55272929437E+01  0.83394121913E+01  0.41250037352E+02  0.42446124877E+02  0.10570000000E+00 0. -1.
         13    1    3    3    0    0  0.55272929437E+01 -0.83394121913E+01  0.42167235760E+02  0.43338016880E+02  0.10570000000E+00 0.  1.
<mgrwt>
<rscale>  0 0.20011935E+02</rscale>
<asrwt>0</asrwt>
<pdfrwt beam="1">  1        2 0.13015494E-01 0.20011935E+02</pdfrwt>
<pdfrwt beam="2">  1       -2 0.18206682E-03 0.20011935E+02</pdfrwt>
<totfact> 0.50809034E+06</totfact>
</mgrwt>
</event>
<event>
 5    1  0.1607476E-006  0.2000144E+02  0.7818608E-02  0.1745299E+00
         -2   -1    0    0    0  501 -0.00000000000E+00  0.00000000000E+00  0.74595063939E+01  0.74595068470E+01  0.26000000000E-02 0.  1.
          2   -1    0    0  501    0  0.00000000000E+00 -0.00000000000E+00 -0.13407646223E+02  0.13407646475E+02  0.26000000000E-02 0. -1.
       1023    2    1    2    0    0  0.00000000000E+00  0.00000000000E+00 -0.59481398291E+01  0.20867153322E+02  0.20001442956E+02 0.  0.
        -13    1    3    3    0    0  0.35875077877E+01  0.93343711401E+01 -0.30268654345E+01  0.10448625917E+02  0.10570000000E+00 0. -1.
         13    1    3    3    0    0 -0.35875077877E+01 -0.93343711401E+01 -0.29212743946E+01  0.10418527405E+02  0.10570000000E+00 0.  1.
<mgrwt>
<rscale>  0 0.20001443E+02</rscale>
<asrwt>0</asrwt>
<pdfrwt beam="2">  1        2 0.20627149E-02 0.20001443E+02</pdfrwt>
<pdfrwt beam="1">  1       -2 0.11476164E-02 0.20001443E+02</pdfrwt>
<totfact> 0.40329384E+06</totfact>
</mgrwt>
</event>
<event>
 4    1  0.1607476E-006  0.2001721E+02  0.7818608E-02  0.1744986E+00
         -2   -1    0    0    0  501 -0.00000000000E+00  0.00000000000E+00  0.28565789561E+02  0.28565789680E+02  0.26000000000E-02 0.  1.
          2   -1    0    0  501    0  0.00000000000E+00 -0.00000000000E+00 -0.35067164054E+01  0.35067173693E+01  0.26000000000E-02 0. -1.
        -13    1    1    2    0    0  0.89645011542E+01 -0.44397709024E+01  0.13002460430E+02  0.16405761071E+02  0.10570000000E+00 0.  1.
         13    1    1    2    0    0 -0.89645011542E+01  0.44397709024E+01  0.12056612726E+02  0.15666745978E+02  0.10570000000E+00 0. -1.
<mgrwt>
<rscale>  0 0.20017207E+02</rscale>
<asrwt>0</asrwt>
<pdfrwt beam="2">  1        2 0.53949492E-03 0.20017207E+02</pdfrwt>
<pdfrwt beam="1">  1       -2 0.43947369E-02 0.20017207E+02</pdfrwt>
<totfact> 0.36175171E+06</totfact>
</mgrwt>
</event>
<event>
 5    1  0.1607476E-006  0.2000143E+02  0.7818608E-02  0.1745300E+00
          2   -1    0    0  501    0  0.00000000000E+00  0.00000000000E+00  0.96313106537E+01  0.96313110046E+01  0.26000000000E-02 0. -1.
         -2   -1    0    0    0  501 -0.00000000000E+00 -0.00000000000E+00 -0.10384290880E+02  0.10384291205E+02  0.26000000000E-02 0.  1.
       1023    2    1    2    0    0  0.00000000000E+00  0.00000000000E+00 -0.75298022587E+00  0.20015602210E+02  0.20001433763E+02 0.  0.
        -13    1    3    3    0    0  0.89382250116E+01  0.44845522295E+01 -0.36696487605E+00  0.10007442769E+02  0.10570000000E+00 0. -1.
         13    1    3    3    0    0 -0.89382250116E+01 -0.44845522295E+01 -0.38601534981E+00  0.10008159441E+02  0.10570000000E+00 0.  1.
<mgrwt>
<rscale>  0 0.20001434E+02</rscale>
<asrwt>0</asrwt>
<pdfrwt beam="1">  1        2 0.14817401E-02 0.20001434E+02</pdfrwt>
<pdfrwt beam="2">  1       -2 0.15975833E-02 0.20001434E+02</pdfrwt>
<totfact> 0.39348323E+06</totfact>
</mgrwt>
</event>
<event>
 5    1  0.1607476E-006  0.2000127E+02  0.7818608E-02  0.1745303E+00
         -2   -1    0    0    0  501 -0.00000000000E+00  0.00000000000E+00  0.49568131704E+01  0.49568138523E+01  0.26000000000E-02 0.  1.
          2   -1    0    0  501    0  0.00000000000E+00 -0.00000000000E+00 -0.20176811867E+02  0.20176812034E+02  0.26000000000E-02 0. -1.
       1023    2    1    2    0    0  0.00000000000E+00  0.00000000000E+00 -0.15219998696E+02  0.25133625887E+02  0.20001269707E+02 0.  0.
        -13    1    3    3    0    0  0.99755452514E+01  0.69949015615E+00 -0.75759215452E+01  0.12546176680E+02  0.10570000000E+00 0. -1.
         13    1    3    3    0    0 -0.99755452514E+01 -0.69949015615E+00 -0.76440771511E+01  0.12587449206E+02  0.10570000000E+00 0.  1.
<mgrwt>
<rscale>  0 0.20001270E+02</rscale>
<asrwt>0</asrwt>
<pdfrwt beam="2">  1        2 0.31041249E-02 0.20001270E+02</pdfrwt>
<pdfrwt beam="1">  1       -2 0.76258672E-03 0.20001270E+02</pdfrwt>
<totfact> 0.41704537E+06</totfact>
</mgrwt>
</event>
<event>
 5    1  0.1607476E-006  0.2000153E+02  0.7818608E-02  0.1745298E+00
         -2   -1    0    0    0  501 -0.00000000000E+00  0.00000000000E+00  0.18360379306E+02  0.18360379491E+02  0.26000000000E-02 0. -1.
          2   -1    0    0  501    0  0.00000000000E+00 -0.00000000000E+00 -0.54473423871E+01  0.54473430076E+01  0.26000000000E-02 0.  1.
       1023    2    1    2    0    0  0.00000000000E+00  0.00000000000E+00  0.12913036919E+02  0.23807722498E+02  0.20001528143E+02 0.  0.
        -13    1    3    3    0    0  0.79687102016E+01  0.60415797427E+01  0.65225928455E+01  0.11939699242E+02  0.10570000000E+00 0. -1.
         13    1    3    3    0    0 -0.79687102016E+01 -0.60415797427E+01  0.63904440739E+01  0.11868023256E+02  0.10570000000E+00 0.  1.
<mgrwt>
<rscale>  0 0.20001528E+02</rscale>
<asrwt>0</asrwt>
<pdfrwt beam="2">  1        2 0.83805274E-03 0.20001528E+02</pdfrwt>
<pdfrwt beam="1">  1       -2 0.28246738E-02 0.20001528E+02</pdfrwt>
<totfact> 0.37691154E+06</totfact>
</mgrwt>
</event>
<event>
 5    1  0.1607476E-006  0.2000412E+02  0.7818608E-02  0.1745246E+00
          2   -1    0    0  501    0  0.00000000000E+00  0.00000000000E+00  0.56238880146E+02  0.56238880207E+02  0.26000000000E-02 0. -1.
         -2   -1    0    0    0  501 -0.00000000000E+00 -0.00000000000E+00 -0.17788616266E+01  0.17788635267E+01  0.26000000000E-02 0.  1.
       1023    2    1    2    0    0  0.00000000000E+00  0.00000000000E+00  0.54460018520E+02  0.58017743733E+02  0.20004123843E+02 0.  0.
        -13    1    3    3    0    0  0.73533032559E+01 -0.67776496849E+01  0.26795293132E+02  0.28600813109E+02  0.10570000000E+00 0. -1.
         13    1    3    3    0    0 -0.73533032559E+01  0.67776496849E+01  0.27664725388E+02  0.29416930624E+02  0.10570000000E+00 0.  1.
<mgrwt>
<rscale>  0 0.20004124E+02</rscale>
<asrwt>0</asrwt>
<pdfrwt beam="1">  1        2 0.86521355E-02 0.20004124E+02</pdfrwt>
<pdfrwt beam="2">  1       -2 0.27367117E-03 0.20004124E+02</pdfrwt>
<totfact> 0.47167003E+06</totfact>
</mgrwt>
</event>
<event>
 5    1  0.1607476E-006  0.2000398E+02  0.7818608E-02  0.1745249E+00
          2   -1    0    0  501    0  0.00000000000E+00  0.00000000000E+00  0.56833268693E+01  0.56833274640E+01  0.26000000000E-02 0. -1.
         -2   -1    0    0    0  501 -0.00000000000E+00 -0.00000000000E+00 -0.17602332192E+02  0.17602332384E+02  0.26000000000E-02 0.  1.
       1023    2    1    2    0    0  0.00000000000E+00  0.00000000000E+00 -0.11919005322E+02  0.23285659848E+02  0.20003981270E+02 0.  0.
        -13    1    3    3    0    0 -0.82648604364E+01 -0.56311062217E+01 -0.58353858501E+01  0.11579299453E+02  0.10570000000E+00 0.  1.
         13    1    3    3    0    0  0.82648604364E+01  0.56311062217E+01 -0.60836194721E+01  0.11706360394E+02  0.10570000000E+00 0. -1.
<mgrwt>
<rscale>  0 0.20003981E+02</rscale>
<asrwt>0</asrwt>
<pdfrwt beam="1">  1        2 0.87435805E-03 0.20003981E+02</pdfrwt>
<pdfrwt beam="2">  1       -2 0.27080511E-02 0.20003981E+02</pdfrwt>
<totfact> 0.37808573E+06</totfact>
</mgrwt>
</event>
<event>
 5    1  0.1607476E-006  0.2000931E+02  0.7818608E-02  0.1745143E+00
          2   -1    0    0  501    0  0.00000000000E+00  0.00000000000E+00  0.25165443494E+01  0.25165456925E+01  0.26000000000E-02 0. -1.
         -2   -1    0    0    0  501 -0.00000000000E+00 -0.00000000000E+00 -0.39774016726E+02  0.39774016811E+02  0.26000000000E-02 0.  1.
       1023    2    1    2    0    0  0.00000000000E+00  0.00000000000E+00 -0.37257472376E+02  0.42290562503E+02  0.20009308558E+02 0.  0.
        -13    1    3    3    0    0  0.99570915477E+01  0.96538736506E+00 -0.18796359000E+02  0.21292954915E+02  0.10570000000E+00 0.  1.
         13    1    3    3    0    0 -0.99570915477E+01 -0.96538736506E+00 -0.18461113376E+02  0.20997607588E+02  0.10570000000E+00 0. -1.
<mgrwt>
<rscale>  0 0.20009309E+02</rscale>
<asrwt>0</asrwt>
<pdfrwt beam="1">  1        2 0.38716081E-03 0.20009309E+02</pdfrwt>
<pdfrwt beam="2">  1       -2 0.61190791E-02 0.20009309E+02</pdfrwt>
<totfact> 0.34909316E+06</totfact>
</mgrwt>
</event>
<event>
 5    1  0.1607476E-006  0.2000166E+02  0.7818608E-02  0.1745295E+00
          2   -1    0    0  501    0  0.00000000000E+00  0.00000000000E+00  0.15846306614E+01  0.15846327944E+01  0.26000000000E-02 0. -1.
         -2   -1    0    0    0  501 -0.00000000000E+00 -0.00000000000E+00 -0.63116610238E+02  0.63116610292E+02  0.26000000000E-02 0.  1.
       1023    2    1    2    0    0  0.00000000000E+00  0.00000000000E+00 -0.61531979577E+02  0.64701243086E+02  0.20001658587E+02 0.  0.
        -13    1    3    3    0    0 -0.55284874215E+01 -0.83330950813E+01 -0.30855592272E+02  0.32435835024E+02  0.10570000000E+00 0.  1.
         13    1    3    3    0    0  0.55284874215E+01  0.83330950813E+01 -0.30676387305E+02  0.32265408062E+02  0.10570000000E+00 0. -1.
<mgrwt>
<rscale>  0 0.20001659E+02</rscale>
<asrwt>0</asrwt>
<pdfrwt beam="1">  1        2 0.24378955E-03 0.20001659E+02</pdfrwt>
<pdfrwt beam="2">  1       -2 0.97102459E-02 0.20001659E+02</pdfrwt>
<totfact> 0.32674644E+06</totfact>
</mgrwt>
</event>
<event>
 5    1  0.1607476E-006  0.2000207E+02  0.7818608E-02  0.1745287E+00
         -2   -1    0    0    0  501 -0.00000000000E+00  0.00000000000E+00  0.11599761073E+02  0.11599761364E+02  0.26000000000E-02 0.  1.
          2   -1    0    0  501    0  0.00000000000E+00 -0.00000000000E+00 -0.86226524568E+01  0.86226528488E+01  0.26000000000E-02 0. -1.
       1023    2    1    2    0    0  0.00000000000E+00  0.00000000000E+00  0.29771086161E+01  0.20222414213E+02  0.20002071415E+02 0.  0.
        -13    1    3    3    0    0  0.47148009424E+01  0.88192818905E+01  0.15102792074E+01  0.10114405408E+02  0.10570000000E+00 0.  1.
         13    1    3    3    0    0 -0.47148009424E+01 -0.88192818905E+01  0.14668294087E+01  0.10108008805E+02  0.10570000000E+00 0. -1.
<mgrwt>
<rscale>  0 0.20002071E+02</rscale>
<asrwt>0</asrwt>
<pdfrwt beam="2">  1        2 0.13265620E-02 0.20002071E+02</pdfrwt>
<pdfrwt beam="1">  1       -2 0.17845787E-02 0.20002071E+02</pdfrwt>
<totfact> 0.39028216E+06</totfact>
</mgrwt>
</event>
<event>
 5    1  0.1607476E-006  0.2000719E+02  0.7818608E-02  0.1745185E+00
          2   -1    0    0  501    0  0.00000000000E+00  0.00000000000E+00  0.82688664640E+01  0.82688668727E+01  0.26000000000E-02 0. -1.
         -2   -1    0    0    0  501 -0.00000000000E+00 -0.00000000000E+00 -0.12102250004E+02  0.12102250283E+02  0.26000000000E-02 0.  1.
       1023    2    1    2    0    0  0.00000000000E+00  0.00000000000E+00 -0.38333835401E+01  0.20371117156E+02  0.20007188329E+02 0.  0.
        -13    1    3    3    0    0 -0.53939728083E+01  0.84207540829E+01 -0.16742818716E+01  0.10139942517E+02  0.10570000000E+00 0. -1.
         13    1    3    3    0    0  0.53939728083E+01 -0.84207540829E+01 -0.21591016686E+01  0.10231174639E+02  0.10570000000E+00 0.  1.
<mgrwt>
<rscale>  0 0.20007188E+02</rscale>
<asrwt>0</asrwt>
<pdfrwt beam="1">  1        2 0.12721334E-02 0.20007188E+02</pdfrwt>
<pdfrwt beam="2">  1       -2 0.18618847E-02 0.20007188E+02</pdfrwt>
<totfact> 0.38885539E+06</totfact>
</mgrwt>
</event>
<event>
 5    1  0.1607476E-006  0.2000264E+02  0.7818608E-02  0.1745276E+00
         -2   -1    0    0    0  501 -0.00000000000E+00  0.00000000000E+00  0.22377330764E+02  0.22377330915E+02  0.26000000000E-02 0. -1.
          2   -1    0    0  501    0  0.00000000000E+00 -0.00000000000E+00 -0.44699893411E+01  0.44699900973E+01  0.26000000000E-02 0.  1.
       1023    2    1    2    0    0  0.00000000000E+00  0.00000000000E+00  0.17907341423E+02  0.26847321012E+02  0.20002644043E+02 0.  0.
        -13    1    3    3    0    0  0.99651724118E+01  0.84106778007E+00  0.90297560828E+01  0.13474409954E+02  0.10570000000E+00 0. -1.
         13    1    3    3    0    0 -0.99651724118E+01 -0.84106778007E+00  0.88775853398E+01  0.13372911058E+02  0.10570000000E+00 0.  1.
<mgrwt>
<rscale>  0 0.20002644E+02</rscale>
<asrwt>0</asrwt>
<pdfrwt beam="2">  1        2 0.68769072E-03 0.20002644E+02</pdfrwt>
<pdfrwt beam="1">  1       -2 0.34426664E-02 0.20002644E+02</pdfrwt>
<totfact> 0.37065887E+06</totfact>
</mgrwt>
</event>
<event>
 4    1  0.1607476E-006  0.2001988E+02  0.7818608E-02  0.1744933E+00
          2   -1    0    0  501    0  0.00000000000E+00  0.00000000000E+00  0.15851659374E+02  0.15851659587E+02  0.26000000000E-02 0. -1.
         -2   -1    0    0    0  501 -0.00000000000E+00 -0.00000000000E+00 -0.63210337960E+01  0.63210343307E+01  0.26000000000E-02 0.  1.
        -13    1    1    2    0    0  0.83703733564E+00 -0.99658884822E+01  0.52194633852E+01  0.11281557306E+02  0.10570000000E+00 0. -1.
         13    1    1    2    0    0 -0.83703733564E+00  0.99658884822E+01  0.43111621925E+01  0.10891136611E+02  0.10570000000E+00 0.  1.
<mgrwt>
<rscale>  0 0.20019878E+02</rscale>
<asrwt>0</asrwt>
<pdfrwt beam="1">  1        2 0.24387169E-02 0.20019878E+02</pdfrwt>
<pdfrwt beam="2">  1       -2 0.97246680E-03 0.20019878E+02</pdfrwt>
<totfact> 0.40777555E+06</totfact>
</mgrwt>
</event>
<event>
 5    1  0.1607476E-006  0.2000152E+02  0.7818608E-02  0.1745298E+00
          2   -1    0    0  501    0  0.00000000000E+00  0.00000000000E+00  0.62775466415E+02  0.62775466469E+02  0.26000000000E-02 0.  1.
         -2   -1    0    0    0  501 -0.00000000000E+00 -0.00000000000E+00 -0.15932193615E+01  0.15932214830E+01  0.26000000000E-02 0. -1.
       1023    2    1    2    0    0  0.00000000000E+00  0.00000000000E+00  0.61182247053E+02  0.64368687952E+02  0.20001515796E+02 0.  0.
        -13    1    3    3    0    0 -0.95937419442E+01  0.28219541505E+01  0.30674816432E+02  0.32263893834E+02  0.10570000000E+00 0.  1.
         13    1    3    3    0    0  0.95937419442E+01 -0.28219541505E+01  0.30507430621E+02  0.32104794117E+02  0.10570000000E+00 0. -1.
<mgrwt>
<rscale>  0 0.20001516E+02</rscale>
<asrwt>0</asrwt>
<pdfrwt beam="1">  1        2 0.96577662E-02 0.20001516E+02</pdfrwt>
<pdfrwt beam="2">  1       -2 0.24511079E-03 0.20001516E+02</pdfrwt>
<totfact> 0.48061111E+06</totfact>
</mgrwt>
</event>
<event>
 4    1  0.1607476E-006  0.2001781E+02  0.7818608E-02  0.1744974E+00
         -2   -1    0    0    0  501 -0.00000000000E+00  0.00000000000E+00  0.18669946895E+02  0.18669947076E+02  0.26000000000E-02 0. -1.
          2   -1    0    0  501    0  0.00000000000E+00 -0.00000000000E+00 -0.53657440675E+01  0.53657446975E+01  0.26000000000E-02 0.  1.
        -13    1    1    2    0    0 -0.39594257607E+01 -0.91916240527E+01  0.65762662916E+01  0.11975869735E+02  0.10570000000E+00 0.  1.
         13    1    1    2    0    0  0.39594257607E+01  0.91916240527E+01  0.67279365359E+01  0.12059822039E+02  0.10570000000E+00 0. -1.
<mgrwt>
<rscale>  0 0.20017809E+02</rscale>
<asrwt>0</asrwt>
<pdfrwt beam="2">  1        2 0.82549915E-03 0.20017809E+02</pdfrwt>
<pdfrwt beam="1">  1       -2 0.28722996E-02 0.20017809E+02</pdfrwt>
<totfact> 0.37573884E+06</totfact>
</mgrwt>
</event>
<event>
 4    1  0.1607476E-006  0.2009280E+02  0.7818608E-02  0.1743489E+00
         -2   -1    0    0    0  501 -0.00000000000E+00  0.00000000000E+00  0.37355719315E+02  0.37355719406E+02  0.26000000000E-02 0. -1.
          2   -1    0    0  501    0  0.00000000000E+00 -0.00000000000E+00 -0.27018653303E+01  0.27018665812E+01  0.26000000000E-02 0.  1.
        -13    1    1    2    0    0  0.61392240797E+00  0.10021756661E+02  0.17977442928E+02  0.20591554920E+02  0.10570000000E+00 0.  1.
         13    1    1    2    0    0 -0.61392240797E+00 -0.10021756661E+02  0.16676411057E+02  0.19466031067E+02  0.10570000000E+00 0. -1.
<mgrwt>
<rscale>  0 0.20092800E+02</rscale>
<asrwt>0</asrwt>
<pdfrwt beam="2">  1        2 0.41567170E-03 0.20092800E+02</pdfrwt>
<pdfrwt beam="1">  1       -2 0.57470337E-02 0.20092800E+02</pdfrwt>
<totfact> 0.34854351E+06</totfact>
</mgrwt>
</event>
<event>
 5    1  0.1607476E-006  0.2000665E+02  0.7818608E-02  0.1745196E+00
          2   -1    0    0  501    0  0.00000000000E+00  0.00000000000E+00  0.68929648027E+02  0.68929648076E+02  0.26000000000E-02 0.  1.
         -2   -1    0    0    0  501 -0.00000000000E+00 -0.00000000000E+00 -0.14517188431E+01  0.14517211714E+01  0.26000000000E-02 0. -1.
       1023    2    1    2    0    0  0.00000000000E+00  0.00000000000E+00  0.67477929184E+02  0.70381369247E+02  0.20006654148E+02 0.  0.
        -13    1    3    3    0    0 -0.99943624425E+01  0.37213331143E+00  0.34344372517E+02  0.35771117678E+02  0.10570000000E+00 0. -1.
         13    1    3    3    0    0  0.99943624425E+01 -0.37213331143E+00  0.33133556667E+02  0.34610251570E+02  0.10570000000E+00 0.  1.
<mgrwt>
<rscale>  0 0.20006654E+02</rscale>
<asrwt>0</asrwt>
<pdfrwt beam="1">  1        2 0.10604559E-01 0.20006654E+02</pdfrwt>
<pdfrwt beam="2">  1       -2 0.22334160E-03 0.20006654E+02</pdfrwt>
<totfact> 0.48844349E+06</totfact>
</mgrwt>
</event>
<event>
 5    1  0.1607476E-006  0.2001188E+02  0.7818608E-02  0.1745092E+00
         -2   -1    0    0    0  501 -0.00000000000E+00  0.00000000000E+00  0.10473814532E+02  0.10473814855E+02  0.26000000000E-02 0.  1.
          2   -1    0    0  501    0  0.00000000000E+00 -0.00000000000E+00 -0.95589672213E+01  0.95589675749E+01  0.26000000000E-02 0. -1.
       1023    2    1    2    0    0  0.00000000000E+00  0.00000000000E+00  0.91484731054E+00  0.20032782429E+02  0.20011882127E+02 0.  0.
        -13    1    3    3    0    0 -0.77784476548E+01 -0.62876110700E+01  0.72110564677E+00  0.10028432915E+02  0.10570000000E+00 0.  1.
         13    1    3    3    0    0  0.77784476548E+01  0.62876110700E+01  0.19374166377E+00  0.10004349514E+02  0.10570000000E+00 0. -1.
<mgrwt>
<rscale>  0 0.20011882E+02</rscale>
<asrwt>0</asrwt>
<pdfrwt beam="2">  1        2 0.14706104E-02 0.20011882E+02</pdfrwt>
<pdfrwt beam="1">  1       -2 0.16113561E-02 0.20011882E+02</pdfrwt>
<totfact> 0.39279687E+06</totfact>
</mgrwt>
</event>
<event>
 5    1  0.1607476E-006  0.2000268E+02  0.7818608E-02  0.1745275E+00
          2   -1    0    0  501    0  0.00000000000E+00  0.00000000000E+00  0.36506366421E+01  0.36506375680E+01  0.26000000000E-02 0.  1.
         -2   -1    0    0    0  501 -0.00000000000E+00 -0.00000000000E+00 -0.27399818873E+02  0.27399818996E+02  0.26000000000E-02 0. -1.
       1023    2    1    2    0    0  0.00000000000E+00  0.00000000000E+00 -0.23749182231E+02  0.31050456564E+02  0.20002679726E+02 0.  0.
        -13    1    3    3    0    0 -0.16321481981E+01 -0.98660612754E+01 -0.12048517822E+02  0.15658257471E+02  0.10570000000E+00 0.  1.
         13    1    3    3    0    0  0.16321481981E+01  0.98660612754E+01 -0.11700664409E+02  0.15392199093E+02  0.10570000000E+00 0. -1.
<mgrwt>
<rscale>  0 0.20002680E+02</rscale>
<asrwt>0</asrwt>
<pdfrwt beam="1">  1        2 0.56163651E-03 0.20002680E+02</pdfrwt>
<pdfrwt beam="2">  1       -2 0.42153567E-02 0.20002680E+02</pdfrwt>
<totfact> 0.36381170E+06</totfact>
</mgrwt>
</event>
<event>
 4    1  0.1607476E-006  0.2002616E+02  0.7818608E-02  0.1744808E+00
         -2   -1    0    0    0  501 -0.00000000000E+00  0.00000000000E+00  0.71738917616E+01  0.71738922328E+01  0.26000000000E-02 0. -1.
          2   -1    0    0  501    0  0.00000000000E+00 -0.00000000000E+00 -0.13975916726E+02  0.13975916968E+02  0.26000000000E-02 0.  1.
        -13    1    1    2    0    0 -0.55734520711E+01  0.83149696774E+01 -0.31685240048E+01  0.10500133598E+02  0.10570000000E+00 0. -1.
         13    1    1    2    0    0  0.55734520711E+01 -0.83149696774E+01 -0.36335009598E+01  0.10649675603E+02  0.10570000000E+00 0.  1.
<mgrwt>
<rscale>  0 0.20026155E+02</rscale>
<asrwt>0</asrwt>
<pdfrwt beam="2">  1        2 0.21501411E-02 0.20026155E+02</pdfrwt>
<pdfrwt beam="1">  1       -2 0.11036757E-02 0.20026155E+02</pdfrwt>
<totfact> 0.40345350E+06</totfact>
</mgrwt>
</event>
<event>
 4    1  0.1607476E-006  0.2065771E+02  0.7818608E-02  0.1732556E+00
         -2   -1    0    0    0  501 -0.00000000000E+00  0.00000000000E+00  0.11865778798E+01  0.11865807283E+01  0.26000000000E-02 0.  1.
          2   -1    0    0  501    0  0.00000000000E+00 -0.00000000000E+00 -0.89909869956E+02  0.89909869994E+02  0.26000000000E-02 0. -1.
        -13    1    1    2    0    0  0.32443953924E+01 -0.97593294941E+01 -0.40170223954E+02  0.41465994244E+02  0.10570000000E+00 0. -1.
         13    1    1    2    0    0 -0.32443953924E+01  0.97593294941E+01 -0.48553068123E+02  0.49630456478E+02  0.10570000000E+00 0.  1.
<mgrwt>
<rscale>  0 0.20657705E+02</rscale>
<asrwt>0</asrwt>
<pdfrwt beam="2">  1        2 0.13832283E-01 0.20657705E+02</pdfrwt>
<pdfrwt beam="1">  1       -2 0.18255074E-03 0.20657705E+02</pdfrwt>
<totfact> 0.47967414E+06</totfact>
</mgrwt>
</event>
<event>
 5    1  0.1607476E-006  0.2000247E+02  0.7818608E-02  0.1745279E+00
          2   -1    0    0  501    0  0.00000000000E+00  0.00000000000E+00  0.88928253243E+00  0.88928633324E+00  0.26000000000E-02 0.  1.
         -2   -1    0    0    0  501 -0.00000000000E+00 -0.00000000000E+00 -0.11247770150E+03  0.11247770153E+03  0.26000000000E-02 0. -1.
       1023    2    1    2    0    0  0.00000000000E+00  0.00000000000E+00 -0.11158841896E+03  0.11336698786E+03  0.20002467085E+02 0.  0.
        -13    1    3    3    0    0  0.85423724921E+01 -0.51994074781E+01 -0.56286152634E+02  0.57167719185E+02  0.10570000000E+00 0. -1.
         13    1    3    3    0    0 -0.85423724921E+01  0.51994074781E+01 -0.55302266329E+02  0.56199268674E+02  0.10570000000E+00 0.  1.
<mgrwt>
<rscale>  0 0.20002467E+02</rscale>
<asrwt>0</asrwt>
<pdfrwt beam="1">  1        2 0.13681308E-03 0.20002467E+02</pdfrwt>
<pdfrwt beam="2">  1       -2 0.17304251E-01 0.20002467E+02</pdfrwt>
<totfact> 0.28841504E+06</totfact>
</mgrwt>
</event>
<event>
 5    1  0.1607476E-006  0.2000232E+02  0.7818608E-02  0.1745282E+00
          2   -1    0    0  501    0  0.00000000000E+00  0.00000000000E+00  0.10698947186E+01  0.10698978778E+01  0.26000000000E-02 0.  1.
         -2   -1    0    0    0  501 -0.00000000000E+00 -0.00000000000E+00 -0.93488684449E+02  0.93488684486E+02  0.26000000000E-02 0. -1.
       1023    2    1    2    0    0  0.00000000000E+00  0.00000000000E+00 -0.92418789731E+02  0.94558582363E+02  0.20002319947E+02 0.  0.
        -13    1    3    3    0    0  0.87000637602E+00  0.99625958763E+01 -0.46409996225E+02  0.47475353077E+02  0.10570000000E+00 0.  1.
         13    1    3    3    0    0 -0.87000637602E+00 -0.99625958763E+01 -0.46008793506E+02  0.47083229286E+02  0.10570000000E+00 0. -1.
<mgrwt>
<rscale>  0 0.20002320E+02</rscale>
<asrwt>0</asrwt>
<pdfrwt beam="1">  1        2 0.16459951E-03 0.20002320E+02</pdfrwt>
<pdfrwt beam="2">  1       -2 0.14382868E-01 0.20002320E+02</pdfrwt>
<totfact> 0.30203729E+06</totfact>
</mgrwt>
</event>
<event>
 5    1  0.1607476E-006  0.2000432E+02  0.7818608E-02  0.1745242E+00
          2   -1    0    0  501    0  0.00000000000E+00  0.00000000000E+00  0.26843363253E+02  0.26843363379E+02  0.26000000000E-02 0. -1.
         -2   -1    0    0    0  501 -0.00000000000E+00 -0.00000000000E+00 -0.37269252741E+01  0.37269261810E+01  0.26000000000E-02 0.  1.
       1023    2    1    2    0    0  0.00000000000E+00  0.00000000000E+00  0.23116437979E+02  0.30570289560E+02  0.20004322007E+02 0.  0.
        -13    1    3    3    0    0  0.79359207421E+01 -0.60867057089E+01  0.11668712475E+02  0.15368697008E+02  0.10570000000E+00 0.  1.
         13    1    3    3    0    0 -0.79359207421E+01  0.60867057089E+01  0.11447725504E+02  0.15201592552E+02  0.10570000000E+00 0. -1.
<mgrwt>
<rscale>  0 0.20004322E+02</rscale>
<asrwt>0</asrwt>
<pdfrwt beam="1">  1        2 0.41297481E-02 0.20004322E+02</pdfrwt>
<pdfrwt beam="2">  1       -2 0.57337322E-03 0.20004322E+02</pdfrwt>
<totfact> 0.42842841E+06</totfact>
</mgrwt>
</event>
<event>
 5    1  0.1607476E-006  0.2000217E+02  0.7818608E-02  0.1745285E+00
          2   -1    0    0  501    0  0.00000000000E+00  0.00000000000E+00  0.58363214529E+01  0.58363220321E+01  0.26000000000E-02 0.  1.
         -2   -1    0    0    0  501 -0.00000000000E+00 -0.00000000000E+00 -0.17137798641E+02  0.17137798839E+02  0.26000000000E-02 0. -1.
       1023    2    1    2    0    0  0.00000000000E+00  0.00000000000E+00 -0.11301477188E+02  0.22974120871E+02  0.20002170961E+02 0.  0.
        -13    1    3    3    0    0 -0.53104437874E+00  0.99863798209E+01 -0.56821567418E+01  0.11502515716E+02  0.10570000000E+00 0.  1.
         13    1    3    3    0    0  0.53104437874E+00 -0.99863798209E+01 -0.56193204466E+01  0.11471605155E+02  0.10570000000E+00 0. -1.
<mgrwt>
<rscale>  0 0.20002171E+02</rscale>
<asrwt>0</asrwt>
<pdfrwt beam="1">  1        2 0.89789568E-03 0.20002171E+02</pdfrwt>
<pdfrwt beam="2">  1       -2 0.26365844E-02 0.20002171E+02</pdfrwt>
<totfact> 0.37896134E+06</totfact>
</mgrwt>
</event>
<event>
 5    1  0.1607476E-006  0.2000157E+02  0.7818608E-02  0.1745297E+00
          2   -1    0    0  501    0  0.00000000000E+00  0.00000000000E+00  0.18139616870E+02  0.18139617056E+02  0.26000000000E-02 0.  1.
         -2   -1    0    0    0  501 -0.00000000000E+00 -0.00000000000E+00 -0.55136595361E+01  0.55136601491E+01  0.26000000000E-02 0. -1.
       1023    2    1    2    0    0  0.00000000000E+00  0.00000000000E+00  0.12625957334E+02  0.23653277206E+02  0.20001568038E+02 0.  0.
        -13    1    3    3    0    0 -0.94937360918E+01  0.31420453977E+01  0.63510096648E+01  0.11846939289E+02  0.10570000000E+00 0.  1.
         13    1    3    3    0    0  0.94937360918E+01 -0.31420453977E+01  0.62749476692E+01  0.11806337917E+02  0.10570000000E+00 0. -1.
<mgrwt>
<rscale>  0 0.20001568E+02</rscale>
<asrwt>0</asrwt>
<pdfrwt beam="1">  1        2 0.27907104E-02 0.20001568E+02</pdfrwt>
<pdfrwt beam="2">  1       -2 0.84825537E-03 0.20001568E+02</pdfrwt>
<totfact> 0.41319808E+06</totfact>
</mgrwt>
</event>
<event>
 4    1  0.1607476E-006  0.2002110E+02  0.7818608E-02  0.1744909E+00
         -2   -1    0    0    0  501 -0.00000000000E+00  0.00000000000E+00  0.11635327318E+02  0.11635327609E+02  0.26000000000E-02 0.  1.
          2   -1    0    0  501    0  0.00000000000E+00 -0.00000000000E+00 -0.86126552203E+01  0.86126556127E+01  0.26000000000E-02 0. -1.
        -13    1    1    2    0    0 -0.97368995364E+01  0.23222145092E+01  0.15134037229E+01  0.10124300278E+02  0.10570000000E+00 0.  1.
         13    1    1    2    0    0  0.97368995364E+01 -0.23222145092E+01  0.15092683749E+01  0.10123682943E+02  0.10570000000E+00 0. -1.
<mgrwt>
<rscale>  0 0.20021096E+02</rscale>
<asrwt>0</asrwt>
<pdfrwt beam="2">  1        2 0.13250239E-02 0.20021096E+02</pdfrwt>
<pdfrwt beam="1">  1       -2 0.17900504E-02 0.20021096E+02</pdfrwt>
<totfact> 0.38939912E+06</totfact>
</mgrwt>
</event>
<event>
 5    1  0.1607476E-006  0.2000161E+02  0.7818608E-02  0.1745296E+00
         -2   -1    0    0    0  501 -0.00000000000E+00  0.00000000000E+00  0.14866173406E+02  0.14866173633E+02  0.26000000000E-02 0.  1.
          2   -1    0    0  501    0  0.00000000000E+00 -0.00000000000E+00 -0.67277604126E+01  0.67277609150E+01  0.26000000000E-02 0. -1.
       1023    2    1    2    0    0  0.00000000000E+00  0.00000000000E+00  0.81384129931E+01  0.21593934548E+02  0.20001606016E+02 0.  0.
        -13    1    3    3    0    0 -0.10745889214E+01 -0.99421048887E+01  0.41431999443E+01  0.10824854236E+02  0.10570000000E+00 0.  1.
         13    1    3    3    0    0  0.10745889214E+01  0.99421048887E+01  0.39952130488E+01  0.10769080312E+02  0.10570000000E+00 0. -1.
<mgrwt>
<rscale>  0 0.20001606E+02</rscale>
<asrwt>0</asrwt>
<pdfrwt beam="2">  1        2 0.10350401E-02 0.20001606E+02</pdfrwt>
<pdfrwt beam="1">  1       -2 0.22871037E-02 0.20001606E+02</pdfrwt>
<totfact> 0.38317068E+06</totfact>
</mgrwt>
</event>
<event>
 5    1  0.1607476E-006  0.2000203E+02  0.7818608E-02  0.1745288E+00
          2   -1    0    0  501    0  0.00000000000E+00  0.00000000000E+00  0.21883653591E+02  0.21883653745E+02  0.26000000000E-02 0. -1.
         -2   -1    0    0    0  501 -0.00000000000E+00 -0.00000000000E+00 -0.45705474883E+01  0.45705482278E+01  0.26000000000E-02 0.  1.
       1023    2    1    2    0    0  0.00000000000E+00  0.00000000000E+00  0.17313106102E+02  0.26454201973E+02  0.20002028875E+02 0.  0.
        -13    1    3    3    0    0 -0.73399883410E+01  0.67919636076E+01  0.87280063738E+01  0.13273864028E+02  0.10570000000E+00 0. -1.
         13    1    3    3    0    0  0.73399883410E+01 -0.67919636076E+01  0.85850997286E+01  0.13180337945E+02  0.10570000000E+00 0.  1.
<mgrwt>
<rscale>  0 0.20002029E+02</rscale>
<asrwt>0</asrwt>
<pdfrwt beam="1">  1        2 0.33667160E-02 0.20002029E+02</pdfrwt>
<pdfrwt beam="2">  1       -2 0.70316121E-03 0.20002029E+02</pdfrwt>
<totfact> 0.42008720E+06</totfact>
</mgrwt>
</event>
<event>
 4    1  0.1607476E-006  0.2001438E+02  0.7818608E-02  0.1745042E+00
         -2   -1    0    0    0  501 -0.00000000000E+00  0.00000000000E+00  0.10274625499E+02  0.10274625828E+02  0.26000000000E-02 0.  1.
          2   -1    0    0  501    0  0.00000000000E+00 -0.00000000000E+00 -0.97467170566E+01  0.97467174033E+01  0.26000000000E-02 0. -1.
        -13    1    1    2    0    0 -0.70354151716E+01 -0.71096116728E+01  0.56248236947E+00  0.10018542992E+02  0.10570000000E+00 0. -1.
         13    1    1    2    0    0  0.70354151716E+01  0.71096116728E+01 -0.34573927481E-01  0.10002800239E+02  0.10570000000E+00 0.  1.
<mgrwt>
<rscale>  0 0.20014382E+02</rscale>
<asrwt>0</asrwt>
<pdfrwt beam="2">  1        2 0.14994950E-02 0.20014382E+02</pdfrwt>
<pdfrwt beam="1">  1       -2 0.15807117E-02 0.20014382E+02</pdfrwt>
<totfact> 0.39324423E+06</totfact>
</mgrwt>
</event>
<event>
 5    1  0.1607476E-006  0.2000264E+02  0.7818608E-02  0.1745276E+00
         -2   -1    0    0    0  501 -0.00000000000E+00  0.00000000000E+00  0.27701646447E+01  0.27701658648E+01  0.26000000000E-02 0. -1.
          2   -1    0    0  501    0  0.00000000000E+00 -0.00000000000E+00 -0.36108456858E+02  0.36108456951E+02  0.26000000000E-02 0.  1.
       1023    2    1    2    0    0  0.00000000000E+00  0.00000000000E+00 -0.33338292213E+02  0.38878622816E+02  0.20002639436E+02 0.  0.
        -13    1    3    3    0    0 -0.31680264058E+01 -0.94851997542E+01 -0.16861735960E+02  0.19604456579E+02  0.10570000000E+00 0.  1.
         13    1    3    3    0    0  0.31680264058E+01  0.94851997542E+01 -0.16476556253E+02  0.19274166237E+02  0.10570000000E+00 0. -1.
<mgrwt>
<rscale>  0 0.20002639E+02</rscale>
<asrwt>0</asrwt>
<pdfrwt beam="2">  1        2 0.55551470E-02 0.20002639E+02</pdfrwt>
<pdfrwt beam="1">  1       -2 0.42617930E-03 0.20002639E+02</pdfrwt>
<totfact> 0.44303872E+06</totfact>
</mgrwt>
</event>
<event>
 5    1  0.1607476E-006  0.2000286E+02  0.7818608E-02  0.1745271E+00
         -2   -1    0    0    0  501 -0.00000000000E+00  0.00000000000E+00  0.48071073025E+01  0.48071080056E+01  0.26000000000E-02 0.  1.
          2   -1    0    0  501    0  0.00000000000E+00 -0.00000000000E+00 -0.20808479076E+02  0.20808479239E+02  0.26000000000E-02 0. -1.
       1023    2    1    2    0    0  0.00000000000E+00  0.00000000000E+00 -0.16001371774E+02  0.25615587244E+02  0.20002860076E+02 0.  0.
        -13    1    3    3    0    0 -0.43067870706E+01  0.90258596740E+01 -0.80693214400E+01  0.12850668415E+02  0.10570000000E+00 0.  1.
         13    1    3    3    0    0  0.43067870706E+01 -0.90258596740E+01 -0.79320503339E+01  0.12764918829E+02  0.10570000000E+00 0. -1.
<mgrwt>
<rscale>  0 0.20002860E+02</rscale>
<asrwt>0</asrwt>
<pdfrwt beam="2">  1        2 0.32013045E-02 0.20002860E+02</pdfrwt>
<pdfrwt beam="1">  1       -2 0.73955504E-03 0.20002860E+02</pdfrwt>
<totfact> 0.41812195E+06</totfact>
</mgrwt>
</event>
<event>
 5    1  0.1607476E-006  0.2000200E+02  0.7818608E-02  0.1745288E+00
         -2   -1    0    0    0  501 -0.00000000000E+00  0.00000000000E+00  0.15646628362E+02  0.15646628578E+02  0.26000000000E-02 0.  1.
          2   -1    0    0  501    0  0.00000000000E+00 -0.00000000000E+00 -0.63924293662E+01  0.63924298950E+01  0.26000000000E-02 0. -1.
       1023    2    1    2    0    0  0.00000000000E+00  0.00000000000E+00  0.92541989954E+01  0.22039058473E+02  0.20001997383E+02 0.  0.
        -13    1    3    3    0    0  0.77041225132E+01  0.63761506776E+01  0.46282938839E+01  0.11020030759E+02  0.10570000000E+00 0.  1.
         13    1    3    3    0    0 -0.77041225132E+01 -0.63761506776E+01  0.46259051114E+01  0.11019027714E+02  0.10570000000E+00 0. -1.
<mgrwt>
<rscale>  0 0.20001997E+02</rscale>
<asrwt>0</asrwt>
<pdfrwt beam="2">  1        2 0.98345074E-03 0.20001997E+02</pdfrwt>
<pdfrwt beam="1">  1       -2 0.24071736E-02 0.20001997E+02</pdfrwt>
<totfact> 0.38166121E+06</totfact>
</mgrwt>
</event>
<event>
 4    1  0.1607476E-006  0.2002590E+02  0.7818608E-02  0.1744813E+00
          2   -1    0    0  501    0  0.00000000000E+00  0.00000000000E+00  0.23405491176E+01  0.23405505617E+01  0.26000000000E-02 0. -1.
         -2   -1    0    0    0  501 -0.00000000000E+00 -0.00000000000E+00 -0.42835750013E+02  0.42835750092E+02  0.26000000000E-02 0.  1.
        -13    1    1    2    0    0  0.16500182242E+00 -0.10011018520E+02 -0.20207157121E+02  0.22551897676E+02  0.10570000000E+00 0. -1.
         13    1    1    2    0    0 -0.16500182242E+00  0.10011018520E+02 -0.20288043775E+02  0.22624402978E+02  0.10570000000E+00 0.  1.
<mgrwt>
<rscale>  0 0.20025904E+02</rscale>
<asrwt>0</asrwt>
<pdfrwt beam="1">  1        2 0.36008463E-03 0.20025904E+02</pdfrwt>
<pdfrwt beam="2">  1       -2 0.65901149E-02 0.20025904E+02</pdfrwt>
<totfact> 0.34522768E+06</totfact>
</mgrwt>
</event>
<event>
 5    1  0.1607476E-006  0.2000206E+02  0.7818608E-02  0.1745287E+00
          2   -1    0    0  501    0  0.00000000000E+00  0.00000000000E+00  0.19212514676E+02  0.19212514852E+02  0.26000000000E-02 0. -1.
         -2   -1    0    0    0  501 -0.00000000000E+00 -0.00000000000E+00 -0.52060126348E+01  0.52060132841E+01  0.26000000000E-02 0.  1.
       1023    2    1    2    0    0  0.00000000000E+00  0.00000000000E+00  0.14006502041E+02  0.24418528136E+02  0.20002060316E+02 0.  0.
        -13    1    3    3    0    0  0.82129885377E+01 -0.57055433463E+01  0.70704076827E+01  0.12247785224E+02  0.10570000000E+00 0. -1.
         13    1    3    3    0    0 -0.82129885377E+01  0.57055433463E+01  0.69360943584E+01  0.12170742912E+02  0.10570000000E+00 0.  1.
<mgrwt>
<rscale>  0 0.20002060E+02</rscale>
<asrwt>0</asrwt>
<pdfrwt beam="1">  1        2 0.29557715E-02 0.20002060E+02</pdfrwt>
<pdfrwt beam="2">  1       -2 0.80092509E-03 0.20002060E+02</pdfrwt>
<totfact> 0.41521899E+06</totfact>
</mgrwt>
</event>
<event>
 4    1  0.1607476E-006  0.2003721E+02  0.7818608E-02  0.1744589E+00
          2   -1    0    0  501    0  0.00000000000E+00  0.00000000000E+00  0.45768811008E+01  0.45768818393E+01  0.26000000000E-02 0. -1.
         -2   -1    0    0    0  501 -0.00000000000E+00 -0.00000000000E+00 -0.21930305397E+02  0.21930305551E+02  0.26000000000E-02 0.  1.
        -13    1    1    2    0    0 -0.96332707971E+01 -0.27128846260E+01 -0.92706778941E+01  0.13642444442E+02  0.10570000000E+00 0. -1.
         13    1    1    2    0    0  0.96332707971E+01  0.27128846260E+01 -0.80827464023E+01  0.12864742949E+02  0.10570000000E+00 0.  1.
<mgrwt>
<rscale>  0 0.20037207E+02</rscale>
<asrwt>0</asrwt>
<pdfrwt beam="1">  1        2 0.70413563E-03 0.20037207E+02</pdfrwt>
<pdfrwt beam="2">  1       -2 0.33738932E-02 0.20037207E+02</pdfrwt>
<totfact> 0.36992096E+06</totfact>
</mgrwt>
</event>
<event>
 5    1  0.1607476E-006  0.2000113E+02  0.7818608E-02  0.1745306E+00
         -2   -1    0    0    0  501 -0.00000000000E+00  0.00000000000E+00  0.32229595345E+01  0.32229605832E+01  0.26000000000E-02 0.  1.
          2   -1    0    0  501    0  0.00000000000E+00 -0.00000000000E+00 -0.31030895990E+02  0.31030896099E+02  0.26000000000E-02 0. -1.
       1023    2    1    2    0    0  0.00000000000E+00  0.00000000000E+00 -0.27807936455E+02  0.34253856682E+02  0.20001134160E+02 0.  0.
        -13    1    3    3    0    0  0.86911212341E+01 -0.49461654628E+01 -0.13894851183E+02  0.17119526950E+02  0.10570000000E+00 0.  1.
         13    1    3    3    0    0 -0.86911212341E+01  0.49461654628E+01 -0.13913085272E+02  0.17134329732E+02  0.10570000000E+00 0. -1.
<mgrwt>
<rscale>  0 0.20001134E+02</rscale>
<asrwt>0</asrwt>
<pdfrwt beam="2">  1        2 0.47739839E-02 0.20001134E+02</pdfrwt>
<pdfrwt beam="1">  1       -2 0.49584004E-03 0.20001134E+02</pdfrwt>
<totfact> 0.43530468E+06</totfact>
</mgrwt>
</event>
<event>
 5    1  0.1607476E-006  0.2000481E+02  0.7818608E-02  0.1745233E+00
         -2   -1    0    0    0  501 -0.00000000000E+00  0.00000000000E+00  0.12875897759E+02  0.12875898021E+02  0.26000000000E-02 0.  1.
          2   -1    0    0  501    0  0.00000000000E+00 -0.00000000000E+00 -0.77701814917E+01  0.77701819267E+01  0.26000000000E-02 0. -1.
       1023    2    1    2    0    0  0.00000000000E+00  0.00000000000E+00  0.51057162673E+01  0.20646079948E+02  0.20004806388E+02 0.  0.
        -13    1    3    3    0    0  0.97693868363E+01  0.21438204091E+01  0.25564426057E+01  0.10323926404E+02  0.10570000000E+00 0.  1.
         13    1    3    3    0    0 -0.97693868363E+01 -0.21438204091E+01  0.25492736617E+01  0.10322153544E+02  0.10570000000E+00 0. -1.
<mgrwt>
<rscale>  0 0.20004806E+02</rscale>
<asrwt>0</asrwt>
<pdfrwt beam="2">  1        2 0.11954126E-02 0.20004806E+02</pdfrwt>
<pdfrwt beam="1">  1       -2 0.19809074E-02 0.20004806E+02</pdfrwt>
<totfact> 0.38718204E+06</totfact>
</mgrwt>
</event>
<event>
 5    1  0.1607476E-006  0.2000452E+02  0.7818608E-02  0.1745238E+00
          2   -1    0    0  501    0  0.00000000000E+00  0.00000000000E+00  0.43025462155E+01  0.43025470011E+01  0.26000000000E-02 0.  1.
         -2   -1    0    0    0  501 -0.00000000000E+00 -0.00000000000E+00 -0.23252560653E+02  0.23252560798E+02  0.26000000000E-02 0. -1.
       1023    2    1    2    0    0  0.00000000000E+00  0.00000000000E+00 -0.18950014438E+02  0.27555107800E+02  0.20004522455E+02 0.  0.
        -13    1    3    3    0    0 -0.61358639837E+01  0.78983664619E+01 -0.94306376666E+01  0.13747040368E+02  0.10570000000E+00 0.  1.
         13    1    3    3    0    0  0.61358639837E+01 -0.78983664619E+01 -0.95193767710E+01  0.13808067431E+02  0.10570000000E+00 0. -1.
<mgrwt>
<rscale>  0 0.20004522E+02</rscale>
<asrwt>0</asrwt>
<pdfrwt beam="1">  1        2 0.66193027E-03 0.20004522E+02</pdfrwt>
<pdfrwt beam="2">  1       -2 0.35773170E-02 0.20004522E+02</pdfrwt>
<totfact> 0.36932941E+06</totfact>
</mgrwt>
</event>
<event>
 5    1  0.1677889E-006  0.2000179E+02  0.7818608E-02  0.1745292E+00
          2   -1    0    0  501    0  0.00000000000E+00  0.00000000000E+00  0.40151827129E+02  0.40151827213E+02  0.26000000000E-02 0. -1.
         -2   -1    0    0    0  501 -0.00000000000E+00 -0.00000000000E+00 -0.24909917724E+01  0.24909931293E+01  0.26000000000E-02 0.  1.
       1023    2    1    2    0    0  0.00000000000E+00  0.00000000000E+00  0.37660835357E+02  0.42642820342E+02  0.20001790095E+02 0.  0.
        -13    1    3    3    0    0 -0.91261508948E+01 -0.40889125231E+01  0.18894144235E+02  0.21377691518E+02  0.10570000000E+00 0.  1.
         13    1    3    3    0    0  0.91261508948E+01  0.40889125231E+01  0.18766691122E+02  0.21265128824E+02  0.10570000000E+00 0. -1.
<mgrwt>
<rscale>  0 0.20001790E+02</rscale>
<asrwt>0</asrwt>
<pdfrwt beam="1">  1        2 0.61772036E-02 0.20001790E+02</pdfrwt>
<pdfrwt beam="2">  1       -2 0.38322965E-03 0.20001790E+02</pdfrwt>
<totfact> 0.44909653E+06</totfact>
</mgrwt>
</event>
<event>
 5    1  0.1607476E-006  0.2001066E+02  0.7818608E-02  0.1745116E+00
          2   -1    0    0  501    0  0.00000000000E+00  0.00000000000E+00  0.19065818082E+02  0.19065818260E+02  0.26000000000E-02 0.  1.
         -2   -1    0    0    0  501 -0.00000000000E+00 -0.00000000000E+00 -0.52505793003E+01  0.52505799440E+01  0.26000000000E-02 0. -1.
       1023    2    1    2    0    0  0.00000000000E+00  0.00000000000E+00  0.13815238782E+02  0.24316398204E+02  0.20010657135E+02 0.  0.
        -13    1    3    3    0    0  0.97253127779E+01  0.23458597227E+01  0.67821514975E+01  0.12086915152E+02  0.10570000000E+00 0.  1.
         13    1    3    3    0    0 -0.97253127779E+01 -0.23458597227E+01  0.70330872844E+01  0.12229483052E+02  0.10570000000E+00 0. -1.
<mgrwt>
<rscale>  0 0.20010657E+02</rscale>
<asrwt>0</asrwt>
<pdfrwt beam="1">  1        2 0.29332028E-02 0.20010657E+02</pdfrwt>
<pdfrwt beam="2">  1       -2 0.80778149E-03 0.20010657E+02</pdfrwt>
<totfact> 0.41454120E+06</totfact>
</mgrwt>
</event>
<event>
 4    1  0.1607476E-006  0.2002671E+02  0.7818608E-02  0.1744797E+00
         -2   -1    0    0    0  501 -0.00000000000E+00  0.00000000000E+00  0.19089915063E+01  0.19089932769E+01  0.26000000000E-02 0.  1.
          2   -1    0    0  501    0  0.00000000000E+00 -0.00000000000E+00 -0.52523669843E+02  0.52523669907E+02  0.26000000000E-02 0. -1.
        -13    1    1    2    0    0  0.38065240136E+01  0.92510684740E+01 -0.24140735993E+02  0.26131555632E+02  0.10570000000E+00 0. -1.
         13    1    1    2    0    0 -0.38065240136E+01 -0.92510684740E+01 -0.26473942343E+02  0.28301107552E+02  0.10570000000E+00 0.  1.
<mgrwt>
<rscale>  0 0.20026711E+02</rscale>
<asrwt>0</asrwt>
<pdfrwt beam="2">  1        2 0.80805636E-02 0.20026711E+02</pdfrwt>
<pdfrwt beam="1">  1       -2 0.29369118E-03 0.20026711E+02</pdfrwt>
<totfact> 0.46540377E+06</totfact>
</mgrwt>
</event>
<event>
 4    1  0.1692193E-006  0.2307437E+02  0.7818608E-02  0.1690308E+00
          2   -1    0    0  501    0  0.00000000000E+00  0.00000000000E+00  0.35509324632E+02  0.35509324727E+02  0.26000000000E-02 0.  1.
         -2   -1    0    0    0  501 -0.00000000000E+00 -0.00000000000E+00 -0.37484962389E+01  0.37484971406E+01  0.26000000000E-02 0. -1.
        -13    1    1    2    0    0  0.44228200466E+01  0.10318044177E+02  0.20404896634E+02  0.23289361347E+02  0.10570000000E+00 0.  1.
         13    1    1    2    0    0 -0.44228200466E+01 -0.10318044177E+02  0.11355931760E+02  0.15968460521E+02  0.10570000000E+00 0. -1.
<mgrwt>
<rscale>  0 0.23074366E+02</rscale>
<asrwt>0</asrwt>
<pdfrwt beam="1">  1        2 0.54629728E-02 0.23074366E+02</pdfrwt>
<pdfrwt beam="2">  1       -2 0.57669184E-03 0.23074366E+02</pdfrwt>
<totfact> 0.31980532E+06</totfact>
</mgrwt>
</event>
<event>
 4    1  0.1607476E-006  0.2089793E+02  0.7818608E-02  0.1728039E+00
         -2   -1    0    0    0  501 -0.00000000000E+00  0.00000000000E+00  0.46801418607E+02  0.46801418679E+02  0.26000000000E-02 0.  1.
          2   -1    0    0  501    0  0.00000000000E+00 -0.00000000000E+00 -0.23328531271E+01  0.23328545760E+01  0.26000000000E-02 0. -1.
        -13    1    1    2    0    0  0.10186312134E+02  0.19951950978E+01  0.19424733916E+02  0.22024377824E+02  0.10570000000E+00 0. -1.
         13    1    1    2    0    0 -0.10186312134E+02 -0.19951950978E+01  0.25043831564E+02  0.27109895431E+02  0.10570000000E+00 0.  1.
<mgrwt>
<rscale>  0 0.20897930E+02</rscale>
<asrwt>0</asrwt>
<pdfrwt beam="2">  1        2 0.35890060E-03 0.20897930E+02</pdfrwt>
<pdfrwt beam="1">  1       -2 0.72002183E-02 0.20897930E+02</pdfrwt>
<totfact> 0.31071914E+06</totfact>
</mgrwt>
</event>
<event>
 5    1  0.1607476E-006  0.2000159E+02  0.7818608E-02  0.1745296E+00
         -2   -1    0    0    0  501 -0.00000000000E+00  0.00000000000E+00  0.23027581631E+02  0.23027581778E+02  0.26000000000E-02 0.  1.
          2   -1    0    0  501    0  0.00000000000E+00 -0.00000000000E+00 -0.43433105188E+01  0.43433112970E+01  0.26000000000E-02 0. -1.
       1023    2    1    2    0    0  0.00000000000E+00  0.00000000000E+00  0.18684271112E+02  0.27370893075E+02  0.20001594954E+02 0.  0.
        -13    1    3    3    0    0  0.10000060561E+02  0.58677954669E-01  0.93573351291E+01  0.13695822265E+02  0.10570000000E+00 0.  1.
         13    1    3    3    0    0 -0.10000060561E+02 -0.58677954669E-01  0.93269359829E+01  0.13675070809E+02  0.10570000000E+00 0. -1.
<mgrwt>
<rscale>  0 0.20001595E+02</rscale>
<asrwt>0</asrwt>
<pdfrwt beam="2">  1        2 0.66820171E-03 0.20001595E+02</pdfrwt>
<pdfrwt beam="1">  1       -2 0.35427048E-02 0.20001595E+02</pdfrwt>
<totfact> 0.36976652E+06</totfact>
</mgrwt>
</event>
<event>
 5    1  0.1629420E-006  0.2000140E+02  0.7818608E-02  0.1745300E+00
          2   -1    0    0  501    0  0.00000000000E+00  0.00000000000E+00  0.90584686686E+02  0.90584686723E+02  0.26000000000E-02 0. -1.
         -2   -1    0    0    0  501 -0.00000000000E+00 -0.00000000000E+00 -0.11040926018E+01  0.11040956631E+01  0.26000000000E-02 0.  1.
       1023    2    1    2    0    0  0.00000000000E+00  0.00000000000E+00  0.89480594084E+02  0.91688782386E+02  0.20001402397E+02 0.  0.
        -13    1    3    3    0    0 -0.40926268299E+01 -0.91242123531E+01  0.44945639926E+02  0.46044788699E+02  0.10570000000E+00 0.  1.
         13    1    3    3    0    0  0.40926268299E+01  0.91242123531E+01  0.44534954158E+02  0.45643993688E+02  0.10570000000E+00 0. -1.
<mgrwt>
<rscale>  0 0.20001402E+02</rscale>
<asrwt>0</asrwt>
<pdfrwt beam="1">  1        2 0.13936107E-01 0.20001402E+02</pdfrwt>
<pdfrwt beam="2">  1       -2 0.16986063E-03 0.20001402E+02</pdfrwt>
<totfact> 0.51608547E+06</totfact>
</mgrwt>
</event>
<event>
 5    1  0.1607476E-006  0.2000664E+02  0.7818608E-02  0.1745196E+00
         -2   -1    0    0    0  501 -0.00000000000E+00  0.00000000000E+00  0.20456780282E+01  0.20456796805E+01  0.26000000000E-02 0. -1.
          2   -1    0    0  501    0  0.00000000000E+00 -0.00000000000E+00 -0.48916010903E+02  0.48916010972E+02  0.26000000000E-02 0.  1.
       1023    2    1    2    0    0  0.00000000000E+00  0.00000000000E+00 -0.46870332874E+02  0.50961690652E+02  0.20006644156E+02 0.  0.
        -13    1    3    3    0    0 -0.98176361939E+01 -0.19154031051E+01 -0.23493842197E+02  0.25534810420E+02  0.10570000000E+00 0. -1.
         13    1    3    3    0    0  0.98176361939E+01  0.19154031051E+01 -0.23376490677E+02  0.25426880233E+02  0.10570000000E+00 0.  1.
<mgrwt>
<rscale>  0 0.20006644E+02</rscale>
<asrwt>0</asrwt>
<pdfrwt beam="2">  1        2 0.75255394E-02 0.20006644E+02</pdfrwt>
<pdfrwt beam="1">  1       -2 0.31471987E-03 0.20006644E+02</pdfrwt>
<totfact> 0.46142112E+06</totfact>
</mgrwt>
</event>
<event>
 4    1  0.1607476E-006  0.2001339E+02  0.7818608E-02  0.1745062E+00
          2   -1    0    0  501    0  0.00000000000E+00  0.00000000000E+00  0.11279953264E+01  0.11279983228E+01  0.26000000000E-02 0. -1.
         -2   -1    0    0    0  501 -0.00000000000E+00 -0.00000000000E+00 -0.88771501223E+02  0.88771501261E+02  0.26000000000E-02 0.  1.
        -13    1    1    2    0    0 -0.99047852331E+01 -0.14199162048E+01 -0.43627511682E+02  0.44760382936E+02  0.10570000000E+00 0. -1.
         13    1    1    2    0    0  0.99047852331E+01  0.14199162048E+01 -0.44015994215E+02  0.45139116648E+02  0.10570000000E+00 0.  1.
<mgrwt>
<rscale>  0 0.20013393E+02</rscale>
<asrwt>0</asrwt>
<pdfrwt beam="1">  1        2 0.17353805E-03 0.20013393E+02</pdfrwt>
<pdfrwt beam="2">  1       -2 0.13657149E-01 0.20013393E+02</pdfrwt>
<totfact> 0.30524726E+06</totfact>
</mgrwt>
</event>
<event>
 4    1  0.1607476E-006  0.2001786E+02  0.7818608E-02  0.1744973E+00
          2   -1    0    0  501    0  0.00000000000E+00  0.00000000000E+00  0.52621294230E+02  0.52621294295E+02  0.26000000000E-02 0. -1.
         -2   -1    0    0    0  501 -0.00000000000E+00 -0.00000000000E+00 -0.19037661731E+01  0.19037679485E+01  0.26000000000E-02 0.  1.
        -13    1    1    2    0    0 -0.75443149806E+01  0.65764343204E+01  0.25259029538E+02  0.27169761180E+02  0.10570000000E+00 0.  1.
         13    1    1    2    0    0  0.75443149806E+01 -0.65764343204E+01  0.25458498519E+02  0.27355301063E+02  0.10570000000E+00 0. -1.
<mgrwt>
<rscale>  0 0.20017861E+02</rscale>
<asrwt>0</asrwt>
<pdfrwt beam="1">  1        2 0.80955851E-02 0.20017861E+02</pdfrwt>
<pdfrwt beam="2">  1       -2 0.29288720E-03 0.20017861E+02</pdfrwt>
<totfact> 0.46599667E+06</totfact>
</mgrwt>
</event>
<event>
 5    1  0.1607476E-006  0.2000812E+02  0.7818608E-02  0.1745167E+00
         -2   -1    0    0    0  501 -0.00000000000E+00  0.00000000000E+00  0.17205685713E+01  0.17205705357E+01  0.26000000000E-02 0. -1.
          2   -1    0    0  501    0  0.00000000000E+00 -0.00000000000E+00 -0.58167472383E+02  0.58167472441E+02  0.26000000000E-02 0.  1.
       1023    2    1    2    0    0  0.00000000000E+00  0.00000000000E+00 -0.56446903812E+02  0.59888042977E+02  0.20008116894E+02 0.  0.
        -13    1    3    3    0    0 -0.36191874853E+01 -0.93231650537E+01 -0.28893339368E+02  0.30575417528E+02  0.10570000000E+00 0.  1.
         13    1    3    3    0    0  0.36191874853E+01  0.93231650537E+01 -0.27553564444E+02  0.29312625449E+02  0.10570000000E+00 0. -1.
<mgrwt>
<rscale>  0 0.20008117E+02</rscale>
<asrwt>0</asrwt>
<pdfrwt beam="2">  1        2 0.89488405E-02 0.20008117E+02</pdfrwt>
<pdfrwt beam="1">  1       -2 0.26470306E-03 0.20008117E+02</pdfrwt>
<totfact> 0.47407654E+06</totfact>
</mgrwt>
</event>
<event>
 5    1  0.1607476E-006  0.2001032E+02  0.7818608E-02  0.1745123E+00
          2   -1    0    0  501    0  0.00000000000E+00  0.00000000000E+00  0.10555349241E+02  0.10555349561E+02  0.26000000000E-02 0. -1.
         -2   -1    0    0    0  501 -0.00000000000E+00 -0.00000000000E+00 -0.94836438483E+01  0.94836442047E+01  0.26000000000E-02 0.  1.
       1023    2    1    2    0    0  0.00000000000E+00  0.00000000000E+00  0.10717053929E+01  0.20038993766E+02  0.20010315307E+02 0.  0.
        -13    1    3    3    0    0 -0.71773234179E+01  0.69694743078E+01  0.60275873507E+00  0.10023075085E+02  0.10570000000E+00 0. -1.
         13    1    3    3    0    0  0.71773234179E+01 -0.69694743078E+01  0.46894665778E+00  0.10015918681E+02  0.10570000000E+00 0.  1.
<mgrwt>
<rscale>  0 0.20010315E+02</rscale>
<asrwt>0</asrwt>
<pdfrwt beam="1">  1        2 0.16238999E-02 0.20010315E+02</pdfrwt>
<pdfrwt beam="2">  1       -2 0.14590222E-02 0.20010315E+02</pdfrwt>
<totfact> 0.39573503E+06</totfact>
</mgrwt>
</event>
<event>
 5    1  0.1607476E-006  0.2000332E+02  0.7818608E-02  0.1745262E+00
          2   -1    0    0  501    0  0.00000000000E+00  0.00000000000E+00  0.15631623414E+02  0.15631623631E+02  0.26000000000E-02 0.  1.
         -2   -1    0    0    0  501 -0.00000000000E+00 -0.00000000000E+00 -0.63994110534E+01  0.63994115816E+01  0.26000000000E-02 0. -1.
       1023    2    1    2    0    0  0.00000000000E+00  0.00000000000E+00  0.92322123609E+01  0.22031035212E+02  0.20003318911E+02 0.  0.
        -13    1    3    3    0    0 -0.90790443112E+01 -0.41940932702E+01  0.45604308466E+01  0.10992186587E+02  0.10570000000E+00 0.  1.
         13    1    3    3    0    0  0.90790443112E+01  0.41940932702E+01  0.46717815143E+01  0.11038848625E+02  0.10570000000E+00 0. -1.
<mgrwt>
<rscale>  0 0.20003319E+02</rscale>
<asrwt>0</asrwt>
<pdfrwt beam="1">  1        2 0.24048652E-02 0.20003319E+02</pdfrwt>
<pdfrwt beam="2">  1       -2 0.98452483E-03 0.20003319E+02</pdfrwt>
<totfact> 0.40808100E+06</totfact>
</mgrwt>
</event>
<event>
 5    1  0.1607476E-006  0.2000353E+02  0.7818608E-02  0.1745258E+00
          2   -1    0    0  501    0  0.00000000000E+00  0.00000000000E+00  0.12368630284E+01  0.12368657612E+01  0.26000000000E-02 0.  1.
         -2   -1    0    0    0  501 -0.00000000000E+00 -0.00000000000E+00 -0.80878126372E+02  0.80878126414E+02  0.26000000000E-02 0. -1.
       1023    2    1    2    0    0  0.00000000000E+00  0.00000000000E+00 -0.79641263344E+02  0.82114992175E+02  0.20003527512E+02 0.  0.
        -13    1    3    3    0    0 -0.99966920044E+01  0.27903144216E+00 -0.40277677341E+02  0.41500773174E+02  0.10570000000E+00 0.  1.
         13    1    3    3    0    0  0.99966920044E+01 -0.27903144216E+00 -0.39363586003E+02  0.40614219001E+02  0.10570000000E+00 0. -1.
<mgrwt>
<rscale>  0 0.20003528E+02</rscale>
<asrwt>0</asrwt>
<pdfrwt beam="1">  1        2 0.19028690E-03 0.20003528E+02</pdfrwt>
<pdfrwt beam="2">  1       -2 0.12442785E-01 0.20003528E+02</pdfrwt>
<totfact> 0.31175544E+06</totfact>
</mgrwt>
</event>
<event>
 4    1  0.1607476E-006  0.2021725E+02  0.7818608E-02  0.1741042E+00
          2   -1    0    0  501    0  0.00000000000E+00  0.00000000000E+00  0.31776618274E+01  0.31776628911E+01  0.26000000000E-02 0. -1.
         -2   -1    0    0    0  501 -0.00000000000E+00 -0.00000000000E+00 -0.32157065803E+02  0.32157065908E+02  0.26000000000E-02 0.  1.
        -13    1    1    2    0    0  0.98441829448E+01 -0.19870622929E+01 -0.12484143474E+02  0.16022526804E+02  0.10570000000E+00 0.  1.
         13    1    1    2    0    0 -0.98441829448E+01  0.19870622929E+01 -0.16495260501E+02  0.19312201995E+02  0.10570000000E+00 0. -1.
<mgrwt>
<rscale>  0 0.20217250E+02</rscale>
<asrwt>0</asrwt>
<pdfrwt beam="1">  1        2 0.48887116E-03 0.20217250E+02</pdfrwt>
<pdfrwt beam="2">  1       -2 0.49472408E-02 0.20217250E+02</pdfrwt>
<totfact> 0.34969294E+06</totfact>
</mgrwt>
</event>
<event>
 4    1  0.1607476E-006  0.2001590E+02  0.7818608E-02  0.1745012E+00
          2   -1    0    0  501    0  0.00000000000E+00  0.00000000000E+00  0.24136774003E+02  0.24136774143E+02  0.26000000000E-02 0. -1.
         -2   -1    0    0    0  501 -0.00000000000E+00 -0.00000000000E+00 -0.41496436226E+01  0.41496444372E+01  0.26000000000E-02 0.  1.
        -13    1    1    2    0    0  0.88948507200E+01 -0.45766040926E+01  0.95835503463E+01  0.13853493570E+02  0.10570000000E+00 0. -1.
         13    1    1    2    0    0 -0.88948507200E+01  0.45766040926E+01  0.10403580034E+02  0.14432925011E+02  0.10570000000E+00 0.  1.
<mgrwt>
<rscale>  0 0.20015896E+02</rscale>
<asrwt>0</asrwt>
<pdfrwt beam="1">  1        2 0.37133499E-02 0.20015896E+02</pdfrwt>
<pdfrwt beam="2">  1       -2 0.63840678E-03 0.20015896E+02</pdfrwt>
<totfact> 0.42334497E+06</totfact>
</mgrwt>
</event>
<event>
 5    1  0.1607476E-006  0.2000232E+02  0.7818608E-02  0.1745282E+00
          2   -1    0    0  501    0  0.00000000000E+00  0.00000000000E+00  0.78517616818E+01  0.78517621123E+01  0.26000000000E-02 0.  1.
         -2   -1    0    0    0  501 -0.00000000000E+00 -0.00000000000E+00 -0.12738953109E+02  0.12738953375E+02  0.26000000000E-02 0. -1.
       1023    2    1    2    0    0  0.00000000000E+00  0.00000000000E+00 -0.48871914276E+01  0.20590715487E+02  0.20002322971E+02 0.  0.
        -13    1    3    3    0    0  0.81449282486E+01  0.58026192061E+01 -0.24874244185E+01  0.10305760455E+02  0.10570000000E+00 0.  1.
         13    1    3    3    0    0 -0.81449282486E+01 -0.58026192061E+01 -0.23997670091E+01  0.10284955032E+02  0.10570000000E+00 0. -1.
<mgrwt>
<rscale>  0 0.20002323E+02</rscale>
<asrwt>0</asrwt>
<pdfrwt beam="1">  1        2 0.12079634E-02 0.20002323E+02</pdfrwt>
<pdfrwt beam="2">  1       -2 0.19598390E-02 0.20002323E+02</pdfrwt>
<totfact> 0.38759170E+06</totfact>
</mgrwt>
</event>
<event>
 5    1  0.1607476E-006  0.2000256E+02  0.7818608E-02  0.1745277E+00
         -2   -1    0    0    0  501 -0.00000000000E+00  0.00000000000E+00  0.16234725329E+01  0.16234746149E+01  0.26000000000E-02 0. -1.
          2   -1    0    0  501    0  0.00000000000E+00 -0.00000000000E+00 -0.61612076546E+02  0.61612076601E+02  0.26000000000E-02 0.  1.
       1023    2    1    2    0    0  0.00000000000E+00  0.00000000000E+00 -0.59988604013E+02  0.63235551216E+02  0.20002557990E+02 0.  0.
        -13    1    3    3    0    0 -0.45814467456E+01 -0.88888373484E+01 -0.30359236669E+02  0.31963972020E+02  0.10570000000E+00 0.  1.
         13    1    3    3    0    0  0.45814467456E+01  0.88888373484E+01 -0.29629367344E+02  0.31271579195E+02  0.10570000000E+00 0. -1.
<mgrwt>
<rscale>  0 0.20002558E+02</rscale>
<asrwt>0</asrwt>
<pdfrwt beam="2">  1        2 0.94787794E-02 0.20002558E+02</pdfrwt>
<pdfrwt beam="1">  1       -2 0.24976522E-03 0.20002558E+02</pdfrwt>
<totfact> 0.47900322E+06</totfact>
</mgrwt>
</event>
<event>
 5    1  0.1607476E-006  0.2000445E+02  0.7818608E-02  0.1745240E+00
         -2   -1    0    0    0  501 -0.00000000000E+00  0.00000000000E+00  0.66404919809E+02  0.66404919860E+02  0.26000000000E-02 0. -1.
          2   -1    0    0  501    0  0.00000000000E+00 -0.00000000000E+00 -0.15065820134E+01  0.15065842569E+01  0.26000000000E-02 0.  1.
       1023    2    1    2    0    0  0.00000000000E+00  0.00000000000E+00  0.64898337795E+02  0.67911504117E+02  0.20004453074E+02 0.  0.
        -13    1    3    3    0    0 -0.42306030468E+01 -0.90626390415E+01  0.32662115426E+02  0.34159250359E+02  0.10570000000E+00 0.  1.
         13    1    3    3    0    0  0.42306030468E+01  0.90626390415E+01  0.32236222370E+02  0.33752253757E+02  0.10570000000E+00 0. -1.
<mgrwt>
<rscale>  0 0.20004453E+02</rscale>
<asrwt>0</asrwt>
<pdfrwt beam="2">  1        2 0.23178208E-03 0.20004453E+02</pdfrwt>
<pdfrwt beam="1">  1       -2 0.10216139E-01 0.20004453E+02</pdfrwt>
<totfact> 0.32376203E+06</totfact>
</mgrwt>
</event>
<event>
 5    1  0.1607476E-006  0.2000506E+02  0.7818608E-02  0.1745227E+00
         -2   -1    0    0    0  501 -0.00000000000E+00  0.00000000000E+00  0.11780799106E+03  0.11780799109E+03  0.26000000000E-02 0.  1.
          2   -1    0    0  501    0  0.00000000000E+00 -0.00000000000E+00 -0.84926651057E+00  0.84927049047E+00  0.26000000000E-02 0. -1.
       1023    2    1    2    0    0  0.00000000000E+00  0.00000000000E+00  0.11695872455E+03  0.11865726158E+03  0.20005061290E+02 0.  0.
        -13    1    3    3    0    0 -0.47457475578E+01  0.88043355937E+01  0.58291637728E+02  0.59143593454E+02  0.10570000000E+00 0. -1.
         13    1    3    3    0    0  0.47457475578E+01 -0.88043355937E+01  0.58667086820E+02  0.59513668124E+02  0.10570000000E+00 0.  1.
<mgrwt>
<rscale>  0 0.20005061E+02</rscale>
<asrwt>0</asrwt>
<pdfrwt beam="2">  1        2 0.13065673E-03 0.20005061E+02</pdfrwt>
<pdfrwt beam="1">  1       -2 0.18124301E-01 0.20005061E+02</pdfrwt>
<totfact> 0.28471763E+06</totfact>
</mgrwt>
</event>
<event>
 5    1  0.1607476E-006  0.2000381E+02  0.7818608E-02  0.1745252E+00
          2   -1    0    0  501    0  0.00000000000E+00  0.00000000000E+00  0.51273971854E+01  0.51273978446E+01  0.26000000000E-02 0. -1.
         -2   -1    0    0    0  501 -0.00000000000E+00 -0.00000000000E+00 -0.19510504240E+02  0.19510504414E+02  0.26000000000E-02 0.  1.
       1023    2    1    2    0    0  0.00000000000E+00  0.00000000000E+00 -0.14383107055E+02  0.24637902258E+02  0.20003811115E+02 0.  0.
        -13    1    3    3    0    0 -0.57795796002E+01 -0.81610942587E+01 -0.70176212760E+01  0.12217413012E+02  0.10570000000E+00 0.  1.
         13    1    3    3    0    0  0.57795796002E+01  0.81610942587E+01 -0.73654857789E+01  0.12420489246E+02  0.10570000000E+00 0. -1.
<mgrwt>
<rscale>  0 0.20003811E+02</rscale>
<asrwt>0</asrwt>
<pdfrwt beam="1">  1        2 0.78883041E-03 0.20003811E+02</pdfrwt>
<pdfrwt beam="2">  1       -2 0.30016161E-02 0.20003811E+02</pdfrwt>
<totfact> 0.37495466E+06</totfact>
</mgrwt>
</event>
<event>
 5    1  0.1607476E-006  0.2000678E+02  0.7818608E-02  0.1745193E+00
         -2   -1    0    0    0  501 -0.00000000000E+00  0.00000000000E+00  0.12807910218E+02  0.12807910482E+02  0.26000000000E-02 0. -1.
          2   -1    0    0  501    0  0.00000000000E+00 -0.00000000000E+00 -0.78129682102E+01  0.78129686428E+01  0.26000000000E-02 0.  1.
       1023    2    1    2    0    0  0.00000000000E+00  0.00000000000E+00  0.49949420076E+01  0.20620879125E+02  0.20006779106E+02 0.  0.
        -13    1    3    3    0    0  0.71206930004E+01  0.70243342661E+01  0.26060094388E+01  0.10336730546E+02  0.10570000000E+00 0.  1.
         13    1    3    3    0    0 -0.71206930004E+01 -0.70243342661E+01  0.23889325688E+01  0.10284148579E+02  0.10570000000E+00 0. -1.
<mgrwt>
<rscale>  0 0.20006779E+02</rscale>
<asrwt>0</asrwt>
<pdfrwt beam="2">  1        2 0.12019952E-02 0.20006779E+02</pdfrwt>
<pdfrwt beam="1">  1       -2 0.19704477E-02 0.20006779E+02</pdfrwt>
<totfact> 0.38725147E+06</totfact>
</mgrwt>
</event>
<event>
 4    1  0.1607476E-006  0.2013670E+02  0.7818608E-02  0.1742623E+00
         -2   -1    0    0    0  501 -0.00000000000E+00  0.00000000000E+00  0.31343387334E+02  0.31343387442E+02  0.26000000000E-02 0. -1.
          2   -1    0    0  501    0  0.00000000000E+00 -0.00000000000E+00 -0.32342286109E+01  0.32342296560E+01  0.26000000000E-02 0.  1.
        -13    1    1    2    0    0  0.85946165721E+01 -0.51746341163E+01  0.15507830304E+02  0.18470198848E+02  0.10570000000E+00 0.  1.
         13    1    1    2    0    0 -0.85946165721E+01  0.51746341163E+01  0.12601328420E+02  0.16107418250E+02  0.10570000000E+00 0. -1.
<mgrwt>
<rscale>  0 0.20136703E+02</rscale>
<asrwt>0</asrwt>
<pdfrwt beam="2">  1        2 0.49757374E-03 0.20136703E+02</pdfrwt>
<pdfrwt beam="1">  1       -2 0.48220595E-02 0.20136703E+02</pdfrwt>
<totfact> 0.35371374E+06</totfact>
</mgrwt>
</event>
<event>
 5    1  0.1607476E-006  0.2001056E+02  0.7818608E-02  0.1745118E+00
          2   -1    0    0  501    0  0.00000000000E+00  0.00000000000E+00  0.28115110340E+02  0.28115110460E+02  0.26000000000E-02 0. -1.
         -2   -1    0    0    0  501 -0.00000000000E+00 -0.00000000000E+00 -0.35605611228E+01  0.35605620721E+01  0.26000000000E-02 0.  1.
       1023    2    1    2    0    0  0.00000000000E+00  0.00000000000E+00  0.24554549217E+02  0.31675672532E+02  0.20010555792E+02 0.  0.
        -13    1    3    3    0    0 -0.97111410776E+01 -0.24041716693E+01  0.12134713958E+02  0.15727325195E+02  0.10570000000E+00 0.  1.
         13    1    3    3    0    0  0.97111410776E+01  0.24041716693E+01  0.12419835258E+02  0.15948347337E+02  0.10570000000E+00 0. -1.
<mgrwt>
<rscale>  0 0.20010556E+02</rscale>
<asrwt>0</asrwt>
<pdfrwt beam="1">  1        2 0.43254016E-02 0.20010556E+02</pdfrwt>
<pdfrwt beam="2">  1       -2 0.54777873E-03 0.20010556E+02</pdfrwt>
<totfact> 0.43020221E+06</totfact>
</mgrwt>
</event>
<event>
 5    1  0.1607476E-006  0.2000170E+02  0.7818608E-02  0.1745294E+00
         -2   -1    0    0    0  501 -0.00000000000E+00  0.00000000000E+00  0.20942684871E+02  0.20942685032E+02  0.26000000000E-02 0. -1.
          2   -1    0    0  501    0  0.00000000000E+00 -0.00000000000E+00 -0.47757488752E+01  0.47757495830E+01  0.26000000000E-02 0.  1.
       1023    2    1    2    0    0  0.00000000000E+00  0.00000000000E+00  0.16166935996E+02  0.25718434615E+02  0.20001701417E+02 0.  0.
        -13    1    3    3    0    0 -0.98334239165E+01 -0.18187290716E+01  0.81386388726E+01  0.12893898423E+02  0.10570000000E+00 0.  1.
         13    1    3    3    0    0  0.98334239165E+01  0.18187290716E+01  0.80282971232E+01  0.12824536192E+02  0.10570000000E+00 0. -1.
<mgrwt>
<rscale>  0 0.20001701E+02</rscale>
<asrwt>0</asrwt>
<pdfrwt beam="2">  1        2 0.73473068E-03 0.20001701E+02</pdfrwt>
<pdfrwt beam="1">  1       -2 0.32219515E-02 0.20001701E+02</pdfrwt>
<totfact> 0.37282144E+06</totfact>
</mgrwt>
</event>
<event>
 4    1  0.2157578E-006  0.2344288E+02  0.7818608E-02  0.1684430E+00
          2   -1    0    0  501    0  0.00000000000E+00  0.00000000000E+00  0.12293139657E+03  0.12293139660E+03  0.26000000000E-02 0. -1.
         -2   -1    0    0    0  501 -0.00000000000E+00 -0.00000000000E+00 -0.11176307536E+01  0.11176337779E+01  0.26000000000E-02 0.  1.
        -13    1    1    2    0    0 -0.73553683026E+01  0.91029566538E+01  0.64318446178E+02  0.65374604809E+02  0.10570000000E+00 0. -1.
         13    1    1    2    0    0  0.73553683026E+01 -0.91029566538E+01  0.57495319636E+02  0.58674425564E+02  0.10570000000E+00 0.  1.
<mgrwt>
<rscale>  0 0.23442875E+02</rscale>
<asrwt>0</asrwt>
<pdfrwt beam="1">  1        2 0.18912529E-01 0.23442875E+02</pdfrwt>
<pdfrwt beam="2">  1       -2 0.17194337E-03 0.23442875E+02</pdfrwt>
<totfact> 0.38888219E+06</totfact>
</mgrwt>
</event>
<event>
 5    1  0.1607476E-006  0.2000507E+02  0.7818608E-02  0.1745227E+00
          2   -1    0    0  501    0  0.00000000000E+00  0.00000000000E+00  0.55761229877E+01  0.55761235938E+01  0.26000000000E-02 0. -1.
         -2   -1    0    0    0  501 -0.00000000000E+00 -0.00000000000E+00 -0.17942690474E+02  0.17942690662E+02  0.26000000000E-02 0.  1.
       1023    2    1    2    0    0  0.00000000000E+00  0.00000000000E+00 -0.12366567486E+02  0.23518814256E+02  0.20005065174E+02 0.  0.
        -13    1    3    3    0    0  0.34671737965E+00  0.99940399250E+01 -0.64137778432E+01  0.11880604601E+02  0.10570000000E+00 0.  1.
         13    1    3    3    0    0 -0.34671737965E+00 -0.99940399250E+01 -0.59527896431E+01  0.11638209656E+02  0.10570000000E+00 0. -1.
<mgrwt>
<rscale>  0 0.20005065E+02</rscale>
<asrwt>0</asrwt>
<pdfrwt beam="1">  1        2 0.85786514E-03 0.20005065E+02</pdfrwt>
<pdfrwt beam="2">  1       -2 0.27604140E-02 0.20005065E+02</pdfrwt>
<totfact> 0.37746433E+06</totfact>
</mgrwt>
</event>
<event>
 5    1  0.1607476E-006  0.2000268E+02  0.7818608E-02  0.1745275E+00
          2   -1    0    0  501    0  0.00000000000E+00  0.00000000000E+00  0.95018682296E+02  0.95018682331E+02  0.26000000000E-02 0.  1.
         -2   -1    0    0    0  501 -0.00000000000E+00 -0.00000000000E+00 -0.10527050161E+01  0.10527082268E+01  0.26000000000E-02 0. -1.
       1023    2    1    2    0    0  0.00000000000E+00  0.00000000000E+00  0.93965977280E+02  0.96071390558E+02  0.20002679762E+02 0.  0.
        -13    1    3    3    0    0 -0.48903988223E+01  0.87228553628E+01  0.47496263960E+02  0.48537722124E+02  0.10570000000E+00 0.  1.
         13    1    3    3    0    0  0.48903988223E+01 -0.87228553628E+01  0.46469713320E+02  0.47533668434E+02  0.10570000000E+00 0. -1.
<mgrwt>
<rscale>  0 0.20002680E+02</rscale>
<asrwt>0</asrwt>
<pdfrwt beam="1">  1        2 0.14618267E-01 0.20002680E+02</pdfrwt>
<pdfrwt beam="2">  1       -2 0.16195478E-03 0.20002680E+02</pdfrwt>
<totfact> 0.52142160E+06</totfact>
</mgrwt>
</event>
<event>
 4    1  0.1607476E-006  0.2003798E+02  0.7818608E-02  0.1744574E+00
         -2   -1    0    0    0  501 -0.00000000000E+00  0.00000000000E+00  0.12005034050E+01  0.12005062205E+01  0.26000000000E-02 0.  1.
          2   -1    0    0  501    0  0.00000000000E+00 -0.00000000000E+00 -0.83614929784E+02  0.83614929825E+02  0.26000000000E-02 0. -1.
        -13    1    1    2    0    0 -0.46011515999E+01 -0.88964613856E+01 -0.42166236389E+02  0.43339592580E+02  0.10570000000E+00 0. -1.
         13    1    1    2    0    0  0.46011515999E+01  0.88964613856E+01 -0.40248189990E+02  0.41475843465E+02  0.10570000000E+00 0.  1.
<mgrwt>
<rscale>  0 0.20037977E+02</rscale>
<asrwt>0</asrwt>
<pdfrwt beam="2">  1        2 0.12863831E-01 0.20037977E+02</pdfrwt>
<pdfrwt beam="1">  1       -2 0.18469312E-03 0.20037977E+02</pdfrwt>
<totfact> 0.50540514E+06</totfact>
</mgrwt>
</event>
<event>
 5    1  0.1607476E-006  0.2000375E+02  0.7818608E-02  0.1745254E+00
          2   -1    0    0  501    0  0.00000000000E+00  0.00000000000E+00  0.41091830994E+01  0.41091839219E+01  0.26000000000E-02 0. -1.
         -2   -1    0    0    0  501 -0.00000000000E+00 -0.00000000000E+00 -0.24344850259E+02  0.24344850397E+02  0.26000000000E-02 0.  1.
       1023    2    1    2    0    0  0.00000000000E+00  0.00000000000E+00 -0.20235667159E+02  0.28454034319E+02  0.20003745741E+02 0.  0.
        -13    1    3    3    0    0 -0.99654857972E+01 -0.83275047117E+00 -0.10328372776E+02  0.14376746405E+02  0.10570000000E+00 0.  1.
         13    1    3    3    0    0  0.99654857972E+01  0.83275047117E+00 -0.99072943835E+01  0.14077287914E+02  0.10570000000E+00 0. -1.
<mgrwt>
<rscale>  0 0.20003746E+02</rscale>
<asrwt>0</asrwt>
<pdfrwt beam="1">  1        2 0.63218211E-03 0.20003746E+02</pdfrwt>
<pdfrwt beam="2">  1       -2 0.37453615E-02 0.20003746E+02</pdfrwt>
<totfact> 0.36783538E+06</totfact>
</mgrwt>
</event>
<event>
 5    1  0.1613488E-006  0.2000177E+02  0.7818608E-02  0.1745293E+00
          2   -1    0    0  501    0  0.00000000000E+00  0.00000000000E+00  0.66304060557E+02  0.66304060608E+02  0.26000000000E-02 0. -1.
         -2   -1    0    0    0  501 -0.00000000000E+00 -0.00000000000E+00 -0.15084693659E+01  0.15084716066E+01  0.26000000000E-02 0.  1.
       1023    2    1    2    0    0  0.00000000000E+00  0.00000000000E+00  0.64795591192E+02  0.67812532215E+02  0.20001772110E+02 0.  0.
        -13    1    3    3    0    0 -0.85557429458E+01  0.51769107171E+01  0.32647104942E+02  0.34144483823E+02  0.10570000000E+00 0. -1.
         13    1    3    3    0    0  0.85557429458E+01 -0.51769107171E+01  0.32148486249E+02  0.33668048392E+02  0.10570000000E+00 0.  1.
<mgrwt>
<rscale>  0 0.20001772E+02</rscale>
<asrwt>0</asrwt>
<pdfrwt beam="1">  1        2 0.10200624E-01 0.20001772E+02</pdfrwt>
<pdfrwt beam="2">  1       -2 0.23207241E-03 0.20001772E+02</pdfrwt>
<totfact> 0.48526806E+06</totfact>
</mgrwt>
</event>
<event>
 5    1  0.1607476E-006  0.2000410E+02  0.7818608E-02  0.1745247E+00
         -2   -1    0    0    0  501 -0.00000000000E+00  0.00000000000E+00  0.38098816258E+02  0.38098816347E+02  0.26000000000E-02 0. -1.
          2   -1    0    0  501    0  0.00000000000E+00 -0.00000000000E+00 -0.26258284379E+01  0.26258297251E+01  0.26000000000E-02 0.  1.
       1023    2    1    2    0    0  0.00000000000E+00  0.00000000000E+00  0.35472987820E+02  0.40724646072E+02  0.20004097900E+02 0.  0.
        -13    1    3    3    0    0  0.53647719142E+01  0.84408539067E+01  0.17801459749E+02  0.20418911187E+02  0.10570000000E+00 0.  1.
         13    1    3    3    0    0 -0.53647719142E+01 -0.84408539067E+01  0.17671528071E+02  0.20305734885E+02  0.10570000000E+00 0. -1.
<mgrwt>
<rscale>  0 0.20004098E+02</rscale>
<asrwt>0</asrwt>
<pdfrwt beam="2">  1        2 0.40397374E-03 0.20004098E+02</pdfrwt>
<pdfrwt beam="1">  1       -2 0.58613560E-02 0.20004098E+02</pdfrwt>
<totfact> 0.35110938E+06</totfact>
</mgrwt>
</event>
<event>
 4    1  0.1607476E-006  0.2001497E+02  0.7818608E-02  0.1745031E+00
         -2   -1    0    0    0  501 -0.00000000000E+00  0.00000000000E+00  0.48302542125E+01  0.48302549123E+01  0.26000000000E-02 0.  1.
          2   -1    0    0  501    0  0.00000000000E+00 -0.00000000000E+00 -0.20733839477E+02  0.20733839640E+02  0.26000000000E-02 0. -1.
        -13    1    1    2    0    0  0.91216251004E+01  0.41098191014E+01 -0.76841899488E+01  0.12615569951E+02  0.10570000000E+00 0. -1.
         13    1    1    2    0    0 -0.91216251004E+01 -0.41098191014E+01 -0.82193953159E+01  0.12948524602E+02  0.10570000000E+00 0.  1.
<mgrwt>
<rscale>  0 0.20014967E+02</rscale>
<asrwt>0</asrwt>
<pdfrwt beam="2">  1        2 0.31898215E-02 0.20014967E+02</pdfrwt>
<pdfrwt beam="1">  1       -2 0.74311611E-03 0.20014967E+02</pdfrwt>
<totfact> 0.41741731E+06</totfact>
</mgrwt>
</event>
<event>
 5    1  0.1636198E-006  0.2000192E+02  0.7818608E-02  0.1745290E+00
         -2   -1    0    0    0  501 -0.00000000000E+00  0.00000000000E+00  0.17768751629E+01  0.17768770651E+01  0.26000000000E-02 0.  1.
          2   -1    0    0  501    0  0.00000000000E+00 -0.00000000000E+00 -0.56289344079E+02  0.56289344139E+02  0.26000000000E-02 0. -1.
       1023    2    1    2    0    0  0.00000000000E+00  0.00000000000E+00 -0.54512468916E+02  0.58066221204E+02  0.20001919348E+02 0.  0.
        -13    1    3    3    0    0 -0.69369845201E+01 -0.72030830916E+01 -0.27130977630E+02  0.28915519707E+02  0.10570000000E+00 0. -1.
         13    1    3    3    0    0  0.69369845201E+01  0.72030830916E+01 -0.27381491286E+02  0.29150701497E+02  0.10570000000E+00 0.  1.
<mgrwt>
<rscale>  0 0.20001919E+02</rscale>
<asrwt>0</asrwt>
<pdfrwt beam="2">  1        2 0.86598979E-02 0.20001919E+02</pdfrwt>
<pdfrwt beam="1">  1       -2 0.27336560E-03 0.20001919E+02</pdfrwt>
<totfact> 0.47185435E+06</totfact>
</mgrwt>
</event>
<event>
 4    1  0.1607476E-006  0.2016714E+02  0.7818608E-02  0.1742025E+00
         -2   -1    0    0    0  501 -0.00000000000E+00  0.00000000000E+00  0.10474433980E+03  0.10474433983E+03  0.26000000000E-02 0. -1.
          2   -1    0    0  501    0  0.00000000000E+00 -0.00000000000E+00 -0.97072693808E+00  0.97073042000E+00  0.26000000000E-02 0.  1.
        -13    1    1    2    0    0  0.10032760502E+02  0.12232709381E+00  0.57118045252E+02  0.57992702240E+02  0.10570000000E+00 0. -1.
         13    1    1    2    0    0 -0.10032760502E+02 -0.12232709381E+00  0.46655567611E+02  0.47722368014E+02  0.10570000000E+00 0.  1.
<mgrwt>
<rscale>  0 0.20167135E+02</rscale>
<asrwt>0</asrwt>
<pdfrwt beam="2">  1        2 0.14934283E-03 0.20167135E+02</pdfrwt>
<pdfrwt beam="1">  1       -2 0.16114519E-01 0.20167135E+02</pdfrwt>
<totfact> 0.28860864E+06</totfact>
</mgrwt>
</event>
<event>
 5    1  0.1607476E-006  0.2000331E+02  0.7818608E-02  0.1745262E+00
         -2   -1    0    0    0  501 -0.00000000000E+00  0.00000000000E+00  0.12476684289E+01  0.12476711379E+01  0.26000000000E-02 0.  1.
          2   -1    0    0  501    0  0.00000000000E+00 -0.00000000000E+00 -0.80175948971E+02  0.80175949013E+02  0.26000000000E-02 0. -1.
       1023    2    1    2    0    0  0.00000000000E+00  0.00000000000E+00 -0.78928280542E+02  0.81423620151E+02  0.20003310955E+02 0.  0.
        -13    1    3    3    0    0 -0.49251817439E+01 -0.87042022790E+01 -0.39312529422E+02  0.40564845551E+02  0.10570000000E+00 0.  1.
         13    1    3    3    0    0  0.49251817439E+01  0.87042022790E+01 -0.39615751120E+02  0.40858774600E+02  0.10570000000E+00 0. -1.
<mgrwt>
<rscale>  0 0.20003311E+02</rscale>
<asrwt>0</asrwt>
<pdfrwt beam="2">  1        2 0.12334758E-01 0.20003311E+02</pdfrwt>
<pdfrwt beam="1">  1       -2 0.19194926E-03 0.20003311E+02</pdfrwt>
<totfact> 0.50303336E+06</totfact>
</mgrwt>
</event>
<event>
 5    1  0.1607476E-006  0.2001037E+02  0.7818608E-02  0.1745122E+00
         -2   -1    0    0    0  501 -0.00000000000E+00  0.00000000000E+00  0.25735989074E+02  0.25735989206E+02  0.26000000000E-02 0.  1.
          2   -1    0    0  501    0  0.00000000000E+00 -0.00000000000E+00 -0.38896411331E+01  0.38896420021E+01  0.26000000000E-02 0. -1.
       1023    2    1    2    0    0  0.00000000000E+00  0.00000000000E+00  0.21846347941E+02  0.29625631208E+02  0.20010374961E+02 0.  0.
        -13    1    3    3    0    0 -0.33304419583E+01  0.94329258995E+01  0.11136025126E+02  0.14969774974E+02  0.10570000000E+00 0. -1.
         13    1    3    3    0    0  0.33304419583E+01 -0.94329258995E+01  0.10710322815E+02  0.14655856234E+02  0.10570000000E+00 0.  1.
<mgrwt>
<rscale>  0 0.20010375E+02</rscale>
<asrwt>0</asrwt>
<pdfrwt beam="2">  1        2 0.59840642E-03 0.20010375E+02</pdfrwt>
<pdfrwt beam="1">  1       -2 0.39593829E-02 0.20010375E+02</pdfrwt>
<totfact> 0.36568624E+06</totfact>
</mgrwt>
</event>
<event>
 5    1  0.1607476E-006  0.2000579E+02  0.7818608E-02  0.1745213E+00
         -2   -1    0    0    0  501 -0.00000000000E+00  0.00000000000E+00  0.11169895870E+01  0.11169926130E+01  0.26000000000E-02 0. -1.
          2   -1    0    0  501    0  0.00000000000E+00 -0.00000000000E+00 -0.89578084925E+02  0.89578084962E+02  0.26000000000E-02 0.  1.
       1023    2    1    2    0    0  0.00000000000E+00  0.00000000000E+00 -0.88461095337E+02  0.90695077575E+02  0.20005791863E+02 0.  0.
        -13    1    3    3    0    0  0.97930485881E+01  0.20292502849E+01 -0.44948739138E+02  0.46048039914E+02  0.10570000000E+00 0. -1.
         13    1    3    3    0    0 -0.97930485881E+01 -0.20292502849E+01 -0.43512356200E+02  0.44647037661E+02  0.10570000000E+00 0.  1.
<mgrwt>
<rscale>  0 0.20005792E+02</rscale>
<asrwt>0</asrwt>
<pdfrwt beam="2">  1        2 0.13781238E-01 0.20005792E+02</pdfrwt>
<pdfrwt beam="1">  1       -2 0.17184486E-03 0.20005792E+02</pdfrwt>
<totfact> 0.51459881E+06</totfact>
</mgrwt>
</event>
<event>
 5    1  0.1607476E-006  0.2000267E+02  0.7818608E-02  0.1745275E+00
          2   -1    0    0  501    0  0.00000000000E+00  0.00000000000E+00  0.11322365522E+01  0.11322395374E+01  0.26000000000E-02 0.  1.
         -2   -1    0    0    0  501 -0.00000000000E+00 -0.00000000000E+00 -0.88344228204E+02  0.88344228242E+02  0.26000000000E-02 0. -1.
       1023    2    1    2    0    0  0.00000000000E+00  0.00000000000E+00 -0.87211991652E+02  0.89476467780E+02  0.20002669783E+02 0.  0.
        -13    1    3    3    0    0  0.90441463962E+01  0.42678167291E+01 -0.43912124560E+02  0.45036615099E+02  0.10570000000E+00 0.  1.
         13    1    3    3    0    0 -0.90441463962E+01 -0.42678167291E+01 -0.43299867092E+02  0.44439852681E+02  0.10570000000E+00 0. -1.
<mgrwt>
<rscale>  0 0.20002670E+02</rscale>
<asrwt>0</asrwt>
<pdfrwt beam="1">  1        2 0.17419054E-03 0.20002670E+02</pdfrwt>
<pdfrwt beam="2">  1       -2 0.13591415E-01 0.20002670E+02</pdfrwt>
<totfact> 0.30593291E+06</totfact>
</mgrwt>
</event>
<event>
 5    1  0.1607476E-006  0.2001173E+02  0.7818608E-02  0.1745095E+00
          2   -1    0    0  501    0  0.00000000000E+00  0.00000000000E+00  0.93845127168E+01  0.93845130770E+01  0.26000000000E-02 0. -1.
         -2   -1    0    0    0  501 -0.00000000000E+00 -0.00000000000E+00 -0.10668357975E+02  0.10668358292E+02  0.26000000000E-02 0.  1.
       1023    2    1    2    0    0  0.00000000000E+00  0.00000000000E+00 -0.12838452580E+01  0.20052871369E+02  0.20011731346E+02 0.  0.
        -13    1    3    3    0    0  0.94876686071E+01  0.31710684888E+01 -0.82843539491E+00  0.10038376794E+02  0.10570000000E+00 0.  1.
         13    1    3    3    0    0 -0.94876686071E+01 -0.31710684888E+01 -0.45540986309E+00  0.10014494575E+02  0.10570000000E+00 0. -1.
<mgrwt>
<rscale>  0 0.20011731E+02</rscale>
<asrwt>0</asrwt>
<pdfrwt beam="1">  1        2 0.14437712E-02 0.20011731E+02</pdfrwt>
<pdfrwt beam="2">  1       -2 0.16412859E-02 0.20011731E+02</pdfrwt>
<totfact> 0.39227464E+06</totfact>
</mgrwt>
</event>
<event>
 5    1  0.1607476E-006  0.2000366E+02  0.7818608E-02  0.1745255E+00
          2   -1    0    0  501    0  0.00000000000E+00  0.00000000000E+00  0.38525298100E+02  0.38525298187E+02  0.26000000000E-02 0. -1.
         -2   -1    0    0    0  501 -0.00000000000E+00 -0.00000000000E+00 -0.25966476012E+01  0.25966489029E+01  0.26000000000E-02 0.  1.
       1023    2    1    2    0    0  0.00000000000E+00  0.00000000000E+00  0.35928650498E+02  0.41121947090E+02  0.20003664811E+02 0.  0.
        -13    1    3    3    0    0 -0.31468137044E+00 -0.99963031496E+01  0.18004290465E+02  0.20595891548E+02  0.10570000000E+00 0. -1.
         13    1    3    3    0    0  0.31468137044E+00  0.99963031496E+01  0.17924360034E+02  0.20526055542E+02  0.10570000000E+00 0.  1.
<mgrwt>
<rscale>  0 0.20003665E+02</rscale>
<asrwt>0</asrwt>
<pdfrwt beam="1">  1        2 0.59269687E-02 0.20003665E+02</pdfrwt>
<pdfrwt beam="2">  1       -2 0.39948438E-03 0.20003665E+02</pdfrwt>
<totfact> 0.44660190E+06</totfact>
</mgrwt>
</event>
<event>
 5    1  0.1607476E-006  0.2000498E+02  0.7818608E-02  0.1745229E+00
         -2   -1    0    0    0  501 -0.00000000000E+00  0.00000000000E+00  0.36176393579E+02  0.36176393672E+02  0.26000000000E-02 0.  1.
          2   -1    0    0  501    0  0.00000000000E+00 -0.00000000000E+00 -0.27656095445E+01  0.27656107667E+01  0.26000000000E-02 0. -1.
       1023    2    1    2    0    0  0.00000000000E+00  0.00000000000E+00  0.33410784034E+02  0.38942004439E+02  0.20004979878E+02 0.  0.
        -13    1    3    3    0    0  0.58266324231E+01 -0.81295120763E+01  0.16696578253E+02  0.19463440340E+02  0.10570000000E+00 0.  1.
         13    1    3    3    0    0 -0.58266324231E+01  0.81295120763E+01  0.16714205781E+02  0.19478564099E+02  0.10570000000E+00 0. -1.
<mgrwt>
<rscale>  0 0.20004980E+02</rscale>
<asrwt>0</asrwt>
<pdfrwt beam="2">  1        2 0.42547850E-03 0.20004980E+02</pdfrwt>
<pdfrwt beam="1">  1       -2 0.55655990E-02 0.20004980E+02</pdfrwt>
<totfact> 0.35320658E+06</totfact>
</mgrwt>
</event>
<event>
 5    1  0.1607476E-006  0.2000116E+02  0.7818608E-02  0.1745305E+00
          2   -1    0    0  501    0  0.00000000000E+00  0.00000000000E+00  0.12671381838E+01  0.12671408512E+01  0.26000000000E-02 0. -1.
         -2   -1    0    0    0  501 -0.00000000000E+00 -0.00000000000E+00 -0.78927037403E+02  0.78927037445E+02  0.26000000000E-02 0.  1.
       1023    2    1    2    0    0  0.00000000000E+00  0.00000000000E+00 -0.77659899219E+02  0.80194178297E+02  0.20001157116E+02 0.  0.
        -13    1    3    3    0    0  0.62175959338E+01  0.78320870531E+01 -0.38759104889E+02  0.40028483247E+02  0.10570000000E+00 0.  1.
         13    1    3    3    0    0 -0.62175959338E+01 -0.78320870531E+01 -0.38900794330E+02  0.40165695049E+02  0.10570000000E+00 0. -1.
<mgrwt>
<rscale>  0 0.20001157E+02</rscale>
<asrwt>0</asrwt>
<pdfrwt beam="1">  1        2 0.19494461E-03 0.20001157E+02</pdfrwt>
<pdfrwt beam="2">  1       -2 0.12142617E-01 0.20001157E+02</pdfrwt>
<totfact> 0.31340213E+06</totfact>
</mgrwt>
</event>
<event>
 4    1  0.1607476E-006  0.2009041E+02  0.7818608E-02  0.1743536E+00
         -2   -1    0    0    0  501 -0.00000000000E+00  0.00000000000E+00  0.23834943797E+01  0.23834957978E+01  0.26000000000E-02 0. -1.
          2   -1    0    0  501    0  0.00000000000E+00 -0.00000000000E+00 -0.42335364200E+02  0.42335364280E+02  0.26000000000E-02 0.  1.
        -13    1    1    2    0    0 -0.70504207223E+01 -0.71037340931E+01 -0.18082636066E+02  0.20667955148E+02  0.10570000000E+00 0. -1.
         13    1    1    2    0    0  0.70504207223E+01  0.71037340931E+01 -0.21869233754E+02  0.24050904929E+02  0.10570000000E+00 0.  1.
<mgrwt>
<rscale>  0 0.20090409E+02</rscale>
<asrwt>0</asrwt>
<pdfrwt beam="2">  1        2 0.65131325E-02 0.20090409E+02</pdfrwt>
<pdfrwt beam="1">  1       -2 0.36669159E-03 0.20090409E+02</pdfrwt>
<totfact> 0.44784160E+06</totfact>
</mgrwt>
</event>
<event>
 4    1  0.1607476E-006  0.2004271E+02  0.7818608E-02  0.1744480E+00
          2   -1    0    0  501    0  0.00000000000E+00  0.00000000000E+00  0.99960342700E+00  0.99960680834E+00  0.26000000000E-02 0. -1.
         -2   -1    0    0    0  501 -0.00000000000E+00 -0.00000000000E+00 -0.10046722701E+03  0.10046722704E+03  0.26000000000E-02 0.  1.
        -13    1    1    2    0    0  0.90046925734E+01  0.43915671628E+01 -0.48647610549E+02  0.49668617205E+02  0.10570000000E+00 0.  1.
         13    1    1    2    0    0 -0.90046925734E+01 -0.43915671628E+01 -0.50820013032E+02  0.51798216644E+02  0.10570000000E+00 0. -1.
<mgrwt>
<rscale>  0 0.20042710E+02</rscale>
<asrwt>0</asrwt>
<pdfrwt beam="1">  1        2 0.15378548E-03 0.20042710E+02</pdfrwt>
<pdfrwt beam="2">  1       -2 0.15456489E-01 0.20042710E+02</pdfrwt>
<totfact> 0.29558946E+06</totfact>
</mgrwt>
</event>
<event>
 5    1  0.1607476E-006  0.2000332E+02  0.7818608E-02  0.1745262E+00
         -2   -1    0    0    0  501 -0.00000000000E+00  0.00000000000E+00  0.10246559051E+01  0.10246592037E+01  0.26000000000E-02 0.  1.
          2   -1    0    0  501    0  0.00000000000E+00 -0.00000000000E+00 -0.97625951076E+02  0.97625951111E+02  0.26000000000E-02 0. -1.
       1023    2    1    2    0    0  0.00000000000E+00  0.00000000000E+00 -0.96601295171E+02  0.98650610315E+02  0.20003316892E+02 0.  0.
        -13    1    3    3    0    0  0.12440250211E+01  0.99234256963E+01 -0.48276800611E+02  0.49301953567E+02  0.10570000000E+00 0.  1.
         13    1    3    3    0    0 -0.12440250211E+01 -0.99234256963E+01 -0.48324494561E+02  0.49348656748E+02  0.10570000000E+00 0. -1.
<mgrwt>
<rscale>  0 0.20003317E+02</rscale>
<asrwt>0</asrwt>
<pdfrwt beam="2">  1        2 0.15019370E-01 0.20003317E+02</pdfrwt>
<pdfrwt beam="1">  1       -2 0.15763970E-03 0.20003317E+02</pdfrwt>
<totfact> 0.52453581E+06</totfact>
</mgrwt>
</event>
<event>
 4    1  0.1607476E-006  0.2004773E+02  0.7818608E-02  0.1744380E+00
          2   -1    0    0  501    0  0.00000000000E+00  0.00000000000E+00  0.80170981043E+02  0.80170981085E+02  0.26000000000E-02 0. -1.
         -2   -1    0    0    0  501 -0.00000000000E+00 -0.00000000000E+00 -0.12532938221E+01  0.12532965190E+01  0.26000000000E-02 0.  1.
        -13    1    1    2    0    0  0.10014049677E+02 -0.26637475112E+00  0.40833701781E+02  0.42044672910E+02  0.10570000000E+00 0. -1.
         13    1    1    2    0    0 -0.10014049677E+02  0.26637475112E+00  0.38083985440E+02  0.39379604695E+02  0.10570000000E+00 0.  1.
<mgrwt>
<rscale>  0 0.20047734E+02</rscale>
<asrwt>0</asrwt>
<pdfrwt beam="1">  1        2 0.12333998E-01 0.20047734E+02</pdfrwt>
<pdfrwt beam="2">  1       -2 0.19281463E-03 0.20047734E+02</pdfrwt>
<totfact> 0.50056312E+06</totfact>
</mgrwt>
</event>
<event>
 5    1  0.1607476E-006  0.2000478E+02  0.7818608E-02  0.1745233E+00
         -2   -1    0    0    0  501 -0.00000000000E+00  0.00000000000E+00  0.45366753039E+01  0.45366760489E+01  0.26000000000E-02 0. -1.
          2   -1    0    0  501    0  0.00000000000E+00 -0.00000000000E+00 -0.22053109555E+02  0.22053109708E+02  0.26000000000E-02 0.  1.
       1023    2    1    2    0    0  0.00000000000E+00  0.00000000000E+00 -0.17516434251E+02  0.26589785757E+02  0.20004780372E+02 0.  0.
        -13    1    3    3    0    0 -0.27206075888E+01  0.96228546446E+01 -0.90090039526E+01  0.13460102595E+02  0.10570000000E+00 0.  1.
         13    1    3    3    0    0  0.27206075888E+01 -0.96228546446E+01 -0.85074302986E+01  0.13129683162E+02  0.10570000000E+00 0. -1.
<mgrwt>
<rscale>  0 0.20004780E+02</rscale>
<asrwt>0</asrwt>
<pdfrwt beam="2">  1        2 0.33927861E-02 0.20004780E+02</pdfrwt>
<pdfrwt beam="1">  1       -2 0.69795013E-03 0.20004780E+02</pdfrwt>
<totfact> 0.42025704E+06</totfact>
</mgrwt>
</event>
<event>
 5    1  0.1607476E-006  0.2000300E+02  0.7818608E-02  0.1745268E+00
         -2   -1    0    0    0  501 -0.00000000000E+00  0.00000000000E+00  0.94553079473E+02  0.94553079508E+02  0.26000000000E-02 0. -1.
          2   -1    0    0  501    0  0.00000000000E+00 -0.00000000000E+00 -0.10579227547E+01  0.10579259497E+01  0.26000000000E-02 0.  1.
       1023    2    1    2    0    0  0.00000000000E+00  0.00000000000E+00  0.93495156718E+02  0.95611005458E+02  0.20003000650E+02 0.  0.
        -13    1    3    3    0    0  0.49153870186E+01 -0.87095613122E+01  0.46572055828E+02  0.47633864470E+02  0.10570000000E+00 0. -1.
         13    1    3    3    0    0 -0.49153870186E+01  0.87095613122E+01  0.46923100890E+02  0.47977140988E+02  0.10570000000E+00 0.  1.
<mgrwt>
<rscale>  0 0.20003001E+02</rscale>
<asrwt>0</asrwt>
<pdfrwt beam="2">  1        2 0.16275750E-03 0.20003001E+02</pdfrwt>
<pdfrwt beam="1">  1       -2 0.14546636E-01 0.20003001E+02</pdfrwt>
<totfact> 0.30121890E+06</totfact>
</mgrwt>
</event>
<event>
 5    1  0.1607476E-006  0.2000152E+02  0.7818608E-02  0.1745298E+00
          2   -1    0    0  501    0  0.00000000000E+00  0.00000000000E+00  0.69845858351E+01  0.69845863190E+01  0.26000000000E-02 0.  1.
         -2   -1    0    0    0  501 -0.00000000000E+00 -0.00000000000E+00 -0.14319422002E+02  0.14319422238E+02  0.26000000000E-02 0. -1.
       1023    2    1    2    0    0  0.00000000000E+00  0.00000000000E+00 -0.73348361671E+01  0.21304008557E+02  0.20001523917E+02 0.  0.
        -13    1    3    3    0    0  0.56899351584E+01  0.82236378660E+01 -0.36439515257E+01  0.10643924890E+02  0.10570000000E+00 0.  1.
         13    1    3    3    0    0 -0.56899351584E+01 -0.82236378660E+01 -0.36908846414E+01  0.10660083667E+02  0.10570000000E+00 0. -1.
<mgrwt>
<rscale>  0 0.20001524E+02</rscale>
<asrwt>0</asrwt>
<pdfrwt beam="1">  1        2 0.10745517E-02 0.20001524E+02</pdfrwt>
<pdfrwt beam="2">  1       -2 0.22029881E-02 0.20001524E+02</pdfrwt>
<totfact> 0.38426067E+06</totfact>
</mgrwt>
</event>
<event>
 5    1  0.1607476E-006  0.2000139E+02  0.7818608E-02  0.1745300E+00
          2   -1    0    0  501    0  0.00000000000E+00  0.00000000000E+00  0.93037205040E+01  0.93037208673E+01  0.26000000000E-02 0.  1.
         -2   -1    0    0    0  501 -0.00000000000E+00 -0.00000000000E+00 -0.10749882742E+02  0.10749883057E+02  0.26000000000E-02 0. -1.
       1023    2    1    2    0    0  0.00000000000E+00  0.00000000000E+00 -0.14461622383E+01  0.20053603924E+02  0.20001391080E+02 0.  0.
        -13    1    3    3    0    0  0.92066087071E+01 -0.39038915178E+01 -0.69606783673E+00  0.10024853904E+02  0.10570000000E+00 0.  1.
         13    1    3    3    0    0 -0.92066087071E+01  0.39038915178E+01 -0.75009440155E+00  0.10028750020E+02  0.10570000000E+00 0. -1.
<mgrwt>
<rscale>  0 0.20001391E+02</rscale>
<asrwt>0</asrwt>
<pdfrwt beam="1">  1        2 0.14313417E-02 0.20001391E+02</pdfrwt>
<pdfrwt beam="2">  1       -2 0.16538282E-02 0.20001391E+02</pdfrwt>
<totfact> 0.39249055E+06</totfact>
</mgrwt>
</event>
<event>
 5    1  0.1607476E-006  0.2000153E+02  0.7818608E-02  0.1745298E+00
         -2   -1    0    0    0  501 -0.00000000000E+00  0.00000000000E+00  0.17539655066E+02  0.17539655259E+02  0.26000000000E-02 0. -1.
          2   -1    0    0  501    0  0.00000000000E+00 -0.00000000000E+00 -0.57022394904E+01  0.57022400831E+01  0.26000000000E-02 0.  1.
       1023    2    1    2    0    0  0.00000000000E+00  0.00000000000E+00  0.11837415576E+02  0.23241895342E+02  0.20001532231E+02 0.  0.
        -13    1    3    3    0    0  0.21838363460E+01  0.97587672142E+01  0.58741304244E+01  0.11598243809E+02  0.10570000000E+00 0.  1.
         13    1    3    3    0    0 -0.21838363460E+01 -0.97587672142E+01  0.59632851514E+01  0.11643651533E+02  0.10570000000E+00 0. -1.
<mgrwt>
<rscale>  0 0.20001532E+02</rscale>
<asrwt>0</asrwt>
<pdfrwt beam="2">  1        2 0.87726768E-03 0.20001532E+02</pdfrwt>
<pdfrwt beam="1">  1       -2 0.26984085E-02 0.20001532E+02</pdfrwt>
<totfact> 0.37829319E+06</totfact>
</mgrwt>
</event>
<event>
 4    1  0.1607476E-006  0.2001554E+02  0.7818608E-02  0.1745019E+00
          2   -1    0    0  501    0  0.00000000000E+00  0.00000000000E+00  0.70743129097E+02  0.70743129144E+02  0.26000000000E-02 0.  1.
         -2   -1    0    0    0  501 -0.00000000000E+00 -0.00000000000E+00 -0.14157612471E+01  0.14157636345E+01  0.26000000000E-02 0. -1.
        -13    1    1    2    0    0  0.41946086161E+01  0.90856324941E+01  0.34767970800E+02  0.36179641034E+02  0.10570000000E+00 0.  1.
         13    1    1    2    0    0 -0.41946086161E+01 -0.90856324941E+01  0.34559397049E+02  0.35979251745E+02  0.10570000000E+00 0. -1.
<mgrwt>
<rscale>  0 0.20015541E+02</rscale>
<asrwt>0</asrwt>
<pdfrwt beam="1">  1        2 0.10883561E-01 0.20015541E+02</pdfrwt>
<pdfrwt beam="2">  1       -2 0.21780956E-03 0.20015541E+02</pdfrwt>
<totfact> 0.49031825E+06</totfact>
</mgrwt>
</event>
<event>
 4    1  0.1607476E-006  0.2001981E+02  0.7818608E-02  0.1744935E+00
         -2   -1    0    0    0  501 -0.00000000000E+00  0.00000000000E+00  0.46945298311E+02  0.46945298383E+02  0.26000000000E-02 0.  1.
          2   -1    0    0  501    0  0.00000000000E+00 -0.00000000000E+00 -0.21343588702E+01  0.21343604539E+01  0.26000000000E-02 0. -1.
        -13    1    1    2    0    0 -0.97028213213E+01 -0.24526656542E+01  0.22005095392E+02  0.24174277778E+02  0.10570000000E+00 0. -1.
         13    1    1    2    0    0  0.97028213213E+01  0.24526656542E+01  0.22805844049E+02  0.24905381059E+02  0.10570000000E+00 0.  1.
<mgrwt>
<rscale>  0 0.20019806E+02</rscale>
<asrwt>0</asrwt>
<pdfrwt beam="2">  1        2 0.32836303E-03 0.20019806E+02</pdfrwt>
<pdfrwt beam="1">  1       -2 0.72223537E-02 0.20019806E+02</pdfrwt>
<totfact> 0.34126780E+06</totfact>
</mgrwt>
</event>
<event>
 5    1  0.1607476E-006  0.2000156E+02  0.7818608E-02  0.1745297E+00
         -2   -1    0    0    0  501 -0.00000000000E+00  0.00000000000E+00  0.14725954030E+02  0.14725954260E+02  0.26000000000E-02 0. -1.
          2   -1    0    0  501    0  0.00000000000E+00 -0.00000000000E+00 -0.67917890817E+01  0.67917895794E+01  0.26000000000E-02 0.  1.
       1023    2    1    2    0    0  0.00000000000E+00  0.00000000000E+00  0.79341649483E+01  0.21517743839E+02  0.20001558102E+02 0.  0.
        -13    1    3    3    0    0 -0.65745709355E+01  0.75351547221E+01  0.39988042961E+01  0.10770568600E+02  0.10570000000E+00 0.  1.
         13    1    3    3    0    0  0.65745709355E+01 -0.75351547221E+01  0.39353606522E+01  0.10747175239E+02  0.10570000000E+00 0. -1.
<mgrwt>
<rscale>  0 0.20001558E+02</rscale>
<asrwt>0</asrwt>
<pdfrwt beam="2">  1        2 0.10448907E-02 0.20001558E+02</pdfrwt>
<pdfrwt beam="1">  1       -2 0.22655314E-02 0.20001558E+02</pdfrwt>
<totfact> 0.38344798E+06</totfact>
</mgrwt>
</event>
<event>
 5    1  0.1607476E-006  0.2000398E+02  0.7818608E-02  0.1745249E+00
          2   -1    0    0  501    0  0.00000000000E+00  0.00000000000E+00  0.33183688115E+01  0.33183698301E+01  0.26000000000E-02 0.  1.
         -2   -1    0    0    0  501 -0.00000000000E+00 -0.00000000000E+00 -0.30147264977E+02  0.30147265089E+02  0.26000000000E-02 0. -1.
       1023    2    1    2    0    0  0.00000000000E+00  0.00000000000E+00 -0.26828896165E+02  0.33465634919E+02  0.20003975882E+02 0.  0.
        -13    1    3    3    0    0 -0.98044174100E+01  0.19717913954E+01 -0.13612593538E+02  0.16891667691E+02  0.10570000000E+00 0.  1.
         13    1    3    3    0    0  0.98044174100E+01 -0.19717913954E+01 -0.13216302627E+02  0.16573967228E+02  0.10570000000E+00 0. -1.
<mgrwt>
<rscale>  0 0.20003976E+02</rscale>
<asrwt>0</asrwt>
<pdfrwt beam="1">  1        2 0.51051838E-03 0.20003976E+02</pdfrwt>
<pdfrwt beam="2">  1       -2 0.46380407E-02 0.20003976E+02</pdfrwt>
<totfact> 0.36030631E+06</totfact>
</mgrwt>
</event>
<event>
 5    1  0.1607476E-006  0.2000223E+02  0.7818608E-02  0.1745284E+00
          2   -1    0    0  501    0  0.00000000000E+00  0.00000000000E+00  0.76595829740E+01  0.76595834153E+01  0.26000000000E-02 0.  1.
         -2   -1    0    0    0  501 -0.00000000000E+00 -0.00000000000E+00 -0.13058457400E+02  0.13058457659E+02  0.26000000000E-02 0. -1.
       1023    2    1    2    0    0  0.00000000000E+00  0.00000000000E+00 -0.53988744259E+01  0.20718041074E+02  0.20002234397E+02 0.  0.
        -13    1    3    3    0    0 -0.99729606128E+01 -0.74081903639E+00 -0.27503543123E+01  0.10372288926E+02  0.10570000000E+00 0.  1.
         13    1    3    3    0    0  0.99729606128E+01  0.74081903639E+00 -0.26485201137E+01  0.10345752148E+02  0.10570000000E+00 0. -1.
<mgrwt>
<rscale>  0 0.20002234E+02</rscale>
<asrwt>0</asrwt>
<pdfrwt beam="1">  1        2 0.11783974E-02 0.20002234E+02</pdfrwt>
<pdfrwt beam="2">  1       -2 0.20089935E-02 0.20002234E+02</pdfrwt>
<totfact> 0.38688576E+06</totfact>
</mgrwt>
</event>
<event>
 4    1  0.1607476E-006  0.2001253E+02  0.7818608E-02  0.1745079E+00
          2   -1    0    0  501    0  0.00000000000E+00  0.00000000000E+00  0.71539118408E+02  0.71539118455E+02  0.26000000000E-02 0. -1.
         -2   -1    0    0    0  501 -0.00000000000E+00 -0.00000000000E+00 -0.13995878533E+01  0.13995902683E+01  0.26000000000E-02 0.  1.
        -13    1    1    2    0    0  0.92660370812E+01 -0.37692698426E+01  0.34276602268E+02  0.35706630671E+02  0.10570000000E+00 0.  1.
         13    1    1    2    0    0 -0.92660370812E+01  0.37692698426E+01  0.35862928287E+02  0.37232078053E+02  0.10570000000E+00 0. -1.
<mgrwt>
<rscale>  0 0.20012533E+02</rscale>
<asrwt>0</asrwt>
<pdfrwt beam="1">  1        2 0.11006017E-01 0.20012533E+02</pdfrwt>
<pdfrwt beam="2">  1       -2 0.21532142E-03 0.20012533E+02</pdfrwt>
<totfact> 0.49151157E+06</totfact>
</mgrwt>
</event>
<event>
 5    1  0.1607476E-006  0.2000847E+02  0.7818608E-02  0.1745160E+00
          2   -1    0    0  501    0  0.00000000000E+00  0.00000000000E+00  0.34480573851E+02  0.34480573949E+02  0.26000000000E-02 0.  1.
         -2   -1    0    0    0  501 -0.00000000000E+00 -0.00000000000E+00 -0.29026391304E+01  0.29026402949E+01  0.26000000000E-02 0. -1.
       1023    2    1    2    0    0  0.00000000000E+00  0.00000000000E+00  0.31577934720E+02  0.37383214244E+02  0.20008466858E+02 0.  0.
        -13    1    3    3    0    0  0.85243640730E+01  0.52292065849E+01  0.15315824528E+02  0.18291939149E+02  0.10570000000E+00 0.  1.
         13    1    3    3    0    0 -0.85243640730E+01 -0.52292065849E+01  0.16262110192E+02  0.19091275095E+02  0.10570000000E+00 0. -1.
<mgrwt>
<rscale>  0 0.20008467E+02</rscale>
<asrwt>0</asrwt>
<pdfrwt beam="1">  1        2 0.53047037E-02 0.20008467E+02</pdfrwt>
<pdfrwt beam="2">  1       -2 0.44655997E-03 0.20008467E+02</pdfrwt>
<totfact> 0.44028233E+06</totfact>
</mgrwt>
</event>
<event>
 4    1  0.1607476E-006  0.2011234E+02  0.7818608E-02  0.1743103E+00
          2   -1    0    0  501    0  0.00000000000E+00  0.00000000000E+00  0.70579127262E+02  0.70579127310E+02  0.26000000000E-02 0. -1.
         -2   -1    0    0    0  501 -0.00000000000E+00 -0.00000000000E+00 -0.14328103273E+01  0.14328126863E+01  0.26000000000E-02 0.  1.
        -13    1    1    2    0    0  0.20504772762E+01  0.98414013113E+01  0.33712502132E+02  0.35179562381E+02  0.10570000000E+00 0. -1.
         13    1    1    2    0    0 -0.20504772762E+01 -0.98414013113E+01  0.35433814802E+02  0.36832377615E+02  0.10570000000E+00 0.  1.
<mgrwt>
<rscale>  0 0.20112343E+02</rscale>
<asrwt>0</asrwt>
<pdfrwt beam="1">  1        2 0.10858329E-01 0.20112343E+02</pdfrwt>
<pdfrwt beam="2">  1       -2 0.22043252E-03 0.20112343E+02</pdfrwt>
<totfact> 0.48488810E+06</totfact>
</mgrwt>
</event>
<event>
 5    1  0.1607476E-006  0.2000546E+02  0.7818608E-02  0.1745220E+00
          2   -1    0    0  501    0  0.00000000000E+00  0.00000000000E+00  0.13068250809E+01  0.13068276673E+01  0.26000000000E-02 0.  1.
         -2   -1    0    0    0  501 -0.00000000000E+00 -0.00000000000E+00 -0.76563035008E+02  0.76563035053E+02  0.26000000000E-02 0. -1.
       1023    2    1    2    0    0  0.00000000000E+00  0.00000000000E+00 -0.75256209928E+02  0.77869862720E+02  0.20005458939E+02 0.  0.
        -13    1    3    3    0    0  0.26183591477E+01 -0.96530747164E+01 -0.37332478975E+02  0.38649227871E+02  0.10570000000E+00 0.  1.
         13    1    3    3    0    0 -0.26183591477E+01  0.96530747164E+01 -0.37923730953E+02  0.39220634849E+02  0.10570000000E+00 0. -1.
<mgrwt>
<rscale>  0 0.20005459E+02</rscale>
<asrwt>0</asrwt>
<pdfrwt beam="1">  1        2 0.20105027E-03 0.20005459E+02</pdfrwt>
<pdfrwt beam="2">  1       -2 0.11778925E-01 0.20005459E+02</pdfrwt>
<totfact> 0.31517441E+06</totfact>
</mgrwt>
</event>
<event>
 5    1  0.1607476E-006  0.2001038E+02  0.7818608E-02  0.1745122E+00
          2   -1    0    0  501    0  0.00000000000E+00  0.00000000000E+00  0.65384211479E+01  0.65384216649E+01  0.26000000000E-02 0.  1.
         -2   -1    0    0    0  501 -0.00000000000E+00 -0.00000000000E+00 -0.15310086996E+02  0.15310087217E+02  0.26000000000E-02 0. -1.
       1023    2    1    2    0    0  0.00000000000E+00  0.00000000000E+00 -0.87716658485E+01  0.21848508882E+02  0.20010377773E+02 0.  0.
        -13    1    3    3    0    0 -0.70639411954E+01  0.70791450202E+01 -0.40788035754E+01  0.10800989331E+02  0.10570000000E+00 0. -1.
         13    1    3    3    0    0  0.70639411954E+01 -0.70791450202E+01 -0.46928622731E+01  0.11047519551E+02  0.10570000000E+00 0.  1.
<mgrwt>
<rscale>  0 0.20010378E+02</rscale>
<asrwt>0</asrwt>
<pdfrwt beam="1">  1        2 0.10059110E-02 0.20010378E+02</pdfrwt>
<pdfrwt beam="2">  1       -2 0.23553980E-02 0.20010378E+02</pdfrwt>
<totfact> 0.38195153E+06</totfact>
</mgrwt>
</event>
<event>
 5    1  0.1607476E-006  0.2000209E+02  0.7818608E-02  0.1745286E+00
          2   -1    0    0  501    0  0.00000000000E+00  0.00000000000E+00  0.21873018822E+02  0.21873018977E+02  0.26000000000E-02 0.  1.
         -2   -1    0    0    0  501 -0.00000000000E+00 -0.00000000000E+00 -0.45727990689E+01  0.45727998081E+01  0.26000000000E-02 0. -1.
       1023    2    1    2    0    0  0.00000000000E+00  0.00000000000E+00  0.17300219753E+02  0.26445818785E+02  0.20002093083E+02 0.  0.
        -13    1    3    3    0    0  0.20410337144E+00 -0.99983739599E+01  0.86172043525E+01  0.13201383389E+02  0.10570000000E+00 0.  1.
         13    1    3    3    0    0 -0.20410337144E+00  0.99983739599E+01  0.86830154007E+01  0.13244435396E+02  0.10570000000E+00 0. -1.
<mgrwt>
<rscale>  0 0.20002093E+02</rscale>
<asrwt>0</asrwt>
<pdfrwt beam="1">  1        2 0.33650799E-02 0.20002093E+02</pdfrwt>
<pdfrwt beam="2">  1       -2 0.70350762E-03 0.20002093E+02</pdfrwt>
<totfact> 0.42006531E+06</totfact>
</mgrwt>
</event>
<event>
 5    1  0.1607476E-006  0.2000201E+02  0.7818608E-02  0.1745288E+00
         -2   -1    0    0    0  501 -0.00000000000E+00  0.00000000000E+00  0.26699706379E+02  0.26699706506E+02  0.26000000000E-02 0. -1.
          2   -1    0    0  501    0  0.00000000000E+00 -0.00000000000E+00 -0.37461134069E+01  0.37461143092E+01  0.26000000000E-02 0.  1.
       1023    2    1    2    0    0  0.00000000000E+00  0.00000000000E+00  0.22953592972E+02  0.30445820815E+02  0.20002014268E+02 0.  0.
        -13    1    3    3    0    0  0.96414530665E+01  0.26542244870E+01  0.11599007560E+02  0.15315047297E+02  0.10570000000E+00 0.  1.
         13    1    3    3    0    0 -0.96414530665E+01 -0.26542244870E+01  0.11354585412E+02  0.15130773517E+02  0.10570000000E+00 0. -1.
<mgrwt>
<rscale>  0 0.20002014E+02</rscale>
<asrwt>0</asrwt>
<pdfrwt beam="2">  1        2 0.57632523E-03 0.20002014E+02</pdfrwt>
<pdfrwt beam="1">  1       -2 0.41076471E-02 0.20002014E+02</pdfrwt>
<totfact> 0.36474660E+06</totfact>
</mgrwt>
</event>
<event>
 4    1  0.1607476E-006  0.2003842E+02  0.7818608E-02  0.1744565E+00
         -2   -1    0    0    0  501 -0.00000000000E+00  0.00000000000E+00  0.72561734333E+02  0.72561734379E+02  0.26000000000E-02 0. -1.
          2   -1    0    0  501    0  0.00000000000E+00 -0.00000000000E+00 -0.13834351007E+01  0.13834375439E+01  0.26000000000E-02 0.  1.
        -13    1    1    2    0    0  0.96041933164E+01 -0.28458838096E+01  0.34910861702E+02  0.36319678154E+02  0.10570000000E+00 0. -1.
         13    1    1    2    0    0 -0.96041933164E+01  0.28458838096E+01  0.36267437530E+02  0.37625493769E+02  0.10570000000E+00 0.  1.
<mgrwt>
<rscale>  0 0.20038417E+02</rscale>
<asrwt>0</asrwt>
<pdfrwt beam="2">  1        2 0.21283639E-03 0.20038417E+02</pdfrwt>
<pdfrwt beam="1">  1       -2 0.11163342E-01 0.20038417E+02</pdfrwt>
<totfact> 0.31733981E+06</totfact>
</mgrwt>
</event>
<event>
 5    1  0.1607476E-006  0.2000290E+02  0.7818608E-02  0.1745270E+00
          2   -1    0    0  501    0  0.00000000000E+00  0.00000000000E+00  0.26010012172E+02  0.26010012302E+02  0.26000000000E-02 0.  1.
         -2   -1    0    0    0  501 -0.00000000000E+00 -0.00000000000E+00 -0.38457881859E+01  0.38457890648E+01  0.26000000000E-02 0. -1.
       1023    2    1    2    0    0  0.00000000000E+00  0.00000000000E+00  0.22164223986E+02  0.29855801367E+02  0.20002901048E+02 0.  0.
        -13    1    3    3    0    0  0.27258398558E+01  0.96221691909E+01  0.11024358094E+02  0.14885025587E+02  0.10570000000E+00 0. -1.
         13    1    3    3    0    0 -0.27258398558E+01 -0.96221691909E+01  0.11139865892E+02  0.14970775779E+02  0.10570000000E+00 0.  1.
<mgrwt>
<rscale>  0 0.20002901E+02</rscale>
<asrwt>0</asrwt>
<pdfrwt beam="1">  1        2 0.40015405E-02 0.20002901E+02</pdfrwt>
<pdfrwt beam="2">  1       -2 0.59165979E-03 0.20002901E+02</pdfrwt>
<totfact> 0.42711862E+06</totfact>
</mgrwt>
</event>
<event>
 5    1  0.1607476E-006  0.2000326E+02  0.7818608E-02  0.1745263E+00
          2   -1    0    0  501    0  0.00000000000E+00  0.00000000000E+00  0.26727540556E+02  0.26727540682E+02  0.26000000000E-02 0. -1.
         -2   -1    0    0    0  501 -0.00000000000E+00 -0.00000000000E+00 -0.37426791027E+01  0.37426800058E+01  0.26000000000E-02 0.  1.
       1023    2    1    2    0    0  0.00000000000E+00  0.00000000000E+00  0.22984861453E+02  0.30470220688E+02  0.20003262053E+02 0.  0.
        -13    1    3    3    0    0 -0.36863039079E+01 -0.92963689782E+01  0.11339056883E+02  0.15119414545E+02  0.10570000000E+00 0. -1.
         13    1    3    3    0    0  0.36863039079E+01  0.92963689782E+01  0.11645804570E+02  0.15350806143E+02  0.10570000000E+00 0.  1.
<mgrwt>
<rscale>  0 0.20003262E+02</rscale>
<asrwt>0</asrwt>
<pdfrwt beam="1">  1        2 0.41119293E-02 0.20003262E+02</pdfrwt>
<pdfrwt beam="2">  1       -2 0.57579687E-03 0.20003262E+02</pdfrwt>
<totfact> 0.42828872E+06</totfact>
</mgrwt>
</event>
<event>
 5    1  0.1607476E-006  0.2000122E+02  0.7818608E-02  0.1745304E+00
          2   -1    0    0  501    0  0.00000000000E+00  0.00000000000E+00  0.13426306789E+01  0.13426331964E+01  0.26000000000E-02 0. -1.
         -2   -1    0    0    0  501 -0.00000000000E+00 -0.00000000000E+00 -0.74489630870E+02  0.74489630915E+02  0.26000000000E-02 0.  1.
       1023    2    1    2    0    0  0.00000000000E+00  0.00000000000E+00 -0.73147000191E+02  0.75832264111E+02  0.20001216047E+02 0.  0.
        -13    1    3    3    0    0  0.45772036265E+01  0.88909978911E+01 -0.36502386371E+02  0.37847536509E+02  0.10570000000E+00 0. -1.
         13    1    3    3    0    0 -0.45772036265E+01 -0.88909978911E+01 -0.36644613819E+02  0.37984727602E+02  0.10570000000E+00 0.  1.
<mgrwt>
<rscale>  0 0.20001216E+02</rscale>
<asrwt>0</asrwt>
<pdfrwt beam="1">  1        2 0.20655882E-03 0.20001216E+02</pdfrwt>
<pdfrwt beam="2">  1       -2 0.11459940E-01 0.20001216E+02</pdfrwt>
<totfact> 0.31702596E+06</totfact>
</mgrwt>
</event>
<event>
 5    1  0.1607476E-006  0.2000364E+02  0.7818608E-02  0.1745256E+00
          2   -1    0    0  501    0  0.00000000000E+00  0.00000000000E+00  0.30495118354E+02  0.30495118464E+02  0.26000000000E-02 0. -1.
         -2   -1    0    0    0  501 -0.00000000000E+00 -0.00000000000E+00 -0.32804062499E+01  0.32804072803E+01  0.26000000000E-02 0.  1.
       1023    2    1    2    0    0  0.00000000000E+00  0.00000000000E+00  0.27214712104E+02  0.33775525745E+02  0.20003639280E+02 0.  0.
        -13    1    3    3    0    0 -0.80197258831E+01  0.59757126544E+01  0.13592381506E+02  0.16875697096E+02  0.10570000000E+00 0.  1.
         13    1    3    3    0    0  0.80197258831E+01 -0.59757126544E+01  0.13622330598E+02  0.16899828649E+02  0.10570000000E+00 0. -1.
<mgrwt>
<rscale>  0 0.20003639E+02</rscale>
<asrwt>0</asrwt>
<pdfrwt beam="1">  1        2 0.46915570E-02 0.20003639E+02</pdfrwt>
<pdfrwt beam="2">  1       -2 0.50467795E-03 0.20003639E+02</pdfrwt>
<totfact> 0.43433893E+06</totfact>
</mgrwt>
</event>
<event>
 5    1  0.1607476E-006  0.2000169E+02  0.7818608E-02  0.1745295E+00
          2   -1    0    0  501    0  0.00000000000E+00  0.00000000000E+00  0.11158683684E+02  0.11158683987E+02  0.26000000000E-02 0.  1.
         -2   -1    0    0    0  501 -0.00000000000E+00 -0.00000000000E+00 -0.89631412596E+01  0.89631416367E+01  0.26000000000E-02 0. -1.
       1023    2    1    2    0    0  0.00000000000E+00  0.00000000000E+00  0.21955424244E+01  0.20121825624E+02  0.20001686426E+02 0.  0.
        -13    1    3    3    0    0  0.99945554129E+01 -0.33326612172E+00  0.11571875585E+01  0.10067395877E+02  0.10570000000E+00 0. -1.
         13    1    3    3    0    0 -0.99945554129E+01  0.33326612172E+00  0.10383548659E+01  0.10054429747E+02  0.10570000000E+00 0.  1.
<mgrwt>
<rscale>  0 0.20001686E+02</rscale>
<asrwt>0</asrwt>
<pdfrwt beam="1">  1        2 0.17167206E-02 0.20001686E+02</pdfrwt>
<pdfrwt beam="2">  1       -2 0.13789449E-02 0.20001686E+02</pdfrwt>
<totfact> 0.39775316E+06</totfact>
</mgrwt>
</event>
<event>
 5    1  0.1607476E-006  0.2000744E+02  0.7818608E-02  0.1745180E+00
         -2   -1    0    0    0  501 -0.00000000000E+00  0.00000000000E+00  0.35646037108E+01  0.35646046591E+01  0.26000000000E-02 0.  1.
          2   -1    0    0  501    0  0.00000000000E+00 -0.00000000000E+00 -0.28074470688E+02  0.28074470808E+02  0.26000000000E-02 0. -1.
       1023    2    1    2    0    0  0.00000000000E+00  0.00000000000E+00 -0.24509866977E+02  0.31639075467E+02  0.20007436547E+02 0.  0.
        -13    1    3    3    0    0  0.92983631157E+01 -0.36880748738E+01 -0.12188706465E+02  0.15768233594E+02  0.10570000000E+00 0. -1.
         13    1    3    3    0    0 -0.92983631157E+01  0.36880748738E+01 -0.12321160512E+02  0.15870841873E+02  0.10570000000E+00 0.  1.
<mgrwt>
<rscale>  0 0.20007437E+02</rscale>
<asrwt>0</asrwt>
<pdfrwt beam="2">  1        2 0.43191493E-02 0.20007437E+02</pdfrwt>
<pdfrwt beam="1">  1       -2 0.54840067E-03 0.20007437E+02</pdfrwt>
<totfact> 0.43028694E+06</totfact>
</mgrwt>
</event>
<event>
 5    1  0.1607476E-006  0.2000393E+02  0.7818608E-02  0.1745250E+00
         -2   -1    0    0    0  501 -0.00000000000E+00  0.00000000000E+00  0.97110123703E+02  0.97110123738E+02  0.26000000000E-02 0. -1.
          2   -1    0    0  501    0  0.00000000000E+00 -0.00000000000E+00 -0.10301621197E+01  0.10301654008E+01  0.26000000000E-02 0.  1.
       1023    2    1    2    0    0  0.00000000000E+00  0.00000000000E+00  0.96079961583E+02  0.98140289139E+02  0.20003932972E+02 0.  0.
        -13    1    3    3    0    0  0.47549012308E+00 -0.99898067103E+01  0.48414648037E+02  0.49436946163E+02  0.10570000000E+00 0. -1.
         13    1    3    3    0    0 -0.47549012308E+00  0.99898067103E+01  0.47665313547E+02  0.48703342975E+02  0.10570000000E+00 0.  1.
<mgrwt>
<rscale>  0 0.20003933E+02</rscale>
<asrwt>0</asrwt>
<pdfrwt beam="2">  1        2 0.15848664E-03 0.20003933E+02</pdfrwt>
<pdfrwt beam="1">  1       -2 0.14940028E-01 0.20003933E+02</pdfrwt>
<totfact> 0.29929337E+06</totfact>
</mgrwt>
</event>
<event>
 4    1  0.1607476E-006  0.2023371E+02  0.7818608E-02  0.1740720E+00
          2   -1    0    0  501    0  0.00000000000E+00  0.00000000000E+00  0.29326807306E+01  0.29326818832E+01  0.26000000000E-02 0. -1.
         -2   -1    0    0    0  501 -0.00000000000E+00 -0.00000000000E+00 -0.34900062032E+02  0.34900062129E+02  0.26000000000E-02 0.  1.
        -13    1    1    2    0    0  0.85115256685E+01  0.52969392869E+01 -0.18517205095E+02  0.21057105500E+02  0.10570000000E+00 0.  1.
         13    1    1    2    0    0 -0.85115256685E+01 -0.52969392869E+01 -0.13450176206E+02  0.16775638512E+02  0.10570000000E+00 0. -1.
<mgrwt>
<rscale>  0 0.20233711E+02</rscale>
<asrwt>0</asrwt>
<pdfrwt beam="1">  1        2 0.45118177E-03 0.20233711E+02</pdfrwt>
<pdfrwt beam="2">  1       -2 0.53692401E-02 0.20233711E+02</pdfrwt>
<totfact> 0.34595363E+06</totfact>
</mgrwt>
</event>
<event>
 5    1  0.1607476E-006  0.2000161E+02  0.7818608E-02  0.1745296E+00
          2   -1    0    0  501    0  0.00000000000E+00  0.00000000000E+00  0.47454021758E+02  0.47454021829E+02  0.26000000000E-02 0.  1.
         -2   -1    0    0    0  501 -0.00000000000E+00 -0.00000000000E+00 -0.21076411323E+01  0.21076427360E+01  0.26000000000E-02 0. -1.
       1023    2    1    2    0    0  0.00000000000E+00  0.00000000000E+00  0.45346380626E+02  0.49561664565E+02  0.20001608901E+02 0.  0.
        -13    1    3    3    0    0  0.24354875196E+01  0.96991398988E+01  0.22668947856E+02  0.24776950652E+02  0.10570000000E+00 0. -1.
         13    1    3    3    0    0 -0.24354875196E+01 -0.96991398988E+01  0.22677432770E+02  0.24784713913E+02  0.10570000000E+00 0.  1.
<mgrwt>
<rscale>  0 0.20001609E+02</rscale>
<asrwt>0</asrwt>
<pdfrwt beam="1">  1        2 0.73006183E-02 0.20001609E+02</pdfrwt>
<pdfrwt beam="2">  1       -2 0.32425264E-03 0.20001609E+02</pdfrwt>
<totfact> 0.45962052E+06</totfact>
</mgrwt>
</event>
<event>
 5    1  0.1607476E-006  0.2000127E+02  0.7818608E-02  0.1745303E+00
         -2   -1    0    0    0  501 -0.00000000000E+00  0.00000000000E+00  0.65931806030E+02  0.65931806081E+02  0.26000000000E-02 0.  1.
          2   -1    0    0  501    0  0.00000000000E+00 -0.00000000000E+00 -0.15169107727E+01  0.15169130009E+01  0.26000000000E-02 0. -1.
       1023    2    1    2    0    0  0.00000000000E+00  0.00000000000E+00  0.64414895257E+02  0.67448719082E+02  0.20001274330E+02 0.  0.
        -13    1    3    3    0    0  0.88730218886E+01  0.46119576414E+01  0.32106253278E+02  0.33627716883E+02  0.10570000000E+00 0.  1.
         13    1    3    3    0    0 -0.88730218886E+01 -0.46119576414E+01  0.32308641979E+02  0.33821002199E+02  0.10570000000E+00 0. -1.
<mgrwt>
<rscale>  0 0.20001274E+02</rscale>
<asrwt>0</asrwt>
<pdfrwt beam="2">  1        2 0.23337101E-03 0.20001274E+02</pdfrwt>
<pdfrwt beam="1">  1       -2 0.10143357E-01 0.20001274E+02</pdfrwt>
<totfact> 0.32428584E+06</totfact>
</mgrwt>
</event>
<event>
 5    1  0.1607476E-006  0.2000166E+02  0.7818608E-02  0.1745295E+00
         -2   -1    0    0    0  501 -0.00000000000E+00  0.00000000000E+00  0.21793076463E+01  0.21793091973E+01  0.26000000000E-02 0. -1.
          2   -1    0    0  501    0  0.00000000000E+00 -0.00000000000E+00 -0.45893726679E+02  0.45893726753E+02  0.26000000000E-02 0.  1.
       1023    2    1    2    0    0  0.00000000000E+00  0.00000000000E+00 -0.43714419033E+02  0.48073035950E+02  0.20001658783E+02 0.  0.
        -13    1    3    3    0    0 -0.11104940861E+01  0.99384211566E+01 -0.21852506001E+02  0.24032240912E+02  0.10570000000E+00 0. -1.
         13    1    3    3    0    0  0.11104940861E+01 -0.99384211566E+01 -0.21861913032E+02  0.24040795039E+02  0.10570000000E+00 0.  1.
<mgrwt>
<rscale>  0 0.20001659E+02</rscale>
<asrwt>0</asrwt>
<pdfrwt beam="2">  1        2 0.70605727E-02 0.20001659E+02</pdfrwt>
<pdfrwt beam="1">  1       -2 0.33527826E-03 0.20001659E+02</pdfrwt>
<totfact> 0.45740435E+06</totfact>
</mgrwt>
</event>
<event>
 5    1  0.1607476E-006  0.2000821E+02  0.7818608E-02  0.1745165E+00
          2   -1    0    0  501    0  0.00000000000E+00  0.00000000000E+00  0.53733158701E+01  0.53733164991E+01  0.26000000000E-02 0.  1.
         -2   -1    0    0    0  501 -0.00000000000E+00 -0.00000000000E+00 -0.18625769176E+02  0.18625769357E+02  0.26000000000E-02 0. -1.
       1023    2    1    2    0    0  0.00000000000E+00  0.00000000000E+00 -0.13252453306E+02  0.23999085856E+02  0.20008213397E+02 0.  0.
        -13    1    3    3    0    0  0.21691140657E+01 -0.97655428129E+01 -0.66379838505E+01  0.12006035330E+02  0.10570000000E+00 0.  1.
         13    1    3    3    0    0 -0.21691140657E+01  0.97655428129E+01 -0.66144694551E+01  0.11993050526E+02  0.10570000000E+00 0. -1.
<mgrwt>
<rscale>  0 0.20008213E+02</rscale>
<asrwt>0</asrwt>
<pdfrwt beam="1">  1        2 0.82666406E-03 0.20008213E+02</pdfrwt>
<pdfrwt beam="2">  1       -2 0.28655030E-02 0.20008213E+02</pdfrwt>
<totfact> 0.37620183E+06</totfact>
</mgrwt>
</event>
<event>
 5    1  0.1607476E-006  0.2000472E+02  0.7818608E-02  0.1745234E+00
          2   -1    0    0  501    0  0.00000000000E+00  0.00000000000E+00  0.59329294609E+02  0.59329294666E+02  0.26000000000E-02 0. -1.
         -2   -1    0    0    0  501 -0.00000000000E+00 -0.00000000000E+00 -0.16863033050E+01  0.16863053093E+01  0.26000000000E-02 0.  1.
       1023    2    1    2    0    0  0.00000000000E+00  0.00000000000E+00  0.57642991304E+02  0.61015599975E+02  0.20004724289E+02 0.  0.
        -13    1    3    3    0    0  0.87006270004E+01 -0.49322777221E+01  0.29090908448E+02  0.30762321118E+02  0.10570000000E+00 0. -1.
         13    1    3    3    0    0 -0.87006270004E+01  0.49322777221E+01  0.28552082856E+02  0.30253278858E+02  0.10570000000E+00 0.  1.
<mgrwt>
<rscale>  0 0.20004724E+02</rscale>
<asrwt>0</asrwt>
<pdfrwt beam="1">  1        2 0.91275853E-02 0.20004724E+02</pdfrwt>
<pdfrwt beam="2">  1       -2 0.25943140E-03 0.20004724E+02</pdfrwt>
<totfact> 0.47582431E+06</totfact>
</mgrwt>
</event>
<event>
 5    1  0.1607476E-006  0.2000161E+02  0.7818608E-02  0.1745296E+00
          2   -1    0    0  501    0  0.00000000000E+00  0.00000000000E+00  0.12805177278E+02  0.12805177542E+02  0.26000000000E-02 0.  1.
         -2   -1    0    0    0  501 -0.00000000000E+00 -0.00000000000E+00 -0.78105951988E+01  0.78105956316E+01  0.26000000000E-02 0. -1.
       1023    2    1    2    0    0  0.00000000000E+00  0.00000000000E+00  0.49945820797E+01  0.20615773174E+02  0.20001606271E+02 0.  0.
        -13    1    3    3    0    0 -0.30067316415E+01 -0.95375264793E+01  0.25041555882E+01  0.10309549661E+02  0.10570000000E+00 0.  1.
         13    1    3    3    0    0  0.30067316415E+01  0.95375264793E+01  0.24904264914E+01  0.10306223513E+02  0.10570000000E+00 0. -1.
<mgrwt>
<rscale>  0 0.20001606E+02</rscale>
<asrwt>0</asrwt>
<pdfrwt beam="1">  1        2 0.19700273E-02 0.20001606E+02</pdfrwt>
<pdfrwt beam="2">  1       -2 0.12016301E-02 0.20001606E+02</pdfrwt>
<totfact> 0.40187593E+06</totfact>
</mgrwt>
</event>
<event>
 4    1  0.1607476E-006  0.2017974E+02  0.7818608E-02  0.1741777E+00
         -2   -1    0    0    0  501 -0.00000000000E+00  0.00000000000E+00  0.15586986911E+01  0.15587008596E+01  0.26000000000E-02 0. -1.
          2   -1    0    0  501    0  0.00000000000E+00 -0.00000000000E+00 -0.65314382536E+02  0.65314382588E+02  0.26000000000E-02 0.  1.
        -13    1    1    2    0    0  0.20998718834E+01 -0.98548684607E+01 -0.33588422631E+02  0.35067380878E+02  0.10570000000E+00 0.  1.
         13    1    1    2    0    0 -0.20998718834E+01  0.98548684607E+01 -0.30167261214E+02  0.31805702570E+02  0.10570000000E+00 0. -1.
<mgrwt>
<rscale>  0 0.20179744E+02</rscale>
<asrwt>0</asrwt>
<pdfrwt beam="2">  1        2 0.10048365E-01 0.20179744E+02</pdfrwt>
<pdfrwt beam="1">  1       -2 0.23980002E-03 0.20179744E+02</pdfrwt>
<totfact> 0.47453408E+06</totfact>
</mgrwt>
</event>
<event>
 4    1  0.1607476E-006  0.2007558E+02  0.7818608E-02  0.1743829E+00
         -2   -1    0    0    0  501 -0.00000000000E+00  0.00000000000E+00  0.76662664180E+02  0.76662664224E+02  0.26000000000E-02 0. -1.
          2   -1    0    0  501    0  0.00000000000E+00 -0.00000000000E+00 -0.13142917267E+01  0.13142942984E+01  0.26000000000E-02 0.  1.
        -13    1    1    2    0    0  0.10027405269E+02 -0.42634375008E+00  0.37192026969E+02  0.38522573486E+02  0.10570000000E+00 0.  1.
         13    1    1    2    0    0 -0.10027405269E+02  0.42634375008E+00  0.38156345485E+02  0.39454385037E+02  0.10570000000E+00 0. -1.
<mgrwt>
<rscale>  0 0.20075578E+02</rscale>
<asrwt>0</asrwt>
<pdfrwt beam="2">  1        2 0.20219893E-03 0.20075578E+02</pdfrwt>
<pdfrwt beam="1">  1       -2 0.11794256E-01 0.20075578E+02</pdfrwt>
<totfact> 0.31269435E+06</totfact>
</mgrwt>
</event>
<event>
 4    1  0.1607476E-006  0.2004324E+02  0.7818608E-02  0.1744470E+00
         -2   -1    0    0    0  501 -0.00000000000E+00  0.00000000000E+00  0.23171417881E+02  0.23171418027E+02  0.26000000000E-02 0. -1.
          2   -1    0    0  501    0  0.00000000000E+00 -0.00000000000E+00 -0.43343426806E+01  0.43343434605E+01  0.26000000000E-02 0.  1.
        -13    1    1    2    0    0  0.91044708412E+01  0.41723785223E+01  0.89400442547E+01  0.13425188848E+02  0.10570000000E+00 0.  1.
         13    1    1    2    0    0 -0.91044708412E+01 -0.41723785223E+01  0.98970309457E+01  0.14080572640E+02  0.10570000000E+00 0. -1.
<mgrwt>
<rscale>  0 0.20043241E+02</rscale>
<asrwt>0</asrwt>
<pdfrwt beam="2">  1        2 0.66682204E-03 0.20043241E+02</pdfrwt>
<pdfrwt beam="1">  1       -2 0.35648335E-02 0.20043241E+02</pdfrwt>
<totfact> 0.36789436E+06</totfact>
</mgrwt>
</event>
<event>
 5    1  0.1607476E-006  0.2000160E+02  0.7818608E-02  0.1745296E+00
         -2   -1    0    0    0  501 -0.00000000000E+00  0.00000000000E+00  0.45647543915E+02  0.45647543989E+02  0.26000000000E-02 0.  1.
          2   -1    0    0  501    0  0.00000000000E+00 -0.00000000000E+00 -0.21910487642E+01  0.21910503068E+01  0.26000000000E-02 0. -1.
       1023    2    1    2    0    0  0.00000000000E+00  0.00000000000E+00  0.43456495151E+02  0.47838594296E+02  0.20001603271E+02 0.  0.
        -13    1    3    3    0    0 -0.62633314264E+01  0.77958588542E+01  0.21701503808E+02  0.23895003157E+02  0.10570000000E+00 0.  1.
         13    1    3    3    0    0  0.62633314264E+01 -0.77958588542E+01  0.21754991342E+02  0.23943591139E+02  0.10570000000E+00 0. -1.
<mgrwt>
<rscale>  0 0.20001603E+02</rscale>
<asrwt>0</asrwt>
<pdfrwt beam="2">  1        2 0.33708455E-03 0.20001603E+02</pdfrwt>
<pdfrwt beam="1">  1       -2 0.70226992E-02 0.20001603E+02</pdfrwt>
<totfact> 0.34325459E+06</totfact>
</mgrwt>
</event>
<event>
 4    1  0.1607476E-006  0.2003332E+02  0.7818608E-02  0.1744666E+00
          2   -1    0    0  501    0  0.00000000000E+00  0.00000000000E+00  0.18077788611E+02  0.18077788798E+02  0.26000000000E-02 0. -1.
         -2   -1    0    0    0  501 -0.00000000000E+00 -0.00000000000E+00 -0.55500935813E+01  0.55500941903E+01  0.26000000000E-02 0.  1.
        -13    1    1    2    0    0 -0.17205323786E+01  0.98534401574E+01  0.56490254377E+01  0.11487957847E+02  0.10570000000E+00 0.  1.
         13    1    1    2    0    0  0.17205323786E+01 -0.98534401574E+01  0.68786695922E+01  0.12139925142E+02  0.10570000000E+00 0. -1.
<mgrwt>
<rscale>  0 0.20033315E+02</rscale>
<asrwt>0</asrwt>
<pdfrwt beam="1">  1        2 0.27811983E-02 0.20033315E+02</pdfrwt>
<pdfrwt beam="2">  1       -2 0.85386061E-03 0.20033315E+02</pdfrwt>
<totfact> 0.41160199E+06</totfact>
</mgrwt>
</event>
<event>
 5    1  0.2656619E-006  0.2000353E+02  0.7818608E-02  0.1745258E+00
         -2   -1    0    0    0  501 -0.00000000000E+00  0.00000000000E+00  0.86099687550E+00  0.86100080118E+00  0.26000000000E-02 0. -1.
          2   -1    0    0  501    0  0.00000000000E+00 -0.00000000000E+00 -0.11618512397E+03  0.11618512400E+03  0.26000000000E-02 0.  1.
       1023    2    1    2    0    0  0.00000000000E+00  0.00000000000E+00 -0.11532412709E+03  0.11704612480E+03  0.20003525706E+02 0.  0.
        -13    1    3    3    0    0  0.99132587076E+01  0.13216638710E+01 -0.58058660888E+02  0.58913824950E+02  0.10570000000E+00 0.  1.
         13    1    3    3    0    0 -0.99132587076E+01 -0.13216638710E+01 -0.57265466206E+02  0.58132299850E+02  0.10570000000E+00 0. -1.
<mgrwt>
<rscale>  0 0.20003526E+02</rscale>
<asrwt>0</asrwt>
<pdfrwt beam="2">  1        2 0.17874622E-01 0.20003526E+02</pdfrwt>
<pdfrwt beam="1">  1       -2 0.13246145E-03 0.20003526E+02</pdfrwt>
<totfact> 0.54634529E+06</totfact>
</mgrwt>
</event>
<event>
 5    1  0.1607476E-006  0.2000135E+02  0.7818608E-02  0.1745301E+00
          2   -1    0    0  501    0  0.00000000000E+00  0.00000000000E+00  0.37287864275E+02  0.37287864366E+02  0.26000000000E-02 0. -1.
         -2   -1    0    0    0  501 -0.00000000000E+00 -0.00000000000E+00 -0.26821978218E+01  0.26821990819E+01  0.26000000000E-02 0.  1.
       1023    2    1    2    0    0  0.00000000000E+00  0.00000000000E+00  0.34605666454E+02  0.39970063448E+02  0.20001345488E+02 0.  0.
        -13    1    3    3    0    0  0.17228408139E+01  0.98505797601E+01  0.17329700903E+02  0.20008293479E+02  0.10570000000E+00 0. -1.
         13    1    3    3    0    0 -0.17228408139E+01 -0.98505797601E+01  0.17275965551E+02  0.19961769968E+02  0.10570000000E+00 0.  1.
<mgrwt>
<rscale>  0 0.20001345E+02</rscale>
<asrwt>0</asrwt>
<pdfrwt beam="1">  1        2 0.57365944E-02 0.20001345E+02</pdfrwt>
<pdfrwt beam="2">  1       -2 0.41264594E-03 0.20001345E+02</pdfrwt>
<totfact> 0.44487418E+06</totfact>
</mgrwt>
</event>
<event>
 5    1  0.1615191E-006  0.2000123E+02  0.7818608E-02  0.1745304E+00
          2   -1    0    0  501    0  0.00000000000E+00  0.00000000000E+00  0.44160336846E+02  0.44160336922E+02  0.26000000000E-02 0.  1.
         -2   -1    0    0    0  501 -0.00000000000E+00 -0.00000000000E+00 -0.22647536103E+01  0.22647551028E+01  0.26000000000E-02 0. -1.
       1023    2    1    2    0    0  0.00000000000E+00  0.00000000000E+00  0.41895583236E+02  0.46425092025E+02  0.20001231835E+02 0.  0.
        -13    1    3    3    0    0  0.23935658331E+01 -0.97093671588E+01  0.20916805508E+02  0.23184583092E+02  0.10570000000E+00 0.  1.
         13    1    3    3    0    0 -0.23935658331E+01  0.97093671588E+01  0.20978777728E+02  0.23240508933E+02  0.10570000000E+00 0. -1.
<mgrwt>
<rscale>  0 0.20001232E+02</rscale>
<asrwt>0</asrwt>
<pdfrwt beam="1">  1        2 0.67938982E-02 0.20001232E+02</pdfrwt>
<pdfrwt beam="2">  1       -2 0.34842375E-03 0.20001232E+02</pdfrwt>
<totfact> 0.45494676E+06</totfact>
</mgrwt>
</event>
<event>
 5    1  0.1607476E-006  0.2000325E+02  0.7818608E-02  0.1745264E+00
          2   -1    0    0  501    0  0.00000000000E+00  0.00000000000E+00  0.35947677176E+02  0.35947677270E+02  0.26000000000E-02 0. -1.
         -2   -1    0    0    0  501 -0.00000000000E+00 -0.00000000000E+00 -0.27827235848E+01  0.27827247994E+01  0.26000000000E-02 0.  1.
       1023    2    1    2    0    0  0.00000000000E+00  0.00000000000E+00  0.33164953591E+02  0.38730402070E+02  0.20003247180E+02 0.  0.
        -13    1    3    3    0    0  0.92375580825E+01  0.38325716144E+01  0.16553925645E+02  0.19340752603E+02  0.10570000000E+00 0. -1.
         13    1    3    3    0    0 -0.92375580825E+01 -0.38325716144E+01  0.16611027947E+02  0.19389649467E+02  0.10570000000E+00 0.  1.
<mgrwt>
<rscale>  0 0.20003247E+02</rscale>
<asrwt>0</asrwt>
<pdfrwt beam="1">  1        2 0.55304119E-02 0.20003247E+02</pdfrwt>
<pdfrwt beam="2">  1       -2 0.42811143E-03 0.20003247E+02</pdfrwt>
<totfact> 0.44276605E+06</totfact>
</mgrwt>
</event>
<event>
 5    1  0.1607476E-006  0.2000303E+02  0.7818608E-02  0.1745268E+00
          2   -1    0    0  501    0  0.00000000000E+00  0.00000000000E+00  0.38522337802E+01  0.38522346576E+01  0.26000000000E-02 0.  1.
         -2   -1    0    0    0  501 -0.00000000000E+00 -0.00000000000E+00 -0.25966818822E+02  0.25966818952E+02  0.26000000000E-02 0. -1.
       1023    2    1    2    0    0  0.00000000000E+00  0.00000000000E+00 -0.22114585042E+02  0.29819053610E+02  0.20003026936E+02 0.  0.
        -13    1    3    3    0    0 -0.93341107539E+01  0.35904513557E+01 -0.11126167658E+02  0.14960606397E+02  0.10570000000E+00 0.  1.
         13    1    3    3    0    0  0.93341107539E+01 -0.35904513557E+01 -0.10988417384E+02  0.14858447213E+02  0.10570000000E+00 0. -1.
<mgrwt>
<rscale>  0 0.20003027E+02</rscale>
<asrwt>0</asrwt>
<pdfrwt beam="1">  1        2 0.59265145E-03 0.20003027E+02</pdfrwt>
<pdfrwt beam="2">  1       -2 0.39948952E-02 0.20003027E+02</pdfrwt>
<totfact> 0.36567157E+06</totfact>
</mgrwt>
</event>
<event>
 5    1  0.1607476E-006  0.2000226E+02  0.7818608E-02  0.1745283E+00
          2   -1    0    0  501    0  0.00000000000E+00  0.00000000000E+00  0.31443506498E+01  0.31443517247E+01  0.26000000000E-02 0.  1.
         -2   -1    0    0    0  501 -0.00000000000E+00 -0.00000000000E+00 -0.31810250703E+02  0.31810250810E+02  0.26000000000E-02 0. -1.
       1023    2    1    2    0    0  0.00000000000E+00  0.00000000000E+00 -0.28665900054E+02  0.34954602534E+02  0.20002260183E+02 0.  0.
        -13    1    3    3    0    0 -0.97949633869E+01  0.20174316844E+01 -0.14316163641E+02  0.17463534930E+02  0.10570000000E+00 0. -1.
         13    1    3    3    0    0  0.97949633869E+01 -0.20174316844E+01 -0.14349736412E+02  0.17491067604E+02  0.10570000000E+00 0.  1.
<mgrwt>
<rscale>  0 0.20002260E+02</rscale>
<asrwt>0</asrwt>
<pdfrwt beam="1">  1        2 0.48374637E-03 0.20002260E+02</pdfrwt>
<pdfrwt beam="2">  1       -2 0.48938846E-02 0.20002260E+02</pdfrwt>
<totfact> 0.35836122E+06</totfact>
</mgrwt>
</event>
<event>
 5    1  0.1684396E-006  0.2000131E+02  0.7818608E-02  0.1745302E+00
          2   -1    0    0  501    0  0.00000000000E+00  0.00000000000E+00  0.10674192222E+03  0.10674192225E+03  0.26000000000E-02 0.  1.
         -2   -1    0    0    0  501 -0.00000000000E+00 -0.00000000000E+00 -0.93695999793E+00  0.93696360533E+00  0.26000000000E-02 0. -1.
       1023    2    1    2    0    0  0.00000000000E+00  0.00000000000E+00  0.10580496222E+03  0.10767888586E+03  0.20001310672E+02 0.  0.
        -13    1    3    3    0    0  0.38763801931E+01 -0.92182000210E+01  0.52794859000E+02  0.53733693753E+02  0.10570000000E+00 0.  1.
         13    1    3    3    0    0 -0.38763801931E+01  0.92182000210E+01  0.53010103223E+02  0.53945192105E+02  0.10570000000E+00 0. -1.
<mgrwt>
<rscale>  0 0.20001311E+02</rscale>
<asrwt>0</asrwt>
<pdfrwt beam="1">  1        2 0.16421836E-01 0.20001311E+02</pdfrwt>
<pdfrwt beam="2">  1       -2 0.14414796E-03 0.20001311E+02</pdfrwt>
<totfact> 0.53550254E+06</totfact>
</mgrwt>
</event>
<event>
 5    1  0.1607476E-006  0.2000195E+02  0.7818608E-02  0.1745289E+00
          2   -1    0    0  501    0  0.00000000000E+00  0.00000000000E+00  0.76415657599E+01  0.76415662022E+01  0.26000000000E-02 0.  1.
         -2   -1    0    0    0  501 -0.00000000000E+00 -0.00000000000E+00 -0.13088875146E+02  0.13088875404E+02  0.26000000000E-02 0. -1.
       1023    2    1    2    0    0  0.00000000000E+00  0.00000000000E+00 -0.54473093859E+01  0.20730441606E+02  0.20001950646E+02 0.  0.
        -13    1    3    3    0    0 -0.33402112698E+01 -0.94259786138E+01 -0.27728248271E+01  0.10378141171E+02  0.10570000000E+00 0. -1.
         13    1    3    3    0    0  0.33402112698E+01  0.94259786138E+01 -0.26744845587E+01  0.10352300435E+02  0.10570000000E+00 0.  1.
<mgrwt>
<rscale>  0 0.20001951E+02</rscale>
<asrwt>0</asrwt>
<pdfrwt beam="1">  1        2 0.11756256E-02 0.20001951E+02</pdfrwt>
<pdfrwt beam="2">  1       -2 0.20136731E-02 0.20001951E+02</pdfrwt>
<totfact> 0.38683081E+06</totfact>
</mgrwt>
</event>
<event>
 5    1  0.1607476E-006  0.2000502E+02  0.7818608E-02  0.1745228E+00
          2   -1    0    0  501    0  0.00000000000E+00  0.00000000000E+00  0.25600637708E+02  0.25600637840E+02  0.26000000000E-02 0.  1.
         -2   -1    0    0    0  501 -0.00000000000E+00 -0.00000000000E+00 -0.39081144077E+01  0.39081152726E+01  0.26000000000E-02 0. -1.
       1023    2    1    2    0    0  0.00000000000E+00  0.00000000000E+00  0.21692523300E+02  0.29508753112E+02  0.20005022947E+02 0.  0.
        -13    1    3    3    0    0 -0.94139990001E+01 -0.33780762811E+01  0.10942839216E+02  0.14825372816E+02  0.10570000000E+00 0.  1.
         13    1    3    3    0    0  0.94139990001E+01  0.33780762811E+01  0.10749684084E+02  0.14683380296E+02  0.10570000000E+00 0. -1.
<mgrwt>
<rscale>  0 0.20005023E+02</rscale>
<asrwt>0</asrwt>
<pdfrwt beam="1">  1        2 0.39385598E-02 0.20005023E+02</pdfrwt>
<pdfrwt beam="2">  1       -2 0.60124843E-03 0.20005023E+02</pdfrwt>
<totfact> 0.42633454E+06</totfact>
</mgrwt>
</event>
<event>
 5    1  0.1607476E-006  0.2000314E+02  0.7818608E-02  0.1745266E+00
          2   -1    0    0  501    0  0.00000000000E+00  0.00000000000E+00  0.63300154793E+01  0.63300160133E+01  0.26000000000E-02 0. -1.
         -2   -1    0    0    0  501 -0.00000000000E+00 -0.00000000000E+00 -0.15802702218E+02  0.15802702432E+02  0.26000000000E-02 0.  1.
       1023    2    1    2    0    0  0.00000000000E+00  0.00000000000E+00 -0.94726867389E+01  0.22132718445E+02  0.20003135547E+02 0.  0.
        -13    1    3    3    0    0  0.99177912330E+01 -0.12801070018E+01 -0.45841150262E+01  0.11001206295E+02  0.10570000000E+00 0. -1.
         13    1    3    3    0    0 -0.99177912330E+01  0.12801070018E+01 -0.48885717127E+01  0.11131512151E+02  0.10570000000E+00 0.  1.
<mgrwt>
<rscale>  0 0.20003136E+02</rscale>
<asrwt>0</asrwt>
<pdfrwt beam="1">  1        2 0.97384860E-03 0.20003136E+02</pdfrwt>
<pdfrwt beam="2">  1       -2 0.24311850E-02 0.20003136E+02</pdfrwt>
<totfact> 0.38132316E+06</totfact>
</mgrwt>
</event>
<event>
 5    1  0.1607476E-006  0.2000753E+02  0.7818608E-02  0.1745178E+00
         -2   -1    0    0    0  501 -0.00000000000E+00  0.00000000000E+00  0.13293215524E+01  0.13293240950E+01  0.26000000000E-02 0. -1.
          2   -1    0    0  501    0  0.00000000000E+00 -0.00000000000E+00 -0.75282895317E+02  0.75282895362E+02  0.26000000000E-02 0.  1.
       1023    2    1    2    0    0  0.00000000000E+00  0.00000000000E+00 -0.73953573765E+02  0.76612219457E+02  0.20007526023E+02 0.  0.
        -13    1    3    3    0    0 -0.95949725424E+01 -0.28225865817E+01 -0.37678777229E+02  0.38983739163E+02  0.10570000000E+00 0.  1.
         13    1    3    3    0    0  0.95949725424E+01  0.28225865817E+01 -0.36274796535E+02  0.37628480294E+02  0.10570000000E+00 0. -1.
<mgrwt>
<rscale>  0 0.20007526E+02</rscale>
<asrwt>0</asrwt>
<pdfrwt beam="2">  1        2 0.11581981E-01 0.20007526E+02</pdfrwt>
<pdfrwt beam="1">  1       -2 0.20451127E-03 0.20007526E+02</pdfrwt>
<totfact> 0.49659356E+06</totfact>
</mgrwt>
</event>
<event>
 5    1  0.1725135E-006  0.2000170E+02  0.7818608E-02  0.1745294E+00
          2   -1    0    0  501    0  0.00000000000E+00  0.00000000000E+00  0.10725932503E+03  0.10725932506E+03  0.26000000000E-02 0. -1.
         -2   -1    0    0    0  501 -0.00000000000E+00 -0.00000000000E+00 -0.93247699026E+00  0.93248061501E+00  0.26000000000E-02 0.  1.
       1023    2    1    2    0    0  0.00000000000E+00  0.00000000000E+00  0.10632684804E+03  0.10819180568E+03  0.20001704965E+02 0.  0.
        -13    1    3    3    0    0  0.35457206025E+01 -0.93505690212E+01  0.53296170645E+02  0.54226361242E+02  0.10570000000E+00 0.  1.
         13    1    3    3    0    0 -0.35457206025E+01  0.93505690212E+01  0.53030677396E+02  0.53965444436E+02  0.10570000000E+00 0. -1.
<mgrwt>
<rscale>  0 0.20001705E+02</rscale>
<asrwt>0</asrwt>
<pdfrwt beam="1">  1        2 0.16501438E-01 0.20001705E+02</pdfrwt>
<pdfrwt beam="2">  1       -2 0.14345825E-03 0.20001705E+02</pdfrwt>
<totfact> 0.53608721E+06</totfact>
</mgrwt>
</event>
<event>
 5    1  0.1607476E-006  0.2000407E+02  0.7818608E-02  0.1745247E+00
          2   -1    0    0  501    0  0.00000000000E+00  0.00000000000E+00  0.11034502382E+01  0.11034533014E+01  0.26000000000E-02 0. -1.
         -2   -1    0    0    0  501 -0.00000000000E+00 -0.00000000000E+00 -0.90661619682E+02  0.90661619720E+02  0.26000000000E-02 0.  1.
       1023    2    1    2    0    0  0.00000000000E+00  0.00000000000E+00 -0.89558169444E+02  0.91765073021E+02  0.20004072395E+02 0.  0.
        -13    1    3    3    0    0 -0.47432660751E+01 -0.88050440380E+01 -0.44564800877E+02  0.45673406084E+02  0.10570000000E+00 0.  1.
         13    1    3    3    0    0  0.47432660751E+01  0.88050440380E+01 -0.44993368567E+02  0.46091666937E+02  0.10570000000E+00 0. -1.
<mgrwt>
<rscale>  0 0.20004072E+02</rscale>
<asrwt>0</asrwt>
<pdfrwt beam="1">  1        2 0.16976189E-03 0.20004072E+02</pdfrwt>
<pdfrwt beam="2">  1       -2 0.13947936E-01 0.20004072E+02</pdfrwt>
<totfact> 0.30411379E+06</totfact>
</mgrwt>
</event>
<event>
 5    1  0.1607476E-006  0.2000196E+02  0.7818608E-02  0.1745289E+00
         -2   -1    0    0    0  501 -0.00000000000E+00  0.00000000000E+00  0.28316700314E+01  0.28316712251E+01  0.26000000000E-02 0. -1.
          2   -1    0    0  501    0  0.00000000000E+00 -0.00000000000E+00 -0.35321746646E+02  0.35321746741E+02  0.26000000000E-02 0.  1.
       1023    2    1    2    0    0  0.00000000000E+00  0.00000000000E+00 -0.32490076614E+02  0.38153417966E+02  0.20001955507E+02 0.  0.
        -13    1    3    3    0    0 -0.68566335587E+01 -0.72796234276E+01 -0.16158830670E+02  0.19003297664E+02  0.10570000000E+00 0.  1.
         13    1    3    3    0    0  0.68566335587E+01  0.72796234276E+01 -0.16331245944E+02  0.19150120302E+02  0.10570000000E+00 0. -1.
<mgrwt>
<rscale>  0 0.20001956E+02</rscale>
<asrwt>0</asrwt>
<pdfrwt beam="2">  1        2 0.54341147E-02 0.20001956E+02</pdfrwt>
<pdfrwt beam="1">  1       -2 0.43564167E-03 0.20001956E+02</pdfrwt>
<totfact> 0.44188287E+06</totfact>
</mgrwt>
</event>
<event>
 5    1  0.1607476E-006  0.2000396E+02  0.7818608E-02  0.1745249E+00
          2   -1    0    0  501    0  0.00000000000E+00  0.00000000000E+00  0.24284527498E+01  0.24284541417E+01  0.26000000000E-02 0. -1.
         -2   -1    0    0    0  501 -0.00000000000E+00 -0.00000000000E+00 -0.41194761859E+02  0.41194761941E+02  0.26000000000E-02 0.  1.
       1023    2    1    2    0    0  0.00000000000E+00  0.00000000000E+00 -0.38766309110E+02  0.43623216083E+02  0.20003956095E+02 0.  0.
        -13    1    3    3    0    0  0.99255913808E+01  0.12288428819E+01 -0.19315121139E+02  0.21751149307E+02  0.10570000000E+00 0.  1.
         13    1    3    3    0    0 -0.99255913808E+01 -0.12288428819E+01 -0.19451187971E+02  0.21872066776E+02  0.10570000000E+00 0. -1.
<mgrwt>
<rscale>  0 0.20003956E+02</rscale>
<asrwt>0</asrwt>
<pdfrwt beam="1">  1        2 0.37360826E-03 0.20003956E+02</pdfrwt>
<pdfrwt beam="2">  1       -2 0.63376553E-02 0.20003956E+02</pdfrwt>
<totfact> 0.34777991E+06</totfact>
</mgrwt>
</event>
<event>
 4    1  0.1607476E-006  0.2001359E+02  0.7818608E-02  0.1745058E+00
          2   -1    0    0  501    0  0.00000000000E+00  0.00000000000E+00  0.19317727966E+01  0.19317745463E+01  0.26000000000E-02 0. -1.
         -2   -1    0    0    0  501 -0.00000000000E+00 -0.00000000000E+00 -0.51836268252E+02  0.51836268318E+02  0.26000000000E-02 0.  1.
        -13    1    1    2    0    0  0.12311698997E+01 -0.99272277782E+01 -0.25605580453E+02  0.27490408391E+02  0.10570000000E+00 0.  1.
         13    1    1    2    0    0 -0.12311698997E+01  0.99272277782E+01 -0.24298915003E+02  0.26277634473E+02  0.10570000000E+00 0. -1.
<mgrwt>
<rscale>  0 0.20013590E+02</rscale>
<asrwt>0</asrwt>
<pdfrwt beam="1">  1        2 0.29719599E-03 0.20013590E+02</pdfrwt>
<pdfrwt beam="2">  1       -2 0.79748096E-02 0.20013590E+02</pdfrwt>
<totfact> 0.33670871E+06</totfact>
</mgrwt>
</event>
<event>
 4    1  0.1607476E-006  0.2011932E+02  0.7818608E-02  0.1742966E+00
          2   -1    0    0  501    0  0.00000000000E+00  0.00000000000E+00  0.17948721266E+01  0.17948740097E+01  0.26000000000E-02 0. -1.
         -2   -1    0    0    0  501 -0.00000000000E+00 -0.00000000000E+00 -0.56381030121E+02  0.56381030181E+02  0.26000000000E-02 0.  1.
        -13    1    1    2    0    0  0.97795814288E+01  0.21414154463E+01 -0.24460324603E+02  0.26429992910E+02  0.10570000000E+00 0.  1.
         13    1    1    2    0    0 -0.97795814288E+01 -0.21414154463E+01 -0.30125833392E+02  0.31745911281E+02  0.10570000000E+00 0. -1.
<mgrwt>
<rscale>  0 0.20119324E+02</rscale>
<asrwt>0</asrwt>
<pdfrwt beam="1">  1        2 0.27613437E-03 0.20119324E+02</pdfrwt>
<pdfrwt beam="2">  1       -2 0.86740034E-02 0.20119324E+02</pdfrwt>
<totfact> 0.32861765E+06</totfact>
</mgrwt>
</event>
<event>
 5    1  0.1607476E-006  0.2000588E+02  0.7818608E-02  0.1745211E+00
         -2   -1    0    0    0  501 -0.00000000000E+00  0.00000000000E+00  0.28910431808E+02  0.28910431925E+02  0.26000000000E-02 0. -1.
          2   -1    0    0  501    0  0.00000000000E+00 -0.00000000000E+00 -0.34609941920E+01  0.34609951686E+01  0.26000000000E-02 0.  1.
       1023    2    1    2    0    0  0.00000000000E+00  0.00000000000E+00  0.25449437616E+02  0.32371427093E+02  0.20005884562E+02 0.  0.
        -13    1    3    3    0    0  0.46060217826E+01  0.88785946883E+01  0.12639074557E+02  0.16118382625E+02  0.10570000000E+00 0. -1.
         13    1    3    3    0    0 -0.46060217826E+01 -0.88785946883E+01  0.12810363058E+02  0.16253044468E+02  0.10570000000E+00 0.  1.
<mgrwt>
<rscale>  0 0.20005885E+02</rscale>
<asrwt>0</asrwt>
<pdfrwt beam="2">  1        2 0.53246071E-03 0.20005885E+02</pdfrwt>
<pdfrwt beam="1">  1       -2 0.44477590E-02 0.20005885E+02</pdfrwt>
<totfact> 0.36176465E+06</totfact>
</mgrwt>
</event>
<event>
 5    1  0.1607476E-006  0.2000127E+02  0.7818608E-02  0.1745303E+00
         -2   -1    0    0    0  501 -0.00000000000E+00  0.00000000000E+00  0.13336689341E+01  0.13336714684E+01  0.26000000000E-02 0.  1.
          2   -1    0    0  501    0  0.00000000000E+00 -0.00000000000E+00 -0.74990547473E+02  0.74990547518E+02  0.26000000000E-02 0. -1.
       1023    2    1    2    0    0  0.00000000000E+00  0.00000000000E+00 -0.73656878539E+02  0.76324218986E+02  0.20001266155E+02 0.  0.
        -13    1    3    3    0    0 -0.93680113634E+01 -0.34988155058E+01 -0.36874009587E+02  0.38206087242E+02  0.10570000000E+00 0.  1.
         13    1    3    3    0    0  0.93680113634E+01  0.34988155058E+01 -0.36782868952E+02  0.38118131744E+02  0.10570000000E+00 0. -1.
<mgrwt>
<rscale>  0 0.20001266E+02</rscale>
<asrwt>0</asrwt>
<pdfrwt beam="2">  1        2 0.11537004E-01 0.20001266E+02</pdfrwt>
<pdfrwt beam="1">  1       -2 0.20518009E-03 0.20001266E+02</pdfrwt>
<totfact> 0.49656406E+06</totfact>
</mgrwt>
</event>
<event>
 5    1  0.1607476E-006  0.2000146E+02  0.7818608E-02  0.1745299E+00
         -2   -1    0    0    0  501 -0.00000000000E+00  0.00000000000E+00  0.35519994707E+01  0.35520004223E+01  0.26000000000E-02 0.  1.
          2   -1    0    0  501    0  0.00000000000E+00 -0.00000000000E+00 -0.28157263835E+02  0.28157263955E+02  0.26000000000E-02 0. -1.
       1023    2    1    2    0    0  0.00000000000E+00  0.00000000000E+00 -0.24605264364E+02  0.31709264377E+02  0.20001460270E+02 0.  0.
        -13    1    3    3    0    0 -0.84935590381E+01 -0.52785219485E+01 -0.12287455411E+02  0.15842855552E+02  0.10570000000E+00 0. -1.
         13    1    3    3    0    0  0.84935590381E+01  0.52785219485E+01 -0.12317808954E+02  0.15866408825E+02  0.10570000000E+00 0.  1.
<mgrwt>
<rscale>  0 0.20001460E+02</rscale>
<asrwt>0</asrwt>
<pdfrwt beam="2">  1        2 0.43318867E-02 0.20001460E+02</pdfrwt>
<pdfrwt beam="1">  1       -2 0.54646156E-03 0.20001460E+02</pdfrwt>
<totfact> 0.43070944E+06</totfact>
</mgrwt>
</event>
<event>
 5    1  0.1607476E-006  0.2000224E+02  0.7818608E-02  0.1745284E+00
          2   -1    0    0  501    0  0.00000000000E+00  0.00000000000E+00  0.29020866327E+02  0.29020866443E+02  0.26000000000E-02 0. -1.
         -2   -1    0    0    0  501 -0.00000000000E+00 -0.00000000000E+00 -0.34465662424E+01  0.34465672231E+01  0.26000000000E-02 0.  1.
       1023    2    1    2    0    0  0.00000000000E+00  0.00000000000E+00  0.25574300084E+02  0.32467433666E+02  0.20002235477E+02 0.  0.
        -13    1    3    3    0    0 -0.84795421804E+01  0.53016834196E+01  0.12830121933E+02  0.16267565398E+02  0.10570000000E+00 0. -1.
         13    1    3    3    0    0  0.84795421804E+01 -0.53016834196E+01  0.12744178151E+02  0.16199868268E+02  0.10570000000E+00 0.  1.
<mgrwt>
<rscale>  0 0.20002235E+02</rscale>
<asrwt>0</asrwt>
<pdfrwt beam="1">  1        2 0.44647488E-02 0.20002235E+02</pdfrwt>
<pdfrwt beam="2">  1       -2 0.53024104E-03 0.20002235E+02</pdfrwt>
<totfact> 0.43206248E+06</totfact>
</mgrwt>
</event>
<event>
 5    1  0.1607476E-006  0.2000228E+02  0.7818608E-02  0.1745283E+00
          2   -1    0    0  501    0  0.00000000000E+00  0.00000000000E+00  0.33200348416E+01  0.33200358597E+01  0.26000000000E-02 0. -1.
         -2   -1    0    0    0  501 -0.00000000000E+00 -0.00000000000E+00 -0.30127030124E+02  0.30127030236E+02  0.26000000000E-02 0.  1.
       1023    2    1    2    0    0  0.00000000000E+00  0.00000000000E+00 -0.26806995282E+02  0.33447066096E+02  0.20002280729E+02 0.  0.
        -13    1    3    3    0    0  0.56006684597E+01  0.82850155616E+01 -0.13317157584E+02  0.16654333630E+02  0.10570000000E+00 0. -1.
         13    1    3    3    0    0 -0.56006684597E+01 -0.82850155616E+01 -0.13489837698E+02  0.16792732466E+02  0.10570000000E+00 0.  1.
<mgrwt>
<rscale>  0 0.20002281E+02</rscale>
<asrwt>0</asrwt>
<pdfrwt beam="1">  1        2 0.51077470E-03 0.20002281E+02</pdfrwt>
<pdfrwt beam="2">  1       -2 0.46349276E-02 0.20002281E+02</pdfrwt>
<totfact> 0.36039771E+06</totfact>
</mgrwt>
</event>
<event>
 5    1  0.1607476E-006  0.2001176E+02  0.7818608E-02  0.1745094E+00
         -2   -1    0    0    0  501 -0.00000000000E+00  0.00000000000E+00  0.51335903668E+02  0.51335903734E+02  0.26000000000E-02 0. -1.
          2   -1    0    0  501    0  0.00000000000E+00 -0.00000000000E+00 -0.19502449905E+01  0.19502467236E+01  0.26000000000E-02 0.  1.
       1023    2    1    2    0    0  0.00000000000E+00  0.00000000000E+00  0.49385658678E+02  0.53286150458E+02  0.20011760232E+02 0.  0.
        -13    1    3    3    0    0  0.87226293691E+01 -0.48910890945E+01  0.25532538209E+02  0.27421318267E+02  0.10570000000E+00 0. -1.
         13    1    3    3    0    0 -0.87226293691E+01  0.48910890945E+01  0.23853120469E+02  0.25864832190E+02  0.10570000000E+00 0.  1.
<mgrwt>
<rscale>  0 0.20011760E+02</rscale>
<asrwt>0</asrwt>
<pdfrwt beam="2">  1        2 0.30003789E-03 0.20011760E+02</pdfrwt>
<pdfrwt beam="1">  1       -2 0.78978297E-02 0.20011760E+02</pdfrwt>
<totfact> 0.33725717E+06</totfact>
</mgrwt>
</event>
<event>
 5    1  0.1607476E-006  0.2000178E+02  0.7818608E-02  0.1745293E+00
         -2   -1    0    0    0  501 -0.00000000000E+00  0.00000000000E+00  0.55595564125E+01  0.55595570205E+01  0.26000000000E-02 0. -1.
          2   -1    0    0  501    0  0.00000000000E+00 -0.00000000000E+00 -0.17990252288E+02  0.17990252476E+02  0.26000000000E-02 0.  1.
       1023    2    1    2    0    0  0.00000000000E+00  0.00000000000E+00 -0.12430695876E+02  0.23549809496E+02  0.20001783105E+02 0.  0.
        -13    1    3    3    0    0 -0.85947479507E+01 -0.51122550118E+01 -0.62655177102E+01  0.11801386711E+02  0.10570000000E+00 0. -1.
         13    1    3    3    0    0  0.85947479507E+01  0.51122550118E+01 -0.61651781654E+01  0.11748422785E+02  0.10570000000E+00 0.  1.
<mgrwt>
<rscale>  0 0.20001783E+02</rscale>
<asrwt>0</asrwt>
<pdfrwt beam="2">  1        2 0.27677311E-02 0.20001783E+02</pdfrwt>
<pdfrwt beam="1">  1       -2 0.85531644E-03 0.20001783E+02</pdfrwt>
<totfact> 0.41289875E+06</totfact>
</mgrwt>
</event>
<event>
 4    1  0.1607476E-006  0.2069296E+02  0.7818608E-02  0.1731889E+00
         -2   -1    0    0    0  501 -0.00000000000E+00  0.00000000000E+00  0.36443511677E+01  0.36443520952E+01  0.26000000000E-02 0.  1.
          2   -1    0    0  501    0  0.00000000000E+00 -0.00000000000E+00 -0.29374116776E+02  0.29374116891E+02  0.26000000000E-02 0. -1.
        -13    1    1    2    0    0  0.10223999708E+02  0.15419445723E+01 -0.12288068143E+02  0.16059749508E+02  0.10570000000E+00 0.  1.
         13    1    1    2    0    0 -0.10223999708E+02 -0.15419445723E+01 -0.13441697466E+02  0.16958719478E+02  0.10570000000E+00 0. -1.
<mgrwt>
<rscale>  0 0.20692957E+02</rscale>
<asrwt>0</asrwt>
<pdfrwt beam="2">  1        2 0.45190948E-02 0.20692957E+02</pdfrwt>
<pdfrwt beam="1">  1       -2 0.56066951E-03 0.20692957E+02</pdfrwt>
<totfact> 0.40079204E+06</totfact>
</mgrwt>
</event>
<event>
 5    1  0.1607476E-006  0.2000157E+02  0.7818608E-02  0.1745297E+00
         -2   -1    0    0    0  501 -0.00000000000E+00  0.00000000000E+00  0.14745801670E+02  0.14745801899E+02  0.26000000000E-02 0.  1.
          2   -1    0    0  501    0  0.00000000000E+00 -0.00000000000E+00 -0.67826556598E+01  0.67826561581E+01  0.26000000000E-02 0. -1.
       1023    2    1    2    0    0  0.00000000000E+00  0.00000000000E+00  0.79631460099E+01  0.21528458057E+02  0.20001570237E+02 0.  0.
        -13    1    3    3    0    0  0.69030172966E+01  0.72355261750E+01  0.39886857640E+01  0.10766859962E+02  0.10570000000E+00 0. -1.
         13    1    3    3    0    0 -0.69030172966E+01 -0.72355261750E+01  0.39744602458E+01  0.10761598095E+02  0.10570000000E+00 0.  1.
<mgrwt>
<rscale>  0 0.20001570E+02</rscale>
<asrwt>0</asrwt>
<pdfrwt beam="2">  1        2 0.10434856E-02 0.20001570E+02</pdfrwt>
<pdfrwt beam="1">  1       -2 0.22685849E-02 0.20001570E+02</pdfrwt>
<totfact> 0.38340837E+06</totfact>
</mgrwt>
</event>
<event>
 5    1  0.1607476E-006  0.2000271E+02  0.7818608E-02  0.1745274E+00
         -2   -1    0    0    0  501 -0.00000000000E+00  0.00000000000E+00  0.12190897427E+02  0.12190897704E+02  0.26000000000E-02 0. -1.
          2   -1    0    0  501    0  0.00000000000E+00 -0.00000000000E+00 -0.82050663532E+01  0.82050667651E+01  0.26000000000E-02 0.  1.
       1023    2    1    2    0    0  0.00000000000E+00  0.00000000000E+00  0.39858310740E+01  0.20395964469E+02  0.20002712748E+02 0.  0.
        -13    1    3    3    0    0 -0.30826151515E+01  0.95136351276E+01  0.19269338499E+01  0.10185087926E+02  0.10570000000E+00 0. -1.
         13    1    3    3    0    0  0.30826151515E+01 -0.95136351276E+01  0.20588972240E+01  0.10210876543E+02  0.10570000000E+00 0.  1.
<mgrwt>
<rscale>  0 0.20002713E+02</rscale>
<asrwt>0</asrwt>
<pdfrwt beam="2">  1        2 0.12623180E-02 0.20002713E+02</pdfrwt>
<pdfrwt beam="1">  1       -2 0.18755227E-02 0.20002713E+02</pdfrwt>
<totfact> 0.38883364E+06</totfact>
</mgrwt>
</event>
<event>
 4    1  0.1607476E-006  0.2005046E+02  0.7818608E-02  0.1744326E+00
         -2   -1    0    0    0  501 -0.00000000000E+00  0.00000000000E+00  0.41221308902E+02  0.41221308984E+02  0.26000000000E-02 0. -1.
          2   -1    0    0  501    0  0.00000000000E+00 -0.00000000000E+00 -0.24381867476E+01  0.24381881339E+01  0.26000000000E-02 0.  1.
        -13    1    1    2    0    0  0.83342014147E+01 -0.55559013183E+01  0.18501304411E+02  0.21038925592E+02  0.10570000000E+00 0.  1.
         13    1    1    2    0    0 -0.83342014147E+01  0.55559013183E+01  0.20281817743E+02  0.22620571525E+02  0.10570000000E+00 0. -1.
<mgrwt>
<rscale>  0 0.20050464E+02</rscale>
<asrwt>0</asrwt>
<pdfrwt beam="2">  1        2 0.37510579E-03 0.20050464E+02</pdfrwt>
<pdfrwt beam="1">  1       -2 0.63417395E-02 0.20050464E+02</pdfrwt>
<totfact> 0.34599232E+06</totfact>
</mgrwt>
</event>
<event>
 4    1  0.1607476E-006  0.2037209E+02  0.7818608E-02  0.1738028E+00
         -2   -1    0    0    0  501 -0.00000000000E+00  0.00000000000E+00  0.19775537111E+01  0.19775554203E+01  0.26000000000E-02 0. -1.
          2   -1    0    0  501    0  0.00000000000E+00 -0.00000000000E+00 -0.52466553721E+02  0.52466553785E+02  0.26000000000E-02 0.  1.
        -13    1    1    2    0    0 -0.89436558804E+01  0.46723857957E+01 -0.28951589537E+02  0.30659841466E+02  0.10570000000E+00 0.  1.
         13    1    1    2    0    0  0.89436558804E+01 -0.46723857957E+01 -0.21537410473E+02  0.23784267739E+02  0.10570000000E+00 0. -1.
<mgrwt>
<rscale>  0 0.20372086E+02</rscale>
<asrwt>0</asrwt>
<pdfrwt beam="2">  1        2 0.80717766E-02 0.20372086E+02</pdfrwt>
<pdfrwt beam="1">  1       -2 0.30423921E-03 0.20372086E+02</pdfrwt>
<totfact> 0.44791137E+06</totfact>
</mgrwt>
</event>
<event>
 5    1  0.1607476E-006  0.2000197E+02  0.7818608E-02  0.1745289E+00
         -2   -1    0    0    0  501 -0.00000000000E+00  0.00000000000E+00  0.71509442488E+02  0.71509442535E+02  0.26000000000E-02 0. -1.
          2   -1    0    0  501    0  0.00000000000E+00 -0.00000000000E+00 -0.13986914555E+01  0.13986938721E+01  0.26000000000E-02 0.  1.
       1023    2    1    2    0    0  0.00000000000E+00  0.00000000000E+00  0.70110751032E+02  0.72908136407E+02  0.20001973504E+02 0.  0.
        -13    1    3    3    0    0  0.91190507815E+01 -0.41047698565E+01  0.34879021852E+02  0.36284480988E+02  0.10570000000E+00 0.  1.
         13    1    3    3    0    0 -0.91190507815E+01  0.41047698565E+01  0.35231729180E+02  0.36623655419E+02  0.10570000000E+00 0. -1.
<mgrwt>
<rscale>  0 0.20001974E+02</rscale>
<asrwt>0</asrwt>
<pdfrwt beam="2">  1        2 0.21518350E-03 0.20001974E+02</pdfrwt>
<pdfrwt beam="1">  1       -2 0.11001452E-01 0.20001974E+02</pdfrwt>
<totfact> 0.31948729E+06</totfact>
</mgrwt>
</event>
<event>
 5    1  0.1607476E-006  0.2000113E+02  0.7818608E-02  0.1745306E+00
          2   -1    0    0  501    0  0.00000000000E+00  0.00000000000E+00  0.34584587806E+01  0.34584597579E+01  0.26000000000E-02 0. -1.
         -2   -1    0    0    0  501 -0.00000000000E+00 -0.00000000000E+00 -0.28917865428E+02  0.28917865545E+02  0.26000000000E-02 0.  1.
       1023    2    1    2    0    0  0.00000000000E+00  0.00000000000E+00 -0.25459406647E+02  0.32376325303E+02  0.20001126300E+02 0.  0.
        -13    1    3    3    0    0 -0.89806565269E+01 -0.43986234811E+01 -0.12724422143E+02  0.16184009749E+02  0.10570000000E+00 0. -1.
         13    1    3    3    0    0  0.89806565269E+01  0.43986234811E+01 -0.12734984504E+02  0.16192315554E+02  0.10570000000E+00 0.  1.
<mgrwt>
<rscale>  0 0.20001126E+02</rscale>
<asrwt>0</asrwt>
<pdfrwt beam="1">  1        2 0.53207068E-03 0.20001126E+02</pdfrwt>
<pdfrwt beam="2">  1       -2 0.44489023E-02 0.20001126E+02</pdfrwt>
<totfact> 0.36194290E+06</totfact>
</mgrwt>
</event>
<event>
 4    1  0.1607476E-006  0.2002362E+02  0.7818608E-02  0.1744859E+00
         -2   -1    0    0    0  501 -0.00000000000E+00  0.00000000000E+00  0.19654848513E+01  0.19654865709E+01  0.26000000000E-02 0.  1.
          2   -1    0    0  501    0  0.00000000000E+00 -0.00000000000E+00 -0.50998270403E+02  0.50998270469E+02  0.26000000000E-02 0. -1.
        -13    1    1    2    0    0  0.95784492026E+01 -0.29113864602E+01 -0.24388374040E+02  0.26363361339E+02  0.10570000000E+00 0.  1.
         13    1    1    2    0    0 -0.95784492026E+01  0.29113864602E+01 -0.24644411511E+02  0.26600395701E+02  0.10570000000E+00 0. -1.
<mgrwt>
<rscale>  0 0.20023624E+02</rscale>
<asrwt>0</asrwt>
<pdfrwt beam="2">  1        2 0.78458869E-02 0.20023624E+02</pdfrwt>
<pdfrwt beam="1">  1       -2 0.30238246E-03 0.20023624E+02</pdfrwt>
<totfact> 0.46345313E+06</totfact>
</mgrwt>
</event>
<event>
 5    1  0.1607476E-006  0.2000474E+02  0.7818608E-02  0.1745234E+00
         -2   -1    0    0    0  501 -0.00000000000E+00  0.00000000000E+00  0.18420898510E+01  0.18420916859E+01  0.26000000000E-02 0.  1.
          2   -1    0    0  501    0  0.00000000000E+00 -0.00000000000E+00 -0.54311873143E+02  0.54311873205E+02  0.26000000000E-02 0. -1.
       1023    2    1    2    0    0  0.00000000000E+00  0.00000000000E+00 -0.52469783292E+02  0.56153964891E+02  0.20004739795E+02 0.  0.
        -13    1    3    3    0    0 -0.68054547989E+01 -0.73294838076E+01 -0.26308260851E+02  0.28145538001E+02  0.10570000000E+00 0.  1.
         13    1    3    3    0    0  0.68054547989E+01  0.73294838076E+01 -0.26161522441E+02  0.28008426890E+02  0.10570000000E+00 0. -1.
<mgrwt>
<rscale>  0 0.20004740E+02</rscale>
<asrwt>0</asrwt>
<pdfrwt beam="2">  1        2 0.83556717E-02 0.20004740E+02</pdfrwt>
<pdfrwt beam="1">  1       -2 0.28339863E-03 0.20004740E+02</pdfrwt>
<totfact> 0.46900428E+06</totfact>
</mgrwt>
</event>
<event>
 5    1  0.1607476E-006  0.2000364E+02  0.7818608E-02  0.1745256E+00
          2   -1    0    0  501    0  0.00000000000E+00  0.00000000000E+00  0.39998160124E+02  0.39998160209E+02  0.26000000000E-02 0. -1.
         -2   -1    0    0    0  501 -0.00000000000E+00 -0.00000000000E+00 -0.25010237090E+01  0.25010250604E+01  0.26000000000E-02 0.  1.
       1023    2    1    2    0    0  0.00000000000E+00  0.00000000000E+00  0.37497136415E+02  0.42499185269E+02  0.20003637399E+02 0.  0.
        -13    1    3    3    0    0  0.15802775767E+01 -0.98753176361E+01  0.18913536566E+02  0.21395144625E+02  0.10570000000E+00 0. -1.
         13    1    3    3    0    0 -0.15802775767E+01  0.98753176361E+01  0.18583599850E+02  0.21104040644E+02  0.10570000000E+00 0.  1.
<mgrwt>
<rscale>  0 0.20003637E+02</rscale>
<asrwt>0</asrwt>
<pdfrwt beam="1">  1        2 0.61535630E-02 0.20003637E+02</pdfrwt>
<pdfrwt beam="2">  1       -2 0.38477300E-03 0.20003637E+02</pdfrwt>
<totfact> 0.44877811E+06</totfact>
</mgrwt>
</event>
<event>
 5    1  0.2587315E-006  0.2000229E+02  0.7818608E-02  0.1745283E+00
          2   -1    0    0  501    0  0.00000000000E+00  0.00000000000E+00  0.10970304286E+03  0.10970304289E+03  0.26000000000E-02 0. -1.
         -2   -1    0    0    0  501 -0.00000000000E+00 -0.00000000000E+00 -0.91175825861E+00  0.91176196572E+00  0.26000000000E-02 0.  1.
       1023    2    1    2    0    0  0.00000000000E+00  0.00000000000E+00  0.10879128460E+03  0.11061480486E+03  0.20002286075E+02 0.  0.
        -13    1    3    3    0    0  0.70618696275E+01  0.70810626186E+01  0.54481157887E+02  0.55391508263E+02  0.10570000000E+00 0.  1.
         13    1    3    3    0    0 -0.70618696275E+01 -0.70810626186E+01  0.54310126715E+02  0.55223296594E+02  0.10570000000E+00 0. -1.
<mgrwt>
<rscale>  0 0.20002286E+02</rscale>
<asrwt>0</asrwt>
<pdfrwt beam="1">  1        2 0.16877396E-01 0.20002286E+02</pdfrwt>
<pdfrwt beam="2">  1       -2 0.14027075E-03 0.20002286E+02</pdfrwt>
<totfact> 0.53891350E+06</totfact>
</mgrwt>
</event>
<event>
 4    1  0.1607476E-006  0.2008284E+02  0.7818608E-02  0.1743686E+00
          2   -1    0    0  501    0  0.00000000000E+00  0.00000000000E+00  0.12219989623E+02  0.12219989899E+02  0.26000000000E-02 0.  1.
         -2   -1    0    0    0  501 -0.00000000000E+00 -0.00000000000E+00 -0.82512430113E+01  0.82512434209E+01  0.26000000000E-02 0. -1.
        -13    1    1    2    0    0 -0.85575421390E+01  0.52489398623E+01  0.17908561251E+01  0.10198099592E+02  0.10570000000E+00 0. -1.
         13    1    1    2    0    0  0.85575421390E+01 -0.52489398623E+01  0.21778904864E+01  0.10273133728E+02  0.10570000000E+00 0.  1.
<mgrwt>
<rscale>  0 0.20082840E+02</rscale>
<asrwt>0</asrwt>
<pdfrwt beam="1">  1        2 0.18799985E-02 0.20082840E+02</pdfrwt>
<pdfrwt beam="2">  1       -2 0.12694220E-02 0.20082840E+02</pdfrwt>
<totfact> 0.39678463E+06</totfact>
</mgrwt>
</event>
<event>
 4    1  0.1607476E-006  0.2002748E+02  0.7818608E-02  0.1744782E+00
         -2   -1    0    0    0  501 -0.00000000000E+00  0.00000000000E+00  0.55679689762E+02  0.55679689823E+02  0.26000000000E-02 0.  1.
          2   -1    0    0  501    0  0.00000000000E+00 -0.00000000000E+00 -0.18009253480E+01  0.18009272248E+01  0.26000000000E-02 0. -1.
        -13    1    1    2    0    0  0.16996696697E+01 -0.98563097535E+01  0.28310217287E+02  0.30025244283E+02  0.10570000000E+00 0.  1.
         13    1    1    2    0    0 -0.16996696697E+01  0.98563097535E+01  0.25568547128E+02  0.27455372765E+02  0.10570000000E+00 0. -1.
<mgrwt>
<rscale>  0 0.20027483E+02</rscale>
<asrwt>0</asrwt>
<pdfrwt beam="2">  1        2 0.27706561E-03 0.20027483E+02</pdfrwt>
<pdfrwt beam="1">  1       -2 0.85661055E-02 0.20027483E+02</pdfrwt>
<totfact> 0.33257134E+06</totfact>
</mgrwt>
</event>
<event>
 5    1  0.1607476E-006  0.2000231E+02  0.7818608E-02  0.1745282E+00
          2   -1    0    0  501    0  0.00000000000E+00  0.00000000000E+00  0.76472597609E+02  0.76472597653E+02  0.26000000000E-02 0.  1.
         -2   -1    0    0    0  501 -0.00000000000E+00 -0.00000000000E+00 -0.13079582624E+01  0.13079608466E+01  0.26000000000E-02 0. -1.
       1023    2    1    2    0    0  0.00000000000E+00  0.00000000000E+00  0.75164639346E+02  0.77780558500E+02  0.20002306678E+02 0.  0.
        -13    1    3    3    0    0  0.42083064431E+01  0.90720304934E+01  0.37513279387E+02  0.38823560929E+02  0.10570000000E+00 0. -1.
         13    1    3    3    0    0 -0.42083064431E+01 -0.90720304934E+01  0.37651359960E+02  0.38956997570E+02  0.10570000000E+00 0.  1.
<mgrwt>
<rscale>  0 0.20002307E+02</rscale>
<asrwt>0</asrwt>
<pdfrwt beam="1">  1        2 0.11765015E-01 0.20002307E+02</pdfrwt>
<pdfrwt beam="2">  1       -2 0.20122455E-03 0.20002307E+02</pdfrwt>
<totfact> 0.49839842E+06</totfact>
</mgrwt>
</event>
<event>
 5    1  0.1607476E-006  0.2000165E+02  0.7818608E-02  0.1745295E+00
         -2   -1    0    0    0  501 -0.00000000000E+00  0.00000000000E+00  0.58244221990E+02  0.58244222048E+02  0.26000000000E-02 0. -1.
          2   -1    0    0  501    0  0.00000000000E+00 -0.00000000000E+00 -0.17171914906E+01  0.17171934589E+01  0.26000000000E-02 0.  1.
       1023    2    1    2    0    0  0.00000000000E+00  0.00000000000E+00  0.56527030499E+02  0.59961415506E+02  0.20001654245E+02 0.  0.
        -13    1    3    3    0    0  0.99398248797E+01  0.10975532576E+01  0.28338691093E+02  0.30051577782E+02  0.10570000000E+00 0.  1.
         13    1    3    3    0    0 -0.99398248797E+01 -0.10975532576E+01  0.28188339406E+02  0.29909837725E+02  0.10570000000E+00 0. -1.
<mgrwt>
<rscale>  0 0.20001654E+02</rscale>
<asrwt>0</asrwt>
<pdfrwt beam="2">  1        2 0.26418350E-03 0.20001654E+02</pdfrwt>
<pdfrwt beam="1">  1       -2 0.89606483E-02 0.20001654E+02</pdfrwt>
<totfact> 0.33114065E+06</totfact>
</mgrwt>
</event>
<event>
 5    1  0.1607476E-006  0.2000155E+02  0.7818608E-02  0.1745297E+00
         -2   -1    0    0    0  501 -0.00000000000E+00  0.00000000000E+00  0.24289138256E+01  0.24289152172E+01  0.26000000000E-02 0.  1.
          2   -1    0    0  501    0  0.00000000000E+00 -0.00000000000E+00 -0.41177054571E+02  0.41177054653E+02  0.26000000000E-02 0. -1.
       1023    2    1    2    0    0  0.00000000000E+00  0.00000000000E+00 -0.38748140746E+02  0.43605969871E+02  0.20001554867E+02 0.  0.
        -13    1    3    3    0    0 -0.98315565877E+01 -0.18287001755E+01 -0.19432874010E+02  0.21855237680E+02  0.10570000000E+00 0.  1.
         13    1    3    3    0    0  0.98315565877E+01  0.18287001755E+01 -0.19315266736E+02  0.21750732191E+02  0.10570000000E+00 0. -1.
<mgrwt>
<rscale>  0 0.20001555E+02</rscale>
<asrwt>0</asrwt>
<pdfrwt beam="2">  1        2 0.63349311E-02 0.20001555E+02</pdfrwt>
<pdfrwt beam="1">  1       -2 0.37367919E-03 0.20001555E+02</pdfrwt>
<totfact> 0.45060991E+06</totfact>
</mgrwt>
</event>
<event>
 5    1  0.1607476E-006  0.2000259E+02  0.7818608E-02  0.1745277E+00
         -2   -1    0    0    0  501 -0.00000000000E+00  0.00000000000E+00  0.21554476065E+02  0.21554476222E+02  0.26000000000E-02 0.  1.
          2   -1    0    0  501    0  0.00000000000E+00 -0.00000000000E+00 -0.46406073197E+01  0.46406080481E+01  0.26000000000E-02 0. -1.
       1023    2    1    2    0    0  0.00000000000E+00  0.00000000000E+00  0.16913868746E+02  0.26195084270E+02  0.20002586932E+02 0.  0.
        -13    1    3    3    0    0 -0.98444016155E+01 -0.17595791812E+01  0.85611796639E+01  0.13164852137E+02  0.10570000000E+00 0. -1.
         13    1    3    3    0    0  0.98444016155E+01  0.17595791812E+01  0.83526890818E+01  0.13030232133E+02  0.10570000000E+00 0.  1.
<mgrwt>
<rscale>  0 0.20002587E+02</rscale>
<asrwt>0</asrwt>
<pdfrwt beam="2">  1        2 0.71393966E-03 0.20002587E+02</pdfrwt>
<pdfrwt beam="1">  1       -2 0.33160733E-02 0.20002587E+02</pdfrwt>
<totfact> 0.37186855E+06</totfact>
</mgrwt>
</event>
<event>
 4    1  0.1607476E-006  0.2005734E+02  0.7818608E-02  0.1744190E+00
          2   -1    0    0  501    0  0.00000000000E+00  0.00000000000E+00  0.14028450830E+01  0.14028474924E+01  0.26000000000E-02 0. -1.
         -2   -1    0    0    0  501 -0.00000000000E+00 -0.00000000000E+00 -0.71692965713E+02  0.71692965760E+02  0.26000000000E-02 0.  1.
        -13    1    1    2    0    0 -0.98404779124E-01  0.10024600937E+02 -0.34246936684E+02  0.35684256363E+02  0.10570000000E+00 0.  1.
         13    1    1    2    0    0  0.98404779124E-01 -0.10024600937E+02 -0.36043183946E+02  0.37411556889E+02  0.10570000000E+00 0. -1.
<mgrwt>
<rscale>  0 0.20057339E+02</rscale>
<asrwt>0</asrwt>
<pdfrwt beam="1">  1        2 0.21582257E-03 0.20057339E+02</pdfrwt>
<pdfrwt beam="2">  1       -2 0.11029684E-01 0.20057339E+02</pdfrwt>
<totfact> 0.31741055E+06</totfact>
</mgrwt>
</event>
<event>
 5    1  0.1607476E-006  0.2000371E+02  0.7818608E-02  0.1745254E+00
         -2   -1    0    0    0  501 -0.00000000000E+00  0.00000000000E+00  0.12438177395E+01  0.12438204569E+01  0.26000000000E-02 0.  1.
          2   -1    0    0  501    0  0.00000000000E+00 -0.00000000000E+00 -0.80427347522E+02  0.80427347564E+02  0.26000000000E-02 0. -1.
       1023    2    1    2    0    0  0.00000000000E+00  0.00000000000E+00 -0.79183529782E+02  0.81671168021E+02  0.20003707084E+02 0.  0.
        -13    1    3    3    0    0 -0.84477372538E+01 -0.53536465995E+01 -0.39549896372E+02  0.40794990773E+02  0.10570000000E+00 0.  1.
         13    1    3    3    0    0  0.84477372538E+01  0.53536465995E+01 -0.39633633410E+02  0.40876177248E+02  0.10570000000E+00 0. -1.
<mgrwt>
<rscale>  0 0.20003707E+02</rscale>
<asrwt>0</asrwt>
<pdfrwt beam="2">  1        2 0.12373434E-01 0.20003707E+02</pdfrwt>
<pdfrwt beam="1">  1       -2 0.19135685E-03 0.20003707E+02</pdfrwt>
<totfact> 0.50332789E+06</totfact>
</mgrwt>
</event>
<event>
 5    1  0.1607476E-006  0.2000417E+02  0.7818608E-02  0.1745245E+00
         -2   -1    0    0    0  501 -0.00000000000E+00  0.00000000000E+00  0.11995915115E+01  0.11995943291E+01  0.26000000000E-02 0. -1.
          2   -1    0    0  501    0  0.00000000000E+00 -0.00000000000E+00 -0.83396408134E+02  0.83396408174E+02  0.26000000000E-02 0.  1.
       1023    2    1    2    0    0  0.00000000000E+00  0.00000000000E+00 -0.82196816622E+02  0.84596002503E+02  0.20004173982E+02 0.  0.
        -13    1    3    3    0    0  0.75421659171E+01  0.65666767508E+01 -0.40428936896E+02  0.41647516388E+02  0.10570000000E+00 0. -1.
         13    1    3    3    0    0 -0.75421659171E+01 -0.65666767508E+01 -0.41767879727E+02  0.42948486116E+02  0.10570000000E+00 0.  1.
<mgrwt>
<rscale>  0 0.20004174E+02</rscale>
<asrwt>0</asrwt>
<pdfrwt beam="2">  1        2 0.12830212E-01 0.20004174E+02</pdfrwt>
<pdfrwt beam="1">  1       -2 0.18455283E-03 0.20004174E+02</pdfrwt>
<totfact> 0.50702371E+06</totfact>
</mgrwt>
</event>
<event>
 5    1  0.1607476E-006  0.2000475E+02  0.7818608E-02  0.1745234E+00
         -2   -1    0    0    0  501 -0.00000000000E+00  0.00000000000E+00  0.30844010725E+02  0.30844010835E+02  0.26000000000E-02 0.  1.
          2   -1    0    0  501    0  0.00000000000E+00 -0.00000000000E+00 -0.32436594555E+01  0.32436604976E+01  0.26000000000E-02 0. -1.
       1023    2    1    2    0    0  0.00000000000E+00  0.00000000000E+00  0.27600351270E+02  0.34087671333E+02  0.20004748103E+02 0.  0.
        -13    1    3    3    0    0  0.99293146396E+01 -0.11920591597E+01  0.14064264475E+02  0.17257665021E+02  0.10570000000E+00 0.  1.
         13    1    3    3    0    0 -0.99293146396E+01  0.11920591597E+01  0.13536086795E+02  0.16830006312E+02  0.10570000000E+00 0. -1.
<mgrwt>
<rscale>  0 0.20004748E+02</rscale>
<asrwt>0</asrwt>
<pdfrwt beam="2">  1        2 0.49902461E-03 0.20004748E+02</pdfrwt>
<pdfrwt beam="1">  1       -2 0.47452326E-02 0.20004748E+02</pdfrwt>
<totfact> 0.35942638E+06</totfact>
</mgrwt>
</event>
<event>
 4    1  0.1607476E-006  0.2011156E+02  0.7818608E-02  0.1743119E+00
         -2   -1    0    0    0  501 -0.00000000000E+00  0.00000000000E+00  0.85297829235E+01  0.85297833198E+01  0.26000000000E-02 0.  1.
          2   -1    0    0  501    0  0.00000000000E+00 -0.00000000000E+00 -0.11854777628E+02  0.11854777913E+02  0.26000000000E-02 0. -1.
        -13    1    1    2    0    0 -0.43427375514E+01 -0.90483999602E+01 -0.10421409673E+01  0.10091092189E+02  0.10570000000E+00 0. -1.
         13    1    1    2    0    0  0.43427375514E+01  0.90483999602E+01 -0.22828537369E+01  0.10293469044E+02  0.10570000000E+00 0.  1.
<mgrwt>
<rscale>  0 0.20111558E+02</rscale>
<asrwt>0</asrwt>
<pdfrwt beam="2">  1        2 0.18238120E-02 0.20111558E+02</pdfrwt>
<pdfrwt beam="1">  1       -2 0.13122744E-02 0.20111558E+02</pdfrwt>
<totfact> 0.39459535E+06</totfact>
</mgrwt>
</event>
<event>
 5    1  0.1607476E-006  0.2000114E+02  0.7818608E-02  0.1745305E+00
          2   -1    0    0  501    0  0.00000000000E+00  0.00000000000E+00  0.43189131078E+01  0.43189138904E+01  0.26000000000E-02 0. -1.
         -2   -1    0    0    0  501 -0.00000000000E+00 -0.00000000000E+00 -0.23156614524E+02  0.23156614670E+02  0.26000000000E-02 0.  1.
       1023    2    1    2    0    0  0.00000000000E+00  0.00000000000E+00 -0.18837701416E+02  0.27475528560E+02  0.20001141843E+02 0.  0.
        -13    1    3    3    0    0  0.89478603113E+01  0.44649543378E+01 -0.94394505484E+01  0.13751887890E+02  0.10570000000E+00 0. -1.
         13    1    3    3    0    0 -0.89478603113E+01 -0.44649543378E+01 -0.93982508680E+01  0.13723640671E+02  0.10570000000E+00 0.  1.
<mgrwt>
<rscale>  0 0.20001142E+02</rscale>
<asrwt>0</asrwt>
<pdfrwt beam="1">  1        2 0.66444825E-03 0.20001142E+02</pdfrwt>
<pdfrwt beam="2">  1       -2 0.35625561E-02 0.20001142E+02</pdfrwt>
<totfact> 0.36960121E+06</totfact>
</mgrwt>
</event>
<event>
 4    1  0.1607476E-006  0.2002122E+02  0.7818608E-02  0.1744906E+00
         -2   -1    0    0    0  501 -0.00000000000E+00  0.00000000000E+00  0.11748094739E+03  0.11748094742E+03  0.26000000000E-02 0. -1.
          2   -1    0    0  501    0  0.00000000000E+00 -0.00000000000E+00 -0.85300692340E+00  0.85301088584E+00  0.26000000000E-02 0.  1.
        -13    1    1    2    0    0 -0.84890475470E+01  0.53031723275E+01  0.59002228278E+02  0.59845314597E+02  0.10570000000E+00 0.  1.
         13    1    1    2    0    0  0.84890475470E+01 -0.53031723275E+01  0.57625712191E+02  0.58488643710E+02  0.10570000000E+00 0. -1.
<mgrwt>
<rscale>  0 0.20021219E+02</rscale>
<asrwt>0</asrwt>
<pdfrwt beam="2">  1        2 0.13123218E-03 0.20021219E+02</pdfrwt>
<pdfrwt beam="1">  1       -2 0.18073986E-01 0.20021219E+02</pdfrwt>
<totfact> 0.28443607E+06</totfact>
</mgrwt>
</event>
<event>
 5    1  0.1607476E-006  0.2001173E+02  0.7818608E-02  0.1745095E+00
         -2   -1    0    0    0  501 -0.00000000000E+00  0.00000000000E+00  0.15061857500E+02  0.15061857724E+02  0.26000000000E-02 0. -1.
          2   -1    0    0  501    0  0.00000000000E+00 -0.00000000000E+00 -0.66470775406E+01  0.66470780491E+01  0.26000000000E-02 0.  1.
       1023    2    1    2    0    0  0.00000000000E+00  0.00000000000E+00  0.84147799593E+01  0.21708935773E+02  0.20011730826E+02 0.  0.
        -13    1    3    3    0    0  0.99610994420E+01  0.93276844263E+00  0.40855666223E+01  0.10807246929E+02  0.10570000000E+00 0. -1.
         13    1    3    3    0    0 -0.99610994420E+01 -0.93276844263E+00  0.43292133370E+01  0.10901688845E+02  0.10570000000E+00 0.  1.
<mgrwt>
<rscale>  0 0.20011731E+02</rscale>
<asrwt>0</asrwt>
<pdfrwt beam="2">  1        2 0.10226274E-02 0.20011731E+02</pdfrwt>
<pdfrwt beam="1">  1       -2 0.23172089E-02 0.20011731E+02</pdfrwt>
<totfact> 0.38237208E+06</totfact>
</mgrwt>
</event>
<event>
 5    1  0.1607476E-006  0.2000184E+02  0.7818608E-02  0.1745291E+00
         -2   -1    0    0    0  501 -0.00000000000E+00  0.00000000000E+00  0.17727112996E+02  0.17727113186E+02  0.26000000000E-02 0.  1.
          2   -1    0    0  501    0  0.00000000000E+00 -0.00000000000E+00 -0.56421167185E+01  0.56421173176E+01  0.26000000000E-02 0. -1.
       1023    2    1    2    0    0  0.00000000000E+00  0.00000000000E+00  0.12084996277E+02  0.23369230504E+02  0.20001844898E+02 0.  0.
        -13    1    3    3    0    0 -0.13221254396E+01 -0.99125481328E+01  0.60126838357E+01  0.11669197297E+02  0.10570000000E+00 0. -1.
         13    1    3    3    0    0  0.13221254396E+01  0.99125481328E+01  0.60723124415E+01  0.11700033207E+02  0.10570000000E+00 0.  1.
<mgrwt>
<rscale>  0 0.20001845E+02</rscale>
<asrwt>0</asrwt>
<pdfrwt beam="2">  1        2 0.86801802E-03 0.20001845E+02</pdfrwt>
<pdfrwt beam="1">  1       -2 0.27272482E-02 0.20001845E+02</pdfrwt>
<totfact> 0.37796061E+06</totfact>
</mgrwt>
</event>
<event>
 5    1  0.1607476E-006  0.2000205E+02  0.7818608E-02  0.1745287E+00
         -2   -1    0    0    0  501 -0.00000000000E+00  0.00000000000E+00  0.35052181180E+02  0.35052181276E+02  0.26000000000E-02 0. -1.
          2   -1    0    0  501    0  0.00000000000E+00 -0.00000000000E+00 -0.28534729854E+01  0.28534741699E+01  0.26000000000E-02 0.  1.
       1023    2    1    2    0    0  0.00000000000E+00  0.00000000000E+00  0.32198708195E+02  0.37905655446E+02  0.20002047530E+02 0.  0.
        -13    1    3    3    0    0  0.99009338998E+01 -0.14072669207E+01  0.16060907171E+02  0.18920169236E+02  0.10570000000E+00 0. -1.
         13    1    3    3    0    0 -0.99009338998E+01  0.14072669207E+01  0.16137801023E+02  0.18985486210E+02  0.10570000000E+00 0.  1.
<mgrwt>
<rscale>  0 0.20002048E+02</rscale>
<asrwt>0</asrwt>
<pdfrwt beam="2">  1        2 0.43899597E-03 0.20002048E+02</pdfrwt>
<pdfrwt beam="1">  1       -2 0.53926430E-02 0.20002048E+02</pdfrwt>
<totfact> 0.35459054E+06</totfact>
</mgrwt>
</event>
<event>
 5    1  0.1607476E-006  0.2000670E+02  0.7818608E-02  0.1745195E+00
          2   -1    0    0  501    0  0.00000000000E+00  0.00000000000E+00  0.32683957792E+02  0.32683957895E+02  0.26000000000E-02 0.  1.
         -2   -1    0    0    0  501 -0.00000000000E+00 -0.00000000000E+00 -0.30616539585E+01  0.30616550625E+01  0.26000000000E-02 0. -1.
       1023    2    1    2    0    0  0.00000000000E+00  0.00000000000E+00  0.29622303833E+02  0.35745612957E+02  0.20006697912E+02 0.  0.
        -13    1    3    3    0    0  0.97221696045E+01  0.23520183190E+01  0.14912943440E+02  0.17957160871E+02  0.10570000000E+00 0. -1.
         13    1    3    3    0    0 -0.97221696045E+01 -0.23520183190E+01  0.14709360393E+02  0.17788452087E+02  0.10570000000E+00 0.  1.
<mgrwt>
<rscale>  0 0.20006698E+02</rscale>
<asrwt>0</asrwt>
<pdfrwt beam="1">  1        2 0.50283011E-02 0.20006698E+02</pdfrwt>
<pdfrwt beam="2">  1       -2 0.47102380E-03 0.20006698E+02</pdfrwt>
<totfact> 0.43760972E+06</totfact>
</mgrwt>
</event>
<event>
 5    1  0.1607476E-006  0.2000371E+02  0.7818608E-02  0.1745254E+00
         -2   -1    0    0    0  501 -0.00000000000E+00  0.00000000000E+00  0.58824419433E+01  0.58824425179E+01  0.26000000000E-02 0. -1.
          2   -1    0    0  501    0  0.00000000000E+00 -0.00000000000E+00 -0.17006051341E+02  0.17006051539E+02  0.26000000000E-02 0.  1.
       1023    2    1    2    0    0  0.00000000000E+00  0.00000000000E+00 -0.11123609397E+02  0.22888494057E+02  0.20003711510E+02 0.  0.
        -13    1    3    3    0    0  0.70237799145E+01 -0.71184902272E+01 -0.54017840129E+01  0.11366478365E+02  0.10570000000E+00 0. -1.
         13    1    3    3    0    0 -0.70237799145E+01  0.71184902272E+01 -0.57218253843E+01  0.11522015693E+02  0.10570000000E+00 0.  1.
<mgrwt>
<rscale>  0 0.20003712E+02</rscale>
<asrwt>0</asrwt>
<pdfrwt beam="2">  1        2 0.26163156E-02 0.20003712E+02</pdfrwt>
<pdfrwt beam="1">  1       -2 0.90499114E-03 0.20003712E+02</pdfrwt>
<totfact> 0.41087161E+06</totfact>
</mgrwt>
</event>
<event>
 4    1  0.1607476E-006  0.2002995E+02  0.7818608E-02  0.1744733E+00
         -2   -1    0    0    0  501 -0.00000000000E+00  0.00000000000E+00  0.38659466943E+02  0.38659467031E+02  0.26000000000E-02 0.  1.
          2   -1    0    0  501    0  0.00000000000E+00 -0.00000000000E+00 -0.25944403856E+01  0.25944416884E+01  0.26000000000E-02 0. -1.
        -13    1    1    2    0    0 -0.95787277289E+01  0.29001518087E+01  0.18762537536E+02  0.21265156776E+02  0.10570000000E+00 0. -1.
         13    1    1    2    0    0  0.95787277289E+01 -0.29001518087E+01  0.17302489021E+02  0.19988751943E+02  0.10570000000E+00 0.  1.
<mgrwt>
<rscale>  0 0.20029949E+02</rscale>
<asrwt>0</asrwt>
<pdfrwt beam="2">  1        2 0.39914480E-03 0.20029949E+02</pdfrwt>
<pdfrwt beam="1">  1       -2 0.59476101E-02 0.20029949E+02</pdfrwt>
<totfact> 0.34951017E+06</totfact>
</mgrwt>
</event>
<event>
 5    1  0.1607476E-006  0.2000131E+02  0.7818608E-02  0.1745302E+00
         -2   -1    0    0    0  501 -0.00000000000E+00  0.00000000000E+00  0.24386286916E+02  0.24386287054E+02  0.26000000000E-02 0.  1.
          2   -1    0    0  501    0  0.00000000000E+00 -0.00000000000E+00 -0.41012019926E+01  0.41012028168E+01  0.26000000000E-02 0. -1.
       1023    2    1    2    0    0  0.00000000000E+00  0.00000000000E+00  0.20285084923E+02  0.28487489871E+02  0.20001310178E+02 0.  0.
        -13    1    3    3    0    0 -0.58322832383E+01 -0.81231342943E+01  0.10095494172E+02  0.14210243263E+02  0.10570000000E+00 0. -1.
         13    1    3    3    0    0  0.58322832383E+01  0.81231342943E+01  0.10189590752E+02  0.14277246608E+02  0.10570000000E+00 0.  1.
<mgrwt>
<rscale>  0 0.20001310E+02</rscale>
<asrwt>0</asrwt>
<pdfrwt beam="2">  1        2 0.63095423E-03 0.20001310E+02</pdfrwt>
<pdfrwt beam="1">  1       -2 0.37517365E-02 0.20001310E+02</pdfrwt>
<totfact> 0.36787577E+06</totfact>
</mgrwt>
</event>
<event>
 4    1  0.1607476E-006  0.2018083E+02  0.7818608E-02  0.1741756E+00
          2   -1    0    0  501    0  0.00000000000E+00  0.00000000000E+00  0.87899100517E+00  0.87899485048E+00  0.26000000000E-02 0.  1.
         -2   -1    0    0    0  501 -0.00000000000E+00 -0.00000000000E+00 -0.11583303805E+03  0.11583303808E+03  0.26000000000E-02 0. -1.
        -13    1    1    2    0    0 -0.93770690579E+01 -0.37213611859E+01 -0.56521481524E+02  0.57414867407E+02  0.10570000000E+00 0. -1.
         13    1    1    2    0    0  0.93770690579E+01  0.37213611859E+01 -0.58432565517E+02  0.59297165519E+02  0.10570000000E+00 0.  1.
<mgrwt>
<rscale>  0 0.20180825E+02</rscale>
<asrwt>0</asrwt>
<pdfrwt beam="1">  1        2 0.13522978E-03 0.20180825E+02</pdfrwt>
<pdfrwt beam="2">  1       -2 0.17820456E-01 0.20180825E+02</pdfrwt>
<totfact> 0.28064109E+06</totfact>
</mgrwt>
</event>
<event>
 5    1  0.1607476E-006  0.2000128E+02  0.7818608E-02  0.1745303E+00
          2   -1    0    0  501    0  0.00000000000E+00  0.00000000000E+00  0.32578442222E+01  0.32578452597E+01  0.26000000000E-02 0. -1.
         -2   -1    0    0    0  501 -0.00000000000E+00 -0.00000000000E+00 -0.30699058545E+02  0.30699058655E+02  0.26000000000E-02 0.  1.
       1023    2    1    2    0    0  0.00000000000E+00  0.00000000000E+00 -0.27441214323E+02  0.33956903915E+02  0.20001276959E+02 0.  0.
        -13    1    3    3    0    0 -0.59910451559E+01 -0.80068059188E+01 -0.13710646318E+02  0.16970402412E+02  0.10570000000E+00 0. -1.
         13    1    3    3    0    0  0.59910451559E+01  0.80068059188E+01 -0.13730568005E+02  0.16986501503E+02  0.10570000000E+00 0.  1.
<mgrwt>
<rscale>  0 0.20001277E+02</rscale>
<asrwt>0</asrwt>
<pdfrwt beam="1">  1        2 0.50120691E-03 0.20001277E+02</pdfrwt>
<pdfrwt beam="2">  1       -2 0.47229320E-02 0.20001277E+02</pdfrwt>
<totfact> 0.35973840E+06</totfact>
</mgrwt>
</event>
<event>
 4    1  0.1607476E-006  0.2001400E+02  0.7818608E-02  0.1745050E+00
         -2   -1    0    0    0  501 -0.00000000000E+00  0.00000000000E+00  0.89434483807E+01  0.89434487587E+01  0.26000000000E-02 0. -1.
          2   -1    0    0  501    0  0.00000000000E+00 -0.00000000000E+00 -0.11197032214E+02  0.11197032516E+02  0.26000000000E-02 0.  1.
        -13    1    1    2    0    0  0.61734798850E+00 -0.99831089954E+01 -0.83283253622E+00  0.10037348568E+02  0.10570000000E+00 0. -1.
         13    1    1    2    0    0 -0.61734798850E+00  0.99831089954E+01 -0.14207512974E+01  0.10103132707E+02  0.10570000000E+00 0.  1.
<mgrwt>
<rscale>  0 0.20014004E+02</rscale>
<asrwt>0</asrwt>
<pdfrwt beam="2">  1        2 0.17226204E-02 0.20014004E+02</pdfrwt>
<pdfrwt beam="1">  1       -2 0.13759152E-02 0.20014004E+02</pdfrwt>
<totfact> 0.39729661E+06</totfact>
</mgrwt>
</event>
<event>
 5    1  0.1607476E-006  0.2000133E+02  0.7818608E-02  0.1745302E+00
         -2   -1    0    0    0  501 -0.00000000000E+00  0.00000000000E+00  0.60252848412E+02  0.60252848468E+02  0.26000000000E-02 0. -1.
          2   -1    0    0  501    0  0.00000000000E+00 -0.00000000000E+00 -0.16598918854E+01  0.16598939217E+01  0.26000000000E-02 0.  1.
       1023    2    1    2    0    0  0.00000000000E+00  0.00000000000E+00  0.58592956526E+02  0.61912742389E+02  0.20001327848E+02 0.  0.
        -13    1    3    3    0    0  0.51607731771E+01  0.85655429170E+01  0.29293105941E+02  0.30953179698E+02  0.10570000000E+00 0.  1.
         13    1    3    3    0    0 -0.51607731771E+01 -0.85655429170E+01  0.29299850585E+02  0.30959562691E+02  0.10570000000E+00 0. -1.
<mgrwt>
<rscale>  0 0.20001328E+02</rscale>
<asrwt>0</asrwt>
<pdfrwt beam="2">  1        2 0.25536815E-03 0.20001328E+02</pdfrwt>
<pdfrwt beam="1">  1       -2 0.92696689E-02 0.20001328E+02</pdfrwt>
<totfact> 0.32932309E+06</totfact>
</mgrwt>
</event>
<event>
 4    1  0.1607476E-006  0.2019201E+02  0.7818608E-02  0.1741536E+00
          2   -1    0    0  501    0  0.00000000000E+00  0.00000000000E+00  0.32254901940E+01  0.32254912419E+01  0.26000000000E-02 0. -1.
         -2   -1    0    0    0  501 -0.00000000000E+00 -0.00000000000E+00 -0.31601177456E+02  0.31601177563E+02  0.26000000000E-02 0.  1.
        -13    1    1    2    0    0  0.58696451232E+01  0.82125402303E+01 -0.13946469312E+02  0.17216670110E+02  0.10570000000E+00 0. -1.
         13    1    1    2    0    0 -0.58696451232E+01 -0.82125402303E+01 -0.14429217950E+02  0.17609998695E+02  0.10570000000E+00 0.  1.
<mgrwt>
<rscale>  0 0.20192009E+02</rscale>
<asrwt>0</asrwt>
<pdfrwt beam="1">  1        2 0.49622937E-03 0.20192009E+02</pdfrwt>
<pdfrwt beam="2">  1       -2 0.48617195E-02 0.20192009E+02</pdfrwt>
<totfact> 0.35129875E+06</totfact>
</mgrwt>
</event>
<event>
 4    1  0.1607476E-006  0.2002608E+02  0.7818608E-02  0.1744810E+00
          2   -1    0    0  501    0  0.00000000000E+00  0.00000000000E+00  0.32759116273E+01  0.32759126591E+01  0.26000000000E-02 0. -1.
         -2   -1    0    0    0  501 -0.00000000000E+00 -0.00000000000E+00 -0.30605507943E+02  0.30605508053E+02  0.26000000000E-02 0.  1.
        -13    1    1    2    0    0  0.70359450402E+01  0.71192148390E+01 -0.14086217423E+02  0.17280637613E+02  0.10570000000E+00 0.  1.
         13    1    1    2    0    0 -0.70359450402E+01 -0.71192148390E+01 -0.13243378893E+02  0.16600783100E+02  0.10570000000E+00 0. -1.
<mgrwt>
<rscale>  0 0.20026079E+02</rscale>
<asrwt>0</asrwt>
<pdfrwt beam="1">  1        2 0.50398651E-03 0.20026079E+02</pdfrwt>
<pdfrwt beam="2">  1       -2 0.47085396E-02 0.20026079E+02</pdfrwt>
<totfact> 0.35888123E+06</totfact>
</mgrwt>
</event>
<event>
 5    1  0.1653778E-006  0.2000210E+02  0.7818608E-02  0.1745286E+00
          2   -1    0    0  501    0  0.00000000000E+00  0.00000000000E+00  0.91476756204E+02  0.91476756241E+02  0.26000000000E-02 0. -1.
         -2   -1    0    0    0  501 -0.00000000000E+00 -0.00000000000E+00 -0.10934022669E+01  0.10934053582E+01  0.26000000000E-02 0.  1.
       1023    2    1    2    0    0  0.00000000000E+00  0.00000000000E+00  0.90383353937E+02  0.92570161599E+02  0.20002103629E+02 0.  0.
        -13    1    3    3    0    0  0.20058644706E+01 -0.97972224416E+01  0.45322990523E+02  0.46413292301E+02  0.10570000000E+00 0.  1.
         13    1    3    3    0    0 -0.20058644706E+01  0.97972224416E+01  0.45060363414E+02  0.46156869298E+02  0.10570000000E+00 0. -1.
<mgrwt>
<rscale>  0 0.20002104E+02</rscale>
<asrwt>0</asrwt>
<pdfrwt beam="1">  1        2 0.14073347E-01 0.20002104E+02</pdfrwt>
<pdfrwt beam="2">  1       -2 0.16821598E-03 0.20002104E+02</pdfrwt>
<totfact> 0.51713887E+06</totfact>
</mgrwt>
</event>
<event>
 5    1  0.1607476E-006  0.2000411E+02  0.7818608E-02  0.1745246E+00
         -2   -1    0    0    0  501 -0.00000000000E+00  0.00000000000E+00  0.51116237566E+02  0.51116237632E+02  0.26000000000E-02 0.  1.
          2   -1    0    0  501    0  0.00000000000E+00 -0.00000000000E+00 -0.19571294102E+01  0.19571311372E+01  0.26000000000E-02 0. -1.
       1023    2    1    2    0    0  0.00000000000E+00  0.00000000000E+00  0.49159108155E+02  0.53073368769E+02  0.20004113523E+02 0.  0.
        -13    1    3    3    0    0 -0.94924994012E+01  0.31477163390E+01  0.24896865113E+02  0.26830593135E+02  0.10570000000E+00 0.  1.
         13    1    3    3    0    0  0.94924994012E+01 -0.31477163390E+01  0.24262243042E+02  0.26242775634E+02  0.10570000000E+00 0. -1.
<mgrwt>
<rscale>  0 0.20004114E+02</rscale>
<asrwt>0</asrwt>
<pdfrwt beam="2">  1        2 0.30109698E-03 0.20004114E+02</pdfrwt>
<pdfrwt beam="1">  1       -2 0.78640363E-02 0.20004114E+02</pdfrwt>
<totfact> 0.33775095E+06</totfact>
</mgrwt>
</event>
<event>
 5    1  0.1607476E-006  0.2000190E+02  0.7818608E-02  0.1745290E+00
          2   -1    0    0  501    0  0.00000000000E+00  0.00000000000E+00  0.18478412410E+02  0.18478412593E+02  0.26000000000E-02 0.  1.
         -2   -1    0    0    0  501 -0.00000000000E+00 -0.00000000000E+00 -0.54127487169E+01  0.54127493414E+01  0.26000000000E-02 0. -1.
       1023    2    1    2    0    0  0.00000000000E+00  0.00000000000E+00  0.13065663693E+02  0.23891161934E+02  0.20001901180E+02 0.  0.
        -13    1    3    3    0    0 -0.71143830951E+01 -0.70280348477E+01  0.65197705710E+01  0.11938437981E+02  0.10570000000E+00 0. -1.
         13    1    3    3    0    0  0.71143830951E+01  0.70280348477E+01  0.65458931222E+01  0.11952723953E+02  0.10570000000E+00 0.  1.
<mgrwt>
<rscale>  0 0.20001901E+02</rscale>
<asrwt>0</asrwt>
<pdfrwt beam="1">  1        2 0.28428328E-02 0.20001901E+02</pdfrwt>
<pdfrwt beam="2">  1       -2 0.83273063E-03 0.20001901E+02</pdfrwt>
<totfact> 0.41383442E+06</totfact>
</mgrwt>
</event>
<event>
 5    1  0.1607476E-006  0.2000116E+02  0.7818608E-02  0.1745305E+00
         -2   -1    0    0    0  501 -0.00000000000E+00  0.00000000000E+00  0.30377496490E+01  0.30377507617E+01  0.26000000000E-02 0. -1.
          2   -1    0    0  501    0  0.00000000000E+00 -0.00000000000E+00 -0.32922918933E+02  0.32922919036E+02  0.26000000000E-02 0.  1.
       1023    2    1    2    0    0  0.00000000000E+00  0.00000000000E+00 -0.29885169284E+02  0.35960669797E+02  0.20001160695E+02 0.  0.
        -13    1    3    3    0    0  0.10398099145E+01  0.99457959482E+01 -0.14977312784E+02  0.18009195774E+02  0.10570000000E+00 0. -1.
         13    1    3    3    0    0 -0.10398099145E+01 -0.99457959482E+01 -0.14907856500E+02  0.17951474023E+02  0.10570000000E+00 0.  1.
<mgrwt>
<rscale>  0 0.20001161E+02</rscale>
<asrwt>0</asrwt>
<pdfrwt beam="2">  1        2 0.50650643E-02 0.20001161E+02</pdfrwt>
<pdfrwt beam="1">  1       -2 0.46734621E-03 0.20001161E+02</pdfrwt>
<totfact> 0.43825060E+06</totfact>
</mgrwt>
</event>
<event>
 4    1  0.1607476E-006  0.2003370E+02  0.7818608E-02  0.1744659E+00
         -2   -1    0    0    0  501 -0.00000000000E+00  0.00000000000E+00  0.73559732127E+02  0.73559732173E+02  0.26000000000E-02 0.  1.
          2   -1    0    0  501    0  0.00000000000E+00 -0.00000000000E+00 -0.13640228612E+01  0.13640253391E+01  0.26000000000E-02 0. -1.
        -13    1    1    2    0    0 -0.40980294392E+01 -0.91244062397E+01  0.38067762842E+02  0.39360060656E+02  0.10570000000E+00 0.  1.
         13    1    1    2    0    0  0.40980294392E+01  0.91244062397E+01  0.34127946423E+02  0.35563696856E+02  0.10570000000E+00 0. -1.
<mgrwt>
<rscale>  0 0.20033697E+02</rscale>
<asrwt>0</asrwt>
<pdfrwt beam="2">  1        2 0.20984984E-03 0.20033697E+02</pdfrwt>
<pdfrwt beam="1">  1       -2 0.11316884E-01 0.20033697E+02</pdfrwt>
<totfact> 0.31667336E+06</totfact>
</mgrwt>
</event>
<event>
 5    1  0.1675929E-006  0.2000159E+02  0.7818608E-02  0.1745296E+00
          2   -1    0    0  501    0  0.00000000000E+00  0.00000000000E+00  0.54078449874E+02  0.54078449936E+02  0.26000000000E-02 0. -1.
         -2   -1    0    0    0  501 -0.00000000000E+00 -0.00000000000E+00 -0.18494591834E+01  0.18494610109E+01  0.26000000000E-02 0.  1.
       1023    2    1    2    0    0  0.00000000000E+00  0.00000000000E+00  0.52228990690E+02  0.55927910947E+02  0.20001593796E+02 0.  0.
        -13    1    3    3    0    0 -0.64842729902E+01  0.76128001404E+01  0.25932337725E+02  0.27793845264E+02  0.10570000000E+00 0. -1.
         13    1    3    3    0    0  0.64842729902E+01 -0.76128001404E+01  0.26296652965E+02  0.28134065683E+02  0.10570000000E+00 0.  1.
<mgrwt>
<rscale>  0 0.20001594E+02</rscale>
<asrwt>0</asrwt>
<pdfrwt beam="1">  1        2 0.83197613E-02 0.20001594E+02</pdfrwt>
<pdfrwt beam="2">  1       -2 0.28453234E-03 0.20001594E+02</pdfrwt>
<totfact> 0.46884798E+06</totfact>
</mgrwt>
</event>
<event>
 5    1  0.1607476E-006  0.2000209E+02  0.7818608E-02  0.1745287E+00
         -2   -1    0    0    0  501 -0.00000000000E+00  0.00000000000E+00  0.17582043678E+01  0.17582062903E+01  0.26000000000E-02 0. -1.
          2   -1    0    0  501    0  0.00000000000E+00 -0.00000000000E+00 -0.56888039088E+02  0.56888039147E+02  0.26000000000E-02 0.  1.
       1023    2    1    2    0    0  0.00000000000E+00  0.00000000000E+00 -0.55129834720E+02  0.58646245437E+02  0.20002085583E+02 0.  0.
        -13    1    3    3    0    0 -0.18086314707E+01 -0.98355177045E+01 -0.27663395827E+02  0.29415696447E+02  0.10570000000E+00 0.  1.
         13    1    3    3    0    0  0.18086314707E+01  0.98355177045E+01 -0.27466438893E+02  0.29230548991E+02  0.10570000000E+00 0. -1.
<mgrwt>
<rscale>  0 0.20002086E+02</rscale>
<asrwt>0</asrwt>
<pdfrwt beam="2">  1        2 0.87520048E-02 0.20002086E+02</pdfrwt>
<pdfrwt beam="1">  1       -2 0.27049318E-03 0.20002086E+02</pdfrwt>
<totfact> 0.47265989E+06</totfact>
</mgrwt>
</event>
<event>
 4    1  0.1607476E-006  0.2052985E+02  0.7818608E-02  0.1734992E+00
          2   -1    0    0  501    0  0.00000000000E+00  0.00000000000E+00  0.71683157881E+01  0.71683162596E+01  0.26000000000E-02 0.  1.
         -2   -1    0    0    0  501 -0.00000000000E+00 -0.00000000000E+00 -0.14699217230E+02  0.14699217460E+02  0.26000000000E-02 0. -1.
        -13    1    1    2    0    0 -0.10239612020E+02  0.37157890320E+00 -0.44131342911E+01  0.11156820872E+02  0.10570000000E+00 0. -1.
         13    1    1    2    0    0  0.10239612020E+02 -0.37157890320E+00 -0.31177671509E+01  0.10710712848E+02  0.10570000000E+00 0.  1.
<mgrwt>
<rscale>  0 0.20529845E+02</rscale>
<asrwt>0</asrwt>
<pdfrwt beam="1">  1        2 0.11028179E-02 0.20529845E+02</pdfrwt>
<pdfrwt beam="2">  1       -2 0.22614181E-02 0.20529845E+02</pdfrwt>
<totfact> 0.36246229E+06</totfact>
</mgrwt>
</event>
<event>
 5    1  0.1607476E-006  0.2000212E+02  0.7818608E-02  0.1745286E+00
          2   -1    0    0  501    0  0.00000000000E+00  0.00000000000E+00  0.22714348828E+02  0.22714348977E+02  0.26000000000E-02 0.  1.
         -2   -1    0    0    0  501 -0.00000000000E+00 -0.00000000000E+00 -0.44034373186E+01  0.44034380862E+01  0.26000000000E-02 0. -1.
       1023    2    1    2    0    0  0.00000000000E+00  0.00000000000E+00  0.18310911509E+02  0.27117787063E+02  0.20002122260E+02 0.  0.
        -13    1    3    3    0    0  0.65107649058E+01 -0.75905119534E+01  0.90684357070E+01  0.13500134445E+02  0.10570000000E+00 0.  1.
         13    1    3    3    0    0 -0.65107649058E+01  0.75905119534E+01  0.92424758021E+01  0.13617652618E+02  0.10570000000E+00 0. -1.
<mgrwt>
<rscale>  0 0.20002122E+02</rscale>
<asrwt>0</asrwt>
<pdfrwt beam="1">  1        2 0.34945153E-02 0.20002122E+02</pdfrwt>
<pdfrwt beam="2">  1       -2 0.67745196E-03 0.20002122E+02</pdfrwt>
<totfact> 0.42154457E+06</totfact>
</mgrwt>
</event>
<event>
 5    1  0.1607476E-006  0.2000426E+02  0.7818608E-02  0.1745243E+00
         -2   -1    0    0    0  501 -0.00000000000E+00  0.00000000000E+00  0.50628443850E+01  0.50628450526E+01  0.26000000000E-02 0.  1.
          2   -1    0    0  501    0  0.00000000000E+00 -0.00000000000E+00 -0.19760161209E+02  0.19760161380E+02  0.26000000000E-02 0. -1.
       1023    2    1    2    0    0  0.00000000000E+00  0.00000000000E+00 -0.14697316824E+02  0.24823006432E+02  0.20004262709E+02 0.  0.
        -13    1    3    3    0    0  0.44200457517E+01  0.89708190666E+01 -0.75199724302E+01  0.12512935587E+02  0.10570000000E+00 0.  1.
         13    1    3    3    0    0 -0.44200457517E+01 -0.89708190666E+01 -0.71773443933E+01  0.12310070845E+02  0.10570000000E+00 0. -1.
<mgrwt>
<rscale>  0 0.20004263E+02</rscale>
<asrwt>0</asrwt>
<pdfrwt beam="2">  1        2 0.30400248E-02 0.20004263E+02</pdfrwt>
<pdfrwt beam="1">  1       -2 0.77889921E-03 0.20004263E+02</pdfrwt>
<totfact> 0.41613672E+06</totfact>
</mgrwt>
</event>
<event>
 5    1  0.1607476E-006  0.2000362E+02  0.7818608E-02  0.1745256E+00
         -2   -1    0    0    0  501 -0.00000000000E+00  0.00000000000E+00  0.29784067946E+02  0.29784068059E+02  0.26000000000E-02 0. -1.
          2   -1    0    0  501    0  0.00000000000E+00 -0.00000000000E+00 -0.33587160348E+01  0.33587170411E+01  0.26000000000E-02 0.  1.
       1023    2    1    2    0    0  0.00000000000E+00  0.00000000000E+00  0.26425351911E+02  0.33142785100E+02  0.20003624186E+02 0.  0.
        -13    1    3    3    0    0 -0.87081666352E+01  0.49178536329E+01  0.13068025688E+02  0.16456060232E+02  0.10570000000E+00 0. -1.
         13    1    3    3    0    0  0.87081666352E+01 -0.49178536329E+01  0.13357326223E+02  0.16686724868E+02  0.10570000000E+00 0.  1.
<mgrwt>
<rscale>  0 0.20003624E+02</rscale>
<asrwt>0</asrwt>
<pdfrwt beam="2">  1        2 0.51672565E-03 0.20003624E+02</pdfrwt>
<pdfrwt beam="1">  1       -2 0.45821642E-02 0.20003624E+02</pdfrwt>
<totfact> 0.36076704E+06</totfact>
</mgrwt>
</event>
<event>
 5    1  0.1607476E-006  0.2000366E+02  0.7818608E-02  0.1745255E+00
          2   -1    0    0  501    0  0.00000000000E+00  0.00000000000E+00  0.26997142233E+02  0.26997142358E+02  0.26000000000E-02 0. -1.
         -2   -1    0    0    0  501 -0.00000000000E+00 -0.00000000000E+00 -0.37054513537E+01  0.37054522659E+01  0.26000000000E-02 0.  1.
       1023    2    1    2    0    0  0.00000000000E+00  0.00000000000E+00  0.23291690879E+02  0.30702594624E+02  0.20003660981E+02 0.  0.
        -13    1    3    3    0    0  0.37959746674E+01 -0.92525496282E+01  0.11768079259E+02  0.15444026684E+02  0.10570000000E+00 0. -1.
         13    1    3    3    0    0 -0.37959746674E+01  0.92525496282E+01  0.11523611621E+02  0.15258567940E+02  0.10570000000E+00 0.  1.
<mgrwt>
<rscale>  0 0.20003661E+02</rscale>
<asrwt>0</asrwt>
<pdfrwt beam="1">  1        2 0.41534065E-02 0.20003661E+02</pdfrwt>
<pdfrwt beam="2">  1       -2 0.57006953E-03 0.20003661E+02</pdfrwt>
<totfact> 0.42871291E+06</totfact>
</mgrwt>
</event>
<event>
 5    1  0.1607476E-006  0.2000302E+02  0.7818608E-02  0.1745268E+00
         -2   -1    0    0    0  501 -0.00000000000E+00  0.00000000000E+00  0.88667519227E+02  0.88667519265E+02  0.26000000000E-02 0. -1.
          2   -1    0    0  501    0  0.00000000000E+00 -0.00000000000E+00 -0.11281473574E+01  0.11281503534E+01  0.26000000000E-02 0.  1.
       1023    2    1    2    0    0  0.00000000000E+00  0.00000000000E+00  0.87539371870E+02  0.89795669619E+02  0.20003016146E+02 0.  0.
        -13    1    3    3    0    0  0.93620728008E+01 -0.35155095956E+01  0.43282532134E+02  0.44422921733E+02  0.10570000000E+00 0. -1.
         13    1    3    3    0    0 -0.93620728008E+01  0.35155095956E+01  0.44256839735E+02  0.45372747886E+02  0.10570000000E+00 0.  1.
<mgrwt>
<rscale>  0 0.20003016E+02</rscale>
<asrwt>0</asrwt>
<pdfrwt beam="2">  1        2 0.17356137E-03 0.20003016E+02</pdfrwt>
<pdfrwt beam="1">  1       -2 0.13641157E-01 0.20003016E+02</pdfrwt>
<totfact> 0.30567279E+06</totfact>
</mgrwt>
</event>
<event>
 5    1  0.1607476E-006  0.2000157E+02  0.7818608E-02  0.1745297E+00
          2   -1    0    0  501    0  0.00000000000E+00  0.00000000000E+00  0.21623479653E+02  0.21623479809E+02  0.26000000000E-02 0. -1.
         -2   -1    0    0    0  501 -0.00000000000E+00 -0.00000000000E+00 -0.46253303779E+01  0.46253311087E+01  0.26000000000E-02 0.  1.
       1023    2    1    2    0    0  0.00000000000E+00  0.00000000000E+00  0.16998149275E+02  0.26248810918E+02  0.20001574834E+02 0.  0.
        -13    1    3    3    0    0  0.52026992340E+01 -0.85401176218E+01  0.84285475984E+01  0.13078733709E+02  0.10570000000E+00 0. -1.
         13    1    3    3    0    0 -0.52026992340E+01  0.85401176218E+01  0.85696016767E+01  0.13170077209E+02  0.10570000000E+00 0.  1.
<mgrwt>
<rscale>  0 0.20001575E+02</rscale>
<asrwt>0</asrwt>
<pdfrwt beam="1">  1        2 0.33266892E-02 0.20001575E+02</pdfrwt>
<pdfrwt beam="2">  1       -2 0.71158936E-03 0.20001575E+02</pdfrwt>
<totfact> 0.41964624E+06</totfact>
</mgrwt>
</event>
<event>
 4    1  0.1607476E-006  0.2056097E+02  0.7818608E-02  0.1734397E+00
         -2   -1    0    0    0  501 -0.00000000000E+00  0.00000000000E+00  0.66076872249E+02  0.66076872301E+02  0.26000000000E-02 0.  1.
          2   -1    0    0  501    0  0.00000000000E+00 -0.00000000000E+00 -0.15994748701E+01  0.15994769833E+01  0.26000000000E-02 0. -1.
        -13    1    1    2    0    0 -0.83657802671E+01 -0.57856932798E+01  0.37139239013E+02  0.38507074326E+02  0.10570000000E+00 0. -1.
         13    1    1    2    0    0  0.83657802671E+01  0.57856932798E+01  0.27338158366E+02  0.29169274957E+02  0.10570000000E+00 0.  1.
<mgrwt>
<rscale>  0 0.20560970E+02</rscale>
<asrwt>0</asrwt>
<pdfrwt beam="2">  1        2 0.24607321E-03 0.20560970E+02</pdfrwt>
<pdfrwt beam="1">  1       -2 0.10165673E-01 0.20560970E+02</pdfrwt>
<totfact> 0.30514289E+06</totfact>
</mgrwt>
</event>
<event>
 4    1  0.1607476E-006  0.2001412E+02  0.7818608E-02  0.1745047E+00
         -2   -1    0    0    0  501 -0.00000000000E+00  0.00000000000E+00  0.21418935265E+01  0.21418951045E+01  0.26000000000E-02 0.  1.
          2   -1    0    0  501    0  0.00000000000E+00 -0.00000000000E+00 -0.46753598943E+02  0.46753599016E+02  0.26000000000E-02 0. -1.
        -13    1    1    2    0    0  0.99502047859E+01  0.10599431141E+01 -0.22289631538E+02  0.24432947044E+02  0.10570000000E+00 0. -1.
         13    1    1    2    0    0 -0.99502047859E+01 -0.10599431141E+01 -0.22322073879E+02  0.24462547076E+02  0.10570000000E+00 0.  1.
<mgrwt>
<rscale>  0 0.20014122E+02</rscale>
<asrwt>0</asrwt>
<pdfrwt beam="2">  1        2 0.71928608E-02 0.20014122E+02</pdfrwt>
<pdfrwt beam="1">  1       -2 0.32952224E-03 0.20014122E+02</pdfrwt>
<totfact> 0.45798989E+06</totfact>
</mgrwt>
</event>
<event>
 5    1  0.1607476E-006  0.2000206E+02  0.7818608E-02  0.1745287E+00
          2   -1    0    0  501    0  0.00000000000E+00  0.00000000000E+00  0.20179258199E+02  0.20179258366E+02  0.26000000000E-02 0. -1.
         -2   -1    0    0    0  501 -0.00000000000E+00 -0.00000000000E+00 -0.49566053171E+01  0.49566059990E+01  0.26000000000E-02 0.  1.
       1023    2    1    2    0    0  0.00000000000E+00  0.00000000000E+00  0.15222652882E+02  0.25135864365E+02  0.20002062809E+02 0.  0.
        -13    1    3    3    0    0 -0.99542604691E+01 -0.95768946306E+00  0.75225907271E+01  0.12514192516E+02  0.10570000000E+00 0.  1.
         13    1    3    3    0    0  0.99542604691E+01  0.95768946306E+00  0.77000621547E+01  0.12621671849E+02  0.10570000000E+00 0. -1.
<mgrwt>
<rscale>  0 0.20002063E+02</rscale>
<asrwt>0</asrwt>
<pdfrwt beam="1">  1        2 0.31045013E-02 0.20002063E+02</pdfrwt>
<pdfrwt beam="2">  1       -2 0.76255473E-03 0.20002063E+02</pdfrwt>
<totfact> 0.41701260E+06</totfact>
</mgrwt>
</event>
<event>
 5    1  0.1607476E-006  0.2000576E+02  0.7818608E-02  0.1745214E+00
         -2   -1    0    0    0  501 -0.00000000000E+00  0.00000000000E+00  0.41035504512E+01  0.41035512749E+01  0.26000000000E-02 0.  1.
          2   -1    0    0  501    0  0.00000000000E+00 -0.00000000000E+00 -0.24383175060E+02  0.24383175199E+02  0.26000000000E-02 0. -1.
       1023    2    1    2    0    0  0.00000000000E+00  0.00000000000E+00 -0.20279624609E+02  0.28486726474E+02  0.20005759444E+02 0.  0.
        -13    1    3    3    0    0  0.10001812490E+02 -0.12778457285E-01 -0.99973210647E+01  0.14141924103E+02  0.10570000000E+00 0. -1.
         13    1    3    3    0    0 -0.10001812490E+02  0.12778457285E-01 -0.10282303544E+02  0.14344802371E+02  0.10570000000E+00 0.  1.
<mgrwt>
<rscale>  0 0.20005759E+02</rscale>
<asrwt>0</asrwt>
<pdfrwt beam="2">  1        2 0.37512577E-02 0.20005759E+02</pdfrwt>
<pdfrwt beam="1">  1       -2 0.63131554E-03 0.20005759E+02</pdfrwt>
<totfact> 0.42424712E+06</totfact>
</mgrwt>
</event>
<event>
 5    1  0.1607476E-006  0.2000243E+02  0.7818608E-02  0.1745280E+00
         -2   -1    0    0    0  501 -0.00000000000E+00  0.00000000000E+00  0.31771993388E+02  0.31771993495E+02  0.26000000000E-02 0.  1.
          2   -1    0    0  501    0  0.00000000000E+00 -0.00000000000E+00 -0.31481889671E+01  0.31481900407E+01  0.26000000000E-02 0. -1.
       1023    2    1    2    0    0  0.00000000000E+00  0.00000000000E+00  0.28623804421E+02  0.34920183536E+02  0.20002425818E+02 0.  0.
        -13    1    3    3    0    0  0.24167864029E+01  0.97042294246E+01  0.14334116963E+02  0.17478301028E+02  0.10570000000E+00 0. -1.
         13    1    3    3    0    0 -0.24167864029E+01 -0.97042294246E+01  0.14289687459E+02  0.17441882507E+02  0.10570000000E+00 0.  1.
<mgrwt>
<rscale>  0 0.20002426E+02</rscale>
<asrwt>0</asrwt>
<pdfrwt beam="2">  1        2 0.48433684E-03 0.20002426E+02</pdfrwt>
<pdfrwt beam="1">  1       -2 0.48879992E-02 0.20002426E+02</pdfrwt>
<totfact> 0.35840044E+06</totfact>
</mgrwt>
</event>
<event>
 5    1  0.1607476E-006  0.2000699E+02  0.7818608E-02  0.1745189E+00
          2   -1    0    0  501    0  0.00000000000E+00  0.00000000000E+00  0.10369761059E+03  0.10369761063E+03  0.26000000000E-02 0. -1.
         -2   -1    0    0    0  501 -0.00000000000E+00 -0.00000000000E+00 -0.96501524477E+00  0.96501874730E+00  0.26000000000E-02 0.  1.
       1023    2    1    2    0    0  0.00000000000E+00  0.00000000000E+00  0.10273259535E+03  0.10466262937E+03  0.20006994784E+02 0.  0.
        -13    1    3    3    0    0 -0.48272932122E+01  0.87601493766E+01  0.50708510164E+02  0.51685657125E+02  0.10570000000E+00 0.  1.
         13    1    3    3    0    0  0.48272932122E+01 -0.87601493766E+01  0.52024085186E+02  0.52976972250E+02  0.10570000000E+00 0. -1.
<mgrwt>
<rscale>  0 0.20006995E+02</rscale>
<asrwt>0</asrwt>
<pdfrwt beam="1">  1        2 0.15953471E-01 0.20006995E+02</pdfrwt>
<pdfrwt beam="2">  1       -2 0.14846423E-03 0.20006995E+02</pdfrwt>
<totfact> 0.53157635E+06</totfact>
</mgrwt>
</event>
<event>
 5    1  0.1607476E-006  0.2000696E+02  0.7818608E-02  0.1745190E+00
          2   -1    0    0  501    0  0.00000000000E+00  0.00000000000E+00  0.56676122910E+01  0.56676128874E+01  0.26000000000E-02 0.  1.
         -2   -1    0    0    0  501 -0.00000000000E+00 -0.00000000000E+00 -0.17656399909E+02  0.17656400100E+02  0.26000000000E-02 0. -1.
       1023    2    1    2    0    0  0.00000000000E+00  0.00000000000E+00 -0.11988787618E+02  0.23324012988E+02  0.20006962621E+02 0.  0.
        -13    1    3    3    0    0  0.86405501646E+01  0.50374726788E+01 -0.61720683572E+01  0.11753333078E+02  0.10570000000E+00 0.  1.
         13    1    3    3    0    0 -0.86405501646E+01 -0.50374726788E+01 -0.58167192608E+01  0.11570679910E+02  0.10570000000E+00 0. -1.
<mgrwt>
<rscale>  0 0.20006963E+02</rscale>
<asrwt>0</asrwt>
<pdfrwt beam="1">  1        2 0.87194042E-03 0.20006963E+02</pdfrwt>
<pdfrwt beam="2">  1       -2 0.27163693E-02 0.20006963E+02</pdfrwt>
<totfact> 0.37787153E+06</totfact>
</mgrwt>
</event>
<event>
 5    1  0.1607476E-006  0.2000889E+02  0.7818608E-02  0.1745151E+00
         -2   -1    0    0    0  501 -0.00000000000E+00  0.00000000000E+00  0.95557458128E+01  0.95557461665E+01  0.26000000000E-02 0.  1.
          2   -1    0    0  501    0  0.00000000000E+00 -0.00000000000E+00 -0.10474208693E+02  0.10474209016E+02  0.26000000000E-02 0. -1.
       1023    2    1    2    0    0  0.00000000000E+00  0.00000000000E+00 -0.91846288009E+00  0.20029955182E+02  0.20008886289E+02 0.  0.
        -13    1    3    3    0    0  0.74782453195E+01  0.66447803377E+01 -0.43796411550E+00  0.10014002389E+02  0.10570000000E+00 0. -1.
         13    1    3    3    0    0 -0.74782453195E+01 -0.66447803377E+01 -0.48049876459E+00  0.10015952793E+02  0.10570000000E+00 0.  1.
<mgrwt>
<rscale>  0 0.20008886E+02</rscale>
<asrwt>0</asrwt>
<pdfrwt beam="2">  1        2 0.16114168E-02 0.20008886E+02</pdfrwt>
<pdfrwt beam="1">  1       -2 0.14701148E-02 0.20008886E+02</pdfrwt>
<totfact> 0.39557481E+06</totfact>
</mgrwt>
</event>
<event>
 5    1  0.1607476E-006  0.2000181E+02  0.7818608E-02  0.1745292E+00
         -2   -1    0    0    0  501 -0.00000000000E+00  0.00000000000E+00  0.70544783953E+02  0.70544784001E+02  0.26000000000E-02 0.  1.
          2   -1    0    0  501    0  0.00000000000E+00 -0.00000000000E+00 -0.14177940532E+01  0.14177964372E+01  0.26000000000E-02 0. -1.
       1023    2    1    2    0    0  0.00000000000E+00  0.00000000000E+00  0.69126989900E+02  0.71962580438E+02  0.20001806186E+02 0.  0.
        -13    1    3    3    0    0 -0.10000089922E+02 -0.47280036847E-01  0.34371211465E+02  0.35796583411E+02  0.10570000000E+00 0. -1.
         13    1    3    3    0    0  0.10000089922E+02  0.47280036847E-01  0.34755778435E+02  0.36165997027E+02  0.10570000000E+00 0.  1.
<mgrwt>
<rscale>  0 0.20001806E+02</rscale>
<asrwt>0</asrwt>
<pdfrwt beam="2">  1        2 0.21812233E-03 0.20001806E+02</pdfrwt>
<pdfrwt beam="1">  1       -2 0.10853045E-01 0.20001806E+02</pdfrwt>
<totfact> 0.32030720E+06</totfact>
</mgrwt>
</event>
<event>
 4    1  0.1607476E-006  0.2030672E+02  0.7818608E-02  0.1739296E+00
         -2   -1    0    0    0  501 -0.00000000000E+00  0.00000000000E+00  0.19409185955E+02  0.19409186129E+02  0.26000000000E-02 0. -1.
          2   -1    0    0  501    0  0.00000000000E+00 -0.00000000000E+00 -0.53114385196E+01  0.53114391559E+01  0.26000000000E-02 0.  1.
        -13    1    1    2    0    0 -0.42949944535E+01  0.91227586683E+01  0.56044481480E+01  0.11536581583E+02  0.10570000000E+00 0.  1.
         13    1    1    2    0    0  0.42949944535E+01 -0.91227586683E+01  0.84932992876E+01  0.13184043703E+02  0.10570000000E+00 0. -1.
<mgrwt>
<rscale>  0 0.20306719E+02</rscale>
<asrwt>0</asrwt>
<pdfrwt beam="2">  1        2 0.81714446E-03 0.20306719E+02</pdfrwt>
<pdfrwt beam="1">  1       -2 0.29860286E-02 0.20306719E+02</pdfrwt>
<totfact> 0.36306856E+06</totfact>
</mgrwt>
</event>
<event>
 5    1  0.1607476E-006  0.2000118E+02  0.7818608E-02  0.1745305E+00
         -2   -1    0    0    0  501 -0.00000000000E+00  0.00000000000E+00  0.55285989352E+01  0.55285995466E+01  0.26000000000E-02 0.  1.
          2   -1    0    0  501    0  0.00000000000E+00 -0.00000000000E+00 -0.18089892747E+02  0.18089892934E+02  0.26000000000E-02 0. -1.
       1023    2    1    2    0    0  0.00000000000E+00  0.00000000000E+00 -0.12561293812E+02  0.23618492481E+02  0.20001177086E+02 0.  0.
        -13    1    3    3    0    0 -0.37341007703E+01 -0.92766918989E+01 -0.62702468652E+01  0.11803715067E+02  0.10570000000E+00 0. -1.
         13    1    3    3    0    0  0.37341007703E+01  0.92766918989E+01 -0.62910469466E+01  0.11814777413E+02  0.10570000000E+00 0.  1.
<mgrwt>
<rscale>  0 0.20001177E+02</rscale>
<asrwt>0</asrwt>
<pdfrwt beam="2">  1        2 0.27830605E-02 0.20001177E+02</pdfrwt>
<pdfrwt beam="1">  1       -2 0.85055375E-03 0.20001177E+02</pdfrwt>
<totfact> 0.41312013E+06</totfact>
</mgrwt>
</event>
<event>
 5    1  0.1607476E-006  0.2000189E+02  0.7818608E-02  0.1745291E+00
         -2   -1    0    0    0  501 -0.00000000000E+00  0.00000000000E+00  0.23755634359E+01  0.23755648587E+01  0.26000000000E-02 0. -1.
          2   -1    0    0  501    0  0.00000000000E+00 -0.00000000000E+00 -0.42103209150E+02  0.42103209230E+02  0.26000000000E-02 0.  1.
       1023    2    1    2    0    0  0.00000000000E+00  0.00000000000E+00 -0.39727645714E+02  0.44478774089E+02  0.20001887673E+02 0.  0.
        -13    1    3    3    0    0  0.74264765744E+01 -0.66971284317E+01 -0.19729999695E+02  0.22119858589E+02  0.10570000000E+00 0. -1.
         13    1    3    3    0    0 -0.74264765744E+01  0.66971284317E+01 -0.19997646019E+02  0.22358915500E+02  0.10570000000E+00 0.  1.
<mgrwt>
<rscale>  0 0.20001888E+02</rscale>
<asrwt>0</asrwt>
<pdfrwt beam="2">  1        2 0.64774164E-02 0.20001888E+02</pdfrwt>
<pdfrwt beam="1">  1       -2 0.36547144E-03 0.20001888E+02</pdfrwt>
<totfact> 0.45194200E+06</totfact>
</mgrwt>
</event>
<event>
 5    1  0.1607476E-006  0.2001191E+02  0.7818608E-02  0.1745091E+00
          2   -1    0    0  501    0  0.00000000000E+00  0.00000000000E+00  0.22604426953E+02  0.22604427102E+02  0.26000000000E-02 0. -1.
         -2   -1    0    0    0  501 -0.00000000000E+00 -0.00000000000E+00 -0.44291799371E+01  0.44291807003E+01  0.26000000000E-02 0.  1.
       1023    2    1    2    0    0  0.00000000000E+00  0.00000000000E+00  0.18175247016E+02  0.27033607803E+02  0.20011905125E+02 0.  0.
        -13    1    3    3    0    0 -0.94651693250E+01  0.32276855536E+01  0.95159382387E+01  0.13804768648E+02  0.10570000000E+00 0.  1.
         13    1    3    3    0    0  0.94651693250E+01 -0.32276855536E+01  0.86593087769E+01  0.13228839154E+02  0.10570000000E+00 0. -1.
<mgrwt>
<rscale>  0 0.20011905E+02</rscale>
<asrwt>0</asrwt>
<pdfrwt beam="1">  1        2 0.34776041E-02 0.20011905E+02</pdfrwt>
<pdfrwt beam="2">  1       -2 0.68141238E-03 0.20011905E+02</pdfrwt>
<totfact> 0.42088905E+06</totfact>
</mgrwt>
</event>
<event>
 5    1  0.1607476E-006  0.2000366E+02  0.7818608E-02  0.1745255E+00
         -2   -1    0    0    0  501 -0.00000000000E+00  0.00000000000E+00  0.48032089131E+01  0.48032096168E+01  0.26000000000E-02 0.  1.
          2   -1    0    0  501    0  0.00000000000E+00 -0.00000000000E+00 -0.20827023517E+02  0.20827023680E+02  0.26000000000E-02 0. -1.
       1023    2    1    2    0    0  0.00000000000E+00  0.00000000000E+00 -0.16023814604E+02  0.25630233296E+02  0.20003655275E+02 0.  0.
        -13    1    3    3    0    0  0.99888945972E+01  0.49458382427E+00 -0.80791611604E+01  0.12857163217E+02  0.10570000000E+00 0. -1.
         13    1    3    3    0    0 -0.99888945972E+01 -0.49458382427E+00 -0.79446534439E+01  0.12773070080E+02  0.10570000000E+00 0.  1.
<mgrwt>
<rscale>  0 0.20003655E+02</rscale>
<asrwt>0</asrwt>
<pdfrwt beam="2">  1        2 0.32041575E-02 0.20003655E+02</pdfrwt>
<pdfrwt beam="1">  1       -2 0.73895529E-03 0.20003655E+02</pdfrwt>
<totfact> 0.41811808E+06</totfact>
</mgrwt>
</event>
<event>
 4    1  0.1607476E-006  0.2002003E+02  0.7818608E-02  0.1744930E+00
          2   -1    0    0  501    0  0.00000000000E+00  0.00000000000E+00  0.91976287886E+01  0.91976291560E+01  0.26000000000E-02 0. -1.
         -2   -1    0    0    0  501 -0.00000000000E+00 -0.00000000000E+00 -0.10894158470E+02  0.10894158780E+02  0.26000000000E-02 0.  1.
        -13    1    1    2    0    0 -0.50672937721E+01 -0.86319790047E+01 -0.82110914556E+00  0.10043600969E+02  0.10570000000E+00 0.  1.
         13    1    1    2    0    0  0.50672937721E+01  0.86319790047E+01 -0.87542053542E+00  0.10048186967E+02  0.10570000000E+00 0. -1.
<mgrwt>
<rscale>  0 0.20020033E+02</rscale>
<asrwt>0</asrwt>
<pdfrwt beam="1">  1        2 0.14150199E-02 0.20020033E+02</pdfrwt>
<pdfrwt beam="2">  1       -2 0.16760244E-02 0.20020033E+02</pdfrwt>
<totfact> 0.39132614E+06</totfact>
</mgrwt>
</event>
<event>
 5    1  0.1607476E-006  0.2000690E+02  0.7818608E-02  0.1745191E+00
          2   -1    0    0  501    0  0.00000000000E+00  0.00000000000E+00  0.32923962906E+02  0.32923963009E+02  0.26000000000E-02 0. -1.
         -2   -1    0    0    0  501 -0.00000000000E+00 -0.00000000000E+00 -0.30393968784E+01  0.30393979905E+01  0.26000000000E-02 0.  1.
       1023    2    1    2    0    0  0.00000000000E+00  0.00000000000E+00  0.29884566028E+02  0.35963360999E+02  0.20006900002E+02 0.  0.
        -13    1    3    3    0    0  0.43609135162E+01 -0.90006380923E+01  0.15247266402E+02  0.18235113325E+02  0.10570000000E+00 0. -1.
         13    1    3    3    0    0 -0.43609135162E+01  0.90006380923E+01  0.14637299626E+02  0.17728247674E+02  0.10570000000E+00 0.  1.
<mgrwt>
<rscale>  0 0.20006900E+02</rscale>
<asrwt>0</asrwt>
<pdfrwt beam="1">  1        2 0.50652251E-02 0.20006900E+02</pdfrwt>
<pdfrwt beam="2">  1       -2 0.46759962E-03 0.20006900E+02</pdfrwt>
<totfact> 0.43797079E+06</totfact>
</mgrwt>
</event>
<event>
 5    1  0.1607476E-006  0.2001014E+02  0.7818608E-02  0.1745126E+00
          2   -1    0    0  501    0  0.00000000000E+00  0.00000000000E+00  0.28783955934E+01  0.28783967677E+01  0.26000000000E-02 0. -1.
         -2   -1    0    0    0  501 -0.00000000000E+00 -0.00000000000E+00 -0.34776816754E+02  0.34776816852E+02  0.26000000000E-02 0.  1.
       1023    2    1    2    0    0  0.00000000000E+00  0.00000000000E+00 -0.31898421161E+02  0.37655213619E+02  0.20010143432E+02 0.  0.
        -13    1    3    3    0    0 -0.76417123624E+01 -0.64530604099E+01 -0.16380514114E+02  0.19192971932E+02  0.10570000000E+00 0.  1.
         13    1    3    3    0    0  0.76417123624E+01  0.64530604099E+01 -0.15517907047E+02  0.18462241687E+02  0.10570000000E+00 0. -1.
<mgrwt>
<rscale>  0 0.20010143E+02</rscale>
<asrwt>0</asrwt>
<pdfrwt beam="1">  1        2 0.44283021E-03 0.20010143E+02</pdfrwt>
<pdfrwt beam="2">  1       -2 0.53502793E-02 0.20010143E+02</pdfrwt>
<totfact> 0.35459149E+06</totfact>
</mgrwt>
</event>
<event>
 5    1  0.1607476E-006  0.2000328E+02  0.7818608E-02  0.1745263E+00
         -2   -1    0    0    0  501 -0.00000000000E+00  0.00000000000E+00  0.91947303541E+02  0.91947303578E+02  0.26000000000E-02 0.  1.
          2   -1    0    0  501    0  0.00000000000E+00 -0.00000000000E+00 -0.10879349152E+01  0.10879380220E+01  0.26000000000E-02 0. -1.
       1023    2    1    2    0    0  0.00000000000E+00  0.00000000000E+00  0.90859368626E+02  0.93035241600E+02  0.20003282542E+02 0.  0.
        -13    1    3    3    0    0  0.66493937623E+01  0.74703140723E+01  0.45617222925E+02  0.46700773330E+02  0.10570000000E+00 0.  1.
         13    1    3    3    0    0 -0.66493937623E+01 -0.74703140723E+01  0.45242145702E+02  0.46334468271E+02  0.10570000000E+00 0. -1.
<mgrwt>
<rscale>  0 0.20003283E+02</rscale>
<asrwt>0</asrwt>
<pdfrwt beam="2">  1        2 0.16737482E-03 0.20003283E+02</pdfrwt>
<pdfrwt beam="1">  1       -2 0.14145741E-01 0.20003283E+02</pdfrwt>
<totfact> 0.30316552E+06</totfact>
</mgrwt>
</event>
<event>
 4    1  0.1607476E-006  0.2001271E+02  0.7818608E-02  0.1745075E+00
         -2   -1    0    0    0  501 -0.00000000000E+00  0.00000000000E+00  0.15046215503E+01  0.15046237967E+01  0.26000000000E-02 0.  1.
          2   -1    0    0  501    0  0.00000000000E+00 -0.00000000000E+00 -0.66546354119E+02  0.66546354170E+02  0.26000000000E-02 0. -1.
        -13    1    1    2    0    0 -0.98886177918E+01 -0.14896116134E+01 -0.31381459416E+02  0.32936467208E+02  0.10570000000E+00 0.  1.
         13    1    1    2    0    0  0.98886177918E+01  0.14896116134E+01 -0.33660273153E+02  0.35114510758E+02  0.10570000000E+00 0. -1.
<mgrwt>
<rscale>  0 0.20012712E+02</rscale>
<asrwt>0</asrwt>
<pdfrwt beam="2">  1        2 0.10237899E-01 0.20012712E+02</pdfrwt>
<pdfrwt beam="1">  1       -2 0.23148047E-03 0.20012712E+02</pdfrwt>
<totfact> 0.48499792E+06</totfact>
</mgrwt>
</event>
<event>
 5    1  0.1607476E-006  0.2000385E+02  0.7818608E-02  0.1745252E+00
         -2   -1    0    0    0  501 -0.00000000000E+00  0.00000000000E+00  0.23468529136E+02  0.23468529280E+02  0.26000000000E-02 0. -1.
          2   -1    0    0  501    0  0.00000000000E+00 -0.00000000000E+00 -0.42626639319E+01  0.42626647248E+01  0.26000000000E-02 0.  1.
       1023    2    1    2    0    0  0.00000000000E+00  0.00000000000E+00  0.19205865204E+02  0.27731194005E+02  0.20003846197E+02 0.  0.
        -13    1    3    3    0    0 -0.64716359629E+01 -0.76240767879E+01  0.94134902966E+01  0.13734394452E+02  0.10570000000E+00 0.  1.
         13    1    3    3    0    0  0.64716359629E+01  0.76240767879E+01  0.97923749073E+01  0.13996799553E+02  0.10570000000E+00 0. -1.
<mgrwt>
<rscale>  0 0.20003846E+02</rscale>
<asrwt>0</asrwt>
<pdfrwt beam="2">  1        2 0.65579453E-03 0.20003846E+02</pdfrwt>
<pdfrwt beam="1">  1       -2 0.36105430E-02 0.20003846E+02</pdfrwt>
<totfact> 0.36905163E+06</totfact>
</mgrwt>
</event>
<event>
 5    1  0.1607476E-006  0.2000405E+02  0.7818608E-02  0.1745248E+00
          2   -1    0    0  501    0  0.00000000000E+00  0.00000000000E+00  0.16568603240E+02  0.16568603444E+02  0.26000000000E-02 0.  1.
         -2   -1    0    0    0  501 -0.00000000000E+00 -0.00000000000E+00 -0.60379556401E+01  0.60379561999E+01  0.26000000000E-02 0. -1.
       1023    2    1    2    0    0  0.00000000000E+00  0.00000000000E+00  0.10530647600E+02  0.22606559644E+02  0.20004049591E+02 0.  0.
        -13    1    3    3    0    0 -0.85178796352E+01 -0.52416270981E+01  0.52427385250E+01  0.11292759089E+02  0.10570000000E+00 0. -1.
         13    1    3    3    0    0  0.85178796352E+01  0.52416270981E+01  0.52879090748E+01  0.11313800555E+02  0.10570000000E+00 0.  1.
<mgrwt>
<rscale>  0 0.20004050E+02</rscale>
<asrwt>0</asrwt>
<pdfrwt beam="1">  1        2 0.25490159E-02 0.20004050E+02</pdfrwt>
<pdfrwt beam="2">  1       -2 0.92891633E-03 0.20004050E+02</pdfrwt>
<totfact> 0.40997606E+06</totfact>
</mgrwt>
</event>
<event>
 4    1  0.1607476E-006  0.2005055E+02  0.7818608E-02  0.1744325E+00
          2   -1    0    0  501    0  0.00000000000E+00  0.00000000000E+00  0.46498923601E+01  0.46498930870E+01  0.26000000000E-02 0. -1.
         -2   -1    0    0    0  501 -0.00000000000E+00 -0.00000000000E+00 -0.21614731848E+02  0.21614732004E+02  0.26000000000E-02 0.  1.
        -13    1    1    2    0    0  0.99398582637E+01 -0.10955440284E+01 -0.94031142864E+01  0.13727007314E+02  0.10570000000E+00 0.  1.
         13    1    1    2    0    0 -0.99398582637E+01  0.10955440284E+01 -0.75617252015E+01  0.12537617778E+02  0.10570000000E+00 0. -1.
<mgrwt>
<rscale>  0 0.20050555E+02</rscale>
<asrwt>0</asrwt>
<pdfrwt beam="1">  1        2 0.71536814E-03 0.20050555E+02</pdfrwt>
<pdfrwt beam="2">  1       -2 0.33253434E-02 0.20050555E+02</pdfrwt>
<totfact> 0.36984957E+06</totfact>
</mgrwt>
</event>
<event>
 4    1  0.1607476E-006  0.2030285E+02  0.7818608E-02  0.1739372E+00
          2   -1    0    0  501    0  0.00000000000E+00  0.00000000000E+00  0.71374028069E+01  0.71374032805E+01  0.26000000000E-02 0.  1.
         -2   -1    0    0    0  501 -0.00000000000E+00 -0.00000000000E+00 -0.14438229527E+02  0.14438229761E+02  0.26000000000E-02 0. -1.
        -13    1    1    2    0    0  0.95144958553E+01 -0.31227420026E+01 -0.54168919788E+01  0.11385562797E+02  0.10570000000E+00 0. -1.
         13    1    1    2    0    0 -0.95144958553E+01  0.31227420026E+01 -0.18839347411E+01  0.10190070245E+02  0.10570000000E+00 0.  1.
<mgrwt>
<rscale>  0 0.20302854E+02</rscale>
<asrwt>0</asrwt>
<pdfrwt beam="1">  1        2 0.10980620E-02 0.20302854E+02</pdfrwt>
<pdfrwt beam="2">  1       -2 0.22212661E-02 0.20302854E+02</pdfrwt>
<totfact> 0.37181464E+06</totfact>
</mgrwt>
</event>
<event>
 4    1  0.1607476E-006  0.2002564E+02  0.7818608E-02  0.1744819E+00
          2   -1    0    0  501    0  0.00000000000E+00  0.00000000000E+00  0.40311070590E+02  0.40311070674E+02  0.26000000000E-02 0.  1.
         -2   -1    0    0    0  501 -0.00000000000E+00 -0.00000000000E+00 -0.24870710285E+01  0.24870723876E+01  0.26000000000E-02 0. -1.
        -13    1    1    2    0    0  0.48545492039E+01  0.87454306316E+01  0.17965475072E+02  0.20562555093E+02  0.10570000000E+00 0.  1.
         13    1    1    2    0    0 -0.48545492039E+01 -0.87454306316E+01  0.19858524489E+02  0.22235587968E+02  0.10570000000E+00 0. -1.
<mgrwt>
<rscale>  0 0.20025636E+02</rscale>
<asrwt>0</asrwt>
<pdfrwt beam="1">  1        2 0.62017023E-02 0.20025636E+02</pdfrwt>
<pdfrwt beam="2">  1       -2 0.38262649E-03 0.20025636E+02</pdfrwt>
<totfact> 0.44813618E+06</totfact>
</mgrwt>
</event>
<event>
 5    1  0.1629263E-006  0.2000295E+02  0.7818608E-02  0.1745270E+00
          2   -1    0    0  501    0  0.00000000000E+00  0.00000000000E+00  0.37183495768E+02  0.37183495859E+02  0.26000000000E-02 0.  1.
         -2   -1    0    0    0  501 -0.00000000000E+00 -0.00000000000E+00 -0.26901568002E+01  0.26901580567E+01  0.26000000000E-02 0. -1.
       1023    2    1    2    0    0  0.00000000000E+00  0.00000000000E+00  0.34493338967E+02  0.39873653915E+02  0.20002945869E+02 0.  0.
        -13    1    3    3    0    0 -0.85793951568E+01 -0.51388059287E+01  0.17386785556E+02  0.20058036596E+02  0.10570000000E+00 0. -1.
         13    1    3    3    0    0  0.85793951568E+01  0.51388059287E+01  0.17106553411E+02  0.19815617319E+02  0.10570000000E+00 0.  1.
<mgrwt>
<rscale>  0 0.20002946E+02</rscale>
<asrwt>0</asrwt>
<pdfrwt beam="1">  1        2 0.57205376E-02 0.20002946E+02</pdfrwt>
<pdfrwt beam="2">  1       -2 0.41387040E-03 0.20002946E+02</pdfrwt>
<totfact> 0.44463846E+06</totfact>
</mgrwt>
</event>
<event>
 5    1  0.1607476E-006  0.2000132E+02  0.7818608E-02  0.1745302E+00
         -2   -1    0    0    0  501 -0.00000000000E+00  0.00000000000E+00  0.47976639947E+01  0.47976646992E+01  0.26000000000E-02 0.  1.
          2   -1    0    0  501    0  0.00000000000E+00 -0.00000000000E+00 -0.20846216776E+02  0.20846216938E+02  0.26000000000E-02 0. -1.
       1023    2    1    2    0    0  0.00000000000E+00  0.00000000000E+00 -0.16048552781E+02  0.25643881637E+02  0.20001315433E+02 0.  0.
        -13    1    3    3    0    0  0.92799195217E+01 -0.37260540598E+01 -0.80755141084E+01  0.12854006605E+02  0.10570000000E+00 0. -1.
         13    1    3    3    0    0 -0.92799195217E+01  0.37260540598E+01 -0.79730386727E+01  0.12789875033E+02  0.10570000000E+00 0.  1.
<mgrwt>
<rscale>  0 0.20001315E+02</rscale>
<asrwt>0</asrwt>
<pdfrwt beam="2">  1        2 0.32071103E-02 0.20001315E+02</pdfrwt>
<pdfrwt beam="1">  1       -2 0.73810223E-03 0.20001315E+02</pdfrwt>
<totfact> 0.41826300E+06</totfact>
</mgrwt>
</event>
<event>
 5    1  0.1607476E-006  0.2000139E+02  0.7818608E-02  0.1745300E+00
         -2   -1    0    0    0  501 -0.00000000000E+00  0.00000000000E+00  0.11441265789E+01  0.11441295332E+01  0.26000000000E-02 0. -1.
          2   -1    0    0  501    0  0.00000000000E+00 -0.00000000000E+00 -0.87414969142E+02  0.87414969180E+02  0.26000000000E-02 0.  1.
       1023    2    1    2    0    0  0.00000000000E+00  0.00000000000E+00 -0.86270842563E+02  0.88559098713E+02  0.20001392163E+02 0.  0.
        -13    1    3    3    0    0  0.60185512164E+01 -0.79860748936E+01 -0.43352270876E+02  0.44490795830E+02  0.10570000000E+00 0.  1.
         13    1    3    3    0    0 -0.60185512164E+01  0.79860748936E+01 -0.42918571686E+02  0.44068302883E+02  0.10570000000E+00 0. -1.
<mgrwt>
<rscale>  0 0.20001392E+02</rscale>
<asrwt>0</asrwt>
<pdfrwt beam="2">  1        2 0.13448452E-01 0.20001392E+02</pdfrwt>
<pdfrwt beam="1">  1       -2 0.17601977E-03 0.20001392E+02</pdfrwt>
<totfact> 0.51217944E+06</totfact>
</mgrwt>
</event>
<event>
 5    1  0.1607476E-006  0.2000508E+02  0.7818608E-02  0.1745227E+00
          2   -1    0    0  501    0  0.00000000000E+00  0.00000000000E+00  0.70594458562E+02  0.70594458610E+02  0.26000000000E-02 0. -1.
         -2   -1    0    0    0  501 -0.00000000000E+00 -0.00000000000E+00 -0.14172599291E+01  0.14172623139E+01  0.26000000000E-02 0.  1.
       1023    2    1    2    0    0  0.00000000000E+00  0.00000000000E+00  0.69177198633E+02  0.72011720924E+02  0.20005077848E+02 0.  0.
        -13    1    3    3    0    0  0.84071219567E+01  0.54162590528E+01  0.34030351611E+02  0.35469586479E+02  0.10570000000E+00 0.  1.
         13    1    3    3    0    0 -0.84071219567E+01 -0.54162590528E+01  0.35146847021E+02  0.36542134444E+02  0.10570000000E+00 0. -1.
<mgrwt>
<rscale>  0 0.20005078E+02</rscale>
<asrwt>0</asrwt>
<pdfrwt beam="1">  1        2 0.10860684E-01 0.20005078E+02</pdfrwt>
<pdfrwt beam="2">  1       -2 0.21804021E-03 0.20005078E+02</pdfrwt>
<totfact> 0.49069419E+06</totfact>
</mgrwt>
</event>
<event>
 5    1  0.1607476E-006  0.2000824E+02  0.7818608E-02  0.1745164E+00
          2   -1    0    0  501    0  0.00000000000E+00  0.00000000000E+00  0.23452870914E+02  0.23452871058E+02  0.26000000000E-02 0. -1.
         -2   -1    0    0    0  501 -0.00000000000E+00 -0.00000000000E+00 -0.42673857991E+01  0.42673865912E+01  0.26000000000E-02 0.  1.
       1023    2    1    2    0    0  0.00000000000E+00  0.00000000000E+00  0.19185485115E+02  0.27720257649E+02  0.20008244427E+02 0.  0.
        -13    1    3    3    0    0  0.35445291104E+00 -0.99965780531E+01  0.94283522271E+01  0.13746352529E+02  0.10570000000E+00 0.  1.
         13    1    3    3    0    0 -0.35445291104E+00  0.99965780531E+01  0.97571328879E+01  0.13973905121E+02  0.10570000000E+00 0. -1.
<mgrwt>
<rscale>  0 0.20008244E+02</rscale>
<asrwt>0</asrwt>
<pdfrwt beam="1">  1        2 0.36081340E-02 0.20008244E+02</pdfrwt>
<pdfrwt beam="2">  1       -2 0.65652097E-03 0.20008244E+02</pdfrwt>
<totfact> 0.42253579E+06</totfact>
</mgrwt>
</event>
<event>
 5    1  0.1607476E-006  0.2000160E+02  0.7818608E-02  0.1745296E+00
          2   -1    0    0  501    0  0.00000000000E+00  0.00000000000E+00  0.63412091627E+01  0.63412096957E+01  0.26000000000E-02 0. -1.
         -2   -1    0    0    0  501 -0.00000000000E+00 -0.00000000000E+00 -0.15772379516E+02  0.15772379730E+02  0.26000000000E-02 0.  1.
       1023    2    1    2    0    0  0.00000000000E+00  0.00000000000E+00 -0.94311703533E+01  0.22113589426E+02  0.20001596513E+02 0.  0.
        -13    1    3    3    0    0 -0.32815205322E+01  0.94463864306E+01 -0.47674381995E+01  0.11078909381E+02  0.10570000000E+00 0. -1.
         13    1    3    3    0    0  0.32815205322E+01 -0.94463864306E+01 -0.46637321538E+01  0.11034680045E+02  0.10570000000E+00 0.  1.
<mgrwt>
<rscale>  0 0.20001597E+02</rscale>
<asrwt>0</asrwt>
<pdfrwt beam="1">  1        2 0.97557070E-03 0.20001597E+02</pdfrwt>
<pdfrwt beam="2">  1       -2 0.24265200E-02 0.20001597E+02</pdfrwt>
<totfact> 0.38144296E+06</totfact>
</mgrwt>
</event>
<event>
 4    1  0.1607476E-006  0.2002367E+02  0.7818608E-02  0.1744858E+00
          2   -1    0    0  501    0  0.00000000000E+00  0.00000000000E+00  0.64276959817E+01  0.64276965075E+01  0.26000000000E-02 0. -1.
         -2   -1    0    0    0  501 -0.00000000000E+00 -0.00000000000E+00 -0.15594513202E+02  0.15594513418E+02  0.26000000000E-02 0.  1.
        -13    1    1    2    0    0 -0.98531868223E+01 -0.17105801987E+01 -0.50924792947E+01  0.11223007308E+02  0.10570000000E+00 0.  1.
         13    1    1    2    0    0  0.98531868223E+01  0.17105801987E+01 -0.40743379253E+01  0.10799202618E+02  0.10570000000E+00 0. -1.
<mgrwt>
<rscale>  0 0.20023666E+02</rscale>
<asrwt>0</asrwt>
<pdfrwt beam="1">  1        2 0.98887636E-03 0.20023666E+02</pdfrwt>
<pdfrwt beam="2">  1       -2 0.23991559E-02 0.20023666E+02</pdfrwt>
<totfact> 0.38086682E+06</totfact>
</mgrwt>
</event>
<event>
 5    1  0.1607476E-006  0.2000122E+02  0.7818608E-02  0.1745304E+00
          2   -1    0    0  501    0  0.00000000000E+00  0.00000000000E+00  0.16564147486E+01  0.16564167892E+01  0.26000000000E-02 0.  1.
         -2   -1    0    0    0  501 -0.00000000000E+00 -0.00000000000E+00 -0.60378709591E+02  0.60378709647E+02  0.26000000000E-02 0. -1.
       1023    2    1    2    0    0  0.00000000000E+00  0.00000000000E+00 -0.58722294843E+02  0.62035126437E+02  0.20001224972E+02 0.  0.
        -13    1    3    3    0    0  0.47289074480E+01 -0.88112517867E+01 -0.29419495431E+02  0.31072795298E+02  0.10570000000E+00 0.  1.
         13    1    3    3    0    0 -0.47289074480E+01  0.88112517867E+01 -0.29302799412E+02  0.30962331139E+02  0.10570000000E+00 0. -1.
<mgrwt>
<rscale>  0 0.20001225E+02</rscale>
<asrwt>0</asrwt>
<pdfrwt beam="1">  1        2 0.25483325E-03 0.20001225E+02</pdfrwt>
<pdfrwt beam="2">  1       -2 0.92890307E-02 0.20001225E+02</pdfrwt>
<totfact> 0.32921302E+06</totfact>
</mgrwt>
</event>
<event>
 5    1  0.1607476E-006  0.2000139E+02  0.7818608E-02  0.1745300E+00
          2   -1    0    0  501    0  0.00000000000E+00  0.00000000000E+00  0.40554169878E+02  0.40554169961E+02  0.26000000000E-02 0.  1.
         -2   -1    0    0    0  501 -0.00000000000E+00 -0.00000000000E+00 -0.24661795544E+01  0.24661809249E+01  0.26000000000E-02 0. -1.
       1023    2    1    2    0    0  0.00000000000E+00  0.00000000000E+00  0.38087990323E+02  0.43020350886E+02  0.20001389539E+02 0.  0.
        -13    1    3    3    0    0 -0.19142091845E+00  0.99983008087E+01  0.19027011157E+02  0.21495138685E+02  0.10570000000E+00 0. -1.
         13    1    3    3    0    0  0.19142091845E+00 -0.99983008087E+01  0.19060979166E+02  0.21525212201E+02  0.10570000000E+00 0.  1.
<mgrwt>
<rscale>  0 0.20001390E+02</rscale>
<asrwt>0</asrwt>
<pdfrwt beam="1">  1        2 0.62391034E-02 0.20001390E+02</pdfrwt>
<pdfrwt beam="2">  1       -2 0.37941234E-03 0.20001390E+02</pdfrwt>
<totfact> 0.44970700E+06</totfact>
</mgrwt>
</event>
<event>
 5    1  0.1607476E-006  0.2000259E+02  0.7818608E-02  0.1745277E+00
          2   -1    0    0  501    0  0.00000000000E+00  0.00000000000E+00  0.65552916266E+01  0.65552921422E+01  0.26000000000E-02 0.  1.
         -2   -1    0    0    0  501 -0.00000000000E+00 -0.00000000000E+00 -0.15258800641E+02  0.15258800863E+02  0.26000000000E-02 0. -1.
       1023    2    1    2    0    0  0.00000000000E+00  0.00000000000E+00 -0.87035090149E+01  0.21814093005E+02  0.20002589444E+02 0.  0.
        -13    1    3    3    0    0 -0.41184778709E+01 -0.91131419862E+01 -0.42871733276E+01  0.10881279542E+02  0.10570000000E+00 0.  1.
         13    1    3    3    0    0  0.41184778709E+01  0.91131419862E+01 -0.44163356872E+01  0.10932813463E+02  0.10570000000E+00 0. -1.
<mgrwt>
<rscale>  0 0.20002589E+02</rscale>
<asrwt>0</asrwt>
<pdfrwt beam="1">  1        2 0.10085065E-02 0.20002589E+02</pdfrwt>
<pdfrwt beam="2">  1       -2 0.23475078E-02 0.20002589E+02</pdfrwt>
<totfact> 0.38237079E+06</totfact>
</mgrwt>
</event>
<event>
 5    1  0.1607476E-006  0.2000932E+02  0.7818608E-02  0.1745143E+00
         -2   -1    0    0    0  501 -0.00000000000E+00  0.00000000000E+00  0.32903119172E+01  0.32903129445E+01  0.26000000000E-02 0.  1.
          2   -1    0    0  501    0  0.00000000000E+00 -0.00000000000E+00 -0.30420595044E+02  0.30420595155E+02  0.26000000000E-02 0. -1.
       1023    2    1    2    0    0  0.00000000000E+00  0.00000000000E+00 -0.27130283127E+02  0.33710908100E+02  0.20009324385E+02 0.  0.
        -13    1    3    3    0    0  0.98593332185E+01 -0.16938137728E+01 -0.13702389951E+02  0.16965910511E+02  0.10570000000E+00 0. -1.
         13    1    3    3    0    0 -0.98593332185E+01  0.16938137728E+01 -0.13427893176E+02  0.16744997588E+02  0.10570000000E+00 0.  1.
<mgrwt>
<rscale>  0 0.20009324E+02</rscale>
<asrwt>0</asrwt>
<pdfrwt beam="2">  1        2 0.46800914E-02 0.20009324E+02</pdfrwt>
<pdfrwt beam="1">  1       -2 0.50620194E-03 0.20009324E+02</pdfrwt>
<totfact> 0.43394479E+06</totfact>
</mgrwt>
</event>
<event>
 5    1  0.1607476E-006  0.2000117E+02  0.7818608E-02  0.1745305E+00
         -2   -1    0    0    0  501 -0.00000000000E+00  0.00000000000E+00  0.16568845960E+01  0.16568866360E+01  0.26000000000E-02 0. -1.
          2   -1    0    0  501    0  0.00000000000E+00 -0.00000000000E+00 -0.60361251307E+02  0.60361251363E+02  0.26000000000E-02 0.  1.
       1023    2    1    2    0    0  0.00000000000E+00  0.00000000000E+00 -0.58704366711E+02  0.62018137999E+02  0.20001169214E+02 0.  0.
        -13    1    3    3    0    0 -0.97861690900E+01 -0.20570061235E+01 -0.29315450189E+02  0.30974298570E+02  0.10570000000E+00 0.  1.
         13    1    3    3    0    0  0.97861690900E+01  0.20570061235E+01 -0.29388916522E+02  0.31043839429E+02  0.10570000000E+00 0. -1.
<mgrwt>
<rscale>  0 0.20001169E+02</rscale>
<asrwt>0</asrwt>
<pdfrwt beam="2">  1        2 0.92863448E-02 0.20001169E+02</pdfrwt>
<pdfrwt beam="1">  1       -2 0.25490553E-03 0.20001169E+02</pdfrwt>
<totfact> 0.47740085E+06</totfact>
</mgrwt>
</event>
<event>
 5    1  0.1607476E-006  0.2000375E+02  0.7818608E-02  0.1745253E+00
          2   -1    0    0  501    0  0.00000000000E+00  0.00000000000E+00  0.35744888312E+02  0.35744888406E+02  0.26000000000E-02 0.  1.
         -2   -1    0    0    0  501 -0.00000000000E+00 -0.00000000000E+00 -0.27986519308E+01  0.27986531385E+01  0.26000000000E-02 0. -1.
       1023    2    1    2    0    0  0.00000000000E+00  0.00000000000E+00  0.32946236381E+02  0.38543541545E+02  0.20003752227E+02 0.  0.
        -13    1    3    3    0    0 -0.36348140376E+01 -0.93171865761E+01  0.16602581173E+02  0.19382433100E+02  0.10570000000E+00 0. -1.
         13    1    3    3    0    0  0.36348140376E+01  0.93171865761E+01  0.16343655208E+02  0.19161108444E+02  0.10570000000E+00 0.  1.
<mgrwt>
<rscale>  0 0.20003752E+02</rscale>
<asrwt>0</asrwt>
<pdfrwt beam="1">  1        2 0.54992132E-02 0.20003752E+02</pdfrwt>
<pdfrwt beam="2">  1       -2 0.43056197E-03 0.20003752E+02</pdfrwt>
<totfact> 0.44243472E+06</totfact>
</mgrwt>
</event>
<event>
 4    1  0.1607476E-006  0.2001436E+02  0.7818608E-02  0.1745043E+00
         -2   -1    0    0    0  501 -0.00000000000E+00  0.00000000000E+00  0.45327501870E+01  0.45327509327E+01  0.26000000000E-02 0. -1.
          2   -1    0    0  501    0  0.00000000000E+00 -0.00000000000E+00 -0.22093354925E+02  0.22093355078E+02  0.26000000000E-02 0.  1.
        -13    1    1    2    0    0  0.54093158539E+01  0.84183870939E+01 -0.88475985237E+01  0.13357436558E+02  0.10570000000E+00 0.  1.
         13    1    1    2    0    0 -0.54093158539E+01 -0.84183870939E+01 -0.87130062146E+01  0.13268669453E+02  0.10570000000E+00 0. -1.
<mgrwt>
<rscale>  0 0.20014362E+02</rscale>
<asrwt>0</asrwt>
<pdfrwt beam="2">  1        2 0.33989777E-02 0.20014362E+02</pdfrwt>
<pdfrwt beam="1">  1       -2 0.69734627E-03 0.20014362E+02</pdfrwt>
<totfact> 0.41987535E+06</totfact>
</mgrwt>
</event>
<event>
 5    1  0.1607476E-006  0.2000359E+02  0.7818608E-02  0.1745257E+00
          2   -1    0    0  501    0  0.00000000000E+00  0.00000000000E+00  0.36587103446E+02  0.36587103538E+02  0.26000000000E-02 0. -1.
         -2   -1    0    0    0  501 -0.00000000000E+00 -0.00000000000E+00 -0.27341848808E+01  0.27341861170E+01  0.26000000000E-02 0.  1.
       1023    2    1    2    0    0  0.00000000000E+00  0.00000000000E+00  0.33852918565E+02  0.39321289655E+02  0.20003592797E+02 0.  0.
        -13    1    3    3    0    0  0.24896390942E+01 -0.96862801908E+01  0.17023398019E+02  0.19744102395E+02  0.10570000000E+00 0. -1.
         13    1    3    3    0    0 -0.24896390942E+01  0.96862801908E+01  0.16829520546E+02  0.19577187261E+02  0.10570000000E+00 0.  1.
<mgrwt>
<rscale>  0 0.20003593E+02</rscale>
<asrwt>0</asrwt>
<pdfrwt beam="1">  1        2 0.56287853E-02 0.20003593E+02</pdfrwt>
<pdfrwt beam="2">  1       -2 0.42064392E-03 0.20003593E+02</pdfrwt>
<totfact> 0.44371196E+06</totfact>
</mgrwt>
</event>
<event>
 5    1  0.1607476E-006  0.2000409E+02  0.7818608E-02  0.1745247E+00
         -2   -1    0    0    0  501 -0.00000000000E+00  0.00000000000E+00  0.13130723671E+01  0.13130749412E+01  0.26000000000E-02 0. -1.
          2   -1    0    0  501    0  0.00000000000E+00 -0.00000000000E+00 -0.76188307586E+02  0.76188307631E+02  0.26000000000E-02 0.  1.
       1023    2    1    2    0    0  0.00000000000E+00  0.00000000000E+00 -0.74875235219E+02  0.77501382572E+02  0.20004085868E+02 0.  0.
        -13    1    3    3    0    0 -0.57456916281E+01  0.81861768330E+01 -0.37217534807E+02  0.38538066026E+02  0.10570000000E+00 0.  1.
         13    1    3    3    0    0  0.57456916281E+01 -0.81861768330E+01 -0.37657700412E+02  0.38963316546E+02  0.10570000000E+00 0. -1.
<mgrwt>
<rscale>  0 0.20004086E+02</rscale>
<asrwt>0</asrwt>
<pdfrwt beam="2">  1        2 0.11721275E-01 0.20004086E+02</pdfrwt>
<pdfrwt beam="1">  1       -2 0.20201139E-03 0.20004086E+02</pdfrwt>
<totfact> 0.49793811E+06</totfact>
</mgrwt>
</event>
<event>
 5    1  0.1607476E-006  0.2000133E+02  0.7818608E-02  0.1745302E+00
          2   -1    0    0  501    0  0.00000000000E+00  0.00000000000E+00  0.65791779907E+01  0.65791785044E+01  0.26000000000E-02 0.  1.
         -2   -1    0    0    0  501 -0.00000000000E+00 -0.00000000000E+00 -0.15201480017E+02  0.15201480239E+02  0.26000000000E-02 0. -1.
       1023    2    1    2    0    0  0.00000000000E+00  0.00000000000E+00 -0.86223020264E+01  0.21780658744E+02  0.20001325033E+02 0.  0.
        -13    1    3    3    0    0  0.19700367621E+01 -0.98041253101E+01 -0.43249400043E+01  0.10895788015E+02  0.10570000000E+00 0. -1.
         13    1    3    3    0    0 -0.19700367621E+01  0.98041253101E+01 -0.42973620221E+01  0.10884870729E+02  0.10570000000E+00 0.  1.
<mgrwt>
<rscale>  0 0.20001325E+02</rscale>
<asrwt>0</asrwt>
<pdfrwt beam="1">  1        2 0.10121813E-02 0.20001325E+02</pdfrwt>
<pdfrwt beam="2">  1       -2 0.23386893E-02 0.20001325E+02</pdfrwt>
<totfact> 0.38253281E+06</totfact>
</mgrwt>
</event>
<event>
 5    1  0.1607476E-006  0.2000178E+02  0.7818608E-02  0.1745293E+00
          2   -1    0    0  501    0  0.00000000000E+00  0.00000000000E+00  0.64767362549E+02  0.64767362602E+02  0.26000000000E-02 0.  1.
         -2   -1    0    0    0  501 -0.00000000000E+00 -0.00000000000E+00 -0.15442615689E+01  0.15442637577E+01  0.26000000000E-02 0. -1.
       1023    2    1    2    0    0  0.00000000000E+00  0.00000000000E+00  0.63223100981E+02  0.66311626359E+02  0.20001782241E+02 0.  0.
        -13    1    3    3    0    0 -0.91008286667E+00  0.99586576104E+01  0.31414339988E+02  0.32967787939E+02  0.10570000000E+00 0.  1.
         13    1    3    3    0    0  0.91008286667E+00 -0.99586576104E+01  0.31808760993E+02  0.33343838420E+02  0.10570000000E+00 0. -1.
<mgrwt>
<rscale>  0 0.20001782E+02</rscale>
<asrwt>0</asrwt>
<pdfrwt beam="1">  1        2 0.99642078E-02 0.20001782E+02</pdfrwt>
<pdfrwt beam="2">  1       -2 0.23757892E-03 0.20001782E+02</pdfrwt>
<totfact> 0.48324031E+06</totfact>
</mgrwt>
</event>
<event>
 5    1  0.1607476E-006  0.2000190E+02  0.7818608E-02  0.1745290E+00
          2   -1    0    0  501    0  0.00000000000E+00  0.00000000000E+00  0.95008211411E+01  0.95008214968E+01  0.26000000000E-02 0.  1.
         -2   -1    0    0    0  501 -0.00000000000E+00 -0.00000000000E+00 -0.10527406125E+02  0.10527406446E+02  0.26000000000E-02 0. -1.
       1023    2    1    2    0    0  0.00000000000E+00  0.00000000000E+00 -0.10265849837E+01  0.20028227943E+02  0.20001900855E+02 0.  0.
        -13    1    3    3    0    0 -0.72524610805E+01 -0.68852667804E+01 -0.56576946152E+00  0.10016803778E+02  0.10570000000E+00 0.  1.
         13    1    3    3    0    0  0.72524610805E+01  0.68852667804E+01 -0.46081552213E+00  0.10011424164E+02  0.10570000000E+00 0. -1.
<mgrwt>
<rscale>  0 0.20001901E+02</rscale>
<asrwt>0</asrwt>
<pdfrwt beam="1">  1        2 0.14616648E-02 0.20001901E+02</pdfrwt>
<pdfrwt beam="2">  1       -2 0.16196010E-02 0.20001901E+02</pdfrwt>
<totfact> 0.39306979E+06</totfact>
</mgrwt>
</event>
<event>
 4    1  0.1607476E-006  0.2008989E+02  0.7818608E-02  0.1743546E+00
          2   -1    0    0  501    0  0.00000000000E+00  0.00000000000E+00  0.47711089988E+01  0.47711097072E+01  0.26000000000E-02 0.  1.
         -2   -1    0    0    0  501 -0.00000000000E+00 -0.00000000000E+00 -0.21148317251E+02  0.21148317411E+02  0.26000000000E-02 0. -1.
        -13    1    1    2    0    0 -0.92714166319E+01 -0.38487419077E+01 -0.86313887774E+01  0.13239487352E+02  0.10570000000E+00 0.  1.
         13    1    1    2    0    0  0.92714166319E+01  0.38487419077E+01 -0.77458194747E+01  0.12679939766E+02  0.10570000000E+00 0. -1.
<mgrwt>
<rscale>  0 0.20089892E+02</rscale>
<asrwt>0</asrwt>
<pdfrwt beam="1">  1        2 0.73401685E-03 0.20089892E+02</pdfrwt>
<pdfrwt beam="2">  1       -2 0.32535873E-02 0.20089892E+02</pdfrwt>
<totfact> 0.36896845E+06</totfact>
</mgrwt>
</event>
<event>
 5    1  0.1607476E-006  0.2000502E+02  0.7818608E-02  0.1745228E+00
         -2   -1    0    0    0  501 -0.00000000000E+00  0.00000000000E+00  0.28666182508E+01  0.28666194299E+01  0.26000000000E-02 0. -1.
          2   -1    0    0  501    0  0.00000000000E+00 -0.00000000000E+00 -0.34901816728E+02  0.34901816825E+02  0.26000000000E-02 0.  1.
       1023    2    1    2    0    0  0.00000000000E+00  0.00000000000E+00 -0.32035198477E+02  0.37768436254E+02  0.20005020261E+02 0.  0.
        -13    1    3    3    0    0  0.64450899729E+01  0.76464563915E+01 -0.16352976149E+02  0.19168684919E+02  0.10570000000E+00 0. -1.
         13    1    3    3    0    0 -0.64450899729E+01 -0.76464563915E+01 -0.15682222328E+02  0.18599751335E+02  0.10570000000E+00 0.  1.
<mgrwt>
<rscale>  0 0.20005020E+02</rscale>
<asrwt>0</asrwt>
<pdfrwt beam="2">  1        2 0.53695101E-02 0.20005020E+02</pdfrwt>
<pdfrwt beam="1">  1       -2 0.44101832E-03 0.20005020E+02</pdfrwt>
<totfact> 0.44109378E+06</totfact>
</mgrwt>
</event>
<event>
 5    1  0.1607476E-006  0.2000601E+02  0.7818608E-02  0.1745209E+00
         -2   -1    0    0    0  501 -0.00000000000E+00  0.00000000000E+00  0.71285072860E+02  0.71285072907E+02  0.26000000000E-02 0.  1.
          2   -1    0    0  501    0  0.00000000000E+00 -0.00000000000E+00 -0.14036602702E+01  0.14036626782E+01  0.26000000000E-02 0. -1.
       1023    2    1    2    0    0  0.00000000000E+00  0.00000000000E+00  0.69881412590E+02  0.72688735585E+02  0.20006010484E+02 0.  0.
        -13    1    3    3    0    0  0.19101556133E+01  0.98170212710E+01  0.35530386879E+02  0.36911274231E+02  0.10570000000E+00 0. -1.
         13    1    3    3    0    0 -0.19101556133E+01 -0.98170212710E+01  0.34351025710E+02  0.35777461354E+02  0.10570000000E+00 0.  1.
<mgrwt>
<rscale>  0 0.20006010E+02</rscale>
<asrwt>0</asrwt>
<pdfrwt beam="2">  1        2 0.21594792E-03 0.20006010E+02</pdfrwt>
<pdfrwt beam="1">  1       -2 0.10966935E-01 0.20006010E+02</pdfrwt>
<totfact> 0.31953538E+06</totfact>
</mgrwt>
</event>
<event>
 5    1  0.1607476E-006  0.2000210E+02  0.7818608E-02  0.1745286E+00
          2   -1    0    0  501    0  0.00000000000E+00  0.00000000000E+00  0.13218473744E+02  0.13218474000E+02  0.26000000000E-02 0. -1.
         -2   -1    0    0    0  501 -0.00000000000E+00 -0.00000000000E+00 -0.75667587798E+01  0.75667592265E+01  0.26000000000E-02 0.  1.
       1023    2    1    2    0    0  0.00000000000E+00  0.00000000000E+00  0.56517149642E+01  0.20785233226E+02  0.20002100845E+02 0.  0.
        -13    1    3    3    0    0  0.99258903753E+01  0.12192227590E+01  0.28198708218E+01  0.10390988780E+02  0.10570000000E+00 0.  1.
         13    1    3    3    0    0 -0.99258903753E+01 -0.12192227590E+01  0.28318441423E+01  0.10394244447E+02  0.10570000000E+00 0. -1.
<mgrwt>
<rscale>  0 0.20002101E+02</rscale>
<asrwt>0</asrwt>
<pdfrwt beam="1">  1        2 0.20336114E-02 0.20002101E+02</pdfrwt>
<pdfrwt beam="2">  1       -2 0.11641168E-02 0.20002101E+02</pdfrwt>
<totfact> 0.40282593E+06</totfact>
</mgrwt>
</event>
<event>
 4    1  0.1607476E-006  0.2001411E+02  0.7818608E-02  0.1745048E+00
          2   -1    0    0  501    0  0.00000000000E+00  0.00000000000E+00  0.15710975326E+02  0.15710975541E+02  0.26000000000E-02 0.  1.
         -2   -1    0    0    0  501 -0.00000000000E+00 -0.00000000000E+00 -0.63739606381E+01  0.63739611684E+01  0.26000000000E-02 0. -1.
        -13    1    1    2    0    0  0.66843094741E+01  0.74378973482E+01  0.42742370817E+01  0.10875779753E+02  0.10570000000E+00 0. -1.
         13    1    1    2    0    0 -0.66843094741E+01 -0.74378973482E+01  0.50627776064E+01  0.11209156957E+02  0.10570000000E+00 0.  1.
<mgrwt>
<rscale>  0 0.20014110E+02</rscale>
<asrwt>0</asrwt>
<pdfrwt beam="1">  1        2 0.24170732E-02 0.20014110E+02</pdfrwt>
<pdfrwt beam="2">  1       -2 0.98060940E-03 0.20014110E+02</pdfrwt>
<totfact> 0.40774894E+06</totfact>
</mgrwt>
</event>
<event>
 4    1  0.1607476E-006  0.2089616E+02  0.7818608E-02  0.1728072E+00
         -2   -1    0    0    0  501 -0.00000000000E+00  0.00000000000E+00  0.97808514079E+02  0.97808514114E+02  0.26000000000E-02 0.  1.
          2   -1    0    0  501    0  0.00000000000E+00 -0.00000000000E+00 -0.11160809068E+01  0.11160839352E+01  0.26000000000E-02 0. -1.
        -13    1    1    2    0    0  0.75958009859E+01  0.71694323499E+01  0.49448777808E+02  0.50539981718E+02  0.10570000000E+00 0. -1.
         13    1    1    2    0    0 -0.75958009859E+01 -0.71694323499E+01  0.47243655364E+02  0.48384616331E+02  0.10570000000E+00 0.  1.
<mgrwt>
<rscale>  0 0.20896159E+02</rscale>
<asrwt>0</asrwt>
<pdfrwt beam="2">  1        2 0.17170497E-03 0.20896159E+02</pdfrwt>
<pdfrwt beam="1">  1       -2 0.15047465E-01 0.20896159E+02</pdfrwt>
<totfact> 0.27154854E+06</totfact>
</mgrwt>
</event>
<event>
 5    1  0.1607476E-006  0.2000370E+02  0.7818608E-02  0.1745254E+00
          2   -1    0    0  501    0  0.00000000000E+00  0.00000000000E+00  0.10364223213E+03  0.10364223216E+03  0.26000000000E-02 0. -1.
         -2   -1    0    0    0  501 -0.00000000000E+00 -0.00000000000E+00 -0.96521318723E+00  0.96521668904E+00  0.26000000000E-02 0.  1.
       1023    2    1    2    0    0  0.00000000000E+00  0.00000000000E+00  0.10267701894E+03  0.10460744885E+03  0.20003703064E+02 0.  0.
        -13    1    3    3    0    0 -0.75832733232E+01  0.65201685807E+01  0.50893888253E+02  0.51867308265E+02  0.10570000000E+00 0. -1.
         13    1    3    3    0    0  0.75832733232E+01 -0.65201685807E+01  0.51783130689E+02  0.52740140586E+02  0.10570000000E+00 0.  1.
<mgrwt>
<rscale>  0 0.20003703E+02</rscale>
<asrwt>0</asrwt>
<pdfrwt beam="1">  1        2 0.15944957E-01 0.20003703E+02</pdfrwt>
<pdfrwt beam="2">  1       -2 0.14849463E-03 0.20003703E+02</pdfrwt>
<totfact> 0.53170372E+06</totfact>
</mgrwt>
</event>
<event>
 5    1  0.1607476E-006  0.2000283E+02  0.7818608E-02  0.1745272E+00
         -2   -1    0    0    0  501 -0.00000000000E+00  0.00000000000E+00  0.12148522806E+01  0.12148550628E+01  0.26000000000E-02 0. -1.
          2   -1    0    0  501    0  0.00000000000E+00 -0.00000000000E+00 -0.82337707394E+02  0.82337707436E+02  0.26000000000E-02 0.  1.
       1023    2    1    2    0    0  0.00000000000E+00  0.00000000000E+00 -0.81122855114E+02  0.83552562498E+02  0.20002826756E+02 0.  0.
        -13    1    3    3    0    0  0.10000282399E+02 -0.69328138902E-01 -0.40901865389E+02  0.42106819154E+02  0.10570000000E+00 0. -1.
         13    1    3    3    0    0 -0.10000282399E+02  0.69328138902E-01 -0.40220989725E+02  0.41445743344E+02  0.10570000000E+00 0.  1.
<mgrwt>
<rscale>  0 0.20002827E+02</rscale>
<asrwt>0</asrwt>
<pdfrwt beam="2">  1        2 0.12667335E-01 0.20002827E+02</pdfrwt>
<pdfrwt beam="1">  1       -2 0.18690063E-03 0.20002827E+02</pdfrwt>
<totfact> 0.50577549E+06</totfact>
</mgrwt>
</event>
<event>
 4    1  0.1607476E-006  0.2003037E+02  0.7818608E-02  0.1744725E+00
          2   -1    0    0  501    0  0.00000000000E+00  0.00000000000E+00  0.10745907153E+01  0.10745938607E+01  0.26000000000E-02 0. -1.
         -2   -1    0    0    0  501 -0.00000000000E+00 -0.00000000000E+00 -0.93341357606E+02  0.93341357642E+02  0.26000000000E-02 0.  1.
        -13    1    1    2    0    0 -0.84075681527E+01 -0.54148602273E+01 -0.43617780959E+02  0.44749635773E+02  0.10570000000E+00 0. -1.
         13    1    1    2    0    0  0.84075681527E+01  0.54148602273E+01 -0.48648985931E+02  0.49666315730E+02  0.10570000000E+00 0.  1.
<mgrwt>
<rscale>  0 0.20030368E+02</rscale>
<asrwt>0</asrwt>
<pdfrwt beam="1">  1        2 0.16532197E-03 0.20030368E+02</pdfrwt>
<pdfrwt beam="2">  1       -2 0.14360203E-01 0.20030368E+02</pdfrwt>
<totfact> 0.30122529E+06</totfact>
</mgrwt>
</event>
<event>
 5    1  0.1607476E-006  0.2000760E+02  0.7818608E-02  0.1745177E+00
         -2   -1    0    0    0  501 -0.00000000000E+00  0.00000000000E+00  0.70295629125E+02  0.70295629173E+02  0.26000000000E-02 0. -1.
          2   -1    0    0  501    0  0.00000000000E+00 -0.00000000000E+00 -0.14236442012E+01  0.14236465753E+01  0.26000000000E-02 0.  1.
       1023    2    1    2    0    0  0.00000000000E+00  0.00000000000E+00  0.68871984923E+02  0.71719275748E+02  0.20007603718E+02 0.  0.
        -13    1    3    3    0    0  0.15816473636E+01  0.98769850159E+01  0.34765264036E+02  0.36175837203E+02  0.10570000000E+00 0.  1.
         13    1    3    3    0    0 -0.15816473636E+01 -0.98769850159E+01  0.34106720887E+02  0.35543438544E+02  0.10570000000E+00 0. -1.
<mgrwt>
<rscale>  0 0.20007604E+02</rscale>
<asrwt>0</asrwt>
<pdfrwt beam="2">  1        2 0.21902234E-03 0.20007604E+02</pdfrwt>
<pdfrwt beam="1">  1       -2 0.10814714E-01 0.20007604E+02</pdfrwt>
<totfact> 0.32031539E+06</totfact>
</mgrwt>
</event>
<event>
 5    1  0.1607476E-006  0.2000894E+02  0.7818608E-02  0.1745150E+00
         -2   -1    0    0    0  501 -0.00000000000E+00  0.00000000000E+00  0.11239326957E+01  0.11239357030E+01  0.26000000000E-02 0.  1.
          2   -1    0    0  501    0  0.00000000000E+00 -0.00000000000E+00 -0.89052734800E+02  0.89052734838E+02  0.26000000000E-02 0. -1.
       1023    2    1    2    0    0  0.00000000000E+00  0.00000000000E+00 -0.87928802104E+02  0.90176670541E+02  0.20008939761E+02 0.  0.
        -13    1    3    3    0    0 -0.87761183309E+01 -0.48000511870E+01 -0.44560609898E+02  0.45669682190E+02  0.10570000000E+00 0. -1.
         13    1    3    3    0    0  0.87761183309E+01  0.48000511870E+01 -0.43368192206E+02  0.44506988351E+02  0.10570000000E+00 0.  1.
<mgrwt>
<rscale>  0 0.20008940E+02</rscale>
<asrwt>0</asrwt>
<pdfrwt beam="2">  1        2 0.13700415E-01 0.20008940E+02</pdfrwt>
<pdfrwt beam="1">  1       -2 0.17291303E-03 0.20008940E+02</pdfrwt>
<totfact> 0.51377349E+06</totfact>
</mgrwt>
</event>
<event>
 4    1  0.1607476E-006  0.2003111E+02  0.7818608E-02  0.1744710E+00
          2   -1    0    0  501    0  0.00000000000E+00  0.00000000000E+00  0.96141769330E+02  0.96141769365E+02  0.26000000000E-02 0. -1.
         -2   -1    0    0    0  501 -0.00000000000E+00 -0.00000000000E+00 -0.10433678112E+01  0.10433710507E+01  0.26000000000E-02 0.  1.
        -13    1    1    2    0    0  0.83231863933E+01  0.55699680895E+01  0.47474382592E+02  0.48519358520E+02  0.10570000000E+00 0.  1.
         13    1    1    2    0    0 -0.83231863933E+01 -0.55699680895E+01  0.47624018927E+02  0.48665781895E+02  0.10570000000E+00 0. -1.
<mgrwt>
<rscale>  0 0.20031114E+02</rscale>
<asrwt>0</asrwt>
<pdfrwt beam="1">  1        2 0.14791041E-01 0.20031114E+02</pdfrwt>
<pdfrwt beam="2">  1       -2 0.16051838E-03 0.20031114E+02</pdfrwt>
<totfact> 0.52114426E+06</totfact>
</mgrwt>
</event>
<event>
 5    1  0.1607476E-006  0.2000246E+02  0.7818608E-02  0.1745279E+00
         -2   -1    0    0    0  501 -0.00000000000E+00  0.00000000000E+00  0.81881123388E+01  0.81881127516E+01  0.26000000000E-02 0.  1.
          2   -1    0    0  501    0  0.00000000000E+00 -0.00000000000E+00 -0.12215833594E+02  0.12215833871E+02  0.26000000000E-02 0. -1.
       1023    2    1    2    0    0  0.00000000000E+00  0.00000000000E+00 -0.40277212552E+01  0.20403946622E+02  0.20002462330E+02 0.  0.
        -13    1    3    3    0    0  0.27650654853E+01  0.96102340201E+01 -0.19055826893E+01  0.10180599341E+02  0.10570000000E+00 0. -1.
         13    1    3    3    0    0 -0.27650654853E+01 -0.96102340201E+01 -0.21221385659E+01  0.10223347282E+02  0.10570000000E+00 0.  1.
<mgrwt>
<rscale>  0 0.20002462E+02</rscale>
<asrwt>0</asrwt>
<pdfrwt beam="2">  1        2 0.18793591E-02 0.20002462E+02</pdfrwt>
<pdfrwt beam="1">  1       -2 0.12597096E-02 0.20002462E+02</pdfrwt>
<totfact> 0.40041024E+06</totfact>
</mgrwt>
</event>
<event>
 4    1  0.1607476E-006  0.2002512E+02  0.7818608E-02  0.1744829E+00
          2   -1    0    0  501    0  0.00000000000E+00  0.00000000000E+00  0.13733294915E+02  0.13733295162E+02  0.26000000000E-02 0. -1.
         -2   -1    0    0    0  501 -0.00000000000E+00 -0.00000000000E+00 -0.72998776113E+01  0.72998780743E+01  0.26000000000E-02 0.  1.
        -13    1    1    2    0    0 -0.28213640459E+01  0.96006149400E+01  0.35623720273E+01  0.10622314684E+02  0.10570000000E+00 0.  1.
         13    1    1    2    0    0  0.28213640459E+01 -0.96006149400E+01  0.28710452769E+01  0.10410858551E+02  0.10570000000E+00 0. -1.
<mgrwt>
<rscale>  0 0.20025122E+02</rscale>
<asrwt>0</asrwt>
<pdfrwt beam="1">  1        2 0.21128147E-02 0.20025122E+02</pdfrwt>
<pdfrwt beam="2">  1       -2 0.11230581E-02 0.20025122E+02</pdfrwt>
<totfact> 0.40295491E+06</totfact>
</mgrwt>
</event>
<event>
 4    1  0.1607476E-006  0.2043599E+02  0.7818608E-02  0.1736794E+00
         -2   -1    0    0    0  501 -0.00000000000E+00  0.00000000000E+00  0.47032505514E+01  0.47032512701E+01  0.26000000000E-02 0.  1.
          2   -1    0    0  501    0  0.00000000000E+00 -0.00000000000E+00 -0.22198988279E+02  0.22198988432E+02  0.26000000000E-02 0. -1.
        -13    1    1    2    0    0  0.77546945420E+01  0.64258084571E+01 -0.64792230190E+01  0.11975717314E+02  0.10570000000E+00 0.  1.
         13    1    1    2    0    0 -0.77546945420E+01 -0.64258084571E+01 -0.11016514709E+02  0.14926522388E+02  0.10570000000E+00 0. -1.
<mgrwt>
<rscale>  0 0.20435989E+02</rscale>
<asrwt>0</asrwt>
<pdfrwt beam="2">  1        2 0.34152290E-02 0.20435989E+02</pdfrwt>
<pdfrwt beam="1">  1       -2 0.72357709E-03 0.20435989E+02</pdfrwt>
<totfact> 0.40075361E+06</totfact>
</mgrwt>
</event>
<event>
 4    1  0.1607476E-006  0.2001661E+02  0.7818608E-02  0.1744998E+00
          2   -1    0    0  501    0  0.00000000000E+00  0.00000000000E+00  0.11037089367E+02  0.11037089673E+02  0.26000000000E-02 0. -1.
         -2   -1    0    0    0  501 -0.00000000000E+00 -0.00000000000E+00 -0.90754121827E+01  0.90754125551E+01  0.26000000000E-02 0.  1.
        -13    1    1    2    0    0  0.35389699689E+01 -0.93610275716E+01  0.10237514982E+01  0.10060436633E+02  0.10570000000E+00 0.  1.
         13    1    1    2    0    0 -0.35389699689E+01  0.93610275716E+01  0.93792568586E+00  0.10052065595E+02  0.10570000000E+00 0. -1.
<mgrwt>
<rscale>  0 0.20016607E+02</rscale>
<asrwt>0</asrwt>
<pdfrwt beam="1">  1        2 0.16980138E-02 0.20016607E+02</pdfrwt>
<pdfrwt beam="2">  1       -2 0.13962173E-02 0.20016607E+02</pdfrwt>
<totfact> 0.39675600E+06</totfact>
</mgrwt>
</event>
<event>
 4    1  0.1607476E-006  0.2007545E+02  0.7818608E-02  0.1743832E+00
          2   -1    0    0  501    0  0.00000000000E+00  0.00000000000E+00  0.25236908347E+02  0.25236908481E+02  0.26000000000E-02 0. -1.
         -2   -1    0    0    0  501 -0.00000000000E+00 -0.00000000000E+00 -0.39924022344E+01  0.39924030810E+01  0.26000000000E-02 0.  1.
        -13    1    1    2    0    0  0.86619314045E+01  0.50564790665E+01  0.11181799447E+02  0.15021346397E+02  0.10570000000E+00 0. -1.
         13    1    1    2    0    0 -0.86619314045E+01 -0.50564790665E+01  0.10062706665E+02  0.14207965165E+02  0.10570000000E+00 0.  1.
<mgrwt>
<rscale>  0 0.20075448E+02</rscale>
<asrwt>0</asrwt>
<pdfrwt beam="1">  1        2 0.38826013E-02 0.20075448E+02</pdfrwt>
<pdfrwt beam="2">  1       -2 0.61421582E-03 0.20075448E+02</pdfrwt>
<totfact> 0.42237619E+06</totfact>
</mgrwt>
</event>
<event>
 4    1  0.1607476E-006  0.2001621E+02  0.7818608E-02  0.1745006E+00
          2   -1    0    0  501    0  0.00000000000E+00  0.00000000000E+00  0.17857844222E+01  0.17857863149E+01  0.26000000000E-02 0.  1.
         -2   -1    0    0    0  501 -0.00000000000E+00 -0.00000000000E+00 -0.56088604098E+02  0.56088604159E+02  0.26000000000E-02 0. -1.
        -13    1    1    2    0    0  0.78285955963E+01  0.62297601584E+01 -0.27824664859E+02  0.29568902037E+02  0.10570000000E+00 0.  1.
         13    1    1    2    0    0 -0.78285955963E+01 -0.62297601584E+01 -0.26478154817E+02  0.28305488437E+02  0.10570000000E+00 0. -1.
<mgrwt>
<rscale>  0 0.20016215E+02</rscale>
<asrwt>0</asrwt>
<pdfrwt beam="1">  1        2 0.27473626E-03 0.20016215E+02</pdfrwt>
<pdfrwt beam="2">  1       -2 0.86290148E-02 0.20016215E+02</pdfrwt>
<totfact> 0.33260048E+06</totfact>
</mgrwt>
</event>
<event>
 4    1  0.1607476E-006  0.2001703E+02  0.7818608E-02  0.1744990E+00
          2   -1    0    0  501    0  0.00000000000E+00  0.00000000000E+00  0.60046256183E+01  0.60046261812E+01  0.26000000000E-02 0. -1.
         -2   -1    0    0    0  501 -0.00000000000E+00 -0.00000000000E+00 -0.16682200898E+02  0.16682201101E+02  0.26000000000E-02 0.  1.
        -13    1    1    2    0    0  0.62170998517E+01 -0.78425201846E+01 -0.53862497507E+01  0.11365751725E+02  0.10570000000E+00 0. -1.
         13    1    1    2    0    0 -0.62170998517E+01  0.78425201846E+01 -0.52913255290E+01  0.11321075556E+02  0.10570000000E+00 0.  1.
<mgrwt>
<rscale>  0 0.20017031E+02</rscale>
<asrwt>0</asrwt>
<pdfrwt beam="1">  1        2 0.92378862E-03 0.20017031E+02</pdfrwt>
<pdfrwt beam="2">  1       -2 0.25664925E-02 0.20017031E+02</pdfrwt>
<totfact> 0.37915415E+06</totfact>
</mgrwt>
</event>
<event>
 4    1  0.1607476E-006  0.2010931E+02  0.7818608E-02  0.1743163E+00
          2   -1    0    0  501    0  0.00000000000E+00  0.00000000000E+00  0.44171961604E+02  0.44171961681E+02  0.26000000000E-02 0. -1.
         -2   -1    0    0    0  501 -0.00000000000E+00 -0.00000000000E+00 -0.22886939224E+01  0.22886953992E+01  0.26000000000E-02 0.  1.
        -13    1    1    2    0    0 -0.97134831303E+01  0.25918425354E+01  0.20653421525E+02  0.22970511432E+02  0.10570000000E+00 0. -1.
         13    1    1    2    0    0  0.97134831303E+01 -0.25918425354E+01  0.21229846157E+02  0.23490145648E+02  0.10570000000E+00 0.  1.
<mgrwt>
<rscale>  0 0.20109315E+02</rscale>
<asrwt>0</asrwt>
<pdfrwt beam="1">  1        2 0.67956860E-02 0.20109315E+02</pdfrwt>
<pdfrwt beam="2">  1       -2 0.35210690E-03 0.20109315E+02</pdfrwt>
<totfact> 0.44952417E+06</totfact>
</mgrwt>
</event>
<event>
 5    1  0.1607476E-006  0.2000237E+02  0.7818608E-02  0.1745281E+00
         -2   -1    0    0    0  501 -0.00000000000E+00  0.00000000000E+00  0.75442423718E+01  0.75442428198E+01  0.26000000000E-02 0. -1.
          2   -1    0    0  501    0  0.00000000000E+00 -0.00000000000E+00 -0.13258286432E+02  0.13258286687E+02  0.26000000000E-02 0.  1.
       1023    2    1    2    0    0  0.00000000000E+00  0.00000000000E+00 -0.57140440601E+01  0.20802529507E+02  0.20002373218E+02 0.  0.
        -13    1    3    3    0    0 -0.98796661109E+01 -0.15505492535E+01 -0.28815371872E+01  0.10407998583E+02  0.10570000000E+00 0. -1.
         13    1    3    3    0    0  0.98796661109E+01  0.15505492535E+01 -0.28325068729E+01  0.10394530924E+02  0.10570000000E+00 0.  1.
<mgrwt>
<rscale>  0 0.20002373E+02</rscale>
<asrwt>0</asrwt>
<pdfrwt beam="2">  1        2 0.20397364E-02 0.20002373E+02</pdfrwt>
<pdfrwt beam="1">  1       -2 0.11606527E-02 0.20002373E+02</pdfrwt>
<totfact> 0.40290597E+06</totfact>
</mgrwt>
</event>
<event>
 5    1  0.1607476E-006  0.2000585E+02  0.7818608E-02  0.1745212E+00
          2   -1    0    0  501    0  0.00000000000E+00  0.00000000000E+00  0.41936970544E+01  0.41936978604E+01  0.26000000000E-02 0.  1.
         -2   -1    0    0    0  501 -0.00000000000E+00 -0.00000000000E+00 -0.23859265808E+02  0.23859265950E+02  0.26000000000E-02 0. -1.
       1023    2    1    2    0    0  0.00000000000E+00  0.00000000000E+00 -0.19665568753E+02  0.28052963810E+02  0.20005853746E+02 0.  0.
        -13    1    3    3    0    0 -0.32438682267E+01 -0.94614029084E+01 -0.99462484879E+01  0.14106022031E+02  0.10570000000E+00 0.  1.
         13    1    3    3    0    0  0.32438682267E+01  0.94614029084E+01 -0.97193202656E+01  0.13946941779E+02  0.10570000000E+00 0. -1.
<mgrwt>
<rscale>  0 0.20005854E+02</rscale>
<asrwt>0</asrwt>
<pdfrwt beam="1">  1        2 0.64518425E-03 0.20005854E+02</pdfrwt>
<pdfrwt beam="2">  1       -2 0.36706563E-02 0.20005854E+02</pdfrwt>
<totfact> 0.36842380E+06</totfact>
</mgrwt>
</event>
<event>
 5    1  0.1607476E-006  0.2000116E+02  0.7818608E-02  0.1745305E+00
          2   -1    0    0  501    0  0.00000000000E+00  0.00000000000E+00  0.14393762084E+01  0.14393785566E+01  0.26000000000E-02 0. -1.
         -2   -1    0    0    0  501 -0.00000000000E+00 -0.00000000000E+00 -0.69482550169E+02  0.69482550218E+02  0.26000000000E-02 0.  1.
       1023    2    1    2    0    0  0.00000000000E+00  0.00000000000E+00 -0.68043173961E+02  0.70921928775E+02  0.20001161427E+02 0.  0.
        -13    1    3    3    0    0 -0.77779222523E+01  0.62852448483E+01 -0.33993053560E+02  0.35433589152E+02  0.10570000000E+00 0.  1.
         13    1    3    3    0    0  0.77779222523E+01 -0.62852448483E+01 -0.34050120401E+02  0.35488339623E+02  0.10570000000E+00 0. -1.
<mgrwt>
<rscale>  0 0.20001161E+02</rscale>
<asrwt>0</asrwt>
<pdfrwt beam="1">  1        2 0.22144273E-03 0.20001161E+02</pdfrwt>
<pdfrwt beam="2">  1       -2 0.10689621E-01 0.20001161E+02</pdfrwt>
<totfact> 0.32123169E+06</totfact>
</mgrwt>
</event>
<event>
 5    1  0.1607476E-006  0.2000772E+02  0.7818608E-02  0.1745175E+00
          2   -1    0    0  501    0  0.00000000000E+00  0.00000000000E+00  0.44634598412E+01  0.44634605985E+01  0.26000000000E-02 0.  1.
         -2   -1    0    0    0  501 -0.00000000000E+00 -0.00000000000E+00 -0.22421435617E+02  0.22421435767E+02  0.26000000000E-02 0. -1.
       1023    2    1    2    0    0  0.00000000000E+00  0.00000000000E+00 -0.17957975775E+02  0.26884896366E+02  0.20007717477E+02 0.  0.
        -13    1    3    3    0    0  0.87085973601E+01 -0.49206746646E+01 -0.91340124300E+01  0.13545998033E+02  0.10570000000E+00 0. -1.
         13    1    3    3    0    0 -0.87085973601E+01  0.49206746646E+01 -0.88239633454E+01  0.13338898333E+02  0.10570000000E+00 0.  1.
<mgrwt>
<rscale>  0 0.20007717E+02</rscale>
<asrwt>0</asrwt>
<pdfrwt beam="1">  1        2 0.68668621E-03 0.20007717E+02</pdfrwt>
<pdfrwt beam="2">  1       -2 0.34494517E-02 0.20007717E+02</pdfrwt>
<totfact> 0.37039075E+06</totfact>
</mgrwt>
</event>
<event>
 5    1  0.1607476E-006  0.2000252E+02  0.7818608E-02  0.1745278E+00
          2   -1    0    0  501    0  0.00000000000E+00  0.00000000000E+00  0.76623153136E+02  0.76623153180E+02  0.26000000000E-02 0. -1.
         -2   -1    0    0    0  501 -0.00000000000E+00 -0.00000000000E+00 -0.13054161306E+01  0.13054187198E+01  0.26000000000E-02 0.  1.
       1023    2    1    2    0    0  0.00000000000E+00  0.00000000000E+00  0.75317737006E+02  0.77928571900E+02  0.20002520110E+02 0.  0.
        -13    1    3    3    0    0  0.92633431315E+01  0.37675214647E+01  0.37263738268E+02  0.38582393732E+02  0.10570000000E+00 0.  1.
         13    1    3    3    0    0 -0.92633431315E+01 -0.37675214647E+01  0.38053998738E+02  0.39346178168E+02  0.10570000000E+00 0. -1.
<mgrwt>
<rscale>  0 0.20002520E+02</rscale>
<asrwt>0</asrwt>
<pdfrwt beam="1">  1        2 0.11788175E-01 0.20002520E+02</pdfrwt>
<pdfrwt beam="2">  1       -2 0.20083349E-03 0.20002520E+02</pdfrwt>
<totfact> 0.49857832E+06</totfact>
</mgrwt>
</event>
<event>
 5    1  0.1607476E-006  0.2000269E+02  0.7818608E-02  0.1745275E+00
         -2   -1    0    0    0  501 -0.00000000000E+00  0.00000000000E+00  0.82082598089E+01  0.82082602207E+01  0.26000000000E-02 0. -1.
          2   -1    0    0  501    0  0.00000000000E+00 -0.00000000000E+00 -0.12186130476E+02  0.12186130753E+02  0.26000000000E-02 0.  1.
       1023    2    1    2    0    0  0.00000000000E+00  0.00000000000E+00 -0.39778706670E+01  0.20394390974E+02  0.20002693023E+02 0.  0.
        -13    1    3    3    0    0 -0.98917947517E+01 -0.14724377200E+01 -0.19982409995E+01  0.10199010532E+02  0.10570000000E+00 0.  1.
         13    1    3    3    0    0  0.98917947517E+01  0.14724377200E+01 -0.19796296676E+01  0.10195380442E+02  0.10570000000E+00 0. -1.
<mgrwt>
<rscale>  0 0.20002693E+02</rscale>
<asrwt>0</asrwt>
<pdfrwt beam="2">  1        2 0.18747894E-02 0.20002693E+02</pdfrwt>
<pdfrwt beam="1">  1       -2 0.12628092E-02 0.20002693E+02</pdfrwt>
<totfact> 0.40032654E+06</totfact>
</mgrwt>
</event>
<event>
 5    1  0.1607476E-006  0.2000343E+02  0.7818608E-02  0.1745260E+00
         -2   -1    0    0    0  501 -0.00000000000E+00  0.00000000000E+00  0.13401333558E+01  0.13401358780E+01  0.26000000000E-02 0. -1.
          2   -1    0    0  501    0  0.00000000000E+00 -0.00000000000E+00 -0.74644989445E+02  0.74644989490E+02  0.26000000000E-02 0.  1.
       1023    2    1    2    0    0  0.00000000000E+00  0.00000000000E+00 -0.73304856089E+02  0.75985125368E+02  0.20003433479E+02 0.  0.
        -13    1    3    3    0    0 -0.15874883704E+01  0.98743579120E+01 -0.36690745506E+02  0.38029528551E+02  0.10570000000E+00 0. -1.
         13    1    3    3    0    0  0.15874883704E+01 -0.98743579120E+01 -0.36614110583E+02  0.37955596817E+02  0.10570000000E+00 0.  1.
<mgrwt>
<rscale>  0 0.20003433E+02</rscale>
<asrwt>0</asrwt>
<pdfrwt beam="2">  1        2 0.11483841E-01 0.20003433E+02</pdfrwt>
<pdfrwt beam="1">  1       -2 0.20617462E-03 0.20003433E+02</pdfrwt>
<totfact> 0.49600270E+06</totfact>
</mgrwt>
</event>
<event>
 4    1  0.1607476E-006  0.2005123E+02  0.7818608E-02  0.1744311E+00
         -2   -1    0    0    0  501 -0.00000000000E+00  0.00000000000E+00  0.46116120920E+01  0.46116128250E+01  0.26000000000E-02 0.  1.
          2   -1    0    0  501    0  0.00000000000E+00 -0.00000000000E+00 -0.21795627593E+02  0.21795627748E+02  0.26000000000E-02 0. -1.
        -13    1    1    2    0    0 -0.45207460781E+01  0.89285968464E+01 -0.78186403447E+01  0.12700365982E+02  0.10570000000E+00 0. -1.
         13    1    1    2    0    0  0.45207460781E+01 -0.89285968464E+01 -0.93653751564E+01  0.13706874591E+02  0.10570000000E+00 0.  1.
<mgrwt>
<rscale>  0 0.20051234E+02</rscale>
<asrwt>0</asrwt>
<pdfrwt beam="2">  1        2 0.33531735E-02 0.20051234E+02</pdfrwt>
<pdfrwt beam="1">  1       -2 0.70947887E-03 0.20051234E+02</pdfrwt>
<totfact> 0.41761434E+06</totfact>
</mgrwt>
</event>
<event>
 5    1  0.1607476E-006  0.2000447E+02  0.7818608E-02  0.1745239E+00
          2   -1    0    0  501    0  0.00000000000E+00  0.00000000000E+00  0.70901790434E+02  0.70901790481E+02  0.26000000000E-02 0.  1.
         -2   -1    0    0    0  501 -0.00000000000E+00 -0.00000000000E+00 -0.14110309683E+01  0.14110333637E+01  0.26000000000E-02 0. -1.
       1023    2    1    2    0    0  0.00000000000E+00  0.00000000000E+00  0.69490759465E+02  0.72312823845E+02  0.20004470535E+02 0.  0.
        -13    1    3    3    0    0 -0.10001131535E+02  0.57688224232E-01  0.34430703466E+02  0.35854016143E+02  0.10570000000E+00 0.  1.
         13    1    3    3    0    0  0.10001131535E+02 -0.57688224232E-01  0.35060055999E+02  0.36458807702E+02  0.10570000000E+00 0. -1.
<mgrwt>
<rscale>  0 0.20004471E+02</rscale>
<asrwt>0</asrwt>
<pdfrwt beam="1">  1        2 0.10907967E-01 0.20004471E+02</pdfrwt>
<pdfrwt beam="2">  1       -2 0.21708189E-03 0.20004471E+02</pdfrwt>
<totfact> 0.49112573E+06</totfact>
</mgrwt>
</event>
<event>
 4    1  0.2119616E-006  0.2012844E+02  0.7818608E-02  0.1742786E+00
          2   -1    0    0  501    0  0.00000000000E+00  0.00000000000E+00  0.11166112273E+03  0.11166112276E+03  0.26000000000E-02 0. -1.
         -2   -1    0    0    0  501 -0.00000000000E+00 -0.00000000000E+00 -0.90710431695E+00  0.90710804309E+00  0.26000000000E-02 0.  1.
        -13    1    1    2    0    0 -0.91631578392E+01  0.41373310061E+01  0.57855160522E+02  0.58722327449E+02  0.10570000000E+00 0. -1.
         13    1    1    2    0    0  0.91631578392E+01 -0.41373310061E+01  0.52898857889E+02  0.53845903353E+02  0.10570000000E+00 0.  1.
<mgrwt>
<rscale>  0 0.20128437E+02</rscale>
<asrwt>0</asrwt>
<pdfrwt beam="1">  1        2 0.17178640E-01 0.20128437E+02</pdfrwt>
<pdfrwt beam="2">  1       -2 0.13955476E-03 0.20128437E+02</pdfrwt>
<totfact> 0.53374452E+06</totfact>
</mgrwt>
</event>
<event>
 4    1  0.1607476E-006  0.2002358E+02  0.7818608E-02  0.1744860E+00
          2   -1    0    0  501    0  0.00000000000E+00  0.00000000000E+00  0.55793250777E+01  0.55793256835E+01  0.26000000000E-02 0. -1.
         -2   -1    0    0    0  501 -0.00000000000E+00 -0.00000000000E+00 -0.17965595308E+02  0.17965595496E+02  0.26000000000E-02 0.  1.
        -13    1    1    2    0    0  0.15291247831E+01  0.98937534646E+01 -0.62076832717E+01  0.11780113935E+02  0.10570000000E+00 0. -1.
         13    1    1    2    0    0 -0.15291247831E+01 -0.98937534646E+01 -0.61785869586E+01  0.11764807245E+02  0.10570000000E+00 0.  1.
<mgrwt>
<rscale>  0 0.20023577E+02</rscale>
<asrwt>0</asrwt>
<pdfrwt beam="1">  1        2 0.85835777E-03 0.20023577E+02</pdfrwt>
<pdfrwt beam="2">  1       -2 0.27639378E-02 0.20023577E+02</pdfrwt>
<totfact> 0.37667031E+06</totfact>
</mgrwt>
</event>
<event>
 5    1  0.1607476E-006  0.2000169E+02  0.7818608E-02  0.1745294E+00
          2   -1    0    0  501    0  0.00000000000E+00  0.00000000000E+00  0.47957967048E+02  0.47957967118E+02  0.26000000000E-02 0. -1.
         -2   -1    0    0    0  501 -0.00000000000E+00 -0.00000000000E+00 -0.20855118367E+01  0.20855134574E+01  0.26000000000E-02 0.  1.
       1023    2    1    2    0    0  0.00000000000E+00  0.00000000000E+00  0.45872455211E+02  0.50043480575E+02  0.20001694954E+02 0.  0.
        -13    1    3    3    0    0 -0.97050687452E+01 -0.24113764680E+01  0.23065797992E+02  0.25140511238E+02  0.10570000000E+00 0. -1.
         13    1    3    3    0    0  0.97050687452E+01  0.24113764680E+01  0.22806657219E+02  0.24902969338E+02  0.10570000000E+00 0.  1.
<mgrwt>
<rscale>  0 0.20001695E+02</rscale>
<asrwt>0</asrwt>
<pdfrwt beam="1">  1        2 0.73781493E-02 0.20001695E+02</pdfrwt>
<pdfrwt beam="2">  1       -2 0.32084809E-03 0.20001695E+02</pdfrwt>
<totfact> 0.46032757E+06</totfact>
</mgrwt>
</event>
<event>
 4    1  0.1607476E-006  0.2013735E+02  0.7818608E-02  0.1742610E+00
         -2   -1    0    0    0  501 -0.00000000000E+00  0.00000000000E+00  0.18941724293E+02  0.18941724472E+02  0.26000000000E-02 0.  1.
          2   -1    0    0  501    0  0.00000000000E+00 -0.00000000000E+00 -0.53521096736E+01  0.53521103052E+01  0.26000000000E-02 0. -1.
        -13    1    1    2    0    0  0.23668162754E+01 -0.97845079747E+01  0.69988562813E+01  0.12261059388E+02  0.10570000000E+00 0. -1.
         13    1    1    2    0    0 -0.23668162754E+01  0.97845079747E+01  0.65907583385E+01  0.12032775389E+02  0.10570000000E+00 0.  1.
<mgrwt>
<rscale>  0 0.20137348E+02</rscale>
<asrwt>0</asrwt>
<pdfrwt beam="2">  1        2 0.82340157E-03 0.20137348E+02</pdfrwt>
<pdfrwt beam="1">  1       -2 0.29141114E-02 0.20137348E+02</pdfrwt>
<totfact> 0.37048184E+06</totfact>
</mgrwt>
</event>
<event>
 5    1  0.1607476E-006  0.2000375E+02  0.7818608E-02  0.1745253E+00
         -2   -1    0    0    0  501 -0.00000000000E+00  0.00000000000E+00  0.21083666804E+01  0.21083682836E+01  0.26000000000E-02 0. -1.
          2   -1    0    0  501    0  0.00000000000E+00 -0.00000000000E+00 -0.47447870468E+02  0.47447870540E+02  0.26000000000E-02 0.  1.
       1023    2    1    2    0    0  0.00000000000E+00  0.00000000000E+00 -0.45339503788E+02  0.49556238823E+02  0.20003754712E+02 0.  0.
        -13    1    3    3    0    0  0.97317262281E+01 -0.23053537573E+01 -0.22490647668E+02  0.24614255145E+02  0.10570000000E+00 0. -1.
         13    1    3    3    0    0 -0.97317262281E+01  0.23053537573E+01 -0.22848856120E+02  0.24941983678E+02  0.10570000000E+00 0.  1.
<mgrwt>
<rscale>  0 0.20003755E+02</rscale>
<asrwt>0</asrwt>
<pdfrwt beam="2">  1        2 0.72996717E-02 0.20003755E+02</pdfrwt>
<pdfrwt beam="1">  1       -2 0.32436427E-03 0.20003755E+02</pdfrwt>
<totfact> 0.45950195E+06</totfact>
</mgrwt>
</event>
<event>
 5    1  0.1607476E-006  0.2000352E+02  0.7818608E-02  0.1745258E+00
          2   -1    0    0  501    0  0.00000000000E+00  0.00000000000E+00  0.12685222341E+01  0.12685248986E+01  0.26000000000E-02 0.  1.
         -2   -1    0    0    0  501 -0.00000000000E+00 -0.00000000000E+00 -0.78859585436E+02  0.78859585479E+02  0.26000000000E-02 0. -1.
       1023    2    1    2    0    0  0.00000000000E+00  0.00000000000E+00 -0.77591063202E+02  0.80128110377E+02  0.20003524286E+02 0.  0.
        -13    1    3    3    0    0  0.58283725424E+00  0.99842028372E+01 -0.38828543543E+02  0.40096021894E+02  0.10570000000E+00 0.  1.
         13    1    3    3    0    0 -0.58283725424E+00 -0.99842028372E+01 -0.38762519659E+02  0.40032088483E+02  0.10570000000E+00 0. -1.
<mgrwt>
<rscale>  0 0.20003524E+02</rscale>
<asrwt>0</asrwt>
<pdfrwt beam="1">  1        2 0.19515754E-03 0.20003524E+02</pdfrwt>
<pdfrwt beam="2">  1       -2 0.12132240E-01 0.20003524E+02</pdfrwt>
<totfact> 0.31337559E+06</totfact>
</mgrwt>
</event>
<event>
 5    1  0.1607476E-006  0.2000315E+02  0.7818608E-02  0.1745265E+00
         -2   -1    0    0    0  501 -0.00000000000E+00  0.00000000000E+00  0.24797177019E+02  0.24797177155E+02  0.26000000000E-02 0. -1.
          2   -1    0    0  501    0  0.00000000000E+00 -0.00000000000E+00 -0.40339871083E+01  0.40339879462E+01  0.26000000000E-02 0.  1.
       1023    2    1    2    0    0  0.00000000000E+00  0.00000000000E+00  0.20763189910E+02  0.28831165101E+02  0.20003150398E+02 0.  0.
        -13    1    3    3    0    0 -0.16211993966E+01 -0.98678050908E+01  0.10577473806E+02  0.14556647602E+02  0.10570000000E+00 0.  1.
         13    1    3    3    0    0  0.16211993966E+01  0.98678050908E+01  0.10185716104E+02  0.14274517500E+02  0.10570000000E+00 0. -1.
<mgrwt>
<rscale>  0 0.20003150E+02</rscale>
<asrwt>0</asrwt>
<pdfrwt beam="2">  1        2 0.62061348E-03 0.20003150E+02</pdfrwt>
<pdfrwt beam="1">  1       -2 0.38149504E-02 0.20003150E+02</pdfrwt>
<totfact> 0.36723947E+06</totfact>
</mgrwt>
</event>
<event>
 5    1  0.1607476E-006  0.2000253E+02  0.7818608E-02  0.1745278E+00
          2   -1    0    0  501    0  0.00000000000E+00  0.00000000000E+00  0.12314711320E+02  0.12314711595E+02  0.26000000000E-02 0. -1.
         -2   -1    0    0    0  501 -0.00000000000E+00 -0.00000000000E+00 -0.81224253322E+01  0.81224257484E+01  0.26000000000E-02 0.  1.
       1023    2    1    2    0    0  0.00000000000E+00  0.00000000000E+00  0.41922859879E+01  0.20437137343E+02  0.20002532864E+02 0.  0.
        -13    1    3    3    0    0 -0.70117077698E+01 -0.71306733705E+01  0.20347611813E+01  0.10205977372E+02  0.10570000000E+00 0.  1.
         13    1    3    3    0    0  0.70117077698E+01  0.71306733705E+01  0.21575248065E+01  0.10231159971E+02  0.10570000000E+00 0. -1.
<mgrwt>
<rscale>  0 0.20002533E+02</rscale>
<asrwt>0</asrwt>
<pdfrwt beam="1">  1        2 0.18945710E-02 0.20002533E+02</pdfrwt>
<pdfrwt beam="2">  1       -2 0.12496040E-02 0.20002533E+02</pdfrwt>
<totfact> 0.40064979E+06</totfact>
</mgrwt>
</event>
<event>
 5    1  0.1607476E-006  0.2000332E+02  0.7818608E-02  0.1745262E+00
         -2   -1    0    0    0  501 -0.00000000000E+00  0.00000000000E+00  0.30577151176E+01  0.30577162230E+01  0.26000000000E-02 0. -1.
          2   -1    0    0  501    0  0.00000000000E+00 -0.00000000000E+00 -0.32715014548E+02  0.32715014651E+02  0.26000000000E-02 0.  1.
       1023    2    1    2    0    0  0.00000000000E+00  0.00000000000E+00 -0.29657299430E+02  0.35772730874E+02  0.20003321342E+02 0.  0.
        -13    1    3    3    0    0  0.10000541077E+02  0.40630089529E-01 -0.14653693314E+02  0.17741318239E+02  0.10570000000E+00 0. -1.
         13    1    3    3    0    0 -0.10000541077E+02 -0.40630089529E-01 -0.15003606116E+02  0.18031412635E+02  0.10570000000E+00 0.  1.
<mgrwt>
<rscale>  0 0.20003321E+02</rscale>
<asrwt>0</asrwt>
<pdfrwt beam="2">  1        2 0.50330790E-02 0.20003321E+02</pdfrwt>
<pdfrwt beam="1">  1       -2 0.47041783E-03 0.20003321E+02</pdfrwt>
<totfact> 0.43782320E+06</totfact>
</mgrwt>
</event>
<event>
 5    1  0.1607476E-006  0.2000712E+02  0.7818608E-02  0.1745187E+00
         -2   -1    0    0    0  501 -0.00000000000E+00  0.00000000000E+00  0.11133147901E+02  0.11133148205E+02  0.26000000000E-02 0.  1.
          2   -1    0    0  501    0  0.00000000000E+00 -0.00000000000E+00 -0.89885809006E+01  0.89885812766E+01  0.26000000000E-02 0. -1.
       1023    2    1    2    0    0  0.00000000000E+00  0.00000000000E+00  0.21445670009E+01  0.20121729482E+02  0.20007119476E+02 0.  0.
        -13    1    3    3    0    0  0.99976125929E+01  0.29436892137E+00  0.92610883682E+00  0.10045285496E+02  0.10570000000E+00 0. -1.
         13    1    3    3    0    0 -0.99976125929E+01 -0.29436892137E+00  0.12184581641E+01  0.10076443986E+02  0.10570000000E+00 0.  1.
<mgrwt>
<rscale>  0 0.20007119E+02</rscale>
<asrwt>0</asrwt>
<pdfrwt beam="2">  1        2 0.13828587E-02 0.20007119E+02</pdfrwt>
<pdfrwt beam="1">  1       -2 0.17127920E-02 0.20007119E+02</pdfrwt>
<totfact> 0.39124611E+06</totfact>
</mgrwt>
</event>
<event>
 5    1  0.1607476E-006  0.2000162E+02  0.7818608E-02  0.1745296E+00
          2   -1    0    0  501    0  0.00000000000E+00  0.00000000000E+00  0.43674278321E+01  0.43674286060E+01  0.26000000000E-02 0. -1.
         -2   -1    0    0    0  501 -0.00000000000E+00 -0.00000000000E+00 -0.22900476589E+02  0.22900476737E+02  0.26000000000E-02 0.  1.
       1023    2    1    2    0    0  0.00000000000E+00  0.00000000000E+00 -0.18533048757E+02  0.27267905343E+02  0.20001619073E+02 0.  0.
        -13    1    3    3    0    0  0.69121860001E+01 -0.72267905125E+01 -0.92471251233E+01  0.13620767671E+02  0.10570000000E+00 0. -1.
         13    1    3    3    0    0 -0.69121860001E+01  0.72267905125E+01 -0.92859236338E+01  0.13647137672E+02  0.10570000000E+00 0.  1.
<mgrwt>
<rscale>  0 0.20001619E+02</rscale>
<asrwt>0</asrwt>
<pdfrwt beam="1">  1        2 0.67191206E-03 0.20001619E+02</pdfrwt>
<pdfrwt beam="2">  1       -2 0.35231503E-02 0.20001619E+02</pdfrwt>
<totfact> 0.36994694E+06</totfact>
</mgrwt>
</event>
<event>
 5    1  0.1607476E-006  0.2000168E+02  0.7818608E-02  0.1745295E+00
          2   -1    0    0  501    0  0.00000000000E+00  0.00000000000E+00  0.13689823738E+01  0.13689848428E+01  0.26000000000E-02 0.  1.
         -2   -1    0    0    0  501 -0.00000000000E+00 -0.00000000000E+00 -0.73059181732E+02  0.73059181778E+02  0.26000000000E-02 0. -1.
       1023    2    1    2    0    0  0.00000000000E+00  0.00000000000E+00 -0.71690199358E+02  0.74428166621E+02  0.20001682493E+02 0.  0.
        -13    1    3    3    0    0 -0.95508671510E+01 -0.29635982241E+01 -0.36070690688E+02  0.37431375569E+02  0.10570000000E+00 0.  1.
         13    1    3    3    0    0  0.95508671510E+01  0.29635982241E+01 -0.35619508670E+02  0.36996791052E+02  0.10570000000E+00 0. -1.
<mgrwt>
<rscale>  0 0.20001682E+02</rscale>
<asrwt>0</asrwt>
<pdfrwt beam="1">  1        2 0.21061292E-03 0.20001682E+02</pdfrwt>
<pdfrwt beam="2">  1       -2 0.11239871E-01 0.20001682E+02</pdfrwt>
<totfact> 0.31819840E+06</totfact>
</mgrwt>
</event>
<event>
 5    1  0.1607476E-006  0.2001088E+02  0.7818608E-02  0.1745112E+00
         -2   -1    0    0    0  501 -0.00000000000E+00  0.00000000000E+00  0.43530355456E+02  0.43530355533E+02  0.26000000000E-02 0. -1.
          2   -1    0    0  501    0  0.00000000000E+00 -0.00000000000E+00 -0.22997457707E+01  0.22997472404E+01  0.26000000000E-02 0.  1.
       1023    2    1    2    0    0  0.00000000000E+00  0.00000000000E+00  0.41230609685E+02  0.45830102774E+02  0.20010875674E+02 0.  0.
        -13    1    3    3    0    0 -0.58793061387E+01 -0.80949546067E+01  0.20488137300E+02  0.22800646335E+02  0.10570000000E+00 0.  1.
         13    1    3    3    0    0  0.58793061387E+01  0.80949546067E+01  0.20742472385E+02  0.23029456439E+02  0.10570000000E+00 0. -1.
<mgrwt>
<rscale>  0 0.20010876E+02</rscale>
<asrwt>0</asrwt>
<pdfrwt beam="2">  1        2 0.35380721E-03 0.20010876E+02</pdfrwt>
<pdfrwt beam="1">  1       -2 0.66969770E-02 0.20010876E+02</pdfrwt>
<totfact> 0.34507364E+06</totfact>
</mgrwt>
</event>
<event>
 5    1  0.1711562E-006  0.2000188E+02  0.7818608E-02  0.1745291E+00
          2   -1    0    0  501    0  0.00000000000E+00  0.00000000000E+00  0.19109283167E+02  0.19109283343E+02  0.26000000000E-02 0.  1.
         -2   -1    0    0    0  501 -0.00000000000E+00 -0.00000000000E+00 -0.52340401133E+01  0.52340407591E+01  0.26000000000E-02 0. -1.
       1023    2    1    2    0    0  0.00000000000E+00  0.00000000000E+00  0.13875243053E+02  0.24343324103E+02  0.20001876376E+02 0.  0.
        -13    1    3    3    0    0 -0.85777671807E+01 -0.51407482891E+01  0.68804152091E+01  0.12139055512E+02  0.10570000000E+00 0.  1.
         13    1    3    3    0    0  0.85777671807E+01  0.51407482891E+01  0.69948278442E+01  0.12204268591E+02  0.10570000000E+00 0. -1.
<mgrwt>
<rscale>  0 0.20001876E+02</rscale>
<asrwt>0</asrwt>
<pdfrwt beam="1">  1        2 0.29398898E-02 0.20001876E+02</pdfrwt>
<pdfrwt beam="2">  1       -2 0.80523700E-03 0.20001876E+02</pdfrwt>
<totfact> 0.41503362E+06</totfact>
</mgrwt>
</event>
<event>
 4    1  0.1607476E-006  0.2002451E+02  0.7818608E-02  0.1744841E+00
          2   -1    0    0  501    0  0.00000000000E+00  0.00000000000E+00  0.15415466468E+01  0.15415488394E+01  0.26000000000E-02 0.  1.
         -2   -1    0    0    0  501 -0.00000000000E+00 -0.00000000000E+00 -0.65028982056E+02  0.65028982108E+02  0.26000000000E-02 0. -1.
        -13    1    1    2    0    0  0.10007655034E+02 -0.27705153264E+00 -0.31528406533E+02  0.33079926055E+02  0.10570000000E+00 0. -1.
         13    1    1    2    0    0 -0.10007655034E+02  0.27705153264E+00 -0.31959028876E+02  0.33490604892E+02  0.10570000000E+00 0.  1.
<mgrwt>
<rscale>  0 0.20024513E+02</rscale>
<asrwt>0</asrwt>
<pdfrwt beam="1">  1        2 0.23716125E-03 0.20024513E+02</pdfrwt>
<pdfrwt beam="2">  1       -2 0.10004457E-01 0.20024513E+02</pdfrwt>
<totfact> 0.32425080E+06</totfact>
</mgrwt>
</event>
<event>
 4    1  0.1607476E-006  0.2004499E+02  0.7818608E-02  0.1744435E+00
         -2   -1    0    0    0  501 -0.00000000000E+00  0.00000000000E+00  0.13856400814E+02  0.13856401058E+02  0.26000000000E-02 0.  1.
          2   -1    0    0  501    0  0.00000000000E+00 -0.00000000000E+00 -0.72493866000E+01  0.72493870662E+01  0.26000000000E-02 0. -1.
        -13    1    1    2    0    0 -0.92899941600E+01 -0.37395548280E+01  0.28943832268E+01  0.10424820793E+02  0.10570000000E+00 0. -1.
         13    1    1    2    0    0  0.92899941600E+01  0.37395548280E+01  0.37126309877E+01  0.10680967332E+02  0.10570000000E+00 0.  1.
<mgrwt>
<rscale>  0 0.20044991E+02</rscale>
<asrwt>0</asrwt>
<pdfrwt beam="2">  1        2 0.11152903E-02 0.20044991E+02</pdfrwt>
<pdfrwt beam="1">  1       -2 0.21317540E-02 0.20044991E+02</pdfrwt>
<totfact> 0.38341137E+06</totfact>
</mgrwt>
</event>
<event>
 5    1  0.1607476E-006  0.2000224E+02  0.7818608E-02  0.1745284E+00
         -2   -1    0    0    0  501 -0.00000000000E+00  0.00000000000E+00  0.11103822948E+01  0.11103853388E+01  0.26000000000E-02 0.  1.
          2   -1    0    0  501    0  0.00000000000E+00 -0.00000000000E+00 -0.90079112132E+02  0.90079112169E+02  0.26000000000E-02 0. -1.
       1023    2    1    2    0    0  0.00000000000E+00  0.00000000000E+00 -0.88968729837E+02  0.91189497508E+02  0.20002239049E+02 0.  0.
        -13    1    3    3    0    0 -0.99471500775E+01  0.10321451882E+01 -0.44530158248E+02  0.45639426863E+02  0.10570000000E+00 0. -1.
         13    1    3    3    0    0  0.99471500775E+01 -0.10321451882E+01 -0.44438571589E+02  0.45550070645E+02  0.10570000000E+00 0.  1.
<mgrwt>
<rscale>  0 0.20002239E+02</rscale>
<asrwt>0</asrwt>
<pdfrwt beam="2">  1        2 0.13858319E-01 0.20002239E+02</pdfrwt>
<pdfrwt beam="1">  1       -2 0.17082835E-03 0.20002239E+02</pdfrwt>
<totfact> 0.51541690E+06</totfact>
</mgrwt>
</event>
<event>
 4    1  0.1607476E-006  0.2005428E+02  0.7818608E-02  0.1744251E+00
         -2   -1    0    0    0  501 -0.00000000000E+00  0.00000000000E+00  0.18499618868E+02  0.18499619051E+02  0.26000000000E-02 0. -1.
          2   -1    0    0  501    0  0.00000000000E+00 -0.00000000000E+00 -0.54348949713E+01  0.54348955932E+01  0.26000000000E-02 0.  1.
        -13    1    1    2    0    0 -0.66938855979E+01 -0.74621116577E+01  0.62903814729E+01  0.11835171581E+02  0.10570000000E+00 0.  1.
         13    1    1    2    0    0  0.66938855979E+01  0.74621116577E+01  0.67743424241E+01  0.12099343063E+02  0.10570000000E+00 0. -1.
<mgrwt>
<rscale>  0 0.20054276E+02</rscale>
<asrwt>0</asrwt>
<pdfrwt beam="2">  1        2 0.83613774E-03 0.20054276E+02</pdfrwt>
<pdfrwt beam="1">  1       -2 0.28460953E-02 0.20054276E+02</pdfrwt>
<totfact> 0.37453741E+06</totfact>
</mgrwt>
</event>
<event>
 4    1  0.1607476E-006  0.2002025E+02  0.7818608E-02  0.1744926E+00
          2   -1    0    0  501    0  0.00000000000E+00  0.00000000000E+00  0.86826352817E+00  0.86826742099E+00  0.26000000000E-02 0. -1.
         -2   -1    0    0    0  501 -0.00000000000E+00 -0.00000000000E+00 -0.11540549500E+03  0.11540549503E+03  0.26000000000E-02 0.  1.
        -13    1    1    2    0    0  0.95621018679E+01  0.29592241274E+01 -0.57415338785E+02  0.58281412988E+02  0.10570000000E+00 0. -1.
         13    1    1    2    0    0 -0.95621018679E+01 -0.29592241274E+01 -0.57121892689E+02  0.57992349465E+02  0.10570000000E+00 0.  1.
<mgrwt>
<rscale>  0 0.20020251E+02</rscale>
<asrwt>0</asrwt>
<pdfrwt beam="1">  1        2 0.13357940E-03 0.20020251E+02</pdfrwt>
<pdfrwt beam="2">  1       -2 0.17754680E-01 0.20020251E+02</pdfrwt>
<totfact> 0.28586356E+06</totfact>
</mgrwt>
</event>
<event>
 5    1  0.1607476E-006  0.2000195E+02  0.7818608E-02  0.1745289E+00
         -2   -1    0    0    0  501 -0.00000000000E+00  0.00000000000E+00  0.13783413414E+02  0.13783413659E+02  0.26000000000E-02 0. -1.
          2   -1    0    0  501    0  0.00000000000E+00 -0.00000000000E+00 -0.72565103742E+01  0.72565108399E+01  0.26000000000E-02 0.  1.
       1023    2    1    2    0    0  0.00000000000E+00  0.00000000000E+00  0.65269030396E+01  0.21039924499E+02  0.20001948896E+02 0.  0.
        -13    1    3    3    0    0  0.80468332638E+01  0.59370711153E+01  0.31694942972E+01  0.10490815297E+02  0.10570000000E+00 0.  1.
         13    1    3    3    0    0 -0.80468332638E+01 -0.59370711153E+01  0.33574087425E+01  0.10549109202E+02  0.10570000000E+00 0. -1.
<mgrwt>
<rscale>  0 0.20001949E+02</rscale>
<asrwt>0</asrwt>
<pdfrwt beam="2">  1        2 0.11163863E-02 0.20001949E+02</pdfrwt>
<pdfrwt beam="1">  1       -2 0.21205252E-02 0.20001949E+02</pdfrwt>
<totfact> 0.38534438E+06</totfact>
</mgrwt>
</event>
<event>
 5    1  0.1673124E-006  0.2000216E+02  0.7818608E-02  0.1745285E+00
          2   -1    0    0  501    0  0.00000000000E+00  0.00000000000E+00  0.65338092465E+02  0.65338092517E+02  0.26000000000E-02 0.  1.
         -2   -1    0    0    0  501 -0.00000000000E+00 -0.00000000000E+00 -0.15308303279E+01  0.15308325359E+01  0.26000000000E-02 0. -1.
       1023    2    1    2    0    0  0.00000000000E+00  0.00000000000E+00  0.63807262137E+02  0.66868925053E+02  0.20002160790E+02 0.  0.
        -13    1    3    3    0    0  0.17469474761E+01 -0.98462868697E+01  0.31582173468E+02  0.33127723194E+02  0.10570000000E+00 0. -1.
         13    1    3    3    0    0 -0.17469474761E+01  0.98462868697E+01  0.32225088670E+02  0.33741201859E+02  0.10570000000E+00 0.  1.
<mgrwt>
<rscale>  0 0.20002161E+02</rscale>
<asrwt>0</asrwt>
<pdfrwt beam="1">  1        2 0.10052014E-01 0.20002161E+02</pdfrwt>
<pdfrwt beam="2">  1       -2 0.23551255E-03 0.20002161E+02</pdfrwt>
<totfact> 0.48397411E+06</totfact>
</mgrwt>
</event>
<event>
 5    1  0.2481356E-006  0.2000640E+02  0.7818608E-02  0.1745201E+00
          2   -1    0    0  501    0  0.00000000000E+00  0.00000000000E+00  0.11589494746E+03  0.11589494749E+03  0.26000000000E-02 0. -1.
         -2   -1    0    0    0  501 -0.00000000000E+00 -0.00000000000E+00 -0.86340032988E+00  0.86340424462E+00  0.26000000000E-02 0.  1.
       1023    2    1    2    0    0  0.00000000000E+00  0.00000000000E+00  0.11503154713E+03  0.11675835174E+03  0.20006395589E+02 0.  0.
        -13    1    3    3    0    0 -0.81538990956E+01  0.57911049473E+01  0.58523682616E+02  0.59372178387E+02  0.10570000000E+00 0. -1.
         13    1    3    3    0    0  0.81538990956E+01 -0.57911049473E+01  0.56507864516E+02  0.57386173349E+02  0.10570000000E+00 0.  1.
<mgrwt>
<rscale>  0 0.20006396E+02</rscale>
<asrwt>0</asrwt>
<pdfrwt beam="1">  1        2 0.17829986E-01 0.20006396E+02</pdfrwt>
<pdfrwt beam="2">  1       -2 0.13283117E-03 0.20006396E+02</pdfrwt>
<totfact> 0.54583934E+06</totfact>
</mgrwt>
</event>
<event>
 4    1  0.1607476E-006  0.2002638E+02  0.7818608E-02  0.1744804E+00
         -2   -1    0    0    0  501 -0.00000000000E+00  0.00000000000E+00  0.36025598626E+02  0.36025598720E+02  0.26000000000E-02 0. -1.
          2   -1    0    0  501    0  0.00000000000E+00 -0.00000000000E+00 -0.27831296575E+01  0.27831308719E+01  0.26000000000E-02 0.  1.
        -13    1    1    2    0    0  0.99959987832E+01 -0.54716902144E+00  0.16975285078E+02  0.19707634602E+02  0.10570000000E+00 0. -1.
         13    1    1    2    0    0 -0.99959987832E+01  0.54716902144E+00  0.16267183890E+02  0.19101094990E+02  0.10570000000E+00 0.  1.
<mgrwt>
<rscale>  0 0.20026376E+02</rscale>
<asrwt>0</asrwt>
<pdfrwt beam="2">  1        2 0.42817394E-03 0.20026376E+02</pdfrwt>
<pdfrwt beam="1">  1       -2 0.55423993E-02 0.20026376E+02</pdfrwt>
<totfact> 0.35255235E+06</totfact>
</mgrwt>
</event>
<event>
 4    1  0.1607476E-006  0.2001674E+02  0.7818608E-02  0.1744995E+00
         -2   -1    0    0    0  501 -0.00000000000E+00  0.00000000000E+00  0.43373338333E+02  0.43373338411E+02  0.26000000000E-02 0.  1.
          2   -1    0    0  501    0  0.00000000000E+00 -0.00000000000E+00 -0.23094233624E+01  0.23094248260E+01  0.26000000000E-02 0. -1.
        -13    1    1    2    0    0  0.97062239386E+01 -0.24339155945E+01  0.20197042497E+02  0.22540328888E+02  0.10570000000E+00 0. -1.
         13    1    1    2    0    0 -0.97062239386E+01  0.24339155945E+01  0.20866872474E+02  0.23142434349E+02  0.10570000000E+00 0.  1.
<mgrwt>
<rscale>  0 0.20016737E+02</rscale>
<asrwt>0</asrwt>
<pdfrwt beam="2">  1        2 0.35529607E-03 0.20016737E+02</pdfrwt>
<pdfrwt beam="1">  1       -2 0.66728205E-02 0.20016737E+02</pdfrwt>
<totfact> 0.34501533E+06</totfact>
</mgrwt>
</event>
<event>
 4    1  0.1607476E-006  0.2002246E+02  0.7818608E-02  0.1744882E+00
          2   -1    0    0  501    0  0.00000000000E+00  0.00000000000E+00  0.26472263660E+01  0.26472276428E+01  0.26000000000E-02 0.  1.
         -2   -1    0    0    0  501 -0.00000000000E+00 -0.00000000000E+00 -0.37860253445E+02  0.37860253535E+02  0.26000000000E-02 0. -1.
        -13    1    1    2    0    0  0.55512608272E+01  0.83299349345E+01 -0.17412427047E+02  0.20085021806E+02  0.10570000000E+00 0. -1.
         13    1    1    2    0    0 -0.55512608272E+01 -0.83299349345E+01 -0.17800600032E+02  0.20422459371E+02  0.10570000000E+00 0.  1.
<mgrwt>
<rscale>  0 0.20022456E+02</rscale>
<asrwt>0</asrwt>
<pdfrwt beam="1">  1        2 0.40726573E-03 0.20022456E+02</pdfrwt>
<pdfrwt beam="2">  1       -2 0.58246541E-02 0.20022456E+02</pdfrwt>
<totfact> 0.35066814E+06</totfact>
</mgrwt>
</event>
<event>
 4    1  0.1607476E-006  0.2002398E+02  0.7818608E-02  0.1744852E+00
          2   -1    0    0  501    0  0.00000000000E+00  0.00000000000E+00  0.65213588785E+01  0.65213593968E+01  0.26000000000E-02 0.  1.
         -2   -1    0    0    0  501 -0.00000000000E+00 -0.00000000000E+00 -0.15371015845E+02  0.15371016065E+02  0.26000000000E-02 0. -1.
        -13    1    1    2    0    0  0.98637462121E+01 -0.16733200280E+01 -0.48269176758E+01  0.11108726119E+02  0.10570000000E+00 0.  1.
         13    1    1    2    0    0 -0.98637462121E+01  0.16733200280E+01 -0.40227392908E+01  0.10783649343E+02  0.10570000000E+00 0. -1.
<mgrwt>
<rscale>  0 0.20023978E+02</rscale>
<asrwt>0</asrwt>
<pdfrwt beam="1">  1        2 0.10032860E-02 0.20023978E+02</pdfrwt>
<pdfrwt beam="2">  1       -2 0.23647717E-02 0.20023978E+02</pdfrwt>
<totfact> 0.38127557E+06</totfact>
</mgrwt>
</event>
<event>
 5    1  0.2645926E-006  0.2000186E+02  0.7818608E-02  0.1745291E+00
          2   -1    0    0  501    0  0.00000000000E+00  0.00000000000E+00  0.11066226621E+03  0.11066226625E+03  0.26000000000E-02 0.  1.
         -2   -1    0    0    0  501 -0.00000000000E+00 -0.00000000000E+00 -0.90381665042E+00  0.90382039010E+00  0.26000000000E-02 0. -1.
       1023    2    1    2    0    0  0.00000000000E+00  0.00000000000E+00  0.10975844956E+03  0.11156608664E+03  0.20001860823E+02 0.  0.
        -13    1    3    3    0    0 -0.97408874454E+01 -0.22632997497E+01  0.54852695565E+02  0.55756943938E+02  0.10570000000E+00 0.  1.
         13    1    3    3    0    0  0.97408874454E+01  0.22632997497E+01  0.54905753999E+02  0.55809142698E+02  0.10570000000E+00 0. -1.
<mgrwt>
<rscale>  0 0.20001861E+02</rscale>
<asrwt>0</asrwt>
<pdfrwt beam="1">  1        2 0.17024971E-01 0.20001861E+02</pdfrwt>
<pdfrwt beam="2">  1       -2 0.13904895E-03 0.20001861E+02</pdfrwt>
<totfact> 0.54005702E+06</totfact>
</mgrwt>
</event>
<event>
 5    1  0.1607476E-006  0.2000715E+02  0.7818608E-02  0.1745186E+00
          2   -1    0    0  501    0  0.00000000000E+00  0.00000000000E+00  0.15195835583E+02  0.15195835805E+02  0.26000000000E-02 0.  1.
         -2   -1    0    0    0  501 -0.00000000000E+00 -0.00000000000E+00 -0.65854570456E+01  0.65854575588E+01  0.26000000000E-02 0. -1.
       1023    2    1    2    0    0  0.00000000000E+00  0.00000000000E+00  0.86103785374E+01  0.21781293364E+02  0.20007151773E+02 0.  0.
        -13    1    3    3    0    0  0.74539305113E+00 -0.99747578324E+01  0.42021761350E+01  0.10849924487E+02  0.10570000000E+00 0. -1.
         13    1    3    3    0    0 -0.74539305113E+00  0.99747578324E+01  0.44082024024E+01  0.10931368877E+02  0.10570000000E+00 0.  1.
<mgrwt>
<rscale>  0 0.20007152E+02</rscale>
<asrwt>0</asrwt>
<pdfrwt beam="1">  1        2 0.23378209E-02 0.20007152E+02</pdfrwt>
<pdfrwt beam="2">  1       -2 0.10131473E-02 0.20007152E+02</pdfrwt>
<totfact> 0.40698469E+06</totfact>
</mgrwt>
</event>
<event>
 5    1  0.1607476E-006  0.2000473E+02  0.7818608E-02  0.1745234E+00
          2   -1    0    0  501    0  0.00000000000E+00  0.00000000000E+00  0.63906291586E+02  0.63906291638E+02  0.26000000000E-02 0. -1.
         -2   -1    0    0    0  501 -0.00000000000E+00 -0.00000000000E+00 -0.15655299330E+01  0.15655320921E+01  0.26000000000E-02 0.  1.
       1023    2    1    2    0    0  0.00000000000E+00  0.00000000000E+00  0.62340761652E+02  0.65471823730E+02  0.20004727921E+02 0.  0.
        -13    1    3    3    0    0 -0.41651950620E+01  0.90929700303E+01  0.30935319847E+02  0.32512092218E+02  0.10570000000E+00 0.  1.
         13    1    3    3    0    0  0.41651950620E+01 -0.90929700303E+01  0.31405441805E+02  0.32959731512E+02  0.10570000000E+00 0. -1.
<mgrwt>
<rscale>  0 0.20004728E+02</rscale>
<asrwt>0</asrwt>
<pdfrwt beam="1">  1        2 0.98317402E-02 0.20004728E+02</pdfrwt>
<pdfrwt beam="2">  1       -2 0.24085086E-03 0.20004728E+02</pdfrwt>
<totfact> 0.48194224E+06</totfact>
</mgrwt>
</event>
<event>
 4    1  0.1607476E-006  0.2010396E+02  0.7818608E-02  0.1743269E+00
         -2   -1    0    0    0  501 -0.00000000000E+00  0.00000000000E+00  0.13996258280E+02  0.13996258522E+02  0.26000000000E-02 0. -1.
          2   -1    0    0  501    0  0.00000000000E+00 -0.00000000000E+00 -0.72192381125E+01  0.72192385807E+01  0.26000000000E-02 0.  1.
        -13    1    1    2    0    0  0.81297713335E+01 -0.59064036352E+01  0.31470115312E+01  0.10530604916E+02  0.10570000000E+00 0. -1.
         13    1    1    2    0    0 -0.81297713335E+01  0.59064036352E+01  0.36300086366E+01  0.10684892186E+02  0.10570000000E+00 0.  1.
<mgrwt>
<rscale>  0 0.20103963E+02</rscale>
<asrwt>0</asrwt>
<pdfrwt beam="2">  1        2 0.11106521E-02 0.20103963E+02</pdfrwt>
<pdfrwt beam="1">  1       -2 0.21532706E-02 0.20103963E+02</pdfrwt>
<totfact> 0.38070295E+06</totfact>
</mgrwt>
</event>
<event>
 5    1  0.1607476E-006  0.2000407E+02  0.7818608E-02  0.1745247E+00
         -2   -1    0    0    0  501 -0.00000000000E+00  0.00000000000E+00  0.33918723949E+02  0.33918724049E+02  0.26000000000E-02 0.  1.
          2   -1    0    0  501    0  0.00000000000E+00 -0.00000000000E+00 -0.29494228430E+01  0.29494239890E+01  0.26000000000E-02 0. -1.
       1023    2    1    2    0    0  0.00000000000E+00  0.00000000000E+00  0.30969301106E+02  0.36868148038E+02  0.20004067805E+02 0.  0.
        -13    1    3    3    0    0  0.53641166538E+00 -0.99868234758E+01  0.15352656969E+02  0.18323199205E+02  0.10570000000E+00 0. -1.
         13    1    3    3    0    0 -0.53641166538E+00  0.99868234758E+01  0.15616644137E+02  0.18544948833E+02  0.10570000000E+00 0.  1.
<mgrwt>
<rscale>  0 0.20004068E+02</rscale>
<asrwt>0</asrwt>
<pdfrwt beam="2">  1        2 0.45375744E-03 0.20004068E+02</pdfrwt>
<pdfrwt beam="1">  1       -2 0.52182655E-02 0.20004068E+02</pdfrwt>
<totfact> 0.35581315E+06</totfact>
</mgrwt>
</event>
<event>
 5    1  0.1607476E-006  0.2000229E+02  0.7818608E-02  0.1745282E+00
          2   -1    0    0  501    0  0.00000000000E+00  0.00000000000E+00  0.22747834498E+01  0.22747849356E+01  0.26000000000E-02 0. -1.
         -2   -1    0    0    0  501 -0.00000000000E+00 -0.00000000000E+00 -0.43970299728E+02  0.43970299805E+02  0.26000000000E-02 0.  1.
       1023    2    1    2    0    0  0.00000000000E+00  0.00000000000E+00 -0.41695516278E+02  0.46245084741E+02  0.20002294492E+02 0.  0.
        -13    1    3    3    0    0 -0.29426716690E+00  0.99961766655E+01 -0.20941176638E+02  0.23206770404E+02  0.10570000000E+00 0.  1.
         13    1    3    3    0    0  0.29426716690E+00 -0.99961766655E+01 -0.20754339641E+02  0.23038314337E+02  0.10570000000E+00 0. -1.
<mgrwt>
<rscale>  0 0.20002294E+02</rscale>
<asrwt>0</asrwt>
<pdfrwt beam="1">  1        2 0.34996684E-03 0.20002294E+02</pdfrwt>
<pdfrwt beam="2">  1       -2 0.67646610E-02 0.20002294E+02</pdfrwt>
<totfact> 0.34494281E+06</totfact>
</mgrwt>
</event>
<event>
 5    1  0.1607476E-006  0.2000165E+02  0.7818608E-02  0.1745295E+00
         -2   -1    0    0    0  501 -0.00000000000E+00  0.00000000000E+00  0.85694959248E+01  0.85694963192E+01  0.26000000000E-02 0. -1.
          2   -1    0    0  501    0  0.00000000000E+00 -0.00000000000E+00 -0.11671222753E+02  0.11671223043E+02  0.26000000000E-02 0.  1.
       1023    2    1    2    0    0  0.00000000000E+00  0.00000000000E+00 -0.31017268286E+01  0.20240719362E+02  0.20001650206E+02 0.  0.
        -13    1    3    3    0    0  0.54356078500E+01  0.83940126449E+01 -0.15437600839E+01  0.10119271153E+02  0.10570000000E+00 0. -1.
         13    1    3    3    0    0 -0.54356078500E+01 -0.83940126449E+01 -0.15579667447E+01  0.10121448209E+02  0.10570000000E+00 0.  1.
<mgrwt>
<rscale>  0 0.20001650E+02</rscale>
<asrwt>0</asrwt>
<pdfrwt beam="2">  1        2 0.17955728E-02 0.20001650E+02</pdfrwt>
<pdfrwt beam="1">  1       -2 0.13183840E-02 0.20001650E+02</pdfrwt>
<totfact> 0.39908335E+06</totfact>
</mgrwt>
</event>
<event>
 5    1  0.1607476E-006  0.2000607E+02  0.7818608E-02  0.1745207E+00
         -2   -1    0    0    0  501 -0.00000000000E+00  0.00000000000E+00  0.63741949702E+01  0.63741955005E+01  0.26000000000E-02 0. -1.
          2   -1    0    0  501    0  0.00000000000E+00 -0.00000000000E+00 -0.15697771847E+02  0.15697772063E+02  0.26000000000E-02 0.  1.
       1023    2    1    2    0    0  0.00000000000E+00  0.00000000000E+00 -0.93235768770E+01  0.22071967563E+02  0.20006065738E+02 0.  0.
        -13    1    3    3    0    0  0.63673427758E+01  0.77130517958E+01 -0.47981299719E+01  0.11093576779E+02  0.10570000000E+00 0.  1.
         13    1    3    3    0    0 -0.63673427758E+01 -0.77130517958E+01 -0.45254469052E+01  0.10978390784E+02  0.10570000000E+00 0. -1.
<mgrwt>
<rscale>  0 0.20006066E+02</rscale>
<asrwt>0</asrwt>
<pdfrwt beam="2">  1        2 0.24150419E-02 0.20006066E+02</pdfrwt>
<pdfrwt beam="1">  1       -2 0.98064544E-03 0.20006066E+02</pdfrwt>
<totfact> 0.40809248E+06</totfact>
</mgrwt>
</event>
<event>
 4    1  0.1607476E-006  0.2011300E+02  0.7818608E-02  0.1743090E+00
         -2   -1    0    0    0  501 -0.00000000000E+00  0.00000000000E+00  0.44463032809E+01  0.44463040411E+01  0.26000000000E-02 0. -1.
          2   -1    0    0  501    0  0.00000000000E+00 -0.00000000000E+00 -0.22745444382E+02  0.22745444530E+02  0.26000000000E-02 0.  1.
        -13    1    1    2    0    0  0.23216372873E+01  0.97833151332E+01 -0.89645502149E+01  0.13471361762E+02  0.10570000000E+00 0. -1.
         13    1    1    2    0    0 -0.23216372873E+01 -0.97833151332E+01 -0.93345908859E+01  0.13720386809E+02  0.10570000000E+00 0.  1.
<mgrwt>
<rscale>  0 0.20112996E+02</rscale>
<asrwt>0</asrwt>
<pdfrwt beam="2">  1        2 0.34992991E-02 0.20112996E+02</pdfrwt>
<pdfrwt beam="1">  1       -2 0.68404674E-03 0.20112996E+02</pdfrwt>
<totfact> 0.41638583E+06</totfact>
</mgrwt>
</event>
<event>
 4    1  0.1607476E-006  0.2005639E+02  0.7818608E-02  0.1744209E+00
         -2   -1    0    0    0  501 -0.00000000000E+00  0.00000000000E+00  0.16146774363E+01  0.16146795296E+01  0.26000000000E-02 0. -1.
          2   -1    0    0  501    0  0.00000000000E+00 -0.00000000000E+00 -0.62281573249E+02  0.62281573303E+02  0.26000000000E-02 0.  1.
        -13    1    1    2    0    0 -0.32876003770E+01  0.94716530094E+01 -0.29754536318E+02  0.31398473386E+02  0.10570000000E+00 0.  1.
         13    1    1    2    0    0  0.32876003770E+01 -0.94716530094E+01 -0.30912359495E+02  0.32497779447E+02  0.10570000000E+00 0. -1.
<mgrwt>
<rscale>  0 0.20056392E+02</rscale>
<asrwt>0</asrwt>
<pdfrwt beam="2">  1        2 0.95817788E-02 0.20056392E+02</pdfrwt>
<pdfrwt beam="1">  1       -2 0.24841213E-03 0.20056392E+02</pdfrwt>
<totfact> 0.47704049E+06</totfact>
</mgrwt>
</event>
<event>
 5    1  0.1607476E-006  0.2000700E+02  0.7818608E-02  0.1745189E+00
         -2   -1    0    0    0  501 -0.00000000000E+00  0.00000000000E+00  0.19871011617E+01  0.19871028627E+01  0.26000000000E-02 0. -1.
          2   -1    0    0  501    0  0.00000000000E+00 -0.00000000000E+00 -0.50359760643E+02  0.50359760710E+02  0.26000000000E-02 0.  1.
       1023    2    1    2    0    0  0.00000000000E+00  0.00000000000E+00 -0.48372659481E+02  0.52346863573E+02  0.20006997292E+02 0.  0.
        -13    1    3    3    0    0 -0.12401602528E+01  0.99239794889E+01 -0.23693729851E+02  0.25718230365E+02  0.10570000000E+00 0.  1.
         13    1    3    3    0    0  0.12401602528E+01 -0.99239794889E+01 -0.24678929630E+02  0.26628633208E+02  0.10570000000E+00 0. -1.
<mgrwt>
<rscale>  0 0.20006997E+02</rscale>
<asrwt>0</asrwt>
<pdfrwt beam="2">  1        2 0.77476546E-02 0.20006997E+02</pdfrwt>
<pdfrwt beam="1">  1       -2 0.30570805E-03 0.20006997E+02</pdfrwt>
<totfact> 0.46342227E+06</totfact>
</mgrwt>
</event>
<event>
 4    1  0.1607476E-006  0.2001548E+02  0.7818608E-02  0.1745020E+00
         -2   -1    0    0    0  501 -0.00000000000E+00  0.00000000000E+00  0.12870868294E+02  0.12870868556E+02  0.26000000000E-02 0. -1.
          2   -1    0    0  501    0  0.00000000000E+00 -0.00000000000E+00 -0.77815161254E+01  0.77815165598E+01  0.26000000000E-02 0.  1.
        -13    1    1    2    0    0  0.10000962385E+02  0.34761949867E+00  0.24826299369E+01  0.10310902571E+02  0.10570000000E+00 0. -1.
         13    1    1    2    0    0 -0.10000962385E+02 -0.34761949867E+00  0.26067222312E+01  0.10341482545E+02  0.10570000000E+00 0.  1.
<mgrwt>
<rscale>  0 0.20015482E+02</rscale>
<asrwt>0</asrwt>
<pdfrwt beam="2">  1        2 0.11971564E-02 0.20015482E+02</pdfrwt>
<pdfrwt beam="1">  1       -2 0.19801336E-02 0.20015482E+02</pdfrwt>
<totfact> 0.38674897E+06</totfact>
</mgrwt>
</event>
<event>
 5    1  0.1607476E-006  0.2000602E+02  0.7818608E-02  0.1745208E+00
         -2   -1    0    0    0  501 -0.00000000000E+00  0.00000000000E+00  0.28546819393E+02  0.28546819512E+02  0.26000000000E-02 0. -1.
          2   -1    0    0  501    0  0.00000000000E+00 -0.00000000000E+00 -0.35051255167E+01  0.35051264810E+01  0.26000000000E-02 0.  1.
       1023    2    1    2    0    0  0.00000000000E+00  0.00000000000E+00  0.25041693877E+02  0.32051945993E+02  0.20006019337E+02 0.  0.
        -13    1    3    3    0    0 -0.39523554014E+01 -0.91883248252E+01  0.12602596013E+02  0.16089842295E+02  0.10570000000E+00 0.  1.
         13    1    3    3    0    0  0.39523554014E+01  0.91883248252E+01  0.12439097864E+02  0.15962103698E+02  0.10570000000E+00 0. -1.
<mgrwt>
<rscale>  0 0.20006019E+02</rscale>
<asrwt>0</asrwt>
<pdfrwt beam="2">  1        2 0.53925017E-03 0.20006019E+02</pdfrwt>
<pdfrwt beam="1">  1       -2 0.43918184E-02 0.20006019E+02</pdfrwt>
<totfact> 0.36221658E+06</totfact>
</mgrwt>
</event>
<event>
 4    1  0.1607476E-006  0.2006574E+02  0.7818608E-02  0.1744024E+00
         -2   -1    0    0    0  501 -0.00000000000E+00  0.00000000000E+00  0.25036484871E+02  0.25036485006E+02  0.26000000000E-02 0. -1.
          2   -1    0    0  501    0  0.00000000000E+00 -0.00000000000E+00 -0.40204699561E+01  0.40204707968E+01  0.26000000000E-02 0.  1.
        -13    1    1    2    0    0 -0.99922056775E+01 -0.89263523584E+00  0.10393023890E+02  0.14445313774E+02  0.10570000000E+00 0.  1.
         13    1    1    2    0    0  0.99922056775E+01  0.89263523584E+00  0.10622991025E+02  0.14611642028E+02  0.10570000000E+00 0. -1.
<mgrwt>
<rscale>  0 0.20065737E+02</rscale>
<asrwt>0</asrwt>
<pdfrwt beam="2">  1        2 0.61853392E-03 0.20065737E+02</pdfrwt>
<pdfrwt beam="1">  1       -2 0.38517669E-02 0.20065737E+02</pdfrwt>
<totfact> 0.36442798E+06</totfact>
</mgrwt>
</event>
<event>
 4    1  0.1607476E-006  0.2004780E+02  0.7818608E-02  0.1744379E+00
          2   -1    0    0  501    0  0.00000000000E+00  0.00000000000E+00  0.11947658076E+02  0.11947658359E+02  0.26000000000E-02 0.  1.
         -2   -1    0    0    0  501 -0.00000000000E+00 -0.00000000000E+00 -0.84098963282E+01  0.84098967301E+01  0.26000000000E-02 0. -1.
        -13    1    1    2    0    0  0.13723778251E+01 -0.99222835050E+01  0.21381887861E+01  0.10242956342E+02  0.10570000000E+00 0. -1.
         13    1    1    2    0    0 -0.13723778251E+01  0.99222835050E+01  0.13995729616E+01  0.10114598747E+02  0.10570000000E+00 0.  1.
<mgrwt>
<rscale>  0 0.20047800E+02</rscale>
<asrwt>0</asrwt>
<pdfrwt beam="1">  1        2 0.18381013E-02 0.20047800E+02</pdfrwt>
<pdfrwt beam="2">  1       -2 0.12938303E-02 0.20047800E+02</pdfrwt>
<totfact> 0.39769060E+06</totfact>
</mgrwt>
</event>
<event>
 5    1  0.1607476E-006  0.2001092E+02  0.7818608E-02  0.1745111E+00
          2   -1    0    0  501    0  0.00000000000E+00  0.00000000000E+00  0.13374706608E+01  0.13374731879E+01  0.26000000000E-02 0.  1.
         -2   -1    0    0    0  501 -0.00000000000E+00 -0.00000000000E+00 -0.74849615793E+02  0.74849615838E+02  0.26000000000E-02 0. -1.
       1023    2    1    2    0    0  0.00000000000E+00  0.00000000000E+00 -0.73512145133E+02  0.76187089026E+02  0.20010923325E+02 0.  0.
        -13    1    3    3    0    0  0.53375773174E+01 -0.84572616285E+01 -0.35658647620E+02  0.37034650376E+02  0.10570000000E+00 0.  1.
         13    1    3    3    0    0 -0.53375773174E+01  0.84572616285E+01 -0.37853497512E+02  0.39152438650E+02  0.10570000000E+00 0. -1.
<mgrwt>
<rscale>  0 0.20010923E+02</rscale>
<asrwt>0</asrwt>
<pdfrwt beam="1">  1        2 0.20576497E-03 0.20010923E+02</pdfrwt>
<pdfrwt beam="2">  1       -2 0.11515323E-01 0.20010923E+02</pdfrwt>
<totfact> 0.31639298E+06</totfact>
</mgrwt>
</event>
<event>
 4    1  0.1631771E-006  0.2200523E+02  0.7818608E-02  0.1708161E+00
         -2   -1    0    0    0  501 -0.00000000000E+00  0.00000000000E+00  0.23806896266E+01  0.23806910463E+01  0.26000000000E-02 0. -1.
          2   -1    0    0  501    0  0.00000000000E+00 -0.00000000000E+00 -0.50849779899E+02  0.50849779966E+02  0.26000000000E-02 0.  1.
        -13    1    1    2    0    0  0.81901556524E+01  0.64071766566E+01 -0.32928067609E+02  0.34531136258E+02  0.10570000000E+00 0. -1.
         13    1    1    2    0    0 -0.81901556524E+01 -0.64071766566E+01 -0.15541022663E+02  0.18699334754E+02  0.10570000000E+00 0.  1.
<mgrwt>
<rscale>  0 0.22005234E+02</rscale>
<asrwt>0</asrwt>
<pdfrwt beam="2">  1        2 0.78230424E-02 0.22005234E+02</pdfrwt>
<pdfrwt beam="1">  1       -2 0.36626009E-03 0.22005234E+02</pdfrwt>
<totfact> 0.37470972E+06</totfact>
</mgrwt>
</event>
<event>
 4    1  0.1607476E-006  0.2003049E+02  0.7818608E-02  0.1744722E+00
          2   -1    0    0  501    0  0.00000000000E+00  0.00000000000E+00  0.25831313542E+02  0.25831313673E+02  0.26000000000E-02 0.  1.
         -2   -1    0    0    0  501 -0.00000000000E+00 -0.00000000000E+00 -0.38830823437E+01  0.38830832141E+01  0.26000000000E-02 0. -1.
        -13    1    1    2    0    0 -0.12224854535E+01  0.99391104032E+01  0.11146947242E+02  0.14984858745E+02  0.10570000000E+00 0.  1.
         13    1    1    2    0    0  0.12224854535E+01 -0.99391104032E+01  0.10801283957E+02  0.14729538143E+02  0.10570000000E+00 0. -1.
<mgrwt>
<rscale>  0 0.20030490E+02</rscale>
<asrwt>0</asrwt>
<pdfrwt beam="1">  1        2 0.39740484E-02 0.20030490E+02</pdfrwt>
<pdfrwt beam="2">  1       -2 0.59739735E-03 0.20030490E+02</pdfrwt>
<totfact> 0.42550182E+06</totfact>
</mgrwt>
</event>
<event>
 5    1  0.1607476E-006  0.2000147E+02  0.7818608E-02  0.1745299E+00
         -2   -1    0    0    0  501 -0.00000000000E+00  0.00000000000E+00  0.16523635451E+02  0.16523635656E+02  0.26000000000E-02 0. -1.
          2   -1    0    0  501    0  0.00000000000E+00 -0.00000000000E+00 -0.60528246244E+01  0.60528251829E+01  0.26000000000E-02 0.  1.
       1023    2    1    2    0    0  0.00000000000E+00  0.00000000000E+00  0.10470810827E+02  0.22576460839E+02  0.20001467562E+02 0.  0.
        -13    1    3    3    0    0 -0.62695932687E+01  0.77907168011E+01  0.52589644159E+01  0.11299156926E+02  0.10570000000E+00 0.  1.
         13    1    3    3    0    0  0.62695932687E+01 -0.77907168011E+01  0.52118464111E+01  0.11277303912E+02  0.10570000000E+00 0. -1.
<mgrwt>
<rscale>  0 0.20001468E+02</rscale>
<asrwt>0</asrwt>
<pdfrwt beam="2">  1        2 0.93120385E-03 0.20001468E+02</pdfrwt>
<pdfrwt beam="1">  1       -2 0.25420978E-02 0.20001468E+02</pdfrwt>
<totfact> 0.38007603E+06</totfact>
</mgrwt>
</event>
<event>
 4    1  0.1607476E-006  0.2015972E+02  0.7818608E-02  0.1742170E+00
         -2   -1    0    0    0  501 -0.00000000000E+00  0.00000000000E+00  0.75536681910E+02  0.75536681955E+02  0.26000000000E-02 0. -1.
          2   -1    0    0  501    0  0.00000000000E+00 -0.00000000000E+00 -0.13450876777E+01  0.13450901906E+01  0.26000000000E-02 0.  1.
        -13    1    1    2    0    0  0.93752678820E+01  0.37007851272E+01  0.37211938458E+02  0.38552963501E+02  0.10570000000E+00 0. -1.
         13    1    1    2    0    0 -0.93752678820E+01 -0.37007851272E+01  0.36979655774E+02  0.38328808644E+02  0.10570000000E+00 0.  1.
<mgrwt>
<rscale>  0 0.20159718E+02</rscale>
<asrwt>0</asrwt>
<pdfrwt beam="2">  1        2 0.20693676E-03 0.20159718E+02</pdfrwt>
<pdfrwt beam="1">  1       -2 0.11621028E-01 0.20159718E+02</pdfrwt>
<totfact> 0.31075649E+06</totfact>
</mgrwt>
</event>
<event>
 5    1  0.1607476E-006  0.2000159E+02  0.7818608E-02  0.1745296E+00
          2   -1    0    0  501    0  0.00000000000E+00  0.00000000000E+00  0.11931950669E+02  0.11931950953E+02  0.26000000000E-02 0.  1.
         -2   -1    0    0    0  501 -0.00000000000E+00 -0.00000000000E+00 -0.83821925353E+01  0.83821929385E+01  0.26000000000E-02 0. -1.
       1023    2    1    2    0    0  0.00000000000E+00  0.00000000000E+00  0.35497581342E+01  0.20314143891E+02  0.20001591417E+02 0.  0.
        -13    1    3    3    0    0 -0.99802918762E+01 -0.62775062737E+00  0.18425957827E+01  0.10168904980E+02  0.10570000000E+00 0.  1.
         13    1    3    3    0    0  0.99802918762E+01  0.62775062737E+00  0.17071623514E+01  0.10145238911E+02  0.10570000000E+00 0. -1.
<mgrwt>
<rscale>  0 0.20001591E+02</rscale>
<asrwt>0</asrwt>
<pdfrwt beam="1">  1        2 0.18356848E-02 0.20001591E+02</pdfrwt>
<pdfrwt beam="2">  1       -2 0.12895681E-02 0.20001591E+02</pdfrwt>
<totfact> 0.39974475E+06</totfact>
</mgrwt>
</event>
<event>
 5    1  0.1607476E-006  0.2000162E+02  0.7818608E-02  0.1745296E+00
          2   -1    0    0  501    0  0.00000000000E+00  0.00000000000E+00  0.41477983874E+01  0.41477992023E+01  0.26000000000E-02 0.  1.
         -2   -1    0    0    0  501 -0.00000000000E+00 -0.00000000000E+00 -0.24113084239E+02  0.24113084379E+02  0.26000000000E-02 0. -1.
       1023    2    1    2    0    0  0.00000000000E+00  0.00000000000E+00 -0.19965285851E+02  0.28260883581E+02  0.20001622476E+02 0.  0.
        -13    1    3    3    0    0 -0.79902376347E+01  0.60133293918E+01 -0.99374050383E+01  0.14098482869E+02  0.10570000000E+00 0. -1.
         13    1    3    3    0    0  0.79902376347E+01 -0.60133293918E+01 -0.10027880813E+02  0.14162400712E+02  0.10570000000E+00 0.  1.
<mgrwt>
<rscale>  0 0.20001622E+02</rscale>
<asrwt>0</asrwt>
<pdfrwt beam="1">  1        2 0.63812292E-03 0.20001622E+02</pdfrwt>
<pdfrwt beam="2">  1       -2 0.37097053E-02 0.20001622E+02</pdfrwt>
<totfact> 0.36824055E+06</totfact>
</mgrwt>
</event>
<event>
 4    1  0.1607476E-006  0.2003945E+02  0.7818608E-02  0.1744545E+00
          2   -1    0    0  501    0  0.00000000000E+00  0.00000000000E+00  0.51026618500E+02  0.51026618567E+02  0.26000000000E-02 0. -1.
         -2   -1    0    0    0  501 -0.00000000000E+00 -0.00000000000E+00 -0.19674990215E+01  0.19675007394E+01  0.26000000000E-02 0.  1.
        -13    1    1    2    0    0  0.88324175253E+01 -0.47193680138E+01  0.23694709025E+02  0.25724199542E+02  0.10570000000E+00 0.  1.
         13    1    1    2    0    0 -0.88324175253E+01  0.47193680138E+01  0.25364410454E+02  0.27269919764E+02  0.10570000000E+00 0. -1.
<mgrwt>
<rscale>  0 0.20039448E+02</rscale>
<asrwt>0</asrwt>
<pdfrwt beam="1">  1        2 0.78502478E-02 0.20039448E+02</pdfrwt>
<pdfrwt beam="2">  1       -2 0.30269235E-03 0.20039448E+02</pdfrwt>
<totfact> 0.46267770E+06</totfact>
</mgrwt>
</event>
<event>
 5    1  0.1607476E-006  0.2000396E+02  0.7818608E-02  0.1745249E+00
         -2   -1    0    0    0  501 -0.00000000000E+00  0.00000000000E+00  0.25737814184E+02  0.25737814315E+02  0.26000000000E-02 0. -1.
          2   -1    0    0  501    0  0.00000000000E+00 -0.00000000000E+00 -0.38868702576E+01  0.38868711271E+01  0.26000000000E-02 0.  1.
       1023    2    1    2    0    0  0.00000000000E+00  0.00000000000E+00  0.21850943926E+02  0.29624685442E+02  0.20003955536E+02 0.  0.
        -13    1    3    3    0    0  0.98360100299E+01  0.18045910992E+01  0.11158429436E+02  0.14984170391E+02  0.10570000000E+00 0.  1.
         13    1    3    3    0    0 -0.98360100299E+01 -0.18045910992E+01  0.10692514490E+02  0.14640515051E+02  0.10570000000E+00 0. -1.
<mgrwt>
<rscale>  0 0.20003956E+02</rscale>
<asrwt>0</asrwt>
<pdfrwt beam="2">  1        2 0.59798012E-03 0.20003956E+02</pdfrwt>
<pdfrwt beam="1">  1       -2 0.39596638E-02 0.20003956E+02</pdfrwt>
<totfact> 0.36593930E+06</totfact>
</mgrwt>
</event>
<event>
 4    1  0.1607476E-006  0.2016344E+02  0.7818608E-02  0.1742097E+00
          2   -1    0    0  501    0  0.00000000000E+00  0.00000000000E+00  0.44753995748E+01  0.44754003300E+01  0.26000000000E-02 0. -1.
         -2   -1    0    0    0  501 -0.00000000000E+00 -0.00000000000E+00 -0.22711054095E+02  0.22711054244E+02  0.26000000000E-02 0.  1.
        -13    1    1    2    0    0  0.93985651813E+01 -0.34249440033E+01 -0.74302299430E+01  0.12461250274E+02  0.10570000000E+00 0. -1.
         13    1    1    2    0    0 -0.93985651813E+01  0.34249440033E+01 -0.10805424578E+02  0.14725204300E+02  0.10570000000E+00 0.  1.
<mgrwt>
<rscale>  0 0.20163438E+02</rscale>
<asrwt>0</asrwt>
<pdfrwt beam="1">  1        2 0.68852309E-03 0.20163438E+02</pdfrwt>
<pdfrwt beam="2">  1       -2 0.34940083E-02 0.20163438E+02</pdfrwt>
<totfact> 0.36378772E+06</totfact>
</mgrwt>
</event>
<event>
 5    1  0.1607476E-006  0.2000390E+02  0.7818608E-02  0.1745250E+00
          2   -1    0    0  501    0  0.00000000000E+00  0.00000000000E+00  0.36667610846E+01  0.36667620064E+01  0.26000000000E-02 0.  1.
         -2   -1    0    0    0  501 -0.00000000000E+00 -0.00000000000E+00 -0.27282671030E+02  0.27282671154E+02  0.26000000000E-02 0. -1.
       1023    2    1    2    0    0  0.00000000000E+00  0.00000000000E+00 -0.23615909946E+02  0.30949433161E+02  0.20003904879E+02 0.  0.
        -13    1    3    3    0    0  0.99573450225E+01 -0.93365861150E+00 -0.11941423001E+02  0.15576559122E+02  0.10570000000E+00 0.  1.
         13    1    3    3    0    0 -0.99573450225E+01  0.93365861150E+00 -0.11674486945E+02  0.15372874039E+02  0.10570000000E+00 0. -1.
<mgrwt>
<rscale>  0 0.20003905E+02</rscale>
<asrwt>0</asrwt>
<pdfrwt beam="1">  1        2 0.56411719E-03 0.20003905E+02</pdfrwt>
<pdfrwt beam="2">  1       -2 0.41973340E-02 0.20003905E+02</pdfrwt>
<totfact> 0.36391428E+06</totfact>
</mgrwt>
</event>
<event>
 5    1  0.1607476E-006  0.2000226E+02  0.7818608E-02  0.1745283E+00
         -2   -1    0    0    0  501 -0.00000000000E+00  0.00000000000E+00  0.37940475914E+01  0.37940484822E+01  0.26000000000E-02 0.  1.
          2   -1    0    0  501    0  0.00000000000E+00 -0.00000000000E+00 -0.26363028580E+02  0.26363028708E+02  0.26000000000E-02 0. -1.
       1023    2    1    2    0    0  0.00000000000E+00  0.00000000000E+00 -0.22568980989E+02  0.30157077191E+02  0.20002259917E+02 0.  0.
        -13    1    3    3    0    0  0.56782709783E+01 -0.82319928906E+01 -0.11202467690E+02  0.15017154294E+02  0.10570000000E+00 0. -1.
         13    1    3    3    0    0 -0.56782709783E+01  0.82319928906E+01 -0.11366513298E+02  0.15139922896E+02  0.10570000000E+00 0.  1.
<mgrwt>
<rscale>  0 0.20002260E+02</rscale>
<asrwt>0</asrwt>
<pdfrwt beam="2">  1        2 0.40558505E-02 0.20002260E+02</pdfrwt>
<pdfrwt beam="1">  1       -2 0.58369973E-03 0.20002260E+02</pdfrwt>
<totfact> 0.42773498E+06</totfact>
</mgrwt>
</event>
<event>
 5    1  0.1607476E-006  0.2000135E+02  0.7818608E-02  0.1745301E+00
          2   -1    0    0  501    0  0.00000000000E+00  0.00000000000E+00  0.11246055898E+02  0.11246056199E+02  0.26000000000E-02 0. -1.
         -2   -1    0    0    0  501 -0.00000000000E+00 -0.00000000000E+00 -0.88932052001E+01  0.88932055801E+01  0.26000000000E-02 0.  1.
       1023    2    1    2    0    0  0.00000000000E+00  0.00000000000E+00  0.23528506982E+01  0.20139261779E+02  0.20001348919E+02 0.  0.
        -13    1    3    3    0    0  0.90419138661E+01  0.42712768010E+01  0.12247697833E+01  0.10075278923E+02  0.10570000000E+00 0. -1.
         13    1    3    3    0    0 -0.90419138661E+01 -0.42712768010E+01  0.11280809149E+01  0.10063982855E+02  0.10570000000E+00 0.  1.
<mgrwt>
<rscale>  0 0.20001349E+02</rscale>
<asrwt>0</asrwt>
<pdfrwt beam="1">  1        2 0.17301625E-02 0.20001349E+02</pdfrwt>
<pdfrwt beam="2">  1       -2 0.13681855E-02 0.20001349E+02</pdfrwt>
<totfact> 0.39799825E+06</totfact>
</mgrwt>
</event>
<event>
 4    1  0.1607476E-006  0.2006552E+02  0.7818608E-02  0.1744028E+00
         -2   -1    0    0    0  501 -0.00000000000E+00  0.00000000000E+00  0.10671649123E+01  0.10671680795E+01  0.26000000000E-02 0. -1.
          2   -1    0    0  501    0  0.00000000000E+00 -0.00000000000E+00 -0.94321092393E+02  0.94321092429E+02  0.26000000000E-02 0.  1.
        -13    1    1    2    0    0 -0.51933671894E+01  0.85633781543E+01 -0.49409614041E+02  0.50414518151E+02  0.10570000000E+00 0. -1.
         13    1    1    2    0    0  0.51933671894E+01 -0.85633781543E+01 -0.43844313440E+02  0.44973742358E+02  0.10570000000E+00 0.  1.
<mgrwt>
<rscale>  0 0.20065524E+02</rscale>
<asrwt>0</asrwt>
<pdfrwt beam="2">  1        2 0.14510931E-01 0.20065524E+02</pdfrwt>
<pdfrwt beam="1">  1       -2 0.16417954E-03 0.20065524E+02</pdfrwt>
<totfact> 0.51697984E+06</totfact>
</mgrwt>
</event>
<event>
 4    1  0.1607476E-006  0.2004519E+02  0.7818608E-02  0.1744431E+00
         -2   -1    0    0    0  501 -0.00000000000E+00  0.00000000000E+00  0.40793741513E+01  0.40793749798E+01  0.26000000000E-02 0. -1.
          2   -1    0    0  501    0  0.00000000000E+00 -0.00000000000E+00 -0.24624469777E+02  0.24624469915E+02  0.26000000000E-02 0.  1.
        -13    1    1    2    0    0 -0.48530248037E+01  0.87564578490E+01 -0.10934760853E+02  0.14825908782E+02  0.10570000000E+00 0. -1.
         13    1    1    2    0    0  0.48530248037E+01 -0.87564578490E+01 -0.96103347733E+01  0.13877936113E+02  0.10570000000E+00 0.  1.
<mgrwt>
<rscale>  0 0.20045193E+02</rscale>
<asrwt>0</asrwt>
<pdfrwt beam="2">  1        2 0.37883799E-02 0.20045193E+02</pdfrwt>
<pdfrwt beam="1">  1       -2 0.62759612E-03 0.20045193E+02</pdfrwt>
<totfact> 0.42278124E+06</totfact>
</mgrwt>
</event>
<event>
 5    1  0.1607476E-006  0.2000183E+02  0.7818608E-02  0.1745292E+00
          2   -1    0    0  501    0  0.00000000000E+00  0.00000000000E+00  0.49380055653E+01  0.49380062498E+01  0.26000000000E-02 0. -1.
         -2   -1    0    0    0  501 -0.00000000000E+00 -0.00000000000E+00 -0.20254792229E+02  0.20254792395E+02  0.26000000000E-02 0.  1.
       1023    2    1    2    0    0  0.00000000000E+00  0.00000000000E+00 -0.15316786663E+02  0.25192798645E+02  0.20001828664E+02 0.  0.
        -13    1    3    3    0    0  0.75362802741E+00  0.99717757230E+01 -0.77256183423E+01  0.12637270969E+02  0.10570000000E+00 0.  1.
         13    1    3    3    0    0 -0.75362802741E+00 -0.99717757230E+01 -0.75911683210E+01  0.12555527677E+02  0.10570000000E+00 0. -1.
<mgrwt>
<rscale>  0 0.20001829E+02</rscale>
<asrwt>0</asrwt>
<pdfrwt beam="1">  1        2 0.75969324E-03 0.20001829E+02</pdfrwt>
<pdfrwt beam="2">  1       -2 0.31161219E-02 0.20001829E+02</pdfrwt>
<totfact> 0.37386884E+06</totfact>
</mgrwt>
</event>
<event>
 5    1  0.1607476E-006  0.2000565E+02  0.7818608E-02  0.1745216E+00
         -2   -1    0    0    0  501 -0.00000000000E+00  0.00000000000E+00  0.20597338309E+02  0.20597338473E+02  0.26000000000E-02 0.  1.
          2   -1    0    0  501    0  0.00000000000E+00 -0.00000000000E+00 -0.48577397639E+01  0.48577404597E+01  0.26000000000E-02 0. -1.
       1023    2    1    2    0    0  0.00000000000E+00  0.00000000000E+00  0.15739598545E+02  0.25455078933E+02  0.20005651229E+02 0.  0.
        -13    1    3    3    0    0  0.57188739606E+01  0.82058744587E+01  0.79445656305E+01  0.12773769630E+02  0.10570000000E+00 0. -1.
         13    1    3    3    0    0 -0.57188739606E+01 -0.82058744587E+01  0.77950329145E+01  0.12681309303E+02  0.10570000000E+00 0.  1.
<mgrwt>
<rscale>  0 0.20005651E+02</rscale>
<asrwt>0</asrwt>
<pdfrwt beam="2">  1        2 0.74734465E-03 0.20005651E+02</pdfrwt>
<pdfrwt beam="1">  1       -2 0.31688213E-02 0.20005651E+02</pdfrwt>
<totfact> 0.37318694E+06</totfact>
</mgrwt>
</event>
<event>
 4    1  0.1607476E-006  0.2007405E+02  0.7818608E-02  0.1743860E+00
         -2   -1    0    0    0  501 -0.00000000000E+00  0.00000000000E+00  0.10743478576E+02  0.10743478891E+02  0.26000000000E-02 0.  1.
          2   -1    0    0  501    0  0.00000000000E+00 -0.00000000000E+00 -0.93770211594E+01  0.93770215198E+01  0.26000000000E-02 0. -1.
        -13    1    1    2    0    0 -0.39119943794E+01 -0.92414451693E+01  0.83408078792E+00  0.10070495127E+02  0.10570000000E+00 0.  1.
         13    1    1    2    0    0  0.39119943794E+01  0.92414451693E+01  0.53237662869E+00  0.10050005284E+02  0.10570000000E+00 0. -1.
<mgrwt>
<rscale>  0 0.20074046E+02</rscale>
<asrwt>0</asrwt>
<pdfrwt beam="2">  1        2 0.14426187E-02 0.20074046E+02</pdfrwt>
<pdfrwt beam="1">  1       -2 0.16528429E-02 0.20074046E+02</pdfrwt>
<totfact> 0.38947045E+06</totfact>
</mgrwt>
</event>
<event>
 4    1  0.1607476E-006  0.2002447E+02  0.7818608E-02  0.1744842E+00
         -2   -1    0    0    0  501 -0.00000000000E+00  0.00000000000E+00  0.50279068756E+01  0.50279075478E+01  0.26000000000E-02 0.  1.
          2   -1    0    0  501    0  0.00000000000E+00 -0.00000000000E+00 -0.19937682255E+02  0.19937682424E+02  0.26000000000E-02 0. -1.
        -13    1    1    2    0    0 -0.12546901392E+01 -0.99308366708E+01 -0.76975516252E+01  0.12627717048E+02  0.10570000000E+00 0. -1.
         13    1    1    2    0    0  0.12546901392E+01  0.99308366708E+01 -0.72122237538E+01  0.12337872924E+02  0.10570000000E+00 0.  1.
<mgrwt>
<rscale>  0 0.20024467E+02</rscale>
<asrwt>0</asrwt>
<pdfrwt beam="2">  1        2 0.30673358E-02 0.20024467E+02</pdfrwt>
<pdfrwt beam="1">  1       -2 0.77352421E-03 0.20024467E+02</pdfrwt>
<totfact> 0.41551818E+06</totfact>
</mgrwt>
</event>
<event>
 4    1  0.1607476E-006  0.2001386E+02  0.7818608E-02  0.1745053E+00
         -2   -1    0    0    0  501 -0.00000000000E+00  0.00000000000E+00  0.48107881091E+01  0.48107888116E+01  0.26000000000E-02 0.  1.
          2   -1    0    0  501    0  0.00000000000E+00 -0.00000000000E+00 -0.20815428038E+02  0.20815428201E+02  0.26000000000E-02 0. -1.
        -13    1    1    2    0    0  0.93968788127E+01 -0.34252075501E+01 -0.83950451323E+01  0.13058381731E+02  0.10570000000E+00 0. -1.
         13    1    1    2    0    0 -0.93968788127E+01  0.34252075501E+01 -0.76095947970E+01  0.12567835281E+02  0.10570000000E+00 0.  1.
<mgrwt>
<rscale>  0 0.20013858E+02</rscale>
<asrwt>0</asrwt>
<pdfrwt beam="2">  1        2 0.32023735E-02 0.20013858E+02</pdfrwt>
<pdfrwt beam="1">  1       -2 0.74012133E-03 0.20013858E+02</pdfrwt>
<totfact> 0.41761711E+06</totfact>
</mgrwt>
</event>
<event>
 5    1  0.1607476E-006  0.2000401E+02  0.7818608E-02  0.1745248E+00
         -2   -1    0    0    0  501 -0.00000000000E+00  0.00000000000E+00  0.27075384789E+02  0.27075384913E+02  0.26000000000E-02 0. -1.
          2   -1    0    0  501    0  0.00000000000E+00 -0.00000000000E+00 -0.36948724192E+01  0.36948733340E+01  0.26000000000E-02 0.  1.
       1023    2    1    2    0    0  0.00000000000E+00  0.00000000000E+00  0.23380512369E+02  0.30770258247E+02  0.20004010447E+02 0.  0.
        -13    1    3    3    0    0  0.40532067612E+01  0.91421683433E+01  0.11914269316E+02  0.15555343548E+02  0.10570000000E+00 0.  1.
         13    1    3    3    0    0 -0.40532067612E+01 -0.91421683433E+01  0.11466243054E+02  0.15214914700E+02  0.10570000000E+00 0. -1.
<mgrwt>
<rscale>  0 0.20004010E+02</rscale>
<asrwt>0</asrwt>
<pdfrwt beam="2">  1        2 0.56844199E-03 0.20004010E+02</pdfrwt>
<pdfrwt beam="1">  1       -2 0.41654439E-02 0.20004010E+02</pdfrwt>
<totfact> 0.36417833E+06</totfact>
</mgrwt>
</event>
<event>
 4    1  0.1607476E-006  0.2005522E+02  0.7818608E-02  0.1744232E+00
          2   -1    0    0  501    0  0.00000000000E+00  0.00000000000E+00  0.23971042547E+02  0.23971042688E+02  0.26000000000E-02 0. -1.
         -2   -1    0    0    0  501 -0.00000000000E+00 -0.00000000000E+00 -0.41947685819E+01  0.41947693877E+01  0.26000000000E-02 0.  1.
        -13    1    1    2    0    0 -0.84921785636E+01 -0.52851128939E+01  0.89027415138E+01  0.13391022889E+02  0.10570000000E+00 0. -1.
         13    1    1    2    0    0  0.84921785636E+01  0.52851128939E+01  0.10873532451E+02  0.14774789187E+02  0.10570000000E+00 0.  1.
<mgrwt>
<rscale>  0 0.20055223E+02</rscale>
<asrwt>0</asrwt>
<pdfrwt beam="1">  1        2 0.36878528E-02 0.20055223E+02</pdfrwt>
<pdfrwt beam="2">  1       -2 0.64534909E-03 0.20055223E+02</pdfrwt>
<totfact> 0.42119873E+06</totfact>
</mgrwt>
</event>
<event>
 4    1  0.1607476E-006  0.2018083E+02  0.7818608E-02  0.1741756E+00
         -2   -1    0    0    0  501 -0.00000000000E+00  0.00000000000E+00  0.32560022602E+01  0.32560032983E+01  0.26000000000E-02 0.  1.
          2   -1    0    0  501    0  0.00000000000E+00 -0.00000000000E+00 -0.31270386020E+02  0.31270386128E+02  0.26000000000E-02 0. -1.
        -13    1    1    2    0    0  0.98055305762E+01 -0.23156186451E+01 -0.13078316021E+02  0.16509513682E+02  0.10570000000E+00 0.  1.
         13    1    1    2    0    0 -0.98055305762E+01  0.23156186451E+01 -0.14936067739E+02  0.18016875744E+02  0.10570000000E+00 0. -1.
<mgrwt>
<rscale>  0 0.20180829E+02</rscale>
<asrwt>0</asrwt>
<pdfrwt beam="2">  1        2 0.48108285E-02 0.20180829E+02</pdfrwt>
<pdfrwt beam="1">  1       -2 0.50092353E-03 0.20180829E+02</pdfrwt>
<totfact> 0.42703097E+06</totfact>
</mgrwt>
</event>
<event>
 5    1  0.1607476E-006  0.2000824E+02  0.7818608E-02  0.1745164E+00
          2   -1    0    0  501    0  0.00000000000E+00  0.00000000000E+00  0.60574256136E+02  0.60574256191E+02  0.26000000000E-02 0. -1.
         -2   -1    0    0    0  501 -0.00000000000E+00 -0.00000000000E+00 -0.16522266433E+01  0.16522286890E+01  0.26000000000E-02 0.  1.
       1023    2    1    2    0    0  0.00000000000E+00  0.00000000000E+00  0.58922029492E+02  0.62226484880E+02  0.20008244828E+02 0.  0.
        -13    1    3    3    0    0 -0.97015114309E+01  0.24346577784E+01  0.29946920766E+02  0.31573345061E+02  0.10570000000E+00 0. -1.
         13    1    3    3    0    0  0.97015114309E+01 -0.24346577784E+01  0.28975108727E+02  0.30653139819E+02  0.10570000000E+00 0.  1.
<mgrwt>
<rscale>  0 0.20008245E+02</rscale>
<asrwt>0</asrwt>
<pdfrwt beam="1">  1        2 0.93191153E-02 0.20008245E+02</pdfrwt>
<pdfrwt beam="2">  1       -2 0.25418891E-03 0.20008245E+02</pdfrwt>
<totfact> 0.47731160E+06</totfact>
</mgrwt>
</event>
<event>
 5    1  0.1607476E-006  0.2000220E+02  0.7818608E-02  0.1745284E+00
          2   -1    0    0  501    0  0.00000000000E+00  0.00000000000E+00  0.10649358168E+02  0.10649358485E+02  0.26000000000E-02 0. -1.
         -2   -1    0    0    0  501 -0.00000000000E+00 -0.00000000000E+00 -0.93923003655E+01  0.93923007254E+01  0.26000000000E-02 0.  1.
       1023    2    1    2    0    0  0.00000000000E+00  0.00000000000E+00  0.12570578021E+01  0.20041659210E+02  0.20002197619E+02 0.  0.
        -13    1    3    3    0    0 -0.51577362799E+01  0.85676489244E+01  0.56552972449E+00  0.10016878156E+02  0.10570000000E+00 0. -1.
         13    1    3    3    0    0  0.51577362799E+01 -0.85676489244E+01  0.69152807756E+00  0.10024781055E+02  0.10570000000E+00 0.  1.
<mgrwt>
<rscale>  0 0.20002198E+02</rscale>
<asrwt>0</asrwt>
<pdfrwt beam="1">  1        2 0.16383628E-02 0.20002198E+02</pdfrwt>
<pdfrwt beam="2">  1       -2 0.14449693E-02 0.20002198E+02</pdfrwt>
<totfact> 0.39636018E+06</totfact>
</mgrwt>
</event>
<event>
 4    1  0.1607476E-006  0.2001556E+02  0.7818608E-02  0.1745019E+00
          2   -1    0    0  501    0  0.00000000000E+00  0.00000000000E+00  0.88526037912E+02  0.88526037950E+02  0.26000000000E-02 0.  1.
         -2   -1    0    0    0  501 -0.00000000000E+00 -0.00000000000E+00 -0.11313676338E+01  0.11313706214E+01  0.26000000000E-02 0. -1.
        -13    1    1    2    0    0  0.52588406782E+01  0.85128401034E+01  0.43054339750E+02  0.44201936560E+02  0.10570000000E+00 0. -1.
         13    1    1    2    0    0 -0.52588406782E+01 -0.85128401034E+01  0.44340330528E+02  0.45455472011E+02  0.10570000000E+00 0.  1.
<mgrwt>
<rscale>  0 0.20015557E+02</rscale>
<asrwt>0</asrwt>
<pdfrwt beam="1">  1        2 0.13619394E-01 0.20015557E+02</pdfrwt>
<pdfrwt beam="2">  1       -2 0.17405676E-03 0.20015557E+02</pdfrwt>
<totfact> 0.51274967E+06</totfact>
</mgrwt>
</event>
<event>
 4    1  0.1607476E-006  0.2006754E+02  0.7818608E-02  0.1743988E+00
          2   -1    0    0  501    0  0.00000000000E+00  0.00000000000E+00  0.61349710524E+01  0.61349716033E+01  0.26000000000E-02 0. -1.
         -2   -1    0    0    0  501 -0.00000000000E+00 -0.00000000000E+00 -0.16410267529E+02  0.16410267734E+02  0.26000000000E-02 0.  1.
        -13    1    1    2    0    0 -0.43339216067E+01 -0.90469812125E+01 -0.53466457338E+01  0.11367873092E+02  0.10570000000E+00 0.  1.
         13    1    1    2    0    0  0.43339216067E+01  0.90469812125E+01 -0.49286507424E+01  0.11177366245E+02  0.10570000000E+00 0. -1.
<mgrwt>
<rscale>  0 0.20067538E+02</rscale>
<asrwt>0</asrwt>
<pdfrwt beam="1">  1        2 0.94384176E-03 0.20067538E+02</pdfrwt>
<pdfrwt beam="2">  1       -2 0.25246566E-02 0.20067538E+02</pdfrwt>
<totfact> 0.37757676E+06</totfact>
</mgrwt>
</event>
<event>
 5    1  0.1607476E-006  0.2000181E+02  0.7818608E-02  0.1745292E+00
         -2   -1    0    0    0  501 -0.00000000000E+00  0.00000000000E+00  0.20460137729E+01  0.20460154249E+01  0.26000000000E-02 0. -1.
          2   -1    0    0  501    0  0.00000000000E+00 -0.00000000000E+00 -0.48884357212E+02  0.48884357281E+02  0.26000000000E-02 0.  1.
       1023    2    1    2    0    0  0.00000000000E+00  0.00000000000E+00 -0.46838343439E+02  0.50930372706E+02  0.20001811114E+02 0.  0.
        -13    1    3    3    0    0  0.41096429350E+01 -0.91168944932E+01 -0.23426904273E+02  0.25472297630E+02  0.10570000000E+00 0.  1.
         13    1    3    3    0    0 -0.41096429350E+01  0.91168944932E+01 -0.23411439166E+02  0.25458075075E+02  0.10570000000E+00 0. -1.
<mgrwt>
<rscale>  0 0.20001811E+02</rscale>
<asrwt>0</asrwt>
<pdfrwt beam="2">  1        2 0.75206696E-02 0.20001811E+02</pdfrwt>
<pdfrwt beam="1">  1       -2 0.31477152E-03 0.20001811E+02</pdfrwt>
<totfact> 0.46162511E+06</totfact>
</mgrwt>
</event>
<event>
 5    1  0.1607476E-006  0.2000256E+02  0.7818608E-02  0.1745277E+00
         -2   -1    0    0    0  501 -0.00000000000E+00  0.00000000000E+00  0.13468052247E+01  0.13468077343E+01  0.26000000000E-02 0. -1.
          2   -1    0    0  501    0  0.00000000000E+00 -0.00000000000E+00 -0.74268742913E+02  0.74268742958E+02  0.26000000000E-02 0.  1.
       1023    2    1    2    0    0  0.00000000000E+00  0.00000000000E+00 -0.72921937688E+02  0.75615550692E+02  0.20002562595E+02 0.  0.
        -13    1    3    3    0    0 -0.96077072420E+01  0.27744906030E+01 -0.36811916619E+02  0.38146221494E+02  0.10570000000E+00 0.  1.
         13    1    3    3    0    0  0.96077072420E+01 -0.27744906030E+01 -0.36110021069E+02  0.37469329199E+02  0.10570000000E+00 0. -1.
<mgrwt>
<rscale>  0 0.20002563E+02</rscale>
<asrwt>0</asrwt>
<pdfrwt beam="2">  1        2 0.11425957E-01 0.20002563E+02</pdfrwt>
<pdfrwt beam="1">  1       -2 0.20720106E-03 0.20002563E+02</pdfrwt>
<totfact> 0.49556851E+06</totfact>
</mgrwt>
</event>
<event>
 4    1  0.1607476E-006  0.2007560E+02  0.7818608E-02  0.1743829E+00
         -2   -1    0    0    0  501 -0.00000000000E+00  0.00000000000E+00  0.35701562782E+02  0.35701562877E+02  0.26000000000E-02 0. -1.
          2   -1    0    0  501    0  0.00000000000E+00 -0.00000000000E+00 -0.28222114843E+01  0.28222126820E+01  0.26000000000E-02 0.  1.
        -13    1    1    2    0    0  0.83451308440E+01 -0.55105858881E+01  0.18088673714E+02  0.20669278044E+02  0.10570000000E+00 0.  1.
         13    1    1    2    0    0 -0.83451308440E+01  0.55105858881E+01  0.14790677584E+02  0.17854497515E+02  0.10570000000E+00 0. -1.
<mgrwt>
<rscale>  0 0.20075596E+02</rscale>
<asrwt>0</asrwt>
<pdfrwt beam="2">  1        2 0.43418650E-03 0.20075596E+02</pdfrwt>
<pdfrwt beam="1">  1       -2 0.54925480E-02 0.20075596E+02</pdfrwt>
<totfact> 0.35103032E+06</totfact>
</mgrwt>
</event>
<event>
 5    1  0.1607476E-006  0.2000288E+02  0.7818608E-02  0.1745271E+00
         -2   -1    0    0    0  501 -0.00000000000E+00  0.00000000000E+00  0.53199657149E+02  0.53199657213E+02  0.26000000000E-02 0.  1.
          2   -1    0    0  501    0  0.00000000000E+00 -0.00000000000E+00 -0.18802508992E+01  0.18802526969E+01  0.26000000000E-02 0. -1.
       1023    2    1    2    0    0  0.00000000000E+00  0.00000000000E+00  0.51319406250E+02  0.55079909909E+02  0.20002875238E+02 0.  0.
        -13    1    3    3    0    0 -0.66189363156E+00  0.99789199984E+01  0.25729061378E+02  0.27604577870E+02  0.10570000000E+00 0.  1.
         13    1    3    3    0    0  0.66189363156E+00 -0.99789199984E+01  0.25590344872E+02  0.27475332039E+02  0.10570000000E+00 0. -1.
<mgrwt>
<rscale>  0 0.20002875E+02</rscale>
<asrwt>0</asrwt>
<pdfrwt beam="2">  1        2 0.28926955E-03 0.20002875E+02</pdfrwt>
<pdfrwt beam="1">  1       -2 0.81845616E-02 0.20002875E+02</pdfrwt>
<totfact> 0.33580027E+06</totfact>
</mgrwt>
</event>
<event>
 4    1  0.1607476E-006  0.2027179E+02  0.7818608E-02  0.1739976E+00
          2   -1    0    0  501    0  0.00000000000E+00  0.00000000000E+00  0.66196669742E+01  0.66196674848E+01  0.26000000000E-02 0. -1.
         -2   -1    0    0    0  501 -0.00000000000E+00 -0.00000000000E+00 -0.15519874860E+02  0.15519875077E+02  0.26000000000E-02 0.  1.
        -13    1    1    2    0    0  0.10094921893E+02 -0.54195181094E+00 -0.36594712564E+01  0.10751932950E+02  0.10570000000E+00 0. -1.
         13    1    1    2    0    0 -0.10094921893E+02  0.54195181094E+00 -0.52407366290E+01  0.11387609613E+02  0.10570000000E+00 0.  1.
<mgrwt>
<rscale>  0 0.20271794E+02</rscale>
<asrwt>0</asrwt>
<pdfrwt beam="1">  1        2 0.10184104E-02 0.20271794E+02</pdfrwt>
<pdfrwt beam="2">  1       -2 0.23876731E-02 0.20271794E+02</pdfrwt>
<totfact> 0.37099135E+06</totfact>
</mgrwt>
</event>
<event>
 5    1  0.1607476E-006  0.2000221E+02  0.7818608E-02  0.1745284E+00
          2   -1    0    0  501    0  0.00000000000E+00  0.00000000000E+00  0.55631855121E+02  0.55631855182E+02  0.26000000000E-02 0.  1.
         -2   -1    0    0    0  501 -0.00000000000E+00 -0.00000000000E+00 -0.17979272076E+01  0.17979290876E+01  0.26000000000E-02 0. -1.
       1023    2    1    2    0    0  0.00000000000E+00  0.00000000000E+00  0.53833927913E+02  0.57429784269E+02  0.20002208044E+02 0.  0.
        -13    1    3    3    0    0  0.10000402303E+02  0.42078590594E-01  0.27011858101E+02  0.28803844663E+02  0.10570000000E+00 0.  1.
         13    1    3    3    0    0 -0.10000402303E+02 -0.42078590594E-01  0.26822069812E+02  0.28625939606E+02  0.10570000000E+00 0. -1.
<mgrwt>
<rscale>  0 0.20002208E+02</rscale>
<asrwt>0</asrwt>
<pdfrwt beam="1">  1        2 0.85587449E-02 0.20002208E+02</pdfrwt>
<pdfrwt beam="2">  1       -2 0.27660440E-03 0.20002208E+02</pdfrwt>
<totfact> 0.47094284E+06</totfact>
</mgrwt>
</event>
<event>
 5    1  0.1607476E-006  0.2000872E+02  0.7818608E-02  0.1745155E+00
          2   -1    0    0  501    0  0.00000000000E+00  0.00000000000E+00  0.13472706594E+01  0.13472731681E+01  0.26000000000E-02 0. -1.
         -2   -1    0    0    0  501 -0.00000000000E+00 -0.00000000000E+00 -0.74288781251E+02  0.74288781297E+02  0.26000000000E-02 0.  1.
       1023    2    1    2    0    0  0.00000000000E+00  0.00000000000E+00 -0.72941510592E+02  0.75636054465E+02  0.20008717290E+02 0.  0.
        -13    1    3    3    0    0 -0.91977885692E+01  0.39337112495E+01 -0.36277240560E+02  0.37631406483E+02  0.10570000000E+00 0. -1.
         13    1    3    3    0    0  0.91977885692E+01 -0.39337112495E+01 -0.36664270031E+02  0.38004647981E+02  0.10570000000E+00 0.  1.
<mgrwt>
<rscale>  0 0.20008717E+02</rscale>
<asrwt>0</asrwt>
<pdfrwt beam="1">  1        2 0.20727266E-03 0.20008717E+02</pdfrwt>
<pdfrwt beam="2">  1       -2 0.11429040E-01 0.20008717E+02</pdfrwt>
<totfact> 0.31693265E+06</totfact>
</mgrwt>
</event>
<event>
 5    1  0.1607476E-006  0.2000278E+02  0.7818608E-02  0.1745273E+00
         -2   -1    0    0    0  501 -0.00000000000E+00  0.00000000000E+00  0.12189528813E+02  0.12189529090E+02  0.26000000000E-02 0.  1.
          2   -1    0    0  501    0  0.00000000000E+00 -0.00000000000E+00 -0.82060393014E+01  0.82060397133E+01  0.26000000000E-02 0. -1.
       1023    2    1    2    0    0  0.00000000000E+00  0.00000000000E+00  0.39834895114E+01  0.20395568803E+02  0.20002775760E+02 0.  0.
        -13    1    3    3    0    0  0.99222775472E+01  0.12509144432E+01  0.19770261852E+01  0.10194909695E+02  0.10570000000E+00 0. -1.
         13    1    3    3    0    0 -0.99222775472E+01 -0.12509144432E+01  0.20064633261E+01  0.10200659108E+02  0.10570000000E+00 0.  1.
<mgrwt>
<rscale>  0 0.20002776E+02</rscale>
<asrwt>0</asrwt>
<pdfrwt beam="2">  1        2 0.12624676E-02 0.20002776E+02</pdfrwt>
<pdfrwt beam="1">  1       -2 0.18753122E-02 0.20002776E+02</pdfrwt>
<totfact> 0.38883422E+06</totfact>
</mgrwt>
</event>
<event>
 5    1  0.1607476E-006  0.2000237E+02  0.7818608E-02  0.1745281E+00
          2   -1    0    0  501    0  0.00000000000E+00  0.00000000000E+00  0.31145125869E+01  0.31145136721E+01  0.26000000000E-02 0. -1.
         -2   -1    0    0    0  501 -0.00000000000E+00 -0.00000000000E+00 -0.32115345154E+02  0.32115345259E+02  0.26000000000E-02 0.  1.
       1023    2    1    2    0    0  0.00000000000E+00  0.00000000000E+00 -0.29000832567E+02  0.35229858931E+02  0.20002366628E+02 0.  0.
        -13    1    3    3    0    0 -0.67360599097E+01 -0.73912562398E+01 -0.14349692250E+02  0.17490855098E+02  0.10570000000E+00 0.  1.
         13    1    3    3    0    0  0.67360599097E+01  0.73912562398E+01 -0.14651140318E+02  0.17739003833E+02  0.10570000000E+00 0. -1.
<mgrwt>
<rscale>  0 0.20002367E+02</rscale>
<asrwt>0</asrwt>
<pdfrwt beam="1">  1        2 0.47915590E-03 0.20002367E+02</pdfrwt>
<pdfrwt beam="2">  1       -2 0.49408222E-02 0.20002367E+02</pdfrwt>
<totfact> 0.35799363E+06</totfact>
</mgrwt>
</event>
<event>
 4    1  0.1607476E-006  0.2024323E+02  0.7818608E-02  0.1740534E+00
          2   -1    0    0  501    0  0.00000000000E+00  0.00000000000E+00  0.86036755908E+01  0.86036759836E+01  0.26000000000E-02 0.  1.
         -2   -1    0    0    0  501 -0.00000000000E+00 -0.00000000000E+00 -0.11907358707E+02  0.11907358990E+02  0.26000000000E-02 0. -1.
        -13    1    1    2    0    0  0.98752938960E+01 -0.21580358663E+01 -0.21658371937E+01  0.10338306030E+02  0.10570000000E+00 0.  1.
         13    1    1    2    0    0 -0.98752938960E+01  0.21580358663E+01 -0.11378459221E+01  0.10172728944E+02  0.10570000000E+00 0. -1.
<mgrwt>
<rscale>  0 0.20243227E+02</rscale>
<asrwt>0</asrwt>
<pdfrwt beam="1">  1        2 0.13236425E-02 0.20243227E+02</pdfrwt>
<pdfrwt beam="2">  1       -2 0.18319014E-02 0.20243227E+02</pdfrwt>
<totfact> 0.37962859E+06</totfact>
</mgrwt>
</event>
<event>
 4    1  0.1607476E-006  0.2002271E+02  0.7818608E-02  0.1744877E+00
         -2   -1    0    0    0  501 -0.00000000000E+00  0.00000000000E+00  0.48380557838E+01  0.48380564824E+01  0.26000000000E-02 0. -1.
          2   -1    0    0  501    0  0.00000000000E+00 -0.00000000000E+00 -0.20716430363E+02  0.20716430527E+02  0.26000000000E-02 0.  1.
        -13    1    1    2    0    0  0.62713804301E+01 -0.77971953472E+01 -0.75571214668E+01  0.12539845499E+02  0.10570000000E+00 0. -1.
         13    1    1    2    0    0 -0.62713804301E+01  0.77971953472E+01 -0.83212531128E+01  0.13014641510E+02  0.10570000000E+00 0.  1.
<mgrwt>
<rscale>  0 0.20022713E+02</rscale>
<asrwt>0</asrwt>
<pdfrwt beam="2">  1        2 0.31871432E-02 0.20022713E+02</pdfrwt>
<pdfrwt beam="1">  1       -2 0.74431635E-03 0.20022713E+02</pdfrwt>
<totfact> 0.41702207E+06</totfact>
</mgrwt>
</event>
<event>
 4    1  0.1607476E-006  0.2006344E+02  0.7818608E-02  0.1744069E+00
         -2   -1    0    0    0  501 -0.00000000000E+00  0.00000000000E+00  0.95904195340E+02  0.95904195375E+02  0.26000000000E-02 0.  1.
          2   -1    0    0  501    0  0.00000000000E+00 -0.00000000000E+00 -0.10493314643E+01  0.10493346854E+01  0.26000000000E-02 0. -1.
        -13    1    1    2    0    0 -0.95852896844E+01 -0.29279863870E+01  0.45415222113E+02  0.46508111709E+02  0.10570000000E+00 0.  1.
         13    1    1    2    0    0  0.95852896844E+01  0.29279863870E+01  0.49439641762E+02  0.50445418352E+02  0.10570000000E+00 0. -1.
<mgrwt>
<rscale>  0 0.20063444E+02</rscale>
<asrwt>0</asrwt>
<pdfrwt beam="2">  1        2 0.16143580E-03 0.20063444E+02</pdfrwt>
<pdfrwt beam="1">  1       -2 0.14754497E-01 0.20063444E+02</pdfrwt>
<totfact> 0.29824439E+06</totfact>
</mgrwt>
</event>
<event>
 5    1  0.1607476E-006  0.2000697E+02  0.7818608E-02  0.1745190E+00
          2   -1    0    0  501    0  0.00000000000E+00  0.00000000000E+00  0.57847308735E+02  0.57847308794E+02  0.26000000000E-02 0. -1.
         -2   -1    0    0    0  501 -0.00000000000E+00 -0.00000000000E+00 -0.17298922675E+01  0.17298942214E+01  0.26000000000E-02 0.  1.
       1023    2    1    2    0    0  0.00000000000E+00  0.00000000000E+00  0.56117416468E+02  0.59577203015E+02  0.20006965989E+02 0.  0.
        -13    1    3    3    0    0  0.49663941205E+01  0.86814546754E+01  0.27580642996E+02  0.29338298629E+02  0.10570000000E+00 0.  1.
         13    1    3    3    0    0 -0.49663941205E+01 -0.86814546754E+01  0.28536773471E+02  0.30238904386E+02  0.10570000000E+00 0. -1.
<mgrwt>
<rscale>  0 0.20006966E+02</rscale>
<asrwt>0</asrwt>
<pdfrwt beam="1">  1        2 0.88995862E-02 0.20006966E+02</pdfrwt>
<pdfrwt beam="2">  1       -2 0.26613742E-03 0.20006966E+02</pdfrwt>
<totfact> 0.47370375E+06</totfact>
</mgrwt>
</event>
<event>
 5    1  0.1607476E-006  0.2000338E+02  0.7818608E-02  0.1745261E+00
         -2   -1    0    0    0  501 -0.00000000000E+00  0.00000000000E+00  0.28244312091E+01  0.28244324058E+01  0.26000000000E-02 0. -1.
          2   -1    0    0  501    0  0.00000000000E+00 -0.00000000000E+00 -0.35417306674E+02  0.35417306769E+02  0.26000000000E-02 0.  1.
       1023    2    1    2    0    0  0.00000000000E+00  0.00000000000E+00 -0.32592875465E+02  0.38241739175E+02  0.20003376817E+02 0.  0.
        -13    1    3    3    0    0 -0.61591032316E+00  0.99820929371E+01 -0.16359078173E+02  0.19174257120E+02  0.10570000000E+00 0. -1.
         13    1    3    3    0    0  0.61591032316E+00 -0.99820929371E+01 -0.16233797292E+02  0.19067482055E+02  0.10570000000E+00 0.  1.
<mgrwt>
<rscale>  0 0.20003377E+02</rscale>
<asrwt>0</asrwt>
<pdfrwt beam="2">  1        2 0.54488162E-02 0.20003377E+02</pdfrwt>
<pdfrwt beam="1">  1       -2 0.43452800E-03 0.20003377E+02</pdfrwt>
<totfact> 0.44195750E+06</totfact>
</mgrwt>
</event>
<event>
 4    1  0.1607476E-006  0.2005065E+02  0.7818608E-02  0.1744323E+00
          2   -1    0    0  501    0  0.00000000000E+00  0.00000000000E+00  0.58786653523E+02  0.58786653580E+02  0.26000000000E-02 0.  1.
         -2   -1    0    0    0  501 -0.00000000000E+00 -0.00000000000E+00 -0.17096929139E+01  0.17096948909E+01  0.26000000000E-02 0. -1.
        -13    1    1    2    0    0 -0.54792566313E+01  0.83948620780E+01  0.28516834806E+02  0.30227752188E+02  0.10570000000E+00 0.  1.
         13    1    1    2    0    0  0.54792566313E+01 -0.83948620780E+01  0.28560125803E+02  0.30268596283E+02  0.10570000000E+00 0. -1.
<mgrwt>
<rscale>  0 0.20050655E+02</rscale>
<asrwt>0</asrwt>
<pdfrwt beam="1">  1        2 0.90440994E-02 0.20050655E+02</pdfrwt>
<pdfrwt beam="2">  1       -2 0.26302987E-03 0.20050655E+02</pdfrwt>
<totfact> 0.47267631E+06</totfact>
</mgrwt>
</event>
<event>
 5    1  0.1607476E-006  0.2000365E+02  0.7818608E-02  0.1745255E+00
          2   -1    0    0  501    0  0.00000000000E+00  0.00000000000E+00  0.25720052955E+02  0.25720053087E+02  0.26000000000E-02 0.  1.
         -2   -1    0    0    0  501 -0.00000000000E+00 -0.00000000000E+00 -0.38894364427E+01  0.38894373117E+01  0.26000000000E-02 0. -1.
       1023    2    1    2    0    0  0.00000000000E+00  0.00000000000E+00  0.21830616513E+02  0.29609490398E+02  0.20003652275E+02 0.  0.
        -13    1    3    3    0    0  0.76206648703E+01 -0.64766148951E+01  0.11012146054E+02  0.14876142200E+02  0.10570000000E+00 0.  1.
         13    1    3    3    0    0 -0.76206648703E+01  0.64766148951E+01  0.10818470459E+02  0.14733348198E+02  0.10570000000E+00 0. -1.
<mgrwt>
<rscale>  0 0.20003652E+02</rscale>
<asrwt>0</asrwt>
<pdfrwt beam="1">  1        2 0.39569314E-02 0.20003652E+02</pdfrwt>
<pdfrwt beam="2">  1       -2 0.59837490E-03 0.20003652E+02</pdfrwt>
<totfact> 0.42659961E+06</totfact>
</mgrwt>
</event>
<event>
 5    1  0.1607476E-006  0.2000869E+02  0.7818608E-02  0.1745155E+00
         -2   -1    0    0    0  501 -0.00000000000E+00  0.00000000000E+00  0.80017607221E+01  0.80017611445E+01  0.26000000000E-02 0. -1.
          2   -1    0    0  501    0  0.00000000000E+00 -0.00000000000E+00 -0.12508111542E+02  0.12508111812E+02  0.26000000000E-02 0.  1.
       1023    2    1    2    0    0  0.00000000000E+00  0.00000000000E+00 -0.45063508199E+01  0.20509872957E+02  0.20008690387E+02 0.  0.
        -13    1    3    3    0    0  0.19918895201E+01 -0.98012535943E+01 -0.24670997571E+01  0.10301939118E+02  0.10570000000E+00 0. -1.
         13    1    3    3    0    0 -0.19918895201E+01  0.98012535943E+01 -0.20392510628E+01  0.10207933839E+02  0.10570000000E+00 0.  1.
<mgrwt>
<rscale>  0 0.20008690E+02</rscale>
<asrwt>0</asrwt>
<pdfrwt beam="2">  1        2 0.19243249E-02 0.20008690E+02</pdfrwt>
<pdfrwt beam="1">  1       -2 0.12310402E-02 0.20008690E+02</pdfrwt>
<totfact> 0.40084007E+06</totfact>
</mgrwt>
</event>
<event>
 5    1  0.1607476E-006  0.2000530E+02  0.7818608E-02  0.1745223E+00
         -2   -1    0    0    0  501 -0.00000000000E+00  0.00000000000E+00  0.54636448244E+02  0.54636448306E+02  0.26000000000E-02 0.  1.
          2   -1    0    0  501    0  0.00000000000E+00 -0.00000000000E+00 -0.18312489011E+01  0.18312507468E+01  0.26000000000E-02 0. -1.
       1023    2    1    2    0    0  0.00000000000E+00  0.00000000000E+00  0.52805199343E+02  0.56467699053E+02  0.20005298265E+02 0.  0.
        -13    1    3    3    0    0  0.99995841194E+01 -0.18049224432E+00  0.26776608844E+02  0.28583600432E+02  0.10570000000E+00 0. -1.
         13    1    3    3    0    0 -0.99995841194E+01  0.18049224432E+00  0.26028590500E+02  0.27884098621E+02  0.10570000000E+00 0.  1.
<mgrwt>
<rscale>  0 0.20005298E+02</rscale>
<asrwt>0</asrwt>
<pdfrwt beam="2">  1        2 0.28173074E-03 0.20005298E+02</pdfrwt>
<pdfrwt beam="1">  1       -2 0.84056076E-02 0.20005298E+02</pdfrwt>
<totfact> 0.33435402E+06</totfact>
</mgrwt>
</event>
<event>
 5    1  0.1607476E-006  0.2000358E+02  0.7818608E-02  0.1745257E+00
          2   -1    0    0  501    0  0.00000000000E+00  0.00000000000E+00  0.51222822932E+01  0.51222829531E+01  0.26000000000E-02 0.  1.
         -2   -1    0    0    0  501 -0.00000000000E+00 -0.00000000000E+00 -0.19529538971E+02  0.19529539144E+02  0.26000000000E-02 0. -1.
       1023    2    1    2    0    0  0.00000000000E+00  0.00000000000E+00 -0.14407256678E+02  0.24651822097E+02  0.20003581873E+02 0.  0.
        -13    1    3    3    0    0  0.92674754098E+01 -0.37597962661E+01 -0.71422442960E+01  0.12290036392E+02  0.10570000000E+00 0.  1.
         13    1    3    3    0    0 -0.92674754098E+01  0.37597962661E+01 -0.72650123819E+01  0.12361785706E+02  0.10570000000E+00 0. -1.
<mgrwt>
<rscale>  0 0.20003582E+02</rscale>
<asrwt>0</asrwt>
<pdfrwt beam="1">  1        2 0.78804350E-03 0.20003582E+02</pdfrwt>
<pdfrwt beam="2">  1       -2 0.30045445E-02 0.20003582E+02</pdfrwt>
<totfact> 0.37493377E+06</totfact>
</mgrwt>
</event>
<event>
 4    1  0.1607476E-006  0.2004956E+02  0.7818608E-02  0.1744344E+00
         -2   -1    0    0    0  501 -0.00000000000E+00  0.00000000000E+00  0.13645194882E+01  0.13645219653E+01  0.26000000000E-02 0. -1.
          2   -1    0    0  501    0  0.00000000000E+00 -0.00000000000E+00 -0.73649450809E+02  0.73649450855E+02  0.26000000000E-02 0.  1.
        -13    1    1    2    0    0 -0.97176076839E+01 -0.24500549734E+01 -0.36982118972E+02  0.38316092763E+02  0.10570000000E+00 0. -1.
         13    1    1    2    0    0  0.97176076839E+01  0.24500549734E+01 -0.35302812348E+02  0.36697880057E+02  0.10570000000E+00 0.  1.
<mgrwt>
<rscale>  0 0.20049559E+02</rscale>
<asrwt>0</asrwt>
<pdfrwt beam="2">  1        2 0.11330682E-01 0.20049559E+02</pdfrwt>
<pdfrwt beam="1">  1       -2 0.20992633E-03 0.20049559E+02</pdfrwt>
<totfact> 0.49220742E+06</totfact>
</mgrwt>
</event>
<event>
 5    1  0.1654458E-006  0.2000157E+02  0.7818608E-02  0.1745297E+00
          2   -1    0    0  501    0  0.00000000000E+00  0.00000000000E+00  0.88671342706E+02  0.88671342744E+02  0.26000000000E-02 0.  1.
         -2   -1    0    0    0  501 -0.00000000000E+00 -0.00000000000E+00 -0.11279352309E+01  0.11279382275E+01  0.26000000000E-02 0. -1.
       1023    2    1    2    0    0  0.00000000000E+00  0.00000000000E+00  0.87543407475E+02  0.89799280971E+02  0.20001566705E+02 0.  0.
        -13    1    3    3    0    0 -0.45182649278E+01  0.89211544445E+01  0.44008447177E+02  0.45130436625E+02  0.10570000000E+00 0.  1.
         13    1    3    3    0    0  0.45182649278E+01 -0.89211544445E+01  0.43534960298E+02  0.44668844346E+02  0.10570000000E+00 0. -1.
<mgrwt>
<rscale>  0 0.20001567E+02</rscale>
<asrwt>0</asrwt>
<pdfrwt beam="1">  1        2 0.13641741E-01 0.20001567E+02</pdfrwt>
<pdfrwt beam="2">  1       -2 0.17352879E-03 0.20001567E+02</pdfrwt>
<totfact> 0.51372196E+06</totfact>
</mgrwt>
</event>
<event>
 5    1  0.1607476E-006  0.2000124E+02  0.7818608E-02  0.1745303E+00
         -2   -1    0    0    0  501 -0.00000000000E+00  0.00000000000E+00  0.53305549597E+01  0.53305555938E+01  0.26000000000E-02 0. -1.
          2   -1    0    0  501    0  0.00000000000E+00 -0.00000000000E+00 -0.18762100492E+02  0.18762100672E+02  0.26000000000E-02 0.  1.
       1023    2    1    2    0    0  0.00000000000E+00  0.00000000000E+00 -0.13431545533E+02  0.24092656266E+02  0.20001241726E+02 0.  0.
        -13    1    3    3    0    0  0.99704489885E+01 -0.76889028348E+00 -0.66987440707E+01  0.12036834713E+02  0.10570000000E+00 0.  1.
         13    1    3    3    0    0 -0.99704489885E+01  0.76889028348E+00 -0.67328014619E+01  0.12055821553E+02  0.10570000000E+00 0. -1.
<mgrwt>
<rscale>  0 0.20001242E+02</rscale>
<asrwt>0</asrwt>
<pdfrwt beam="2">  1        2 0.28864770E-02 0.20001242E+02</pdfrwt>
<pdfrwt beam="1">  1       -2 0.82008545E-03 0.20001242E+02</pdfrwt>
<totfact> 0.41440661E+06</totfact>
</mgrwt>
</event>
<event>
 4    1  0.1607476E-006  0.3432993E+02  0.7818608E-02  0.1554633E+00
         -2   -1    0    0    0  501 -0.00000000000E+00  0.00000000000E+00  0.12526395521E+02  0.12526395791E+02  0.26000000000E-02 0. -1.
          2   -1    0    0  501    0  0.00000000000E+00 -0.00000000000E+00 -0.23521209550E+02  0.23521209693E+02  0.26000000000E-02 0.  1.
        -13    1    1    2    0    0  0.28735714261E+01  0.16869441019E+02 -0.69020045328E+01  0.18452216455E+02  0.10570000000E+00 0. -1.
         13    1    1    2    0    0 -0.28735714261E+01 -0.16869441019E+02 -0.40928094958E+01  0.17595389029E+02  0.10570000000E+00 0.  1.
<mgrwt>
<rscale>  0 0.34329928E+02</rscale>
<asrwt>0</asrwt>
<pdfrwt beam="2">  1        2 0.36186476E-02 0.34329928E+02</pdfrwt>
<pdfrwt beam="1">  1       -2 0.19271378E-02 0.34329928E+02</pdfrwt>
<totfact> 0.11812705E+06</totfact>
</mgrwt>
</event>
<event>
 5    1  0.1607476E-006  0.2000246E+02  0.7818608E-02  0.1745279E+00
          2   -1    0    0  501    0  0.00000000000E+00  0.00000000000E+00  0.59329614867E+02  0.59329614924E+02  0.26000000000E-02 0.  1.
         -2   -1    0    0    0  501 -0.00000000000E+00 -0.00000000000E+00 -0.16859126826E+01  0.16859146875E+01  0.26000000000E-02 0. -1.
       1023    2    1    2    0    0  0.00000000000E+00  0.00000000000E+00  0.57643702185E+02  0.61015529612E+02  0.20002461155E+02 0.  0.
        -13    1    3    3    0    0 -0.45507881993E+01 -0.89049355246E+01  0.29055970932E+02  0.30728946764E+02  0.10570000000E+00 0. -1.
         13    1    3    3    0    0  0.45507881993E+01  0.89049355246E+01  0.28587731253E+02  0.30286582848E+02  0.10570000000E+00 0.  1.
<mgrwt>
<rscale>  0 0.20002461E+02</rscale>
<asrwt>0</asrwt>
<pdfrwt beam="1">  1        2 0.91276326E-02 0.20002461E+02</pdfrwt>
<pdfrwt beam="2">  1       -2 0.25937136E-03 0.20002461E+02</pdfrwt>
<totfact> 0.47594438E+06</totfact>
</mgrwt>
</event>
<event>
 5    1  0.1607476E-006  0.2000830E+02  0.7818608E-02  0.1745163E+00
          2   -1    0    0  501    0  0.00000000000E+00  0.00000000000E+00  0.14290514573E+02  0.14290514810E+02  0.26000000000E-02 0.  1.
         -2   -1    0    0    0  501 -0.00000000000E+00 -0.00000000000E+00 -0.70034569384E+01  0.70034574210E+01  0.26000000000E-02 0. -1.
       1023    2    1    2    0    0  0.00000000000E+00  0.00000000000E+00  0.72870576348E+01  0.21293972231E+02  0.20008299388E+02 0.  0.
        -13    1    3    3    0    0 -0.74536255187E+01 -0.66719709290E+01  0.36324096150E+01  0.10643180988E+02  0.10570000000E+00 0. -1.
         13    1    3    3    0    0  0.74536255187E+01  0.66719709290E+01  0.36546480199E+01  0.10650791242E+02  0.10570000000E+00 0.  1.
<mgrwt>
<rscale>  0 0.20008299E+02</rscale>
<asrwt>0</asrwt>
<pdfrwt beam="1">  1        2 0.21985408E-02 0.20008299E+02</pdfrwt>
<pdfrwt beam="2">  1       -2 0.10774550E-02 0.20008299E+02</pdfrwt>
<totfact> 0.40497023E+06</totfact>
</mgrwt>
</event>
<event>
 5    1  0.1607476E-006  0.2000735E+02  0.7818608E-02  0.1745182E+00
         -2   -1    0    0    0  501 -0.00000000000E+00  0.00000000000E+00  0.15738173269E+01  0.15738194745E+01  0.26000000000E-02 0. -1.
          2   -1    0    0  501    0  0.00000000000E+00 -0.00000000000E+00 -0.63586417914E+02  0.63586417967E+02  0.26000000000E-02 0.  1.
       1023    2    1    2    0    0  0.00000000000E+00  0.00000000000E+00 -0.62012600587E+02  0.65160237442E+02  0.20007346448E+02 0.  0.
        -13    1    3    3    0    0 -0.71260096518E+01  0.70200919578E+01 -0.30926470013E+02  0.32504144729E+02  0.10570000000E+00 0.  1.
         13    1    3    3    0    0  0.71260096518E+01 -0.70200919578E+01 -0.31086130575E+02  0.32656092713E+02  0.10570000000E+00 0. -1.
<mgrwt>
<rscale>  0 0.20007346E+02</rscale>
<asrwt>0</asrwt>
<pdfrwt beam="2">  1        2 0.97825240E-02 0.20007346E+02</pdfrwt>
<pdfrwt beam="1">  1       -2 0.24212596E-03 0.20007346E+02</pdfrwt>
<totfact> 0.48137787E+06</totfact>
</mgrwt>
</event>
<event>
 4    1  0.1607476E-006  0.2001757E+02  0.7818608E-02  0.1744979E+00
         -2   -1    0    0    0  501 -0.00000000000E+00  0.00000000000E+00  0.63590801603E+02  0.63590801656E+02  0.26000000000E-02 0.  1.
          2   -1    0    0  501    0  0.00000000000E+00 -0.00000000000E+00 -0.15753179822E+01  0.15753201278E+01  0.26000000000E-02 0. -1.
        -13    1    1    2    0    0  0.97618341202E+01 -0.21893934489E+01  0.31915674807E+02  0.33447097332E+02  0.10570000000E+00 0.  1.
         13    1    1    2    0    0 -0.97618341202E+01  0.21893934489E+01  0.30099808814E+02  0.31719024452E+02  0.10570000000E+00 0. -1.
<mgrwt>
<rscale>  0 0.20017573E+02</rscale>
<asrwt>0</asrwt>
<pdfrwt beam="2">  1        2 0.24235684E-03 0.20017573E+02</pdfrwt>
<pdfrwt beam="1">  1       -2 0.97831980E-02 0.20017573E+02</pdfrwt>
<totfact> 0.32575997E+06</totfact>
</mgrwt>
</event>
<event>
 5    1  0.1607476E-006  0.2000386E+02  0.7818608E-02  0.1745251E+00
         -2   -1    0    0    0  501 -0.00000000000E+00  0.00000000000E+00  0.21326612761E+02  0.21326612919E+02  0.26000000000E-02 0.  1.
          2   -1    0    0  501    0  0.00000000000E+00 -0.00000000000E+00 -0.46907876713E+01  0.46907883919E+01  0.26000000000E-02 0. -1.
       1023    2    1    2    0    0  0.00000000000E+00  0.00000000000E+00  0.16635825089E+02  0.26017401311E+02  0.20003861992E+02 0.  0.
        -13    1    3    3    0    0 -0.97726158272E+01  0.21266731994E+01  0.82836948950E+01  0.12986821498E+02  0.10570000000E+00 0.  1.
         13    1    3    3    0    0  0.97726158272E+01 -0.21266731994E+01  0.83521301944E+01  0.13030579814E+02  0.10570000000E+00 0. -1.
<mgrwt>
<rscale>  0 0.20003862E+02</rscale>
<asrwt>0</asrwt>
<pdfrwt beam="2">  1        2 0.72165971E-03 0.20003862E+02</pdfrwt>
<pdfrwt beam="1">  1       -2 0.32810174E-02 0.20003862E+02</pdfrwt>
<totfact> 0.37215658E+06</totfact>
</mgrwt>
</event>
<event>
 4    1  0.1607476E-006  0.2236636E+02  0.7818608E-02  0.1701992E+00
          2   -1    0    0  501    0  0.00000000000E+00  0.00000000000E+00  0.12763383805E+02  0.12763384070E+02  0.26000000000E-02 0. -1.
         -2   -1    0    0    0  501 -0.00000000000E+00 -0.00000000000E+00 -0.97986163134E+01  0.97986166583E+01  0.26000000000E-02 0.  1.
        -13    1    1    2    0    0  0.82902506870E+01  0.71160634678E+01  0.38877157116E+01  0.11597073841E+02  0.10570000000E+00 0. -1.
         13    1    1    2    0    0 -0.82902506870E+01 -0.71160634678E+01 -0.92294822008E+00  0.10964926887E+02  0.10570000000E+00 0.  1.
<mgrwt>
<rscale>  0 0.22366359E+02</rscale>
<asrwt>0</asrwt>
<pdfrwt beam="1">  1        2 0.19635976E-02 0.22366359E+02</pdfrwt>
<pdfrwt beam="2">  1       -2 0.15074795E-02 0.22366359E+02</pdfrwt>
<totfact> 0.31072204E+06</totfact>
</mgrwt>
</event>
<event>
 4    1  0.1607476E-006  0.2022480E+02  0.7818608E-02  0.1740894E+00
          2   -1    0    0  501    0  0.00000000000E+00  0.00000000000E+00  0.29671118535E+02  0.29671118649E+02  0.26000000000E-02 0.  1.
         -2   -1    0    0    0  501 -0.00000000000E+00 -0.00000000000E+00 -0.34464698841E+01  0.34464708648E+01  0.26000000000E-02 0. -1.
        -13    1    1    2    0    0  0.17197870706E+01 -0.98634947614E+01  0.10794696214E+02  0.14723546968E+02  0.10570000000E+00 0. -1.
         13    1    1    2    0    0 -0.17197870706E+01  0.98634947614E+01  0.15429952437E+02  0.18394042546E+02  0.10570000000E+00 0.  1.
<mgrwt>
<rscale>  0 0.20224800E+02</rscale>
<asrwt>0</asrwt>
<pdfrwt beam="1">  1        2 0.45647876E-02 0.20224800E+02</pdfrwt>
<pdfrwt beam="2">  1       -2 0.53022621E-03 0.20224800E+02</pdfrwt>
<totfact> 0.42247951E+06</totfact>
</mgrwt>
</event>
<event>
 5    1  0.1607476E-006  0.2000532E+02  0.7818608E-02  0.1745222E+00
          2   -1    0    0  501    0  0.00000000000E+00  0.00000000000E+00  0.25031163336E+01  0.25031176839E+01  0.26000000000E-02 0. -1.
         -2   -1    0    0    0  501 -0.00000000000E+00 -0.00000000000E+00 -0.39971444791E+02  0.39971444875E+02  0.26000000000E-02 0.  1.
       1023    2    1    2    0    0  0.00000000000E+00  0.00000000000E+00 -0.37468328457E+02  0.42474562559E+02  0.20005319973E+02 0.  0.
        -13    1    3    3    0    0  0.97408104537E+01 -0.22698220927E+01 -0.18562283820E+02  0.21085659433E+02  0.10570000000E+00 0.  1.
         13    1    3    3    0    0 -0.97408104537E+01  0.22698220927E+01 -0.18906044637E+02  0.21388903126E+02  0.10570000000E+00 0. -1.
<mgrwt>
<rscale>  0 0.20005320E+02</rscale>
<asrwt>0</asrwt>
<pdfrwt beam="1">  1        2 0.38509496E-03 0.20005320E+02</pdfrwt>
<pdfrwt beam="2">  1       -2 0.61494527E-02 0.20005320E+02</pdfrwt>
<totfact> 0.34903310E+06</totfact>
</mgrwt>
</event>
<event>
 5    1  0.1609641E-006  0.2000171E+02  0.7818608E-02  0.1745294E+00
         -2   -1    0    0    0  501 -0.00000000000E+00  0.00000000000E+00  0.27351786407E+01  0.27351798765E+01  0.26000000000E-02 0.  1.
          2   -1    0    0  501    0  0.00000000000E+00 -0.00000000000E+00 -0.36566922197E+02  0.36566922289E+02  0.26000000000E-02 0. -1.
       1023    2    1    2    0    0  0.00000000000E+00  0.00000000000E+00 -0.33831743556E+02  0.39302102166E+02  0.20001708992E+02 0.  0.
        -13    1    3    3    0    0  0.12082541267E+01 -0.99269604963E+01 -0.16839886084E+02  0.19585641642E+02  0.10570000000E+00 0.  1.
         13    1    3    3    0    0 -0.12082541267E+01  0.99269604963E+01 -0.16991857473E+02  0.19716460524E+02  0.10570000000E+00 0. -1.
<mgrwt>
<rscale>  0 0.20001709E+02</rscale>
<asrwt>0</asrwt>
<pdfrwt beam="2">  1        2 0.56256801E-02 0.20001709E+02</pdfrwt>
<pdfrwt beam="1">  1       -2 0.42079684E-03 0.20001709E+02</pdfrwt>
<totfact> 0.44377507E+06</totfact>
</mgrwt>
</event>
<event>
 5    1  0.1607476E-006  0.2000144E+02  0.7818608E-02  0.1745300E+00
         -2   -1    0    0    0  501 -0.00000000000E+00  0.00000000000E+00  0.71742040669E+01  0.71742045381E+01  0.26000000000E-02 0. -1.
          2   -1    0    0  501    0  0.00000000000E+00 -0.00000000000E+00 -0.13940830267E+02  0.13940830509E+02  0.26000000000E-02 0.  1.
       1023    2    1    2    0    0  0.00000000000E+00  0.00000000000E+00 -0.67666262000E+01  0.21115035047E+02  0.20001436821E+02 0.  0.
        -13    1    3    3    0    0 -0.95864699392E+01  0.28463406406E+01 -0.33477428808E+01  0.10546118519E+02  0.10570000000E+00 0.  1.
         13    1    3    3    0    0  0.95864699392E+01 -0.28463406406E+01 -0.34188833192E+01  0.10568916528E+02  0.10570000000E+00 0. -1.
<mgrwt>
<rscale>  0 0.20001437E+02</rscale>
<asrwt>0</asrwt>
<pdfrwt beam="2">  1        2 0.21447432E-02 0.20001437E+02</pdfrwt>
<pdfrwt beam="1">  1       -2 0.11037238E-02 0.20001437E+02</pdfrwt>
<totfact> 0.40450642E+06</totfact>
</mgrwt>
</event>
<event>
 5    1  0.1607476E-006  0.2000268E+02  0.7818608E-02  0.1745275E+00
         -2   -1    0    0    0  501 -0.00000000000E+00  0.00000000000E+00  0.11559177514E+01  0.11559206755E+01  0.26000000000E-02 0.  1.
          2   -1    0    0  501    0  0.00000000000E+00 -0.00000000000E+00 -0.86534384236E+02  0.86534384275E+02  0.26000000000E-02 0. -1.
       1023    2    1    2    0    0  0.00000000000E+00  0.00000000000E+00 -0.85378466484E+02  0.87690304950E+02  0.20002675897E+02 0.  0.
        -13    1    3    3    0    0  0.97246948014E+01  0.23311654513E+01 -0.43160723363E+02  0.44304212385E+02  0.10570000000E+00 0.  1.
         13    1    3    3    0    0 -0.97246948014E+01 -0.23311654513E+01 -0.42217743121E+02  0.43386092566E+02  0.10570000000E+00 0. -1.
<mgrwt>
<rscale>  0 0.20002676E+02</rscale>
<asrwt>0</asrwt>
<pdfrwt beam="2">  1        2 0.13312977E-01 0.20002676E+02</pdfrwt>
<pdfrwt beam="1">  1       -2 0.17783380E-03 0.20002676E+02</pdfrwt>
<totfact> 0.51101570E+06</totfact>
</mgrwt>
</event>
<event>
 4    1  0.1607476E-006  0.2001366E+02  0.7818608E-02  0.1745057E+00
          2   -1    0    0  501    0  0.00000000000E+00  0.00000000000E+00  0.59156512513E+02  0.59156512570E+02  0.26000000000E-02 0. -1.
         -2   -1    0    0    0  501 -0.00000000000E+00 -0.00000000000E+00 -0.16927402852E+01  0.16927422820E+01  0.26000000000E-02 0.  1.
        -13    1    1    2    0    0 -0.10000257798E+02  0.25904731106E+00  0.28030351535E+02  0.29762124272E+02  0.10570000000E+00 0. -1.
         13    1    1    2    0    0  0.10000257798E+02 -0.25904731106E+00  0.29433420693E+02  0.31087130580E+02  0.10570000000E+00 0.  1.
<mgrwt>
<rscale>  0 0.20013663E+02</rscale>
<asrwt>0</asrwt>
<pdfrwt beam="1">  1        2 0.91010021E-02 0.20013663E+02</pdfrwt>
<pdfrwt beam="2">  1       -2 0.26042174E-03 0.20013663E+02</pdfrwt>
<totfact> 0.47511943E+06</totfact>
</mgrwt>
</event>
<event>
 5    1  0.1607476E-006  0.2000229E+02  0.7818608E-02  0.1745283E+00
         -2   -1    0    0    0  501 -0.00000000000E+00  0.00000000000E+00  0.18412191915E+01  0.18412210273E+01  0.26000000000E-02 0.  1.
          2   -1    0    0  501    0  0.00000000000E+00 -0.00000000000E+00 -0.54324243400E+02  0.54324243462E+02  0.26000000000E-02 0. -1.
       1023    2    1    2    0    0  0.00000000000E+00  0.00000000000E+00 -0.52483024209E+02  0.56165464490E+02  0.20002289150E+02 0.  0.
        -13    1    3    3    0    0 -0.17173791948E+01 -0.98516517378E+01 -0.26481210918E+02  0.28306715412E+02  0.10570000000E+00 0.  1.
         13    1    3    3    0    0  0.17173791948E+01  0.98516517378E+01 -0.26001813291E+02  0.27858749077E+02  0.10570000000E+00 0. -1.
<mgrwt>
<rscale>  0 0.20002289E+02</rscale>
<asrwt>0</asrwt>
<pdfrwt beam="2">  1        2 0.83575749E-02 0.20002289E+02</pdfrwt>
<pdfrwt beam="1">  1       -2 0.28326468E-03 0.20002289E+02</pdfrwt>
<totfact> 0.46914911E+06</totfact>
</mgrwt>
</event>
<event>
 4    1  0.1607476E-006  0.2007635E+02  0.7818608E-02  0.1743814E+00
         -2   -1    0    0    0  501 -0.00000000000E+00  0.00000000000E+00  0.31083618299E+02  0.31083618408E+02  0.26000000000E-02 0. -1.
          2   -1    0    0  501    0  0.00000000000E+00 -0.00000000000E+00 -0.32417371217E+01  0.32417381644E+01  0.26000000000E-02 0.  1.
        -13    1    1    2    0    0 -0.67836747061E+01 -0.73912019618E+01  0.13365188919E+02  0.16711898644E+02  0.10570000000E+00 0. -1.
         13    1    1    2    0    0  0.67836747061E+01  0.73912019618E+01  0.14476692258E+02  0.17613457928E+02  0.10570000000E+00 0.  1.
<mgrwt>
<rscale>  0 0.20076348E+02</rscale>
<asrwt>0</asrwt>
<pdfrwt beam="2">  1        2 0.49872890E-03 0.20076348E+02</pdfrwt>
<pdfrwt beam="1">  1       -2 0.47820950E-02 0.20076348E+02</pdfrwt>
<totfact> 0.35634894E+06</totfact>
</mgrwt>
</event>
<event>
 5    1  0.1607476E-006  0.2000244E+02  0.7818608E-02  0.1745280E+00
          2   -1    0    0  501    0  0.00000000000E+00  0.00000000000E+00  0.39145213826E+02  0.39145213912E+02  0.26000000000E-02 0.  1.
         -2   -1    0    0    0  501 -0.00000000000E+00 -0.00000000000E+00 -0.25552137165E+01  0.25552150393E+01  0.26000000000E-02 0. -1.
       1023    2    1    2    0    0  0.00000000000E+00  0.00000000000E+00  0.36590000110E+02  0.41700428952E+02  0.20002441520E+02 0.  0.
        -13    1    3    3    0    0  0.90969889242E+01 -0.41542429243E+01  0.18331255524E+02  0.20882026801E+02  0.10570000000E+00 0. -1.
         13    1    3    3    0    0 -0.90969889242E+01  0.41542429243E+01  0.18258744586E+02  0.20818402151E+02  0.10570000000E+00 0.  1.
<mgrwt>
<rscale>  0 0.20002442E+02</rscale>
<asrwt>0</asrwt>
<pdfrwt beam="1">  1        2 0.60223404E-02 0.20002442E+02</pdfrwt>
<pdfrwt beam="2">  1       -2 0.39310993E-03 0.20002442E+02</pdfrwt>
<totfact> 0.44758083E+06</totfact>
</mgrwt>
</event>
<event>
 5    1  0.1607476E-006  0.2000436E+02  0.7818608E-02  0.1745241E+00
          2   -1    0    0  501    0  0.00000000000E+00  0.00000000000E+00  0.80518873237E+02  0.80518873279E+02  0.26000000000E-02 0. -1.
         -2   -1    0    0    0  501 -0.00000000000E+00 -0.00000000000E+00 -0.12424850755E+01  0.12424877959E+01  0.26000000000E-02 0.  1.
       1023    2    1    2    0    0  0.00000000000E+00  0.00000000000E+00  0.79276388162E+02  0.81761361075E+02  0.20004360647E+02 0.  0.
        -13    1    3    3    0    0 -0.19752760289E+01  0.98043785775E+01  0.39923830476E+02  0.41157635587E+02  0.10570000000E+00 0. -1.
         13    1    3    3    0    0  0.19752760289E+01 -0.98043785775E+01  0.39352557685E+02  0.40603725489E+02  0.10570000000E+00 0.  1.
<mgrwt>
<rscale>  0 0.20004361E+02</rscale>
<asrwt>0</asrwt>
<pdfrwt beam="1">  1        2 0.12387520E-01 0.20004361E+02</pdfrwt>
<pdfrwt beam="2">  1       -2 0.19115174E-03 0.20004361E+02</pdfrwt>
<totfact> 0.50340674E+06</totfact>
</mgrwt>
</event>
<event>
 5    1  0.1607476E-006  0.2000161E+02  0.7818608E-02  0.1745296E+00
          2   -1    0    0  501    0  0.00000000000E+00  0.00000000000E+00  0.10962471355E+02  0.10962471663E+02  0.26000000000E-02 0. -1.
         -2   -1    0    0    0  501 -0.00000000000E+00 -0.00000000000E+00 -0.91234977711E+01  0.91234981416E+01  0.26000000000E-02 0.  1.
       1023    2    1    2    0    0  0.00000000000E+00  0.00000000000E+00  0.18389735838E+01  0.20085969805E+02  0.20001608914E+02 0.  0.
        -13    1    3    3    0    0 -0.98215889143E+01  0.18818338229E+01  0.92265635202E+00  0.10043275092E+02  0.10570000000E+00 0. -1.
         13    1    3    3    0    0  0.98215889143E+01 -0.18818338229E+01  0.91631723177E+00  0.10042694713E+02  0.10570000000E+00 0.  1.
<mgrwt>
<rscale>  0 0.20001609E+02</rscale>
<asrwt>0</asrwt>
<pdfrwt beam="1">  1        2 0.16865341E-02 0.20001609E+02</pdfrwt>
<pdfrwt beam="2">  1       -2 0.14036151E-02 0.20001609E+02</pdfrwt>
<totfact> 0.39723509E+06</totfact>
</mgrwt>
</event>
<event>
 4    1  0.1607476E-006  0.2002406E+02  0.7818608E-02  0.1744850E+00
         -2   -1    0    0    0  501 -0.00000000000E+00  0.00000000000E+00  0.75314865394E+01  0.75314869882E+01  0.26000000000E-02 0. -1.
          2   -1    0    0  501    0  0.00000000000E+00 -0.00000000000E+00 -0.13309560767E+02  0.13309561021E+02  0.26000000000E-02 0.  1.
        -13    1    1    2    0    0  0.40670765287E+01 -0.91431241834E+01 -0.32043519223E+01  0.10507943427E+02  0.10570000000E+00 0. -1.
         13    1    1    2    0    0 -0.40670765287E+01  0.91431241834E+01 -0.25737223054E+01  0.10333104583E+02  0.10570000000E+00 0.  1.
<mgrwt>
<rscale>  0 0.20024064E+02</rscale>
<asrwt>0</asrwt>
<pdfrwt beam="2">  1        2 0.20476248E-02 0.20024064E+02</pdfrwt>
<pdfrwt beam="1">  1       -2 0.11586903E-02 0.20024064E+02</pdfrwt>
<totfact> 0.40203448E+06</totfact>
</mgrwt>
</event>
<event>
 5    1  0.1607476E-006  0.2000723E+02  0.7818608E-02  0.1745184E+00
         -2   -1    0    0    0  501 -0.00000000000E+00  0.00000000000E+00  0.36177345048E+02  0.36177345142E+02  0.26000000000E-02 0.  1.
          2   -1    0    0  501    0  0.00000000000E+00 -0.00000000000E+00 -0.27661590429E+01  0.27661602648E+01  0.26000000000E-02 0. -1.
       1023    2    1    2    0    0  0.00000000000E+00  0.00000000000E+00  0.33411186006E+02  0.38943505407E+02  0.20007230270E+02 0.  0.
        -13    1    3    3    0    0 -0.96619146420E+01  0.25807504034E+01  0.16277917789E+02  0.19104833086E+02  0.10570000000E+00 0. -1.
         13    1    3    3    0    0  0.96619146420E+01 -0.25807504034E+01  0.17133268216E+02  0.19838672321E+02  0.10570000000E+00 0.  1.
<mgrwt>
<rscale>  0 0.20007230E+02</rscale>
<asrwt>0</asrwt>
<pdfrwt beam="2">  1        2 0.42556301E-03 0.20007230E+02</pdfrwt>
<pdfrwt beam="1">  1       -2 0.55657457E-02 0.20007230E+02</pdfrwt>
<totfact> 0.35311880E+06</totfact>
</mgrwt>
</event>
<event>
 5    1  0.1607476E-006  0.2000176E+02  0.7818608E-02  0.1745293E+00
          2   -1    0    0  501    0  0.00000000000E+00  0.00000000000E+00  0.18295426457E+01  0.18295444932E+01  0.26000000000E-02 0.  1.
         -2   -1    0    0    0  501 -0.00000000000E+00 -0.00000000000E+00 -0.54668073590E+02  0.54668073652E+02  0.26000000000E-02 0. -1.
       1023    2    1    2    0    0  0.00000000000E+00  0.00000000000E+00 -0.52838530944E+02  0.56497618145E+02  0.20001762515E+02 0.  0.
        -13    1    3    3    0    0  0.87288337785E+01  0.48797473269E+01 -0.26293566850E+02  0.28131251364E+02  0.10570000000E+00 0. -1.
         13    1    3    3    0    0 -0.87288337785E+01 -0.48797473269E+01 -0.26544964094E+02  0.28366366781E+02  0.10570000000E+00 0.  1.
<mgrwt>
<rscale>  0 0.20001763E+02</rscale>
<asrwt>0</asrwt>
<pdfrwt beam="1">  1        2 0.28146829E-03 0.20001763E+02</pdfrwt>
<pdfrwt beam="2">  1       -2 0.84104718E-02 0.20001763E+02</pdfrwt>
<totfact> 0.33445346E+06</totfact>
</mgrwt>
</event>
<event>
 5    1  0.1607476E-006  0.2000144E+02  0.7818608E-02  0.1745299E+00
         -2   -1    0    0    0  501 -0.00000000000E+00  0.00000000000E+00  0.42470344870E+01  0.42470352829E+01  0.26000000000E-02 0.  1.
          2   -1    0    0  501    0  0.00000000000E+00 -0.00000000000E+00 -0.23549233038E+02  0.23549233181E+02  0.26000000000E-02 0. -1.
       1023    2    1    2    0    0  0.00000000000E+00  0.00000000000E+00 -0.19302198551E+02  0.27796268464E+02  0.20001441739E+02 0.  0.
        -13    1    3    3    0    0 -0.61080265038E+01  0.79180181262E+01 -0.96729227131E+01  0.13913288796E+02  0.10570000000E+00 0.  1.
         13    1    3    3    0    0  0.61080265038E+01 -0.79180181262E+01 -0.96292758377E+01  0.13882979668E+02  0.10570000000E+00 0. -1.
<mgrwt>
<rscale>  0 0.20001442E+02</rscale>
<asrwt>0</asrwt>
<pdfrwt beam="2">  1        2 0.36229589E-02 0.20001442E+02</pdfrwt>
<pdfrwt beam="1">  1       -2 0.65339001E-03 0.20001442E+02</pdfrwt>
<totfact> 0.42302522E+06</totfact>
</mgrwt>
</event>
<event>
 5    1  0.1607476E-006  0.2000400E+02  0.7818608E-02  0.1745248E+00
          2   -1    0    0  501    0  0.00000000000E+00  0.00000000000E+00  0.13134952927E+01  0.13134978660E+01  0.26000000000E-02 0.  1.
         -2   -1    0    0    0  501 -0.00000000000E+00 -0.00000000000E+00 -0.76163156158E+02  0.76163156203E+02  0.26000000000E-02 0. -1.
       1023    2    1    2    0    0  0.00000000000E+00  0.00000000000E+00 -0.74849660866E+02  0.77476654069E+02  0.20004004448E+02 0.  0.
        -13    1    3    3    0    0 -0.92826905678E+01 -0.37227964179E+01 -0.37284186944E+02  0.38602452330E+02  0.10570000000E+00 0.  1.
         13    1    3    3    0    0  0.92826905678E+01  0.37227964179E+01 -0.37565473922E+02  0.38874201739E+02  0.10570000000E+00 0. -1.
<mgrwt>
<rscale>  0 0.20004004E+02</rscale>
<asrwt>0</asrwt>
<pdfrwt beam="1">  1        2 0.20207646E-03 0.20004004E+02</pdfrwt>
<pdfrwt beam="2">  1       -2 0.11717405E-01 0.20004004E+02</pdfrwt>
<totfact> 0.31555171E+06</totfact>
</mgrwt>
</event>
<event>
 5    1  0.1613315E-006  0.2000137E+02  0.7818608E-02  0.1745301E+00
         -2   -1    0    0    0  501 -0.00000000000E+00  0.00000000000E+00  0.18711566661E+01  0.18711584725E+01  0.26000000000E-02 0.  1.
          2   -1    0    0  501    0  0.00000000000E+00 -0.00000000000E+00 -0.53450147700E+02  0.53450147763E+02  0.26000000000E-02 0. -1.
       1023    2    1    2    0    0  0.00000000000E+00  0.00000000000E+00 -0.51578991034E+02  0.55321306236E+02  0.20001365142E+02 0.  0.
        -13    1    3    3    0    0 -0.77961441533E+01 -0.62627950829E+01 -0.25779337153E+02  0.27651181936E+02  0.10570000000E+00 0. -1.
         13    1    3    3    0    0  0.77961441533E+01  0.62627950829E+01 -0.25799653881E+02  0.27670124300E+02  0.10570000000E+00 0.  1.
<mgrwt>
<rscale>  0 0.20001365E+02</rscale>
<asrwt>0</asrwt>
<pdfrwt beam="2">  1        2 0.82230986E-02 0.20001365E+02</pdfrwt>
<pdfrwt beam="1">  1       -2 0.28787044E-03 0.20001365E+02</pdfrwt>
<totfact> 0.46799582E+06</totfact>
</mgrwt>
</event>
<event>
 5    1  0.1607476E-006  0.2000405E+02  0.7818608E-02  0.1745248E+00
         -2   -1    0    0    0  501 -0.00000000000E+00  0.00000000000E+00  0.54589734514E+01  0.54589740706E+01  0.26000000000E-02 0. -1.
          2   -1    0    0  501    0  0.00000000000E+00 -0.00000000000E+00 -0.18325881275E+02  0.18325881459E+02  0.26000000000E-02 0.  1.
       1023    2    1    2    0    0  0.00000000000E+00  0.00000000000E+00 -0.12866907823E+02  0.23784855530E+02  0.20004050481E+02 0.  0.
        -13    1    3    3    0    0  0.54430950911E+01 -0.83900357184E+01 -0.65484427095E+01  0.11954633325E+02  0.10570000000E+00 0.  1.
         13    1    3    3    0    0 -0.54430950911E+01  0.83900357184E+01 -0.63184651136E+01  0.11830222205E+02  0.10570000000E+00 0. -1.
<mgrwt>
<rscale>  0 0.20004050E+02</rscale>
<asrwt>0</asrwt>
<pdfrwt beam="2">  1        2 0.28193664E-02 0.20004050E+02</pdfrwt>
<pdfrwt beam="1">  1       -2 0.83984214E-03 0.20004050E+02</pdfrwt>
<totfact> 0.41344139E+06</totfact>
</mgrwt>
</event>
<event>
 5    1  0.1607476E-006  0.2000414E+02  0.7818608E-02  0.1745246E+00
         -2   -1    0    0    0  501 -0.00000000000E+00  0.00000000000E+00  0.10563183210E+01  0.10563215207E+01  0.26000000000E-02 0. -1.
          2   -1    0    0  501    0  0.00000000000E+00 -0.00000000000E+00 -0.94707525404E+02  0.94707525440E+02  0.26000000000E-02 0.  1.
       1023    2    1    2    0    0  0.00000000000E+00  0.00000000000E+00 -0.93651207083E+02  0.95763846960E+02  0.20004144484E+02 0.  0.
        -13    1    3    3    0    0 -0.68876729113E+01  0.72516083117E+01 -0.46507501109E+02  0.47570838684E+02  0.10570000000E+00 0.  1.
         13    1    3    3    0    0  0.68876729113E+01 -0.72516083117E+01 -0.47143705974E+02  0.48193008276E+02  0.10570000000E+00 0. -1.
<mgrwt>
<rscale>  0 0.20004144E+02</rscale>
<asrwt>0</asrwt>
<pdfrwt beam="2">  1        2 0.14570382E-01 0.20004144E+02</pdfrwt>
<pdfrwt beam="1">  1       -2 0.16251083E-03 0.20004144E+02</pdfrwt>
<totfact> 0.52095973E+06</totfact>
</mgrwt>
</event>
<event>
 5    1  0.1607476E-006  0.2000278E+02  0.7818608E-02  0.1745273E+00
         -2   -1    0    0    0  501 -0.00000000000E+00  0.00000000000E+00  0.81345117868E+02  0.81345117910E+02  0.26000000000E-02 0. -1.
          2   -1    0    0  501    0  0.00000000000E+00 -0.00000000000E+00 -0.12296700808E+01  0.12296728295E+01  0.26000000000E-02 0.  1.
       1023    2    1    2    0    0  0.00000000000E+00  0.00000000000E+00  0.80115447787E+02  0.82574790739E+02  0.20002777093E+02 0.  0.
        -13    1    3    3    0    0 -0.80680195978E+01 -0.59096100836E+01  0.40004089125E+02  0.41235358017E+02  0.10570000000E+00 0.  1.
         13    1    3    3    0    0  0.80680195978E+01  0.59096100836E+01  0.40111358663E+02  0.41339432723E+02  0.10570000000E+00 0. -1.
<mgrwt>
<rscale>  0 0.20002777E+02</rscale>
<asrwt>0</asrwt>
<pdfrwt beam="2">  1        2 0.18918033E-03 0.20002777E+02</pdfrwt>
<pdfrwt beam="1">  1       -2 0.12514627E-01 0.20002777E+02</pdfrwt>
<totfact> 0.31140869E+06</totfact>
</mgrwt>
</event>
<event>
 5    1  0.1607476E-006  0.2000180E+02  0.7818608E-02  0.1745292E+00
          2   -1    0    0  501    0  0.00000000000E+00  0.00000000000E+00  0.39938289437E+01  0.39938297900E+01  0.26000000000E-02 0.  1.
         -2   -1    0    0    0  501 -0.00000000000E+00 -0.00000000000E+00 -0.25043138872E+02  0.25043139007E+02  0.26000000000E-02 0. -1.
       1023    2    1    2    0    0  0.00000000000E+00  0.00000000000E+00 -0.21049309928E+02  0.29036968797E+02  0.20001802630E+02 0.  0.
        -13    1    3    3    0    0  0.23025602859E+01  0.97316020270E+01 -0.10570395423E+02  0.14551642305E+02  0.10570000000E+00 0. -1.
         13    1    3    3    0    0 -0.23025602859E+01 -0.97316020270E+01 -0.10478914505E+02  0.14485326492E+02  0.10570000000E+00 0.  1.
<mgrwt>
<rscale>  0 0.20001803E+02</rscale>
<asrwt>0</asrwt>
<pdfrwt beam="1">  1        2 0.61443531E-03 0.20001803E+02</pdfrwt>
<pdfrwt beam="2">  1       -2 0.38527906E-02 0.20001803E+02</pdfrwt>
<totfact> 0.36695905E+06</totfact>
</mgrwt>
</event>
<event>
 5    1  0.1607476E-006  0.2000287E+02  0.7818608E-02  0.1745271E+00
         -2   -1    0    0    0  501 -0.00000000000E+00  0.00000000000E+00  0.18666854689E+02  0.18666854870E+02  0.26000000000E-02 0. -1.
          2   -1    0    0  501    0  0.00000000000E+00 -0.00000000000E+00 -0.53586243579E+01  0.53586249886E+01  0.26000000000E-02 0.  1.
       1023    2    1    2    0    0  0.00000000000E+00  0.00000000000E+00  0.13308230331E+02  0.24025479859E+02  0.20002866992E+02 0.  0.
        -13    1    3    3    0    0 -0.83287287979E+01  0.55358493388E+01  0.67314738992E+01  0.12055590597E+02  0.10570000000E+00 0. -1.
         13    1    3    3    0    0  0.83287287979E+01 -0.55358493388E+01  0.65767564321E+01  0.11969889262E+02  0.10570000000E+00 0.  1.
<mgrwt>
<rscale>  0 0.20002867E+02</rscale>
<asrwt>0</asrwt>
<pdfrwt beam="2">  1        2 0.82440378E-03 0.20002867E+02</pdfrwt>
<pdfrwt beam="1">  1       -2 0.28718240E-02 0.20002867E+02</pdfrwt>
<totfact> 0.37635255E+06</totfact>
</mgrwt>
</event>
<event>
 4    1  0.1607476E-006  0.2001651E+02  0.7818608E-02  0.1745000E+00
         -2   -1    0    0    0  501 -0.00000000000E+00  0.00000000000E+00  0.19032873674E+01  0.19032891433E+01  0.26000000000E-02 0. -1.
          2   -1    0    0  501    0  0.00000000000E+00 -0.00000000000E+00 -0.52627431293E+02  0.52627431357E+02  0.26000000000E-02 0.  1.
        -13    1    1    2    0    0 -0.37616196036E+01 -0.92720599574E+01 -0.24866244660E+02  0.26804144715E+02  0.10570000000E+00 0. -1.
         13    1    1    2    0    0  0.37616196036E+01  0.92720599574E+01 -0.25857899265E+02  0.27726575786E+02  0.10570000000E+00 0.  1.
<mgrwt>
<rscale>  0 0.20016511E+02</rscale>
<asrwt>0</asrwt>
<pdfrwt beam="2">  1        2 0.80965269E-02 0.20016511E+02</pdfrwt>
<pdfrwt beam="1">  1       -2 0.29281362E-03 0.20016511E+02</pdfrwt>
<totfact> 0.46607510E+06</totfact>
</mgrwt>
</event>
<event>
 4    1  0.1607476E-006  0.2001394E+02  0.7818608E-02  0.1745051E+00
         -2   -1    0    0    0  501 -0.00000000000E+00  0.00000000000E+00  0.57761866563E+01  0.57761872415E+01  0.26000000000E-02 0.  1.
          2   -1    0    0  501    0  0.00000000000E+00 -0.00000000000E+00 -0.17336592802E+02  0.17336592997E+02  0.26000000000E-02 0. -1.
        -13    1    1    2    0    0 -0.44130409458E+01  0.89739261414E+01 -0.61834896025E+01  0.11758103458E+02  0.10570000000E+00 0.  1.
         13    1    1    2    0    0  0.44130409458E+01 -0.89739261414E+01 -0.53769165430E+01  0.11354676780E+02  0.10570000000E+00 0. -1.
<mgrwt>
<rscale>  0 0.20013936E+02</rscale>
<asrwt>0</asrwt>
<pdfrwt beam="2">  1        2 0.26671682E-02 0.20013936E+02</pdfrwt>
<pdfrwt beam="1">  1       -2 0.88864416E-03 0.20013936E+02</pdfrwt>
<totfact> 0.41105376E+06</totfact>
</mgrwt>
</event>
<event>
 4    1  0.1696806E-006  0.2085061E+02  0.7818608E-02  0.1728923E+00
         -2   -1    0    0    0  501 -0.00000000000E+00  0.00000000000E+00  0.81477162689E+02  0.81477162731E+02  0.26000000000E-02 0.  1.
          2   -1    0    0  501    0  0.00000000000E+00 -0.00000000000E+00 -0.13339552409E+01  0.13339577748E+01  0.26000000000E-02 0. -1.
        -13    1    1    2    0    0 -0.69702978274E+01  0.73302997144E+01  0.30057495953E+02  0.31714075442E+02  0.10570000000E+00 0. -1.
         13    1    1    2    0    0  0.69702978274E+01 -0.73302997144E+01  0.50085711496E+02  0.51097045064E+02  0.10570000000E+00 0.  1.
<mgrwt>
<rscale>  0 0.20850611E+02</rscale>
<asrwt>0</asrwt>
<pdfrwt beam="2">  1        2 0.20522401E-03 0.20850611E+02</pdfrwt>
<pdfrwt beam="1">  1       -2 0.12534953E-01 0.20850611E+02</pdfrwt>
<totfact> 0.28423405E+06</totfact>
</mgrwt>
</event>
<event>
 5    1  0.1607476E-006  0.2000175E+02  0.7818608E-02  0.1745293E+00
         -2   -1    0    0    0  501 -0.00000000000E+00  0.00000000000E+00  0.25571103496E+02  0.25571103628E+02  0.26000000000E-02 0.  1.
          2   -1    0    0  501    0  0.00000000000E+00 -0.00000000000E+00 -0.39113498429E+01  0.39113507070E+01  0.26000000000E-02 0. -1.
       1023    2    1    2    0    0  0.00000000000E+00  0.00000000000E+00  0.21659753653E+02  0.29482454335E+02  0.20001754556E+02 0.  0.
        -13    1    3    3    0    0  0.57446330393E+01 -0.81856635277E+01  0.10862092707E+02  0.14764895076E+02  0.10570000000E+00 0.  1.
         13    1    3    3    0    0 -0.57446330393E+01  0.81856635277E+01  0.10797660946E+02  0.14717559259E+02  0.10570000000E+00 0. -1.
<mgrwt>
<rscale>  0 0.20001755E+02</rscale>
<asrwt>0</asrwt>
<pdfrwt beam="2">  1        2 0.60174623E-03 0.20001755E+02</pdfrwt>
<pdfrwt beam="1">  1       -2 0.39340158E-02 0.20001755E+02</pdfrwt>
<totfact> 0.36624978E+06</totfact>
</mgrwt>
</event>
<event>
 5    1  0.1607476E-006  0.2000335E+02  0.7818608E-02  0.1745261E+00
          2   -1    0    0  501    0  0.00000000000E+00  0.00000000000E+00  0.41239828921E+02  0.41239829003E+02  0.26000000000E-02 0.  1.
         -2   -1    0    0    0  501 -0.00000000000E+00 -0.00000000000E+00 -0.24256516276E+01  0.24256530211E+01  0.26000000000E-02 0. -1.
       1023    2    1    2    0    0  0.00000000000E+00  0.00000000000E+00  0.38814177294E+02  0.43665482024E+02  0.20003348755E+02 0.  0.
        -13    1    3    3    0    0 -0.96824191614E+01  0.25045066640E+01  0.19457030129E+02  0.21877133916E+02  0.10570000000E+00 0. -1.
         13    1    3    3    0    0  0.96824191614E+01 -0.25045066640E+01  0.19357147164E+02  0.21788348108E+02  0.10570000000E+00 0.  1.
<mgrwt>
<rscale>  0 0.20003349E+02</rscale>
<asrwt>0</asrwt>
<pdfrwt beam="1">  1        2 0.63445896E-02 0.20003349E+02</pdfrwt>
<pdfrwt beam="2">  1       -2 0.37317726E-03 0.20003349E+02</pdfrwt>
<totfact> 0.45061134E+06</totfact>
</mgrwt>
</event>
<event>
 4    1  0.2096362E-006  0.2001453E+02  0.7818608E-02  0.1745039E+00
         -2   -1    0    0    0  501 -0.00000000000E+00  0.00000000000E+00  0.91305441393E+00  0.91305811579E+00  0.26000000000E-02 0. -1.
          2   -1    0    0  501    0  0.00000000000E+00 -0.00000000000E+00 -0.10968143911E+03  0.10968143914E+03  0.26000000000E-02 0.  1.
        -13    1    1    2    0    0  0.36866707234E+01 -0.93027135789E+01 -0.54128866997E+02  0.55046139154E+02  0.10570000000E+00 0.  1.
         13    1    1    2    0    0 -0.36866707234E+01  0.93027135789E+01 -0.54639517698E+02  0.55548358101E+02  0.10570000000E+00 0. -1.
<mgrwt>
<rscale>  0 0.20014528E+02</rscale>
<asrwt>0</asrwt>
<pdfrwt beam="2">  1        2 0.16874057E-01 0.20014528E+02</pdfrwt>
<pdfrwt beam="1">  1       -2 0.14047028E-03 0.20014528E+02</pdfrwt>
<totfact> 0.53816206E+06</totfact>
</mgrwt>
</event>
<event>
 4    1  0.1607476E-006  0.2002443E+02  0.7818608E-02  0.1744843E+00
         -2   -1    0    0    0  501 -0.00000000000E+00  0.00000000000E+00  0.53375861004E+01  0.53375867336E+01  0.26000000000E-02 0. -1.
          2   -1    0    0  501    0  0.00000000000E+00 -0.00000000000E+00 -0.18780848327E+02  0.18780848507E+02  0.26000000000E-02 0.  1.
        -13    1    1    2    0    0 -0.95151835099E+01  0.30886239272E+01 -0.71956973580E+01  0.12323455195E+02  0.10570000000E+00 0. -1.
         13    1    1    2    0    0  0.95151835099E+01 -0.30886239272E+01 -0.62475648684E+01  0.11794980045E+02  0.10570000000E+00 0.  1.
<mgrwt>
<rscale>  0 0.20024426E+02</rscale>
<asrwt>0</asrwt>
<pdfrwt beam="2">  1        2 0.28893613E-02 0.20024426E+02</pdfrwt>
<pdfrwt beam="1">  1       -2 0.82116716E-03 0.20024426E+02</pdfrwt>
<totfact> 0.41336039E+06</totfact>
</mgrwt>
</event>
<event>
 5    1  0.1607476E-006  0.2000440E+02  0.7818608E-02  0.1745241E+00
          2   -1    0    0  501    0  0.00000000000E+00  0.00000000000E+00  0.11103465840E+02  0.11103466145E+02  0.26000000000E-02 0. -1.
         -2   -1    0    0    0  501 -0.00000000000E+00 -0.00000000000E+00 -0.90101598062E+01  0.90101601813E+01  0.26000000000E-02 0.  1.
       1023    2    1    2    0    0  0.00000000000E+00  0.00000000000E+00  0.20933060343E+01  0.20113626326E+02  0.20004400362E+02 0.  0.
        -13    1    3    3    0    0  0.99154976802E+01  0.13002820320E+01  0.88764923488E+00  0.10040265000E+02  0.10570000000E+00 0. -1.
         13    1    3    3    0    0 -0.99154976802E+01 -0.13002820320E+01  0.12056567994E+01  0.10073361327E+02  0.10570000000E+00 0.  1.
<mgrwt>
<rscale>  0 0.20004400E+02</rscale>
<asrwt>0</asrwt>
<pdfrwt beam="1">  1        2 0.17082256E-02 0.20004400E+02</pdfrwt>
<pdfrwt beam="2">  1       -2 0.13861785E-02 0.20004400E+02</pdfrwt>
<totfact> 0.39748429E+06</totfact>
</mgrwt>
</event>
<event>
 5    1  0.1607476E-006  0.2000142E+02  0.7818608E-02  0.1745300E+00
          2   -1    0    0  501    0  0.00000000000E+00  0.00000000000E+00  0.55575057663E+01  0.55575063744E+01  0.26000000000E-02 0. -1.
         -2   -1    0    0    0  501 -0.00000000000E+00 -0.00000000000E+00 -0.17996234133E+02  0.17996234321E+02  0.26000000000E-02 0.  1.
       1023    2    1    2    0    0  0.00000000000E+00  0.00000000000E+00 -0.12438728367E+02  0.23553740695E+02  0.20001418384E+02 0.  0.
        -13    1    3    3    0    0 -0.91936747643E+01 -0.39340511913E+01 -0.61593479658E+01  0.11745175788E+02  0.10570000000E+00 0.  1.
         13    1    3    3    0    0  0.91936747643E+01  0.39340511913E+01 -0.62793804008E+01  0.11808564907E+02  0.10570000000E+00 0. -1.
<mgrwt>
<rscale>  0 0.20001418E+02</rscale>
<asrwt>0</asrwt>
<pdfrwt beam="1">  1        2 0.85500095E-03 0.20001418E+02</pdfrwt>
<pdfrwt beam="2">  1       -2 0.27686514E-02 0.20001418E+02</pdfrwt>
<totfact> 0.37752336E+06</totfact>
</mgrwt>
</event>
<event>
 5    1  0.1607476E-006  0.2000120E+02  0.7818608E-02  0.1745304E+00
         -2   -1    0    0    0  501 -0.00000000000E+00  0.00000000000E+00  0.71504562402E+01  0.71504567129E+01  0.26000000000E-02 0. -1.
          2   -1    0    0  501    0  0.00000000000E+00 -0.00000000000E+00 -0.13986804992E+02  0.13986805233E+02  0.26000000000E-02 0.  1.
       1023    2    1    2    0    0  0.00000000000E+00  0.00000000000E+00 -0.68363487515E+01  0.21137261946E+02  0.20001204422E+02 0.  0.
        -13    1    3    3    0    0 -0.98936276398E+01  0.14548607643E+01 -0.33974553112E+01  0.10561929880E+02  0.10570000000E+00 0. -1.
         13    1    3    3    0    0  0.98936276398E+01 -0.14548607643E+01 -0.34388934403E+01  0.10575332066E+02  0.10570000000E+00 0.  1.
<mgrwt>
<rscale>  0 0.20001204E+02</rscale>
<asrwt>0</asrwt>
<pdfrwt beam="2">  1        2 0.21518162E-02 0.20001204E+02</pdfrwt>
<pdfrwt beam="1">  1       -2 0.11000702E-02 0.20001204E+02</pdfrwt>
<totfact> 0.40462019E+06</totfact>
</mgrwt>
</event>
<event>
 5    1  0.1607476E-006  0.2000550E+02  0.7818608E-02  0.1745219E+00
         -2   -1    0    0    0  501 -0.00000000000E+00  0.00000000000E+00  0.10703846592E+01  0.10703878169E+01  0.26000000000E-02 0. -1.
          2   -1    0    0  501    0  0.00000000000E+00 -0.00000000000E+00 -0.93475593231E+02  0.93475593267E+02  0.26000000000E-02 0.  1.
       1023    2    1    2    0    0  0.00000000000E+00  0.00000000000E+00 -0.92405208572E+02  0.94545981084E+02  0.20005498443E+02 0.  0.
        -13    1    3    3    0    0  0.76056789624E+01 -0.64959467696E+01 -0.46259036444E+02  0.47328144926E+02  0.10570000000E+00 0.  1.
         13    1    3    3    0    0 -0.76056789624E+01  0.64959467696E+01 -0.46146172128E+02  0.47217836158E+02  0.10570000000E+00 0. -1.
<mgrwt>
<rscale>  0 0.20005498E+02</rscale>
<asrwt>0</asrwt>
<pdfrwt beam="2">  1        2 0.14380854E-01 0.20005498E+02</pdfrwt>
<pdfrwt beam="1">  1       -2 0.16467488E-03 0.20005498E+02</pdfrwt>
<totfact> 0.51938464E+06</totfact>
</mgrwt>
</event>
<event>
 5    1  0.1607476E-006  0.2000303E+02  0.7818608E-02  0.1745268E+00
          2   -1    0    0  501    0  0.00000000000E+00  0.00000000000E+00  0.21649836611E+02  0.21649836768E+02  0.26000000000E-02 0. -1.
         -2   -1    0    0    0  501 -0.00000000000E+00 -0.00000000000E+00 -0.46203704022E+01  0.46203711337E+01  0.26000000000E-02 0.  1.
       1023    2    1    2    0    0  0.00000000000E+00  0.00000000000E+00  0.17029466209E+02  0.26270207901E+02  0.20003027366E+02 0.  0.
        -13    1    3    3    0    0  0.16178356499E+01 -0.98690934652E+01  0.84464226354E+01  0.13090822199E+02  0.10570000000E+00 0. -1.
         13    1    3    3    0    0 -0.16178356499E+01  0.98690934652E+01  0.85830435739E+01  0.13179385703E+02  0.10570000000E+00 0.  1.
<mgrwt>
<rscale>  0 0.20003027E+02</rscale>
<asrwt>0</asrwt>
<pdfrwt beam="1">  1        2 0.33307442E-02 0.20003027E+02</pdfrwt>
<pdfrwt beam="2">  1       -2 0.71082628E-03 0.20003027E+02</pdfrwt>
<totfact> 0.41962458E+06</totfact>
</mgrwt>
</event>
<event>
 5    1  0.1607476E-006  0.2000250E+02  0.7818608E-02  0.1745278E+00
         -2   -1    0    0    0  501 -0.00000000000E+00  0.00000000000E+00  0.35215673402E+01  0.35215683000E+01  0.26000000000E-02 0.  1.
          2   -1    0    0  501    0  0.00000000000E+00 -0.00000000000E+00 -0.28403549251E+02  0.28403549370E+02  0.26000000000E-02 0. -1.
       1023    2    1    2    0    0  0.00000000000E+00  0.00000000000E+00 -0.24881981911E+02  0.31925117670E+02  0.20002502704E+02 0.  0.
        -13    1    3    3    0    0 -0.94073409744E+01 -0.33929842222E+01 -0.12347244155E+02  0.15889493915E+02  0.10570000000E+00 0. -1.
         13    1    3    3    0    0  0.94073409744E+01  0.33929842222E+01 -0.12534737756E+02  0.16035623756E+02  0.10570000000E+00 0.  1.
<mgrwt>
<rscale>  0 0.20002503E+02</rscale>
<asrwt>0</asrwt>
<pdfrwt beam="2">  1        2 0.43697767E-02 0.20002503E+02</pdfrwt>
<pdfrwt beam="1">  1       -2 0.54177969E-03 0.20002503E+02</pdfrwt>
<totfact> 0.43105697E+06</totfact>
</mgrwt>
</event>
<event>
 5    1  0.1607476E-006  0.2000373E+02  0.7818608E-02  0.1745254E+00
         -2   -1    0    0    0  501 -0.00000000000E+00  0.00000000000E+00  0.36789243891E+02  0.36789243983E+02  0.26000000000E-02 0.  1.
          2   -1    0    0  501    0  0.00000000000E+00 -0.00000000000E+00 -0.27191979989E+01  0.27191992419E+01  0.26000000000E-02 0. -1.
       1023    2    1    2    0    0  0.00000000000E+00  0.00000000000E+00  0.34070045892E+02  0.39508443225E+02  0.20003726127E+02 0.  0.
        -13    1    3    3    0    0  0.15449564052E+00 -0.99997274850E+01  0.16862010325E+02  0.19605024442E+02  0.10570000000E+00 0. -1.
         13    1    3    3    0    0 -0.15449564052E+00  0.99997274850E+01  0.17208035567E+02  0.19903418782E+02  0.10570000000E+00 0.  1.
<mgrwt>
<rscale>  0 0.20003726E+02</rscale>
<asrwt>0</asrwt>
<pdfrwt beam="2">  1        2 0.41833826E-03 0.20003726E+02</pdfrwt>
<pdfrwt beam="1">  1       -2 0.56598838E-02 0.20003726E+02</pdfrwt>
<totfact> 0.35256993E+06</totfact>
</mgrwt>
</event>
<event>
 4    1  0.1607476E-006  0.2045510E+02  0.7818608E-02  0.1736426E+00
         -2   -1    0    0    0  501 -0.00000000000E+00  0.00000000000E+00  0.66602107999E+01  0.66602113074E+01  0.26000000000E-02 0. -1.
          2   -1    0    0  501    0  0.00000000000E+00 -0.00000000000E+00 -0.15705618906E+02  0.15705619121E+02  0.26000000000E-02 0.  1.
        -13    1    1    2    0    0  0.94646647797E+01  0.38205199592E+01 -0.52273531199E+01  0.11467896288E+02  0.10570000000E+00 0.  1.
         13    1    1    2    0    0 -0.94646647797E+01 -0.38205199592E+01 -0.38180549859E+01  0.10897934140E+02  0.10570000000E+00 0. -1.
<mgrwt>
<rscale>  0 0.20455096E+02</rscale>
<asrwt>0</asrwt>
<pdfrwt beam="2">  1        2 0.24162491E-02 0.20455096E+02</pdfrwt>
<pdfrwt beam="1">  1       -2 0.10246479E-02 0.20455096E+02</pdfrwt>
<totfact> 0.38805579E+06</totfact>
</mgrwt>
</event>
<event>
 5    1  0.1607476E-006  0.2000255E+02  0.7818608E-02  0.1745277E+00
          2   -1    0    0  501    0  0.00000000000E+00  0.00000000000E+00  0.13392044692E+01  0.13392069931E+01  0.26000000000E-02 0.  1.
         -2   -1    0    0    0  501 -0.00000000000E+00 -0.00000000000E+00 -0.74690168431E+02  0.74690168476E+02  0.26000000000E-02 0. -1.
       1023    2    1    2    0    0  0.00000000000E+00  0.00000000000E+00 -0.73350963961E+02  0.76029375469E+02  0.20002550341E+02 0.  0.
        -13    1    3    3    0    0  0.99922695892E+01  0.40685036615E+00 -0.36895603941E+02  0.38227055098E+02  0.10570000000E+00 0.  1.
         13    1    3    3    0    0 -0.99922695892E+01 -0.40685036615E+00 -0.36455360020E+02  0.37802320371E+02  0.10570000000E+00 0. -1.
<mgrwt>
<rscale>  0 0.20002550E+02</rscale>
<asrwt>0</asrwt>
<pdfrwt beam="1">  1        2 0.20603171E-03 0.20002550E+02</pdfrwt>
<pdfrwt beam="2">  1       -2 0.11490792E-01 0.20002550E+02</pdfrwt>
<totfact> 0.31681396E+06</totfact>
</mgrwt>
</event>
<event>
 4    1  0.2088012E-006  0.2003371E+02  0.7818608E-02  0.1744659E+00
          2   -1    0    0  501    0  0.00000000000E+00  0.00000000000E+00  0.11491051009E+03  0.11491051012E+03  0.26000000000E-02 0.  1.
         -2   -1    0    0    0  501 -0.00000000000E+00 -0.00000000000E+00 -0.87317645251E+00  0.87318032342E+00  0.26000000000E-02 0. -1.
        -13    1    1    2    0    0  0.71078337563E+01  0.70535724554E+01  0.55700500381E+02  0.56593560591E+02  0.10570000000E+00 0.  1.
         13    1    1    2    0    0 -0.71078337563E+01 -0.70535724554E+01  0.58336833256E+02  0.59190129852E+02  0.10570000000E+00 0. -1.
<mgrwt>
<rscale>  0 0.20033709E+02</rscale>
<asrwt>0</asrwt>
<pdfrwt beam="1">  1        2 0.17678528E-01 0.20033709E+02</pdfrwt>
<pdfrwt beam="2">  1       -2 0.13433524E-03 0.20033709E+02</pdfrwt>
<totfact> 0.54307188E+06</totfact>
</mgrwt>
</event>
<event>
 5    1  0.1607476E-006  0.2000367E+02  0.7818608E-02  0.1745255E+00
         -2   -1    0    0    0  501 -0.00000000000E+00  0.00000000000E+00  0.53567730663E+01  0.53567736972E+01  0.26000000000E-02 0. -1.
          2   -1    0    0  501    0  0.00000000000E+00 -0.00000000000E+00 -0.18674812610E+02  0.18674812791E+02  0.26000000000E-02 0.  1.
       1023    2    1    2    0    0  0.00000000000E+00  0.00000000000E+00 -0.13318039543E+02  0.24031586488E+02  0.20003673959E+02 0.  0.
        -13    1    3    3    0    0 -0.18386494653E+01  0.98297201620E+01 -0.68353379345E+01  0.12113506820E+02  0.10570000000E+00 0.  1.
         13    1    3    3    0    0  0.18386494653E+01 -0.98297201620E+01 -0.64827016089E+01  0.11918079667E+02  0.10570000000E+00 0. -1.
<mgrwt>
<rscale>  0 0.20003674E+02</rscale>
<asrwt>0</asrwt>
<pdfrwt beam="2">  1        2 0.28730481E-02 0.20003674E+02</pdfrwt>
<pdfrwt beam="1">  1       -2 0.82411900E-03 0.20003674E+02</pdfrwt>
<totfact> 0.41412682E+06</totfact>
</mgrwt>
</event>
<event>
 4    1  0.1607476E-006  0.2151063E+02  0.7818608E-02  0.1716855E+00
          2   -1    0    0  501    0  0.00000000000E+00  0.00000000000E+00  0.77046500799E+01  0.77046505186E+01  0.26000000000E-02 0. -1.
         -2   -1    0    0    0  501 -0.00000000000E+00 -0.00000000000E+00 -0.15013889463E+02  0.15013889689E+02  0.26000000000E-02 0.  1.
        -13    1    1    2    0    0  0.37649658842E+01 -0.99571014675E+01 -0.20366817275E+01  0.10838730677E+02  0.10570000000E+00 0.  1.
         13    1    1    2    0    0 -0.37649658842E+01  0.99571014675E+01 -0.52725576561E+01  0.11879809530E+02  0.10570000000E+00 0. -1.
<mgrwt>
<rscale>  0 0.21510627E+02</rscale>
<asrwt>0</asrwt>
<pdfrwt beam="1">  1        2 0.11853308E-02 0.21510627E+02</pdfrwt>
<pdfrwt beam="2">  1       -2 0.23098292E-02 0.21510627E+02</pdfrwt>
<totfact> 0.32692971E+06</totfact>
</mgrwt>
</event>
<event>
 5    1  0.1607476E-006  0.2000117E+02  0.7818608E-02  0.1745305E+00
          2   -1    0    0  501    0  0.00000000000E+00  0.00000000000E+00  0.44723340709E+02  0.44723340784E+02  0.26000000000E-02 0. -1.
         -2   -1    0    0    0  501 -0.00000000000E+00 -0.00000000000E+00 -0.22362300499E+01  0.22362315614E+01  0.26000000000E-02 0.  1.
       1023    2    1    2    0    0  0.00000000000E+00  0.00000000000E+00  0.42487110659E+02  0.46959572346E+02  0.20001171534E+02 0.  0.
        -13    1    3    3    0    0 -0.99965143320E+01  0.26448515359E+00  0.21203434668E+02  0.23443486631E+02  0.10570000000E+00 0.  1.
         13    1    3    3    0    0  0.99965143320E+01 -0.26448515359E+00  0.21283675991E+02  0.23516085715E+02  0.10570000000E+00 0. -1.
<mgrwt>
<rscale>  0 0.20001172E+02</rscale>
<asrwt>0</asrwt>
<pdfrwt beam="1">  1        2 0.68805142E-02 0.20001172E+02</pdfrwt>
<pdfrwt beam="2">  1       -2 0.34403551E-03 0.20001172E+02</pdfrwt>
<totfact> 0.45575752E+06</totfact>
</mgrwt>
</event>
<event>
 5    1  0.1607476E-006  0.2000381E+02  0.7818608E-02  0.1745252E+00
         -2   -1    0    0    0  501 -0.00000000000E+00  0.00000000000E+00  0.22321905959E+01  0.22321921101E+01  0.26000000000E-02 0. -1.
          2   -1    0    0  501    0  0.00000000000E+00 -0.00000000000E+00 -0.44816088527E+02  0.44816088602E+02  0.26000000000E-02 0.  1.
       1023    2    1    2    0    0  0.00000000000E+00  0.00000000000E+00 -0.42583897931E+02  0.47048280712E+02  0.20003808512E+02 0.  0.
        -13    1    3    3    0    0  0.74824377617E+01 -0.66343903083E+01 -0.21663132442E+02  0.23860102458E+02  0.10570000000E+00 0.  1.
         13    1    3    3    0    0 -0.74824377617E+01  0.66343903083E+01 -0.20920765489E+02  0.23188178254E+02  0.10570000000E+00 0. -1.
<mgrwt>
<rscale>  0 0.20003809E+02</rscale>
<asrwt>0</asrwt>
<pdfrwt beam="2">  1        2 0.68947823E-02 0.20003809E+02</pdfrwt>
<pdfrwt beam="1">  1       -2 0.34341410E-03 0.20003809E+02</pdfrwt>
<totfact> 0.45575632E+06</totfact>
</mgrwt>
</event>
<event>
 4    1  0.1607476E-006  0.2005373E+02  0.7818608E-02  0.1744262E+00
         -2   -1    0    0    0  501 -0.00000000000E+00  0.00000000000E+00  0.96969651344E+00  0.96969999906E+00  0.26000000000E-02 0.  1.
          2   -1    0    0  501    0  0.00000000000E+00 -0.00000000000E+00 -0.10367973010E+03  0.10367973013E+03  0.26000000000E-02 0. -1.
        -13    1    1    2    0    0  0.10017973620E+02  0.27043050588E+00 -0.52954591448E+02  0.53894645894E+02  0.10570000000E+00 0. -1.
         13    1    1    2    0    0 -0.10017973620E+02 -0.27043050588E+00 -0.49755442135E+02  0.50754784234E+02  0.10570000000E+00 0.  1.
<mgrwt>
<rscale>  0 0.20053734E+02</rscale>
<asrwt>0</asrwt>
<pdfrwt beam="2">  1        2 0.15950719E-01 0.20053734E+02</pdfrwt>
<pdfrwt beam="1">  1       -2 0.14918443E-03 0.20053734E+02</pdfrwt>
<totfact> 0.52882567E+06</totfact>
</mgrwt>
</event>
<event>
 5    1  0.1607476E-006  0.2000396E+02  0.7818608E-02  0.1745249E+00
         -2   -1    0    0    0  501 -0.00000000000E+00  0.00000000000E+00  0.53649022924E+01  0.53649029225E+01  0.26000000000E-02 0.  1.
          2   -1    0    0  501    0  0.00000000000E+00 -0.00000000000E+00 -0.18647056206E+02  0.18647056388E+02  0.26000000000E-02 0. -1.
       1023    2    1    2    0    0  0.00000000000E+00  0.00000000000E+00 -0.13282153914E+02  0.24011959310E+02  0.20003964040E+02 0.  0.
        -13    1    3    3    0    0  0.43337840506E+01  0.90127737396E+01 -0.67961844721E+01  0.12091776981E+02  0.10570000000E+00 0.  1.
         13    1    3    3    0    0 -0.43337840506E+01 -0.90127737396E+01 -0.64859694418E+01  0.11920182330E+02  0.10570000000E+00 0. -1.
<mgrwt>
<rscale>  0 0.20003964E+02</rscale>
<asrwt>0</asrwt>
<pdfrwt beam="2">  1        2 0.28687779E-02 0.20003964E+02</pdfrwt>
<pdfrwt beam="1">  1       -2 0.82536966E-03 0.20003964E+02</pdfrwt>
<totfact> 0.41406036E+06</totfact>
</mgrwt>
</event>
<event>
 5    1  0.1607476E-006  0.2000863E+02  0.7818608E-02  0.1745157E+00
         -2   -1    0    0    0  501 -0.00000000000E+00  0.00000000000E+00  0.36482399525E+02  0.36482399618E+02  0.26000000000E-02 0. -1.
          2   -1    0    0  501    0  0.00000000000E+00 -0.00000000000E+00 -0.27434132814E+01  0.27434145135E+01  0.26000000000E-02 0.  1.
       1023    2    1    2    0    0  0.00000000000E+00  0.00000000000E+00  0.33738986244E+02  0.39225814131E+02  0.20008630675E+02 0.  0.
        -13    1    3    3    0    0  0.99817938063E+01 -0.60782511643E+00  0.16352686569E+02  0.19168390372E+02  0.10570000000E+00 0.  1.
         13    1    3    3    0    0 -0.99817938063E+01  0.60782511643E+00  0.17386299675E+02  0.20057423759E+02  0.10570000000E+00 0. -1.
<mgrwt>
<rscale>  0 0.20008631E+02</rscale>
<asrwt>0</asrwt>
<pdfrwt beam="2">  1        2 0.42206372E-03 0.20008631E+02</pdfrwt>
<pdfrwt beam="1">  1       -2 0.56126765E-02 0.20008631E+02</pdfrwt>
<totfact> 0.35272343E+06</totfact>
</mgrwt>
</event>
<event>
 5    1  0.1607476E-006  0.2000171E+02  0.7818608E-02  0.1745294E+00
          2   -1    0    0  501    0  0.00000000000E+00  0.00000000000E+00  0.14828348858E+02  0.14828349086E+02  0.26000000000E-02 0. -1.
         -2   -1    0    0    0  501 -0.00000000000E+00 -0.00000000000E+00 -0.67449915753E+01  0.67449920764E+01  0.26000000000E-02 0.  1.
       1023    2    1    2    0    0  0.00000000000E+00  0.00000000000E+00  0.80833572828E+01  0.21573341162E+02  0.20001709526E+02 0.  0.
        -13    1    3    3    0    0  0.81725498671E+01 -0.57629615250E+01  0.41066320382E+01  0.10811008096E+02  0.10570000000E+00 0. -1.
         13    1    3    3    0    0 -0.81725498671E+01  0.57629615250E+01  0.39767252446E+01  0.10762333066E+02  0.10570000000E+00 0.  1.
<mgrwt>
<rscale>  0 0.20001710E+02</rscale>
<asrwt>0</asrwt>
<pdfrwt beam="1">  1        2 0.22812844E-02 0.20001710E+02</pdfrwt>
<pdfrwt beam="2">  1       -2 0.10376911E-02 0.20001710E+02</pdfrwt>
<totfact> 0.40644758E+06</totfact>
</mgrwt>
</event>
<event>
 5    1  0.1607476E-006  0.2000587E+02  0.7818608E-02  0.1745211E+00
         -2   -1    0    0    0  501 -0.00000000000E+00  0.00000000000E+00  0.48698279549E+01  0.48698286490E+01  0.26000000000E-02 0. -1.
          2   -1    0    0  501    0  0.00000000000E+00 -0.00000000000E+00 -0.20546665535E+02  0.20546665700E+02  0.26000000000E-02 0.  1.
       1023    2    1    2    0    0  0.00000000000E+00  0.00000000000E+00 -0.15676837581E+02  0.25416494349E+02  0.20005872849E+02 0.  0.
        -13    1    3    3    0    0  0.94970695930E+01  0.31375212006E+01 -0.79602397257E+01  0.12783386058E+02  0.10570000000E+00 0.  1.
         13    1    3    3    0    0 -0.94970695930E+01 -0.31375212006E+01 -0.77165978549E+01  0.12633108291E+02  0.10570000000E+00 0. -1.
<mgrwt>
<rscale>  0 0.20005873E+02</rscale>
<asrwt>0</asrwt>
<pdfrwt beam="2">  1        2 0.31610255E-02 0.20005873E+02</pdfrwt>
<pdfrwt beam="1">  1       -2 0.74920438E-03 0.20005873E+02</pdfrwt>
<totfact> 0.41750494E+06</totfact>
</mgrwt>
</event>
<event>
 5    1  0.1607476E-006  0.2001085E+02  0.7818608E-02  0.1745112E+00
         -2   -1    0    0    0  501 -0.00000000000E+00  0.00000000000E+00  0.10549038635E+01  0.10549070676E+01  0.26000000000E-02 0. -1.
          2   -1    0    0  501    0  0.00000000000E+00 -0.00000000000E+00 -0.94898144158E+02  0.94898144194E+02  0.26000000000E-02 0.  1.
       1023    2    1    2    0    0  0.00000000000E+00  0.00000000000E+00 -0.93843240295E+02  0.95953051262E+02  0.20010854489E+02 0.  0.
        -13    1    3    3    0    0 -0.24803328130E+01  0.96918998890E+01 -0.47456166798E+02  0.48499318696E+02  0.10570000000E+00 0.  1.
         13    1    3    3    0    0  0.24803328130E+01 -0.96918998890E+01 -0.46387073497E+02  0.47453732566E+02  0.10570000000E+00 0. -1.
<mgrwt>
<rscale>  0 0.20010854E+02</rscale>
<asrwt>0</asrwt>
<pdfrwt beam="2">  1        2 0.14599708E-01 0.20010854E+02</pdfrwt>
<pdfrwt beam="1">  1       -2 0.16229323E-03 0.20010854E+02</pdfrwt>
<totfact> 0.52080513E+06</totfact>
</mgrwt>
</event>
<event>
 5    1  0.1607476E-006  0.2000894E+02  0.7818608E-02  0.1745150E+00
          2   -1    0    0  501    0  0.00000000000E+00  0.00000000000E+00  0.51200420961E+02  0.51200421027E+02  0.26000000000E-02 0. -1.
         -2   -1    0    0    0  501 -0.00000000000E+00 -0.00000000000E+00 -0.19548535647E+01  0.19548552938E+01  0.26000000000E-02 0.  1.
       1023    2    1    2    0    0  0.00000000000E+00  0.00000000000E+00  0.49245567397E+02  0.53155276321E+02  0.20008935318E+02 0.  0.
        -13    1    3    3    0    0 -0.31780438873E+00 -0.99965100691E+01  0.25198639016E+02  0.27111137821E+02  0.10570000000E+00 0. -1.
         13    1    3    3    0    0  0.31780438873E+00  0.99965100691E+01  0.24046928380E+02  0.26044138500E+02  0.10570000000E+00 0.  1.
<mgrwt>
<rscale>  0 0.20008935E+02</rscale>
<asrwt>0</asrwt>
<pdfrwt beam="1">  1        2 0.78769876E-02 0.20008935E+02</pdfrwt>
<pdfrwt beam="2">  1       -2 0.30074685E-03 0.20008935E+02</pdfrwt>
<totfact> 0.46449200E+06</totfact>
</mgrwt>
</event>
<event>
 5    1  0.1607476E-006  0.2000136E+02  0.7818608E-02  0.1745301E+00
         -2   -1    0    0    0  501 -0.00000000000E+00  0.00000000000E+00  0.10998703797E+02  0.10998704104E+02  0.26000000000E-02 0. -1.
          2   -1    0    0  501    0  0.00000000000E+00 -0.00000000000E+00 -0.90932181717E+01  0.90932185434E+01  0.26000000000E-02 0.  1.
       1023    2    1    2    0    0  0.00000000000E+00  0.00000000000E+00  0.19054856251E+01  0.20091922647E+02  0.20001361959E+02 0.  0.
        -13    1    3    3    0    0  0.66089412724E+01  0.75049541783E+01  0.95512025152E+00  0.10046186796E+02  0.10570000000E+00 0. -1.
         13    1    3    3    0    0 -0.66089412724E+01 -0.75049541783E+01  0.95036537353E+00  0.10045735851E+02  0.10570000000E+00 0.  1.
<mgrwt>
<rscale>  0 0.20001362E+02</rscale>
<asrwt>0</asrwt>
<pdfrwt beam="2">  1        2 0.13989567E-02 0.20001362E+02</pdfrwt>
<pdfrwt beam="1">  1       -2 0.16921083E-02 0.20001362E+02</pdfrwt>
<totfact> 0.39183565E+06</totfact>
</mgrwt>
</event>
<event>
 5    1  0.1607476E-006  0.2000441E+02  0.7818608E-02  0.1745240E+00
         -2   -1    0    0    0  501 -0.00000000000E+00  0.00000000000E+00  0.46392990223E+02  0.46392990296E+02  0.26000000000E-02 0.  1.
          2   -1    0    0  501    0  0.00000000000E+00 -0.00000000000E+00 -0.21564482294E+01  0.21564497968E+01  0.26000000000E-02 0. -1.
       1023    2    1    2    0    0  0.00000000000E+00  0.00000000000E+00  0.44236541993E+02  0.48549440092E+02  0.20004411657E+02 0.  0.
        -13    1    3    3    0    0 -0.36296682017E+01 -0.93192995984E+01  0.21886594641E+02  0.24063624700E+02  0.10570000000E+00 0.  1.
         13    1    3    3    0    0  0.36296682017E+01  0.93192995984E+01  0.22349947353E+02  0.24485815392E+02  0.10570000000E+00 0. -1.
<mgrwt>
<rscale>  0 0.20004412E+02</rscale>
<asrwt>0</asrwt>
<pdfrwt beam="2">  1        2 0.33176142E-03 0.20004412E+02</pdfrwt>
<pdfrwt beam="1">  1       -2 0.71373827E-02 0.20004412E+02</pdfrwt>
<totfact> 0.34239636E+06</totfact>
</mgrwt>
</event>
<event>
 5    1  0.1607476E-006  0.2000173E+02  0.7818608E-02  0.1745294E+00
         -2   -1    0    0    0  501 -0.00000000000E+00  0.00000000000E+00  0.45800593093E+02  0.45800593167E+02  0.26000000000E-02 0. -1.
          2   -1    0    0  501    0  0.00000000000E+00 -0.00000000000E+00 -0.21837554255E+01  0.21837569733E+01  0.26000000000E-02 0.  1.
       1023    2    1    2    0    0  0.00000000000E+00  0.00000000000E+00  0.43616837668E+02  0.47984350141E+02  0.20001733181E+02 0.  0.
        -13    1    3    3    0    0 -0.88099461927E+01  0.47316487681E+01  0.21688274340E+02  0.23882966070E+02  0.10570000000E+00 0.  1.
         13    1    3    3    0    0  0.88099461927E+01 -0.47316487681E+01  0.21928563328E+02  0.24101384071E+02  0.10570000000E+00 0. -1.
<mgrwt>
<rscale>  0 0.20001733E+02</rscale>
<asrwt>0</asrwt>
<pdfrwt beam="2">  1        2 0.33596255E-03 0.20001733E+02</pdfrwt>
<pdfrwt beam="1">  1       -2 0.70462442E-02 0.20001733E+02</pdfrwt>
<totfact> 0.34309466E+06</totfact>
</mgrwt>
</event>
<event>
 4    1  0.1607476E-006  0.2015378E+02  0.7818608E-02  0.1742287E+00
          2   -1    0    0  501    0  0.00000000000E+00  0.00000000000E+00  0.84286925635E+01  0.84286929645E+01  0.26000000000E-02 0.  1.
         -2   -1    0    0    0  501 -0.00000000000E+00 -0.00000000000E+00 -0.12047389092E+02  0.12047389373E+02  0.26000000000E-02 0. -1.
        -13    1    1    2    0    0  0.72595130504E+01  0.69867513519E+01 -0.16755256590E+01  0.10214390971E+02  0.10570000000E+00 0. -1.
         13    1    1    2    0    0 -0.72595130504E+01 -0.69867513519E+01 -0.19431708698E+01  0.10261691367E+02  0.10570000000E+00 0.  1.
<mgrwt>
<rscale>  0 0.20153783E+02</rscale>
<asrwt>0</asrwt>
<pdfrwt beam="1">  1        2 0.12967220E-02 0.20153783E+02</pdfrwt>
<pdfrwt beam="2">  1       -2 0.18534445E-02 0.20153783E+02</pdfrwt>
<totfact> 0.38292973E+06</totfact>
</mgrwt>
</event>
<event>
 4    1  0.1607476E-006  0.2001295E+02  0.7818608E-02  0.1745071E+00
          2   -1    0    0  501    0  0.00000000000E+00  0.00000000000E+00  0.21454329718E+02  0.21454329876E+02  0.26000000000E-02 0.  1.
         -2   -1    0    0    0  501 -0.00000000000E+00 -0.00000000000E+00 -0.46671013176E+01  0.46671020418E+01  0.26000000000E-02 0. -1.
        -13    1    1    2    0    0 -0.94173391145E+01 -0.33659553435E+01  0.79758639375E+01  0.12792244112E+02  0.10570000000E+00 0. -1.
         13    1    1    2    0    0  0.94173391145E+01  0.33659553435E+01  0.88113644631E+01  0.13329187806E+02  0.10570000000E+00 0.  1.
<mgrwt>
<rscale>  0 0.20012950E+02</rscale>
<asrwt>0</asrwt>
<pdfrwt beam="1">  1        2 0.33006661E-02 0.20012950E+02</pdfrwt>
<pdfrwt beam="2">  1       -2 0.71801567E-03 0.20012950E+02</pdfrwt>
<totfact> 0.41880785E+06</totfact>
</mgrwt>
</event>
<event>
 5    1  0.1679822E-006  0.2000169E+02  0.7818608E-02  0.1745295E+00
          2   -1    0    0  501    0  0.00000000000E+00  0.00000000000E+00  0.10104989844E+03  0.10104989847E+03  0.26000000000E-02 0. -1.
         -2   -1    0    0    0  501 -0.00000000000E+00 -0.00000000000E+00 -0.98977547155E+00  0.98977888646E+00  0.26000000000E-02 0.  1.
       1023    2    1    2    0    0  0.00000000000E+00  0.00000000000E+00  0.10006012296E+03  0.10203967736E+03  0.20001688610E+02 0.  0.
        -13    1    3    3    0    0  0.40301587589E+01 -0.91519564759E+01  0.50398906285E+02  0.51381527947E+02  0.10570000000E+00 0. -1.
         13    1    3    3    0    0 -0.40301587589E+01  0.91519564759E+01  0.49661216679E+02  0.50658149409E+02  0.10570000000E+00 0.  1.
<mgrwt>
<rscale>  0 0.20001689E+02</rscale>
<asrwt>0</asrwt>
<pdfrwt beam="1">  1        2 0.15546131E-01 0.20001689E+02</pdfrwt>
<pdfrwt beam="2">  1       -2 0.15227349E-03 0.20001689E+02</pdfrwt>
<totfact> 0.52873657E+06</totfact>
</mgrwt>
</event>
<event>
 5    1  0.1607476E-006  0.2000244E+02  0.7818608E-02  0.1745279E+00
          2   -1    0    0  501    0  0.00000000000E+00  0.00000000000E+00  0.99001639712E+00  0.99001981120E+00  0.26000000000E-02 0.  1.
         -2   -1    0    0    0  501 -0.00000000000E+00 -0.00000000000E+00 -0.10103294292E+03  0.10103294295E+03  0.26000000000E-02 0. -1.
       1023    2    1    2    0    0  0.00000000000E+00  0.00000000000E+00 -0.10004292652E+03  0.10202296276E+03  0.20002444451E+02 0.  0.
        -13    1    3    3    0    0  0.30466843791E+01 -0.95249744244E+01 -0.49631347435E+02  0.50628936826E+02  0.10570000000E+00 0. -1.
         13    1    3    3    0    0 -0.30466843791E+01  0.95249744244E+01 -0.50411579087E+02  0.51394025937E+02  0.10570000000E+00 0.  1.
<mgrwt>
<rscale>  0 0.20002444E+02</rscale>
<asrwt>0</asrwt>
<pdfrwt beam="1">  1        2 0.15231056E-03 0.20002444E+02</pdfrwt>
<pdfrwt beam="2">  1       -2 0.15543522E-01 0.20002444E+02</pdfrwt>
<totfact> 0.29647972E+06</totfact>
</mgrwt>
</event>
<event>
 5    1  0.1607476E-006  0.2000378E+02  0.7818608E-02  0.1745253E+00
          2   -1    0    0  501    0  0.00000000000E+00  0.00000000000E+00  0.51959751363E+02  0.51959751428E+02  0.26000000000E-02 0.  1.
         -2   -1    0    0    0  501 -0.00000000000E+00 -0.00000000000E+00 -0.19252926690E+01  0.19252944246E+01  0.26000000000E-02 0. -1.
       1023    2    1    2    0    0  0.00000000000E+00  0.00000000000E+00  0.50034458694E+02  0.53885045852E+02  0.20003777387E+02 0.  0.
        -13    1    3    3    0    0 -0.28458586437E+01  0.95878283412E+01  0.24922326008E+02  0.26854401313E+02  0.10570000000E+00 0.  1.
         13    1    3    3    0    0  0.28458586437E+01 -0.95878283412E+01  0.25112132686E+02  0.27030644540E+02  0.10570000000E+00 0. -1.
<mgrwt>
<rscale>  0 0.20003777E+02</rscale>
<asrwt>0</asrwt>
<pdfrwt beam="1">  1        2 0.79938086E-02 0.20003777E+02</pdfrwt>
<pdfrwt beam="2">  1       -2 0.29619899E-03 0.20003777E+02</pdfrwt>
<totfact> 0.46581221E+06</totfact>
</mgrwt>
</event>
<event>
 5    1  0.1607476E-006  0.2000442E+02  0.7818608E-02  0.1745240E+00
          2   -1    0    0  501    0  0.00000000000E+00  0.00000000000E+00  0.33771840063E+01  0.33771850071E+01  0.26000000000E-02 0.  1.
         -2   -1    0    0    0  501 -0.00000000000E+00 -0.00000000000E+00 -0.29623550633E+02  0.29623550748E+02  0.26000000000E-02 0. -1.
       1023    2    1    2    0    0  0.00000000000E+00  0.00000000000E+00 -0.26246366627E+02  0.33000735755E+02  0.20004419492E+02 0.  0.
        -13    1    3    3    0    0 -0.45896521520E+01  0.88860127870E+01 -0.12986179165E+02  0.16391404818E+02  0.10570000000E+00 0. -1.
         13    1    3    3    0    0  0.45896521520E+01 -0.88860127870E+01 -0.13260187462E+02  0.16609330936E+02  0.10570000000E+00 0.  1.
<mgrwt>
<rscale>  0 0.20004419E+02</rscale>
<asrwt>0</asrwt>
<pdfrwt beam="1">  1        2 0.51956687E-03 0.20004419E+02</pdfrwt>
<pdfrwt beam="2">  1       -2 0.45574693E-02 0.20004419E+02</pdfrwt>
<totfact> 0.36093417E+06</totfact>
</mgrwt>
</event>
<event>
 5    1  0.1607476E-006  0.2000822E+02  0.7818608E-02  0.1745165E+00
          2   -1    0    0  501    0  0.00000000000E+00  0.00000000000E+00  0.22867452568E+01  0.22867467348E+01  0.26000000000E-02 0. -1.
         -2   -1    0    0    0  501 -0.00000000000E+00 -0.00000000000E+00 -0.43766217283E+02  0.43766217361E+02  0.26000000000E-02 0.  1.
       1023    2    1    2    0    0  0.00000000000E+00  0.00000000000E+00 -0.41479472027E+02  0.46052964095E+02  0.20008220870E+02 0.  0.
        -13    1    3    3    0    0 -0.88229950094E+01 -0.47143935724E+01 -0.20699511392E+02  0.22990252109E+02  0.10570000000E+00 0.  1.
         13    1    3    3    0    0  0.88229950094E+01  0.47143935724E+01 -0.20779960635E+02  0.23062711986E+02  0.10570000000E+00 0. -1.
<mgrwt>
<rscale>  0 0.20008221E+02</rscale>
<asrwt>0</asrwt>
<pdfrwt beam="1">  1        2 0.35180712E-03 0.20008221E+02</pdfrwt>
<pdfrwt beam="2">  1       -2 0.67332637E-02 0.20008221E+02</pdfrwt>
<totfact> 0.34493003E+06</totfact>
</mgrwt>
</event>
<event>
 5    1  0.1607476E-006  0.2000265E+02  0.7818608E-02  0.1745275E+00
          2   -1    0    0  501    0  0.00000000000E+00  0.00000000000E+00  0.88409838163E+01  0.88409841986E+01  0.26000000000E-02 0.  1.
         -2   -1    0    0    0  501 -0.00000000000E+00 -0.00000000000E+00 -0.11313954793E+02  0.11313955092E+02  0.26000000000E-02 0. -1.
       1023    2    1    2    0    0  0.00000000000E+00  0.00000000000E+00 -0.24729709766E+01  0.20154939290E+02  0.20002649633E+02 0.  0.
        -13    1    3    3    0    0  0.79427190102E+01  0.60761757342E+01 -0.13300838800E+01  0.10088953982E+02  0.10570000000E+00 0. -1.
         13    1    3    3    0    0 -0.79427190102E+01 -0.60761757342E+01 -0.11428870966E+01  0.10065985309E+02  0.10570000000E+00 0.  1.
<mgrwt>
<rscale>  0 0.20002650E+02</rscale>
<asrwt>0</asrwt>
<pdfrwt beam="1">  1        2 0.13601514E-02 0.20002650E+02</pdfrwt>
<pdfrwt beam="2">  1       -2 0.17406085E-02 0.20002650E+02</pdfrwt>
<totfact> 0.39097205E+06</totfact>
</mgrwt>
</event>
<event>
 5    1  0.1607476E-006  0.2000210E+02  0.7818608E-02  0.1745286E+00
          2   -1    0    0  501    0  0.00000000000E+00  0.00000000000E+00  0.58472957991E+01  0.58472963771E+01  0.26000000000E-02 0. -1.
         -2   -1    0    0    0  501 -0.00000000000E+00 -0.00000000000E+00 -0.17105516535E+02  0.17105516733E+02  0.26000000000E-02 0.  1.
       1023    2    1    2    0    0  0.00000000000E+00  0.00000000000E+00 -0.11258220736E+02  0.22952813110E+02  0.20002102277E+02 0.  0.
        -13    1    3    3    0    0  0.99471281823E+01 -0.10317282018E+01 -0.56229062640E+01  0.11473363478E+02  0.10570000000E+00 0. -1.
         13    1    3    3    0    0 -0.99471281823E+01  0.10317282018E+01 -0.56353144721E+01  0.11479449632E+02  0.10570000000E+00 0.  1.
<mgrwt>
<rscale>  0 0.20002102E+02</rscale>
<asrwt>0</asrwt>
<pdfrwt beam="1">  1        2 0.89958404E-03 0.20002102E+02</pdfrwt>
<pdfrwt beam="2">  1       -2 0.26316180E-02 0.20002102E+02</pdfrwt>
<totfact> 0.37902047E+06</totfact>
</mgrwt>
</event>
<event>
 5    1  0.1607476E-006  0.2000318E+02  0.7818608E-02  0.1745265E+00
          2   -1    0    0  501    0  0.00000000000E+00  0.00000000000E+00  0.12961888816E+01  0.12961914892E+01  0.26000000000E-02 0. -1.
         -2   -1    0    0    0  501 -0.00000000000E+00 -0.00000000000E+00 -0.77173698242E+02  0.77173698286E+02  0.26000000000E-02 0.  1.
       1023    2    1    2    0    0  0.00000000000E+00  0.00000000000E+00 -0.75877509361E+02  0.78469889775E+02  0.20003179112E+02 0.  0.
        -13    1    3    3    0    0 -0.99058284660E+00 -0.99515473311E+01 -0.37633060204E+02  0.38939349526E+02  0.10570000000E+00 0. -1.
         13    1    3    3    0    0  0.99058284660E+00  0.99515473311E+01 -0.38244449157E+02  0.39530540250E+02  0.10570000000E+00 0.  1.
<mgrwt>
<rscale>  0 0.20003179E+02</rscale>
<asrwt>0</asrwt>
<pdfrwt beam="1">  1        2 0.19941394E-03 0.20003179E+02</pdfrwt>
<pdfrwt beam="2">  1       -2 0.11872873E-01 0.20003179E+02</pdfrwt>
<totfact> 0.31475446E+06</totfact>
</mgrwt>
</event>
<event>
 4    1  0.1607476E-006  0.2009741E+02  0.7818608E-02  0.1743398E+00
         -2   -1    0    0    0  501 -0.00000000000E+00  0.00000000000E+00  0.50611194001E+02  0.50611194068E+02  0.26000000000E-02 0.  1.
          2   -1    0    0  501    0  0.00000000000E+00 -0.00000000000E+00 -0.19951409403E+01  0.19951426344E+01  0.26000000000E-02 0. -1.
        -13    1    1    2    0    0 -0.98630388728E+01 -0.18853095709E+01  0.25256911999E+02  0.27180079179E+02  0.10570000000E+00 0.  1.
         13    1    1    2    0    0  0.98630388728E+01  0.18853095709E+01  0.23359141062E+02  0.25426257523E+02  0.10570000000E+00 0. -1.
<mgrwt>
<rscale>  0 0.20097414E+02</rscale>
<asrwt>0</asrwt>
<pdfrwt beam="2">  1        2 0.30694491E-03 0.20097414E+02</pdfrwt>
<pdfrwt beam="1">  1       -2 0.77863373E-02 0.20097414E+02</pdfrwt>
<totfact> 0.33481748E+06</totfact>
</mgrwt>
</event>
<event>
 4    1  0.1607476E-006  0.2001805E+02  0.7818608E-02  0.1744969E+00
          2   -1    0    0  501    0  0.00000000000E+00  0.00000000000E+00  0.43651744103E+02  0.43651744180E+02  0.26000000000E-02 0.  1.
         -2   -1    0    0    0  501 -0.00000000000E+00 -0.00000000000E+00 -0.22949959932E+01  0.22949974660E+01  0.26000000000E-02 0. -1.
        -13    1    1    2    0    0 -0.77715773706E+01  0.63056299718E+01  0.20919723868E+02  0.23190610241E+02  0.10570000000E+00 0. -1.
         13    1    1    2    0    0  0.77715773706E+01 -0.63056299718E+01  0.20437024242E+02  0.22756131405E+02  0.10570000000E+00 0.  1.
<mgrwt>
<rscale>  0 0.20018053E+02</rscale>
<asrwt>0</asrwt>
<pdfrwt beam="1">  1        2 0.67156531E-02 0.20018053E+02</pdfrwt>
<pdfrwt beam="2">  1       -2 0.35307642E-03 0.20018053E+02</pdfrwt>
<totfact> 0.45336393E+06</totfact>
</mgrwt>
</event>
<event>
 5    1  0.1607476E-006  0.2000397E+02  0.7818608E-02  0.1745249E+00
         -2   -1    0    0    0  501 -0.00000000000E+00  0.00000000000E+00  0.40308375656E+01  0.40308384041E+01  0.26000000000E-02 0. -1.
          2   -1    0    0  501    0  0.00000000000E+00 -0.00000000000E+00 -0.24818577881E+02  0.24818578017E+02  0.26000000000E-02 0.  1.
       1023    2    1    2    0    0  0.00000000000E+00  0.00000000000E+00 -0.20787740315E+02  0.28849416421E+02  0.20003966617E+02 0.  0.
        -13    1    3    3    0    0  0.98763085341E+01  0.15756254882E+01 -0.10297862708E+02  0.14355529067E+02  0.10570000000E+00 0. -1.
         13    1    3    3    0    0 -0.98763085341E+01 -0.15756254882E+01 -0.10489877607E+02  0.14493887354E+02  0.10570000000E+00 0.  1.
<mgrwt>
<rscale>  0 0.20003967E+02</rscale>
<asrwt>0</asrwt>
<pdfrwt beam="2">  1        2 0.38182427E-02 0.20003967E+02</pdfrwt>
<pdfrwt beam="1">  1       -2 0.62012895E-03 0.20003967E+02</pdfrwt>
<totfact> 0.42507074E+06</totfact>
</mgrwt>
</event>
<event>
 5    1  0.1607476E-006  0.2000427E+02  0.7818608E-02  0.1745243E+00
         -2   -1    0    0    0  501 -0.00000000000E+00  0.00000000000E+00  0.11366587932E+03  0.11366587935E+03  0.26000000000E-02 0.  1.
          2   -1    0    0  501    0  0.00000000000E+00 -0.00000000000E+00 -0.88014484683E+00  0.88014868709E+00  0.26000000000E-02 0. -1.
       1023    2    1    2    0    0  0.00000000000E+00  0.00000000000E+00  0.11278573447E+03  0.11454602804E+03  0.20004265504E+02 0.  0.
        -13    1    3    3    0    0  0.99497318898E+01 -0.10033482176E+01  0.55441324781E+02  0.56336094453E+02  0.10570000000E+00 0. -1.
         13    1    3    3    0    0 -0.99497318898E+01  0.10033482176E+01  0.57344409691E+02  0.58209933582E+02  0.10570000000E+00 0.  1.
<mgrwt>
<rscale>  0 0.20004266E+02</rscale>
<asrwt>0</asrwt>
<pdfrwt beam="2">  1        2 0.13540709E-03 0.20004266E+02</pdfrwt>
<pdfrwt beam="1">  1       -2 0.17487073E-01 0.20004266E+02</pdfrwt>
<totfact> 0.28754494E+06</totfact>
</mgrwt>
</event>
<event>
 5    1  0.1607476E-006  0.2000386E+02  0.7818608E-02  0.1745251E+00
          2   -1    0    0  501    0  0.00000000000E+00  0.00000000000E+00  0.10353110477E+01  0.10353143124E+01  0.26000000000E-02 0.  1.
         -2   -1    0    0    0  501 -0.00000000000E+00 -0.00000000000E+00 -0.96626417373E+02  0.96626417408E+02  0.26000000000E-02 0. -1.
       1023    2    1    2    0    0  0.00000000000E+00  0.00000000000E+00 -0.95591106325E+02  0.97661731720E+02  0.20003855482E+02 0.  0.
        -13    1    3    3    0    0  0.65240616980E+01  0.75802430651E+01 -0.48101226794E+02  0.49130058595E+02  0.10570000000E+00 0.  1.
         13    1    3    3    0    0 -0.65240616980E+01 -0.75802430651E+01 -0.47489879531E+02  0.48531673125E+02  0.10570000000E+00 0. -1.
<mgrwt>
<rscale>  0 0.20003855E+02</rscale>
<asrwt>0</asrwt>
<pdfrwt beam="1">  1        2 0.15927895E-03 0.20003855E+02</pdfrwt>
<pdfrwt beam="2">  1       -2 0.14865596E-01 0.20003855E+02</pdfrwt>
<totfact> 0.29965262E+06</totfact>
</mgrwt>
</event>
<event>
 5    1  0.1607476E-006  0.2000352E+02  0.7818608E-02  0.1745258E+00
         -2   -1    0    0    0  501 -0.00000000000E+00  0.00000000000E+00  0.48918979911E+01  0.48918986821E+01  0.26000000000E-02 0.  1.
          2   -1    0    0  501    0  0.00000000000E+00 -0.00000000000E+00 -0.20449154921E+02  0.20449155087E+02  0.26000000000E-02 0. -1.
       1023    2    1    2    0    0  0.00000000000E+00  0.00000000000E+00 -0.15557256930E+02  0.25341053769E+02  0.20003518763E+02 0.  0.
        -13    1    3    3    0    0  0.16293962240E+01  0.98675732224E+01 -0.77669568526E+01  0.12663361505E+02  0.10570000000E+00 0. -1.
         13    1    3    3    0    0 -0.16293962240E+01 -0.98675732224E+01 -0.77903000775E+01  0.12677692264E+02  0.10570000000E+00 0.  1.
<mgrwt>
<rscale>  0 0.20003519E+02</rscale>
<asrwt>0</asrwt>
<pdfrwt beam="2">  1        2 0.31460239E-02 0.20003519E+02</pdfrwt>
<pdfrwt beam="1">  1       -2 0.75259977E-03 0.20003519E+02</pdfrwt>
<totfact> 0.41743796E+06</totfact>
</mgrwt>
</event>
<event>
 4    1  0.1607476E-006  0.2068467E+02  0.7818608E-02  0.1732046E+00
         -2   -1    0    0    0  501 -0.00000000000E+00  0.00000000000E+00  0.12281950262E+02  0.12281950537E+02  0.26000000000E-02 0. -1.
          2   -1    0    0  501    0  0.00000000000E+00 -0.00000000000E+00 -0.87090270910E+01  0.87090274791E+01  0.26000000000E-02 0.  1.
        -13    1    1    2    0    0  0.66237453172E+01  0.76201427101E+01  0.40583857289E+01  0.10882198499E+02  0.10570000000E+00 0.  1.
         13    1    1    2    0    0 -0.66237453172E+01 -0.76201427101E+01 -0.48546255793E+00  0.10108779518E+02  0.10570000000E+00 0. -1.
<mgrwt>
<rscale>  0 0.20684665E+02</rscale>
<asrwt>0</asrwt>
<pdfrwt beam="2">  1        2 0.13398504E-02 0.20684665E+02</pdfrwt>
<pdfrwt beam="1">  1       -2 0.18895308E-02 0.20684665E+02</pdfrwt>
<totfact> 0.36151479E+06</totfact>
</mgrwt>
</event>
<event>
 4    1  0.1607476E-006  0.2002718E+02  0.7818608E-02  0.1744788E+00
          2   -1    0    0  501    0  0.00000000000E+00  0.00000000000E+00  0.43690124593E+02  0.43690124670E+02  0.26000000000E-02 0.  1.
         -2   -1    0    0    0  501 -0.00000000000E+00 -0.00000000000E+00 -0.22950721610E+01  0.22950736337E+01  0.26000000000E-02 0. -1.
        -13    1    1    2    0    0 -0.95265916388E+01 -0.30585967974E+01  0.19808563925E+02  0.22192371209E+02  0.10570000000E+00 0.  1.
         13    1    1    2    0    0  0.95265916388E+01  0.30585967974E+01  0.21586488506E+02  0.23792827095E+02  0.10570000000E+00 0. -1.
<mgrwt>
<rscale>  0 0.20027184E+02</rscale>
<asrwt>0</asrwt>
<pdfrwt beam="1">  1        2 0.67215576E-02 0.20027184E+02</pdfrwt>
<pdfrwt beam="2">  1       -2 0.35308815E-03 0.20027184E+02</pdfrwt>
<totfact> 0.45295795E+06</totfact>
</mgrwt>
</event>
<event>
 5    1  0.1607476E-006  0.2000505E+02  0.7818608E-02  0.1745228E+00
         -2   -1    0    0    0  501 -0.00000000000E+00  0.00000000000E+00  0.22441105118E+01  0.22441120179E+01  0.26000000000E-02 0.  1.
          2   -1    0    0  501    0  0.00000000000E+00 -0.00000000000E+00 -0.44583595872E+02  0.44583595948E+02  0.26000000000E-02 0. -1.
       1023    2    1    2    0    0  0.00000000000E+00  0.00000000000E+00 -0.42339485360E+02  0.46827707966E+02  0.20005054680E+02 0.  0.
        -13    1    3    3    0    0  0.50234678532E+01  0.86475071950E+01 -0.21538153732E+02  0.23746954513E+02  0.10570000000E+00 0. -1.
         13    1    3    3    0    0 -0.50234678532E+01 -0.86475071950E+01 -0.20801331628E+02  0.23080753453E+02  0.10570000000E+00 0.  1.
<mgrwt>
<rscale>  0 0.20005055E+02</rscale>
<asrwt>0</asrwt>
<pdfrwt beam="2">  1        2 0.68590142E-02 0.20005055E+02</pdfrwt>
<pdfrwt beam="1">  1       -2 0.34524792E-03 0.20005055E+02</pdfrwt>
<totfact> 0.45536003E+06</totfact>
</mgrwt>
</event>
<event>
 5    1  0.1607476E-006  0.2000376E+02  0.7818608E-02  0.1745253E+00
          2   -1    0    0  501    0  0.00000000000E+00  0.00000000000E+00  0.10595204221E+01  0.10595236122E+01  0.26000000000E-02 0. -1.
         -2   -1    0    0    0  501 -0.00000000000E+00 -0.00000000000E+00 -0.94417639986E+02  0.94417640022E+02  0.26000000000E-02 0.  1.
       1023    2    1    2    0    0  0.00000000000E+00  0.00000000000E+00 -0.93358119564E+02  0.95477163634E+02  0.20003756824E+02 0.  0.
        -13    1    3    3    0    0  0.86737971568E+01 -0.49775302086E+01 -0.46078440192E+02  0.47151292529E+02  0.10570000000E+00 0. -1.
         13    1    3    3    0    0 -0.86737971568E+01  0.49775302086E+01 -0.47279679372E+02  0.48325871105E+02  0.10570000000E+00 0.  1.
<mgrwt>
<rscale>  0 0.20003757E+02</rscale>
<asrwt>0</asrwt>
<pdfrwt beam="1">  1        2 0.16300346E-03 0.20003757E+02</pdfrwt>
<pdfrwt beam="2">  1       -2 0.14525784E-01 0.20003757E+02</pdfrwt>
<totfact> 0.30129516E+06</totfact>
</mgrwt>
</event>
<event>
 4    1  0.1607476E-006  0.2002400E+02  0.7818608E-02  0.1744851E+00
         -2   -1    0    0    0  501 -0.00000000000E+00  0.00000000000E+00  0.12724390784E+02  0.12724391050E+02  0.26000000000E-02 0.  1.
          2   -1    0    0  501    0  0.00000000000E+00 -0.00000000000E+00 -0.78777973138E+01  0.78777977429E+01  0.26000000000E-02 0. -1.
        -13    1    1    2    0    0  0.60374604183E+01  0.79850410178E+01  0.22883695353E+01  0.10269353241E+02  0.10570000000E+00 0.  1.
         13    1    1    2    0    0 -0.60374604183E+01 -0.79850410178E+01  0.25582239353E+01  0.10332835552E+02  0.10570000000E+00 0. -1.
<mgrwt>
<rscale>  0 0.20024003E+02</rscale>
<asrwt>0</asrwt>
<pdfrwt beam="2">  1        2 0.12119689E-02 0.20024003E+02</pdfrwt>
<pdfrwt beam="1">  1       -2 0.19575986E-02 0.20024003E+02</pdfrwt>
<totfact> 0.38672209E+06</totfact>
</mgrwt>
</event>
<event>
 5    1  0.1607476E-006  0.2000563E+02  0.7818608E-02  0.1745216E+00
          2   -1    0    0  501    0  0.00000000000E+00  0.00000000000E+00  0.40984113205E+02  0.40984113287E+02  0.26000000000E-02 0.  1.
         -2   -1    0    0    0  501 -0.00000000000E+00 -0.00000000000E+00 -0.24413418252E+01  0.24413432097E+01  0.26000000000E-02 0. -1.
       1023    2    1    2    0    0  0.00000000000E+00  0.00000000000E+00  0.38542771380E+02  0.43425456497E+02  0.20005625368E+02 0.  0.
        -13    1    3    3    0    0  0.97604179886E+01  0.21842890460E+01  0.19468081103E+02  0.21887307561E+02  0.10570000000E+00 0. -1.
         13    1    3    3    0    0 -0.97604179886E+01 -0.21842890460E+01  0.19074690277E+02  0.21538148936E+02  0.10570000000E+00 0.  1.
<mgrwt>
<rscale>  0 0.20005625E+02</rscale>
<asrwt>0</asrwt>
<pdfrwt beam="1">  1        2 0.63052471E-02 0.20005625E+02</pdfrwt>
<pdfrwt beam="2">  1       -2 0.37559124E-03 0.20005625E+02</pdfrwt>
<totfact> 0.45012344E+06</totfact>
</mgrwt>
</event>
<event>
 5    1  0.1607476E-006  0.2000177E+02  0.7818608E-02  0.1745293E+00
         -2   -1    0    0    0  501 -0.00000000000E+00  0.00000000000E+00  0.71801237024E+02  0.71801237071E+02  0.26000000000E-02 0. -1.
          2   -1    0    0  501    0  0.00000000000E+00 -0.00000000000E+00 -0.13929785747E+01  0.13929810012E+01  0.26000000000E-02 0.  1.
       1023    2    1    2    0    0  0.00000000000E+00  0.00000000000E+00  0.70408258449E+02  0.73194218072E+02  0.20001767456E+02 0.  0.
        -13    1    3    3    0    0  0.97782581170E+01  0.20950088260E+01  0.35408172924E+02  0.36793386309E+02  0.10570000000E+00 0. -1.
         13    1    3    3    0    0 -0.97782581170E+01 -0.20950088260E+01  0.35000085525E+02  0.36400831763E+02  0.10570000000E+00 0.  1.
<mgrwt>
<rscale>  0 0.20001767E+02</rscale>
<asrwt>0</asrwt>
<pdfrwt beam="2">  1        2 0.21430450E-03 0.20001767E+02</pdfrwt>
<pdfrwt beam="1">  1       -2 0.11046349E-01 0.20001767E+02</pdfrwt>
<totfact> 0.31924894E+06</totfact>
</mgrwt>
</event>
<event>
 4    1  0.1607476E-006  0.2001414E+02  0.7818608E-02  0.1745047E+00
          2   -1    0    0  501    0  0.00000000000E+00  0.00000000000E+00  0.10629453094E+03  0.10629453097E+03  0.26000000000E-02 0. -1.
         -2   -1    0    0    0  501 -0.00000000000E+00 -0.00000000000E+00 -0.94211065344E+00  0.94211424112E+00  0.26000000000E-02 0.  1.
        -13    1    1    2    0    0 -0.96977780209E+01 -0.24486190874E+01  0.54262025056E+02  0.55176273611E+02  0.10570000000E+00 0. -1.
         13    1    1    2    0    0  0.96977780209E+01  0.24486190874E+01  0.51090395231E+02  0.52060371602E+02  0.10570000000E+00 0.  1.
<mgrwt>
<rscale>  0 0.20014135E+02</rscale>
<asrwt>0</asrwt>
<pdfrwt beam="1">  1        2 0.16353012E-01 0.20014135E+02</pdfrwt>
<pdfrwt beam="2">  1       -2 0.14494031E-03 0.20014135E+02</pdfrwt>
<totfact> 0.53422082E+06</totfact>
</mgrwt>
</event>
<event>
 4    1  0.1607476E-006  0.2004368E+02  0.7818608E-02  0.1744461E+00
         -2   -1    0    0    0  501 -0.00000000000E+00  0.00000000000E+00  0.45088594740E+01  0.45088602237E+01  0.26000000000E-02 0.  1.
          2   -1    0    0  501    0  0.00000000000E+00 -0.00000000000E+00 -0.22275539004E+02  0.22275539156E+02  0.26000000000E-02 0. -1.
        -13    1    1    2    0    0 -0.99841522956E+01 -0.75105546289E+00 -0.83183934824E+01  0.13017458430E+02  0.10570000000E+00 0.  1.
         13    1    1    2    0    0  0.99841522956E+01  0.75105546289E+00 -0.94482860479E+01  0.13766940949E+02  0.10570000000E+00 0. -1.
<mgrwt>
<rscale>  0 0.20043681E+02</rscale>
<asrwt>0</asrwt>
<pdfrwt beam="2">  1        2 0.34270060E-02 0.20043681E+02</pdfrwt>
<pdfrwt beam="1">  1       -2 0.69367077E-03 0.20043681E+02</pdfrwt>
<totfact> 0.41881395E+06</totfact>
</mgrwt>
</event>
<event>
 5    1  0.1607476E-006  0.2000184E+02  0.7818608E-02  0.1745292E+00
         -2   -1    0    0    0  501 -0.00000000000E+00  0.00000000000E+00  0.12941479694E+01  0.12941505811E+01  0.26000000000E-02 0.  1.
          2   -1    0    0  501    0  0.00000000000E+00 -0.00000000000E+00 -0.77285025965E+02  0.77285026009E+02  0.26000000000E-02 0. -1.
       1023    2    1    2    0    0  0.00000000000E+00  0.00000000000E+00 -0.75990877995E+02  0.78579176590E+02  0.20001836291E+02 0.  0.
        -13    1    3    3    0    0 -0.98464033950E+01  0.17478449962E+01 -0.37901701594E+02  0.39198938483E+02  0.10570000000E+00 0. -1.
         13    1    3    3    0    0  0.98464033950E+01 -0.17478449962E+01 -0.38089176401E+02  0.39380238107E+02  0.10570000000E+00 0.  1.
<mgrwt>
<rscale>  0 0.20001836E+02</rscale>
<asrwt>0</asrwt>
<pdfrwt beam="2">  1        2 0.11890001E-01 0.20001836E+02</pdfrwt>
<pdfrwt beam="1">  1       -2 0.19909995E-03 0.20001836E+02</pdfrwt>
<totfact> 0.49945780E+06</totfact>
</mgrwt>
</event>
<event>
 5    1  0.1607476E-006  0.2000247E+02  0.7818608E-02  0.1745279E+00
          2   -1    0    0  501    0  0.00000000000E+00  0.00000000000E+00  0.18438377184E+02  0.18438377368E+02  0.26000000000E-02 0. -1.
         -2   -1    0    0    0  501 -0.00000000000E+00 -0.00000000000E+00 -0.54248104952E+01  0.54248111183E+01  0.26000000000E-02 0.  1.
       1023    2    1    2    0    0  0.00000000000E+00  0.00000000000E+00  0.13013566689E+02  0.23863188486E+02  0.20002471016E+02 0.  0.
        -13    1    3    3    0    0  0.87460744180E+01  0.48491237380E+01  0.64165515364E+01  0.11882387170E+02  0.10570000000E+00 0. -1.
         13    1    3    3    0    0 -0.87460744180E+01 -0.48491237380E+01  0.65970151527E+01  0.11980801316E+02  0.10570000000E+00 0.  1.
<mgrwt>
<rscale>  0 0.20002471E+02</rscale>
<asrwt>0</asrwt>
<pdfrwt beam="1">  1        2 0.28366735E-02 0.20002471E+02</pdfrwt>
<pdfrwt beam="2">  1       -2 0.83458629E-03 0.20002471E+02</pdfrwt>
<totfact> 0.41373109E+06</totfact>
</mgrwt>
</event>
<event>
 5    1  0.1607476E-006  0.2000307E+02  0.7818608E-02  0.1745267E+00
         -2   -1    0    0    0  501 -0.00000000000E+00  0.00000000000E+00  0.13279634647E+02  0.13279634901E+02  0.26000000000E-02 0. -1.
          2   -1    0    0  501    0  0.00000000000E+00 -0.00000000000E+00 -0.75326358656E+01  0.75326363143E+01  0.26000000000E-02 0.  1.
       1023    2    1    2    0    0  0.00000000000E+00  0.00000000000E+00  0.57469987813E+01  0.20812271216E+02  0.20003065719E+02 0.  0.
        -13    1    3    3    0    0 -0.55219542193E+01 -0.83382546994E+01  0.29066835081E+01  0.10415298908E+02  0.10570000000E+00 0.  1.
         13    1    3    3    0    0  0.55219542193E+01  0.83382546994E+01  0.28403152731E+01  0.10396972308E+02  0.10570000000E+00 0. -1.
<mgrwt>
<rscale>  0 0.20003066E+02</rscale>
<asrwt>0</asrwt>
<pdfrwt beam="2">  1        2 0.11588671E-02 0.20003066E+02</pdfrwt>
<pdfrwt beam="1">  1       -2 0.20430208E-02 0.20003066E+02</pdfrwt>
<totfact> 0.38636900E+06</totfact>
</mgrwt>
</event>
<event>
 5    1  0.1607476E-006  0.2000161E+02  0.7818608E-02  0.1745296E+00
         -2   -1    0    0    0  501 -0.00000000000E+00  0.00000000000E+00  0.44158408424E+02  0.44158408501E+02  0.26000000000E-02 0.  1.
          2   -1    0    0  501    0  0.00000000000E+00 -0.00000000000E+00 -0.22649376103E+01  0.22649391026E+01  0.26000000000E-02 0. -1.
       1023    2    1    2    0    0  0.00000000000E+00  0.00000000000E+00  0.41893470814E+02  0.46423347604E+02  0.20001607582E+02 0.  0.
        -13    1    3    3    0    0 -0.90403865595E+01 -0.42746701851E+01  0.20809235341E+02  0.23087590656E+02  0.10570000000E+00 0.  1.
         13    1    3    3    0    0  0.90403865595E+01  0.42746701851E+01  0.21084235473E+02  0.23335756947E+02  0.10570000000E+00 0. -1.
<mgrwt>
<rscale>  0 0.20001608E+02</rscale>
<asrwt>0</asrwt>
<pdfrwt beam="2">  1        2 0.34845209E-03 0.20001608E+02</pdfrwt>
<pdfrwt beam="1">  1       -2 0.67936009E-02 0.20001608E+02</pdfrwt>
<totfact> 0.34477504E+06</totfact>
</mgrwt>
</event>
<event>
 4    1  0.1607476E-006  0.2001673E+02  0.7818608E-02  0.1744996E+00
         -2   -1    0    0    0  501 -0.00000000000E+00  0.00000000000E+00  0.30138045411E+02  0.30138045524E+02  0.26000000000E-02 0.  1.
          2   -1    0    0  501    0  0.00000000000E+00 -0.00000000000E+00 -0.33236174531E+01  0.33236184700E+01  0.26000000000E-02 0. -1.
        -13    1    1    2    0    0 -0.80211924547E+01 -0.59753137455E+01  0.13967359121E+02  0.17179703026E+02  0.10570000000E+00 0.  1.
         13    1    1    2    0    0  0.80211924547E+01  0.59753137455E+01  0.12847068838E+02  0.16281960968E+02  0.10570000000E+00 0. -1.
<mgrwt>
<rscale>  0 0.20016728E+02</rscale>
<asrwt>0</asrwt>
<pdfrwt beam="2">  1        2 0.51132586E-03 0.20016728E+02</pdfrwt>
<pdfrwt beam="1">  1       -2 0.46366223E-02 0.20016728E+02</pdfrwt>
<totfact> 0.35981739E+06</totfact>
</mgrwt>
</event>
<event>
 5    1  0.1607476E-006  0.2000454E+02  0.7818608E-02  0.1745238E+00
          2   -1    0    0  501    0  0.00000000000E+00  0.00000000000E+00  0.48617469152E+02  0.48617469222E+02  0.26000000000E-02 0.  1.
         -2   -1    0    0    0  501 -0.00000000000E+00 -0.00000000000E+00 -0.20578069328E+01  0.20578085754E+01  0.26000000000E-02 0. -1.
       1023    2    1    2    0    0  0.00000000000E+00  0.00000000000E+00  0.46559662219E+02  0.50675277797E+02  0.20004540330E+02 0.  0.
        -13    1    3    3    0    0  0.93403651873E+01  0.35761276488E+01  0.23421444654E+02  0.25467751235E+02  0.10570000000E+00 0.  1.
         13    1    3    3    0    0 -0.93403651873E+01 -0.35761276488E+01  0.23138217565E+02  0.25207526562E+02  0.10570000000E+00 0. -1.
<mgrwt>
<rscale>  0 0.20004540E+02</rscale>
<asrwt>0</asrwt>
<pdfrwt beam="1">  1        2 0.74796103E-02 0.20004540E+02</pdfrwt>
<pdfrwt beam="2">  1       -2 0.31658583E-03 0.20004540E+02</pdfrwt>
<totfact> 0.46110995E+06</totfact>
</mgrwt>
</event>
<event>
 4    1  0.1607476E-006  0.2005234E+02  0.7818608E-02  0.1744289E+00
         -2   -1    0    0    0  501 -0.00000000000E+00  0.00000000000E+00  0.12541927053E+02  0.12541927323E+02  0.26000000000E-02 0.  1.
          2   -1    0    0  501    0  0.00000000000E+00 -0.00000000000E+00 -0.80150389506E+01  0.80150393723E+01  0.26000000000E-02 0. -1.
        -13    1    1    2    0    0  0.49553918715E+01  0.87119154921E+01  0.20134038022E+01  0.10223421516E+02  0.10570000000E+00 0. -1.
         13    1    1    2    0    0 -0.49553918715E+01 -0.87119154921E+01  0.25134843005E+01  0.10333545179E+02  0.10570000000E+00 0.  1.
<mgrwt>
<rscale>  0 0.20052336E+02</rscale>
<asrwt>0</asrwt>
<pdfrwt beam="2">  1        2 0.12330830E-02 0.20052336E+02</pdfrwt>
<pdfrwt beam="1">  1       -2 0.19295273E-02 0.20052336E+02</pdfrwt>
<totfact> 0.38595928E+06</totfact>
</mgrwt>
</event>
<event>
 5    1  0.1607476E-006  0.2000303E+02  0.7818608E-02  0.1745268E+00
         -2   -1    0    0    0  501 -0.00000000000E+00  0.00000000000E+00  0.83446736920E+01  0.83446740971E+01  0.26000000000E-02 0. -1.
          2   -1    0    0  501    0  0.00000000000E+00 -0.00000000000E+00 -0.11987319367E+02  0.11987319649E+02  0.26000000000E-02 0.  1.
       1023    2    1    2    0    0  0.00000000000E+00  0.00000000000E+00 -0.36426456750E+01  0.20331993746E+02  0.20003027325E+02 0.  0.
        -13    1    3    3    0    0 -0.84231118743E+01 -0.53916495013E+01 -0.18008657050E+01  0.10162331808E+02  0.10570000000E+00 0. -1.
         13    1    3    3    0    0  0.84231118743E+01  0.53916495013E+01 -0.18417799700E+01  0.10169661938E+02  0.10570000000E+00 0.  1.
<mgrwt>
<rscale>  0 0.20003027E+02</rscale>
<asrwt>0</asrwt>
<pdfrwt beam="2">  1        2 0.18442030E-02 0.20003027E+02</pdfrwt>
<pdfrwt beam="1">  1       -2 0.12837960E-02 0.20003027E+02</pdfrwt>
<totfact> 0.39981796E+06</totfact>
</mgrwt>
</event>
<event>
 4    1  0.1607476E-006  0.2037150E+02  0.7818608E-02  0.1738040E+00
         -2   -1    0    0    0  501 -0.00000000000E+00  0.00000000000E+00  0.14891263712E+01  0.14891286409E+01  0.26000000000E-02 0. -1.
          2   -1    0    0  501    0  0.00000000000E+00 -0.00000000000E+00 -0.69671367870E+02  0.69671367919E+02  0.26000000000E-02 0.  1.
        -13    1    1    2    0    0  0.74058710722E+01 -0.67862910854E+01 -0.28206754159E+02  0.29942158000E+02  0.10570000000E+00 0. -1.
         13    1    1    2    0    0 -0.74058710722E+01  0.67862910854E+01 -0.39975487340E+02  0.41218338560E+02  0.10570000000E+00 0.  1.
<mgrwt>
<rscale>  0 0.20371505E+02</rscale>
<asrwt>0</asrwt>
<pdfrwt beam="2">  1        2 0.10718670E-01 0.20371505E+02</pdfrwt>
<pdfrwt beam="1">  1       -2 0.22909660E-03 0.20371505E+02</pdfrwt>
<totfact> 0.47014826E+06</totfact>
</mgrwt>
</event>
<event>
 5    1  0.2355268E-006  0.2000822E+02  0.7818608E-02  0.1745165E+00
          2   -1    0    0  501    0  0.00000000000E+00  0.00000000000E+00  0.11348198319E+03  0.11348198322E+03  0.26000000000E-02 0.  1.
         -2   -1    0    0    0  501 -0.00000000000E+00 -0.00000000000E+00 -0.88191934918E+00  0.88192318172E+00  0.26000000000E-02 0. -1.
       1023    2    1    2    0    0  0.00000000000E+00  0.00000000000E+00  0.11260006384E+03  0.11436390640E+03  0.20008216074E+02 0.  0.
        -13    1    3    3    0    0 -0.47110210143E+01  0.88225734319E+01  0.55164257487E+02  0.56063695896E+02  0.10570000000E+00 0. -1.
         13    1    3    3    0    0  0.47110210143E+01 -0.88225734319E+01  0.57435806353E+02  0.58300210504E+02  0.10570000000E+00 0.  1.
<mgrwt>
<rscale>  0 0.20008216E+02</rscale>
<asrwt>0</asrwt>
<pdfrwt beam="1">  1        2 0.17458756E-01 0.20008216E+02</pdfrwt>
<pdfrwt beam="2">  1       -2 0.13568028E-03 0.20008216E+02</pdfrwt>
<totfact> 0.54294904E+06</totfact>
</mgrwt>
</event>
<event>
 5    1  0.1607476E-006  0.2000151E+02  0.7818608E-02  0.1745298E+00
          2   -1    0    0  501    0  0.00000000000E+00  0.00000000000E+00  0.33893783085E+01  0.33893793058E+01  0.26000000000E-02 0.  1.
         -2   -1    0    0    0  501 -0.00000000000E+00 -0.00000000000E+00 -0.29508387809E+02  0.29508387924E+02  0.26000000000E-02 0. -1.
       1023    2    1    2    0    0  0.00000000000E+00  0.00000000000E+00 -0.26119009501E+02  0.32897767230E+02  0.20001510728E+02 0.  0.
        -13    1    3    3    0    0 -0.46821266769E+01  0.88362634787E+01 -0.13134388944E+02  0.16508337527E+02  0.10570000000E+00 0.  1.
         13    1    3    3    0    0  0.46821266769E+01 -0.88362634787E+01 -0.12984620557E+02  0.16389429703E+02  0.10570000000E+00 0. -1.
<mgrwt>
<rscale>  0 0.20001511E+02</rscale>
<asrwt>0</asrwt>
<pdfrwt beam="1">  1        2 0.52144292E-03 0.20001511E+02</pdfrwt>
<pdfrwt beam="2">  1       -2 0.45397519E-02 0.20001511E+02</pdfrwt>
<totfact> 0.36119131E+06</totfact>
</mgrwt>
</event>
<event>
 4    1  0.1607476E-006  0.2001803E+02  0.7818608E-02  0.1744970E+00
         -2   -1    0    0    0  501 -0.00000000000E+00  0.00000000000E+00  0.22534928647E+02  0.22534928797E+02  0.26000000000E-02 0. -1.
          2   -1    0    0  501    0  0.00000000000E+00 -0.00000000000E+00 -0.44455600373E+01  0.44455607976E+01  0.26000000000E-02 0.  1.
        -13    1    1    2    0    0  0.99028830162E+01  0.14319956358E+01  0.93505939575E+01  0.13695345318E+02  0.10570000000E+00 0. -1.
         13    1    1    2    0    0 -0.99028830162E+01 -0.14319956358E+01  0.87387746519E+01  0.13285144276E+02  0.10570000000E+00 0.  1.
<mgrwt>
<rscale>  0 0.20018031E+02</rscale>
<asrwt>0</asrwt>
<pdfrwt beam="2">  1        2 0.68393239E-03 0.20018031E+02</pdfrwt>
<pdfrwt beam="1">  1       -2 0.34669122E-02 0.20018031E+02</pdfrwt>
<totfact> 0.36981226E+06</totfact>
</mgrwt>
</event>
<event>
 5    1  0.1607476E-006  0.2000283E+02  0.7818608E-02  0.1745272E+00
         -2   -1    0    0    0  501 -0.00000000000E+00  0.00000000000E+00  0.69409886178E+02  0.69409886227E+02  0.26000000000E-02 0.  1.
          2   -1    0    0  501    0  0.00000000000E+00 -0.00000000000E+00 -0.14411236741E+01  0.14411260195E+01  0.26000000000E-02 0. -1.
       1023    2    1    2    0    0  0.00000000000E+00  0.00000000000E+00  0.67968762504E+02  0.70851012246E+02  0.20002831300E+02 0.  0.
        -13    1    3    3    0    0  0.80199229840E+01  0.59747704560E+01  0.34019057209E+02  0.35458771448E+02  0.10570000000E+00 0. -1.
         13    1    3    3    0    0 -0.80199229840E+01 -0.59747704560E+01  0.33949705294E+02  0.35392240798E+02  0.10570000000E+00 0.  1.
<mgrwt>
<rscale>  0 0.20002831E+02</rscale>
<asrwt>0</asrwt>
<pdfrwt beam="2">  1        2 0.22171155E-03 0.20002831E+02</pdfrwt>
<pdfrwt beam="1">  1       -2 0.10678443E-01 0.20002831E+02</pdfrwt>
<totfact> 0.32123502E+06</totfact>
</mgrwt>
</event>
<event>
 5    1  0.1607476E-006  0.2000212E+02  0.7818608E-02  0.1745286E+00
          2   -1    0    0  501    0  0.00000000000E+00  0.00000000000E+00  0.99734162417E+01  0.99734165806E+01  0.26000000000E-02 0.  1.
         -2   -1    0    0    0  501 -0.00000000000E+00 -0.00000000000E+00 -0.10028778217E+02  0.10028778554E+02  0.26000000000E-02 0. -1.
       1023    2    1    2    0    0  0.00000000000E+00  0.00000000000E+00 -0.55361975614E-01  0.20002195135E+02  0.20002118520E+02 0.  0.
        -13    1    3    3    0    0 -0.99421127875E+01  0.10747600117E+01 -0.12410783745E+00  0.10001364457E+02  0.10570000000E+00 0.  1.
         13    1    3    3    0    0  0.99421127875E+01 -0.10747600117E+01  0.68745861835E-01  0.10000830678E+02  0.10570000000E+00 0. -1.
<mgrwt>
<rscale>  0 0.20002119E+02</rscale>
<asrwt>0</asrwt>
<pdfrwt beam="1">  1        2 0.15343718E-02 0.20002119E+02</pdfrwt>
<pdfrwt beam="2">  1       -2 0.15428890E-02 0.20002119E+02</pdfrwt>
<totfact> 0.39445921E+06</totfact>
</mgrwt>
</event>
<event>
 5    1  0.1607476E-006  0.2000155E+02  0.7818608E-02  0.1745297E+00
         -2   -1    0    0    0  501 -0.00000000000E+00  0.00000000000E+00  0.13646740135E+01  0.13646764903E+01  0.26000000000E-02 0.  1.
          2   -1    0    0  501    0  0.00000000000E+00 -0.00000000000E+00 -0.73288845790E+02  0.73288845836E+02  0.26000000000E-02 0. -1.
       1023    2    1    2    0    0  0.00000000000E+00  0.00000000000E+00 -0.71924171776E+02  0.74653522326E+02  0.20001547690E+02 0.  0.
        -13    1    3    3    0    0  0.16996324582E-01  0.10000046697E+02 -0.35754873224E+02  0.37127124244E+02  0.10570000000E+00 0. -1.
         13    1    3    3    0    0 -0.16996324582E-01 -0.10000046697E+02 -0.36169298552E+02  0.37526398082E+02  0.10570000000E+00 0.  1.
<mgrwt>
<rscale>  0 0.20001548E+02</rscale>
<asrwt>0</asrwt>
<pdfrwt beam="2">  1        2 0.11275204E-01 0.20001548E+02</pdfrwt>
<pdfrwt beam="1">  1       -2 0.20995010E-03 0.20001548E+02</pdfrwt>
<totfact> 0.49436610E+06</totfact>
</mgrwt>
</event>
<event>
 5    1  0.1607476E-006  0.2000121E+02  0.7818608E-02  0.1745304E+00
         -2   -1    0    0    0  501 -0.00000000000E+00  0.00000000000E+00  0.14375385161E+01  0.14375408673E+01  0.26000000000E-02 0. -1.
          2   -1    0    0  501    0  0.00000000000E+00 -0.00000000000E+00 -0.69571709453E+02  0.69571709502E+02  0.26000000000E-02 0.  1.
       1023    2    1    2    0    0  0.00000000000E+00  0.00000000000E+00 -0.68134170937E+02  0.71009250369E+02  0.20001209681E+02 0.  0.
        -13    1    3    3    0    0  0.38901025632E+01  0.92123806830E+01 -0.34096550797E+02  0.35532897498E+02  0.10570000000E+00 0. -1.
         13    1    3    3    0    0 -0.38901025632E+01 -0.92123806830E+01 -0.34037620139E+02  0.35476352871E+02  0.10570000000E+00 0.  1.
<mgrwt>
<rscale>  0 0.20001210E+02</rscale>
<asrwt>0</asrwt>
<pdfrwt beam="2">  1        2 0.10703338E-01 0.20001210E+02</pdfrwt>
<pdfrwt beam="1">  1       -2 0.22116001E-03 0.20001210E+02</pdfrwt>
<totfact> 0.48957523E+06</totfact>
</mgrwt>
</event>
<event>
 5    1  0.1607476E-006  0.2000756E+02  0.7818608E-02  0.1745178E+00
          2   -1    0    0  501    0  0.00000000000E+00  0.00000000000E+00  0.10157458603E+03  0.10157458607E+03  0.26000000000E-02 0. -1.
         -2   -1    0    0    0  501 -0.00000000000E+00 -0.00000000000E+00 -0.98524056175E+00  0.98524399238E+00  0.26000000000E-02 0.  1.
       1023    2    1    2    0    0  0.00000000000E+00  0.00000000000E+00  0.10058934547E+03  0.10255983006E+03  0.20007556556E+02 0.  0.
        -13    1    3    3    0    0 -0.98276657008E+01 -0.18648275107E+01  0.50611186184E+02  0.51590347297E+02  0.10570000000E+00 0.  1.
         13    1    3    3    0    0  0.98276657008E+01  0.18648275107E+01  0.49978159287E+02  0.50969482761E+02  0.10570000000E+00 0. -1.
<mgrwt>
<rscale>  0 0.20007557E+02</rscale>
<asrwt>0</asrwt>
<pdfrwt beam="1">  1        2 0.15626863E-01 0.20007557E+02</pdfrwt>
<pdfrwt beam="2">  1       -2 0.15157570E-03 0.20007557E+02</pdfrwt>
<totfact> 0.52902026E+06</totfact>
</mgrwt>
</event>
<event>
 5    1  0.1607476E-006  0.2000133E+02  0.7818608E-02  0.1745302E+00
         -2   -1    0    0    0  501 -0.00000000000E+00  0.00000000000E+00  0.51561100865E+01  0.51561107420E+01  0.26000000000E-02 0.  1.
          2   -1    0    0  501    0  0.00000000000E+00 -0.00000000000E+00 -0.19397050562E+02  0.19397050737E+02  0.26000000000E-02 0. -1.
       1023    2    1    2    0    0  0.00000000000E+00  0.00000000000E+00 -0.14240940476E+02  0.24553161479E+02  0.20001333780E+02 0.  0.
        -13    1    3    3    0    0 -0.95724638760E+01  0.28930246824E+01 -0.71481732185E+01  0.12292648589E+02  0.10570000000E+00 0. -1.
         13    1    3    3    0    0  0.95724638760E+01 -0.28930246824E+01 -0.70927672574E+01  0.12260512890E+02  0.10570000000E+00 0.  1.
<mgrwt>
<rscale>  0 0.20001334E+02</rscale>
<asrwt>0</asrwt>
<pdfrwt beam="2">  1        2 0.29841617E-02 0.20001334E+02</pdfrwt>
<pdfrwt beam="1">  1       -2 0.79324778E-03 0.20001334E+02</pdfrwt>
<totfact> 0.41559856E+06</totfact>
</mgrwt>
</event>
<event>
 5    1  0.1607476E-006  0.2000286E+02  0.7818608E-02  0.1745271E+00
          2   -1    0    0  501    0  0.00000000000E+00  0.00000000000E+00  0.11400578837E+02  0.11400579133E+02  0.26000000000E-02 0. -1.
         -2   -1    0    0    0  501 -0.00000000000E+00 -0.00000000000E+00 -0.87739949903E+01  0.87739953755E+01  0.26000000000E-02 0.  1.
       1023    2    1    2    0    0  0.00000000000E+00  0.00000000000E+00  0.26265838465E+01  0.20174574509E+02  0.20002862643E+02 0.  0.
        -13    1    3    3    0    0  0.77707325308E+01  0.62945100011E+01  0.14252210150E+01  0.10101859614E+02  0.10570000000E+00 0.  1.
         13    1    3    3    0    0 -0.77707325308E+01 -0.62945100011E+01  0.12013628315E+01  0.10072714895E+02  0.10570000000E+00 0. -1.
<mgrwt>
<rscale>  0 0.20002863E+02</rscale>
<asrwt>0</asrwt>
<pdfrwt beam="1">  1        2 0.17539353E-02 0.20002863E+02</pdfrwt>
<pdfrwt beam="2">  1       -2 0.13498454E-02 0.20002863E+02</pdfrwt>
<totfact> 0.39833261E+06</totfact>
</mgrwt>
</event>
<event>
 4    1  0.1607476E-006  0.2002388E+02  0.7818608E-02  0.1744854E+00
         -2   -1    0    0    0  501 -0.00000000000E+00  0.00000000000E+00  0.25183073531E+01  0.25183086953E+01  0.26000000000E-02 0. -1.
          2   -1    0    0  501    0  0.00000000000E+00 -0.00000000000E+00 -0.39804088695E+02  0.39804088780E+02  0.26000000000E-02 0.  1.
        -13    1    1    2    0    0  0.98344022929E+01  0.18351327974E+01 -0.17839151172E+02  0.20453109002E+02  0.10570000000E+00 0.  1.
         13    1    1    2    0    0 -0.98344022929E+01 -0.18351327974E+01 -0.19446630170E+02  0.21869288473E+02  0.10570000000E+00 0. -1.
<mgrwt>
<rscale>  0 0.20023882E+02</rscale>
<asrwt>0</asrwt>
<pdfrwt beam="2">  1        2 0.61237056E-02 0.20023882E+02</pdfrwt>
<pdfrwt beam="1">  1       -2 0.38743204E-03 0.20023882E+02</pdfrwt>
<totfact> 0.44748037E+06</totfact>
</mgrwt>
</event>
<event>
 4    1  0.1607476E-006  0.2002347E+02  0.7818608E-02  0.1744862E+00
         -2   -1    0    0    0  501 -0.00000000000E+00  0.00000000000E+00  0.86550551824E+01  0.86550555729E+01  0.26000000000E-02 0.  1.
          2   -1    0    0  501    0  0.00000000000E+00 -0.00000000000E+00 -0.11581079193E+02  0.11581079485E+02  0.26000000000E-02 0. -1.
        -13    1    1    2    0    0  0.85730970812E+01  0.51667311290E+01 -0.12861973648E+01  0.10092501190E+02  0.10570000000E+00 0. -1.
         13    1    1    2    0    0 -0.85730970812E+01 -0.51667311290E+01 -0.16398266460E+01  0.10143633868E+02  0.10570000000E+00 0.  1.
<mgrwt>
<rscale>  0 0.20023475E+02</rscale>
<asrwt>0</asrwt>
<pdfrwt beam="2">  1        2 0.17817046E-02 0.20023475E+02</pdfrwt>
<pdfrwt beam="1">  1       -2 0.13315470E-02 0.20023475E+02</pdfrwt>
<totfact> 0.39786402E+06</totfact>
</mgrwt>
</event>
<event>
 5    1  0.1607476E-006  0.2000682E+02  0.7818608E-02  0.1745193E+00
         -2   -1    0    0    0  501 -0.00000000000E+00  0.00000000000E+00  0.34542740520E+01  0.34542750305E+01  0.26000000000E-02 0.  1.
          2   -1    0    0  501    0  0.00000000000E+00 -0.00000000000E+00 -0.28969374962E+02  0.28969375078E+02  0.26000000000E-02 0. -1.
       1023    2    1    2    0    0  0.00000000000E+00  0.00000000000E+00 -0.25515100910E+02  0.32423650109E+02  0.20006816637E+02 0.  0.
        -13    1    3    3    0    0  0.98803294667E+01 -0.15567342583E+01 -0.12939996113E+02  0.16355396779E+02  0.10570000000E+00 0. -1.
         13    1    3    3    0    0 -0.98803294667E+01  0.15567342583E+01 -0.12575104797E+02  0.16068253330E+02  0.10570000000E+00 0.  1.
<mgrwt>
<rscale>  0 0.20006817E+02</rscale>
<asrwt>0</asrwt>
<pdfrwt beam="2">  1        2 0.44568268E-02 0.20006817E+02</pdfrwt>
<pdfrwt beam="1">  1       -2 0.53142688E-03 0.20006817E+02</pdfrwt>
<totfact> 0.43175815E+06</totfact>
</mgrwt>
</event>
<event>
 5    1  0.1607476E-006  0.2000177E+02  0.7818608E-02  0.1745293E+00
         -2   -1    0    0    0  501 -0.00000000000E+00  0.00000000000E+00  0.54211690491E+01  0.54211696726E+01  0.26000000000E-02 0.  1.
          2   -1    0    0  501    0  0.00000000000E+00 -0.00000000000E+00 -0.18449463167E+02  0.18449463350E+02  0.26000000000E-02 0. -1.
       1023    2    1    2    0    0  0.00000000000E+00  0.00000000000E+00 -0.13028294118E+02  0.23870633023E+02  0.20001766754E+02 0.  0.
        -13    1    3    3    0    0 -0.79677183772E+00 -0.99685274900E+01 -0.65016217747E+01  0.11928480367E+02  0.10570000000E+00 0.  1.
         13    1    3    3    0    0  0.79677183772E+00  0.99685274900E+01 -0.65266723429E+01  0.11942152655E+02  0.10570000000E+00 0. -1.
<mgrwt>
<rscale>  0 0.20001767E+02</rscale>
<asrwt>0</asrwt>
<pdfrwt beam="2">  1        2 0.28383790E-02 0.20001767E+02</pdfrwt>
<pdfrwt beam="1">  1       -2 0.83402608E-03 0.20001767E+02</pdfrwt>
<totfact> 0.41378522E+06</totfact>
</mgrwt>
</event>
<event>
 5    1  0.1607476E-006  0.2000467E+02  0.7818608E-02  0.1745235E+00
         -2   -1    0    0    0  501 -0.00000000000E+00  0.00000000000E+00  0.80145936835E+02  0.80145936877E+02  0.26000000000E-02 0. -1.
          2   -1    0    0  501    0  0.00000000000E+00 -0.00000000000E+00 -0.12483055992E+01  0.12483083068E+01  0.26000000000E-02 0.  1.
       1023    2    1    2    0    0  0.00000000000E+00  0.00000000000E+00  0.78897631236E+02  0.81394245184E+02  0.20004672815E+02 0.  0.
        -13    1    3    3    0    0 -0.96201096908E+01 -0.27361854640E+01  0.39645626221E+02  0.40887896404E+02  0.10570000000E+00 0.  1.
         13    1    3    3    0    0  0.96201096908E+01  0.27361854640E+01  0.39252005015E+02  0.40506348780E+02  0.10570000000E+00 0. -1.
<mgrwt>
<rscale>  0 0.20004673E+02</rscale>
<asrwt>0</asrwt>
<pdfrwt beam="2">  1        2 0.19204723E-03 0.20004673E+02</pdfrwt>
<pdfrwt beam="1">  1       -2 0.12330144E-01 0.20004673E+02</pdfrwt>
<totfact> 0.31230195E+06</totfact>
</mgrwt>
</event>
<event>
 4    1  0.1607476E-006  0.2001329E+02  0.7818608E-02  0.1745064E+00
          2   -1    0    0  501    0  0.00000000000E+00  0.00000000000E+00  0.38194946205E+02  0.38194946294E+02  0.26000000000E-02 0.  1.
         -2   -1    0    0    0  501 -0.00000000000E+00 -0.00000000000E+00 -0.26216273725E+01  0.26216286618E+01  0.26000000000E-02 0. -1.
        -13    1    1    2    0    0  0.92240906409E+01 -0.38701052214E+01  0.17286221008E+02  0.19972134884E+02  0.10570000000E+00 0. -1.
         13    1    1    2    0    0 -0.92240906409E+01  0.38701052214E+01  0.18287097824E+02  0.20844440072E+02  0.10570000000E+00 0.  1.
<mgrwt>
<rscale>  0 0.20013290E+02</rscale>
<asrwt>0</asrwt>
<pdfrwt beam="1">  1        2 0.58761454E-02 0.20013290E+02</pdfrwt>
<pdfrwt beam="2">  1       -2 0.40332741E-03 0.20013290E+02</pdfrwt>
<totfact> 0.44563196E+06</totfact>
</mgrwt>
</event>
<event>
 4    1  0.1607476E-006  0.2001636E+02  0.7818608E-02  0.1745003E+00
          2   -1    0    0  501    0  0.00000000000E+00  0.00000000000E+00  0.74684069190E+02  0.74684069236E+02  0.26000000000E-02 0.  1.
         -2   -1    0    0    0  501 -0.00000000000E+00 -0.00000000000E+00 -0.13411635205E+01  0.13411660407E+01  0.26000000000E-02 0. -1.
        -13    1    1    2    0    0 -0.94345207472E+01 -0.33325402470E+01  0.35946134793E+02  0.37312890337E+02  0.10570000000E+00 0.  1.
         13    1    1    2    0    0  0.94345207472E+01  0.33325402470E+01  0.37396770876E+02  0.38712344939E+02  0.10570000000E+00 0. -1.
<mgrwt>
<rscale>  0 0.20016358E+02</rscale>
<asrwt>0</asrwt>
<pdfrwt beam="1">  1        2 0.11489856E-01 0.20016358E+02</pdfrwt>
<pdfrwt beam="2">  1       -2 0.20633306E-03 0.20016358E+02</pdfrwt>
<totfact> 0.49534345E+06</totfact>
</mgrwt>
</event>
<event>
 5    1  0.1607476E-006  0.2000142E+02  0.7818608E-02  0.1745300E+00
          2   -1    0    0  501    0  0.00000000000E+00  0.00000000000E+00  0.41954906719E+02  0.41954906800E+02  0.26000000000E-02 0. -1.
         -2   -1    0    0    0  501 -0.00000000000E+00 -0.00000000000E+00 -0.23838490444E+01  0.23838504623E+01  0.26000000000E-02 0.  1.
       1023    2    1    2    0    0  0.00000000000E+00  0.00000000000E+00  0.39571057675E+02  0.44338757262E+02  0.20001419701E+02 0.  0.
        -13    1    3    3    0    0  0.77681261934E+01  0.62974983170E+01  0.19846456513E+02  0.22223754818E+02  0.10570000000E+00 0. -1.
         13    1    3    3    0    0 -0.77681261934E+01 -0.62974983170E+01  0.19724601162E+02  0.22115002444E+02  0.10570000000E+00 0.  1.
<mgrwt>
<rscale>  0 0.20001420E+02</rscale>
<asrwt>0</asrwt>
<pdfrwt beam="1">  1        2 0.64546006E-02 0.20001420E+02</pdfrwt>
<pdfrwt beam="2">  1       -2 0.36674615E-03 0.20001420E+02</pdfrwt>
<totfact> 0.45175008E+06</totfact>
</mgrwt>
</event>
<event>
 5    1  0.1642856E-006  0.2000213E+02  0.7818608E-02  0.1745286E+00
          2   -1    0    0  501    0  0.00000000000E+00  0.00000000000E+00  0.96456609245E+02  0.96456609280E+02  0.26000000000E-02 0. -1.
         -2   -1    0    0    0  501 -0.00000000000E+00 -0.00000000000E+00 -0.10369549136E+01  0.10369581732E+01  0.26000000000E-02 0.  1.
       1023    2    1    2    0    0  0.00000000000E+00  0.00000000000E+00  0.95419654331E+02  0.97493567453E+02  0.20002131437E+02 0.  0.
        -13    1    3    3    0    0 -0.44075955458E+01 -0.89768105082E+01  0.47762689770E+02  0.48798521821E+02  0.10570000000E+00 0.  1.
         13    1    3    3    0    0  0.44075955458E+01  0.89768105082E+01  0.47656964561E+02  0.48695045632E+02  0.10570000000E+00 0. -1.
<mgrwt>
<rscale>  0 0.20002131E+02</rscale>
<asrwt>0</asrwt>
<pdfrwt beam="1">  1        2 0.14839479E-01 0.20002131E+02</pdfrwt>
<pdfrwt beam="2">  1       -2 0.15953178E-03 0.20002131E+02</pdfrwt>
<totfact> 0.52319377E+06</totfact>
</mgrwt>
</event>
<event>
 5    1  0.1607476E-006  0.2000258E+02  0.7818608E-02  0.1745277E+00
          2   -1    0    0  501    0  0.00000000000E+00  0.00000000000E+00  0.39666245758E+02  0.39666245844E+02  0.26000000000E-02 0.  1.
         -2   -1    0    0    0  501 -0.00000000000E+00 -0.00000000000E+00 -0.25216840598E+01  0.25216854001E+01  0.26000000000E-02 0. -1.
       1023    2    1    2    0    0  0.00000000000E+00  0.00000000000E+00  0.37144561699E+02  0.42187931244E+02  0.20002576805E+02 0.  0.
        -13    1    3    3    0    0  0.61376960191E+01 -0.78952455832E+01  0.18765377869E+02  0.21263978798E+02  0.10570000000E+00 0.  1.
         13    1    3    3    0    0 -0.61376960191E+01  0.78952455832E+01  0.18379183829E+02  0.20923952446E+02  0.10570000000E+00 0. -1.
<mgrwt>
<rscale>  0 0.20002577E+02</rscale>
<asrwt>0</asrwt>
<pdfrwt beam="1">  1        2 0.61024989E-02 0.20002577E+02</pdfrwt>
<pdfrwt beam="2">  1       -2 0.38795154E-03 0.20002577E+02</pdfrwt>
<totfact> 0.44834280E+06</totfact>
</mgrwt>
</event>
<event>
 5    1  0.1607476E-006  0.2000175E+02  0.7818608E-02  0.1745293E+00
         -2   -1    0    0    0  501 -0.00000000000E+00  0.00000000000E+00  0.39417346053E+02  0.39417346139E+02  0.26000000000E-02 0.  1.
          2   -1    0    0  501    0  0.00000000000E+00 -0.00000000000E+00 -0.25373974543E+01  0.25373987864E+01  0.26000000000E-02 0. -1.
       1023    2    1    2    0    0  0.00000000000E+00  0.00000000000E+00  0.36879948599E+02  0.41954744925E+02  0.20001750251E+02 0.  0.
        -13    1    3    3    0    0 -0.99333640529E+01 -0.11551525011E+01  0.18471928414E+02  0.21005461446E+02  0.10570000000E+00 0. -1.
         13    1    3    3    0    0  0.99333640529E+01  0.11551525011E+01  0.18408020185E+02  0.20949283480E+02  0.10570000000E+00 0.  1.
<mgrwt>
<rscale>  0 0.20001750E+02</rscale>
<asrwt>0</asrwt>
<pdfrwt beam="2">  1        2 0.39036896E-03 0.20001750E+02</pdfrwt>
<pdfrwt beam="1">  1       -2 0.60642069E-02 0.20001750E+02</pdfrwt>
<totfact> 0.34976545E+06</totfact>
</mgrwt>
</event>
<event>
 5    1  0.1607476E-006  0.2000361E+02  0.7818608E-02  0.1745256E+00
          2   -1    0    0  501    0  0.00000000000E+00  0.00000000000E+00  0.21422918996E+02  0.21422919154E+02  0.26000000000E-02 0.  1.
         -2   -1    0    0    0  501 -0.00000000000E+00 -0.00000000000E+00 -0.46695827301E+01  0.46695834539E+01  0.26000000000E-02 0. -1.
       1023    2    1    2    0    0  0.00000000000E+00  0.00000000000E+00  0.16753336266E+02  0.26092502608E+02  0.20003610081E+02 0.  0.
        -13    1    3    3    0    0  0.39559940411E+00 -0.99934019692E+01  0.84010632317E+01  0.13061914780E+02  0.10570000000E+00 0.  1.
         13    1    3    3    0    0 -0.39559940411E+00  0.99934019692E+01  0.83522730341E+01  0.13030587828E+02  0.10570000000E+00 0. -1.
<mgrwt>
<rscale>  0 0.20003610E+02</rscale>
<asrwt>0</asrwt>
<pdfrwt beam="1">  1        2 0.32958338E-02 0.20003610E+02</pdfrwt>
<pdfrwt beam="2">  1       -2 0.71839741E-03 0.20003610E+02</pdfrwt>
<totfact> 0.41919215E+06</totfact>
</mgrwt>
</event>
<event>
 5    1  0.1607476E-006  0.2000140E+02  0.7818608E-02  0.1745300E+00
         -2   -1    0    0    0  501 -0.00000000000E+00  0.00000000000E+00  0.24426564973E+02  0.24426565111E+02  0.26000000000E-02 0.  1.
          2   -1    0    0  501    0  0.00000000000E+00 -0.00000000000E+00 -0.40944777183E+01  0.40944785438E+01  0.26000000000E-02 0. -1.
       1023    2    1    2    0    0  0.00000000000E+00  0.00000000000E+00  0.20332087254E+02  0.28521043655E+02  0.20001403927E+02 0.  0.
        -13    1    3    3    0    0 -0.62554584035E+01 -0.78019758914E+01  0.10217052556E+02  0.14296885083E+02  0.10570000000E+00 0.  1.
         13    1    3    3    0    0  0.62554584035E+01  0.78019758914E+01  0.10115034698E+02  0.14224158572E+02  0.10570000000E+00 0. -1.
<mgrwt>
<rscale>  0 0.20001404E+02</rscale>
<asrwt>0</asrwt>
<pdfrwt beam="2">  1        2 0.62991971E-03 0.20001404E+02</pdfrwt>
<pdfrwt beam="1">  1       -2 0.37579332E-02 0.20001404E+02</pdfrwt>
<totfact> 0.36781660E+06</totfact>
</mgrwt>
</event>
<event>
 5    1  0.1607476E-006  0.2000124E+02  0.7818608E-02  0.1745303E+00
          2   -1    0    0  501    0  0.00000000000E+00  0.00000000000E+00  0.54702842250E+01  0.54702848428E+01  0.26000000000E-02 0. -1.
         -2   -1    0    0    0  501 -0.00000000000E+00 -0.00000000000E+00 -0.18282846419E+02  0.18282846604E+02  0.26000000000E-02 0.  1.
       1023    2    1    2    0    0  0.00000000000E+00  0.00000000000E+00 -0.12812562194E+02  0.23753131447E+02  0.20001237551E+02 0.  0.
        -13    1    3    3    0    0  0.87481379397E+01  0.48446886866E+01 -0.64260648423E+01  0.11887237178E+02  0.10570000000E+00 0. -1.
         13    1    3    3    0    0 -0.87481379397E+01 -0.48446886866E+01 -0.63864973521E+01  0.11865894269E+02  0.10570000000E+00 0.  1.
<mgrwt>
<rscale>  0 0.20001238E+02</rscale>
<asrwt>0</asrwt>
<pdfrwt beam="1">  1        2 0.84158226E-03 0.20001238E+02</pdfrwt>
<pdfrwt beam="2">  1       -2 0.28127456E-02 0.20001238E+02</pdfrwt>
<totfact> 0.37705198E+06</totfact>
</mgrwt>
</event>
<event>
 5    1  0.1607476E-006  0.2000166E+02  0.7818608E-02  0.1745295E+00
          2   -1    0    0  501    0  0.00000000000E+00  0.00000000000E+00  0.23403838465E+02  0.23403838609E+02  0.26000000000E-02 0. -1.
         -2   -1    0    0    0  501 -0.00000000000E+00 -0.00000000000E+00 -0.42735133848E+01  0.42735141757E+01  0.26000000000E-02 0.  1.
       1023    2    1    2    0    0  0.00000000000E+00  0.00000000000E+00  0.19130325080E+02  0.27677352785E+02  0.20001662919E+02 0.  0.
        -13    1    3    3    0    0  0.41341870947E+01 -0.91057073028E+01  0.95748459515E+01  0.13845369475E+02  0.10570000000E+00 0. -1.
         13    1    3    3    0    0 -0.41341870947E+01  0.91057073028E+01  0.95554791282E+01  0.13831983310E+02  0.10570000000E+00 0.  1.
<mgrwt>
<rscale>  0 0.20001663E+02</rscale>
<asrwt>0</asrwt>
<pdfrwt beam="1">  1        2 0.36005905E-02 0.20001663E+02</pdfrwt>
<pdfrwt beam="2">  1       -2 0.65746368E-03 0.20001663E+02</pdfrwt>
<totfact> 0.42276386E+06</totfact>
</mgrwt>
</event>
<event>
 4    1  0.1607476E-006  0.2006906E+02  0.7818608E-02  0.1743958E+00
          2   -1    0    0  501    0  0.00000000000E+00  0.00000000000E+00  0.33573370193E+01  0.33573380261E+01  0.26000000000E-02 0. -1.
         -2   -1    0    0    0  501 -0.00000000000E+00 -0.00000000000E+00 -0.29991552719E+02  0.29991552831E+02  0.26000000000E-02 0.  1.
        -13    1    1    2    0    0 -0.23578222115E+00  0.10010948370E+02 -0.12258409051E+02  0.15828911696E+02  0.10570000000E+00 0. -1.
         13    1    1    2    0    0  0.23578222115E+00 -0.10010948370E+02 -0.14375806648E+02  0.17519979161E+02  0.10570000000E+00 0.  1.
<mgrwt>
<rscale>  0 0.20069058E+02</rscale>
<asrwt>0</asrwt>
<pdfrwt beam="1">  1        2 0.51651349E-03 0.20069058E+02</pdfrwt>
<pdfrwt beam="2">  1       -2 0.46140849E-02 0.20069058E+02</pdfrwt>
<totfact> 0.35795359E+06</totfact>
</mgrwt>
</event>
<event>
 5    1  0.1607476E-006  0.2000212E+02  0.7818608E-02  0.1745286E+00
          2   -1    0    0  501    0  0.00000000000E+00  0.00000000000E+00  0.23036429035E+02  0.23036429182E+02  0.26000000000E-02 0. -1.
         -2   -1    0    0    0  501 -0.00000000000E+00 -0.00000000000E+00 -0.43418714779E+01  0.43418722564E+01  0.26000000000E-02 0.  1.
       1023    2    1    2    0    0  0.00000000000E+00  0.00000000000E+00  0.18694557558E+02  0.27378301439E+02  0.20002122572E+02 0.  0.
        -13    1    3    3    0    0  0.22984347314E+01  0.97327849333E+01  0.93305380099E+01  0.13677719723E+02  0.10570000000E+00 0.  1.
         13    1    3    3    0    0 -0.22984347314E+01 -0.97327849333E+01  0.93640195476E+01  0.13700581716E+02  0.10570000000E+00 0. -1.
<mgrwt>
<rscale>  0 0.20002123E+02</rscale>
<asrwt>0</asrwt>
<pdfrwt beam="1">  1        2 0.35440660E-02 0.20002123E+02</pdfrwt>
<pdfrwt beam="2">  1       -2 0.66798031E-03 0.20002123E+02</pdfrwt>
<totfact> 0.42210563E+06</totfact>
</mgrwt>
</event>
<event>
 5    1  0.1607476E-006  0.2000194E+02  0.7818608E-02  0.1745289E+00
          2   -1    0    0  501    0  0.00000000000E+00  0.00000000000E+00  0.20262401753E+01  0.20262418434E+01  0.26000000000E-02 0.  1.
         -2   -1    0    0    0  501 -0.00000000000E+00 -0.00000000000E+00 -0.49362058541E+02  0.49362058610E+02  0.26000000000E-02 0. -1.
       1023    2    1    2    0    0  0.00000000000E+00  0.00000000000E+00 -0.47335818366E+02  0.51388300453E+02  0.20001942983E+02 0.  0.
        -13    1    3    3    0    0  0.70429179646E+01 -0.70996825374E+01 -0.23689814079E+02  0.25714327702E+02  0.10570000000E+00 0. -1.
         13    1    3    3    0    0 -0.70429179646E+01  0.70996825374E+01 -0.23646004287E+02  0.25673972751E+02  0.10570000000E+00 0.  1.
<mgrwt>
<rscale>  0 0.20001943E+02</rscale>
<asrwt>0</asrwt>
<pdfrwt beam="1">  1        2 0.31172943E-03 0.20001943E+02</pdfrwt>
<pdfrwt beam="2">  1       -2 0.75941621E-02 0.20001943E+02</pdfrwt>
<totfact> 0.33953878E+06</totfact>
</mgrwt>
</event>
<event>
 5    1  0.1607476E-006  0.2000586E+02  0.7818608E-02  0.1745212E+00
          2   -1    0    0  501    0  0.00000000000E+00  0.00000000000E+00  0.78220390277E+02  0.78220390320E+02  0.26000000000E-02 0. -1.
         -2   -1    0    0    0  501 -0.00000000000E+00 -0.00000000000E+00 -0.12791867733E+01  0.12791894156E+01  0.26000000000E-02 0.  1.
       1023    2    1    2    0    0  0.00000000000E+00  0.00000000000E+00  0.76941203503E+02  0.79499579736E+02  0.20005858681E+02 0.  0.
        -13    1    3    3    0    0  0.62169919120E+01  0.78352256941E+01  0.38171302172E+02  0.39460122049E+02  0.10570000000E+00 0. -1.
         13    1    3    3    0    0 -0.62169919120E+01 -0.78352256941E+01  0.38769901331E+02  0.40039457686E+02  0.10570000000E+00 0.  1.
<mgrwt>
<rscale>  0 0.20005859E+02</rscale>
<asrwt>0</asrwt>
<pdfrwt beam="1">  1        2 0.12033905E-01 0.20005859E+02</pdfrwt>
<pdfrwt beam="2">  1       -2 0.19679819E-03 0.20005859E+02</pdfrwt>
<totfact> 0.50042178E+06</totfact>
</mgrwt>
</event>
<event>
 5    1  0.1607476E-006  0.2000319E+02  0.7818608E-02  0.1745265E+00
         -2   -1    0    0    0  501 -0.00000000000E+00  0.00000000000E+00  0.33694021576E+02  0.33694021676E+02  0.26000000000E-02 0.  1.
          2   -1    0    0  501    0  0.00000000000E+00 -0.00000000000E+00 -0.29688319029E+01  0.29688330414E+01  0.26000000000E-02 0. -1.
       1023    2    1    2    0    0  0.00000000000E+00  0.00000000000E+00  0.30725189673E+02  0.36662854718E+02  0.20003190636E+02 0.  0.
        -13    1    3    3    0    0 -0.79033720474E+01  0.61279253939E+01  0.15504295145E+02  0.18450178855E+02  0.10570000000E+00 0. -1.
         13    1    3    3    0    0  0.79033720474E+01 -0.61279253939E+01  0.15220894528E+02  0.18212675863E+02  0.10570000000E+00 0.  1.
<mgrwt>
<rscale>  0 0.20003191E+02</rscale>
<asrwt>0</asrwt>
<pdfrwt beam="2">  1        2 0.45674346E-03 0.20003191E+02</pdfrwt>
<pdfrwt beam="1">  1       -2 0.51836957E-02 0.20003191E+02</pdfrwt>
<totfact> 0.35610761E+06</totfact>
</mgrwt>
</event>
<event>
 5    1  0.1607476E-006  0.2000518E+02  0.7818608E-02  0.1745225E+00
         -2   -1    0    0    0  501 -0.00000000000E+00  0.00000000000E+00  0.17942949593E+01  0.17942968430E+01  0.26000000000E-02 0.  1.
          2   -1    0    0  501    0  0.00000000000E+00 -0.00000000000E+00 -0.55761053899E+02  0.55761053959E+02  0.26000000000E-02 0. -1.
       1023    2    1    2    0    0  0.00000000000E+00  0.00000000000E+00 -0.53966758939E+02  0.57555350802E+02  0.20005182717E+02 0.  0.
        -13    1    3    3    0    0  0.99962522582E+01 -0.27635588432E+00 -0.26413543059E+02  0.28243368447E+02  0.10570000000E+00 0.  1.
         13    1    3    3    0    0 -0.99962522582E+01  0.27635588432E+00 -0.27553215880E+02  0.29311982356E+02  0.10570000000E+00 0. -1.
<mgrwt>
<rscale>  0 0.20005183E+02</rscale>
<asrwt>0</asrwt>
<pdfrwt beam="2">  1        2 0.85786225E-02 0.20005183E+02</pdfrwt>
<pdfrwt beam="1">  1       -2 0.27604557E-03 0.20005183E+02</pdfrwt>
<totfact> 0.47096337E+06</totfact>
</mgrwt>
</event>
<event>
 5    1  0.1607476E-006  0.2000261E+02  0.7818608E-02  0.1745276E+00
          2   -1    0    0  501    0  0.00000000000E+00  0.00000000000E+00  0.25460515080E+02  0.25460515212E+02  0.26000000000E-02 0. -1.
         -2   -1    0    0    0  501 -0.00000000000E+00 -0.00000000000E+00 -0.39286750290E+01  0.39286758893E+01  0.26000000000E-02 0.  1.
       1023    2    1    2    0    0  0.00000000000E+00  0.00000000000E+00  0.21531840051E+02  0.29389191102E+02  0.20002610271E+02 0.  0.
        -13    1    3    3    0    0  0.46643990311E+01  0.88455463590E+01  0.10943593391E+02  0.14824767030E+02  0.10570000000E+00 0. -1.
         13    1    3    3    0    0 -0.46643990311E+01 -0.88455463590E+01  0.10588246660E+02  0.14564424071E+02  0.10570000000E+00 0.  1.
<mgrwt>
<rscale>  0 0.20002610E+02</rscale>
<asrwt>0</asrwt>
<pdfrwt beam="1">  1        2 0.39170024E-02 0.20002610E+02</pdfrwt>
<pdfrwt beam="2">  1       -2 0.60441162E-03 0.20002610E+02</pdfrwt>
<totfact> 0.42621557E+06</totfact>
</mgrwt>
</event>
<event>
 5    1  0.1607476E-006  0.2000222E+02  0.7818608E-02  0.1745284E+00
          2   -1    0    0  501    0  0.00000000000E+00  0.00000000000E+00  0.58983915014E+02  0.58983915071E+02  0.26000000000E-02 0. -1.
         -2   -1    0    0    0  501 -0.00000000000E+00 -0.00000000000E+00 -0.16957527932E+01  0.16957547864E+01  0.26000000000E-02 0.  1.
       1023    2    1    2    0    0  0.00000000000E+00  0.00000000000E+00  0.57288162221E+02  0.60679669858E+02  0.20002219962E+02 0.  0.
        -13    1    3    3    0    0 -0.56293258078E+01  0.82652251049E+01  0.28376616018E+02  0.30087318993E+02  0.10570000000E+00 0.  1.
         13    1    3    3    0    0  0.56293258078E+01 -0.82652251049E+01  0.28911546203E+02  0.30592350865E+02  0.10570000000E+00 0. -1.
<mgrwt>
<rscale>  0 0.20002220E+02</rscale>
<asrwt>0</asrwt>
<pdfrwt beam="1">  1        2 0.90744491E-02 0.20002220E+02</pdfrwt>
<pdfrwt beam="2">  1       -2 0.26088519E-03 0.20002220E+02</pdfrwt>
<totfact> 0.47549086E+06</totfact>
</mgrwt>
</event>
<event>
 5    1  0.1607476E-006  0.2000957E+02  0.7818608E-02  0.1745138E+00
         -2   -1    0    0    0  501 -0.00000000000E+00  0.00000000000E+00  0.12145890024E+01  0.12145917852E+01  0.26000000000E-02 0. -1.
          2   -1    0    0  501    0  0.00000000000E+00 -0.00000000000E+00 -0.82411086379E+02  0.82411086420E+02  0.26000000000E-02 0.  1.
       1023    2    1    2    0    0  0.00000000000E+00  0.00000000000E+00 -0.81196497377E+02  0.83625678205E+02  0.20009569437E+02 0.  0.
        -13    1    3    3    0    0  0.77593390451E+01 -0.63144072124E+01 -0.40907174221E+02  0.42112790884E+02  0.10570000000E+00 0.  1.
         13    1    3    3    0    0 -0.77593390451E+01  0.63144072124E+01 -0.40289323156E+02  0.41512887321E+02  0.10570000000E+00 0. -1.
<mgrwt>
<rscale>  0 0.20009569E+02</rscale>
<asrwt>0</asrwt>
<pdfrwt beam="2">  1        2 0.12678625E-01 0.20009569E+02</pdfrwt>
<pdfrwt beam="1">  1       -2 0.18686013E-03 0.20009569E+02</pdfrwt>
<totfact> 0.50549031E+06</totfact>
</mgrwt>
</event>
<event>
 5    1  0.1607476E-006  0.2001002E+02  0.7818608E-02  0.1745129E+00
          2   -1    0    0  501    0  0.00000000000E+00  0.00000000000E+00  0.92644063283E+00  0.92644428119E+00  0.26000000000E-02 0. -1.
         -2   -1    0    0    0  501 -0.00000000000E+00 -0.00000000000E+00 -0.10804798279E+03  0.10804798282E+03  0.26000000000E-02 0.  1.
       1023    2    1    2    0    0  0.00000000000E+00  0.00000000000E+00 -0.10712154216E+03  0.10897442710E+03  0.20010021694E+02 0.  0.
        -13    1    3    3    0    0 -0.13565136491E+01 -0.99114384860E+01 -0.54165433549E+02  0.55081594986E+02  0.10570000000E+00 0.  1.
         13    1    3    3    0    0  0.13565136491E+01  0.99114384860E+01 -0.52956108608E+02  0.53892832116E+02  0.10570000000E+00 0. -1.
<mgrwt>
<rscale>  0 0.20010022E+02</rscale>
<asrwt>0</asrwt>
<pdfrwt beam="1">  1        2 0.14252970E-03 0.20010022E+02</pdfrwt>
<pdfrwt beam="2">  1       -2 0.16622757E-01 0.20010022E+02</pdfrwt>
<totfact> 0.29124700E+06</totfact>
</mgrwt>
</event>
<event>
 5    1  0.1607476E-006  0.2001031E+02  0.7818608E-02  0.1745123E+00
         -2   -1    0    0    0  501 -0.00000000000E+00  0.00000000000E+00  0.21692948560E+01  0.21692964141E+01  0.26000000000E-02 0. -1.
          2   -1    0    0  501    0  0.00000000000E+00 -0.00000000000E+00 -0.46145432292E+02  0.46145432365E+02  0.26000000000E-02 0.  1.
       1023    2    1    2    0    0  0.00000000000E+00  0.00000000000E+00 -0.43976137436E+02  0.48314728779E+02  0.20010306175E+02 0.  0.
        -13    1    3    3    0    0 -0.66354037242E+01 -0.74839665219E+01 -0.22546951084E+02  0.24666059944E+02  0.10570000000E+00 0.  1.
         13    1    3    3    0    0  0.66354037242E+01  0.74839665219E+01 -0.21429186352E+02  0.23648668835E+02  0.10570000000E+00 0. -1.
<mgrwt>
<rscale>  0 0.20010306E+02</rscale>
<asrwt>0</asrwt>
<pdfrwt beam="2">  1        2 0.70992966E-02 0.20010306E+02</pdfrwt>
<pdfrwt beam="1">  1       -2 0.33373783E-03 0.20010306E+02</pdfrwt>
<totfact> 0.45732164E+06</totfact>
</mgrwt>
</event>
<event>
 4    1  0.1607476E-006  0.2005110E+02  0.7818608E-02  0.1744314E+00
          2   -1    0    0  501    0  0.00000000000E+00  0.00000000000E+00  0.35193786690E+01  0.35193796294E+01  0.26000000000E-02 0.  1.
         -2   -1    0    0    0  501 -0.00000000000E+00 -0.00000000000E+00 -0.28559497122E+02  0.28559497241E+02  0.26000000000E-02 0. -1.
        -13    1    1    2    0    0  0.41534720154E+01 -0.91120320686E+01 -0.11769538264E+02  0.15453597045E+02  0.10570000000E+00 0.  1.
         13    1    1    2    0    0 -0.41534720154E+01  0.91120320686E+01 -0.13270580190E+02  0.16625279825E+02  0.10570000000E+00 0. -1.
<mgrwt>
<rscale>  0 0.20051105E+02</rscale>
<asrwt>0</asrwt>
<pdfrwt beam="1">  1        2 0.54144297E-03 0.20051105E+02</pdfrwt>
<pdfrwt beam="2">  1       -2 0.43937687E-02 0.20051105E+02</pdfrwt>
<totfact> 0.36042812E+06</totfact>
</mgrwt>
</event>
<event>
 5    1  0.1607476E-006  0.2000163E+02  0.7818608E-02  0.1745296E+00
         -2   -1    0    0    0  501 -0.00000000000E+00  0.00000000000E+00  0.49306094630E+01  0.49306101485E+01  0.26000000000E-02 0. -1.
          2   -1    0    0  501    0  0.00000000000E+00 -0.00000000000E+00 -0.20284779044E+02  0.20284779210E+02  0.26000000000E-02 0.  1.
       1023    2    1    2    0    0  0.00000000000E+00  0.00000000000E+00 -0.15354169581E+02  0.25215389359E+02  0.20001633358E+02 0.  0.
        -13    1    3    3    0    0 -0.86084293387E+01 -0.50888294481E+01 -0.75981452180E+01  0.12559626749E+02  0.10570000000E+00 0.  1.
         13    1    3    3    0    0  0.86084293387E+01  0.50888294481E+01 -0.77560243627E+01  0.12655762610E+02  0.10570000000E+00 0. -1.
<mgrwt>
<rscale>  0 0.20001633E+02</rscale>
<asrwt>0</asrwt>
<pdfrwt beam="2">  1        2 0.31207352E-02 0.20001633E+02</pdfrwt>
<pdfrwt beam="1">  1       -2 0.75855538E-03 0.20001633E+02</pdfrwt>
<totfact> 0.41722620E+06</totfact>
</mgrwt>
</event>
<event>
 5    1  0.1607476E-006  0.2000212E+02  0.7818608E-02  0.1745286E+00
          2   -1    0    0  501    0  0.00000000000E+00  0.00000000000E+00  0.25859250317E+02  0.25859250448E+02  0.26000000000E-02 0. -1.
         -2   -1    0    0    0  501 -0.00000000000E+00 -0.00000000000E+00 -0.38679091258E+01  0.38679099997E+01  0.26000000000E-02 0.  1.
       1023    2    1    2    0    0  0.00000000000E+00  0.00000000000E+00  0.21991341191E+02  0.29727160448E+02  0.20002124409E+02 0.  0.
        -13    1    3    3    0    0  0.62950552748E+01 -0.77702983057E+01  0.10892531540E+02  0.14787280768E+02  0.10570000000E+00 0.  1.
         13    1    3    3    0    0 -0.62950552748E+01  0.77702983057E+01  0.11098809651E+02  0.14939879680E+02  0.10570000000E+00 0. -1.
<mgrwt>
<rscale>  0 0.20002124E+02</rscale>
<asrwt>0</asrwt>
<pdfrwt beam="1">  1        2 0.39783463E-02 0.20002124E+02</pdfrwt>
<pdfrwt beam="2">  1       -2 0.59506302E-03 0.20002124E+02</pdfrwt>
<totfact> 0.42690493E+06</totfact>
</mgrwt>
</event>
<event>
 4    1  0.1607476E-006  0.2175553E+02  0.7818608E-02  0.1712515E+00
         -2   -1    0    0    0  501 -0.00000000000E+00  0.00000000000E+00  0.12190928640E+01  0.12190956365E+01  0.26000000000E-02 0.  1.
          2   -1    0    0  501    0  0.00000000000E+00 -0.00000000000E+00 -0.97060430886E+02  0.97060430921E+02  0.26000000000E-02 0. -1.
        -13    1    1    2    0    0  0.92167732932E+01  0.57649396560E+01 -0.49556989709E+02  0.50735488967E+02  0.10570000000E+00 0. -1.
         13    1    1    2    0    0 -0.92167732932E+01 -0.57649396560E+01 -0.46284348313E+02  0.47544037591E+02  0.10570000000E+00 0.  1.
<mgrwt>
<rscale>  0 0.21755534E+02</rscale>
<asrwt>0</asrwt>
<pdfrwt beam="2">  1        2 0.14932368E-01 0.21755534E+02</pdfrwt>
<pdfrwt beam="1">  1       -2 0.18755304E-03 0.21755534E+02</pdfrwt>
<totfact> 0.43460759E+06</totfact>
</mgrwt>
</event>
<event>
 5    1  0.1607476E-006  0.2000229E+02  0.7818608E-02  0.1745283E+00
         -2   -1    0    0    0  501 -0.00000000000E+00  0.00000000000E+00  0.11380958755E+03  0.11380958758E+03  0.26000000000E-02 0. -1.
          2   -1    0    0  501    0  0.00000000000E+00 -0.00000000000E+00 -0.87885984397E+00  0.87886368985E+00  0.26000000000E-02 0.  1.
       1023    2    1    2    0    0  0.00000000000E+00  0.00000000000E+00  0.11293072770E+03  0.11468845127E+03  0.20002289729E+02 0.  0.
        -13    1    3    3    0    0 -0.62270803024E+01  0.78252820561E+01  0.56393347156E+02  0.57273312671E+02  0.10570000000E+00 0. -1.
         13    1    3    3    0    0  0.62270803024E+01 -0.78252820561E+01  0.56537380549E+02  0.57415138597E+02  0.10570000000E+00 0.  1.
<mgrwt>
<rscale>  0 0.20002290E+02</rscale>
<asrwt>0</asrwt>
<pdfrwt beam="2">  1        2 0.13520947E-03 0.20002290E+02</pdfrwt>
<pdfrwt beam="1">  1       -2 0.17509173E-01 0.20002290E+02</pdfrwt>
<totfact> 0.28750878E+06</totfact>
</mgrwt>
</event>
<event>
 5    1  0.1607476E-006  0.2000332E+02  0.7818608E-02  0.1745262E+00
          2   -1    0    0  501    0  0.00000000000E+00  0.00000000000E+00  0.96216954697E+01  0.96216958210E+01  0.26000000000E-02 0.  1.
         -2   -1    0    0    0  501 -0.00000000000E+00 -0.00000000000E+00 -0.10396632830E+02  0.10396633155E+02  0.26000000000E-02 0. -1.
       1023    2    1    2    0    0  0.00000000000E+00  0.00000000000E+00 -0.77493736016E+00  0.20018328976E+02  0.20003323901E+02 0.  0.
        -13    1    3    3    0    0 -0.49847656886E+01 -0.86702152522E+01 -0.34809721396E+00  0.10007640364E+02  0.10570000000E+00 0.  1.
         13    1    3    3    0    0  0.49847656886E+01  0.86702152522E+01 -0.42684014619E+00  0.10010688612E+02  0.10570000000E+00 0. -1.
<mgrwt>
<rscale>  0 0.20003324E+02</rscale>
<asrwt>0</asrwt>
<pdfrwt beam="1">  1        2 0.14802609E-02 0.20003324E+02</pdfrwt>
<pdfrwt beam="2">  1       -2 0.15994820E-02 0.20003324E+02</pdfrwt>
<totfact> 0.39336948E+06</totfact>
</mgrwt>
</event>
<event>
 5    1  0.1607476E-006  0.2000263E+02  0.7818608E-02  0.1745276E+00
          2   -1    0    0  501    0  0.00000000000E+00  0.00000000000E+00  0.14057993397E+02  0.14057993637E+02  0.26000000000E-02 0. -1.
         -2   -1    0    0    0  501 -0.00000000000E+00 -0.00000000000E+00 -0.71152595059E+01  0.71152599809E+01  0.26000000000E-02 0.  1.
       1023    2    1    2    0    0  0.00000000000E+00  0.00000000000E+00  0.69427338907E+01  0.21173253618E+02  0.20002627700E+02 0.  0.
        -13    1    3    3    0    0  0.98329548590E+01 -0.18242548409E+01  0.34863085987E+01  0.10591526194E+02  0.10570000000E+00 0.  1.
         13    1    3    3    0    0 -0.98329548590E+01  0.18242548409E+01  0.34564252920E+01  0.10581727424E+02  0.10570000000E+00 0. -1.
<mgrwt>
<rscale>  0 0.20002628E+02</rscale>
<asrwt>0</asrwt>
<pdfrwt beam="1">  1        2 0.21627683E-02 0.20002628E+02</pdfrwt>
<pdfrwt beam="2">  1       -2 0.10946554E-02 0.20002628E+02</pdfrwt>
<totfact> 0.40471411E+06</totfact>
</mgrwt>
</event>
<event>
 5    1  0.1607476E-006  0.2000200E+02  0.7818608E-02  0.1745288E+00
          2   -1    0    0  501    0  0.00000000000E+00  0.00000000000E+00  0.71886379612E+02  0.71886379659E+02  0.26000000000E-02 0. -1.
         -2   -1    0    0    0  501 -0.00000000000E+00 -0.00000000000E+00 -0.13913615490E+01  0.13913639782E+01  0.26000000000E-02 0.  1.
       1023    2    1    2    0    0  0.00000000000E+00  0.00000000000E+00  0.70495018063E+02  0.73277743637E+02  0.20002003421E+02 0.  0.
        -13    1    3    3    0    0  0.88350671213E+01 -0.46849968409E+01  0.35377359417E+02  0.36763791130E+02  0.10570000000E+00 0.  1.
         13    1    3    3    0    0 -0.88350671213E+01  0.46849968409E+01  0.35117658647E+02  0.36513952508E+02  0.10570000000E+00 0. -1.
<mgrwt>
<rscale>  0 0.20002003E+02</rscale>
<asrwt>0</asrwt>
<pdfrwt beam="1">  1        2 0.11059447E-01 0.20002003E+02</pdfrwt>
<pdfrwt beam="2">  1       -2 0.21405573E-03 0.20002003E+02</pdfrwt>
<totfact> 0.49253402E+06</totfact>
</mgrwt>
</event>
<event>
 5    1  0.1607476E-006  0.2000217E+02  0.7818608E-02  0.1745285E+00
          2   -1    0    0  501    0  0.00000000000E+00  0.00000000000E+00  0.54763682827E+01  0.54763688999E+01  0.26000000000E-02 0.  1.
         -2   -1    0    0    0  501 -0.00000000000E+00 -0.00000000000E+00 -0.18264236540E+02  0.18264236725E+02  0.26000000000E-02 0. -1.
       1023    2    1    2    0    0  0.00000000000E+00  0.00000000000E+00 -0.12787868258E+02  0.23740605625E+02  0.20002169404E+02 0.  0.
        -13    1    3    3    0    0  0.78323848001E+01  0.62173385935E+01 -0.65063575029E+01  0.11930859621E+02  0.10570000000E+00 0.  1.
         13    1    3    3    0    0 -0.78323848001E+01 -0.62173385935E+01 -0.62815107547E+01  0.11809746005E+02  0.10570000000E+00 0. -1.
<mgrwt>
<rscale>  0 0.20002169E+02</rscale>
<asrwt>0</asrwt>
<pdfrwt beam="1">  1        2 0.84251827E-03 0.20002169E+02</pdfrwt>
<pdfrwt beam="2">  1       -2 0.28098826E-02 0.20002169E+02</pdfrwt>
<totfact> 0.37704484E+06</totfact>
</mgrwt>
</event>
<event>
 5    1  0.1607476E-006  0.2000442E+02  0.7818608E-02  0.1745240E+00
          2   -1    0    0  501    0  0.00000000000E+00  0.00000000000E+00  0.87155115451E+02  0.87155115490E+02  0.26000000000E-02 0.  1.
         -2   -1    0    0    0  501 -0.00000000000E+00 -0.00000000000E+00 -0.11478854078E+01  0.11478883524E+01  0.26000000000E-02 0. -1.
       1023    2    1    2    0    0  0.00000000000E+00  0.00000000000E+00  0.86007230043E+02  0.88303003842E+02  0.20004421208E+02 0.  0.
        -13    1    3    3    0    0  0.92539798429E+01  0.37907457803E+01  0.43730922698E+02  0.44859900457E+02  0.10570000000E+00 0. -1.
         13    1    3    3    0    0 -0.92539798429E+01 -0.37907457803E+01  0.42276307345E+02  0.43443103385E+02  0.10570000000E+00 0.  1.
<mgrwt>
<rscale>  0 0.20004421E+02</rscale>
<asrwt>0</asrwt>
<pdfrwt beam="1">  1        2 0.13408483E-01 0.20004421E+02</pdfrwt>
<pdfrwt beam="2">  1       -2 0.17659794E-03 0.20004421E+02</pdfrwt>
<totfact> 0.51168644E+06</totfact>
</mgrwt>
</event>
<event>
 4    1  0.1607476E-006  0.2006440E+02  0.7818608E-02  0.1744050E+00
          2   -1    0    0  501    0  0.00000000000E+00  0.00000000000E+00  0.66036093601E+02  0.66036093652E+02  0.26000000000E-02 0. -1.
         -2   -1    0    0    0  501 -0.00000000000E+00 -0.00000000000E+00 -0.15240904188E+01  0.15240926365E+01  0.26000000000E-02 0.  1.
        -13    1    1    2    0    0  0.37953350343E+01  0.92787723738E+01  0.31024810897E+02  0.32604451360E+02  0.10570000000E+00 0.  1.
         13    1    1    2    0    0 -0.37953350343E+01 -0.92787723738E+01  0.33487192285E+02  0.34955734929E+02  0.10570000000E+00 0. -1.
<mgrwt>
<rscale>  0 0.20064402E+02</rscale>
<asrwt>0</asrwt>
<pdfrwt beam="1">  1        2 0.10159399E-01 0.20064402E+02</pdfrwt>
<pdfrwt beam="2">  1       -2 0.23447564E-03 0.20064402E+02</pdfrwt>
<totfact> 0.48156179E+06</totfact>
</mgrwt>
</event>
<event>
 4    1  0.1607476E-006  0.2003613E+02  0.7818608E-02  0.1744611E+00
          2   -1    0    0  501    0  0.00000000000E+00  0.00000000000E+00  0.27521718140E+01  0.27521730421E+01  0.26000000000E-02 0.  1.
         -2   -1    0    0    0  501 -0.00000000000E+00 -0.00000000000E+00 -0.36466318623E+02  0.36466318715E+02  0.26000000000E-02 0. -1.
        -13    1    1    2    0    0 -0.77364755939E+01  0.63636552772E+01 -0.16926680061E+02  0.19669083189E+02  0.10570000000E+00 0.  1.
         13    1    1    2    0    0  0.77364755939E+01 -0.63636552772E+01 -0.16787466747E+02  0.19549408569E+02  0.10570000000E+00 0. -1.
<mgrwt>
<rscale>  0 0.20036127E+02</rscale>
<asrwt>0</asrwt>
<pdfrwt beam="1">  1        2 0.42341118E-03 0.20036127E+02</pdfrwt>
<pdfrwt beam="2">  1       -2 0.56102026E-02 0.20036127E+02</pdfrwt>
<totfact> 0.35168550E+06</totfact>
</mgrwt>
</event>
<event>
 5    1  0.1607476E-006  0.2000122E+02  0.7818608E-02  0.1745304E+00
         -2   -1    0    0    0  501 -0.00000000000E+00  0.00000000000E+00  0.93360468817E+02  0.93360468853E+02  0.26000000000E-02 0. -1.
          2   -1    0    0  501    0  0.00000000000E+00 -0.00000000000E+00 -0.10712464439E+01  0.10712495991E+01  0.26000000000E-02 0.  1.
       1023    2    1    2    0    0  0.00000000000E+00  0.00000000000E+00  0.92289222373E+02  0.94431718452E+02  0.20001222053E+02 0.  0.
        -13    1    3    3    0    0  0.99733170478E+01  0.73053858763E+00  0.46061638024E+02  0.47134768585E+02  0.10570000000E+00 0. -1.
         13    1    3    3    0    0 -0.99733170478E+01 -0.73053858763E+00  0.46227584348E+02  0.47296949867E+02  0.10570000000E+00 0.  1.
<mgrwt>
<rscale>  0 0.20001222E+02</rscale>
<asrwt>0</asrwt>
<pdfrwt beam="2">  1        2 0.16480742E-03 0.20001222E+02</pdfrwt>
<pdfrwt beam="1">  1       -2 0.14363147E-01 0.20001222E+02</pdfrwt>
<totfact> 0.30216962E+06</totfact>
</mgrwt>
</event>
<event>
 5    1  0.1607476E-006  0.2000474E+02  0.7818608E-02  0.1745234E+00
          2   -1    0    0  501    0  0.00000000000E+00  0.00000000000E+00  0.16403112746E+01  0.16403133352E+01  0.26000000000E-02 0.  1.
         -2   -1    0    0    0  501 -0.00000000000E+00 -0.00000000000E+00 -0.60992878779E+02  0.60992878835E+02  0.26000000000E-02 0. -1.
       1023    2    1    2    0    0  0.00000000000E+00  0.00000000000E+00 -0.59352567505E+02  0.62633192170E+02  0.20004736739E+02 0.  0.
        -13    1    3    3    0    0  0.96757565560E+00 -0.99546509889E+01 -0.29895929399E+02  0.31524737050E+02  0.10570000000E+00 0.  1.
         13    1    3    3    0    0 -0.96757565560E+00  0.99546509889E+01 -0.29456638106E+02  0.31108455120E+02  0.10570000000E+00 0. -1.
<mgrwt>
<rscale>  0 0.20004737E+02</rscale>
<asrwt>0</asrwt>
<pdfrwt beam="1">  1        2 0.25235579E-03 0.20004737E+02</pdfrwt>
<pdfrwt beam="2">  1       -2 0.93835182E-02 0.20004737E+02</pdfrwt>
<totfact> 0.32853318E+06</totfact>
</mgrwt>
</event>
<event>
 5    1  0.1607476E-006  0.2000297E+02  0.7818608E-02  0.1745269E+00
         -2   -1    0    0    0  501 -0.00000000000E+00  0.00000000000E+00  0.27829993734E+02  0.27829993856E+02  0.26000000000E-02 0.  1.
          2   -1    0    0  501    0  0.00000000000E+00 -0.00000000000E+00 -0.35943137686E+01  0.35943147090E+01  0.26000000000E-02 0. -1.
       1023    2    1    2    0    0  0.00000000000E+00  0.00000000000E+00  0.24235679966E+02  0.31424308565E+02  0.20002974413E+02 0.  0.
        -13    1    3    3    0    0 -0.75384778079E+01  0.65718879059E+01  0.12094775685E+02  0.15694366176E+02  0.10570000000E+00 0. -1.
         13    1    3    3    0    0  0.75384778079E+01 -0.65718879059E+01  0.12140904281E+02  0.15729942389E+02  0.10570000000E+00 0.  1.
<mgrwt>
<rscale>  0 0.20002974E+02</rscale>
<asrwt>0</asrwt>
<pdfrwt beam="2">  1        2 0.55297144E-03 0.20002974E+02</pdfrwt>
<pdfrwt beam="1">  1       -2 0.42815375E-02 0.20002974E+02</pdfrwt>
<totfact> 0.36324754E+06</totfact>
</mgrwt>
</event>
<event>
 4    1  0.1607476E-006  0.2035308E+02  0.7818608E-02  0.1738396E+00
          2   -1    0    0  501    0  0.00000000000E+00  0.00000000000E+00  0.86959686830E+02  0.86959686869E+02  0.26000000000E-02 0. -1.
         -2   -1    0    0    0  501 -0.00000000000E+00 -0.00000000000E+00 -0.11909174268E+01  0.11909202649E+01  0.26000000000E-02 0.  1.
        -13    1    1    2    0    0 -0.52981573819E+01 -0.86828169660E+01  0.41592456991E+02  0.42818283865E+02  0.10570000000E+00 0.  1.
         13    1    1    2    0    0  0.52981573819E+01  0.86828169660E+01  0.44176312412E+02  0.45332323269E+02  0.10570000000E+00 0. -1.
<mgrwt>
<rscale>  0 0.20353077E+02</rscale>
<asrwt>0</asrwt>
<pdfrwt beam="1">  1        2 0.13378416E-01 0.20353077E+02</pdfrwt>
<pdfrwt beam="2">  1       -2 0.18321826E-03 0.20353077E+02</pdfrwt>
<totfact> 0.49224549E+06</totfact>
</mgrwt>
</event>
<event>
 5    1  0.1607476E-006  0.2000275E+02  0.7818608E-02  0.1745273E+00
         -2   -1    0    0    0  501 -0.00000000000E+00  0.00000000000E+00  0.14448381220E+01  0.14448404614E+01  0.26000000000E-02 0.  1.
          2   -1    0    0  501    0  0.00000000000E+00 -0.00000000000E+00 -0.69230894569E+02  0.69230894618E+02  0.26000000000E-02 0. -1.
       1023    2    1    2    0    0  0.00000000000E+00  0.00000000000E+00 -0.67786056447E+02  0.70675735079E+02  0.20002751820E+02 0.  0.
        -13    1    3    3    0    0 -0.46753870553E+01 -0.88405356691E+01 -0.34052323470E+02  0.35490649772E+02  0.10570000000E+00 0. -1.
         13    1    3    3    0    0  0.46753870553E+01  0.88405356691E+01 -0.33733732977E+02  0.35185085307E+02  0.10570000000E+00 0.  1.
<mgrwt>
<rscale>  0 0.20002752E+02</rscale>
<asrwt>0</asrwt>
<pdfrwt beam="2">  1        2 0.10650904E-01 0.20002752E+02</pdfrwt>
<pdfrwt beam="1">  1       -2 0.22228303E-03 0.20002752E+02</pdfrwt>
<totfact> 0.48904763E+06</totfact>
</mgrwt>
</event>
<event>
 5    1  0.1607476E-006  0.2000484E+02  0.7818608E-02  0.1745232E+00
         -2   -1    0    0    0  501 -0.00000000000E+00  0.00000000000E+00  0.28110311126E+01  0.28110323150E+01  0.26000000000E-02 0.  1.
          2   -1    0    0  501    0  0.00000000000E+00 -0.00000000000E+00 -0.35591354719E+02  0.35591354814E+02  0.26000000000E-02 0. -1.
       1023    2    1    2    0    0  0.00000000000E+00  0.00000000000E+00 -0.32780323606E+02  0.38402387129E+02  0.20004842450E+02 0.  0.
        -13    1    3    3    0    0 -0.16919726221E+01  0.98577056665E+01 -0.16411668315E+02  0.19219551549E+02  0.10570000000E+00 0. -1.
         13    1    3    3    0    0  0.16919726221E+01 -0.98577056665E+01 -0.16368655291E+02  0.19182835580E+02  0.10570000000E+00 0.  1.
<mgrwt>
<rscale>  0 0.20004842E+02</rscale>
<asrwt>0</asrwt>
<pdfrwt beam="2">  1        2 0.54755928E-02 0.20004842E+02</pdfrwt>
<pdfrwt beam="1">  1       -2 0.43246645E-03 0.20004842E+02</pdfrwt>
<totfact> 0.44214860E+06</totfact>
</mgrwt>
</event>
<event>
 5    1  0.1607476E-006  0.2000117E+02  0.7818608E-02  0.1745305E+00
          2   -1    0    0  501    0  0.00000000000E+00  0.00000000000E+00  0.16345776565E+02  0.16345776772E+02  0.26000000000E-02 0.  1.
         -2   -1    0    0    0  501 -0.00000000000E+00 -0.00000000000E+00 -0.61185063084E+01  0.61185068608E+01  0.26000000000E-02 0. -1.
       1023    2    1    2    0    0  0.00000000000E+00  0.00000000000E+00  0.10227270257E+02  0.22464283633E+02  0.20001174521E+02 0.  0.
        -13    1    3    3    0    0  0.43232458455E+01  0.90172091761E+01  0.51051480253E+01  0.11228277910E+02  0.10570000000E+00 0.  1.
         13    1    3    3    0    0 -0.43232458455E+01 -0.90172091761E+01  0.51221222315E+01  0.11236005723E+02  0.10570000000E+00 0. -1.
<mgrwt>
<rscale>  0 0.20001175E+02</rscale>
<asrwt>0</asrwt>
<pdfrwt beam="1">  1        2 0.25147349E-02 0.20001175E+02</pdfrwt>
<pdfrwt beam="2">  1       -2 0.94130872E-03 0.20001175E+02</pdfrwt>
<totfact> 0.40965617E+06</totfact>
</mgrwt>
</event>
<event>
 4    1  0.1607476E-006  0.2019358E+02  0.7818608E-02  0.1741506E+00
         -2   -1    0    0    0  501 -0.00000000000E+00  0.00000000000E+00  0.55105118855E+02  0.55105118917E+02  0.26000000000E-02 0. -1.
          2   -1    0    0  501    0  0.00000000000E+00 -0.00000000000E+00 -0.18500125336E+01  0.18500143606E+01  0.26000000000E-02 0.  1.
        -13    1    1    2    0    0 -0.94103591763E+01 -0.33841889523E+01  0.30542248815E+02  0.32137948439E+02  0.10570000000E+00 0. -1.
         13    1    1    2    0    0  0.94103591763E+01  0.33841889523E+01  0.22712857507E+02  0.24817184839E+02  0.10570000000E+00 0.  1.
<mgrwt>
<rscale>  0 0.20193585E+02</rscale>
<asrwt>0</asrwt>
<pdfrwt beam="2">  1        2 0.28461748E-03 0.20193585E+02</pdfrwt>
<pdfrwt beam="1">  1       -2 0.84777101E-02 0.20193585E+02</pdfrwt>
<totfact> 0.32714466E+06</totfact>
</mgrwt>
</event>
<event>
 5    1  0.1607476E-006  0.2001033E+02  0.7818608E-02  0.1745123E+00
         -2   -1    0    0    0  501 -0.00000000000E+00  0.00000000000E+00  0.59324294541E+01  0.59324300238E+01  0.26000000000E-02 0.  1.
          2   -1    0    0  501    0  0.00000000000E+00 -0.00000000000E+00 -0.16873908704E+02  0.16873908904E+02  0.26000000000E-02 0. -1.
       1023    2    1    2    0    0  0.00000000000E+00  0.00000000000E+00 -0.10941479250E+02  0.22806338928E+02  0.20010325513E+02 0.  0.
        -13    1    3    3    0    0 -0.14320615094E+01 -0.99000759865E+01 -0.56675024127E+01  0.11497567603E+02  0.10570000000E+00 0.  1.
         13    1    3    3    0    0  0.14320615094E+01  0.99000759865E+01 -0.52739768369E+01  0.11308771325E+02  0.10570000000E+00 0. -1.
<mgrwt>
<rscale>  0 0.20010326E+02</rscale>
<asrwt>0</asrwt>
<pdfrwt beam="2">  1        2 0.25959860E-02 0.20010326E+02</pdfrwt>
<pdfrwt beam="1">  1       -2 0.91268152E-03 0.20010326E+02</pdfrwt>
<totfact> 0.41030044E+06</totfact>
</mgrwt>
</event>
<event>
 4    1  0.1607476E-006  0.2007785E+02  0.7818608E-02  0.1743784E+00
          2   -1    0    0  501    0  0.00000000000E+00  0.00000000000E+00  0.78084018737E+02  0.78084018780E+02  0.26000000000E-02 0. -1.
         -2   -1    0    0    0  501 -0.00000000000E+00 -0.00000000000E+00 -0.12906597709E+01  0.12906623897E+01  0.26000000000E-02 0.  1.
        -13    1    1    2    0    0 -0.70338469024E+01  0.71379202481E+01  0.40715131188E+02  0.41930394559E+02  0.10570000000E+00 0. -1.
         13    1    1    2    0    0  0.70338469024E+01 -0.71379202481E+01  0.36078227778E+02  0.37444286611E+02  0.10570000000E+00 0.  1.
<mgrwt>
<rscale>  0 0.20077849E+02</rscale>
<asrwt>0</asrwt>
<pdfrwt beam="1">  1        2 0.12012922E-01 0.20077849E+02</pdfrwt>
<pdfrwt beam="2">  1       -2 0.19856332E-03 0.20077849E+02</pdfrwt>
<totfact> 0.49628523E+06</totfact>
</mgrwt>
</event>
<event>
 4    1  0.1607476E-006  0.2002212E+02  0.7818608E-02  0.1744889E+00
          2   -1    0    0  501    0  0.00000000000E+00  0.00000000000E+00  0.21022088197E+01  0.21022104275E+01  0.26000000000E-02 0. -1.
         -2   -1    0    0    0  501 -0.00000000000E+00 -0.00000000000E+00 -0.47674254234E+02  0.47674254305E+02  0.26000000000E-02 0.  1.
        -13    1    1    2    0    0  0.29513189858E+01  0.95589656980E+01 -0.23668484641E+02  0.25696156263E+02  0.10570000000E+00 0. -1.
         13    1    1    2    0    0 -0.29513189858E+01 -0.95589656980E+01 -0.21903560773E+02  0.24080308469E+02  0.10570000000E+00 0.  1.
<mgrwt>
<rscale>  0 0.20022116E+02</rscale>
<asrwt>0</asrwt>
<pdfrwt beam="1">  1        2 0.32341691E-03 0.20022116E+02</pdfrwt>
<pdfrwt beam="2">  1       -2 0.73345000E-02 0.20022116E+02</pdfrwt>
<totfact> 0.34045550E+06</totfact>
</mgrwt>
</event>
<event>
 4    1  0.1607476E-006  0.2013203E+02  0.7818608E-02  0.1742715E+00
         -2   -1    0    0    0  501 -0.00000000000E+00  0.00000000000E+00  0.31757334132E+01  0.31757344775E+01  0.26000000000E-02 0.  1.
          2   -1    0    0  501    0  0.00000000000E+00 -0.00000000000E+00 -0.31905897793E+02  0.31905897899E+02  0.26000000000E-02 0. -1.
        -13    1    1    2    0    0  0.90753582396E+01 -0.43471911509E+01 -0.13962868680E+02  0.17211422728E+02  0.10570000000E+00 0. -1.
         13    1    1    2    0    0 -0.90753582396E+01  0.43471911509E+01 -0.14767295700E+02  0.17870209648E+02  0.10570000000E+00 0.  1.
<mgrwt>
<rscale>  0 0.20132029E+02</rscale>
<asrwt>0</asrwt>
<pdfrwt beam="2">  1        2 0.49085995E-02 0.20132029E+02</pdfrwt>
<pdfrwt beam="1">  1       -2 0.48857448E-03 0.20132029E+02</pdfrwt>
<totfact> 0.43033698E+06</totfact>
</mgrwt>
</event>
<event>
 5    1  0.1607476E-006  0.2000309E+02  0.7818608E-02  0.1745267E+00
         -2   -1    0    0    0  501 -0.00000000000E+00  0.00000000000E+00  0.28062636135E+02  0.28062636255E+02  0.26000000000E-02 0.  1.
          2   -1    0    0  501    0  0.00000000000E+00 -0.00000000000E+00 -0.35645575327E+01  0.35645584810E+01  0.26000000000E-02 0. -1.
       1023    2    1    2    0    0  0.00000000000E+00  0.00000000000E+00  0.24498078602E+02  0.31627194736E+02  0.20003089554E+02 0.  0.
        -13    1    3    3    0    0 -0.48659501785E+01  0.87372516000E+01  0.12331025461E+02  0.15877102950E+02  0.10570000000E+00 0. -1.
         13    1    3    3    0    0  0.48659501785E+01 -0.87372516000E+01  0.12167053141E+02  0.15750091787E+02  0.10570000000E+00 0.  1.
<mgrwt>
<rscale>  0 0.20003090E+02</rscale>
<asrwt>0</asrwt>
<pdfrwt beam="2">  1        2 0.54839351E-03 0.20003090E+02</pdfrwt>
<pdfrwt beam="1">  1       -2 0.43173290E-02 0.20003090E+02</pdfrwt>
<totfact> 0.36294603E+06</totfact>
</mgrwt>
</event>
<event>
 5    1  0.1607476E-006  0.2000179E+02  0.7818608E-02  0.1745292E+00
         -2   -1    0    0    0  501 -0.00000000000E+00  0.00000000000E+00  0.13557646638E+02  0.13557646887E+02  0.26000000000E-02 0. -1.
          2   -1    0    0  501    0  0.00000000000E+00 -0.00000000000E+00 -0.73772328369E+01  0.73772332951E+01  0.26000000000E-02 0.  1.
       1023    2    1    2    0    0  0.00000000000E+00  0.00000000000E+00  0.61804138013E+01  0.20934880183E+02  0.20001792257E+02 0.  0.
        -13    1    3    3    0    0 -0.90757555773E+01 -0.41993038453E+01  0.31499558863E+01  0.10485079240E+02  0.10570000000E+00 0.  1.
         13    1    3    3    0    0  0.90757555773E+01  0.41993038453E+01  0.30304579150E+01  0.10449800943E+02  0.10570000000E+00 0. -1.
<mgrwt>
<rscale>  0 0.20001792E+02</rscale>
<asrwt>0</asrwt>
<pdfrwt beam="2">  1        2 0.11349590E-02 0.20001792E+02</pdfrwt>
<pdfrwt beam="1">  1       -2 0.20857918E-02 0.20001792E+02</pdfrwt>
<totfact> 0.38582636E+06</totfact>
</mgrwt>
</event>
<event>
 5    1  0.1607476E-006  0.2000133E+02  0.7818608E-02  0.1745302E+00
         -2   -1    0    0    0  501 -0.00000000000E+00  0.00000000000E+00  0.13322490092E+02  0.13322490346E+02  0.26000000000E-02 0. -1.
          2   -1    0    0  501    0  0.00000000000E+00 -0.00000000000E+00 -0.75071013852E+01  0.75071018355E+01  0.26000000000E-02 0.  1.
       1023    2    1    2    0    0  0.00000000000E+00  0.00000000000E+00  0.58153887072E+01  0.20829592182E+02  0.20001329072E+02 0.  0.
        -13    1    3    3    0    0 -0.20666530582E+00  0.99979496920E+01  0.29287832580E+01  0.10420683877E+02  0.10570000000E+00 0. -1.
         13    1    3    3    0    0  0.20666530582E+00 -0.99979496920E+01  0.28866054491E+01  0.10408908305E+02  0.10570000000E+00 0.  1.
<mgrwt>
<rscale>  0 0.20001329E+02</rscale>
<asrwt>0</asrwt>
<pdfrwt beam="2">  1        2 0.11549387E-02 0.20001329E+02</pdfrwt>
<pdfrwt beam="1">  1       -2 0.20496139E-02 0.20001329E+02</pdfrwt>
<totfact> 0.38634868E+06</totfact>
</mgrwt>
</event>
<event>
 4    1  0.1638248E-006  0.2080618E+02  0.7818608E-02  0.1729756E+00
         -2   -1    0    0    0  501 -0.00000000000E+00  0.00000000000E+00  0.12532327365E+01  0.12532354335E+01  0.26000000000E-02 0. -1.
          2   -1    0    0  501    0  0.00000000000E+00 -0.00000000000E+00 -0.86355960892E+02  0.86355960931E+02  0.26000000000E-02 0.  1.
        -13    1    1    2    0    0 -0.60198631673E+01  0.82555555081E+01 -0.50781285090E+02  0.51799064057E+02  0.10570000000E+00 0. -1.
         13    1    1    2    0    0  0.60198631673E+01 -0.82555555081E+01 -0.34321443065E+02  0.35810132307E+02  0.10570000000E+00 0.  1.
<mgrwt>
<rscale>  0 0.20806176E+02</rscale>
<asrwt>0</asrwt>
<pdfrwt beam="2">  1        2 0.13285528E-01 0.20806176E+02</pdfrwt>
<pdfrwt beam="1">  1       -2 0.19280531E-03 0.20806176E+02</pdfrwt>
<totfact> 0.46804733E+06</totfact>
</mgrwt>
</event>
<event>
 5    1  0.1607476E-006  0.2000516E+02  0.7818608E-02  0.1745225E+00
         -2   -1    0    0    0  501 -0.00000000000E+00  0.00000000000E+00  0.86170964050E+02  0.86170964089E+02  0.26000000000E-02 0. -1.
          2   -1    0    0  501    0  0.00000000000E+00 -0.00000000000E+00 -0.11610812730E+01  0.11610841841E+01  0.26000000000E-02 0.  1.
       1023    2    1    2    0    0  0.00000000000E+00  0.00000000000E+00  0.85009882777E+02  0.87332048273E+02  0.20005161480E+02 0.  0.
        -13    1    3    3    0    0  0.90894422929E+01 -0.41731536136E+01  0.42877331877E+02  0.44028512735E+02  0.10570000000E+00 0.  1.
         13    1    3    3    0    0 -0.90894422929E+01  0.41731536136E+01  0.42132550900E+02  0.43303535538E+02  0.10570000000E+00 0. -1.
<mgrwt>
<rscale>  0 0.20005161E+02</rscale>
<asrwt>0</asrwt>
<pdfrwt beam="2">  1        2 0.17862809E-03 0.20005161E+02</pdfrwt>
<pdfrwt beam="1">  1       -2 0.13257074E-01 0.20005161E+02</pdfrwt>
<totfact> 0.30753083E+06</totfact>
</mgrwt>
</event>
<event>
 5    1  0.1607476E-006  0.2000517E+02  0.7818608E-02  0.1745225E+00
         -2   -1    0    0    0  501 -0.00000000000E+00  0.00000000000E+00  0.19024499752E+02  0.19024499930E+02  0.26000000000E-02 0. -1.
          2   -1    0    0  501    0  0.00000000000E+00 -0.00000000000E+00 -0.52590999059E+01  0.52591005486E+01  0.26000000000E-02 0.  1.
       1023    2    1    2    0    0  0.00000000000E+00  0.00000000000E+00  0.13765399846E+02  0.24283600478E+02  0.20005174812E+02 0.  0.
        -13    1    3    3    0    0 -0.99132146990E+01 -0.13201065056E+01  0.70787138026E+01  0.12252912651E+02  0.10570000000E+00 0.  1.
         13    1    3    3    0    0  0.99132146990E+01  0.13201065056E+01  0.66866860437E+01  0.12030687827E+02  0.10570000000E+00 0. -1.
<mgrwt>
<rscale>  0 0.20005175E+02</rscale>
<asrwt>0</asrwt>
<pdfrwt beam="2">  1        2 0.80909235E-03 0.20005175E+02</pdfrwt>
<pdfrwt beam="1">  1       -2 0.29268462E-02 0.20005175E+02</pdfrwt>
<totfact> 0.37567736E+06</totfact>
</mgrwt>
</event>
<event>
 4    1  0.1607476E-006  0.2001661E+02  0.7818608E-02  0.1744998E+00
         -2   -1    0    0    0  501 -0.00000000000E+00  0.00000000000E+00  0.31697147207E+02  0.31697147314E+02  0.26000000000E-02 0. -1.
          2   -1    0    0  501    0  0.00000000000E+00 -0.00000000000E+00 -0.31600985962E+01  0.31600996658E+01  0.26000000000E-02 0.  1.
        -13    1    1    2    0    0 -0.56369364170E+01 -0.82689363442E+01  0.14386606837E+02  0.17525295695E+02  0.10570000000E+00 0. -1.
         13    1    1    2    0    0  0.56369364170E+01  0.82689363442E+01  0.14150441775E+02  0.17331951285E+02  0.10570000000E+00 0.  1.
<mgrwt>
<rscale>  0 0.20016606E+02</rscale>
<asrwt>0</asrwt>
<pdfrwt beam="2">  1        2 0.48616910E-03 0.20016606E+02</pdfrwt>
<pdfrwt beam="1">  1       -2 0.48764843E-02 0.20016606E+02</pdfrwt>
<totfact> 0.35793630E+06</totfact>
</mgrwt>
</event>
<event>
 5    1  0.1607476E-006  0.2000322E+02  0.7818608E-02  0.1745264E+00
          2   -1    0    0  501    0  0.00000000000E+00  0.00000000000E+00  0.10889982236E+02  0.10889982546E+02  0.26000000000E-02 0.  1.
         -2   -1    0    0    0  501 -0.00000000000E+00 -0.00000000000E+00 -0.91857054910E+01  0.91857058589E+01  0.26000000000E-02 0. -1.
       1023    2    1    2    0    0  0.00000000000E+00  0.00000000000E+00  0.17042767447E+01  0.20075688405E+02  0.20003217384E+02 0.  0.
        -13    1    3    3    0    0  0.90105720526E+01  0.43373795838E+01  0.71848846059E+00  0.10026498318E+02  0.10570000000E+00 0.  1.
         13    1    3    3    0    0 -0.90105720526E+01 -0.43373795838E+01  0.98578828412E+00  0.10049190087E+02  0.10570000000E+00 0. -1.
<mgrwt>
<rscale>  0 0.20003217E+02</rscale>
<asrwt>0</asrwt>
<pdfrwt beam="1">  1        2 0.16753819E-02 0.20003217E+02</pdfrwt>
<pdfrwt beam="2">  1       -2 0.14131855E-02 0.20003217E+02</pdfrwt>
<totfact> 0.39696770E+06</totfact>
</mgrwt>
</event>
<event>
 5    1  0.1607476E-006  0.2000633E+02  0.7818608E-02  0.1745202E+00
         -2   -1    0    0    0  501 -0.00000000000E+00  0.00000000000E+00  0.11695029307E+02  0.11695029596E+02  0.26000000000E-02 0.  1.
          2   -1    0    0  501    0  0.00000000000E+00 -0.00000000000E+00 -0.85560566792E+01  0.85560570743E+01  0.26000000000E-02 0. -1.
       1023    2    1    2    0    0  0.00000000000E+00  0.00000000000E+00  0.31389726281E+01  0.20251086671E+02  0.20006333052E+02 0.  0.
        -13    1    3    3    0    0 -0.91999602210E+01  0.39258941542E+01  0.15856528348E+01  0.10128049189E+02  0.10570000000E+00 0.  1.
         13    1    3    3    0    0  0.91999602210E+01 -0.39258941542E+01  0.15533197933E+01  0.10123037481E+02  0.10570000000E+00 0. -1.
<mgrwt>
<rscale>  0 0.20006333E+02</rscale>
<asrwt>0</asrwt>
<pdfrwt beam="2">  1        2 0.13163165E-02 0.20006333E+02</pdfrwt>
<pdfrwt beam="1">  1       -2 0.17992353E-02 0.20006333E+02</pdfrwt>
<totfact> 0.38986980E+06</totfact>
</mgrwt>
</event>
<event>
 5    1  0.1708847E-006  0.2000150E+02  0.7818608E-02  0.1745298E+00
          2   -1    0    0  501    0  0.00000000000E+00  0.00000000000E+00  0.73270876091E+02  0.73270876137E+02  0.26000000000E-02 0. -1.
         -2   -1    0    0    0  501 -0.00000000000E+00 -0.00000000000E+00 -0.13650019370E+01  0.13650044132E+01  0.26000000000E-02 0.  1.
       1023    2    1    2    0    0  0.00000000000E+00  0.00000000000E+00  0.71905874154E+02  0.74635880550E+02  0.20001498136E+02 0.  0.
        -13    1    3    3    0    0 -0.88227904202E+01 -0.47076524615E+01  0.35901918960E+02  0.37268788282E+02  0.10570000000E+00 0. -1.
         13    1    3    3    0    0  0.88227904202E+01  0.47076524615E+01  0.36003955194E+02  0.37367092268E+02  0.10570000000E+00 0.  1.
<mgrwt>
<rscale>  0 0.20001498E+02</rscale>
<asrwt>0</asrwt>
<pdfrwt beam="1">  1        2 0.11272444E-01 0.20001498E+02</pdfrwt>
<pdfrwt beam="2">  1       -2 0.21000047E-03 0.20001498E+02</pdfrwt>
<totfact> 0.49434574E+06</totfact>
</mgrwt>
</event>
<event>
 5    1  0.1607476E-006  0.2001057E+02  0.7818608E-02  0.1745118E+00
          2   -1    0    0  501    0  0.00000000000E+00  0.00000000000E+00  0.41116017126E+02  0.41116017208E+02  0.26000000000E-02 0. -1.
         -2   -1    0    0    0  501 -0.00000000000E+00 -0.00000000000E+00 -0.24347132597E+01  0.24347146479E+01  0.26000000000E-02 0.  1.
       1023    2    1    2    0    0  0.00000000000E+00  0.00000000000E+00  0.38681303866E+02  0.43550731856E+02  0.20010571616E+02 0.  0.
        -13    1    3    3    0    0 -0.39327343594E+01  0.91978890995E+01  0.19698322869E+02  0.22093045507E+02  0.10570000000E+00 0. -1.
         13    1    3    3    0    0  0.39327343594E+01 -0.91978890995E+01  0.18982980997E+02  0.21457686349E+02  0.10570000000E+00 0.  1.
<mgrwt>
<rscale>  0 0.20010572E+02</rscale>
<asrwt>0</asrwt>
<pdfrwt beam="1">  1        2 0.63255417E-02 0.20010572E+02</pdfrwt>
<pdfrwt beam="2">  1       -2 0.37457135E-03 0.20010572E+02</pdfrwt>
<totfact> 0.45006763E+06</totfact>
</mgrwt>
</event>
<event>
 5    1  0.1607476E-006  0.2000242E+02  0.7818608E-02  0.1745280E+00
          2   -1    0    0  501    0  0.00000000000E+00  0.00000000000E+00  0.34530166610E+02  0.34530166708E+02  0.26000000000E-02 0.  1.
         -2   -1    0    0    0  501 -0.00000000000E+00 -0.00000000000E+00 -0.28967175664E+01  0.28967187333E+01  0.26000000000E-02 0. -1.
       1023    2    1    2    0    0  0.00000000000E+00  0.00000000000E+00  0.31633449044E+02  0.37426885441E+02  0.20002416240E+02 0.  0.
        -13    1    3    3    0    0  0.94550290808E+01 -0.32565835829E+01  0.16004581590E+02  0.18872220746E+02  0.10570000000E+00 0. -1.
         13    1    3    3    0    0 -0.94550290808E+01  0.32565835829E+01  0.15628867454E+02  0.18554664695E+02  0.10570000000E+00 0.  1.
<mgrwt>
<rscale>  0 0.20002416E+02</rscale>
<asrwt>0</asrwt>
<pdfrwt beam="1">  1        2 0.53123332E-02 0.20002416E+02</pdfrwt>
<pdfrwt beam="2">  1       -2 0.44564897E-03 0.20002416E+02</pdfrwt>
<totfact> 0.44065608E+06</totfact>
</mgrwt>
</event>
<event>
 5    1  0.1607476E-006  0.2000282E+02  0.7818608E-02  0.1745272E+00
         -2   -1    0    0    0  501 -0.00000000000E+00  0.00000000000E+00  0.38993344754E+01  0.38993353422E+01  0.26000000000E-02 0. -1.
          2   -1    0    0  501    0  0.00000000000E+00 -0.00000000000E+00 -0.25652632437E+02  0.25652632569E+02  0.26000000000E-02 0.  1.
       1023    2    1    2    0    0  0.00000000000E+00  0.00000000000E+00 -0.21753297961E+02  0.29551967911E+02  0.20002820681E+02 0.  0.
        -13    1    3    3    0    0 -0.35803205737E+00  0.99944382657E+01 -0.10887415578E+02  0.14783909282E+02  0.10570000000E+00 0. -1.
         13    1    3    3    0    0  0.35803205737E+00 -0.99944382657E+01 -0.10865882383E+02  0.14768058629E+02  0.10570000000E+00 0.  1.
<mgrwt>
<rscale>  0 0.20002821E+02</rscale>
<asrwt>0</asrwt>
<pdfrwt beam="2">  1        2 0.39465588E-02 0.20002821E+02</pdfrwt>
<pdfrwt beam="1">  1       -2 0.59989771E-03 0.20002821E+02</pdfrwt>
<totfact> 0.42652687E+06</totfact>
</mgrwt>
</event>
<event>
 4    1  0.1607476E-006  0.2004333E+02  0.7818608E-02  0.1744468E+00
         -2   -1    0    0    0  501 -0.00000000000E+00  0.00000000000E+00  0.19721950495E+02  0.19721950667E+02  0.26000000000E-02 0.  1.
          2   -1    0    0  501    0  0.00000000000E+00 -0.00000000000E+00 -0.50924837010E+01  0.50924843648E+01  0.26000000000E-02 0. -1.
        -13    1    1    2    0    0  0.84061815981E+01 -0.54179499144E+01  0.65273566236E+01  0.11943015838E+02  0.10570000000E+00 0.  1.
         13    1    1    2    0    0 -0.84061815981E+01  0.54179499144E+01  0.81021101705E+01  0.12871419193E+02  0.10570000000E+00 0. -1.
<mgrwt>
<rscale>  0 0.20043325E+02</rscale>
<asrwt>0</asrwt>
<pdfrwt beam="2">  1        2 0.78345908E-03 0.20043325E+02</pdfrwt>
<pdfrwt beam="1">  1       -2 0.30341463E-02 0.20043325E+02</pdfrwt>
<totfact> 0.37301976E+06</totfact>
</mgrwt>
</event>
<event>
 5    1  0.1607476E-006  0.2000476E+02  0.7818608E-02  0.1745233E+00
         -2   -1    0    0    0  501 -0.00000000000E+00  0.00000000000E+00  0.31642227871E+02  0.31642227977E+02  0.26000000000E-02 0. -1.
          2   -1    0    0  501    0  0.00000000000E+00 -0.00000000000E+00 -0.31618388771E+01  0.31618399461E+01  0.26000000000E-02 0.  1.
       1023    2    1    2    0    0  0.00000000000E+00  0.00000000000E+00  0.28480388994E+02  0.34804067924E+02  0.20004764103E+02 0.  0.
        -13    1    3    3    0    0 -0.35240751918E+01 -0.93603093958E+01  0.14317537244E+02  0.17465324021E+02  0.10570000000E+00 0. -1.
         13    1    3    3    0    0  0.35240751918E+01  0.93603093958E+01  0.14162851750E+02  0.17338743902E+02  0.10570000000E+00 0.  1.
<mgrwt>
<rscale>  0 0.20004764E+02</rscale>
<asrwt>0</asrwt>
<pdfrwt beam="2">  1        2 0.48643684E-03 0.20004764E+02</pdfrwt>
<pdfrwt beam="1">  1       -2 0.48680352E-02 0.20004764E+02</pdfrwt>
<totfact> 0.35846425E+06</totfact>
</mgrwt>
</event>
<event>
 5    1  0.1607476E-006  0.2000535E+02  0.7818608E-02  0.1745222E+00
         -2   -1    0    0    0  501 -0.00000000000E+00  0.00000000000E+00  0.17222721810E+01  0.17222741435E+01  0.26000000000E-02 0.  1.
          2   -1    0    0  501    0  0.00000000000E+00 -0.00000000000E+00 -0.58093881898E+02  0.58093881956E+02  0.26000000000E-02 0. -1.
       1023    2    1    2    0    0  0.00000000000E+00  0.00000000000E+00 -0.56371609717E+02  0.59816156100E+02  0.20005352995E+02 0.  0.
        -13    1    3    3    0    0 -0.55539480573E+01 -0.83178646625E+01 -0.28471863733E+02  0.30177664066E+02  0.10570000000E+00 0. -1.
         13    1    3    3    0    0  0.55539480573E+01  0.83178646625E+01 -0.27899745984E+02  0.29638492034E+02  0.10570000000E+00 0.  1.
<mgrwt>
<rscale>  0 0.20005353E+02</rscale>
<asrwt>0</asrwt>
<pdfrwt beam="2">  1        2 0.89375189E-02 0.20005353E+02</pdfrwt>
<pdfrwt beam="1">  1       -2 0.26496515E-03 0.20005353E+02</pdfrwt>
<totfact> 0.47412255E+06</totfact>
</mgrwt>
</event>
<event>
 5    1  0.1607476E-006  0.2000159E+02  0.7818608E-02  0.1745296E+00
         -2   -1    0    0    0  501 -0.00000000000E+00  0.00000000000E+00  0.17841766232E+01  0.17841785177E+01  0.26000000000E-02 0. -1.
          2   -1    0    0  501    0  0.00000000000E+00 -0.00000000000E+00 -0.56057154629E+02  0.56057154689E+02  0.26000000000E-02 0.  1.
       1023    2    1    2    0    0  0.00000000000E+00  0.00000000000E+00 -0.54272978006E+02  0.57841333207E+02  0.20001592075E+02 0.  0.
        -13    1    3    3    0    0  0.89781793236E+01  0.44042025296E+01 -0.27117088235E+02  0.28902462710E+02  0.10570000000E+00 0. -1.
         13    1    3    3    0    0 -0.89781793236E+01 -0.44042025296E+01 -0.27155889771E+02  0.28938870497E+02  0.10570000000E+00 0.  1.
<mgrwt>
<rscale>  0 0.20001592E+02</rscale>
<asrwt>0</asrwt>
<pdfrwt beam="2">  1        2 0.86241764E-02 0.20001592E+02</pdfrwt>
<pdfrwt beam="1">  1       -2 0.27448890E-03 0.20001592E+02</pdfrwt>
<totfact> 0.47155521E+06</totfact>
</mgrwt>
</event>
<event>
 5    1  0.1607476E-006  0.2000229E+02  0.7818608E-02  0.1745283E+00
          2   -1    0    0  501    0  0.00000000000E+00  0.00000000000E+00  0.38217419826E+01  0.38217428670E+01  0.26000000000E-02 0.  1.
         -2   -1    0    0    0  501 -0.00000000000E+00 -0.00000000000E+00 -0.26172070629E+02  0.26172070759E+02  0.26000000000E-02 0. -1.
       1023    2    1    2    0    0  0.00000000000E+00  0.00000000000E+00 -0.22350328647E+02  0.29993813626E+02  0.20002291498E+02 0.  0.
        -13    1    3    3    0    0  0.63500071173E+01 -0.77258703858E+01 -0.11161735517E+02  0.14986900142E+02  0.10570000000E+00 0.  1.
         13    1    3    3    0    0 -0.63500071173E+01  0.77258703858E+01 -0.11188593130E+02  0.15006913484E+02  0.10570000000E+00 0. -1.
<mgrwt>
<rscale>  0 0.20002291E+02</rscale>
<asrwt>0</asrwt>
<pdfrwt beam="1">  1        2 0.58796040E-03 0.20002291E+02</pdfrwt>
<pdfrwt beam="2">  1       -2 0.40264724E-02 0.20002291E+02</pdfrwt>
<totfact> 0.36542900E+06</totfact>
</mgrwt>
</event>
<event>
 5    1  0.1607476E-006  0.2000163E+02  0.7818608E-02  0.1745296E+00
          2   -1    0    0  501    0  0.00000000000E+00  0.00000000000E+00  0.15704225952E+01  0.15704247474E+01  0.26000000000E-02 0.  1.
         -2   -1    0    0    0  501 -0.00000000000E+00 -0.00000000000E+00 -0.63687490499E+02  0.63687490552E+02  0.26000000000E-02 0. -1.
       1023    2    1    2    0    0  0.00000000000E+00  0.00000000000E+00 -0.62117067904E+02  0.65257915300E+02  0.20001634540E+02 0.  0.
        -13    1    3    3    0    0 -0.89004333696E+01 -0.45590018382E+01 -0.30880978300E+02  0.32459947707E+02  0.10570000000E+00 0.  1.
         13    1    3    3    0    0  0.89004333696E+01  0.45590018382E+01 -0.31236089604E+02  0.32797967592E+02  0.10570000000E+00 0. -1.
<mgrwt>
<rscale>  0 0.20001635E+02</rscale>
<asrwt>0</asrwt>
<pdfrwt beam="1">  1        2 0.24160370E-03 0.20001635E+02</pdfrwt>
<pdfrwt beam="2">  1       -2 0.97980736E-02 0.20001635E+02</pdfrwt>
<totfact> 0.32624189E+06</totfact>
</mgrwt>
</event>
<event>
 5    1  0.1607476E-006  0.2000209E+02  0.7818608E-02  0.1745287E+00
         -2   -1    0    0    0  501 -0.00000000000E+00  0.00000000000E+00  0.16860955203E+02  0.16860955403E+02  0.26000000000E-02 0.  1.
          2   -1    0    0  501    0  0.00000000000E+00 -0.00000000000E+00 -0.59320999768E+01  0.59321005465E+01  0.26000000000E-02 0. -1.
       1023    2    1    2    0    0  0.00000000000E+00  0.00000000000E+00  0.10928855226E+02  0.22793055950E+02  0.20002087965E+02 0.  0.
        -13    1    3    3    0    0 -0.79444160623E+01  0.60736329350E+01  0.55593902123E+01  0.11442060812E+02  0.10570000000E+00 0. -1.
         13    1    3    3    0    0  0.79444160623E+01 -0.60736329350E+01  0.53694650137E+01  0.11350995138E+02  0.10570000000E+00 0.  1.
<mgrwt>
<rscale>  0 0.20002088E+02</rscale>
<asrwt>0</asrwt>
<pdfrwt beam="2">  1        2 0.91263082E-03 0.20002088E+02</pdfrwt>
<pdfrwt beam="1">  1       -2 0.25939932E-02 0.20002088E+02</pdfrwt>
<totfact> 0.37945036E+06</totfact>
</mgrwt>
</event>
<event>
 5    1  0.1607476E-006  0.2000307E+02  0.7818608E-02  0.1745267E+00
         -2   -1    0    0    0  501 -0.00000000000E+00  0.00000000000E+00  0.39328595138E+02  0.39328595224E+02  0.26000000000E-02 0. -1.
          2   -1    0    0  501    0  0.00000000000E+00 -0.00000000000E+00 -0.25434602861E+01  0.25434616150E+01  0.26000000000E-02 0.  1.
       1023    2    1    2    0    0  0.00000000000E+00  0.00000000000E+00  0.36785134852E+02  0.41872056839E+02  0.20003074710E+02 0.  0.
        -13    1    3    3    0    0 -0.80078657069E+01  0.59910452452E+01  0.18325039605E+02  0.20876704369E+02  0.10570000000E+00 0. -1.
         13    1    3    3    0    0  0.80078657069E+01 -0.59910452452E+01  0.18460095247E+02  0.20995352470E+02  0.10570000000E+00 0.  1.
<mgrwt>
<rscale>  0 0.20003075E+02</rscale>
<asrwt>0</asrwt>
<pdfrwt beam="2">  1        2 0.39130168E-03 0.20003075E+02</pdfrwt>
<pdfrwt beam="1">  1       -2 0.60505534E-02 0.20003075E+02</pdfrwt>
<totfact> 0.34981070E+06</totfact>
</mgrwt>
</event>
<event>
 5    1  0.1607476E-006  0.2000798E+02  0.7818608E-02  0.1745170E+00
         -2   -1    0    0    0  501 -0.00000000000E+00  0.00000000000E+00  0.11339919989E+01  0.11339949795E+01  0.26000000000E-02 0.  1.
          2   -1    0    0  501    0  0.00000000000E+00 -0.00000000000E+00 -0.88254271616E+02  0.88254271655E+02  0.26000000000E-02 0. -1.
       1023    2    1    2    0    0  0.00000000000E+00  0.00000000000E+00 -0.87120279618E+02  0.89388266634E+02  0.20007975691E+02 0.  0.
        -13    1    3    3    0    0 -0.83027226719E+01 -0.55794876617E+01 -0.43327394348E+02  0.44467293147E+02  0.10570000000E+00 0. -1.
         13    1    3    3    0    0  0.83027226719E+01  0.55794876617E+01 -0.43792885269E+02  0.44920973487E+02  0.10570000000E+00 0.  1.
<mgrwt>
<rscale>  0 0.20007976E+02</rscale>
<asrwt>0</asrwt>
<pdfrwt beam="2">  1        2 0.13577575E-01 0.20007976E+02</pdfrwt>
<pdfrwt beam="1">  1       -2 0.17446061E-03 0.20007976E+02</pdfrwt>
<totfact> 0.51284390E+06</totfact>
</mgrwt>
</event>
<event>
 4    1  0.1607476E-006  0.2028002E+02  0.7818608E-02  0.1739816E+00
         -2   -1    0    0    0  501 -0.00000000000E+00  0.00000000000E+00  0.24607136522E+01  0.24607150258E+01  0.26000000000E-02 0.  1.
          2   -1    0    0  501    0  0.00000000000E+00 -0.00000000000E+00 -0.41784528836E+02  0.41784528917E+02  0.26000000000E-02 0. -1.
        -13    1    1    2    0    0 -0.32316753381E+01  0.95740286291E+01 -0.17832814063E+02  0.20496979767E+02  0.10570000000E+00 0.  1.
         13    1    1    2    0    0  0.32316753381E+01 -0.95740286291E+01 -0.21491001121E+02  0.23748264176E+02  0.10570000000E+00 0. -1.
<mgrwt>
<rscale>  0 0.20280019E+02</rscale>
<asrwt>0</asrwt>
<pdfrwt beam="2">  1        2 0.64283887E-02 0.20280019E+02</pdfrwt>
<pdfrwt beam="1">  1       -2 0.37857147E-03 0.20280019E+02</pdfrwt>
<totfact> 0.43775440E+06</totfact>
</mgrwt>
</event>
<event>
 5    1  0.1607476E-006  0.2000176E+02  0.7818608E-02  0.1745293E+00
          2   -1    0    0  501    0  0.00000000000E+00  0.00000000000E+00  0.73280091791E+01  0.73280096404E+01  0.26000000000E-02 0.  1.
         -2   -1    0    0    0  501 -0.00000000000E+00 -0.00000000000E+00 -0.13648671004E+02  0.13648671252E+02  0.26000000000E-02 0. -1.
       1023    2    1    2    0    0  0.00000000000E+00  0.00000000000E+00 -0.63206618251E+01  0.20976680892E+02  0.20001759306E+02 0.  0.
        -13    1    3    3    0    0 -0.74393958716E+01 -0.66828356015E+01 -0.31194604464E+01  0.10476025419E+02  0.10570000000E+00 0. -1.
         13    1    3    3    0    0  0.74393958716E+01  0.66828356015E+01 -0.32012013786E+01  0.10500655473E+02  0.10570000000E+00 0.  1.
<mgrwt>
<rscale>  0 0.20001759E+02</rscale>
<asrwt>0</asrwt>
<pdfrwt beam="1">  1        2 0.11273861E-02 0.20001759E+02</pdfrwt>
<pdfrwt beam="2">  1       -2 0.20997956E-02 0.20001759E+02</pdfrwt>
<totfact> 0.38563516E+06</totfact>
</mgrwt>
</event>
<event>
 4    1  0.1607476E-006  0.2157862E+02  0.7818608E-02  0.1715643E+00
         -2   -1    0    0    0  501 -0.00000000000E+00  0.00000000000E+00  0.12797791003E+01  0.12797817414E+01  0.26000000000E-02 0.  1.
          2   -1    0    0  501    0  0.00000000000E+00 -0.00000000000E+00 -0.90960269845E+02  0.90960269883E+02  0.26000000000E-02 0. -1.
        -13    1    1    2    0    0 -0.18713522348E+01 -0.10534740133E+02 -0.38924442243E+02  0.40368379771E+02  0.10570000000E+00 0.  1.
         13    1    1    2    0    0  0.18713522348E+01  0.10534740133E+02 -0.50756048502E+02  0.51871671853E+02  0.10570000000E+00 0. -1.
<mgrwt>
<rscale>  0 0.21578617E+02</rscale>
<asrwt>0</asrwt>
<pdfrwt beam="2">  1        2 0.13993883E-01 0.21578617E+02</pdfrwt>
<pdfrwt beam="1">  1       -2 0.19688937E-03 0.21578617E+02</pdfrwt>
<totfact> 0.43629044E+06</totfact>
</mgrwt>
</event>
<event>
 4    1  0.1607476E-006  0.2002676E+02  0.7818608E-02  0.1744796E+00
          2   -1    0    0  501    0  0.00000000000E+00  0.00000000000E+00  0.98596874278E+02  0.98596874312E+02  0.26000000000E-02 0. -1.
         -2   -1    0    0    0  501 -0.00000000000E+00 -0.00000000000E+00 -0.10169454152E+01  0.10169487389E+01  0.26000000000E-02 0.  1.
        -13    1    1    2    0    0 -0.56953599496E+01 -0.82234681357E+01  0.46598672579E+02  0.47660361012E+02  0.10570000000E+00 0. -1.
         13    1    1    2    0    0  0.56953599496E+01  0.82234681357E+01  0.50981256283E+02  0.51953462039E+02  0.10570000000E+00 0.  1.
<mgrwt>
<rscale>  0 0.20026763E+02</rscale>
<asrwt>0</asrwt>
<pdfrwt beam="1">  1        2 0.15168746E-01 0.20026763E+02</pdfrwt>
<pdfrwt beam="2">  1       -2 0.15645344E-03 0.20026763E+02</pdfrwt>
<totfact> 0.52434618E+06</totfact>
</mgrwt>
</event>
<event>
 5    1  0.1607476E-006  0.2000664E+02  0.7818608E-02  0.1745196E+00
          2   -1    0    0  501    0  0.00000000000E+00  0.00000000000E+00  0.10256983926E+02  0.10256984255E+02  0.26000000000E-02 0. -1.
         -2   -1    0    0    0  501 -0.00000000000E+00 -0.00000000000E+00 -0.97559259406E+01  0.97559262870E+01  0.26000000000E-02 0.  1.
       1023    2    1    2    0    0  0.00000000000E+00  0.00000000000E+00  0.50105798513E+00  0.20012910542E+02  0.20006637130E+02 0.  0.
        -13    1    3    3    0    0 -0.29470050852E+01 -0.95576912026E+01  0.10588167936E+00  0.10002833774E+02  0.10570000000E+00 0.  1.
         13    1    3    3    0    0  0.29470050852E+01  0.95576912026E+01  0.39517630578E+00  0.10010076768E+02  0.10570000000E+00 0. -1.
<mgrwt>
<rscale>  0 0.20006637E+02</rscale>
<asrwt>0</asrwt>
<pdfrwt beam="1">  1        2 0.15779976E-02 0.20006637E+02</pdfrwt>
<pdfrwt beam="2">  1       -2 0.15009117E-02 0.20006637E+02</pdfrwt>
<totfact> 0.39506738E+06</totfact>
</mgrwt>
</event>
<event>
 4    1  0.1607476E-006  0.2002887E+02  0.7818608E-02  0.1744754E+00
          2   -1    0    0  501    0  0.00000000000E+00  0.00000000000E+00  0.17769898716E+01  0.17769917737E+01  0.26000000000E-02 0. -1.
         -2   -1    0    0    0  501 -0.00000000000E+00 -0.00000000000E+00 -0.56437519436E+02  0.56437519496E+02  0.26000000000E-02 0.  1.
        -13    1    1    2    0    0 -0.80518778688E+01  0.59333513915E+01 -0.25905208310E+02  0.27769198512E+02  0.10570000000E+00 0.  1.
         13    1    1    2    0    0  0.80518778688E+01 -0.59333513915E+01 -0.28755321255E+02  0.30445312758E+02  0.10570000000E+00 0. -1.
<mgrwt>
<rscale>  0 0.20028875E+02</rscale>
<asrwt>0</asrwt>
<pdfrwt beam="1">  1        2 0.27338325E-03 0.20028875E+02</pdfrwt>
<pdfrwt beam="2">  1       -2 0.86826941E-02 0.20028875E+02</pdfrwt>
<totfact> 0.33181824E+06</totfact>
</mgrwt>
</event>
<event>
 4    1  0.1607476E-006  0.2006629E+02  0.7818608E-02  0.1744013E+00
         -2   -1    0    0    0  501 -0.00000000000E+00  0.00000000000E+00  0.87151113035E+02  0.87151113074E+02  0.26000000000E-02 0. -1.
          2   -1    0    0  501    0  0.00000000000E+00 -0.00000000000E+00 -0.11550494289E+01  0.11550523552E+01  0.26000000000E-02 0.  1.
        -13    1    1    2    0    0 -0.90512255240E+01 -0.43100652933E+01  0.41285390381E+02  0.42485244235E+02  0.10570000000E+00 0.  1.
         13    1    1    2    0    0  0.90512255240E+01  0.43100652933E+01  0.44710673225E+02  0.45820921194E+02  0.10570000000E+00 0. -1.
<mgrwt>
<rscale>  0 0.20066288E+02</rscale>
<asrwt>0</asrwt>
<pdfrwt beam="2">  1        2 0.17770011E-03 0.20066288E+02</pdfrwt>
<pdfrwt beam="1">  1       -2 0.13407866E-01 0.20066288E+02</pdfrwt>
<totfact> 0.30473393E+06</totfact>
</mgrwt>
</event>
<event>
 5    1  0.1607476E-006  0.2000150E+02  0.7818608E-02  0.1745298E+00
         -2   -1    0    0    0  501 -0.00000000000E+00  0.00000000000E+00  0.33823810788E+02  0.33823810888E+02  0.26000000000E-02 0. -1.
          2   -1    0    0  501    0  0.00000000000E+00 -0.00000000000E+00 -0.29569390365E+01  0.29569401796E+01  0.26000000000E-02 0.  1.
       1023    2    1    2    0    0  0.00000000000E+00  0.00000000000E+00  0.30866871752E+02  0.36780751068E+02  0.20001496878E+02 0.  0.
        -13    1    3    3    0    0  0.64879743408E+01  0.76098583303E+01  0.15421518608E+02  0.18380374412E+02  0.10570000000E+00 0. -1.
         13    1    3    3    0    0 -0.64879743408E+01 -0.76098583303E+01  0.15445353144E+02  0.18400376656E+02  0.10570000000E+00 0.  1.
<mgrwt>
<rscale>  0 0.20001497E+02</rscale>
<asrwt>0</asrwt>
<pdfrwt beam="2">  1        2 0.45491378E-03 0.20001497E+02</pdfrwt>
<pdfrwt beam="1">  1       -2 0.52036634E-02 0.20001497E+02</pdfrwt>
<totfact> 0.35602286E+06</totfact>
</mgrwt>
</event>
<event>
 4    1  0.1607476E-006  0.2004034E+02  0.7818608E-02  0.1744527E+00
          2   -1    0    0  501    0  0.00000000000E+00  0.00000000000E+00  0.11425083924E+02  0.11425084220E+02  0.26000000000E-02 0.  1.
         -2   -1    0    0    0  501 -0.00000000000E+00 -0.00000000000E+00 -0.87880122609E+01  0.87880126455E+01  0.26000000000E-02 0. -1.
        -13    1    1    2    0    0  0.99390220321E+01 -0.11934362566E+01  0.88569428238E+00  0.10050078403E+02  0.10570000000E+00 0. -1.
         13    1    1    2    0    0 -0.99390220321E+01  0.11934362566E+01  0.17513773810E+01  0.10163018463E+02  0.10570000000E+00 0.  1.
<mgrwt>
<rscale>  0 0.20040338E+02</rscale>
<asrwt>0</asrwt>
<pdfrwt beam="1">  1        2 0.17577053E-02 0.20040338E+02</pdfrwt>
<pdfrwt beam="2">  1       -2 0.13520019E-02 0.20040338E+02</pdfrwt>
<totfact> 0.39670151E+06</totfact>
</mgrwt>
</event>
<event>
 4    1  0.1607476E-006  0.2001311E+02  0.7818608E-02  0.1745067E+00
         -2   -1    0    0    0  501 -0.00000000000E+00  0.00000000000E+00  0.15290604450E+01  0.15290626555E+01  0.26000000000E-02 0. -1.
          2   -1    0    0  501    0  0.00000000000E+00 -0.00000000000E+00 -0.65485361049E+02  0.65485361101E+02  0.26000000000E-02 0.  1.
        -13    1    1    2    0    0 -0.16221910815E+01 -0.98702623809E+01 -0.31115326392E+02  0.32683761906E+02  0.10570000000E+00 0.  1.
         13    1    1    2    0    0  0.16221910815E+01  0.98702623809E+01 -0.32840974212E+02  0.34330661850E+02  0.10570000000E+00 0. -1.
<mgrwt>
<rscale>  0 0.20013111E+02</rscale>
<asrwt>0</asrwt>
<pdfrwt beam="2">  1        2 0.10074669E-01 0.20013111E+02</pdfrwt>
<pdfrwt beam="1">  1       -2 0.23524029E-03 0.20013111E+02</pdfrwt>
<totfact> 0.48358067E+06</totfact>
</mgrwt>
</event>
<event>
 5    1  0.1607476E-006  0.2000323E+02  0.7818608E-02  0.1745264E+00
          2   -1    0    0  501    0  0.00000000000E+00  0.00000000000E+00  0.34435520184E+02  0.34435520282E+02  0.26000000000E-02 0. -1.
         -2   -1    0    0    0  501 -0.00000000000E+00 -0.00000000000E+00 -0.29049161363E+01  0.29049172999E+01  0.26000000000E-02 0.  1.
       1023    2    1    2    0    0  0.00000000000E+00  0.00000000000E+00  0.31530604048E+02  0.37340437582E+02  0.20003231919E+02 0.  0.
        -13    1    3    3    0    0  0.47995592848E+01  0.87740749908E+01  0.15706625227E+02  0.18620671571E+02  0.10570000000E+00 0. -1.
         13    1    3    3    0    0 -0.47995592848E+01 -0.87740749908E+01  0.15823978821E+02  0.18719766011E+02  0.10570000000E+00 0.  1.
<mgrwt>
<rscale>  0 0.20003232E+02</rscale>
<asrwt>0</asrwt>
<pdfrwt beam="1">  1        2 0.52977724E-02 0.20003232E+02</pdfrwt>
<pdfrwt beam="2">  1       -2 0.44691027E-03 0.20003232E+02</pdfrwt>
<totfact> 0.44047145E+06</totfact>
</mgrwt>
</event>
<event>
 5    1  0.1607476E-006  0.2000973E+02  0.7818608E-02  0.1745135E+00
          2   -1    0    0  501    0  0.00000000000E+00  0.00000000000E+00  0.24559434374E+02  0.24559434512E+02  0.26000000000E-02 0. -1.
         -2   -1    0    0    0  501 -0.00000000000E+00 -0.00000000000E+00 -0.40757177184E+01  0.40757185477E+01  0.26000000000E-02 0.  1.
       1023    2    1    2    0    0  0.00000000000E+00  0.00000000000E+00  0.20483716656E+02  0.28635153059E+02  0.20009731200E+02 0.  0.
        -13    1    3    3    0    0 -0.85280959203E+01  0.52304123035E+01  0.10208903640E+02  0.14294002900E+02  0.10570000000E+00 0. -1.
         13    1    3    3    0    0  0.85280959203E+01 -0.52304123035E+01  0.10274813016E+02  0.14341150159E+02  0.10570000000E+00 0.  1.
<mgrwt>
<rscale>  0 0.20009731E+02</rscale>
<asrwt>0</asrwt>
<pdfrwt beam="1">  1        2 0.37783746E-02 0.20009731E+02</pdfrwt>
<pdfrwt beam="2">  1       -2 0.62703357E-03 0.20009731E+02</pdfrwt>
<totfact> 0.42435708E+06</totfact>
</mgrwt>
</event>
<event>
 5    1  0.1607476E-006  0.2000142E+02  0.7818608E-02  0.1745300E+00
         -2   -1    0    0    0  501 -0.00000000000E+00  0.00000000000E+00  0.89858832407E+01  0.89858836169E+01  0.26000000000E-02 0. -1.
          2   -1    0    0  501    0  0.00000000000E+00 -0.00000000000E+00 -0.11130150360E+02  0.11130150663E+02  0.26000000000E-02 0.  1.
       1023    2    1    2    0    0  0.00000000000E+00  0.00000000000E+00 -0.21442671191E+01  0.20116034280E+02  0.20001423792E+02 0.  0.
        -13    1    3    3    0    0 -0.54370633690E+01  0.83929064119E+01 -0.10952831711E+01  0.10060484771E+02  0.10570000000E+00 0.  1.
         13    1    3    3    0    0  0.54370633690E+01 -0.83929064119E+01 -0.10489839480E+01  0.10055549509E+02  0.10570000000E+00 0. -1.
<mgrwt>
<rscale>  0 0.20001424E+02</rscale>
<asrwt>0</asrwt>
<pdfrwt beam="2">  1        2 0.17123309E-02 0.20001424E+02</pdfrwt>
<pdfrwt beam="1">  1       -2 0.13824436E-02 0.20001424E+02</pdfrwt>
<totfact> 0.39768971E+06</totfact>
</mgrwt>
</event>
<event>
 5    1  0.1607476E-006  0.2000700E+02  0.7818608E-02  0.1745189E+00
         -2   -1    0    0    0  501 -0.00000000000E+00  0.00000000000E+00  0.25907447692E+01  0.25907460739E+01  0.26000000000E-02 0.  1.
          2   -1    0    0  501    0  0.00000000000E+00 -0.00000000000E+00 -0.38625954559E+02  0.38625954647E+02  0.26000000000E-02 0. -1.
       1023    2    1    2    0    0  0.00000000000E+00  0.00000000000E+00 -0.36035209790E+02  0.41216700721E+02  0.20007000617E+02 0.  0.
        -13    1    3    3    0    0  0.91329219474E+01  0.40743169761E+01 -0.17563800503E+02  0.20211595254E+02  0.10570000000E+00 0.  1.
         13    1    3    3    0    0 -0.91329219474E+01 -0.40743169761E+01 -0.18471409287E+02  0.21005105467E+02  0.10570000000E+00 0. -1.
<mgrwt>
<rscale>  0 0.20007001E+02</rscale>
<asrwt>0</asrwt>
<pdfrwt beam="2">  1        2 0.59424542E-02 0.20007001E+02</pdfrwt>
<pdfrwt beam="1">  1       -2 0.39857625E-03 0.20007001E+02</pdfrwt>
<totfact> 0.44658473E+06</totfact>
</mgrwt>
</event>
<event>
 4    1  0.2189840E-006  0.2003780E+02  0.7818608E-02  0.1744577E+00
          2   -1    0    0  501    0  0.00000000000E+00  0.00000000000E+00  0.11578697975E+03  0.11578697978E+03  0.26000000000E-02 0. -1.
         -2   -1    0    0    0  501 -0.00000000000E+00 -0.00000000000E+00 -0.86692067572E+00  0.86692457457E+00  0.26000000000E-02 0.  1.
        -13    1    1    2    0    0 -0.32835308246E+01 -0.94545761864E+01  0.60041330085E+02  0.60869886450E+02  0.10570000000E+00 0.  1.
         13    1    1    2    0    0  0.32835308246E+01  0.94545761864E+01  0.54878728986E+02  0.55784017900E+02  0.10570000000E+00 0. -1.
<mgrwt>
<rscale>  0 0.20037800E+02</rscale>
<asrwt>0</asrwt>
<pdfrwt beam="1">  1        2 0.17813377E-01 0.20037800E+02</pdfrwt>
<pdfrwt beam="2">  1       -2 0.13337275E-03 0.20037800E+02</pdfrwt>
<totfact> 0.54383314E+06</totfact>
</mgrwt>
</event>
<event>
 5    1  0.1607476E-006  0.2000294E+02  0.7818608E-02  0.1745270E+00
          2   -1    0    0  501    0  0.00000000000E+00  0.00000000000E+00  0.92401745636E+01  0.92401749294E+01  0.26000000000E-02 0. -1.
         -2   -1    0    0    0  501 -0.00000000000E+00 -0.00000000000E+00 -0.10825484943E+02  0.10825485255E+02  0.26000000000E-02 0.  1.
       1023    2    1    2    0    0  0.00000000000E+00  0.00000000000E+00 -0.15853103790E+01  0.20065660184E+02  0.20002937525E+02 0.  0.
        -13    1    3    3    0    0  0.81464701110E+01 -0.58005087800E+01 -0.87852466731E+00  0.10039614308E+02  0.10570000000E+00 0. -1.
         13    1    3    3    0    0 -0.81464701110E+01  0.58005087800E+01 -0.70678571169E+00  0.10026045876E+02  0.10570000000E+00 0.  1.
<mgrwt>
<rscale>  0 0.20002938E+02</rscale>
<asrwt>0</asrwt>
<pdfrwt beam="1">  1        2 0.14215654E-02 0.20002938E+02</pdfrwt>
<pdfrwt beam="2">  1       -2 0.16654593E-02 0.20002938E+02</pdfrwt>
<totfact> 0.39222451E+06</totfact>
</mgrwt>
</event>
<event>
 5    1  0.1607476E-006  0.2000149E+02  0.7818608E-02  0.1745298E+00
         -2   -1    0    0    0  501 -0.00000000000E+00  0.00000000000E+00  0.68963036347E+01  0.68963041248E+01  0.26000000000E-02 0.  1.
          2   -1    0    0  501    0  0.00000000000E+00 -0.00000000000E+00 -0.14502681835E+02  0.14502682068E+02  0.26000000000E-02 0. -1.
       1023    2    1    2    0    0  0.00000000000E+00  0.00000000000E+00 -0.76063782002E+01  0.21398986193E+02  0.20001490463E+02 0.  0.
        -13    1    3    3    0    0  0.47072791778E+01  0.88229110226E+01 -0.38445769908E+01  0.10714204632E+02  0.10570000000E+00 0.  1.
         13    1    3    3    0    0 -0.47072791778E+01 -0.88229110226E+01 -0.37618012093E+01  0.10684781561E+02  0.10570000000E+00 0. -1.
<mgrwt>
<rscale>  0 0.20001490E+02</rscale>
<asrwt>0</asrwt>
<pdfrwt beam="2">  1        2 0.22311819E-02 0.20001490E+02</pdfrwt>
<pdfrwt beam="1">  1       -2 0.10609698E-02 0.20001490E+02</pdfrwt>
<totfact> 0.40574947E+06</totfact>
</mgrwt>
</event>
<event>
 5    1  0.1607476E-006  0.2000202E+02  0.7818608E-02  0.1745288E+00
         -2   -1    0    0    0  501 -0.00000000000E+00  0.00000000000E+00  0.14062299465E+01  0.14062323501E+01  0.26000000000E-02 0. -1.
          2   -1    0    0  501    0  0.00000000000E+00 -0.00000000000E+00 -0.71126435138E+02  0.71126435185E+02  0.26000000000E-02 0.  1.
       1023    2    1    2    0    0  0.00000000000E+00  0.00000000000E+00 -0.69720205191E+02  0.72532667535E+02  0.20002021095E+02 0.  0.
        -13    1    3    3    0    0 -0.22700744171E+00 -0.99977417958E+01 -0.35047341901E+02  0.36446312848E+02  0.10570000000E+00 0. -1.
         13    1    3    3    0    0  0.22700744171E+00  0.99977417958E+01 -0.34672863290E+02  0.36086354687E+02  0.10570000000E+00 0.  1.
<mgrwt>
<rscale>  0 0.20002021E+02</rscale>
<asrwt>0</asrwt>
<pdfrwt beam="2">  1        2 0.10942526E-01 0.20002021E+02</pdfrwt>
<pdfrwt beam="1">  1       -2 0.21634331E-03 0.20002021E+02</pdfrwt>
<totfact> 0.49155018E+06</totfact>
</mgrwt>
</event>
<event>
 4    1  0.1917958E-006  0.2137732E+02  0.7818608E-02  0.1719249E+00
          2   -1    0    0  501    0  0.00000000000E+00  0.00000000000E+00  0.22588112138E+02  0.22588112288E+02  0.26000000000E-02 0. -1.
         -2   -1    0    0    0  501 -0.00000000000E+00 -0.00000000000E+00 -0.50578549943E+01  0.50578556626E+01  0.26000000000E-02 0.  1.
        -13    1    1    2    0    0 -0.45363855516E+01 -0.93417126959E+01  0.12034195243E+02  0.15895893105E+02  0.10570000000E+00 0. -1.
         13    1    1    2    0    0  0.45363855516E+01  0.93417126959E+01  0.54960619010E+01  0.11750074846E+02  0.10570000000E+00 0.  1.
<mgrwt>
<rscale>  0 0.21377316E+02</rscale>
<asrwt>0</asrwt>
<pdfrwt beam="1">  1        2 0.34750942E-02 0.21377316E+02</pdfrwt>
<pdfrwt beam="2">  1       -2 0.77813161E-03 0.21377316E+02</pdfrwt>
<totfact> 0.36237326E+06</totfact>
</mgrwt>
</event>
<event>
 4    1  0.1607476E-006  0.2001297E+02  0.7818608E-02  0.1745070E+00
          2   -1    0    0  501    0  0.00000000000E+00  0.00000000000E+00  0.25009699400E+02  0.25009699536E+02  0.26000000000E-02 0. -1.
         -2   -1    0    0    0  501 -0.00000000000E+00 -0.00000000000E+00 -0.40036364568E+01  0.40036373010E+01  0.26000000000E-02 0.  1.
        -13    1    1    2    0    0 -0.52757548231E+00 -0.99865525064E+01  0.10024360037E+02  0.14160103584E+02  0.10570000000E+00 0. -1.
         13    1    1    2    0    0  0.52757548231E+00  0.99865525064E+01  0.10981702907E+02  0.14853233253E+02  0.10570000000E+00 0.  1.
<mgrwt>
<rscale>  0 0.20012972E+02</rscale>
<asrwt>0</asrwt>
<pdfrwt beam="1">  1        2 0.38476461E-02 0.20012972E+02</pdfrwt>
<pdfrwt beam="2">  1       -2 0.61594414E-03 0.20012972E+02</pdfrwt>
<totfact> 0.42496331E+06</totfact>
</mgrwt>
</event>
<event>
 5    1  0.1607476E-006  0.2000278E+02  0.7818608E-02  0.1745273E+00
         -2   -1    0    0    0  501 -0.00000000000E+00  0.00000000000E+00  0.41583566858E+01  0.41583574986E+01  0.26000000000E-02 0.  1.
          2   -1    0    0  501    0  0.00000000000E+00 -0.00000000000E+00 -0.24054644904E+02  0.24054645045E+02  0.26000000000E-02 0. -1.
       1023    2    1    2    0    0  0.00000000000E+00  0.00000000000E+00 -0.19896288218E+02  0.28213002543E+02  0.20002780498E+02 0.  0.
        -13    1    3    3    0    0 -0.94667470871E+01  0.32236683994E+01 -0.98454996943E+01  0.14034114688E+02  0.10570000000E+00 0. -1.
         13    1    3    3    0    0  0.94667470871E+01 -0.32236683994E+01 -0.10050788524E+02  0.14178887855E+02  0.10570000000E+00 0.  1.
<mgrwt>
<rscale>  0 0.20002780E+02</rscale>
<asrwt>0</asrwt>
<pdfrwt beam="2">  1        2 0.37007146E-02 0.20002780E+02</pdfrwt>
<pdfrwt beam="1">  1       -2 0.63974727E-03 0.20002780E+02</pdfrwt>
<totfact> 0.42382894E+06</totfact>
</mgrwt>
</event>
<event>
 5    1  0.1607476E-006  0.2000557E+02  0.7818608E-02  0.1745217E+00
         -2   -1    0    0    0  501 -0.00000000000E+00  0.00000000000E+00  0.17132558021E+01  0.17132577749E+01  0.26000000000E-02 0. -1.
          2   -1    0    0  501    0  0.00000000000E+00 -0.00000000000E+00 -0.58400868533E+02  0.58400868591E+02  0.26000000000E-02 0.  1.
       1023    2    1    2    0    0  0.00000000000E+00  0.00000000000E+00 -0.56687612731E+02  0.60114126366E+02  0.20005568015E+02 0.  0.
        -13    1    3    3    0    0  0.24769234457E+01 -0.96894555392E+01 -0.27880072049E+02  0.29619761788E+02  0.10570000000E+00 0.  1.
         13    1    3    3    0    0 -0.24769234457E+01  0.96894555392E+01 -0.28807540682E+02  0.30494364578E+02  0.10570000000E+00 0. -1.
<mgrwt>
<rscale>  0 0.20005568E+02</rscale>
<asrwt>0</asrwt>
<pdfrwt beam="2">  1        2 0.89847476E-02 0.20005568E+02</pdfrwt>
<pdfrwt beam="1">  1       -2 0.26357802E-03 0.20005568E+02</pdfrwt>
<totfact> 0.47452652E+06</totfact>
</mgrwt>
</event>
<event>
 5    1  0.1607476E-006  0.2000141E+02  0.7818608E-02  0.1745300E+00
          2   -1    0    0  501    0  0.00000000000E+00  0.00000000000E+00  0.15847798906E+02  0.15847799119E+02  0.26000000000E-02 0. -1.
         -2   -1    0    0    0  501 -0.00000000000E+00 -0.00000000000E+00 -0.63109155561E+01  0.63109160917E+01  0.26000000000E-02 0.  1.
       1023    2    1    2    0    0  0.00000000000E+00  0.00000000000E+00  0.95368833501E+01  0.22158715211E+02  0.20001412845E+02 0.  0.
        -13    1    3    3    0    0  0.71507972673E+01 -0.69904577869E+01  0.48244386557E+01  0.11103458131E+02  0.10570000000E+00 0. -1.
         13    1    3    3    0    0 -0.71507972673E+01  0.69904577869E+01  0.47124446943E+01  0.11055257080E+02  0.10570000000E+00 0.  1.
<mgrwt>
<rscale>  0 0.20001413E+02</rscale>
<asrwt>0</asrwt>
<pdfrwt beam="1">  1        2 0.24381229E-02 0.20001413E+02</pdfrwt>
<pdfrwt beam="2">  1       -2 0.97091016E-03 0.20001413E+02</pdfrwt>
<totfact> 0.40861982E+06</totfact>
</mgrwt>
</event>
<event>
 5    1  0.1607476E-006  0.2000122E+02  0.7818608E-02  0.1745304E+00
          2   -1    0    0  501    0  0.00000000000E+00  0.00000000000E+00  0.11704540516E+02  0.11704540805E+02  0.26000000000E-02 0.  1.
         -2   -1    0    0    0  501 -0.00000000000E+00 -0.00000000000E+00 -0.85447304680E+01  0.85447308636E+01  0.26000000000E-02 0. -1.
       1023    2    1    2    0    0  0.00000000000E+00  0.00000000000E+00  0.31598100481E+01  0.20249271669E+02  0.20001215052E+02 0.  0.
        -13    1    3    3    0    0 -0.99897845039E+00  0.99500260847E+01  0.15787199553E+01  0.10124450909E+02  0.10570000000E+00 0.  1.
         13    1    3    3    0    0  0.99897845039E+00 -0.99500260847E+01  0.15810900928E+01  0.10124820759E+02  0.10570000000E+00 0. -1.
<mgrwt>
<rscale>  0 0.20001215E+02</rscale>
<asrwt>0</asrwt>
<pdfrwt beam="1">  1        2 0.18006986E-02 0.20001215E+02</pdfrwt>
<pdfrwt beam="2">  1       -2 0.13145740E-02 0.20001215E+02</pdfrwt>
<totfact> 0.39918790E+06</totfact>
</mgrwt>
</event>
<event>
 5    1  0.1681044E-006  0.2000320E+02  0.7818608E-02  0.1745264E+00
         -2   -1    0    0    0  501 -0.00000000000E+00  0.00000000000E+00  0.26430307345E+01  0.26430320133E+01  0.26000000000E-02 0. -1.
          2   -1    0    0  501    0  0.00000000000E+00 -0.00000000000E+00 -0.37847448044E+02  0.37847448133E+02  0.26000000000E-02 0.  1.
       1023    2    1    2    0    0  0.00000000000E+00  0.00000000000E+00 -0.35204417310E+02  0.40490480147E+02  0.20003199354E+02 0.  0.
        -13    1    3    3    0    0 -0.86837532058E+01  0.49609743196E+01 -0.17511963122E+02  0.20166776164E+02  0.10570000000E+00 0.  1.
         13    1    3    3    0    0  0.86837532058E+01 -0.49609743196E+01 -0.17692454187E+02  0.20323703983E+02  0.10570000000E+00 0. -1.
<mgrwt>
<rscale>  0 0.20003199E+02</rscale>
<asrwt>0</asrwt>
<pdfrwt beam="2">  1        2 0.58226840E-02 0.20003199E+02</pdfrwt>
<pdfrwt beam="1">  1       -2 0.40662024E-03 0.20003199E+02</pdfrwt>
<totfact> 0.44561734E+06</totfact>
</mgrwt>
</event>
<event>
 5    1  0.1607476E-006  0.2000320E+02  0.7818608E-02  0.1745264E+00
          2   -1    0    0  501    0  0.00000000000E+00  0.00000000000E+00  0.25133507470E+02  0.25133507604E+02  0.26000000000E-02 0.  1.
         -2   -1    0    0    0  501 -0.00000000000E+00 -0.00000000000E+00 -0.39800250705E+01  0.39800259198E+01  0.26000000000E-02 0. -1.
       1023    2    1    2    0    0  0.00000000000E+00  0.00000000000E+00  0.21153482399E+02  0.29113533524E+02  0.20003200160E+02 0.  0.
        -13    1    3    3    0    0 -0.97933092933E+01  0.20272964154E+01  0.10641732921E+02  0.14603988829E+02  0.10570000000E+00 0.  1.
         13    1    3    3    0    0  0.97933092933E+01 -0.20272964154E+01  0.10511749479E+02  0.14509544695E+02  0.10570000000E+00 0. -1.
<mgrwt>
<rscale>  0 0.20003200E+02</rscale>
<asrwt>0</asrwt>
<pdfrwt beam="1">  1        2 0.38666936E-02 0.20003200E+02</pdfrwt>
<pdfrwt beam="2">  1       -2 0.61231161E-03 0.20003200E+02</pdfrwt>
<totfact> 0.42563840E+06</totfact>
</mgrwt>
</event>
<event>
 5    1  0.1607476E-006  0.2000164E+02  0.7818608E-02  0.1745296E+00
         -2   -1    0    0    0  501 -0.00000000000E+00  0.00000000000E+00  0.10187845260E+02  0.10187845592E+02  0.26000000000E-02 0. -1.
          2   -1    0    0  501    0  0.00000000000E+00 -0.00000000000E+00 -0.98172254079E+01  0.98172257521E+01  0.26000000000E-02 0.  1.
       1023    2    1    2    0    0  0.00000000000E+00  0.00000000000E+00  0.37061985220E+00  0.20005071344E+02  0.20001637943E+02 0.  0.
        -13    1    3    3    0    0  0.44995251116E+01 -0.89306657496E+01  0.13342956128E+00  0.10001574521E+02  0.10570000000E+00 0. -1.
         13    1    3    3    0    0 -0.44995251116E+01  0.89306657496E+01  0.23719029092E+00  0.10003496823E+02  0.10570000000E+00 0.  1.
<mgrwt>
<rscale>  0 0.20001638E+02</rscale>
<asrwt>0</asrwt>
<pdfrwt beam="2">  1        2 0.15103424E-02 0.20001638E+02</pdfrwt>
<pdfrwt beam="1">  1       -2 0.15673609E-02 0.20001638E+02</pdfrwt>
<totfact> 0.39402504E+06</totfact>
</mgrwt>
</event>
<event>
 4    1  0.1607476E-006  0.2002066E+02  0.7818608E-02  0.1744917E+00
         -2   -1    0    0    0  501 -0.00000000000E+00  0.00000000000E+00  0.15572792143E+01  0.15572813847E+01  0.26000000000E-02 0.  1.
          2   -1    0    0  501    0  0.00000000000E+00 -0.00000000000E+00 -0.64347269965E+02  0.64347270018E+02  0.26000000000E-02 0. -1.
        -13    1    1    2    0    0  0.41046753129E+01  0.91285704055E+01 -0.30973311225E+02  0.32550519778E+02  0.10570000000E+00 0. -1.
         13    1    1    2    0    0 -0.41046753129E+01 -0.91285704055E+01 -0.31816679526E+02  0.33354031625E+02  0.10570000000E+00 0.  1.
<mgrwt>
<rscale>  0 0.20020663E+02</rscale>
<asrwt>0</asrwt>
<pdfrwt beam="2">  1        2 0.98995781E-02 0.20020663E+02</pdfrwt>
<pdfrwt beam="1">  1       -2 0.23958164E-03 0.20020663E+02</pdfrwt>
<totfact> 0.48167426E+06</totfact>
</mgrwt>
</event>
<event>
 5    1  0.1607476E-006  0.2000343E+02  0.7818608E-02  0.1745260E+00
         -2   -1    0    0    0  501 -0.00000000000E+00  0.00000000000E+00  0.35696753366E+02  0.35696753460E+02  0.26000000000E-02 0. -1.
          2   -1    0    0  501    0  0.00000000000E+00 -0.00000000000E+00 -0.28023346955E+01  0.28023359017E+01  0.26000000000E-02 0.  1.
       1023    2    1    2    0    0  0.00000000000E+00  0.00000000000E+00  0.32894418670E+02  0.38499089362E+02  0.20003427258E+02 0.  0.
        -13    1    3    3    0    0  0.99917671104E+01 -0.42888031364E+00  0.16565142081E+02  0.19350308859E+02  0.10570000000E+00 0.  1.
         13    1    3    3    0    0 -0.99917671104E+01  0.42888031364E+00  0.16329276590E+02  0.19148780503E+02  0.10570000000E+00 0. -1.
<mgrwt>
<rscale>  0 0.20003427E+02</rscale>
<asrwt>0</asrwt>
<pdfrwt beam="2">  1        2 0.43112849E-03 0.20003427E+02</pdfrwt>
<pdfrwt beam="1">  1       -2 0.54918086E-02 0.20003427E+02</pdfrwt>
<totfact> 0.35380628E+06</totfact>
</mgrwt>
</event>
<event>
 5    1  0.1607476E-006  0.2000236E+02  0.7818608E-02  0.1745281E+00
         -2   -1    0    0    0  501 -0.00000000000E+00  0.00000000000E+00  0.27567515924E+02  0.27567516046E+02  0.26000000000E-02 0. -1.
          2   -1    0    0  501    0  0.00000000000E+00 -0.00000000000E+00 -0.36283131848E+01  0.36283141163E+01  0.26000000000E-02 0.  1.
       1023    2    1    2    0    0  0.00000000000E+00  0.00000000000E+00  0.23939202739E+02  0.31195830163E+02  0.20002359655E+02 0.  0.
        -13    1    3    3    0    0  0.10600899492E+01  0.99442527233E+01  0.11935699210E+02  0.15571899083E+02  0.10570000000E+00 0.  1.
         13    1    3    3    0    0 -0.10600899492E+01 -0.99442527233E+01  0.12003503529E+02  0.15623931079E+02  0.10570000000E+00 0. -1.
<mgrwt>
<rscale>  0 0.20002360E+02</rscale>
<asrwt>0</asrwt>
<pdfrwt beam="2">  1        2 0.55820209E-03 0.20002360E+02</pdfrwt>
<pdfrwt beam="1">  1       -2 0.42411565E-02 0.20002360E+02</pdfrwt>
<totfact> 0.36360853E+06</totfact>
</mgrwt>
</event>
<event>
 4    1  0.1607476E-006  0.2079391E+02  0.7818608E-02  0.1729986E+00
         -2   -1    0    0    0  501 -0.00000000000E+00  0.00000000000E+00  0.11835202923E+02  0.11835203209E+02  0.26000000000E-02 0. -1.
          2   -1    0    0  501    0  0.00000000000E+00 -0.00000000000E+00 -0.91334884511E+01  0.91334888211E+01  0.26000000000E-02 0.  1.
        -13    1    1    2    0    0 -0.98594911779E+01 -0.25322002511E+01 -0.77970045175E+00  0.10209833969E+02  0.10570000000E+00 0.  1.
         13    1    1    2    0    0  0.98594911779E+01  0.25322002511E+01  0.34814149236E+01  0.10758858060E+02  0.10570000000E+00 0. -1.
<mgrwt>
<rscale>  0 0.20793912E+02</rscale>
<asrwt>0</asrwt>
<pdfrwt beam="2">  1        2 0.14051521E-02 0.20793912E+02</pdfrwt>
<pdfrwt beam="1">  1       -2 0.18208005E-02 0.20793912E+02</pdfrwt>
<totfact> 0.35842277E+06</totfact>
</mgrwt>
</event>
<event>
 4    1  0.1607476E-006  0.2005328E+02  0.7818608E-02  0.1744271E+00
          2   -1    0    0  501    0  0.00000000000E+00  0.00000000000E+00  0.14809009804E+01  0.14809032628E+01  0.26000000000E-02 0.  1.
         -2   -1    0    0    0  501 -0.00000000000E+00 -0.00000000000E+00 -0.67886636479E+02  0.67886636529E+02  0.26000000000E-02 0. -1.
        -13    1    1    2    0    0 -0.19290434303E+01 -0.98331234542E+01 -0.34354148016E+02  0.35785893642E+02  0.10570000000E+00 0. -1.
         13    1    1    2    0    0  0.19290434303E+01  0.98331234542E+01 -0.32051587483E+02  0.33581646150E+02  0.10570000000E+00 0.  1.
<mgrwt>
<rscale>  0 0.20053276E+02</rscale>
<asrwt>0</asrwt>
<pdfrwt beam="1">  1        2 0.22783115E-03 0.20053276E+02</pdfrwt>
<pdfrwt beam="2">  1       -2 0.10444096E-01 0.20053276E+02</pdfrwt>
<totfact> 0.32076900E+06</totfact>
</mgrwt>
</event>
<event>
 5    1  0.1607476E-006  0.2001194E+02  0.7818608E-02  0.1745091E+00
          2   -1    0    0  501    0  0.00000000000E+00  0.00000000000E+00  0.11410993347E+02  0.11410993643E+02  0.26000000000E-02 0. -1.
         -2   -1    0    0    0  501 -0.00000000000E+00 -0.00000000000E+00 -0.87739474251E+01  0.87739478103E+01  0.26000000000E-02 0.  1.
       1023    2    1    2    0    0  0.00000000000E+00  0.00000000000E+00  0.26370459217E+01  0.20184941453E+02  0.20011942691E+02 0.  0.
        -13    1    3    3    0    0  0.96094282506E+01 -0.27838919972E+01  0.11865325291E+01  0.10075226940E+02  0.10570000000E+00 0. -1.
         13    1    3    3    0    0 -0.96094282506E+01  0.27838919972E+01  0.14505133926E+01  0.10109714514E+02  0.10570000000E+00 0.  1.
<mgrwt>
<rscale>  0 0.20011943E+02</rscale>
<asrwt>0</asrwt>
<pdfrwt beam="1">  1        2 0.17555375E-02 0.20011943E+02</pdfrwt>
<pdfrwt beam="2">  1       -2 0.13498381E-02 0.20011943E+02</pdfrwt>
<totfact> 0.39794815E+06</totfact>
</mgrwt>
</event>
<event>
 5    1  0.1607476E-006  0.2000793E+02  0.7818608E-02  0.1745170E+00
         -2   -1    0    0    0  501 -0.00000000000E+00  0.00000000000E+00  0.54339828369E+01  0.54339834589E+01  0.26000000000E-02 0.  1.
          2   -1    0    0  501    0  0.00000000000E+00 -0.00000000000E+00 -0.18417311191E+02  0.18417311375E+02  0.26000000000E-02 0. -1.
       1023    2    1    2    0    0  0.00000000000E+00  0.00000000000E+00 -0.12983328354E+02  0.23851294834E+02  0.20007934678E+02 0.  0.
        -13    1    3    3    0    0 -0.98803930078E+01  0.15627138052E+01 -0.65665822645E+01  0.11966428688E+02  0.10570000000E+00 0. -1.
         13    1    3    3    0    0  0.98803930078E+01 -0.15627138052E+01 -0.64167460900E+01  0.11884866146E+02  0.10570000000E+00 0.  1.
<mgrwt>
<rscale>  0 0.20007935E+02</rscale>
<asrwt>0</asrwt>
<pdfrwt beam="2">  1        2 0.28334325E-02 0.20007935E+02</pdfrwt>
<pdfrwt beam="1">  1       -2 0.83599743E-03 0.20007935E+02</pdfrwt>
<totfact> 0.41343578E+06</totfact>
</mgrwt>
</event>
<event>
 5    1  0.1607476E-006  0.2000784E+02  0.7818608E-02  0.1745172E+00
         -2   -1    0    0    0  501 -0.00000000000E+00  0.00000000000E+00  0.26774743553E+01  0.26774756177E+01  0.26000000000E-02 0. -1.
          2   -1    0    0  501    0  0.00000000000E+00 -0.00000000000E+00 -0.37377917213E+02  0.37377917303E+02  0.26000000000E-02 0.  1.
       1023    2    1    2    0    0  0.00000000000E+00  0.00000000000E+00 -0.34700442858E+02  0.40055392921E+02  0.20007842651E+02 0.  0.
        -13    1    3    3    0    0  0.86433146326E+01 -0.50322114366E+01 -0.16963938958E+02  0.19693055558E+02  0.10570000000E+00 0.  1.
         13    1    3    3    0    0 -0.86433146326E+01  0.50322114366E+01 -0.17736503900E+02  0.20362337363E+02  0.10570000000E+00 0. -1.
<mgrwt>
<rscale>  0 0.20007843E+02</rscale>
<asrwt>0</asrwt>
<pdfrwt beam="2">  1        2 0.57504485E-02 0.20007843E+02</pdfrwt>
<pdfrwt beam="1">  1       -2 0.41191926E-03 0.20007843E+02</pdfrwt>
<totfact> 0.44468586E+06</totfact>
</mgrwt>
</event>
<event>
 4    1  0.1607476E-006  0.2026968E+02  0.7818608E-02  0.1740018E+00
          2   -1    0    0  501    0  0.00000000000E+00  0.00000000000E+00  0.79958109136E+01  0.79958113363E+01  0.26000000000E-02 0.  1.
         -2   -1    0    0    0  501 -0.00000000000E+00 -0.00000000000E+00 -0.12846103064E+02  0.12846103327E+02  0.26000000000E-02 0. -1.
        -13    1    1    2    0    0  0.45486130494E+01 -0.89842107657E+01 -0.35965722864E+01  0.10693569491E+02  0.10570000000E+00 0. -1.
         13    1    1    2    0    0 -0.45486130494E+01  0.89842107657E+01 -0.12537198639E+01  0.10148345173E+02  0.10570000000E+00 0.  1.
<mgrwt>
<rscale>  0 0.20269684E+02</rscale>
<asrwt>0</asrwt>
<pdfrwt beam="1">  1        2 0.12301248E-02 0.20269684E+02</pdfrwt>
<pdfrwt beam="2">  1       -2 0.19763236E-02 0.20269684E+02</pdfrwt>
<totfact> 0.37643077E+06</totfact>
</mgrwt>
</event>
<event>
 5    1  0.1607476E-006  0.2000139E+02  0.7818608E-02  0.1745301E+00
          2   -1    0    0  501    0  0.00000000000E+00  0.00000000000E+00  0.40956880064E+01  0.40956888317E+01  0.26000000000E-02 0. -1.
         -2   -1    0    0    0  501 -0.00000000000E+00 -0.00000000000E+00 -0.24419302401E+02  0.24419302539E+02  0.26000000000E-02 0.  1.
       1023    2    1    2    0    0  0.00000000000E+00  0.00000000000E+00 -0.20323614394E+02  0.28514991371E+02  0.20001385723E+02 0.  0.
        -13    1    3    3    0    0 -0.18585627795E+01 -0.98259060097E+01 -0.10160613751E+02  0.14256645075E+02  0.10570000000E+00 0. -1.
         13    1    3    3    0    0  0.18585627795E+01  0.98259060097E+01 -0.10163000643E+02  0.14258346296E+02  0.10570000000E+00 0.  1.
<mgrwt>
<rscale>  0 0.20001386E+02</rscale>
<asrwt>0</asrwt>
<pdfrwt beam="1">  1        2 0.63010594E-03 0.20001386E+02</pdfrwt>
<pdfrwt beam="2">  1       -2 0.37568157E-02 0.20001386E+02</pdfrwt>
<totfact> 0.36782732E+06</totfact>
</mgrwt>
</event>
<event>
 4    1  0.1607476E-006  0.2009513E+02  0.7818608E-02  0.1743443E+00
         -2   -1    0    0    0  501 -0.00000000000E+00  0.00000000000E+00  0.18200166562E+02  0.18200166748E+02  0.26000000000E-02 0.  1.
          2   -1    0    0  501    0  0.00000000000E+00 -0.00000000000E+00 -0.55468453915E+01  0.55468460009E+01  0.26000000000E-02 0. -1.
        -13    1    1    2    0    0  0.60126303663E+00  0.10017796421E+02  0.68866866509E+01  0.12171909788E+02  0.10570000000E+00 0. -1.
         13    1    1    2    0    0 -0.60126303663E+00 -0.10017796421E+02  0.57666345199E+01  0.11575102961E+02  0.10570000000E+00 0.  1.
<mgrwt>
<rscale>  0 0.20095126E+02</rscale>
<asrwt>0</asrwt>
<pdfrwt beam="2">  1        2 0.85336088E-03 0.20095126E+02</pdfrwt>
<pdfrwt beam="1">  1       -2 0.28000257E-02 0.20095126E+02</pdfrwt>
<totfact> 0.37338066E+06</totfact>
</mgrwt>
</event>
<event>
 4    1  0.1607476E-006  0.2001909E+02  0.7818608E-02  0.1744949E+00
         -2   -1    0    0    0  501 -0.00000000000E+00  0.00000000000E+00  0.93105481742E+02  0.93105481779E+02  0.26000000000E-02 0.  1.
          2   -1    0    0  501    0  0.00000000000E+00 -0.00000000000E+00 -0.10761008329E+01  0.10761039739E+01  0.26000000000E-02 0. -1.
        -13    1    1    2    0    0  0.82130005014E+01 -0.57193666759E+01  0.46597208331E+02  0.47659999257E+02  0.10570000000E+00 0. -1.
         13    1    1    2    0    0 -0.82130005014E+01  0.57193666759E+01  0.45432172578E+02  0.46521586495E+02  0.10570000000E+00 0.  1.
<mgrwt>
<rscale>  0 0.20019094E+02</rscale>
<asrwt>0</asrwt>
<pdfrwt beam="2">  1        2 0.16555417E-03 0.20019094E+02</pdfrwt>
<pdfrwt beam="1">  1       -2 0.14323925E-01 0.20019094E+02</pdfrwt>
<totfact> 0.30177230E+06</totfact>
</mgrwt>
</event>
<event>
 5    1  0.1607476E-006  0.2000173E+02  0.7818608E-02  0.1745294E+00
          2   -1    0    0  501    0  0.00000000000E+00  0.00000000000E+00  0.68516786594E+01  0.68516791527E+01  0.26000000000E-02 0.  1.
         -2   -1    0    0    0  501 -0.00000000000E+00 -0.00000000000E+00 -0.14597483919E+02  0.14597484151E+02  0.26000000000E-02 0. -1.
       1023    2    1    2    0    0  0.00000000000E+00  0.00000000000E+00 -0.77458052597E+01  0.21449163303E+02  0.20001727608E+02 0.  0.
        -13    1    3    3    0    0 -0.96814277896E+01 -0.25049656969E+01 -0.39101608788E+01  0.10738036495E+02  0.10570000000E+00 0.  1.
         13    1    3    3    0    0  0.96814277896E+01  0.25049656969E+01 -0.38356443809E+01  0.10711126808E+02  0.10570000000E+00 0. -1.
<mgrwt>
<rscale>  0 0.20001728E+02</rscale>
<asrwt>0</asrwt>
<pdfrwt beam="1">  1        2 0.10541045E-02 0.20001728E+02</pdfrwt>
<pdfrwt beam="2">  1       -2 0.22457668E-02 0.20001728E+02</pdfrwt>
<totfact> 0.38369520E+06</totfact>
</mgrwt>
</event>
<event>
 5    1  0.1607476E-006  0.2000559E+02  0.7818608E-02  0.1745217E+00
          2   -1    0    0  501    0  0.00000000000E+00  0.00000000000E+00  0.33320299357E+01  0.33320309501E+01  0.26000000000E-02 0.  1.
         -2   -1    0    0    0  501 -0.00000000000E+00 -0.00000000000E+00 -0.30028511980E+02  0.30028512092E+02  0.26000000000E-02 0. -1.
       1023    2    1    2    0    0  0.00000000000E+00  0.00000000000E+00 -0.26696482044E+02  0.33360543042E+02  0.20005591182E+02 0.  0.
        -13    1    3    3    0    0  0.96053351174E+01  0.27822335148E+01 -0.13687789777E+02  0.16951992435E+02  0.10570000000E+00 0.  1.
         13    1    3    3    0    0 -0.96053351174E+01 -0.27822335148E+01 -0.13008692267E+02  0.16408550607E+02  0.10570000000E+00 0. -1.
<mgrwt>
<rscale>  0 0.20005591E+02</rscale>
<asrwt>0</asrwt>
<pdfrwt beam="1">  1        2 0.51262010E-03 0.20005591E+02</pdfrwt>
<pdfrwt beam="2">  1       -2 0.46197710E-02 0.20005591E+02</pdfrwt>
<totfact> 0.36038869E+06</totfact>
</mgrwt>
</event>
<event>
 5    1  0.1608041E-006  0.2000125E+02  0.7818608E-02  0.1745303E+00
          2   -1    0    0  501    0  0.00000000000E+00  0.00000000000E+00  0.36883603440E+02  0.36883603532E+02  0.26000000000E-02 0.  1.
         -2   -1    0    0    0  501 -0.00000000000E+00 -0.00000000000E+00 -0.27115705448E+01  0.27115717914E+01  0.26000000000E-02 0. -1.
       1023    2    1    2    0    0  0.00000000000E+00  0.00000000000E+00  0.34172032895E+02  0.39595175323E+02  0.20001251878E+02 0.  0.
        -13    1    3    3    0    0  0.98432238598E+01  0.17638962042E+01  0.17147382076E+02  0.19850548363E+02  0.10570000000E+00 0.  1.
         13    1    3    3    0    0 -0.98432238598E+01 -0.17638962042E+01  0.17024650819E+02  0.19744626960E+02  0.10570000000E+00 0. -1.
<mgrwt>
<rscale>  0 0.20001252E+02</rscale>
<asrwt>0</asrwt>
<pdfrwt beam="1">  1        2 0.56744006E-02 0.20001252E+02</pdfrwt>
<pdfrwt beam="2">  1       -2 0.41716481E-03 0.20001252E+02</pdfrwt>
<totfact> 0.44427329E+06</totfact>
</mgrwt>
</event>
<event>
 4    1  0.1607476E-006  0.2054587E+02  0.7818608E-02  0.1734686E+00
         -2   -1    0    0    0  501 -0.00000000000E+00  0.00000000000E+00  0.22270140847E+02  0.22270140999E+02  0.26000000000E-02 0.  1.
          2   -1    0    0  501    0  0.00000000000E+00 -0.00000000000E+00 -0.47387740381E+01  0.47387747514E+01  0.26000000000E-02 0. -1.
        -13    1    1    2    0    0 -0.51288621134E+01  0.86419209889E+01  0.59665575558E+01  0.11687557765E+02  0.10570000000E+00 0. -1.
         13    1    1    2    0    0  0.51288621134E+01 -0.86419209889E+01  0.11564809253E+02  0.15321357985E+02  0.10570000000E+00 0.  1.
<mgrwt>
<rscale>  0 0.20545868E+02</rscale>
<asrwt>0</asrwt>
<pdfrwt beam="2">  1        2 0.72904222E-03 0.20545868E+02</pdfrwt>
<pdfrwt beam="1">  1       -2 0.34261756E-02 0.20545868E+02</pdfrwt>
<totfact> 0.34977904E+06</totfact>
</mgrwt>
</event>
<event>
 4    1  0.1607476E-006  0.2001324E+02  0.7818608E-02  0.1745065E+00
         -2   -1    0    0    0  501 -0.00000000000E+00  0.00000000000E+00  0.98843338376E+01  0.98843341795E+01  0.26000000000E-02 0. -1.
          2   -1    0    0  501    0  0.00000000000E+00 -0.00000000000E+00 -0.10130420425E+02  0.10130420759E+02  0.26000000000E-02 0.  1.
        -13    1    1    2    0    0 -0.48522331233E+00 -0.99909063833E+01  0.13705260068E+00  0.10004179523E+02  0.10570000000E+00 0. -1.
         13    1    1    2    0    0  0.48522331233E+00  0.99909063833E+01 -0.38313918853E+00  0.10010575416E+02  0.10570000000E+00 0.  1.
<mgrwt>
<rscale>  0 0.20013242E+02</rscale>
<asrwt>0</asrwt>
<pdfrwt beam="2">  1        2 0.15585263E-02 0.20013242E+02</pdfrwt>
<pdfrwt beam="1">  1       -2 0.15206668E-02 0.20013242E+02</pdfrwt>
<totfact> 0.39441013E+06</totfact>
</mgrwt>
</event>
<event>
 4    1  0.1607476E-006  0.2006159E+02  0.7818608E-02  0.1744106E+00
         -2   -1    0    0    0  501 -0.00000000000E+00  0.00000000000E+00  0.14224776671E+01  0.14224800432E+01  0.26000000000E-02 0.  1.
          2   -1    0    0  501    0  0.00000000000E+00 -0.00000000000E+00 -0.70733474884E+02  0.70733474932E+02  0.26000000000E-02 0. -1.
        -13    1    1    2    0    0  0.69370269495E+01  0.72167618857E+01 -0.36935117062E+02  0.38267715374E+02  0.10570000000E+00 0.  1.
         13    1    1    2    0    0 -0.69370269495E+01 -0.72167618857E+01 -0.32375880155E+02  0.33888239601E+02  0.10570000000E+00 0. -1.
<mgrwt>
<rscale>  0 0.20061593E+02</rscale>
<asrwt>0</asrwt>
<pdfrwt beam="2">  1        2 0.10882070E-01 0.20061593E+02</pdfrwt>
<pdfrwt beam="1">  1       -2 0.21884296E-03 0.20061593E+02</pdfrwt>
<totfact> 0.48781299E+06</totfact>
</mgrwt>
</event>
<event>
 4    1  0.1607476E-006  0.2002337E+02  0.7818608E-02  0.1744864E+00
         -2   -1    0    0    0  501 -0.00000000000E+00  0.00000000000E+00  0.49656592565E+02  0.49656592633E+02  0.26000000000E-02 0.  1.
          2   -1    0    0  501    0  0.00000000000E+00 -0.00000000000E+00 -0.20185396338E+01  0.20185413083E+01  0.26000000000E-02 0. -1.
        -13    1    1    2    0    0 -0.14066866217E+01  0.99114722965E+01  0.23609011095E+02  0.25643958893E+02  0.10570000000E+00 0. -1.
         13    1    1    2    0    0  0.14066866217E+01 -0.99114722965E+01  0.24029041837E+02  0.26031175049E+02  0.10570000000E+00 0.  1.
<mgrwt>
<rscale>  0 0.20023371E+02</rscale>
<asrwt>0</asrwt>
<pdfrwt beam="2">  1        2 0.31054470E-03 0.20023371E+02</pdfrwt>
<pdfrwt beam="1">  1       -2 0.76394757E-02 0.20023371E+02</pdfrwt>
<totfact> 0.33845754E+06</totfact>
</mgrwt>
</event>
<event>
 5    1  0.1607476E-006  0.2001214E+02  0.7818608E-02  0.1745087E+00
         -2   -1    0    0    0  501 -0.00000000000E+00  0.00000000000E+00  0.18338560004E+02  0.18338560189E+02  0.26000000000E-02 0. -1.
          2   -1    0    0  501    0  0.00000000000E+00 -0.00000000000E+00 -0.54596098332E+01  0.54596104523E+01  0.26000000000E-02 0.  1.
       1023    2    1    2    0    0  0.00000000000E+00  0.00000000000E+00  0.12878950171E+02  0.23798170641E+02  0.20012135527E+02 0.  0.
        -13    1    3    3    0    0 -0.10004041313E+02 -0.42659220273E-01  0.62420657468E+01  0.11792252528E+02  0.10570000000E+00 0.  1.
         13    1    3    3    0    0  0.10004041313E+02  0.42659220273E-01  0.66368844243E+01  0.12005918113E+02  0.10570000000E+00 0. -1.
<mgrwt>
<rscale>  0 0.20012136E+02</rscale>
<asrwt>0</asrwt>
<pdfrwt beam="2">  1        2 0.83994004E-03 0.20012136E+02</pdfrwt>
<pdfrwt beam="1">  1       -2 0.28213170E-02 0.20012136E+02</pdfrwt>
<totfact> 0.37651486E+06</totfact>
</mgrwt>
</event>
<event>
 5    1  0.1607476E-006  0.2000146E+02  0.7818608E-02  0.1745299E+00
         -2   -1    0    0    0  501 -0.00000000000E+00  0.00000000000E+00  0.32643551634E+02  0.32643551737E+02  0.26000000000E-02 0.  1.
          2   -1    0    0  501    0  0.00000000000E+00 -0.00000000000E+00 -0.30638399597E+01  0.30638410628E+01  0.26000000000E-02 0. -1.
       1023    2    1    2    0    0  0.00000000000E+00  0.00000000000E+00  0.29579711674E+02  0.35707392800E+02  0.20001463893E+02 0.  0.
        -13    1    3    3    0    0 -0.90928925065E+01  0.41619609111E+01  0.14842032923E+02  0.17896919471E+02  0.10570000000E+00 0.  1.
         13    1    3    3    0    0  0.90928925065E+01 -0.41619609111E+01  0.14737678751E+02  0.17810473329E+02  0.10570000000E+00 0. -1.
<mgrwt>
<rscale>  0 0.20001464E+02</rscale>
<asrwt>0</asrwt>
<pdfrwt beam="2">  1        2 0.47136009E-03 0.20001464E+02</pdfrwt>
<pdfrwt beam="1">  1       -2 0.50220849E-02 0.20001464E+02</pdfrwt>
<totfact> 0.35740361E+06</totfact>
</mgrwt>
</event>
<event>
 5    1  0.1607476E-006  0.2000346E+02  0.7818608E-02  0.1745259E+00
         -2   -1    0    0    0  501 -0.00000000000E+00  0.00000000000E+00  0.25330638768E+02  0.25330638902E+02  0.26000000000E-02 0.  1.
          2   -1    0    0  501    0  0.00000000000E+00 -0.00000000000E+00 -0.39491545330E+01  0.39491553889E+01  0.26000000000E-02 0. -1.
       1023    2    1    2    0    0  0.00000000000E+00  0.00000000000E+00  0.21381484235E+02  0.29279794290E+02  0.20003461840E+02 0.  0.
        -13    1    3    3    0    0 -0.99961974312E+01 -0.30454169258E+00  0.10570571397E+02  0.14552142827E+02  0.10570000000E+00 0. -1.
         13    1    3    3    0    0  0.99961974312E+01  0.30454169258E+00  0.10810912838E+02  0.14727651463E+02  0.10570000000E+00 0.  1.
<mgrwt>
<rscale>  0 0.20003462E+02</rscale>
<asrwt>0</asrwt>
<pdfrwt beam="2">  1        2 0.60756232E-03 0.20003462E+02</pdfrwt>
<pdfrwt beam="1">  1       -2 0.38970213E-02 0.20003462E+02</pdfrwt>
<totfact> 0.36650455E+06</totfact>
</mgrwt>
</event>
<event>
 5    1  0.1607476E-006  0.2000151E+02  0.7818608E-02  0.1745298E+00
          2   -1    0    0  501    0  0.00000000000E+00  0.00000000000E+00  0.11491705653E+01  0.11491735066E+01  0.26000000000E-02 0.  1.
         -2   -1    0    0    0  501 -0.00000000000E+00 -0.00000000000E+00 -0.87032331301E+02  0.87032331340E+02  0.26000000000E-02 0. -1.
       1023    2    1    2    0    0  0.00000000000E+00  0.00000000000E+00 -0.85883160735E+02  0.88181504846E+02  0.20001512419E+02 0.  0.
        -13    1    3    3    0    0  0.85536799485E+01 -0.51805355588E+01 -0.42836977821E+02  0.43988876215E+02  0.10570000000E+00 0. -1.
         13    1    3    3    0    0 -0.85536799485E+01  0.51805355588E+01 -0.43046182914E+02  0.44192628631E+02  0.10570000000E+00 0.  1.
<mgrwt>
<rscale>  0 0.20001512E+02</rscale>
<asrwt>0</asrwt>
<pdfrwt beam="1">  1        2 0.17679577E-03 0.20001512E+02</pdfrwt>
<pdfrwt beam="2">  1       -2 0.13389585E-01 0.20001512E+02</pdfrwt>
<totfact> 0.30698450E+06</totfact>
</mgrwt>
</event>
<event>
 5    1  0.1607476E-006  0.2000150E+02  0.7818608E-02  0.1745298E+00
          2   -1    0    0  501    0  0.00000000000E+00  0.00000000000E+00  0.15585012457E+02  0.15585012674E+02  0.26000000000E-02 0.  1.
         -2   -1    0    0    0  501 -0.00000000000E+00 -0.00000000000E+00 -0.64173847924E+01  0.64173853191E+01  0.26000000000E-02 0. -1.
       1023    2    1    2    0    0  0.00000000000E+00  0.00000000000E+00  0.91676276649E+01  0.22002397993E+02  0.20001502955E+02 0.  0.
        -13    1    3    3    0    0 -0.16153696154E+01 -0.98688102135E+01  0.45486195223E+01  0.10986534762E+02  0.10570000000E+00 0. -1.
         13    1    3    3    0    0  0.16153696154E+01  0.98688102135E+01  0.46190081426E+01  0.11015863231E+02  0.10570000000E+00 0.  1.
<mgrwt>
<rscale>  0 0.20001503E+02</rscale>
<asrwt>0</asrwt>
<pdfrwt beam="1">  1        2 0.23976942E-02 0.20001503E+02</pdfrwt>
<pdfrwt beam="2">  1       -2 0.98729005E-03 0.20001503E+02</pdfrwt>
<totfact> 0.40806718E+06</totfact>
</mgrwt>
</event>
<event>
 4    1  0.1607476E-006  0.2006816E+02  0.7818608E-02  0.1743976E+00
          2   -1    0    0  501    0  0.00000000000E+00  0.00000000000E+00  0.57414701132E+01  0.57414707019E+01  0.26000000000E-02 0.  1.
         -2   -1    0    0    0  501 -0.00000000000E+00 -0.00000000000E+00 -0.17536059122E+02  0.17536059314E+02  0.26000000000E-02 0. -1.
        -13    1    1    2    0    0 -0.93539827146E+00  0.99834533030E+01 -0.63111225729E+01  0.11848449282E+02  0.10570000000E+00 0.  1.
         13    1    1    2    0    0  0.93539827146E+00 -0.99834533030E+01 -0.54834664355E+01  0.11429080734E+02  0.10570000000E+00 0. -1.
<mgrwt>
<rscale>  0 0.20068161E+02</rscale>
<asrwt>0</asrwt>
<pdfrwt beam="1">  1        2 0.88330316E-03 0.20068161E+02</pdfrwt>
<pdfrwt beam="2">  1       -2 0.26978553E-02 0.20068161E+02</pdfrwt>
<totfact> 0.37558451E+06</totfact>
</mgrwt>
</event>
<event>
 4    1  0.1607476E-006  0.2001340E+02  0.7818608E-02  0.1745062E+00
         -2   -1    0    0    0  501 -0.00000000000E+00  0.00000000000E+00  0.14701867201E+02  0.14701867431E+02  0.26000000000E-02 0. -1.
          2   -1    0    0  501    0  0.00000000000E+00 -0.00000000000E+00 -0.68109725953E+01  0.68109730916E+01  0.26000000000E-02 0.  1.
        -13    1    1    2    0    0 -0.94486123095E+01  0.32933132757E+01  0.39731257072E+01  0.10766572680E+02  0.10570000000E+00 0.  1.
         13    1    1    2    0    0  0.94486123095E+01 -0.32933132757E+01  0.39177688988E+01  0.10746267842E+02  0.10570000000E+00 0. -1.
<mgrwt>
<rscale>  0 0.20013398E+02</rscale>
<asrwt>0</asrwt>
<pdfrwt beam="2">  1        2 0.10478420E-02 0.20013398E+02</pdfrwt>
<pdfrwt beam="1">  1       -2 0.22618258E-02 0.20013398E+02</pdfrwt>
<totfact> 0.38300602E+06</totfact>
</mgrwt>
</event>
<event>
 5    1  0.1607476E-006  0.2001142E+02  0.7818608E-02  0.1745101E+00
          2   -1    0    0  501    0  0.00000000000E+00  0.00000000000E+00  0.17330646987E+01  0.17330666490E+01  0.26000000000E-02 0. -1.
         -2   -1    0    0    0  501 -0.00000000000E+00 -0.00000000000E+00 -0.57767110953E+02  0.57767111012E+02  0.26000000000E-02 0.  1.
       1023    2    1    2    0    0  0.00000000000E+00  0.00000000000E+00 -0.56034046255E+02  0.59500177661E+02  0.20011416791E+02 0.  0.
        -13    1    3    3    0    0  0.67547995359E+01  0.73788444136E+01 -0.27516248615E+02  0.29278486505E+02  0.10570000000E+00 0. -1.
         13    1    3    3    0    0 -0.67547995359E+01 -0.73788444136E+01 -0.28517797639E+02  0.30221691156E+02  0.10570000000E+00 0.  1.
<mgrwt>
<rscale>  0 0.20011417E+02</rscale>
<asrwt>0</asrwt>
<pdfrwt beam="1">  1        2 0.26662554E-03 0.20011417E+02</pdfrwt>
<pdfrwt beam="2">  1       -2 0.88872465E-02 0.20011417E+02</pdfrwt>
<totfact> 0.33122548E+06</totfact>
</mgrwt>
</event>
<event>
 5    1  0.1607476E-006  0.2000876E+02  0.7818608E-02  0.1745154E+00
          2   -1    0    0  501    0  0.00000000000E+00  0.00000000000E+00  0.89758407037E+01  0.89758410803E+01  0.26000000000E-02 0. -1.
         -2   -1    0    0    0  501 -0.00000000000E+00 -0.00000000000E+00 -0.11150776432E+02  0.11150776735E+02  0.26000000000E-02 0.  1.
       1023    2    1    2    0    0  0.00000000000E+00  0.00000000000E+00 -0.21749357279E+01  0.20126617815E+02  0.20008758064E+02 0.  0.
        -13    1    3    3    0    0  0.67248990857E+01 -0.74060418511E+01 -0.11397713506E+01  0.10068960961E+02  0.10570000000E+00 0.  1.
         13    1    3    3    0    0 -0.67248990857E+01  0.74060418511E+01 -0.10351643773E+01  0.10057656854E+02  0.10570000000E+00 0. -1.
<mgrwt>
<rscale>  0 0.20008758E+02</rscale>
<asrwt>0</asrwt>
<pdfrwt beam="1">  1        2 0.13808986E-02 0.20008758E+02</pdfrwt>
<pdfrwt beam="2">  1       -2 0.17155041E-02 0.20008758E+02</pdfrwt>
<totfact> 0.39113209E+06</totfact>
</mgrwt>
</event>
<event>
 5    1  0.1607476E-006  0.2000216E+02  0.7818608E-02  0.1745285E+00
         -2   -1    0    0    0  501 -0.00000000000E+00  0.00000000000E+00  0.52657400189E+01  0.52657406608E+01  0.26000000000E-02 0. -1.
          2   -1    0    0  501    0  0.00000000000E+00 -0.00000000000E+00 -0.18994792893E+02  0.18994793071E+02  0.26000000000E-02 0.  1.
       1023    2    1    2    0    0  0.00000000000E+00  0.00000000000E+00 -0.13729052874E+02  0.24260533732E+02  0.20002164986E+02 0.  0.
        -13    1    3    3    0    0  0.77222250174E+01  0.63542377014E+01 -0.68194276631E+01  0.12104745438E+02  0.10570000000E+00 0.  1.
         13    1    3    3    0    0 -0.77222250174E+01 -0.63542377014E+01 -0.69096252108E+01  0.12155788293E+02  0.10570000000E+00 0. -1.
<mgrwt>
<rscale>  0 0.20002165E+02</rscale>
<asrwt>0</asrwt>
<pdfrwt beam="2">  1        2 0.29222759E-02 0.20002165E+02</pdfrwt>
<pdfrwt beam="1">  1       -2 0.81011392E-03 0.20002165E+02</pdfrwt>
<totfact> 0.41480441E+06</totfact>
</mgrwt>
</event>
<event>
 5    1  0.1607476E-006  0.2000122E+02  0.7818608E-02  0.1745304E+00
          2   -1    0    0  501    0  0.00000000000E+00  0.00000000000E+00  0.50618019411E+01  0.50618026089E+01  0.26000000000E-02 0. -1.
         -2   -1    0    0    0  501 -0.00000000000E+00 -0.00000000000E+00 -0.19758214134E+02  0.19758214305E+02  0.26000000000E-02 0.  1.
       1023    2    1    2    0    0  0.00000000000E+00  0.00000000000E+00 -0.14696412193E+02  0.24820016914E+02  0.20001217670E+02 0.  0.
        -13    1    3    3    0    0 -0.25905618958E+01 -0.96586743447E+01 -0.73505419692E+01  0.12411391572E+02  0.10570000000E+00 0.  1.
         13    1    3    3    0    0  0.25905618958E+01  0.96586743447E+01 -0.73458702237E+01  0.12408625342E+02  0.10570000000E+00 0. -1.
<mgrwt>
<rscale>  0 0.20001218E+02</rscale>
<asrwt>0</asrwt>
<pdfrwt beam="1">  1        2 0.77873884E-03 0.20001218E+02</pdfrwt>
<pdfrwt beam="2">  1       -2 0.30397253E-02 0.20001218E+02</pdfrwt>
<totfact> 0.37466856E+06</totfact>
</mgrwt>
</event>
<event>
 4    1  0.1607476E-006  0.2006498E+02  0.7818608E-02  0.1744039E+00
          2   -1    0    0  501    0  0.00000000000E+00  0.00000000000E+00  0.29214299802E+02  0.29214299918E+02  0.26000000000E-02 0.  1.
         -2   -1    0    0    0  501 -0.00000000000E+00 -0.00000000000E+00 -0.34452607375E+01  0.34452617186E+01  0.26000000000E-02 0. -1.
        -13    1    1    2    0    0  0.70718269841E+01  0.71053502226E+01  0.12269031604E+02  0.15844148689E+02  0.10570000000E+00 0.  1.
         13    1    1    2    0    0 -0.70718269841E+01 -0.71053502226E+01  0.13500007460E+02  0.16815412948E+02  0.10570000000E+00 0. -1.
<mgrwt>
<rscale>  0 0.20064984E+02</rscale>
<asrwt>0</asrwt>
<pdfrwt beam="1">  1        2 0.44945077E-02 0.20064984E+02</pdfrwt>
<pdfrwt beam="2">  1       -2 0.53004020E-03 0.20064984E+02</pdfrwt>
<totfact> 0.42934537E+06</totfact>
</mgrwt>
</event>
<event>
 5    1  0.1634864E-006  0.2000514E+02  0.7818608E-02  0.1745226E+00
          2   -1    0    0  501    0  0.00000000000E+00  0.00000000000E+00  0.65143083712E+02  0.65143083764E+02  0.26000000000E-02 0. -1.
         -2   -1    0    0    0  501 -0.00000000000E+00 -0.00000000000E+00 -0.15358702205E+01  0.15358724212E+01  0.26000000000E-02 0.  1.
       1023    2    1    2    0    0  0.00000000000E+00  0.00000000000E+00  0.63607213491E+02  0.66678956185E+02  0.20005139084E+02 0.  0.
        -13    1    3    3    0    0 -0.88868205365E+01 -0.45862815494E+01  0.31219913523E+02  0.32782674244E+02  0.10570000000E+00 0.  1.
         13    1    3    3    0    0  0.88868205365E+01  0.45862815494E+01  0.32387299968E+02  0.33896281941E+02  0.10570000000E+00 0. -1.
<mgrwt>
<rscale>  0 0.20005139E+02</rscale>
<asrwt>0</asrwt>
<pdfrwt beam="1">  1        2 0.10022011E-01 0.20005139E+02</pdfrwt>
<pdfrwt beam="2">  1       -2 0.23628794E-03 0.20005139E+02</pdfrwt>
<totfact> 0.48355677E+06</totfact>
</mgrwt>
</event>
<event>
 5    1  0.1607476E-006  0.2000449E+02  0.7818608E-02  0.1745239E+00
         -2   -1    0    0    0  501 -0.00000000000E+00  0.00000000000E+00  0.35143360897E+01  0.35143370515E+01  0.26000000000E-02 0.  1.
          2   -1    0    0  501    0  0.00000000000E+00 -0.00000000000E+00 -0.28467639009E+02  0.28467639128E+02  0.26000000000E-02 0. -1.
       1023    2    1    2    0    0  0.00000000000E+00  0.00000000000E+00 -0.24953302919E+02  0.31981976179E+02  0.20004486340E+02 0.  0.
        -13    1    3    3    0    0  0.99854028797E+01 -0.56460725611E+00 -0.12346337719E+02  0.15889313377E+02  0.10570000000E+00 0. -1.
         13    1    3    3    0    0 -0.99854028797E+01  0.56460725611E+00 -0.12606965200E+02  0.16092662803E+02  0.10570000000E+00 0.  1.
<mgrwt>
<rscale>  0 0.20004486E+02</rscale>
<asrwt>0</asrwt>
<pdfrwt beam="2">  1        2 0.43796367E-02 0.20004486E+02</pdfrwt>
<pdfrwt beam="1">  1       -2 0.54066719E-03 0.20004486E+02</pdfrwt>
<totfact> 0.43106444E+06</totfact>
</mgrwt>
</event>
<event>
 5    1  0.1607476E-006  0.2000409E+02  0.7818608E-02  0.1745247E+00
          2   -1    0    0  501    0  0.00000000000E+00  0.00000000000E+00  0.11820064870E+02  0.11820065156E+02  0.26000000000E-02 0.  1.
         -2   -1    0    0    0  501 -0.00000000000E+00 -0.00000000000E+00 -0.84636525830E+01  0.84636529823E+01  0.26000000000E-02 0. -1.
       1023    2    1    2    0    0  0.00000000000E+00  0.00000000000E+00  0.33564122874E+01  0.20283718139E+02  0.20004092533E+02 0.  0.
        -13    1    3    3    0    0 -0.33818537854E+01 -0.94122993785E+01  0.17167161871E+01  0.10148231450E+02  0.10570000000E+00 0.  1.
         13    1    3    3    0    0  0.33818537854E+01  0.94122993785E+01  0.16396961003E+01  0.10135486688E+02  0.10570000000E+00 0. -1.
<mgrwt>
<rscale>  0 0.20004093E+02</rscale>
<asrwt>0</asrwt>
<pdfrwt beam="1">  1        2 0.18184716E-02 0.20004093E+02</pdfrwt>
<pdfrwt beam="2">  1       -2 0.13021005E-02 0.20004093E+02</pdfrwt>
<totfact> 0.39934978E+06</totfact>
</mgrwt>
</event>
<event>
 4    1  0.1607476E-006  0.2003224E+02  0.7818608E-02  0.1744688E+00
          2   -1    0    0  501    0  0.00000000000E+00  0.00000000000E+00  0.38771882762E+01  0.38771891480E+01  0.26000000000E-02 0.  1.
         -2   -1    0    0    0  501 -0.00000000000E+00 -0.00000000000E+00 -0.25875094123E+02  0.25875094254E+02  0.26000000000E-02 0. -1.
        -13    1    1    2    0    0  0.78124196541E+01  0.62657806404E+01 -0.10802218039E+02  0.14730682093E+02  0.10570000000E+00 0. -1.
         13    1    1    2    0    0 -0.78124196541E+01 -0.62657806404E+01 -0.11195687808E+02  0.15021601308E+02  0.10570000000E+00 0.  1.
<mgrwt>
<rscale>  0 0.20032237E+02</rscale>
<asrwt>0</asrwt>
<pdfrwt beam="1">  1        2 0.59649060E-03 0.20032237E+02</pdfrwt>
<pdfrwt beam="2">  1       -2 0.39807837E-02 0.20032237E+02</pdfrwt>
<totfact> 0.36463326E+06</totfact>
</mgrwt>
</event>
<event>
 5    1  0.1607476E-006  0.2001180E+02  0.7818608E-02  0.1745094E+00
         -2   -1    0    0    0  501 -0.00000000000E+00  0.00000000000E+00  0.14660937258E+02  0.14660937489E+02  0.26000000000E-02 0.  1.
          2   -1    0    0  501    0  0.00000000000E+00 -0.00000000000E+00 -0.68288955120E+01  0.68288960070E+01  0.26000000000E-02 0. -1.
       1023    2    1    2    0    0  0.00000000000E+00  0.00000000000E+00  0.78320417460E+01  0.21489833496E+02  0.20011798164E+02 0.  0.
        -13    1    3    3    0    0 -0.99468753675E+01 -0.10615447817E+01  0.37022258504E+01  0.10666998436E+02  0.10570000000E+00 0.  1.
         13    1    3    3    0    0  0.99468753675E+01  0.10615447817E+01  0.41298158956E+01  0.10822835059E+02  0.10570000000E+00 0. -1.
<mgrwt>
<rscale>  0 0.20011798E+02</rscale>
<asrwt>0</asrwt>
<pdfrwt beam="2">  1        2 0.10505994E-02 0.20011798E+02</pdfrwt>
<pdfrwt beam="1">  1       -2 0.22555288E-02 0.20011798E+02</pdfrwt>
<totfact> 0.38315294E+06</totfact>
</mgrwt>
</event>
<event>
 4    1  0.1607476E-006  0.2004210E+02  0.7818608E-02  0.1744492E+00
         -2   -1    0    0    0  501 -0.00000000000E+00  0.00000000000E+00  0.23738965703E+02  0.23738965846E+02  0.26000000000E-02 0. -1.
          2   -1    0    0  501    0  0.00000000000E+00 -0.00000000000E+00 -0.42302356537E+01  0.42302364527E+01  0.26000000000E-02 0.  1.
        -13    1    1    2    0    0  0.10004715253E+02 -0.28638668333E+00  0.10429306408E+02  0.14455377866E+02  0.10570000000E+00 0. -1.
         13    1    1    2    0    0 -0.10004715253E+02  0.28638668333E+00  0.90794236421E+01  0.13513824432E+02  0.10570000000E+00 0.  1.
<mgrwt>
<rscale>  0 0.20042099E+02</rscale>
<asrwt>0</asrwt>
<pdfrwt beam="2">  1        2 0.65080557E-03 0.20042099E+02</pdfrwt>
<pdfrwt beam="1">  1       -2 0.36521485E-02 0.20042099E+02</pdfrwt>
<totfact> 0.36714343E+06</totfact>
</mgrwt>
</event>
<event>
 5    1  0.1607476E-006  0.2000660E+02  0.7818608E-02  0.1745197E+00
         -2   -1    0    0    0  501 -0.00000000000E+00  0.00000000000E+00  0.16948956344E+02  0.16948956543E+02  0.26000000000E-02 0. -1.
          2   -1    0    0  501    0  0.00000000000E+00 -0.00000000000E+00 -0.59039596862E+01  0.59039602587E+01  0.26000000000E-02 0.  1.
       1023    2    1    2    0    0  0.00000000000E+00  0.00000000000E+00  0.11044996658E+02  0.22852916802E+02  0.20006595292E+02 0.  0.
        -13    1    3    3    0    0 -0.91890594264E+01 -0.39454353320E+01  0.57766839029E+01  0.11549308313E+02  0.10570000000E+00 0. -1.
         13    1    3    3    0    0  0.91890594264E+01  0.39454353320E+01  0.52683127547E+01  0.11303608489E+02  0.10570000000E+00 0.  1.
<mgrwt>
<rscale>  0 0.20006595E+02</rscale>
<asrwt>0</asrwt>
<pdfrwt beam="2">  1        2 0.90830156E-03 0.20006595E+02</pdfrwt>
<pdfrwt beam="1">  1       -2 0.26075318E-02 0.20006595E+02</pdfrwt>
<totfact> 0.37911044E+06</totfact>
</mgrwt>
</event>
<event>
 5    1  0.1607476E-006  0.2000148E+02  0.7818608E-02  0.1745299E+00
          2   -1    0    0  501    0  0.00000000000E+00  0.00000000000E+00  0.86785726426E+01  0.86785730321E+01  0.26000000000E-02 0.  1.
         -2   -1    0    0    0  501 -0.00000000000E+00 -0.00000000000E+00 -0.11524341377E+02  0.11524341670E+02  0.26000000000E-02 0. -1.
       1023    2    1    2    0    0  0.00000000000E+00  0.00000000000E+00 -0.28457687342E+01  0.20202914702E+02  0.20001484014E+02 0.  0.
        -13    1    3    3    0    0 -0.85846338463E+01 -0.51287811438E+01 -0.13645628897E+01  0.10093242228E+02  0.10570000000E+00 0.  1.
         13    1    3    3    0    0  0.85846338463E+01  0.51287811438E+01 -0.14812058444E+01  0.10109672474E+02  0.10570000000E+00 0. -1.
<mgrwt>
<rscale>  0 0.20001484E+02</rscale>
<asrwt>0</asrwt>
<pdfrwt beam="1">  1        2 0.13351651E-02 0.20001484E+02</pdfrwt>
<pdfrwt beam="2">  1       -2 0.17729757E-02 0.20001484E+02</pdfrwt>
<totfact> 0.39049344E+06</totfact>
</mgrwt>
</event>
<event>
 4    1  0.1607476E-006  0.2002333E+02  0.7818608E-02  0.1744865E+00
          2   -1    0    0  501    0  0.00000000000E+00  0.00000000000E+00  0.87583965464E+00  0.87584351379E+00  0.26000000000E-02 0. -1.
         -2   -1    0    0    0  501 -0.00000000000E+00 -0.00000000000E+00 -0.11444242212E+03  0.11444242215E+03  0.26000000000E-02 0.  1.
        -13    1    1    2    0    0 -0.73379493591E+01  0.68064352136E+01 -0.58060769561E+02  0.58917206278E+02  0.10570000000E+00 0. -1.
         13    1    1    2    0    0  0.73379493591E+01 -0.68064352136E+01 -0.55505812908E+02  0.56401059389E+02  0.10570000000E+00 0.  1.
<mgrwt>
<rscale>  0 0.20023330E+02</rscale>
<asrwt>0</asrwt>
<pdfrwt beam="1">  1        2 0.13474495E-03 0.20023330E+02</pdfrwt>
<pdfrwt beam="2">  1       -2 0.17606515E-01 0.20023330E+02</pdfrwt>
<totfact> 0.28642033E+06</totfact>
</mgrwt>
</event>
<event>
 5    1  0.1607476E-006  0.2000488E+02  0.7818608E-02  0.1745231E+00
         -2   -1    0    0    0  501 -0.00000000000E+00  0.00000000000E+00  0.27499506206E+01  0.27499518498E+01  0.26000000000E-02 0.  1.
          2   -1    0    0  501    0  0.00000000000E+00 -0.00000000000E+00 -0.36382039669E+02  0.36382039762E+02  0.26000000000E-02 0. -1.
       1023    2    1    2    0    0  0.00000000000E+00  0.00000000000E+00 -0.33632089049E+02  0.39131991612E+02  0.20004883247E+02 0.  0.
        -13    1    3    3    0    0  0.63685037417E+01  0.77121305539E+01 -0.16711280421E+02  0.19475956033E+02  0.10570000000E+00 0.  1.
         13    1    3    3    0    0 -0.63685037417E+01 -0.77121305539E+01 -0.16920808628E+02  0.19656035579E+02  0.10570000000E+00 0. -1.
<mgrwt>
<rscale>  0 0.20004883E+02</rscale>
<asrwt>0</asrwt>
<pdfrwt beam="2">  1        2 0.55972366E-02 0.20004883E+02</pdfrwt>
<pdfrwt beam="1">  1       -2 0.42306946E-03 0.20004883E+02</pdfrwt>
<totfact> 0.44333963E+06</totfact>
</mgrwt>
</event>
<event>
 5    1  0.1607476E-006  0.2000260E+02  0.7818608E-02  0.1745276E+00
          2   -1    0    0  501    0  0.00000000000E+00  0.00000000000E+00  0.24179792638E+01  0.24179806617E+01  0.26000000000E-02 0. -1.
         -2   -1    0    0    0  501 -0.00000000000E+00 -0.00000000000E+00 -0.41367569899E+02  0.41367569980E+02  0.26000000000E-02 0.  1.
       1023    2    1    2    0    0  0.00000000000E+00  0.00000000000E+00 -0.38949590635E+02  0.43785550642E+02  0.20002595692E+02 0.  0.
        -13    1    3    3    0    0  0.99880785750E+01 -0.50285179868E+00 -0.19506709627E+02  0.21921164807E+02  0.10570000000E+00 0.  1.
         13    1    3    3    0    0 -0.99880785750E+01  0.50285179868E+00 -0.19442881008E+02  0.21864385835E+02  0.10570000000E+00 0. -1.
<mgrwt>
<rscale>  0 0.20002596E+02</rscale>
<asrwt>0</asrwt>
<pdfrwt beam="1">  1        2 0.37199695E-03 0.20002596E+02</pdfrwt>
<pdfrwt beam="2">  1       -2 0.63642411E-02 0.20002596E+02</pdfrwt>
<totfact> 0.34764856E+06</totfact>
</mgrwt>
</event>
<event>
 5    1  0.1636461E-006  0.2000153E+02  0.7818608E-02  0.1745298E+00
         -2   -1    0    0    0  501 -0.00000000000E+00  0.00000000000E+00  0.61629984888E+01  0.61629990372E+01  0.26000000000E-02 0. -1.
          2   -1    0    0  501    0  0.00000000000E+00 -0.00000000000E+00 -0.16228354710E+02  0.16228354918E+02  0.26000000000E-02 0.  1.
       1023    2    1    2    0    0  0.00000000000E+00  0.00000000000E+00 -0.10065356221E+02  0.22391353955E+02  0.20001533344E+02 0.  0.
        -13    1    3    3    0    0 -0.73407734189E+01  0.67909264231E+01 -0.50583399551E+01  0.11207212484E+02  0.10570000000E+00 0. -1.
         13    1    3    3    0    0  0.73407734189E+01 -0.67909264231E+01 -0.50070162660E+01  0.11184141471E+02  0.10570000000E+00 0.  1.
<mgrwt>
<rscale>  0 0.20001533E+02</rscale>
<asrwt>0</asrwt>
<pdfrwt beam="2">  1        2 0.24966700E-02 0.20001533E+02</pdfrwt>
<pdfrwt beam="1">  1       -2 0.94815368E-03 0.20001533E+02</pdfrwt>
<totfact> 0.40939941E+06</totfact>
</mgrwt>
</event>
<event>
 5    1  0.1607476E-006  0.2000300E+02  0.7818608E-02  0.1745269E+00
         -2   -1    0    0    0  501 -0.00000000000E+00  0.00000000000E+00  0.77329452797E+01  0.77329457168E+01  0.26000000000E-02 0. -1.
          2   -1    0    0  501    0  0.00000000000E+00 -0.00000000000E+00 -0.12935557455E+02  0.12935557717E+02  0.26000000000E-02 0.  1.
       1023    2    1    2    0    0  0.00000000000E+00  0.00000000000E+00 -0.52026121756E+01  0.20668503433E+02  0.20002996294E+02 0.  0.
        -13    1    3    3    0    0 -0.69611178824E+01  0.71801177458E+01 -0.26910263077E+01  0.10356835815E+02  0.10570000000E+00 0.  1.
         13    1    3    3    0    0  0.69611178824E+01 -0.71801177458E+01 -0.25115858679E+01  0.10311667619E+02  0.10570000000E+00 0. -1.
<mgrwt>
<rscale>  0 0.20002996E+02</rscale>
<asrwt>0</asrwt>
<pdfrwt beam="2">  1        2 0.19900858E-02 0.20002996E+02</pdfrwt>
<pdfrwt beam="1">  1       -2 0.11896839E-02 0.20002996E+02</pdfrwt>
<totfact> 0.40212179E+06</totfact>
</mgrwt>
</event>
<event>
 5    1  0.1607476E-006  0.2000389E+02  0.7818608E-02  0.1745251E+00
          2   -1    0    0  501    0  0.00000000000E+00  0.00000000000E+00  0.42314565107E+01  0.42314573094E+01  0.26000000000E-02 0. -1.
         -2   -1    0    0    0  501 -0.00000000000E+00 -0.00000000000E+00 -0.23641724447E+02  0.23641724590E+02  0.26000000000E-02 0.  1.
       1023    2    1    2    0    0  0.00000000000E+00  0.00000000000E+00 -0.19410267936E+02  0.27873181900E+02  0.20003893817E+02 0.  0.
        -13    1    3    3    0    0 -0.58029972512E+01 -0.81453964656E+01 -0.98085529227E+01  0.14008609624E+02  0.10570000000E+00 0. -1.
         13    1    3    3    0    0  0.58029972512E+01  0.81453964656E+01 -0.96017150137E+01  0.13864572275E+02  0.10570000000E+00 0.  1.
<mgrwt>
<rscale>  0 0.20003894E+02</rscale>
<asrwt>0</asrwt>
<pdfrwt beam="1">  1        2 0.65099339E-03 0.20003894E+02</pdfrwt>
<pdfrwt beam="2">  1       -2 0.36371884E-02 0.20003894E+02</pdfrwt>
<totfact> 0.36880641E+06</totfact>
</mgrwt>
</event>
<event>
 5    1  0.1607476E-006  0.2000289E+02  0.7818608E-02  0.1745271E+00
          2   -1    0    0  501    0  0.00000000000E+00  0.00000000000E+00  0.57298873802E+02  0.57298873861E+02  0.26000000000E-02 0.  1.
         -2   -1    0    0    0  501 -0.00000000000E+00 -0.00000000000E+00 -0.17457390691E+01  0.17457410053E+01  0.26000000000E-02 0. -1.
       1023    2    1    2    0    0  0.00000000000E+00  0.00000000000E+00  0.55553134733E+02  0.59044614867E+02  0.20002893942E+02 0.  0.
        -13    1    3    3    0    0  0.24826260530E+00  0.99969537425E+01  0.28162007523E+02  0.29884955390E+02  0.10570000000E+00 0. -1.
         13    1    3    3    0    0 -0.24826260530E+00 -0.99969537425E+01  0.27391127210E+02  0.29159659476E+02  0.10570000000E+00 0.  1.
<mgrwt>
<rscale>  0 0.20002894E+02</rscale>
<asrwt>0</asrwt>
<pdfrwt beam="1">  1        2 0.88152108E-02 0.20002894E+02</pdfrwt>
<pdfrwt beam="2">  1       -2 0.26857542E-03 0.20002894E+02</pdfrwt>
<totfact> 0.47317507E+06</totfact>
</mgrwt>
</event>
<event>
 5    1  0.1607476E-006  0.2001003E+02  0.7818608E-02  0.1745129E+00
          2   -1    0    0  501    0  0.00000000000E+00  0.00000000000E+00  0.33626374464E+01  0.33626384516E+01  0.26000000000E-02 0. -1.
         -2   -1    0    0    0  501 -0.00000000000E+00 -0.00000000000E+00 -0.29768394967E+02  0.29768395081E+02  0.26000000000E-02 0.  1.
       1023    2    1    2    0    0  0.00000000000E+00  0.00000000000E+00 -0.26405757521E+02  0.33131033532E+02  0.20010031301E+02 0.  0.
        -13    1    3    3    0    0 -0.32468986338E+01  0.94596196018E+01 -0.13616517321E+02  0.16895190742E+02  0.10570000000E+00 0.  1.
         13    1    3    3    0    0  0.32468986338E+01 -0.94596196018E+01 -0.12789240200E+02  0.16235842791E+02  0.10570000000E+00 0. -1.
<mgrwt>
<rscale>  0 0.20010031E+02</rscale>
<asrwt>0</asrwt>
<pdfrwt beam="1">  1        2 0.51732894E-03 0.20010031E+02</pdfrwt>
<pdfrwt beam="2">  1       -2 0.45797530E-02 0.20010031E+02</pdfrwt>
<totfact> 0.36053463E+06</totfact>
</mgrwt>
</event>
<event>
 4    1  0.1607476E-006  0.2004579E+02  0.7818608E-02  0.1744419E+00
         -2   -1    0    0    0  501 -0.00000000000E+00  0.00000000000E+00  0.15044892190E+02  0.15044892415E+02  0.26000000000E-02 0. -1.
          2   -1    0    0  501    0  0.00000000000E+00 -0.00000000000E+00 -0.66772457059E+01  0.66772462121E+01  0.26000000000E-02 0.  1.
        -13    1    1    2    0    0 -0.59244212342E+01  0.80800850539E+01  0.44508788243E+01  0.10963942550E+02  0.10570000000E+00 0. -1.
         13    1    1    2    0    0  0.59244212342E+01 -0.80800850539E+01  0.39167676599E+01  0.10758196077E+02  0.10570000000E+00 0.  1.
<mgrwt>
<rscale>  0 0.20045793E+02</rscale>
<asrwt>0</asrwt>
<pdfrwt beam="2">  1        2 0.10272687E-02 0.20045793E+02</pdfrwt>
<pdfrwt beam="1">  1       -2 0.23145988E-02 0.20045793E+02</pdfrwt>
<totfact> 0.38100304E+06</totfact>
</mgrwt>
</event>
<event>
 5    1  0.1607476E-006  0.2000202E+02  0.7818608E-02  0.1745288E+00
         -2   -1    0    0    0  501 -0.00000000000E+00  0.00000000000E+00  0.41169337457E+01  0.41169345667E+01  0.26000000000E-02 0.  1.
          2   -1    0    0  501    0  0.00000000000E+00 -0.00000000000E+00 -0.24294818613E+02  0.24294818752E+02  0.26000000000E-02 0. -1.
       1023    2    1    2    0    0  0.00000000000E+00  0.00000000000E+00 -0.20177884867E+02  0.28411753319E+02  0.20002017122E+02 0.  0.
        -13    1    3    3    0    0 -0.35856766730E+01 -0.93352657137E+01 -0.10186701555E+02  0.14275304697E+02  0.10570000000E+00 0. -1.
         13    1    3    3    0    0  0.35856766730E+01  0.93352657137E+01 -0.99911833127E+01  0.14136448621E+02  0.10570000000E+00 0.  1.
<mgrwt>
<rscale>  0 0.20002017E+02</rscale>
<asrwt>0</asrwt>
<pdfrwt beam="2">  1        2 0.37376644E-02 0.20002017E+02</pdfrwt>
<pdfrwt beam="1">  1       -2 0.63337451E-03 0.20002017E+02</pdfrwt>
<totfact> 0.42427515E+06</totfact>
</mgrwt>
</event>
<event>
 5    1  0.1607476E-006  0.2000135E+02  0.7818608E-02  0.1745301E+00
         -2   -1    0    0    0  501 -0.00000000000E+00  0.00000000000E+00  0.47572509147E+01  0.47572516252E+01  0.26000000000E-02 0.  1.
          2   -1    0    0  501    0  0.00000000000E+00 -0.00000000000E+00 -0.21023378945E+02  0.21023379106E+02  0.26000000000E-02 0. -1.
       1023    2    1    2    0    0  0.00000000000E+00  0.00000000000E+00 -0.16266128030E+02  0.25780630731E+02  0.20001349949E+02 0.  0.
        -13    1    3    3    0    0  0.99181523925E+01 -0.12776842407E+01 -0.81461806715E+01  0.12898591238E+02  0.10570000000E+00 0. -1.
         13    1    3    3    0    0 -0.99181523925E+01  0.12776842407E+01 -0.81199473587E+01  0.12882039493E+02  0.10570000000E+00 0.  1.
<mgrwt>
<rscale>  0 0.20001350E+02</rscale>
<asrwt>0</asrwt>
<pdfrwt beam="2">  1        2 0.32343660E-02 0.20001350E+02</pdfrwt>
<pdfrwt beam="1">  1       -2 0.73188483E-03 0.20001350E+02</pdfrwt>
<totfact> 0.41858135E+06</totfact>
</mgrwt>
</event>
<event>
 4    1  0.1607476E-006  0.2006234E+02  0.7818608E-02  0.1744091E+00
          2   -1    0    0  501    0  0.00000000000E+00  0.00000000000E+00  0.11080592167E+02  0.11080592472E+02  0.26000000000E-02 0. -1.
         -2   -1    0    0    0  501 -0.00000000000E+00 -0.00000000000E+00 -0.90811351949E+01  0.90811355671E+01  0.26000000000E-02 0.  1.
        -13    1    1    2    0    0  0.19324905859E+01  0.98270867728E+01  0.44287555574E+00  0.10025640406E+02  0.10570000000E+00 0.  1.
         13    1    1    2    0    0 -0.19324905859E+01 -0.98270867728E+01  0.15565814160E+01  0.10136087633E+02  0.10570000000E+00 0. -1.
<mgrwt>
<rscale>  0 0.20062339E+02</rscale>
<asrwt>0</asrwt>
<pdfrwt beam="1">  1        2 0.17047065E-02 0.20062339E+02</pdfrwt>
<pdfrwt beam="2">  1       -2 0.13970978E-02 0.20062339E+02</pdfrwt>
<totfact> 0.39481244E+06</totfact>
</mgrwt>
</event>
<event>
 4    1  0.1607476E-006  0.2010755E+02  0.7818608E-02  0.1743198E+00
         -2   -1    0    0    0  501 -0.00000000000E+00  0.00000000000E+00  0.44815207689E+01  0.44815215231E+01  0.26000000000E-02 0. -1.
          2   -1    0    0  501    0  0.00000000000E+00 -0.00000000000E+00 -0.22554483428E+02  0.22554483578E+02  0.26000000000E-02 0.  1.
        -13    1    1    2    0    0 -0.33160969584E+01  0.94346997234E+01 -0.76540126562E+01  0.12593853268E+02  0.10570000000E+00 0.  1.
         13    1    1    2    0    0  0.33160969584E+01 -0.94346997234E+01 -0.10418950003E+02  0.14442151833E+02  0.10570000000E+00 0. -1.
<mgrwt>
<rscale>  0 0.20107551E+02</rscale>
<asrwt>0</asrwt>
<pdfrwt beam="2">  1        2 0.34699205E-02 0.20107551E+02</pdfrwt>
<pdfrwt beam="1">  1       -2 0.68946482E-03 0.20107551E+02</pdfrwt>
<totfact> 0.41630921E+06</totfact>
</mgrwt>
</event>
<event>
 5    1  0.1607476E-006  0.2000133E+02  0.7818608E-02  0.1745302E+00
          2   -1    0    0  501    0  0.00000000000E+00  0.00000000000E+00  0.46772611339E+02  0.46772611411E+02  0.26000000000E-02 0. -1.
         -2   -1    0    0    0  501 -0.00000000000E+00 -0.00000000000E+00 -0.21382866387E+01  0.21382882194E+01  0.26000000000E-02 0.  1.
       1023    2    1    2    0    0  0.00000000000E+00  0.00000000000E+00  0.44634324700E+02  0.48910899631E+02  0.20001328987E+02 0.  0.
        -13    1    3    3    0    0  0.57226595357E+00  0.99836700499E+01  0.22393001981E+02  0.24524658330E+02  0.10570000000E+00 0. -1.
         13    1    3    3    0    0 -0.57226595357E+00 -0.99836700499E+01  0.22241322719E+02  0.24386241301E+02  0.10570000000E+00 0.  1.
<mgrwt>
<rscale>  0 0.20001329E+02</rscale>
<asrwt>0</asrwt>
<pdfrwt beam="1">  1        2 0.71957862E-02 0.20001329E+02</pdfrwt>
<pdfrwt beam="2">  1       -2 0.32896731E-03 0.20001329E+02</pdfrwt>
<totfact> 0.45867014E+06</totfact>
</mgrwt>
</event>
<event>
 5    1  0.1607476E-006  0.2000168E+02  0.7818608E-02  0.1745295E+00
         -2   -1    0    0    0  501 -0.00000000000E+00  0.00000000000E+00  0.17355555686E+02  0.17355555880E+02  0.26000000000E-02 0.  1.
          2   -1    0    0  501    0  0.00000000000E+00 -0.00000000000E+00 -0.57628134923E+01  0.57628140788E+01  0.26000000000E-02 0. -1.
       1023    2    1    2    0    0  0.00000000000E+00  0.00000000000E+00  0.11592742193E+02  0.23118369959E+02  0.20001683879E+02 0.  0.
        -13    1    3    3    0    0 -0.30934892173E+01  0.95097821878E+01  0.57896103047E+01  0.11555794770E+02  0.10570000000E+00 0.  1.
         13    1    3    3    0    0  0.30934892173E+01 -0.95097821878E+01  0.58031318885E+01  0.11562575189E+02  0.10570000000E+00 0. -1.
<mgrwt>
<rscale>  0 0.20001684E+02</rscale>
<asrwt>0</asrwt>
<pdfrwt beam="2">  1        2 0.88658676E-03 0.20001684E+02</pdfrwt>
<pdfrwt beam="1">  1       -2 0.26700855E-02 0.20001684E+02</pdfrwt>
<totfact> 0.37860355E+06</totfact>
</mgrwt>
</event>
<event>
 4    1  0.1607476E-006  0.2018991E+02  0.7818608E-02  0.1741578E+00
         -2   -1    0    0    0  501 -0.00000000000E+00  0.00000000000E+00  0.77284786918E+01  0.77284791291E+01  0.26000000000E-02 0. -1.
          2   -1    0    0  501    0  0.00000000000E+00 -0.00000000000E+00 -0.13186046134E+02  0.13186046390E+02  0.26000000000E-02 0.  1.
        -13    1    1    2    0    0  0.83502265490E+01 -0.55484013241E+01 -0.15093026775E+01  0.10139043729E+02  0.10570000000E+00 0. -1.
         13    1    1    2    0    0 -0.83502265490E+01  0.55484013241E+01 -0.39482647643E+01  0.10775481790E+02  0.10570000000E+00 0.  1.
<mgrwt>
<rscale>  0 0.20189907E+02</rscale>
<asrwt>0</asrwt>
<pdfrwt beam="2">  1        2 0.20286225E-02 0.20189907E+02</pdfrwt>
<pdfrwt beam="1">  1       -2 0.11889968E-02 0.20189907E+02</pdfrwt>
<totfact> 0.39428875E+06</totfact>
</mgrwt>
</event>
<event>
 4    1  0.1607476E-006  0.2003804E+02  0.7818608E-02  0.1744573E+00
          2   -1    0    0  501    0  0.00000000000E+00  0.00000000000E+00  0.15956584338E+01  0.15956605520E+01  0.26000000000E-02 0.  1.
         -2   -1    0    0    0  501 -0.00000000000E+00 -0.00000000000E+00 -0.62908623952E+02  0.62908624006E+02  0.26000000000E-02 0. -1.
        -13    1    1    2    0    0  0.70601137041E+01  0.70939483413E+01 -0.32097059025E+02  0.33621446714E+02  0.10570000000E+00 0. -1.
         13    1    1    2    0    0 -0.70601137041E+01 -0.70939483413E+01 -0.29215906493E+02  0.30882837844E+02  0.10570000000E+00 0.  1.
<mgrwt>
<rscale>  0 0.20038038E+02</rscale>
<asrwt>0</asrwt>
<pdfrwt beam="1">  1        2 0.24548613E-03 0.20038038E+02</pdfrwt>
<pdfrwt beam="2">  1       -2 0.96782481E-02 0.20038038E+02</pdfrwt>
<totfact> 0.32563555E+06</totfact>
</mgrwt>
</event>
<event>
 4    1  0.1607476E-006  0.2025671E+02  0.7818608E-02  0.1740271E+00
         -2   -1    0    0    0  501 -0.00000000000E+00  0.00000000000E+00  0.28878020103E+01  0.28878031808E+01  0.26000000000E-02 0.  1.
          2   -1    0    0  501    0  0.00000000000E+00 -0.00000000000E+00 -0.35523039450E+02  0.35523039545E+02  0.26000000000E-02 0. -1.
        -13    1    1    2    0    0  0.84564967761E+01  0.55728572739E+01 -0.16426227265E+02  0.19297699100E+02  0.10570000000E+00 0. -1.
         13    1    1    2    0    0 -0.84564967761E+01 -0.55728572739E+01 -0.16209010175E+02  0.19113143626E+02  0.10570000000E+00 0.  1.
<mgrwt>
<rscale>  0 0.20256705E+02</rscale>
<asrwt>0</asrwt>
<pdfrwt beam="2">  1        2 0.54650828E-02 0.20256705E+02</pdfrwt>
<pdfrwt beam="1">  1       -2 0.44427736E-03 0.20256705E+02</pdfrwt>
<totfact> 0.42983096E+06</totfact>
</mgrwt>
</event>
<event>
 5    1  0.1607476E-006  0.2000395E+02  0.7818608E-02  0.1745250E+00
          2   -1    0    0  501    0  0.00000000000E+00  0.00000000000E+00  0.11378045541E+01  0.11378075248E+01  0.26000000000E-02 0.  1.
         -2   -1    0    0    0  501 -0.00000000000E+00 -0.00000000000E+00 -0.87923163236E+02  0.87923163275E+02  0.26000000000E-02 0. -1.
       1023    2    1    2    0    0  0.00000000000E+00  0.00000000000E+00 -0.86785358682E+02  0.89060970799E+02  0.20003950564E+02 0.  0.
        -13    1    3    3    0    0 -0.99906061782E+01 -0.45426107394E+00 -0.42952564499E+02  0.44101616007E+02  0.10570000000E+00 0.  1.
         13    1    3    3    0    0  0.99906061782E+01  0.45426107394E+00 -0.43832794183E+02  0.44959354792E+02  0.10570000000E+00 0. -1.
<mgrwt>
<rscale>  0 0.20003951E+02</rscale>
<asrwt>0</asrwt>
<pdfrwt beam="1">  1        2 0.17504716E-03 0.20003951E+02</pdfrwt>
<pdfrwt beam="2">  1       -2 0.13526635E-01 0.20003951E+02</pdfrwt>
<totfact> 0.30621445E+06</totfact>
</mgrwt>
</event>
<event>
 4    1  0.1607476E-006  0.2001357E+02  0.7818608E-02  0.1745058E+00
          2   -1    0    0  501    0  0.00000000000E+00  0.00000000000E+00  0.13025791923E+01  0.13025817871E+01  0.26000000000E-02 0.  1.
         -2   -1    0    0    0  501 -0.00000000000E+00 -0.00000000000E+00 -0.76874864250E+02  0.76874864294E+02  0.26000000000E-02 0. -1.
        -13    1    1    2    0    0  0.77571380515E+01  0.63141106208E+01 -0.38913854630E+02  0.40178855613E+02  0.10570000000E+00 0.  1.
         13    1    1    2    0    0 -0.77571380515E+01 -0.63141106208E+01 -0.36658430427E+02  0.37998590468E+02  0.10570000000E+00 0. -1.
<mgrwt>
<rscale>  0 0.20013566E+02</rscale>
<asrwt>0</asrwt>
<pdfrwt beam="1">  1        2 0.20039706E-03 0.20013566E+02</pdfrwt>
<pdfrwt beam="2">  1       -2 0.11826899E-01 0.20013566E+02</pdfrwt>
<totfact> 0.31464131E+06</totfact>
</mgrwt>
</event>
<event>
 4    1  0.1607476E-006  0.2019694E+02  0.7818608E-02  0.1741440E+00
         -2   -1    0    0    0  501 -0.00000000000E+00  0.00000000000E+00  0.39333240826E+01  0.39333249419E+01  0.26000000000E-02 0.  1.
          2   -1    0    0  501    0  0.00000000000E+00 -0.00000000000E+00 -0.25926951764E+02  0.25926951894E+02  0.26000000000E-02 0. -1.
        -13    1    1    2    0    0 -0.97113906034E+00 -0.10046160010E+02 -0.10530446048E+02  0.14586634583E+02  0.10570000000E+00 0.  1.
         13    1    1    2    0    0  0.97113906034E+00  0.10046160010E+02 -0.11463181633E+02  0.15273642253E+02  0.10570000000E+00 0. -1.
<mgrwt>
<rscale>  0 0.20196942E+02</rscale>
<asrwt>0</asrwt>
<pdfrwt beam="2">  1        2 0.39887618E-02 0.20196942E+02</pdfrwt>
<pdfrwt beam="1">  1       -2 0.60512688E-03 0.20196942E+02</pdfrwt>
<totfact> 0.41781552E+06</totfact>
</mgrwt>
</event>
<event>
 5    1  0.1607476E-006  0.2000675E+02  0.7818608E-02  0.1745194E+00
         -2   -1    0    0    0  501 -0.00000000000E+00  0.00000000000E+00  0.70361341889E+02  0.70361341937E+02  0.26000000000E-02 0. -1.
          2   -1    0    0  501    0  0.00000000000E+00 -0.00000000000E+00 -0.14221933900E+01  0.14221957666E+01  0.26000000000E-02 0.  1.
       1023    2    1    2    0    0  0.00000000000E+00  0.00000000000E+00  0.68939148499E+02  0.71783537704E+02  0.20006751097E+02 0.  0.
        -13    1    3    3    0    0  0.70513530349E+00 -0.99751580160E+01  0.33625397972E+02  0.35081042665E+02  0.10570000000E+00 0.  1.
         13    1    3    3    0    0 -0.70513530349E+00  0.99751580160E+01  0.35313750528E+02  0.36702495039E+02  0.10570000000E+00 0. -1.
<mgrwt>
<rscale>  0 0.20006751E+02</rscale>
<asrwt>0</asrwt>
<pdfrwt beam="2">  1        2 0.21879921E-03 0.20006751E+02</pdfrwt>
<pdfrwt beam="1">  1       -2 0.10824820E-01 0.20006751E+02</pdfrwt>
<totfact> 0.32028957E+06</totfact>
</mgrwt>
</event>
<event>
 5    1  0.1607476E-006  0.2000605E+02  0.7818608E-02  0.1745208E+00
          2   -1    0    0  501    0  0.00000000000E+00  0.00000000000E+00  0.14454270372E+01  0.14454293756E+01  0.26000000000E-02 0.  1.
         -2   -1    0    0    0  501 -0.00000000000E+00 -0.00000000000E+00 -0.69225533309E+02  0.69225533358E+02  0.26000000000E-02 0. -1.
       1023    2    1    2    0    0  0.00000000000E+00  0.00000000000E+00 -0.67780106272E+02  0.70670962734E+02  0.20006053271E+02 0.  0.
        -13    1    3    3    0    0 -0.46356396960E+01 -0.88631419737E+01 -0.34138040682E+02  0.35573324769E+02  0.10570000000E+00 0.  1.
         13    1    3    3    0    0  0.46356396960E+01  0.88631419737E+01 -0.33642065590E+02  0.35097637965E+02  0.10570000000E+00 0. -1.
<mgrwt>
<rscale>  0 0.20006053E+02</rscale>
<asrwt>0</asrwt>
<pdfrwt beam="1">  1        2 0.22237363E-03 0.20006053E+02</pdfrwt>
<pdfrwt beam="2">  1       -2 0.10650080E-01 0.20006053E+02</pdfrwt>
<totfact> 0.32127914E+06</totfact>
</mgrwt>
</event>
<event>
 4    1  0.1607476E-006  0.2031015E+02  0.7818608E-02  0.1739230E+00
          2   -1    0    0  501    0  0.00000000000E+00  0.00000000000E+00  0.89172528769E+02  0.89172528807E+02  0.26000000000E-02 0. -1.
         -2   -1    0    0    0  501 -0.00000000000E+00 -0.00000000000E+00 -0.11564704134E+01  0.11564733361E+01  0.26000000000E-02 0.  1.
        -13    1    1    2    0    0 -0.74519542378E+01 -0.68852705043E+01  0.42143369631E+02  0.43347587571E+02  0.10570000000E+00 0.  1.
         13    1    1    2    0    0  0.74519542378E+01  0.68852705043E+01  0.45872688725E+02  0.46981414572E+02  0.10570000000E+00 0. -1.
<mgrwt>
<rscale>  0 0.20310148E+02</rscale>
<asrwt>0</asrwt>
<pdfrwt beam="1">  1        2 0.13718850E-01 0.20310148E+02</pdfrwt>
<pdfrwt beam="2">  1       -2 0.17791877E-03 0.20310148E+02</pdfrwt>
<totfact> 0.49720447E+06</totfact>
</mgrwt>
</event>
<event>
 5    1  0.1607476E-006  0.2000193E+02  0.7818608E-02  0.1745290E+00
          2   -1    0    0  501    0  0.00000000000E+00  0.00000000000E+00  0.30853448407E+02  0.30853448516E+02  0.26000000000E-02 0. -1.
         -2   -1    0    0    0  501 -0.00000000000E+00 -0.00000000000E+00 -0.32417525403E+01  0.32417535829E+01  0.26000000000E-02 0.  1.
       1023    2    1    2    0    0  0.00000000000E+00  0.00000000000E+00  0.27611695867E+02  0.34095202099E+02  0.20001926346E+02 0.  0.
        -13    1    3    3    0    0  0.26641409803E+01 -0.96389448465E+01  0.13864575757E+02  0.17095161254E+02  0.10570000000E+00 0.  1.
         13    1    3    3    0    0 -0.26641409803E+01  0.96389448465E+01  0.13747120110E+02  0.17000040845E+02  0.10570000000E+00 0. -1.
<mgrwt>
<rscale>  0 0.20001926E+02</rscale>
<asrwt>0</asrwt>
<pdfrwt beam="1">  1        2 0.47466846E-02 0.20001926E+02</pdfrwt>
<pdfrwt beam="2">  1       -2 0.49873123E-03 0.20001926E+02</pdfrwt>
<totfact> 0.43498708E+06</totfact>
</mgrwt>
</event>
<event>
 5    1  0.1607476E-006  0.2001207E+02  0.7818608E-02  0.1745088E+00
         -2   -1    0    0    0  501 -0.00000000000E+00  0.00000000000E+00  0.13180981847E+01  0.13181007490E+01  0.26000000000E-02 0. -1.
          2   -1    0    0  501    0  0.00000000000E+00 -0.00000000000E+00 -0.75958399527E+02  0.75958399571E+02  0.26000000000E-02 0.  1.
       1023    2    1    2    0    0  0.00000000000E+00  0.00000000000E+00 -0.74640301342E+02  0.77276500320E+02  0.20012069291E+02 0.  0.
        -13    1    3    3    0    0 -0.82215647636E+01  0.57019989258E+01 -0.37518480022E+02  0.38829813733E+02  0.10570000000E+00 0.  1.
         13    1    3    3    0    0  0.82215647636E+01 -0.57019989258E+01 -0.37121821320E+02  0.38446686587E+02  0.10570000000E+00 0. -1.
<mgrwt>
<rscale>  0 0.20012069E+02</rscale>
<asrwt>0</asrwt>
<pdfrwt beam="2">  1        2 0.11685904E-01 0.20012069E+02</pdfrwt>
<pdfrwt beam="1">  1       -2 0.20278460E-03 0.20012069E+02</pdfrwt>
<totfact> 0.49720543E+06</totfact>
</mgrwt>
</event>
<event>
 5    1  0.1607476E-006  0.2000608E+02  0.7818608E-02  0.1745207E+00
         -2   -1    0    0    0  501 -0.00000000000E+00  0.00000000000E+00  0.62028365559E+01  0.62028371008E+01  0.26000000000E-02 0. -1.
          2   -1    0    0  501    0  0.00000000000E+00 -0.00000000000E+00 -0.16131455399E+02  0.16131455608E+02  0.26000000000E-02 0.  1.
       1023    2    1    2    0    0  0.00000000000E+00  0.00000000000E+00 -0.99286188429E+01  0.22334292709E+02  0.20006078044E+02 0.  0.
        -13    1    3    3    0    0 -0.96739558208E+01 -0.25423997150E+01 -0.49419916797E+01  0.11157225093E+02  0.10570000000E+00 0.  1.
         13    1    3    3    0    0  0.96739558208E+01  0.25423997150E+01 -0.49866271632E+01  0.11177067616E+02  0.10570000000E+00 0. -1.
<mgrwt>
<rscale>  0 0.20006078E+02</rscale>
<asrwt>0</asrwt>
<pdfrwt beam="2">  1        2 0.24817624E-02 0.20006078E+02</pdfrwt>
<pdfrwt beam="1">  1       -2 0.95428261E-03 0.20006078E+02</pdfrwt>
<totfact> 0.40899030E+06</totfact>
</mgrwt>
</event>
<event>
 5    1  0.1607476E-006  0.2000257E+02  0.7818608E-02  0.1745277E+00
         -2   -1    0    0    0  501 -0.00000000000E+00  0.00000000000E+00  0.23586640832E+02  0.23586640975E+02  0.26000000000E-02 0. -1.
          2   -1    0    0  501    0  0.00000000000E+00 -0.00000000000E+00 -0.42407752285E+01  0.42407760256E+01  0.26000000000E-02 0.  1.
       1023    2    1    2    0    0  0.00000000000E+00  0.00000000000E+00  0.19345865603E+02  0.27827417001E+02  0.20002565360E+02 0.  0.
        -13    1    3    3    0    0  0.99382359657E+01  0.11134817208E+01  0.97816516623E+01  0.13989290811E+02  0.10570000000E+00 0.  1.
         13    1    3    3    0    0 -0.99382359657E+01 -0.11134817208E+01  0.95642139410E+01  0.13838126190E+02  0.10570000000E+00 0. -1.
<mgrwt>
<rscale>  0 0.20002565E+02</rscale>
<asrwt>0</asrwt>
<pdfrwt beam="2">  1        2 0.65242701E-03 0.20002565E+02</pdfrwt>
<pdfrwt beam="1">  1       -2 0.36287141E-02 0.20002565E+02</pdfrwt>
<totfact> 0.36893695E+06</totfact>
</mgrwt>
</event>
<event>
 5    1  0.1635990E-006  0.2000165E+02  0.7818608E-02  0.1745295E+00
         -2   -1    0    0    0  501 -0.00000000000E+00  0.00000000000E+00  0.11326985611E+01  0.11327015451E+01  0.26000000000E-02 0. -1.
          2   -1    0    0  501    0  0.00000000000E+00 -0.00000000000E+00 -0.88299173975E+02  0.88299174014E+02  0.26000000000E-02 0.  1.
       1023    2    1    2    0    0  0.00000000000E+00  0.00000000000E+00 -0.87166475414E+02  0.89431875559E+02  0.20001648177E+02 0.  0.
        -13    1    3    3    0    0 -0.25514382385E+01 -0.96692121105E+01 -0.43393011270E+02  0.44530529971E+02  0.10570000000E+00 0.  1.
         13    1    3    3    0    0  0.25514382385E+01  0.96692121105E+01 -0.43773464144E+02  0.44901345588E+02  0.10570000000E+00 0. -1.
<mgrwt>
<rscale>  0 0.20001648E+02</rscale>
<asrwt>0</asrwt>
<pdfrwt beam="2">  1        2 0.13584483E-01 0.20001648E+02</pdfrwt>
<pdfrwt beam="1">  1       -2 0.17426162E-03 0.20001648E+02</pdfrwt>
<totfact> 0.51325802E+06</totfact>
</mgrwt>
</event>
<event>
 4    1  0.1607476E-006  0.2002009E+02  0.7818608E-02  0.1744929E+00
         -2   -1    0    0    0  501 -0.00000000000E+00  0.00000000000E+00  0.24668306023E+01  0.24668319725E+01  0.26000000000E-02 0.  1.
          2   -1    0    0  501    0  0.00000000000E+00 -0.00000000000E+00 -0.40619310532E+02  0.40619310615E+02  0.26000000000E-02 0. -1.
        -13    1    1    2    0    0 -0.86195144401E+01  0.50815328763E+01 -0.18499515070E+02  0.21032385406E+02  0.10570000000E+00 0. -1.
         13    1    1    2    0    0  0.86195144401E+01 -0.50815328763E+01 -0.19652964860E+02  0.22053757182E+02  0.10570000000E+00 0.  1.
<mgrwt>
<rscale>  0 0.20020089E+02</rscale>
<asrwt>0</asrwt>
<pdfrwt beam="2">  1        2 0.62491243E-02 0.20020089E+02</pdfrwt>
<pdfrwt beam="1">  1       -2 0.37951254E-03 0.20020089E+02</pdfrwt>
<totfact> 0.44886473E+06</totfact>
</mgrwt>
</event>
<event>
 5    1  0.1607476E-006  0.2000578E+02  0.7818608E-02  0.1745213E+00
         -2   -1    0    0    0  501 -0.00000000000E+00  0.00000000000E+00  0.45290087156E+02  0.45290087231E+02  0.26000000000E-02 0.  1.
          2   -1    0    0  501    0  0.00000000000E+00 -0.00000000000E+00 -0.22092646162E+01  0.22092661462E+01  0.26000000000E-02 0. -1.
       1023    2    1    2    0    0  0.00000000000E+00  0.00000000000E+00  0.43080822540E+02  0.47499353377E+02  0.20005781677E+02 0.  0.
        -13    1    3    3    0    0 -0.75285179481E+01  0.65853839067E+01  0.21473722034E+02  0.23689191084E+02  0.10570000000E+00 0.  1.
         13    1    3    3    0    0  0.75285179481E+01 -0.65853839067E+01  0.21607100506E+02  0.23810162293E+02  0.10570000000E+00 0. -1.
<mgrwt>
<rscale>  0 0.20005782E+02</rscale>
<asrwt>0</asrwt>
<pdfrwt beam="2">  1        2 0.33988702E-03 0.20005782E+02</pdfrwt>
<pdfrwt beam="1">  1       -2 0.69677053E-02 0.20005782E+02</pdfrwt>
<totfact> 0.34346088E+06</totfact>
</mgrwt>
</event>
<event>
 5    1  0.1607476E-006  0.2000153E+02  0.7818608E-02  0.1745298E+00
         -2   -1    0    0    0  501 -0.00000000000E+00  0.00000000000E+00  0.18707666805E+02  0.18707666985E+02  0.26000000000E-02 0.  1.
          2   -1    0    0  501    0  0.00000000000E+00 -0.00000000000E+00 -0.53462204309E+01  0.53462210631E+01  0.26000000000E-02 0. -1.
       1023    2    1    2    0    0  0.00000000000E+00  0.00000000000E+00  0.13361446374E+02  0.24053888049E+02  0.20001531968E+02 0.  0.
        -13    1    3    3    0    0 -0.70422485811E+01  0.71000606193E+01  0.66750958277E+01  0.12023818140E+02  0.10570000000E+00 0. -1.
         13    1    3    3    0    0  0.70422485811E+01 -0.71000606193E+01  0.66863505461E+01  0.12030069908E+02  0.10570000000E+00 0.  1.
<mgrwt>
<rscale>  0 0.20001532E+02</rscale>
<asrwt>0</asrwt>
<pdfrwt beam="2">  1        2 0.82249551E-03 0.20001532E+02</pdfrwt>
<pdfrwt beam="1">  1       -2 0.28781027E-02 0.20001532E+02</pdfrwt>
<totfact> 0.37634029E+06</totfact>
</mgrwt>
</event>
<event>
 4    1  0.1607476E-006  0.2002541E+02  0.7818608E-02  0.1744823E+00
         -2   -1    0    0    0  501 -0.00000000000E+00  0.00000000000E+00  0.92393357844E+01  0.92393361502E+01  0.26000000000E-02 0. -1.
          2   -1    0    0  501    0  0.00000000000E+00 -0.00000000000E+00 -0.10850808826E+02  0.10850809138E+02  0.26000000000E-02 0.  1.
        -13    1    1    2    0    0  0.14948556312E+01  0.98921862163E+01 -0.41311596603E+00  0.10013579719E+02  0.10570000000E+00 0. -1.
         13    1    1    2    0    0 -0.14948556312E+01 -0.98921862163E+01 -0.11983570758E+01  0.10076565569E+02  0.10570000000E+00 0.  1.
<mgrwt>
<rscale>  0 0.20025411E+02</rscale>
<asrwt>0</asrwt>
<pdfrwt beam="2">  1        2 0.16693552E-02 0.20025411E+02</pdfrwt>
<pdfrwt beam="1">  1       -2 0.14214363E-02 0.20025411E+02</pdfrwt>
<totfact> 0.39586000E+06</totfact>
</mgrwt>
</event>
<event>
 5    1  0.1607476E-006  0.2000825E+02  0.7818608E-02  0.1745164E+00
          2   -1    0    0  501    0  0.00000000000E+00  0.00000000000E+00  0.12100146741E+02  0.12100147020E+02  0.26000000000E-02 0.  1.
         -2   -1    0    0    0  501 -0.00000000000E+00 -0.00000000000E+00 -0.82711847030E+01  0.82711851117E+01  0.26000000000E-02 0. -1.
       1023    2    1    2    0    0  0.00000000000E+00  0.00000000000E+00  0.38289620380E+01  0.20371332132E+02  0.20008253860E+02 0.  0.
        -13    1    3    3    0    0 -0.97134656806E+01  0.23839921761E+01  0.21091279345E+01  0.10222251580E+02  0.10570000000E+00 0.  1.
         13    1    3    3    0    0  0.97134656806E+01 -0.23839921761E+01  0.17198341035E+01  0.10149080552E+02  0.10570000000E+00 0. -1.
<mgrwt>
<rscale>  0 0.20008254E+02</rscale>
<asrwt>0</asrwt>
<pdfrwt beam="1">  1        2 0.18615611E-02 0.20008254E+02</pdfrwt>
<pdfrwt beam="2">  1       -2 0.12724900E-02 0.20008254E+02</pdfrwt>
<totfact> 0.39986104E+06</totfact>
</mgrwt>
</event>
<event>
 5    1  0.1607476E-006  0.2000673E+02  0.7818608E-02  0.1745194E+00
         -2   -1    0    0    0  501 -0.00000000000E+00  0.00000000000E+00  0.26994319291E+02  0.26994319416E+02  0.26000000000E-02 0. -1.
          2   -1    0    0  501    0  0.00000000000E+00 -0.00000000000E+00 -0.37069772172E+01  0.37069781290E+01  0.26000000000E-02 0.  1.
       1023    2    1    2    0    0  0.00000000000E+00  0.00000000000E+00  0.23287342074E+02  0.30701297545E+02  0.20006733119E+02 0.  0.
        -13    1    3    3    0    0 -0.92023142051E+01  0.39156917871E+01  0.11333171837E+02  0.15115131005E+02  0.10570000000E+00 0.  1.
         13    1    3    3    0    0  0.92023142051E+01 -0.39156917871E+01  0.11954170236E+02  0.15586166541E+02  0.10570000000E+00 0. -1.
<mgrwt>
<rscale>  0 0.20006733E+02</rscale>
<asrwt>0</asrwt>
<pdfrwt beam="2">  1        2 0.57030429E-03 0.20006733E+02</pdfrwt>
<pdfrwt beam="1">  1       -2 0.41529721E-02 0.20006733E+02</pdfrwt>
<totfact> 0.36417558E+06</totfact>
</mgrwt>
</event>
<event>
 5    1  0.1607476E-006  0.2000564E+02  0.7818608E-02  0.1745216E+00
         -2   -1    0    0    0  501 -0.00000000000E+00  0.00000000000E+00  0.20341187537E+02  0.20341187703E+02  0.26000000000E-02 0.  1.
          2   -1    0    0  501    0  0.00000000000E+00 -0.00000000000E+00 -0.49189050730E+01  0.49189057601E+01  0.26000000000E-02 0. -1.
       1023    2    1    2    0    0  0.00000000000E+00  0.00000000000E+00  0.15422282464E+02  0.25260093463E+02  0.20005637340E+02 0.  0.
        -13    1    3    3    0    0 -0.85169887399E+01 -0.52416863233E+01  0.79328651731E+01  0.12765417935E+02  0.10570000000E+00 0.  1.
         13    1    3    3    0    0  0.85169887399E+01  0.52416863233E+01  0.74894172906E+01  0.12494675528E+02  0.10570000000E+00 0. -1.
<mgrwt>
<rscale>  0 0.20005637E+02</rscale>
<asrwt>0</asrwt>
<pdfrwt beam="2">  1        2 0.75675468E-03 0.20005637E+02</pdfrwt>
<pdfrwt beam="1">  1       -2 0.31294136E-02 0.20005637E+02</pdfrwt>
<totfact> 0.37358094E+06</totfact>
</mgrwt>
</event>
<event>
 4    1  0.1607476E-006  0.2010226E+02  0.7818608E-02  0.1743302E+00
         -2   -1    0    0    0  501 -0.00000000000E+00  0.00000000000E+00  0.15841563582E+02  0.15841563795E+02  0.26000000000E-02 0.  1.
          2   -1    0    0  501    0  0.00000000000E+00 -0.00000000000E+00 -0.63772274368E+01  0.63772279668E+01  0.26000000000E-02 0. -1.
        -13    1    1    2    0    0 -0.33071203225E+01 -0.94471505093E+01  0.37261786208E+01  0.10680883726E+02  0.10570000000E+00 0. -1.
         13    1    1    2    0    0  0.33071203225E+01  0.94471505093E+01  0.57381575242E+01  0.11537908035E+02  0.10570000000E+00 0.  1.
<mgrwt>
<rscale>  0 0.20102265E+02</rscale>
<asrwt>0</asrwt>
<pdfrwt beam="2">  1        2 0.98111198E-03 0.20102265E+02</pdfrwt>
<pdfrwt beam="1">  1       -2 0.24371637E-02 0.20102265E+02</pdfrwt>
<totfact> 0.37719802E+06</totfact>
</mgrwt>
</event>
<event>
 5    1  0.1607476E-006  0.2000544E+02  0.7818608E-02  0.1745220E+00
          2   -1    0    0  501    0  0.00000000000E+00  0.00000000000E+00  0.13923590874E+02  0.13923591117E+02  0.26000000000E-02 0. -1.
         -2   -1    0    0    0  501 -0.00000000000E+00 -0.00000000000E+00 -0.71859640964E+01  0.71859645667E+01  0.26000000000E-02 0.  1.
       1023    2    1    2    0    0  0.00000000000E+00  0.00000000000E+00  0.67376267777E+01  0.21109555684E+02  0.20005442424E+02 0.  0.
        -13    1    3    3    0    0 -0.31655316739E+01 -0.94879643132E+01  0.34053900773E+01  0.10566452179E+02  0.10570000000E+00 0.  1.
         13    1    3    3    0    0  0.31655316739E+01  0.94879643132E+01  0.33322367004E+01  0.10543103504E+02  0.10570000000E+00 0. -1.
<mgrwt>
<rscale>  0 0.20005442E+02</rscale>
<asrwt>0</asrwt>
<pdfrwt beam="1">  1        2 0.21420909E-02 0.20005442E+02</pdfrwt>
<pdfrwt beam="2">  1       -2 0.11055330E-02 0.20005442E+02</pdfrwt>
<totfact> 0.40428407E+06</totfact>
</mgrwt>
</event>
<event>
 4    1  0.1607476E-006  0.2001608E+02  0.7818608E-02  0.1745009E+00
         -2   -1    0    0    0  501 -0.00000000000E+00  0.00000000000E+00  0.23983454179E+01  0.23983468272E+01  0.26000000000E-02 0. -1.
          2   -1    0    0  501    0  0.00000000000E+00 -0.00000000000E+00 -0.41762459702E+02  0.41762459783E+02  0.26000000000E-02 0.  1.
        -13    1    1    2    0    0  0.54243510264E+01  0.84092915806E+01 -0.19901526186E+02  0.22276033892E+02  0.10570000000E+00 0.  1.
         13    1    1    2    0    0 -0.54243510264E+01 -0.84092915806E+01 -0.19462588098E+02  0.21884772718E+02  0.10570000000E+00 0. -1.
<mgrwt>
<rscale>  0 0.20016077E+02</rscale>
<asrwt>0</asrwt>
<pdfrwt beam="2">  1        2 0.64249934E-02 0.20016077E+02</pdfrwt>
<pdfrwt beam="1">  1       -2 0.36897636E-03 0.20016077E+02</pdfrwt>
<totfact> 0.45073242E+06</totfact>
</mgrwt>
</event>
<event>
 5    1  0.1607476E-006  0.2000199E+02  0.7818608E-02  0.1745289E+00
         -2   -1    0    0    0  501 -0.00000000000E+00  0.00000000000E+00  0.52517647859E+02  0.52517647923E+02  0.26000000000E-02 0. -1.
          2   -1    0    0  501    0  0.00000000000E+00 -0.00000000000E+00 -0.19044990119E+01  0.19045007866E+01  0.26000000000E-02 0.  1.
       1023    2    1    2    0    0  0.00000000000E+00  0.00000000000E+00  0.50613148847E+02  0.54422148710E+02  0.20001985751E+02 0.  0.
        -13    1    3    3    0    0  0.89336244472E+01 -0.44941459918E+01  0.25194654161E+02  0.27106987378E+02  0.10570000000E+00 0.  1.
         13    1    3    3    0    0 -0.89336244472E+01  0.44941459918E+01  0.25418494686E+02  0.27315161331E+02  0.10570000000E+00 0. -1.
<mgrwt>
<rscale>  0 0.20001986E+02</rscale>
<asrwt>0</asrwt>
<pdfrwt beam="2">  1        2 0.29299995E-03 0.20001986E+02</pdfrwt>
<pdfrwt beam="1">  1       -2 0.80796392E-02 0.20001986E+02</pdfrwt>
<totfact> 0.33648279E+06</totfact>
</mgrwt>
</event>
<event>
 5    1  0.1607476E-006  0.2000173E+02  0.7818608E-02  0.1745294E+00
          2   -1    0    0  501    0  0.00000000000E+00  0.00000000000E+00  0.11052690954E+02  0.11052691260E+02  0.26000000000E-02 0.  1.
         -2   -1    0    0    0  501 -0.00000000000E+00 -0.00000000000E+00 -0.90491396451E+01  0.90491400187E+01  0.26000000000E-02 0. -1.
       1023    2    1    2    0    0  0.00000000000E+00  0.00000000000E+00  0.20035513086E+01  0.20101831278E+02  0.20001734997E+02 0.  0.
        -13    1    3    3    0    0 -0.36807086350E+01  0.92982517845E+01  0.10347411681E+01  0.10054201315E+02  0.10570000000E+00 0. -1.
         13    1    3    3    0    0  0.36807086350E+01 -0.92982517845E+01  0.96881014048E+00  0.10047629963E+02  0.10570000000E+00 0.  1.
<mgrwt>
<rscale>  0 0.20001735E+02</rscale>
<asrwt>0</asrwt>
<pdfrwt beam="1">  1        2 0.17004141E-02 0.20001735E+02</pdfrwt>
<pdfrwt beam="2">  1       -2 0.13921754E-02 0.20001735E+02</pdfrwt>
<totfact> 0.39747017E+06</totfact>
</mgrwt>
</event>
<event>
 4    1  0.1607476E-006  0.2001593E+02  0.7818608E-02  0.1745012E+00
         -2   -1    0    0    0  501 -0.00000000000E+00  0.00000000000E+00  0.23683768405E+01  0.23683782676E+01  0.26000000000E-02 0.  1.
          2   -1    0    0  501    0  0.00000000000E+00 -0.00000000000E+00 -0.42290279151E+02  0.42290279230E+02  0.26000000000E-02 0. -1.
        -13    1    1    2    0    0  0.76431008081E+00  0.99778632835E+01 -0.20137385726E+02  0.22487049650E+02  0.10570000000E+00 0. -1.
         13    1    1    2    0    0 -0.76431008081E+00 -0.99778632835E+01 -0.19784516584E+02  0.22171607848E+02  0.10570000000E+00 0.  1.
<mgrwt>
<rscale>  0 0.20015929E+02</rscale>
<asrwt>0</asrwt>
<pdfrwt beam="2">  1        2 0.65061964E-02 0.20015929E+02</pdfrwt>
<pdfrwt beam="1">  1       -2 0.36436581E-03 0.20015929E+02</pdfrwt>
<totfact> 0.45150582E+06</totfact>
</mgrwt>
</event>
<event>
 5    1  0.1607476E-006  0.2000281E+02  0.7818608E-02  0.1745272E+00
          2   -1    0    0  501    0  0.00000000000E+00  0.00000000000E+00  0.87404814888E+02  0.87404814927E+02  0.26000000000E-02 0. -1.
         -2   -1    0    0    0  501 -0.00000000000E+00 -0.00000000000E+00 -0.11444220446E+01  0.11444249980E+01  0.26000000000E-02 0.  1.
       1023    2    1    2    0    0  0.00000000000E+00  0.00000000000E+00  0.86260392844E+02  0.88549239925E+02  0.20002812746E+02 0.  0.
        -13    1    3    3    0    0  0.93420314746E+01 -0.35684835461E+01  0.42702598245E+02  0.43858074471E+02  0.10570000000E+00 0. -1.
         13    1    3    3    0    0 -0.93420314746E+01  0.35684835461E+01  0.43557794599E+02  0.44691165454E+02  0.10570000000E+00 0.  1.
<mgrwt>
<rscale>  0 0.20002813E+02</rscale>
<asrwt>0</asrwt>
<pdfrwt beam="1">  1        2 0.13446894E-01 0.20002813E+02</pdfrwt>
<pdfrwt beam="2">  1       -2 0.17606517E-03 0.20002813E+02</pdfrwt>
<totfact> 0.51208650E+06</totfact>
</mgrwt>
</event>
<event>
 5    1  0.1700847E-006  0.2000208E+02  0.7818608E-02  0.1745287E+00
          2   -1    0    0  501    0  0.00000000000E+00  0.00000000000E+00  0.47076958878E+02  0.47076958950E+02  0.26000000000E-02 0.  1.
         -2   -1    0    0    0  501 -0.00000000000E+00 -0.00000000000E+00 -0.21246214533E+01  0.21246230442E+01  0.26000000000E-02 0. -1.
       1023    2    1    2    0    0  0.00000000000E+00  0.00000000000E+00  0.44952337425E+02  0.49201581994E+02  0.20002075661E+02 0.  0.
        -13    1    3    3    0    0 -0.87553149698E+01 -0.48324177349E+01  0.22580059951E+02  0.24695709775E+02  0.10570000000E+00 0. -1.
         13    1    3    3    0    0  0.87553149698E+01  0.48324177349E+01  0.22372277474E+02  0.24505872220E+02  0.10570000000E+00 0.  1.
<mgrwt>
<rscale>  0 0.20002076E+02</rscale>
<asrwt>0</asrwt>
<pdfrwt beam="1">  1        2 0.72426086E-02 0.20002076E+02</pdfrwt>
<pdfrwt beam="2">  1       -2 0.32686499E-03 0.20002076E+02</pdfrwt>
<totfact> 0.45906321E+06</totfact>
</mgrwt>
</event>
<event>
 5    1  0.1607476E-006  0.2000512E+02  0.7818608E-02  0.1745226E+00
          2   -1    0    0  501    0  0.00000000000E+00  0.00000000000E+00  0.14669356753E+02  0.14669356984E+02  0.26000000000E-02 0.  1.
         -2   -1    0    0    0  501 -0.00000000000E+00 -0.00000000000E+00 -0.68204250273E+01  0.68204255229E+01  0.26000000000E-02 0. -1.
       1023    2    1    2    0    0  0.00000000000E+00  0.00000000000E+00  0.78489317261E+01  0.21489782507E+02  0.20005124917E+02 0.  0.
        -13    1    3    3    0    0 -0.62859795431E+01  0.77785068080E+01  0.40815226424E+01  0.10802254697E+02  0.10570000000E+00 0.  1.
         13    1    3    3    0    0  0.62859795431E+01 -0.77785068080E+01  0.37674090837E+01  0.10687527809E+02  0.10570000000E+00 0. -1.
<mgrwt>
<rscale>  0 0.20005125E+02</rscale>
<asrwt>0</asrwt>
<pdfrwt beam="1">  1        2 0.22568241E-02 0.20005125E+02</pdfrwt>
<pdfrwt beam="2">  1       -2 0.10492962E-02 0.20005125E+02</pdfrwt>
<totfact> 0.40594599E+06</totfact>
</mgrwt>
</event>
<event>
 4    1  0.1607476E-006  0.2002038E+02  0.7818608E-02  0.1744923E+00
         -2   -1    0    0    0  501 -0.00000000000E+00  0.00000000000E+00  0.13897239180E+01  0.13897263501E+01  0.26000000000E-02 0.  1.
          2   -1    0    0  501    0  0.00000000000E+00 -0.00000000000E+00 -0.72103385467E+02  0.72103385513E+02  0.26000000000E-02 0. -1.
        -13    1    1    2    0    0 -0.21059826591E+01 -0.97835461841E+01 -0.36088983366E+02  0.37451019102E+02  0.10570000000E+00 0.  1.
         13    1    1    2    0    0  0.21059826591E+01  0.97835461841E+01 -0.34624678183E+02  0.36042092762E+02  0.10570000000E+00 0. -1.
<mgrwt>
<rscale>  0 0.20020379E+02</rscale>
<asrwt>0</asrwt>
<pdfrwt beam="2">  1        2 0.11092826E-01 0.20020379E+02</pdfrwt>
<pdfrwt beam="1">  1       -2 0.21380393E-03 0.20020379E+02</pdfrwt>
<totfact> 0.49181213E+06</totfact>
</mgrwt>
</event>
<event>
 5    1  0.2993882E-006  0.2000233E+02  0.7818608E-02  0.1745282E+00
          2   -1    0    0  501    0  0.00000000000E+00  0.00000000000E+00  0.11525384238E+03  0.11525384241E+03  0.26000000000E-02 0. -1.
         -2   -1    0    0    0  501 -0.00000000000E+00 -0.00000000000E+00 -0.86785012182E+00  0.86785401649E+00  0.26000000000E-02 0.  1.
       1023    2    1    2    0    0  0.00000000000E+00  0.00000000000E+00  0.11438599226E+03  0.11612169643E+03  0.20002328763E+02 0.  0.
        -13    1    3    3    0    0 -0.86668517980E+01 -0.49893447578E+01  0.56815185158E+02  0.57688684491E+02  0.10570000000E+00 0.  1.
         13    1    3    3    0    0  0.86668517980E+01  0.49893447578E+01  0.57570807104E+02  0.58433011940E+02  0.10570000000E+00 0. -1.
<mgrwt>
<rscale>  0 0.20002329E+02</rscale>
<asrwt>0</asrwt>
<pdfrwt beam="1">  1        2 0.17731358E-01 0.20002329E+02</pdfrwt>
<pdfrwt beam="2">  1       -2 0.13351573E-03 0.20002329E+02</pdfrwt>
<totfact> 0.54534604E+06</totfact>
</mgrwt>
</event>
<event>
 5    1  0.1607476E-006  0.2000383E+02  0.7818608E-02  0.1745252E+00
          2   -1    0    0  501    0  0.00000000000E+00  0.00000000000E+00  0.63493596448E+02  0.63493596501E+02  0.26000000000E-02 0. -1.
         -2   -1    0    0    0  501 -0.00000000000E+00 -0.00000000000E+00 -0.15755637351E+01  0.15755658803E+01  0.26000000000E-02 0.  1.
       1023    2    1    2    0    0  0.00000000000E+00  0.00000000000E+00  0.61918032713E+02  0.65069162381E+02  0.20003827584E+02 0.  0.
        -13    1    3    3    0    0  0.14322944446E+01 -0.98982106908E+01  0.30852874445E+02  0.32433579455E+02  0.10570000000E+00 0. -1.
         13    1    3    3    0    0 -0.14322944446E+01  0.98982106908E+01  0.31065158267E+02  0.32635582926E+02  0.10570000000E+00 0.  1.
<mgrwt>
<rscale>  0 0.20003828E+02</rscale>
<asrwt>0</asrwt>
<pdfrwt beam="1">  1        2 0.97682470E-02 0.20003828E+02</pdfrwt>
<pdfrwt beam="2">  1       -2 0.24239456E-03 0.20003828E+02</pdfrwt>
<totfact> 0.48144268E+06</totfact>
</mgrwt>
</event>
<event>
 5    1  0.1607476E-006  0.2000408E+02  0.7818608E-02  0.1745247E+00
         -2   -1    0    0    0  501 -0.00000000000E+00  0.00000000000E+00  0.96361171211E+02  0.96361171246E+02  0.26000000000E-02 0.  1.
          2   -1    0    0  501    0  0.00000000000E+00 -0.00000000000E+00 -0.10381843346E+01  0.10381875902E+01  0.26000000000E-02 0. -1.
       1023    2    1    2    0    0  0.00000000000E+00  0.00000000000E+00  0.95322986877E+02  0.97399358837E+02  0.20004081451E+02 0.  0.
        -13    1    3    3    0    0  0.92200139534E+01 -0.38723659560E+01  0.48443123560E+02  0.49464646649E+02  0.10570000000E+00 0.  1.
         13    1    3    3    0    0 -0.92200139534E+01  0.38723659560E+01  0.46879863317E+02  0.47934712188E+02  0.10570000000E+00 0. -1.
<mgrwt>
<rscale>  0 0.20004081E+02</rscale>
<asrwt>0</asrwt>
<pdfrwt beam="2">  1        2 0.15972094E-03 0.20004081E+02</pdfrwt>
<pdfrwt beam="1">  1       -2 0.14824794E-01 0.20004081E+02</pdfrwt>
<totfact> 0.29984113E+06</totfact>
</mgrwt>
</event>
<event>
 5    1  0.1607476E-006  0.2000162E+02  0.7818608E-02  0.1745296E+00
          2   -1    0    0  501    0  0.00000000000E+00  0.00000000000E+00  0.22520701122E+02  0.22520701272E+02  0.26000000000E-02 0. -1.
         -2   -1    0    0    0  501 -0.00000000000E+00 -0.00000000000E+00 -0.44410781808E+01  0.44410789418E+01  0.26000000000E-02 0.  1.
       1023    2    1    2    0    0  0.00000000000E+00  0.00000000000E+00  0.18079622941E+02  0.26961780213E+02  0.20001620599E+02 0.  0.
        -13    1    3    3    0    0 -0.48294437444E+01 -0.87567977163E+01  0.90411824038E+01  0.13481809407E+02  0.10570000000E+00 0.  1.
         13    1    3    3    0    0  0.48294437444E+01  0.87567977163E+01  0.90384405369E+01  0.13479970807E+02  0.10570000000E+00 0. -1.
<mgrwt>
<rscale>  0 0.20001621E+02</rscale>
<asrwt>0</asrwt>
<pdfrwt beam="1">  1        2 0.34647232E-02 0.20001621E+02</pdfrwt>
<pdfrwt beam="2">  1       -2 0.68324288E-03 0.20001621E+02</pdfrwt>
<totfact> 0.42122950E+06</totfact>
</mgrwt>
</event>
<event>
 5    1  0.1607476E-006  0.2000188E+02  0.7818608E-02  0.1745291E+00
         -2   -1    0    0    0  501 -0.00000000000E+00  0.00000000000E+00  0.34567325017E+01  0.34567334795E+01  0.26000000000E-02 0. -1.
          2   -1    0    0  501    0  0.00000000000E+00 -0.00000000000E+00 -0.28934487027E+02  0.28934487144E+02  0.26000000000E-02 0.  1.
       1023    2    1    2    0    0  0.00000000000E+00  0.00000000000E+00 -0.25477754526E+02  0.32391220624E+02  0.20001879857E+02 0.  0.
        -13    1    3    3    0    0  0.99784962020E+01  0.65637302843E+00 -0.12609173228E+02  0.16093589841E+02  0.10570000000E+00 0. -1.
         13    1    3    3    0    0 -0.99784962020E+01 -0.65637302843E+00 -0.12868581298E+02  0.16297630782E+02  0.10570000000E+00 0.  1.
<mgrwt>
<rscale>  0 0.20001880E+02</rscale>
<asrwt>0</asrwt>
<pdfrwt beam="2">  1        2 0.44514595E-02 0.20001880E+02</pdfrwt>
<pdfrwt beam="1">  1       -2 0.53180510E-03 0.20001880E+02</pdfrwt>
<totfact> 0.43194121E+06</totfact>
</mgrwt>
</event>
<event>
 5    1  0.1607476E-006  0.2000523E+02  0.7818608E-02  0.1745224E+00
         -2   -1    0    0    0  501 -0.00000000000E+00  0.00000000000E+00  0.12328658671E+02  0.12328658946E+02  0.26000000000E-02 0.  1.
          2   -1    0    0  501    0  0.00000000000E+00 -0.00000000000E+00 -0.81154273914E+01  0.81154278079E+01  0.26000000000E-02 0. -1.
       1023    2    1    2    0    0  0.00000000000E+00  0.00000000000E+00  0.42132312800E+01  0.20444086753E+02  0.20005233449E+02 0.  0.
        -13    1    3    3    0    0  0.58300633808E+01  0.81271930842E+01  0.20900615652E+01  0.10218631821E+02  0.10570000000E+00 0.  1.
         13    1    3    3    0    0 -0.58300633808E+01 -0.81271930842E+01  0.21231697147E+01  0.10225454933E+02  0.10570000000E+00 0. -1.
<mgrwt>
<rscale>  0 0.20005233E+02</rscale>
<asrwt>0</asrwt>
<pdfrwt beam="2">  1        2 0.12485273E-02 0.20005233E+02</pdfrwt>
<pdfrwt beam="1">  1       -2 0.18967168E-02 0.20005233E+02</pdfrwt>
<totfact> 0.38840702E+06</totfact>
</mgrwt>
</event>
<event>
 5    1  0.1607476E-006  0.2000928E+02  0.7818608E-02  0.1745144E+00
          2   -1    0    0  501    0  0.00000000000E+00  0.00000000000E+00  0.47692460683E+02  0.47692460754E+02  0.26000000000E-02 0. -1.
         -2   -1    0    0    0  501 -0.00000000000E+00 -0.00000000000E+00 -0.20987131056E+01  0.20987147161E+01  0.26000000000E-02 0.  1.
       1023    2    1    2    0    0  0.00000000000E+00  0.00000000000E+00  0.45593747577E+02  0.49791175470E+02  0.20009281260E+02 0.  0.
        -13    1    3    3    0    0 -0.71813819944E+01  0.69647300132E+01  0.22906762548E+02  0.24996212802E+02  0.10570000000E+00 0.  1.
         13    1    3    3    0    0  0.71813819944E+01 -0.69647300132E+01  0.22686985029E+02  0.24794962668E+02  0.10570000000E+00 0. -1.
<mgrwt>
<rscale>  0 0.20009281E+02</rscale>
<asrwt>0</asrwt>
<pdfrwt beam="1">  1        2 0.73373005E-02 0.20009281E+02</pdfrwt>
<pdfrwt beam="2">  1       -2 0.32287913E-03 0.20009281E+02</pdfrwt>
<totfact> 0.45956438E+06</totfact>
</mgrwt>
</event>
<event>
 4    1  0.1607476E-006  0.2104508E+02  0.7818608E-02  0.1725310E+00
         -2   -1    0    0    0  501 -0.00000000000E+00  0.00000000000E+00  0.11435044106E+01  0.11435073664E+01  0.26000000000E-02 0. -1.
          2   -1    0    0  501    0  0.00000000000E+00 -0.00000000000E+00 -0.96828414977E+02  0.96828415012E+02  0.26000000000E-02 0.  1.
        -13    1    1    2    0    0 -0.43639903243E+01  0.94727114483E+01 -0.54319932873E+02  0.55312231500E+02  0.10570000000E+00 0.  1.
         13    1    1    2    0    0  0.43639903243E+01 -0.94727114483E+01 -0.41364977694E+02  0.42659690878E+02  0.10570000000E+00 0. -1.
<mgrwt>
<rscale>  0 0.21045082E+02</rscale>
<asrwt>0</asrwt>
<pdfrwt beam="2">  1        2 0.14896673E-01 0.21045082E+02</pdfrwt>
<pdfrwt beam="1">  1       -2 0.17592406E-03 0.21045082E+02</pdfrwt>
<totfact> 0.46782093E+06</totfact>
</mgrwt>
</event>
<event>
 4    1  0.1607476E-006  0.2003271E+02  0.7818608E-02  0.1744678E+00
          2   -1    0    0  501    0  0.00000000000E+00  0.00000000000E+00  0.54468800555E+01  0.54468806761E+01  0.26000000000E-02 0. -1.
         -2   -1    0    0    0  501 -0.00000000000E+00 -0.00000000000E+00 -0.18419225371E+02  0.18419225555E+02  0.26000000000E-02 0.  1.
        -13    1    1    2    0    0  0.90166501599E+01 -0.43502412100E+01 -0.61256621536E+01  0.11737098790E+02  0.10570000000E+00 0.  1.
         13    1    1    2    0    0 -0.90166501599E+01  0.43502412100E+01 -0.68466831622E+01  0.12129007441E+02  0.10570000000E+00 0. -1.
<mgrwt>
<rscale>  0 0.20032705E+02</rscale>
<asrwt>0</asrwt>
<pdfrwt beam="1">  1        2 0.83798162E-03 0.20032705E+02</pdfrwt>
<pdfrwt beam="2">  1       -2 0.28337270E-02 0.20032705E+02</pdfrwt>
<totfact> 0.37554441E+06</totfact>
</mgrwt>
</event>
<event>
 5    1  0.1607476E-006  0.2000764E+02  0.7818608E-02  0.1745176E+00
         -2   -1    0    0    0  501 -0.00000000000E+00  0.00000000000E+00  0.54048521029E+02  0.54048521092E+02  0.26000000000E-02 0.  1.
          2   -1    0    0  501    0  0.00000000000E+00 -0.00000000000E+00 -0.18516020370E+01  0.18516038624E+01  0.26000000000E-02 0. -1.
       1023    2    1    2    0    0  0.00000000000E+00  0.00000000000E+00  0.52196918992E+02  0.55900124954E+02  0.20007638982E+02 0.  0.
        -13    1    3    3    0    0  0.99315035934E+01  0.11838048307E+01  0.26574860209E+02  0.28394903154E+02  0.10570000000E+00 0.  1.
         13    1    3    3    0    0 -0.99315035934E+01 -0.11838048307E+01  0.25622058784E+02  0.27505221801E+02  0.10570000000E+00 0. -1.
<mgrwt>
<rscale>  0 0.20007639E+02</rscale>
<asrwt>0</asrwt>
<pdfrwt beam="2">  1        2 0.28486197E-03 0.20007639E+02</pdfrwt>
<pdfrwt beam="1">  1       -2 0.83151579E-02 0.20007639E+02</pdfrwt>
<totfact> 0.33482202E+06</totfact>
</mgrwt>
</event>
<event>
 5    1  0.1607476E-006  0.2000532E+02  0.7818608E-02  0.1745222E+00
         -2   -1    0    0    0  501 -0.00000000000E+00  0.00000000000E+00  0.96364035157E+00  0.96364385910E+00  0.26000000000E-02 0. -1.
          2   -1    0    0  501    0  0.00000000000E+00 -0.00000000000E+00 -0.10382819095E+03  0.10382819098E+03  0.26000000000E-02 0.  1.
       1023    2    1    2    0    0  0.00000000000E+00  0.00000000000E+00 -0.10286455060E+03  0.10479183484E+03  0.20005321284E+02 0.  0.
        -13    1    3    3    0    0 -0.99165370278E+01  0.12899717319E+01 -0.50380535210E+02  0.51363520461E+02  0.10570000000E+00 0. -1.
         13    1    3    3    0    0  0.99165370278E+01 -0.12899717319E+01 -0.52484015391E+02  0.53428314382E+02  0.10570000000E+00 0.  1.
<mgrwt>
<rscale>  0 0.20005321E+02</rscale>
<asrwt>0</asrwt>
<pdfrwt beam="2">  1        2 0.15973559E-01 0.20005321E+02</pdfrwt>
<pdfrwt beam="1">  1       -2 0.14825272E-03 0.20005321E+02</pdfrwt>
<totfact> 0.53182902E+06</totfact>
</mgrwt>
</event>
<event>
 5    1  0.1607476E-006  0.2000492E+02  0.7818608E-02  0.1745230E+00
          2   -1    0    0  501    0  0.00000000000E+00  0.00000000000E+00  0.21773075989E+01  0.21773091513E+01  0.26000000000E-02 0. -1.
         -2   -1    0    0    0  501 -0.00000000000E+00 -0.00000000000E+00 -0.45950882000E+02  0.45950882074E+02  0.26000000000E-02 0.  1.
       1023    2    1    2    0    0  0.00000000000E+00  0.00000000000E+00 -0.43773574401E+02  0.48128191225E+02  0.20004923762E+02 0.  0.
        -13    1    3    3    0    0  0.82366380219E+01  0.56740843212E+01 -0.21826286452E+02  0.24009068944E+02  0.10570000000E+00 0. -1.
         13    1    3    3    0    0 -0.82366380219E+01 -0.56740843212E+01 -0.21947287950E+02  0.24119122282E+02  0.10570000000E+00 0.  1.
<mgrwt>
<rscale>  0 0.20004924E+02</rscale>
<asrwt>0</asrwt>
<pdfrwt beam="1">  1        2 0.33497056E-03 0.20004924E+02</pdfrwt>
<pdfrwt beam="2">  1       -2 0.70693659E-02 0.20004924E+02</pdfrwt>
<totfact> 0.34282313E+06</totfact>
</mgrwt>
</event>
<event>
 4    1  0.1607476E-006  0.2006293E+02  0.7818608E-02  0.1744080E+00
          2   -1    0    0  501    0  0.00000000000E+00  0.00000000000E+00  0.11935521083E+02  0.11935521366E+02  0.26000000000E-02 0. -1.
         -2   -1    0    0    0  501 -0.00000000000E+00 -0.00000000000E+00 -0.84311557395E+01  0.84311561404E+01  0.26000000000E-02 0.  1.
        -13    1    1    2    0    0 -0.94280084624E+01  0.34215001803E+01  0.15914680023E+01  0.10155685597E+02  0.10570000000E+00 0.  1.
         13    1    1    2    0    0  0.94280084624E+01 -0.34215001803E+01  0.19128973412E+01  0.10210991910E+02  0.10570000000E+00 0. -1.
<mgrwt>
<rscale>  0 0.20062925E+02</rscale>
<asrwt>0</asrwt>
<pdfrwt beam="1">  1        2 0.18362341E-02 0.20062925E+02</pdfrwt>
<pdfrwt beam="2">  1       -2 0.12971009E-02 0.20062925E+02</pdfrwt>
<totfact> 0.39697835E+06</totfact>
</mgrwt>
</event>
<event>
 5    1  0.1607476E-006  0.2000539E+02  0.7818608E-02  0.1745221E+00
          2   -1    0    0  501    0  0.00000000000E+00  0.00000000000E+00  0.40516618665E+02  0.40516618748E+02  0.26000000000E-02 0. -1.
         -2   -1    0    0    0  501 -0.00000000000E+00 -0.00000000000E+00 -0.24694537971E+01  0.24694551658E+01  0.26000000000E-02 0.  1.
       1023    2    1    2    0    0  0.00000000000E+00  0.00000000000E+00  0.38047164867E+02  0.42986073914E+02  0.20005394174E+02 0.  0.
        -13    1    3    3    0    0 -0.82285146167E+01  0.56840218670E+01  0.19371510883E+02  0.21800989972E+02  0.10570000000E+00 0. -1.
         13    1    3    3    0    0  0.82285146167E+01 -0.56840218670E+01  0.18675653985E+02  0.21185083942E+02  0.10570000000E+00 0.  1.
<mgrwt>
<rscale>  0 0.20005394E+02</rscale>
<asrwt>0</asrwt>
<pdfrwt beam="1">  1        2 0.62333258E-02 0.20005394E+02</pdfrwt>
<pdfrwt beam="2">  1       -2 0.37991610E-03 0.20005394E+02</pdfrwt>
<totfact> 0.44945097E+06</totfact>
</mgrwt>
</event>
<event>
 4    1  0.1607476E-006  0.2002489E+02  0.7818608E-02  0.1744834E+00
         -2   -1    0    0    0  501 -0.00000000000E+00  0.00000000000E+00  0.47908507134E+01  0.47908514189E+01  0.26000000000E-02 0. -1.
          2   -1    0    0  501    0  0.00000000000E+00 -0.00000000000E+00 -0.20925094148E+02  0.20925094309E+02  0.26000000000E-02 0.  1.
        -13    1    1    2    0    0  0.58013185352E+01 -0.81536746403E+01 -0.76607502325E+01  0.12603014461E+02  0.10570000000E+00 0.  1.
         13    1    1    2    0    0 -0.58013185352E+01  0.81536746403E+01 -0.84734932018E+01  0.13112931267E+02  0.10570000000E+00 0. -1.
<mgrwt>
<rscale>  0 0.20024886E+02</rscale>
<asrwt>0</asrwt>
<pdfrwt beam="2">  1        2 0.32192453E-02 0.20024886E+02</pdfrwt>
<pdfrwt beam="1">  1       -2 0.73705403E-03 0.20024886E+02</pdfrwt>
<totfact> 0.41729703E+06</totfact>
</mgrwt>
</event>
<event>
 5    1  0.1607476E-006  0.2000275E+02  0.7818608E-02  0.1745273E+00
         -2   -1    0    0    0  501 -0.00000000000E+00  0.00000000000E+00  0.49058550823E+01  0.49058557713E+01  0.26000000000E-02 0.  1.
          2   -1    0    0  501    0  0.00000000000E+00 -0.00000000000E+00 -0.20389412323E+02  0.20389412489E+02  0.26000000000E-02 0. -1.
       1023    2    1    2    0    0  0.00000000000E+00  0.00000000000E+00 -0.15483557241E+02  0.25295268260E+02  0.20002751099E+02 0.  0.
        -13    1    3    3    0    0  0.86466148225E+01  0.50237574683E+01 -0.75908022941E+01  0.12555219590E+02  0.10570000000E+00 0. -1.
         13    1    3    3    0    0 -0.86466148225E+01 -0.50237574683E+01 -0.78927549470E+01  0.12740048671E+02  0.10570000000E+00 0.  1.
<mgrwt>
<rscale>  0 0.20002751E+02</rscale>
<asrwt>0</asrwt>
<pdfrwt beam="2">  1        2 0.31368327E-02 0.20002751E+02</pdfrwt>
<pdfrwt beam="1">  1       -2 0.75474701E-03 0.20002751E+02</pdfrwt>
<totfact> 0.41736500E+06</totfact>
</mgrwt>
</event>
<event>
 5    1  0.1607476E-006  0.2000134E+02  0.7818608E-02  0.1745301E+00
          2   -1    0    0  501    0  0.00000000000E+00  0.00000000000E+00  0.27412928274E+01  0.27412940604E+01  0.26000000000E-02 0.  1.
         -2   -1    0    0    0  501 -0.00000000000E+00 -0.00000000000E+00 -0.36484007384E+02  0.36484007477E+02  0.26000000000E-02 0. -1.
       1023    2    1    2    0    0  0.00000000000E+00  0.00000000000E+00 -0.33742714557E+02  0.39225301537E+02  0.20001337331E+02 0.  0.
        -13    1    3    3    0    0 -0.15800203258E+01  0.98744650162E+01 -0.16922410059E+02  0.19656567815E+02  0.10570000000E+00 0. -1.
         13    1    3    3    0    0  0.15800203258E+01 -0.98744650162E+01 -0.16820304498E+02  0.19568733722E+02  0.10570000000E+00 0.  1.
<mgrwt>
<rscale>  0 0.20001337E+02</rscale>
<asrwt>0</asrwt>
<pdfrwt beam="1">  1        2 0.42173749E-03 0.20001337E+02</pdfrwt>
<pdfrwt beam="2">  1       -2 0.56129239E-02 0.20001337E+02</pdfrwt>
<totfact> 0.35300243E+06</totfact>
</mgrwt>
</event>
<event>
 5    1  0.1607476E-006  0.2000374E+02  0.7818608E-02  0.1745254E+00
         -2   -1    0    0    0  501 -0.00000000000E+00  0.00000000000E+00  0.43486357133E+02  0.43486357211E+02  0.26000000000E-02 0. -1.
          2   -1    0    0  501    0  0.00000000000E+00 -0.00000000000E+00 -0.23004321175E+01  0.23004335868E+01  0.26000000000E-02 0.  1.
       1023    2    1    2    0    0  0.00000000000E+00  0.00000000000E+00  0.41185925015E+02  0.45786790797E+02  0.20003744453E+02 0.  0.
        -13    1    3    3    0    0 -0.96076223445E+01  0.27775278938E+01  0.20758132988E+02  0.23041968795E+02  0.10570000000E+00 0.  1.
         13    1    3    3    0    0  0.96076223445E+01 -0.27775278938E+01  0.20427792028E+02  0.22744822003E+02  0.10570000000E+00 0. -1.
<mgrwt>
<rscale>  0 0.20003744E+02</rscale>
<asrwt>0</asrwt>
<pdfrwt beam="2">  1        2 0.35391275E-03 0.20003744E+02</pdfrwt>
<pdfrwt beam="1">  1       -2 0.66902090E-02 0.20003744E+02</pdfrwt>
<totfact> 0.34538793E+06</totfact>
</mgrwt>
</event>
<event>
 5    1  0.1607476E-006  0.2000216E+02  0.7818608E-02  0.1745285E+00
          2   -1    0    0  501    0  0.00000000000E+00  0.00000000000E+00  0.28124577155E+02  0.28124577275E+02  0.26000000000E-02 0. -1.
         -2   -1    0    0    0  501 -0.00000000000E+00 -0.00000000000E+00 -0.35563775352E+01  0.35563784856E+01  0.26000000000E-02 0.  1.
       1023    2    1    2    0    0  0.00000000000E+00  0.00000000000E+00  0.24568199620E+02  0.31680955760E+02  0.20002163017E+02 0.  0.
        -13    1    3    3    0    0 -0.68826467539E+01 -0.72548110967E+01  0.12419874706E+02  0.15945769677E+02  0.10570000000E+00 0. -1.
         13    1    3    3    0    0  0.68826467539E+01  0.72548110967E+01  0.12148324914E+02  0.15735186084E+02  0.10570000000E+00 0.  1.
<mgrwt>
<rscale>  0 0.20002163E+02</rscale>
<asrwt>0</asrwt>
<pdfrwt beam="1">  1        2 0.43268582E-02 0.20002163E+02</pdfrwt>
<pdfrwt beam="2">  1       -2 0.54713508E-03 0.20002163E+02</pdfrwt>
<totfact> 0.43062261E+06</totfact>
</mgrwt>
</event>
<event>
 4    1  0.1607476E-006  0.2046267E+02  0.7818608E-02  0.1736281E+00
         -2   -1    0    0    0  501 -0.00000000000E+00  0.00000000000E+00  0.96018378698E+00  0.96018730713E+00  0.26000000000E-02 0.  1.
          2   -1    0    0  501    0  0.00000000000E+00 -0.00000000000E+00 -0.10902084491E+03  0.10902084494E+03  0.26000000000E-02 0. -1.
        -13    1    1    2    0    0 -0.16789803016E+01 -0.10080465963E+02 -0.56631945965E+02  0.57546704903E+02  0.10570000000E+00 0.  1.
         13    1    1    2    0    0  0.16789803016E+01  0.10080465963E+02 -0.51428715158E+02  0.52434327346E+02  0.10570000000E+00 0. -1.
<mgrwt>
<rscale>  0 0.20462673E+02</rscale>
<asrwt>0</asrwt>
<pdfrwt beam="2">  1        2 0.16772428E-01 0.20462673E+02</pdfrwt>
<pdfrwt beam="1">  1       -2 0.14772094E-03 0.20462673E+02</pdfrwt>
<totfact> 0.51174685E+06</totfact>
</mgrwt>
</event>
<event>
 4    1  0.1607476E-006  0.2021324E+02  0.7818608E-02  0.1741121E+00
         -2   -1    0    0    0  501 -0.00000000000E+00  0.00000000000E+00  0.11445538490E+01  0.11445568021E+01  0.26000000000E-02 0.  1.
          2   -1    0    0  501    0  0.00000000000E+00 -0.00000000000E+00 -0.89243153333E+02  0.89243153371E+02  0.26000000000E-02 0. -1.
        -13    1    1    2    0    0  0.10882080768E+01 -0.10017136587E+02 -0.40570163260E+02  0.41802829350E+02  0.10570000000E+00 0. -1.
         13    1    1    2    0    0 -0.10882080768E+01  0.10017136587E+02 -0.47528436224E+02  0.48584880823E+02  0.10570000000E+00 0.  1.
<mgrwt>
<rscale>  0 0.20213236E+02</rscale>
<asrwt>0</asrwt>
<pdfrwt beam="2">  1        2 0.13729711E-01 0.20213236E+02</pdfrwt>
<pdfrwt beam="1">  1       -2 0.17608551E-03 0.20213236E+02</pdfrwt>
<totfact> 0.50258599E+06</totfact>
</mgrwt>
</event>
<event>
 4    1  0.1607476E-006  0.2002256E+02  0.7818608E-02  0.1744880E+00
         -2   -1    0    0    0  501 -0.00000000000E+00  0.00000000000E+00  0.10779840114E+01  0.10779871469E+01  0.26000000000E-02 0.  1.
          2   -1    0    0  501    0  0.00000000000E+00 -0.00000000000E+00 -0.92975011875E+02  0.92975011912E+02  0.26000000000E-02 0. -1.
        -13    1    1    2    0    0  0.99188746029E+01 -0.13425204397E+01 -0.45160836399E+02  0.46256877881E+02  0.10570000000E+00 0. -1.
         13    1    1    2    0    0 -0.99188746029E+01  0.13425204397E+01 -0.46736191465E+02  0.47796121178E+02  0.10570000000E+00 0.  1.
<mgrwt>
<rscale>  0 0.20022560E+02</rscale>
<asrwt>0</asrwt>
<pdfrwt beam="2">  1        2 0.14303842E-01 0.20022560E+02</pdfrwt>
<pdfrwt beam="1">  1       -2 0.16584401E-03 0.20022560E+02</pdfrwt>
<totfact> 0.51779884E+06</totfact>
</mgrwt>
</event>
<event>
 5    1  0.1607476E-006  0.2000462E+02  0.7818608E-02  0.1745236E+00
          2   -1    0    0  501    0  0.00000000000E+00  0.00000000000E+00  0.12108636842E+01  0.12108664756E+01  0.26000000000E-02 0. -1.
         -2   -1    0    0    0  501 -0.00000000000E+00 -0.00000000000E+00 -0.82623762729E+02  0.82623762770E+02  0.26000000000E-02 0.  1.
       1023    2    1    2    0    0  0.00000000000E+00  0.00000000000E+00 -0.81412899044E+02  0.83834629245E+02  0.20004622712E+02 0.  0.
        -13    1    3    3    0    0 -0.62933750675E+01  0.77721074897E+01 -0.41339731933E+02  0.42532303410E+02  0.10570000000E+00 0. -1.
         13    1    3    3    0    0  0.62933750675E+01 -0.77721074897E+01 -0.40073167112E+02  0.41302325835E+02  0.10570000000E+00 0.  1.
<mgrwt>
<rscale>  0 0.20004623E+02</rscale>
<asrwt>0</asrwt>
<pdfrwt beam="1">  1        2 0.18628700E-03 0.20004623E+02</pdfrwt>
<pdfrwt beam="2">  1       -2 0.12711344E-01 0.20004623E+02</pdfrwt>
<totfact> 0.31033160E+06</totfact>
</mgrwt>
</event>
<event>
 5    1  0.1607476E-006  0.2000675E+02  0.7818608E-02  0.1745194E+00
         -2   -1    0    0    0  501 -0.00000000000E+00  0.00000000000E+00  0.50938183001E+02  0.50938183068E+02  0.26000000000E-02 0. -1.
          2   -1    0    0  501    0  0.00000000000E+00 -0.00000000000E+00 -0.19644886041E+01  0.19644903247E+01  0.26000000000E-02 0.  1.
       1023    2    1    2    0    0  0.00000000000E+00  0.00000000000E+00  0.48973694397E+02  0.52902673392E+02  0.20006751589E+02 0.  0.
        -13    1    3    3    0    0  0.23955696519E+01  0.97116819605E+01  0.24410468594E+02  0.26380630582E+02  0.10570000000E+00 0.  1.
         13    1    3    3    0    0 -0.23955696519E+01 -0.97116819605E+01  0.24563225803E+02  0.26522042810E+02  0.10570000000E+00 0. -1.
<mgrwt>
<rscale>  0 0.20006752E+02</rscale>
<asrwt>0</asrwt>
<pdfrwt beam="2">  1        2 0.30222913E-03 0.20006752E+02</pdfrwt>
<pdfrwt beam="1">  1       -2 0.78366444E-02 0.20006752E+02</pdfrwt>
<totfact> 0.33782576E+06</totfact>
</mgrwt>
</event>
<event>
 5    1  0.1607476E-006  0.2000653E+02  0.7818608E-02  0.1745198E+00
          2   -1    0    0  501    0  0.00000000000E+00  0.00000000000E+00  0.46230430174E+01  0.46230437485E+01  0.26000000000E-02 0.  1.
         -2   -1    0    0    0  501 -0.00000000000E+00 -0.00000000000E+00 -0.21644896287E+02  0.21644896443E+02  0.26000000000E-02 0. -1.
       1023    2    1    2    0    0  0.00000000000E+00  0.00000000000E+00 -0.17021853270E+02  0.26267940192E+02  0.20006528764E+02 0.  0.
        -13    1    3    3    0    0  0.32933429785E+00  0.99970575380E+01 -0.84227981109E+01  0.13076862047E+02  0.10570000000E+00 0.  1.
         13    1    3    3    0    0 -0.32933429785E+00 -0.99970575380E+01 -0.85990551587E+01  0.13191078144E+02  0.10570000000E+00 0. -1.
<mgrwt>
<rscale>  0 0.20006529E+02</rscale>
<asrwt>0</asrwt>
<pdfrwt beam="1">  1        2 0.71123747E-03 0.20006529E+02</pdfrwt>
<pdfrwt beam="2">  1       -2 0.33299841E-02 0.20006529E+02</pdfrwt>
<totfact> 0.37157537E+06</totfact>
</mgrwt>
</event>
<event>
 4    1  0.1607476E-006  0.2001420E+02  0.7818608E-02  0.1745046E+00
          2   -1    0    0  501    0  0.00000000000E+00  0.00000000000E+00  0.85784264471E+01  0.85784268411E+01  0.26000000000E-02 0. -1.
         -2   -1    0    0    0  501 -0.00000000000E+00 -0.00000000000E+00 -0.11673712614E+02  0.11673712903E+02  0.26000000000E-02 0.  1.
        -13    1    1    2    0    0  0.99853865917E+01 -0.55391145025E+00 -0.12027744168E+01  0.10073361011E+02  0.10570000000E+00 0. -1.
         13    1    1    2    0    0 -0.99853865917E+01  0.55391145025E+00 -0.18925117498E+01  0.10178778733E+02  0.10570000000E+00 0.  1.
<mgrwt>
<rscale>  0 0.20014204E+02</rscale>
<asrwt>0</asrwt>
<pdfrwt beam="1">  1        2 0.13197580E-02 0.20014204E+02</pdfrwt>
<pdfrwt beam="2">  1       -2 0.17959558E-02 0.20014204E+02</pdfrwt>
<totfact> 0.38959286E+06</totfact>
</mgrwt>
</event>
<event>
 4    1  0.1607476E-006  0.2013058E+02  0.7818608E-02  0.1742744E+00
          2   -1    0    0  501    0  0.00000000000E+00  0.00000000000E+00  0.35022329695E+02  0.35022329791E+02  0.26000000000E-02 0. -1.
         -2   -1    0    0    0  501 -0.00000000000E+00 -0.00000000000E+00 -0.28927275423E+01  0.28927287107E+01  0.26000000000E-02 0.  1.
        -13    1    1    2    0    0 -0.99984776214E+01  0.47956529498E+00  0.18039621699E+02  0.20631012121E+02  0.10570000000E+00 0.  1.
         13    1    1    2    0    0  0.99984776214E+01 -0.47956529498E+00  0.14089980454E+02  0.17284046381E+02  0.10570000000E+00 0. -1.
<mgrwt>
<rscale>  0 0.20130582E+02</rscale>
<asrwt>0</asrwt>
<pdfrwt beam="1">  1        2 0.53880513E-02 0.20130582E+02</pdfrwt>
<pdfrwt beam="2">  1       -2 0.44503507E-03 0.20130582E+02</pdfrwt>
<totfact> 0.43513965E+06</totfact>
</mgrwt>
</event>
<event>
 5    1  0.1607476E-006  0.2000299E+02  0.7818608E-02  0.1745269E+00
         -2   -1    0    0    0  501 -0.00000000000E+00  0.00000000000E+00  0.17534554968E+01  0.17534574244E+01  0.26000000000E-02 0. -1.
          2   -1    0    0  501    0  0.00000000000E+00 -0.00000000000E+00 -0.57047295063E+02  0.57047295123E+02  0.26000000000E-02 0.  1.
       1023    2    1    2    0    0  0.00000000000E+00  0.00000000000E+00 -0.55293839566E+02  0.58800752547E+02  0.20002994928E+02 0.  0.
        -13    1    3    3    0    0 -0.96459086403E+01  0.26405702121E+01 -0.27797227504E+02  0.29541719549E+02  0.10570000000E+00 0.  1.
         13    1    3    3    0    0  0.96459086403E+01 -0.26405702121E+01 -0.27496612063E+02  0.29259032998E+02  0.10570000000E+00 0. -1.
<mgrwt>
<rscale>  0 0.20002995E+02</rscale>
<asrwt>0</asrwt>
<pdfrwt beam="2">  1        2 0.87765057E-02 0.20002995E+02</pdfrwt>
<pdfrwt beam="1">  1       -2 0.26976258E-03 0.20002995E+02</pdfrwt>
<totfact> 0.47282838E+06</totfact>
</mgrwt>
</event>
<event>
 5    1  0.1653538E-006  0.2000141E+02  0.7818608E-02  0.1745300E+00
         -2   -1    0    0    0  501 -0.00000000000E+00  0.00000000000E+00  0.10945478628E+01  0.10945509508E+01  0.26000000000E-02 0.  1.
          2   -1    0    0  501    0  0.00000000000E+00 -0.00000000000E+00 -0.91374678020E+02  0.91374678057E+02  0.26000000000E-02 0. -1.
       1023    2    1    2    0    0  0.00000000000E+00  0.00000000000E+00 -0.90280130157E+02  0.92469229008E+02  0.20001410252E+02 0.  0.
        -13    1    3    3    0    0  0.40313854703E+01  0.91513919862E+01 -0.45388445606E+02  0.46477114918E+02  0.10570000000E+00 0. -1.
         13    1    3    3    0    0 -0.40313854703E+01 -0.91513919862E+01 -0.44891684551E+02  0.45992114089E+02  0.10570000000E+00 0.  1.
<mgrwt>
<rscale>  0 0.20001410E+02</rscale>
<asrwt>0</asrwt>
<pdfrwt beam="2">  1        2 0.14057637E-01 0.20001410E+02</pdfrwt>
<pdfrwt beam="1">  1       -2 0.16839229E-03 0.20001410E+02</pdfrwt>
<totfact> 0.51705344E+06</totfact>
</mgrwt>
</event>
<event>
 5    1  0.1607476E-006  0.2000351E+02  0.7818608E-02  0.1745258E+00
         -2   -1    0    0    0  501 -0.00000000000E+00  0.00000000000E+00  0.89010451329E+02  0.89010451367E+02  0.26000000000E-02 0.  1.
          2   -1    0    0  501    0  0.00000000000E+00 -0.00000000000E+00 -0.11238560134E+01  0.11238590209E+01  0.26000000000E-02 0. -1.
       1023    2    1    2    0    0  0.00000000000E+00  0.00000000000E+00  0.87886595316E+02  0.90134310388E+02  0.20003506516E+02 0.  0.
        -13    1    3    3    0    0 -0.99677917880E+01  0.80373038119E+00  0.44596891286E+02  0.45704449899E+02  0.10570000000E+00 0.  1.
         13    1    3    3    0    0  0.99677917880E+01 -0.80373038119E+00  0.43289704030E+02  0.44429860490E+02  0.10570000000E+00 0. -1.
<mgrwt>
<rscale>  0 0.20003507E+02</rscale>
<asrwt>0</asrwt>
<pdfrwt beam="2">  1        2 0.17290113E-03 0.20003507E+02</pdfrwt>
<pdfrwt beam="1">  1       -2 0.13693918E-01 0.20003507E+02</pdfrwt>
<totfact> 0.30539325E+06</totfact>
</mgrwt>
</event>
<event>
 5    1  0.1607476E-006  0.2000136E+02  0.7818608E-02  0.1745301E+00
          2   -1    0    0  501    0  0.00000000000E+00  0.00000000000E+00  0.27603078784E+01  0.27603091029E+01  0.26000000000E-02 0. -1.
         -2   -1    0    0    0  501 -0.00000000000E+00 -0.00000000000E+00 -0.36232756297E+02  0.36232756390E+02  0.26000000000E-02 0.  1.
       1023    2    1    2    0    0  0.00000000000E+00  0.00000000000E+00 -0.33472448418E+02  0.38993065493E+02  0.20001358789E+02 0.  0.
        -13    1    3    3    0    0 -0.69574119940E+01 -0.71830903108E+01 -0.16749702179E+02  0.19508102512E+02  0.10570000000E+00 0.  1.
         13    1    3    3    0    0  0.69574119940E+01  0.71830903108E+01 -0.16722746239E+02  0.19484962980E+02  0.10570000000E+00 0. -1.
<mgrwt>
<rscale>  0 0.20001359E+02</rscale>
<asrwt>0</asrwt>
<pdfrwt beam="1">  1        2 0.42466288E-03 0.20001359E+02</pdfrwt>
<pdfrwt beam="2">  1       -2 0.55742700E-02 0.20001359E+02</pdfrwt>
<totfact> 0.35328293E+06</totfact>
</mgrwt>
</event>
<event>
 5    1  0.1607476E-006  0.2000175E+02  0.7818608E-02  0.1745293E+00
          2   -1    0    0  501    0  0.00000000000E+00  0.00000000000E+00  0.27493386172E+02  0.27493386295E+02  0.26000000000E-02 0. -1.
         -2   -1    0    0    0  501 -0.00000000000E+00 -0.00000000000E+00 -0.36378729440E+01  0.36378738731E+01  0.26000000000E-02 0.  1.
       1023    2    1    2    0    0  0.00000000000E+00  0.00000000000E+00  0.23855513228E+02  0.31131260168E+02  0.20001746131E+02 0.  0.
        -13    1    3    3    0    0 -0.37353598600E+01 -0.92764879229E+01  0.11908814666E+02  0.15551115095E+02  0.10570000000E+00 0. -1.
         13    1    3    3    0    0  0.37353598600E+01  0.92764879229E+01  0.11946698563E+02  0.15580145073E+02  0.10570000000E+00 0.  1.
<mgrwt>
<rscale>  0 0.20001746E+02</rscale>
<asrwt>0</asrwt>
<pdfrwt beam="1">  1        2 0.42297517E-02 0.20001746E+02</pdfrwt>
<pdfrwt beam="2">  1       -2 0.55967285E-03 0.20001746E+02</pdfrwt>
<totfact> 0.42961745E+06</totfact>
</mgrwt>
</event>
<event>
 4    1  0.1607476E-006  0.2003882E+02  0.7818608E-02  0.1744557E+00
          2   -1    0    0  501    0  0.00000000000E+00  0.00000000000E+00  0.57991776263E+01  0.57991782091E+01  0.26000000000E-02 0. -1.
         -2   -1    0    0    0  501 -0.00000000000E+00 -0.00000000000E+00 -0.17310823116E+02  0.17310823311E+02  0.26000000000E-02 0.  1.
        -13    1    1    2    0    0  0.80508613371E+01  0.59632021722E+01 -0.57962065439E+01  0.11575116898E+02  0.10570000000E+00 0. -1.
         13    1    1    2    0    0 -0.80508613371E+01 -0.59632021722E+01 -0.57154389459E+01  0.11534884622E+02  0.10570000000E+00 0.  1.
<mgrwt>
<rscale>  0 0.20038817E+02</rscale>
<asrwt>0</asrwt>
<pdfrwt beam="1">  1        2 0.89218124E-03 0.20038817E+02</pdfrwt>
<pdfrwt beam="2">  1       -2 0.26632036E-02 0.20038817E+02</pdfrwt>
<totfact> 0.37716325E+06</totfact>
</mgrwt>
</event>
<event>
 5    1  0.1607476E-006  0.2000155E+02  0.7818608E-02  0.1745297E+00
          2   -1    0    0  501    0  0.00000000000E+00  0.00000000000E+00  0.53292076664E+02  0.53292076727E+02  0.26000000000E-02 0. -1.
         -2   -1    0    0    0  501 -0.00000000000E+00 -0.00000000000E+00 -0.18767422544E+01  0.18767440554E+01  0.26000000000E-02 0.  1.
       1023    2    1    2    0    0  0.00000000000E+00  0.00000000000E+00  0.51415334409E+02  0.55168820783E+02  0.20001554292E+02 0.  0.
        -13    1    3    3    0    0  0.99256464978E+01  0.12189130846E+01  0.25742939179E+02  0.27617282589E+02  0.10570000000E+00 0. -1.
         13    1    3    3    0    0 -0.99256464978E+01 -0.12189130846E+01  0.25672395230E+02  0.27551538194E+02  0.10570000000E+00 0.  1.
<mgrwt>
<rscale>  0 0.20001554E+02</rscale>
<asrwt>0</asrwt>
<pdfrwt beam="1">  1        2 0.81987817E-02 0.20001554E+02</pdfrwt>
<pdfrwt beam="2">  1       -2 0.28872970E-03 0.20001554E+02</pdfrwt>
<totfact> 0.46776826E+06</totfact>
</mgrwt>
</event>
<event>
 5    1  0.1607476E-006  0.2000401E+02  0.7818608E-02  0.1745248E+00
         -2   -1    0    0    0  501 -0.00000000000E+00  0.00000000000E+00  0.69466023491E+02  0.69466023540E+02  0.26000000000E-02 0.  1.
          2   -1    0    0  501    0  0.00000000000E+00 -0.00000000000E+00 -0.14401290412E+01  0.14401313883E+01  0.26000000000E-02 0. -1.
       1023    2    1    2    0    0  0.00000000000E+00  0.00000000000E+00  0.68025894450E+02  0.70906154928E+02  0.20004011872E+02 0.  0.
        -13    1    3    3    0    0  0.98627604787E+01  0.16547622893E+01  0.34470567676E+02  0.35892109034E+02  0.10570000000E+00 0. -1.
         13    1    3    3    0    0 -0.98627604787E+01 -0.16547622893E+01  0.33555326774E+02  0.35014045894E+02  0.10570000000E+00 0.  1.
<mgrwt>
<rscale>  0 0.20004012E+02</rscale>
<asrwt>0</asrwt>
<pdfrwt beam="2">  1        2 0.22155849E-03 0.20004012E+02</pdfrwt>
<pdfrwt beam="1">  1       -2 0.10687081E-01 0.20004012E+02</pdfrwt>
<totfact> 0.32114578E+06</totfact>
</mgrwt>
</event>
<event>
 4    1  0.1607476E-006  0.2010499E+02  0.7818608E-02  0.1743248E+00
         -2   -1    0    0    0  501 -0.00000000000E+00  0.00000000000E+00  0.68433693725E+02  0.68433693775E+02  0.26000000000E-02 0.  1.
          2   -1    0    0  501    0  0.00000000000E+00 -0.00000000000E+00 -0.14766490482E+01  0.14766513372E+01  0.26000000000E-02 0. -1.
        -13    1    1    2    0    0  0.41315533251E+00 -0.10043438739E+02  0.33443936236E+02  0.34922047512E+02  0.10570000000E+00 0.  1.
         13    1    1    2    0    0 -0.41315533251E+00  0.10043438739E+02  0.33513108441E+02  0.34988297599E+02  0.10570000000E+00 0. -1.
<mgrwt>
<rscale>  0 0.20104987E+02</rscale>
<asrwt>0</asrwt>
<pdfrwt beam="2">  1        2 0.22717696E-03 0.20104987E+02</pdfrwt>
<pdfrwt beam="1">  1       -2 0.10528261E-01 0.20104987E+02</pdfrwt>
<totfact> 0.31850399E+06</totfact>
</mgrwt>
</event>
<event>
 4    1  0.1607476E-006  0.2001354E+02  0.7818608E-02  0.1745059E+00
          2   -1    0    0  501    0  0.00000000000E+00  0.00000000000E+00  0.20129555348E+01  0.20129572140E+01  0.26000000000E-02 0. -1.
         -2   -1    0    0    0  501 -0.00000000000E+00 -0.00000000000E+00 -0.49745449655E+02  0.49745449723E+02  0.26000000000E-02 0.  1.
        -13    1    1    2    0    0 -0.92176200177E+01  0.38831443342E+01 -0.24601930451E+02  0.26557663359E+02  0.10570000000E+00 0. -1.
         13    1    1    2    0    0  0.92176200177E+01 -0.38831443342E+01 -0.23130563670E+02  0.25200743578E+02  0.10570000000E+00 0.  1.
<mgrwt>
<rscale>  0 0.20013538E+02</rscale>
<asrwt>0</asrwt>
<pdfrwt beam="1">  1        2 0.30968564E-03 0.20013538E+02</pdfrwt>
<pdfrwt beam="2">  1       -2 0.76531453E-02 0.20013538E+02</pdfrwt>
<totfact> 0.33873422E+06</totfact>
</mgrwt>
</event>
<event>
 5    1  0.1607476E-006  0.2000214E+02  0.7818608E-02  0.1745285E+00
          2   -1    0    0  501    0  0.00000000000E+00  0.00000000000E+00  0.15082230130E+02  0.15082230354E+02  0.26000000000E-02 0.  1.
         -2   -1    0    0    0  501 -0.00000000000E+00 -0.00000000000E+00 -0.66317387685E+01  0.66317392781E+01  0.26000000000E-02 0. -1.
       1023    2    1    2    0    0  0.00000000000E+00  0.00000000000E+00  0.84504913614E+01  0.21713969632E+02  0.20002141709E+02 0.  0.
        -13    1    3    3    0    0  0.65320395990E+01  0.75724963814E+01  0.42233736258E+01  0.10856256263E+02  0.10570000000E+00 0.  1.
         13    1    3    3    0    0 -0.65320395990E+01 -0.75724963814E+01  0.42271177356E+01  0.10857713369E+02  0.10570000000E+00 0. -1.
<mgrwt>
<rscale>  0 0.20002142E+02</rscale>
<asrwt>0</asrwt>
<pdfrwt beam="1">  1        2 0.23203431E-02 0.20002142E+02</pdfrwt>
<pdfrwt beam="2">  1       -2 0.10202676E-02 0.20002142E+02</pdfrwt>
<totfact> 0.40697321E+06</totfact>
</mgrwt>
</event>
<event>
 5    1  0.1607476E-006  0.2000503E+02  0.7818608E-02  0.1745228E+00
          2   -1    0    0  501    0  0.00000000000E+00  0.00000000000E+00  0.47462690855E+01  0.47462697977E+01  0.26000000000E-02 0. -1.
         -2   -1    0    0    0  501 -0.00000000000E+00 -0.00000000000E+00 -0.21079784490E+02  0.21079784651E+02  0.26000000000E-02 0.  1.
       1023    2    1    2    0    0  0.00000000000E+00  0.00000000000E+00 -0.16333515405E+02  0.25826054448E+02  0.20005033439E+02 0.  0.
        -13    1    3    3    0    0 -0.99875958309E+01 -0.53251504180E+00 -0.82434104993E+01  0.12961505773E+02  0.10570000000E+00 0. -1.
         13    1    3    3    0    0  0.99875958309E+01  0.53251504180E+00 -0.80901049053E+01  0.12864548675E+02  0.10570000000E+00 0.  1.
<mgrwt>
<rscale>  0 0.20005033E+02</rscale>
<asrwt>0</asrwt>
<pdfrwt beam="1">  1        2 0.73019532E-03 0.20005033E+02</pdfrwt>
<pdfrwt beam="2">  1       -2 0.32430438E-02 0.20005033E+02</pdfrwt>
<totfact> 0.37247966E+06</totfact>
</mgrwt>
</event>
<event>
 5    1  0.1607476E-006  0.2000403E+02  0.7818608E-02  0.1745248E+00
         -2   -1    0    0    0  501 -0.00000000000E+00  0.00000000000E+00  0.12048790768E+02  0.12048791049E+02  0.26000000000E-02 0. -1.
          2   -1    0    0  501    0  0.00000000000E+00 -0.00000000000E+00 -0.83029343860E+01  0.83029347931E+01  0.26000000000E-02 0.  1.
       1023    2    1    2    0    0  0.00000000000E+00  0.00000000000E+00  0.37458563822E+01  0.20351725842E+02  0.20004032211E+02 0.  0.
        -13    1    3    3    0    0  0.91687538486E+01  0.39948187222E+01  0.18044536238E+01  0.10163259769E+02  0.10570000000E+00 0. -1.
         13    1    3    3    0    0 -0.91687538486E+01 -0.39948187222E+01  0.19414027583E+01  0.10188466073E+02  0.10570000000E+00 0.  1.
<mgrwt>
<rscale>  0 0.20004032E+02</rscale>
<asrwt>0</asrwt>
<pdfrwt beam="2">  1        2 0.12773746E-02 0.20004032E+02</pdfrwt>
<pdfrwt beam="1">  1       -2 0.18536602E-02 0.20004032E+02</pdfrwt>
<totfact> 0.38911382E+06</totfact>
</mgrwt>
</event>
<event>
 5    1  0.1607476E-006  0.2000984E+02  0.7818608E-02  0.1745132E+00
          2   -1    0    0  501    0  0.00000000000E+00  0.00000000000E+00  0.39162011807E+02  0.39162011894E+02  0.26000000000E-02 0.  1.
         -2   -1    0    0    0  501 -0.00000000000E+00 -0.00000000000E+00 -0.25560071300E+01  0.25560084524E+01  0.26000000000E-02 0. -1.
       1023    2    1    2    0    0  0.00000000000E+00  0.00000000000E+00  0.36606004677E+02  0.41718020346E+02  0.20009838659E+02 0.  0.
        -13    1    3    3    0    0  0.95701580062E+01 -0.29039338565E+01  0.17765435128E+02  0.20387315024E+02  0.10570000000E+00 0.  1.
         13    1    3    3    0    0 -0.95701580062E+01  0.29039338565E+01  0.18840569549E+02  0.21330705322E+02  0.10570000000E+00 0. -1.
<mgrwt>
<rscale>  0 0.20009839E+02</rscale>
<asrwt>0</asrwt>
<pdfrwt beam="1">  1        2 0.60249248E-02 0.20009839E+02</pdfrwt>
<pdfrwt beam="2">  1       -2 0.39323199E-03 0.20009839E+02</pdfrwt>
<totfact> 0.44723605E+06</totfact>
</mgrwt>
</event>
<event>
 5    1  0.1607476E-006  0.2000746E+02  0.7818608E-02  0.1745180E+00
         -2   -1    0    0    0  501 -0.00000000000E+00  0.00000000000E+00  0.20326798812E+02  0.20326798978E+02  0.26000000000E-02 0.  1.
          2   -1    0    0  501    0  0.00000000000E+00 -0.00000000000E+00 -0.49232852298E+01  0.49232859164E+01  0.26000000000E-02 0. -1.
       1023    2    1    2    0    0  0.00000000000E+00  0.00000000000E+00  0.15403513582E+02  0.25250084894E+02  0.20007462520E+02 0.  0.
        -13    1    3    3    0    0  0.99431443351E+01  0.10910793367E+01  0.75969757261E+01  0.12561122006E+02  0.10570000000E+00 0.  1.
         13    1    3    3    0    0 -0.99431443351E+01 -0.10910793367E+01  0.78065378557E+01  0.12688962888E+02  0.10570000000E+00 0. -1.
<mgrwt>
<rscale>  0 0.20007463E+02</rscale>
<asrwt>0</asrwt>
<pdfrwt beam="2">  1        2 0.75742857E-03 0.20007463E+02</pdfrwt>
<pdfrwt beam="1">  1       -2 0.31271999E-02 0.20007463E+02</pdfrwt>
<totfact> 0.37352917E+06</totfact>
</mgrwt>
</event>
<event>
 5    1  0.1607476E-006  0.2000230E+02  0.7818608E-02  0.1745282E+00
          2   -1    0    0  501    0  0.00000000000E+00  0.00000000000E+00  0.83413715169E+02  0.83413715209E+02  0.26000000000E-02 0. -1.
         -2   -1    0    0    0  501 -0.00000000000E+00 -0.00000000000E+00 -0.11991181380E+01  0.11991209567E+01  0.26000000000E-02 0.  1.
       1023    2    1    2    0    0  0.00000000000E+00  0.00000000000E+00  0.82214597031E+02  0.84612836166E+02  0.20002301845E+02 0.  0.
        -13    1    3    3    0    0  0.48613998294E+01 -0.87389319975E+01  0.41524060702E+02  0.42711367696E+02  0.10570000000E+00 0.  1.
         13    1    3    3    0    0 -0.48613998294E+01  0.87389319975E+01  0.40690536329E+02  0.41901468470E+02  0.10570000000E+00 0. -1.
<mgrwt>
<rscale>  0 0.20002302E+02</rscale>
<asrwt>0</asrwt>
<pdfrwt beam="1">  1        2 0.12832882E-01 0.20002302E+02</pdfrwt>
<pdfrwt beam="2">  1       -2 0.18447990E-03 0.20002302E+02</pdfrwt>
<totfact> 0.50715036E+06</totfact>
</mgrwt>
</event>
<event>
 5    1  0.1607476E-006  0.2000543E+02  0.7818608E-02  0.1745220E+00
          2   -1    0    0  501    0  0.00000000000E+00  0.00000000000E+00  0.23433686391E+02  0.23433686535E+02  0.26000000000E-02 0.  1.
         -2   -1    0    0    0  501 -0.00000000000E+00 -0.00000000000E+00 -0.42696794488E+01  0.42696802404E+01  0.26000000000E-02 0. -1.
       1023    2    1    2    0    0  0.00000000000E+00  0.00000000000E+00  0.19164006942E+02  0.27703366775E+02  0.20005433477E+02 0.  0.
        -13    1    3    3    0    0  0.99977985209E+01  0.28864070040E+00  0.94957347318E+01  0.13792006355E+02  0.10570000000E+00 0.  1.
         13    1    3    3    0    0 -0.99977985209E+01 -0.28864070040E+00  0.96682722103E+01  0.13911360420E+02  0.10570000000E+00 0. -1.
<mgrwt>
<rscale>  0 0.20005433E+02</rscale>
<asrwt>0</asrwt>
<pdfrwt beam="1">  1        2 0.36051826E-02 0.20005433E+02</pdfrwt>
<pdfrwt beam="2">  1       -2 0.65687383E-03 0.20005433E+02</pdfrwt>
<totfact> 0.42263621E+06</totfact>
</mgrwt>
</event>
<event>
 4    1  0.1607476E-006  0.2004455E+02  0.7818608E-02  0.1744444E+00
         -2   -1    0    0    0  501 -0.00000000000E+00  0.00000000000E+00  0.20154141365E+01  0.20154158135E+01  0.26000000000E-02 0.  1.
          2   -1    0    0  501    0  0.00000000000E+00 -0.00000000000E+00 -0.49838858525E+02  0.49838858592E+02  0.26000000000E-02 0. -1.
        -13    1    1    2    0    0 -0.44753909048E+01 -0.89605425245E+01 -0.23036863249E+02  0.25120284372E+02  0.10570000000E+00 0. -1.
         13    1    1    2    0    0  0.44753909048E+01  0.89605425245E+01 -0.24786581139E+02  0.26733990034E+02  0.10570000000E+00 0.  1.
<mgrwt>
<rscale>  0 0.20044549E+02</rscale>
<asrwt>0</asrwt>
<pdfrwt beam="2">  1        2 0.76675159E-02 0.20044549E+02</pdfrwt>
<pdfrwt beam="1">  1       -2 0.31006388E-03 0.20044549E+02</pdfrwt>
<totfact> 0.46076634E+06</totfact>
</mgrwt>
</event>
<event>
 5    1  0.1607476E-006  0.2000190E+02  0.7818608E-02  0.1745290E+00
         -2   -1    0    0    0  501 -0.00000000000E+00  0.00000000000E+00  0.20425686587E+01  0.20425703135E+01  0.26000000000E-02 0. -1.
          2   -1    0    0  501    0  0.00000000000E+00 -0.00000000000E+00 -0.48967255340E+02  0.48967255409E+02  0.26000000000E-02 0.  1.
       1023    2    1    2    0    0  0.00000000000E+00  0.00000000000E+00 -0.46924686682E+02  0.51009825723E+02  0.20001902412E+02 0.  0.
        -13    1    3    3    0    0  0.28173970359E+00  0.99962881449E+01 -0.23329862880E+02  0.25383042143E+02  0.10570000000E+00 0. -1.
         13    1    3    3    0    0 -0.28173970359E+00 -0.99962881449E+01 -0.23594823802E+02  0.25626783580E+02  0.10570000000E+00 0.  1.
<mgrwt>
<rscale>  0 0.20001902E+02</rscale>
<asrwt>0</asrwt>
<pdfrwt beam="2">  1        2 0.75334232E-02 0.20001902E+02</pdfrwt>
<pdfrwt beam="1">  1       -2 0.31424150E-03 0.20001902E+02</pdfrwt>
<totfact> 0.46173679E+06</totfact>
</mgrwt>
</event>
<event>
 4    1  0.1607476E-006  0.2088411E+02  0.7818608E-02  0.1728297E+00
          2   -1    0    0  501    0  0.00000000000E+00  0.00000000000E+00  0.98500855078E+02  0.98500855112E+02  0.26000000000E-02 0.  1.
         -2   -1    0    0    0  501 -0.00000000000E+00 -0.00000000000E+00 -0.11069580248E+01  0.11069610782E+01  0.26000000000E-02 0. -1.
        -13    1    1    2    0    0  0.38450423486E+01 -0.96941493669E+01  0.46244403330E+02  0.47405874050E+02  0.10570000000E+00 0.  1.
         13    1    1    2    0    0 -0.38450423486E+01  0.96941493669E+01  0.51149493723E+02  0.52201942141E+02  0.10570000000E+00 0. -1.
<mgrwt>
<rscale>  0 0.20884106E+02</rscale>
<asrwt>0</asrwt>
<pdfrwt beam="1">  1        2 0.15153983E-01 0.20884106E+02</pdfrwt>
<pdfrwt beam="2">  1       -2 0.17030141E-03 0.20884106E+02</pdfrwt>
<totfact> 0.47772905E+06</totfact>
</mgrwt>
</event>
<event>
 4    1  0.1607476E-006  0.2002344E+02  0.7818608E-02  0.1744862E+00
         -2   -1    0    0    0  501 -0.00000000000E+00  0.00000000000E+00  0.54542699650E+02  0.54542699712E+02  0.26000000000E-02 0.  1.
          2   -1    0    0  501    0  0.00000000000E+00 -0.00000000000E+00 -0.18377246956E+01  0.18377265348E+01  0.26000000000E-02 0. -1.
        -13    1    1    2    0    0 -0.87079500745E+01  0.49281026404E+01  0.27281065650E+02  0.29058257099E+02  0.10570000000E+00 0.  1.
         13    1    1    2    0    0  0.87079500745E+01 -0.49281026404E+01  0.25423909304E+02  0.27322169147E+02  0.10570000000E+00 0. -1.
<mgrwt>
<rscale>  0 0.20023438E+02</rscale>
<asrwt>0</asrwt>
<pdfrwt beam="2">  1        2 0.28272709E-03 0.20023438E+02</pdfrwt>
<pdfrwt beam="1">  1       -2 0.83911826E-02 0.20023438E+02</pdfrwt>
<totfact> 0.33378046E+06</totfact>
</mgrwt>
</event>
<event>
 5    1  0.1607476E-006  0.2000347E+02  0.7818608E-02  0.1745259E+00
         -2   -1    0    0    0  501 -0.00000000000E+00  0.00000000000E+00  0.34328959664E+01  0.34328969509E+01  0.26000000000E-02 0. -1.
          2   -1    0    0  501    0  0.00000000000E+00 -0.00000000000E+00 -0.29140024854E+02  0.29140024970E+02  0.26000000000E-02 0.  1.
       1023    2    1    2    0    0  0.00000000000E+00  0.00000000000E+00 -0.25707128887E+02  0.32572921920E+02  0.20003468870E+02 0.  0.
        -13    1    3    3    0    0 -0.23738367403E+01  0.97151528572E+01 -0.12747742042E+02  0.16202944040E+02  0.10570000000E+00 0.  1.
         13    1    3    3    0    0  0.23738367403E+01 -0.97151528572E+01 -0.12959386846E+02  0.16369977881E+02  0.10570000000E+00 0. -1.
<mgrwt>
<rscale>  0 0.20003469E+02</rscale>
<asrwt>0</asrwt>
<pdfrwt beam="2">  1        2 0.44830807E-02 0.20003469E+02</pdfrwt>
<pdfrwt beam="1">  1       -2 0.52813795E-03 0.20003469E+02</pdfrwt>
<totfact> 0.43219356E+06</totfact>
</mgrwt>
</event>
<event>
 5    1  0.1607476E-006  0.2000257E+02  0.7818608E-02  0.1745277E+00
          2   -1    0    0  501    0  0.00000000000E+00  0.00000000000E+00  0.45580193404E+02  0.45580193478E+02  0.26000000000E-02 0. -1.
         -2   -1    0    0    0  501 -0.00000000000E+00 -0.00000000000E+00 -0.21944975454E+01  0.21944990856E+01  0.26000000000E-02 0.  1.
       1023    2    1    2    0    0  0.00000000000E+00  0.00000000000E+00  0.43385695859E+02  0.47774692564E+02  0.20002565946E+02 0.  0.
        -13    1    3    3    0    0  0.94847395226E+01 -0.31708362138E+01  0.21696631961E+02  0.23890782680E+02  0.10570000000E+00 0.  1.
         13    1    3    3    0    0 -0.94847395226E+01  0.31708362138E+01  0.21689063897E+02  0.23883909884E+02  0.10570000000E+00 0. -1.
<mgrwt>
<rscale>  0 0.20002566E+02</rscale>
<asrwt>0</asrwt>
<pdfrwt beam="1">  1        2 0.70123375E-02 0.20002566E+02</pdfrwt>
<pdfrwt beam="2">  1       -2 0.33761513E-03 0.20002566E+02</pdfrwt>
<totfact> 0.45691130E+06</totfact>
</mgrwt>
</event>
<event>
 4    1  0.1607476E-006  0.2002096E+02  0.7818608E-02  0.1744912E+00
         -2   -1    0    0    0  501 -0.00000000000E+00  0.00000000000E+00  0.20391280037E+02  0.20391280203E+02  0.26000000000E-02 0.  1.
          2   -1    0    0  501    0  0.00000000000E+00 -0.00000000000E+00 -0.49143412180E+01  0.49143419058E+01  0.26000000000E-02 0. -1.
        -13    1    1    2    0    0 -0.90342724730E+01 -0.43034853628E+01  0.80493125010E+01  0.12842922939E+02  0.10570000000E+00 0.  1.
         13    1    1    2    0    0  0.90342724730E+01  0.43034853628E+01  0.74276263179E+01  0.12462699170E+02  0.10570000000E+00 0. -1.
<mgrwt>
<rscale>  0 0.20020961E+02</rscale>
<asrwt>0</asrwt>
<pdfrwt beam="2">  1        2 0.75605257E-03 0.20020961E+02</pdfrwt>
<pdfrwt beam="1">  1       -2 0.31371200E-02 0.20020961E+02</pdfrwt>
<totfact> 0.37288351E+06</totfact>
</mgrwt>
</event>
<event>
 5    1  0.1607476E-006  0.2000377E+02  0.7818608E-02  0.1745253E+00
         -2   -1    0    0    0  501 -0.00000000000E+00  0.00000000000E+00  0.61751429984E+02  0.61751430038E+02  0.26000000000E-02 0. -1.
          2   -1    0    0  501    0  0.00000000000E+00 -0.00000000000E+00 -0.16200048581E+01  0.16200069445E+01  0.26000000000E-02 0.  1.
       1023    2    1    2    0    0  0.00000000000E+00  0.00000000000E+00  0.60131425125E+02  0.63371436983E+02  0.20003768086E+02 0.  0.
        -13    1    3    3    0    0 -0.99775853297E+01 -0.68866045629E+00  0.30043381727E+02  0.31664529371E+02  0.10570000000E+00 0. -1.
         13    1    3    3    0    0  0.99775853297E+01  0.68866045629E+00  0.30088043399E+02  0.31706907611E+02  0.10570000000E+00 0.  1.
<mgrwt>
<rscale>  0 0.20003768E+02</rscale>
<asrwt>0</asrwt>
<pdfrwt beam="2">  1        2 0.24923171E-03 0.20003768E+02</pdfrwt>
<pdfrwt beam="1">  1       -2 0.95002192E-02 0.20003768E+02</pdfrwt>
<totfact> 0.32788733E+06</totfact>
</mgrwt>
</event>
<event>
 5    1  0.1607476E-006  0.2000669E+02  0.7818608E-02  0.1745195E+00
         -2   -1    0    0    0  501 -0.00000000000E+00  0.00000000000E+00  0.12162393175E+01  0.12162420965E+01  0.26000000000E-02 0.  1.
          2   -1    0    0  501    0  0.00000000000E+00 -0.00000000000E+00 -0.82275569220E+02  0.82275569261E+02  0.26000000000E-02 0. -1.
       1023    2    1    2    0    0  0.00000000000E+00  0.00000000000E+00 -0.81059329903E+02  0.83491811358E+02  0.20006688870E+02 0.  0.
        -13    1    3    3    0    0 -0.91043997426E+01  0.41393368849E+01 -0.41270602413E+02  0.42465256393E+02  0.10570000000E+00 0. -1.
         13    1    3    3    0    0  0.91043997426E+01 -0.41393368849E+01 -0.39788727490E+02  0.41026554964E+02  0.10570000000E+00 0.  1.
<mgrwt>
<rscale>  0 0.20006689E+02</rscale>
<asrwt>0</asrwt>
<pdfrwt beam="2">  1        2 0.12657776E-01 0.20006689E+02</pdfrwt>
<pdfrwt beam="1">  1       -2 0.18711402E-03 0.20006689E+02</pdfrwt>
<totfact> 0.50548172E+06</totfact>
</mgrwt>
</event>
<event>
 5    1  0.1607476E-006  0.2000249E+02  0.7818608E-02  0.1745279E+00
          2   -1    0    0  501    0  0.00000000000E+00  0.00000000000E+00  0.20315049557E+01  0.20315066195E+01  0.26000000000E-02 0.  1.
         -2   -1    0    0    0  501 -0.00000000000E+00 -0.00000000000E+00 -0.49236809900E+02  0.49236809969E+02  0.26000000000E-02 0. -1.
       1023    2    1    2    0    0  0.00000000000E+00  0.00000000000E+00 -0.47205304944E+02  0.51268316588E+02  0.20002486618E+02 0.  0.
        -13    1    3    3    0    0  0.57548963728E+00 -0.99840246918E+01 -0.23495189683E+02  0.25535211926E+02  0.10570000000E+00 0. -1.
         13    1    3    3    0    0 -0.57548963728E+00  0.99840246918E+01 -0.23710115261E+02  0.25733104662E+02  0.10570000000E+00 0.  1.
<mgrwt>
<rscale>  0 0.20002487E+02</rscale>
<asrwt>0</asrwt>
<pdfrwt beam="1">  1        2 0.31253940E-03 0.20002487E+02</pdfrwt>
<pdfrwt beam="2">  1       -2 0.75748930E-02 0.20002487E+02</pdfrwt>
<totfact> 0.33964151E+06</totfact>
</mgrwt>
</event>
<event>
 5    1  0.1607476E-006  0.2000889E+02  0.7818608E-02  0.1745151E+00
          2   -1    0    0  501    0  0.00000000000E+00  0.00000000000E+00  0.45785895933E+02  0.45785896007E+02  0.26000000000E-02 0.  1.
         -2   -1    0    0    0  501 -0.00000000000E+00 -0.00000000000E+00 -0.21860199863E+01  0.21860215325E+01  0.26000000000E-02 0. -1.
       1023    2    1    2    0    0  0.00000000000E+00  0.00000000000E+00  0.43599875947E+02  0.47971917540E+02  0.20008890270E+02 0.  0.
        -13    1    3    3    0    0 -0.74922036579E+01  0.66290018689E+01  0.21874552441E+02  0.24053773060E+02  0.10570000000E+00 0.  1.
         13    1    3    3    0    0  0.74922036579E+01 -0.66290018689E+01  0.21725323506E+02  0.23918144480E+02  0.10570000000E+00 0. -1.
<mgrwt>
<rscale>  0 0.20008890E+02</rscale>
<asrwt>0</asrwt>
<pdfrwt beam="1">  1        2 0.70439833E-02 0.20008890E+02</pdfrwt>
<pdfrwt beam="2">  1       -2 0.33631093E-03 0.20008890E+02</pdfrwt>
<totfact> 0.45688234E+06</totfact>
</mgrwt>
</event>
<event>
 4    1  0.1607476E-006  0.2001311E+02  0.7818608E-02  0.1745068E+00
         -2   -1    0    0    0  501 -0.00000000000E+00  0.00000000000E+00  0.45212340501E+02  0.45212340576E+02  0.26000000000E-02 0.  1.
          2   -1    0    0  501    0  0.00000000000E+00 -0.00000000000E+00 -0.22146841840E+01  0.22146857101E+01  0.26000000000E-02 0. -1.
        -13    1    1    2    0    0 -0.98130003187E+01 -0.19413764839E+01  0.22059639836E+02  0.24221948726E+02  0.10570000000E+00 0. -1.
         13    1    1    2    0    0  0.98130003187E+01  0.19413764839E+01  0.20938016481E+02  0.23205077560E+02  0.10570000000E+00 0.  1.
<mgrwt>
<rscale>  0 0.20013105E+02</rscale>
<asrwt>0</asrwt>
<pdfrwt beam="2">  1        2 0.34072077E-03 0.20013105E+02</pdfrwt>
<pdfrwt beam="1">  1       -2 0.69557448E-02 0.20013105E+02</pdfrwt>
<totfact> 0.34326540E+06</totfact>
</mgrwt>
</event>
<event>
 4    1  0.1607476E-006  0.2004488E+02  0.7818608E-02  0.1744437E+00
         -2   -1    0    0    0  501 -0.00000000000E+00  0.00000000000E+00  0.11150387187E+02  0.11150387491E+02  0.26000000000E-02 0.  1.
          2   -1    0    0  501    0  0.00000000000E+00 -0.00000000000E+00 -0.90085932807E+01  0.90085936559E+01  0.26000000000E-02 0. -1.
        -13    1    1    2    0    0  0.96985699324E+01 -0.24877544269E+01  0.63605090626E+00  0.10033290291E+02  0.10570000000E+00 0. -1.
         13    1    1    2    0    0 -0.96985699324E+01  0.24877544269E+01  0.15057430005E+01  0.10125690855E+02  0.10570000000E+00 0.  1.
<mgrwt>
<rscale>  0 0.20044881E+02</rscale>
<asrwt>0</asrwt>
<pdfrwt beam="2">  1        2 0.13859375E-02 0.20044881E+02</pdfrwt>
<pdfrwt beam="1">  1       -2 0.17154442E-02 0.20044881E+02</pdfrwt>
<totfact> 0.38962321E+06</totfact>
</mgrwt>
</event>
<event>
 5    1  0.1607476E-006  0.2000170E+02  0.7818608E-02  0.1745294E+00
          2   -1    0    0  501    0  0.00000000000E+00  0.00000000000E+00  0.83936905913E+02  0.83936905953E+02  0.26000000000E-02 0.  1.
         -2   -1    0    0    0  501 -0.00000000000E+00 -0.00000000000E+00 -0.11915716137E+01  0.11915744503E+01  0.26000000000E-02 0. -1.
       1023    2    1    2    0    0  0.00000000000E+00  0.00000000000E+00  0.82745334299E+02  0.85128480403E+02  0.20001695616E+02 0.  0.
        -13    1    3    3    0    0 -0.10231080262E+00  0.99996786668E+01  0.41550377577E+02  0.42736975680E+02  0.10570000000E+00 0.  1.
         13    1    3    3    0    0  0.10231080262E+00 -0.99996786668E+01  0.41194956721E+02  0.42391504723E+02  0.10570000000E+00 0. -1.
<mgrwt>
<rscale>  0 0.20001696E+02</rscale>
<asrwt>0</asrwt>
<pdfrwt beam="1">  1        2 0.12913374E-01 0.20001696E+02</pdfrwt>
<pdfrwt beam="2">  1       -2 0.18331888E-03 0.20001696E+02</pdfrwt>
<totfact> 0.50783716E+06</totfact>
</mgrwt>
</event>
<event>
 5    1  0.2586215E-006  0.2000227E+02  0.7818608E-02  0.1745283E+00
         -2   -1    0    0    0  501 -0.00000000000E+00  0.00000000000E+00  0.90996578763E+00  0.90996950205E+00  0.26000000000E-02 0.  1.
          2   -1    0    0  501    0  0.00000000000E+00 -0.00000000000E+00 -0.10991899731E+03  0.10991899734E+03  0.26000000000E-02 0. -1.
       1023    2    1    2    0    0  0.00000000000E+00  0.00000000000E+00 -0.10900903152E+03  0.11082896684E+03  0.20002273321E+02 0.  0.
        -13    1    3    3    0    0 -0.24116687549E+01  0.97053303027E+01 -0.54751038126E+02  0.55656957613E+02  0.10570000000E+00 0.  1.
         13    1    3    3    0    0  0.24116687549E+01 -0.97053303027E+01 -0.54257993397E+02  0.55172009229E+02  0.10570000000E+00 0. -1.
<mgrwt>
<rscale>  0 0.20002273E+02</rscale>
<asrwt>0</asrwt>
<pdfrwt beam="2">  1        2 0.16910605E-01 0.20002273E+02</pdfrwt>
<pdfrwt beam="1">  1       -2 0.13999511E-03 0.20002273E+02</pdfrwt>
<totfact> 0.53916612E+06</totfact>
</mgrwt>
</event>
<event>
 5    1  0.1607476E-006  0.2000140E+02  0.7818608E-02  0.1745300E+00
          2   -1    0    0  501    0  0.00000000000E+00  0.00000000000E+00  0.20853393203E+02  0.20853393365E+02  0.26000000000E-02 0.  1.
         -2   -1    0    0    0  501 -0.00000000000E+00 -0.00000000000E+00 -0.47960539150E+01  0.47960546198E+01  0.26000000000E-02 0. -1.
       1023    2    1    2    0    0  0.00000000000E+00  0.00000000000E+00  0.16057339288E+02  0.25649447984E+02  0.20001400874E+02 0.  0.
        -13    1    3    3    0    0  0.65028882808E+01 -0.75970273315E+01  0.80560679502E+01  0.12841876170E+02  0.10570000000E+00 0. -1.
         13    1    3    3    0    0 -0.65028882808E+01  0.75970273315E+01  0.80012713373E+01  0.12807571814E+02  0.10570000000E+00 0.  1.
<mgrwt>
<rscale>  0 0.20001401E+02</rscale>
<asrwt>0</asrwt>
<pdfrwt beam="1">  1        2 0.32082144E-02 0.20001401E+02</pdfrwt>
<pdfrwt beam="2">  1       -2 0.73785453E-03 0.20001401E+02</pdfrwt>
<totfact> 0.41827196E+06</totfact>
</mgrwt>
</event>
<event>
 4    1  0.1607476E-006  0.2041743E+02  0.7818608E-02  0.1737152E+00
         -2   -1    0    0    0  501 -0.00000000000E+00  0.00000000000E+00  0.35459338551E+01  0.35459348084E+01  0.26000000000E-02 0.  1.
          2   -1    0    0  501    0  0.00000000000E+00 -0.00000000000E+00 -0.29390796767E+02  0.29390796882E+02  0.26000000000E-02 0. -1.
        -13    1    1    2    0    0  0.33768396772E+01 -0.95829312008E+01 -0.11332786184E+02  0.15220999698E+02  0.10570000000E+00 0. -1.
         13    1    1    2    0    0 -0.33768396772E+01  0.95829312008E+01 -0.14512076728E+02  0.17715731993E+02  0.10570000000E+00 0.  1.
<mgrwt>
<rscale>  0 0.20417428E+02</rscale>
<asrwt>0</asrwt>
<pdfrwt beam="2">  1        2 0.45216610E-02 0.20417428E+02</pdfrwt>
<pdfrwt beam="1">  1       -2 0.54552839E-03 0.20417428E+02</pdfrwt>
<totfact> 0.41312766E+06</totfact>
</mgrwt>
</event>
<event>
 5    1  0.1607476E-006  0.2000326E+02  0.7818608E-02  0.1745263E+00
          2   -1    0    0  501    0  0.00000000000E+00  0.00000000000E+00  0.39865652018E+02  0.39865652103E+02  0.26000000000E-02 0.  1.
         -2   -1    0    0    0  501 -0.00000000000E+00 -0.00000000000E+00 -0.25092432209E+01  0.25092445679E+01  0.26000000000E-02 0. -1.
       1023    2    1    2    0    0  0.00000000000E+00  0.00000000000E+00  0.37356408797E+02  0.42374896670E+02  0.20003264474E+02 0.  0.
        -13    1    3    3    0    0 -0.45184403737E+01  0.89220667120E+01  0.18770472618E+02  0.21268789167E+02  0.10570000000E+00 0. -1.
         13    1    3    3    0    0  0.45184403737E+01 -0.89220667120E+01  0.18585936179E+02  0.21106107503E+02  0.10570000000E+00 0.  1.
<mgrwt>
<rscale>  0 0.20003264E+02</rscale>
<asrwt>0</asrwt>
<pdfrwt beam="1">  1        2 0.61331772E-02 0.20003264E+02</pdfrwt>
<pdfrwt beam="2">  1       -2 0.38603754E-03 0.20003264E+02</pdfrwt>
<totfact> 0.44860192E+06</totfact>
</mgrwt>
</event>
<event>
 5    1  0.1607476E-006  0.2000165E+02  0.7818608E-02  0.1745295E+00
         -2   -1    0    0    0  501 -0.00000000000E+00  0.00000000000E+00  0.45479202467E+01  0.45479209899E+01  0.26000000000E-02 0.  1.
          2   -1    0    0  501    0  0.00000000000E+00 -0.00000000000E+00 -0.21991697121E+02  0.21991697274E+02  0.26000000000E-02 0. -1.
       1023    2    1    2    0    0  0.00000000000E+00  0.00000000000E+00 -0.17443776874E+02  0.26539618264E+02  0.20001649582E+02 0.  0.
        -13    1    3    3    0    0  0.17768171568E+01 -0.98410266105E+01 -0.87874316931E+01  0.13312888951E+02  0.10570000000E+00 0.  1.
         13    1    3    3    0    0 -0.17768171568E+01  0.98410266105E+01 -0.86563451810E+01  0.13226729314E+02  0.10570000000E+00 0. -1.
<mgrwt>
<rscale>  0 0.20001650E+02</rscale>
<asrwt>0</asrwt>
<pdfrwt beam="2">  1        2 0.33833380E-02 0.20001650E+02</pdfrwt>
<pdfrwt beam="1">  1       -2 0.69968012E-03 0.20001650E+02</pdfrwt>
<totfact> 0.42029651E+06</totfact>
</mgrwt>
</event>
<event>
 5    1  0.1607476E-006  0.2000305E+02  0.7818608E-02  0.1745267E+00
          2   -1    0    0  501    0  0.00000000000E+00  0.00000000000E+00  0.24094168843E+02  0.24094168983E+02  0.26000000000E-02 0. -1.
         -2   -1    0    0    0  501 -0.00000000000E+00 -0.00000000000E+00 -0.41516462471E+01  0.41516470612E+01  0.26000000000E-02 0.  1.
       1023    2    1    2    0    0  0.00000000000E+00  0.00000000000E+00  0.19942522596E+02  0.28245816044E+02  0.20003047681E+02 0.  0.
        -13    1    3    3    0    0  0.16390809030E+01 -0.98652404501E+01  0.10110701865E+02  0.14221357883E+02  0.10570000000E+00 0. -1.
         13    1    3    3    0    0 -0.16390809030E+01  0.98652404501E+01  0.98318207304E+01  0.14024458161E+02  0.10570000000E+00 0.  1.
<mgrwt>
<rscale>  0 0.20003048E+02</rscale>
<asrwt>0</asrwt>
<pdfrwt beam="1">  1        2 0.37067953E-02 0.20003048E+02</pdfrwt>
<pdfrwt beam="2">  1       -2 0.63871488E-03 0.20003048E+02</pdfrwt>
<totfact> 0.42388376E+06</totfact>
</mgrwt>
</event>
<event>
 5    1  0.1607476E-006  0.2000281E+02  0.7818608E-02  0.1745272E+00
          2   -1    0    0  501    0  0.00000000000E+00  0.00000000000E+00  0.29954447457E+01  0.29954458741E+01  0.26000000000E-02 0. -1.
         -2   -1    0    0    0  501 -0.00000000000E+00 -0.00000000000E+00 -0.33393401832E+02  0.33393401934E+02  0.26000000000E-02 0.  1.
       1023    2    1    2    0    0  0.00000000000E+00  0.00000000000E+00 -0.30397957087E+02  0.36388847808E+02  0.20002811046E+02 0.  0.
        -13    1    3    3    0    0 -0.56117023427E+01 -0.82778090833E+01 -0.15308334802E+02  0.18285776257E+02  0.10570000000E+00 0. -1.
         13    1    3    3    0    0  0.56117023427E+01  0.82778090833E+01 -0.15089622284E+02  0.18103071551E+02  0.10570000000E+00 0.  1.
<mgrwt>
<rscale>  0 0.20002811E+02</rscale>
<asrwt>0</asrwt>
<pdfrwt beam="1">  1        2 0.46083777E-03 0.20002811E+02</pdfrwt>
<pdfrwt beam="2">  1       -2 0.51374463E-02 0.20002811E+02</pdfrwt>
<totfact> 0.35647207E+06</totfact>
</mgrwt>
</event>
<event>
 5    1  0.1607476E-006  0.2000272E+02  0.7818608E-02  0.1745274E+00
         -2   -1    0    0    0  501 -0.00000000000E+00  0.00000000000E+00  0.29776893142E+01  0.29776904493E+01  0.26000000000E-02 0.  1.
          2   -1    0    0  501    0  0.00000000000E+00 -0.00000000000E+00 -0.33592202293E+02  0.33592202393E+02  0.26000000000E-02 0. -1.
       1023    2    1    2    0    0  0.00000000000E+00  0.00000000000E+00 -0.30614512978E+02  0.36569892843E+02  0.20002716256E+02 0.  0.
        -13    1    3    3    0    0  0.99966075129E+01  0.26669937112E+00 -0.15513302310E+02  0.18457437833E+02  0.10570000000E+00 0.  1.
         13    1    3    3    0    0 -0.99966075129E+01 -0.26669937112E+00 -0.15101210669E+02  0.18112455009E+02  0.10570000000E+00 0. -1.
<mgrwt>
<rscale>  0 0.20002716E+02</rscale>
<asrwt>0</asrwt>
<pdfrwt beam="2">  1        2 0.51680309E-02 0.20002716E+02</pdfrwt>
<pdfrwt beam="1">  1       -2 0.45810617E-03 0.20002716E+02</pdfrwt>
<totfact> 0.43920532E+06</totfact>
</mgrwt>
</event>
<event>
 5    1  0.1607476E-006  0.2000321E+02  0.7818608E-02  0.1745264E+00
         -2   -1    0    0    0  501 -0.00000000000E+00  0.00000000000E+00  0.87228081757E+02  0.87228081796E+02  0.26000000000E-02 0.  1.
          2   -1    0    0  501    0  0.00000000000E+00 -0.00000000000E+00 -0.11467866734E+01  0.11467896208E+01  0.26000000000E-02 0. -1.
       1023    2    1    2    0    0  0.00000000000E+00  0.00000000000E+00  0.86081295083E+02  0.88374871417E+02  0.20003213108E+02 0.  0.
        -13    1    3    3    0    0 -0.13497911437E+00  0.99993992123E+01  0.43577346807E+02  0.44710206119E+02  0.10570000000E+00 0.  1.
         13    1    3    3    0    0  0.13497911437E+00 -0.99993992123E+01  0.42503948277E+02  0.43664665298E+02  0.10570000000E+00 0. -1.
<mgrwt>
<rscale>  0 0.20003213E+02</rscale>
<asrwt>0</asrwt>
<pdfrwt beam="2">  1        2 0.17642898E-03 0.20003213E+02</pdfrwt>
<pdfrwt beam="1">  1       -2 0.13419703E-01 0.20003213E+02</pdfrwt>
<totfact> 0.30677597E+06</totfact>
</mgrwt>
</event>
<event>
 5    1  0.1607476E-006  0.2000431E+02  0.7818608E-02  0.1745242E+00
          2   -1    0    0  501    0  0.00000000000E+00  0.00000000000E+00  0.45178942573E+01  0.45178950055E+01  0.26000000000E-02 0. -1.
         -2   -1    0    0    0  501 -0.00000000000E+00 -0.00000000000E+00 -0.22143742091E+02  0.22143742243E+02  0.26000000000E-02 0.  1.
       1023    2    1    2    0    0  0.00000000000E+00  0.00000000000E+00 -0.17625847833E+02  0.26661637249E+02  0.20004309259E+02 0.  0.
        -13    1    3    3    0    0 -0.14902978692E+01 -0.98894125705E+01 -0.86766394402E+01  0.13240721778E+02  0.10570000000E+00 0. -1.
         13    1    3    3    0    0  0.14902978692E+01  0.98894125705E+01 -0.89492083931E+01  0.13420915471E+02  0.10570000000E+00 0.  1.
<mgrwt>
<rscale>  0 0.20004309E+02</rscale>
<asrwt>0</asrwt>
<pdfrwt beam="1">  1        2 0.69506074E-03 0.20004309E+02</pdfrwt>
<pdfrwt beam="2">  1       -2 0.34067295E-02 0.20004309E+02</pdfrwt>
<totfact> 0.37093161E+06</totfact>
</mgrwt>
</event>
<event>
 5    1  0.1607476E-006  0.2000934E+02  0.7818608E-02  0.1745142E+00
         -2   -1    0    0    0  501 -0.00000000000E+00  0.00000000000E+00  0.64549356698E+02  0.64549356751E+02  0.26000000000E-02 0. -1.
          2   -1    0    0  501    0  0.00000000000E+00 -0.00000000000E+00 -0.15506486195E+01  0.15506507993E+01  0.26000000000E-02 0.  1.
       1023    2    1    2    0    0  0.00000000000E+00  0.00000000000E+00  0.62998708079E+02  0.66100007550E+02  0.20009342281E+02 0.  0.
        -13    1    3    3    0    0 -0.81659393655E+01 -0.57775773655E+01  0.31040349369E+02  0.32612534819E+02  0.10570000000E+00 0.  1.
         13    1    3    3    0    0  0.81659393655E+01  0.57775773655E+01  0.31958358710E+02  0.33487472731E+02  0.10570000000E+00 0. -1.
<mgrwt>
<rscale>  0 0.20009342E+02</rscale>
<asrwt>0</asrwt>
<pdfrwt beam="2">  1        2 0.23856150E-03 0.20009342E+02</pdfrwt>
<pdfrwt beam="1">  1       -2 0.99306704E-02 0.20009342E+02</pdfrwt>
<totfact> 0.32520858E+06</totfact>
</mgrwt>
</event>
<event>
 4    1  0.1607476E-006  0.2009070E+02  0.7818608E-02  0.1743530E+00
         -2   -1    0    0    0  501 -0.00000000000E+00  0.00000000000E+00  0.95365487778E+00  0.95365842203E+00  0.26000000000E-02 0. -1.
          2   -1    0    0  501    0  0.00000000000E+00 -0.00000000000E+00 -0.10581278326E+03  0.10581278329E+03  0.26000000000E-02 0.  1.
        -13    1    1    2    0    0  0.89813419582E+01 -0.44134361853E+01 -0.57047047984E+02  0.57918216293E+02  0.10570000000E+00 0.  1.
         13    1    1    2    0    0 -0.89813419582E+01  0.44134361853E+01 -0.47812080400E+02  0.48848225423E+02  0.10570000000E+00 0. -1.
<mgrwt>
<rscale>  0 0.20090701E+02</rscale>
<asrwt>0</asrwt>
<pdfrwt beam="2">  1        2 0.16278881E-01 0.20090701E+02</pdfrwt>
<pdfrwt beam="1">  1       -2 0.14671649E-03 0.20090701E+02</pdfrwt>
<totfact> 0.52917866E+06</totfact>
</mgrwt>
</event>
<event>
 4    1  0.1607476E-006  0.2672580E+02  0.7818608E-02  0.1637383E+00
         -2   -1    0    0    0  501 -0.00000000000E+00  0.00000000000E+00  0.36684682480E+01  0.36684691693E+01  0.26000000000E-02 0.  1.
          2   -1    0    0  501    0  0.00000000000E+00 -0.00000000000E+00 -0.48676181778E+02  0.48676181848E+02  0.26000000000E-02 0. -1.
        -13    1    1    2    0    0 -0.10668721972E+02  0.79785981109E+01 -0.20472000116E+02  0.24425265967E+02  0.10570000000E+00 0. -1.
         13    1    1    2    0    0  0.10668721972E+02 -0.79785981109E+01 -0.24535713414E+02  0.27919385050E+02  0.10570000000E+00 0.  1.
<mgrwt>
<rscale>  0 0.26725797E+02</rscale>
<asrwt>0</asrwt>
<pdfrwt beam="2">  1        2 0.74886430E-02 0.26725797E+02</pdfrwt>
<pdfrwt beam="1">  1       -2 0.56437984E-03 0.26725797E+02</pdfrwt>
<totfact> 0.23784761E+06</totfact>
</mgrwt>
</event>
<event>
 4    1  0.1607476E-006  0.2002554E+02  0.7818608E-02  0.1744821E+00
          2   -1    0    0  501    0  0.00000000000E+00  0.00000000000E+00  0.13581715911E+02  0.13581716160E+02  0.26000000000E-02 0. -1.
         -2   -1    0    0    0  501 -0.00000000000E+00 -0.00000000000E+00 -0.73816593235E+01  0.73816597814E+01  0.26000000000E-02 0.  1.
        -13    1    1    2    0    0 -0.92334503952E+01 -0.38540693069E+01  0.27168558651E+01  0.10368362200E+02  0.10570000000E+00 0. -1.
         13    1    1    2    0    0  0.92334503952E+01  0.38540693069E+01  0.34832007225E+01  0.10595013742E+02  0.10570000000E+00 0.  1.
<mgrwt>
<rscale>  0 0.20025544E+02</rscale>
<asrwt>0</asrwt>
<pdfrwt beam="1">  1        2 0.20894948E-02 0.20025544E+02</pdfrwt>
<pdfrwt beam="2">  1       -2 0.11356400E-02 0.20025544E+02</pdfrwt>
<totfact> 0.40259145E+06</totfact>
</mgrwt>
</event>
<event>
 5    1  0.1607476E-006  0.2000141E+02  0.7818608E-02  0.1745300E+00
          2   -1    0    0  501    0  0.00000000000E+00  0.00000000000E+00  0.18827135980E+01  0.18827153933E+01  0.26000000000E-02 0. -1.
         -2   -1    0    0    0  501 -0.00000000000E+00 -0.00000000000E+00 -0.53122271604E+02  0.53122271668E+02  0.26000000000E-02 0.  1.
       1023    2    1    2    0    0  0.00000000000E+00  0.00000000000E+00 -0.51239558006E+02  0.55004987061E+02  0.20001407374E+02 0.  0.
        -13    1    3    3    0    0  0.92347985487E+01 -0.38367987328E+01 -0.25672890803E+02  0.27551969501E+02  0.10570000000E+00 0. -1.
         13    1    3    3    0    0 -0.92347985487E+01  0.38367987328E+01 -0.25566667203E+02  0.27453017559E+02  0.10570000000E+00 0.  1.
<mgrwt>
<rscale>  0 0.20001407E+02</rscale>
<asrwt>0</asrwt>
<pdfrwt beam="1">  1        2 0.28964843E-03 0.20001407E+02</pdfrwt>
<pdfrwt beam="2">  1       -2 0.81726562E-02 0.20001407E+02</pdfrwt>
<totfact> 0.33592769E+06</totfact>
</mgrwt>
</event>
<event>
 5    1  0.1607476E-006  0.2000318E+02  0.7818608E-02  0.1745265E+00
         -2   -1    0    0    0  501 -0.00000000000E+00  0.00000000000E+00  0.26942157198E+02  0.26942157323E+02  0.26000000000E-02 0.  1.
          2   -1    0    0  501    0  0.00000000000E+00 -0.00000000000E+00 -0.37128360715E+01  0.37128369818E+01  0.26000000000E-02 0. -1.
       1023    2    1    2    0    0  0.00000000000E+00  0.00000000000E+00  0.23229321126E+02  0.30654994305E+02  0.20003182643E+02 0.  0.
        -13    1    3    3    0    0  0.95482778203E+01  0.29734337734E+01  0.11463425177E+02  0.15212896076E+02  0.10570000000E+00 0. -1.
         13    1    3    3    0    0 -0.95482778203E+01 -0.29734337734E+01  0.11765895949E+02  0.15442098229E+02  0.10570000000E+00 0.  1.
<mgrwt>
<rscale>  0 0.20003183E+02</rscale>
<asrwt>0</asrwt>
<pdfrwt beam="2">  1        2 0.57120560E-03 0.20003183E+02</pdfrwt>
<pdfrwt beam="1">  1       -2 0.41449476E-02 0.20003183E+02</pdfrwt>
<totfact> 0.36438415E+06</totfact>
</mgrwt>
</event>
<event>
 5    1  0.1607476E-006  0.2000147E+02  0.7818608E-02  0.1745299E+00
         -2   -1    0    0    0  501 -0.00000000000E+00  0.00000000000E+00  0.68904302039E+01  0.68904306945E+01  0.26000000000E-02 0. -1.
          2   -1    0    0  501    0  0.00000000000E+00 -0.00000000000E+00 -0.14515013993E+02  0.14515014225E+02  0.26000000000E-02 0.  1.
       1023    2    1    2    0    0  0.00000000000E+00  0.00000000000E+00 -0.76245837886E+01  0.21405444920E+02  0.20001469803E+02 0.  0.
        -13    1    3    3    0    0 -0.60538563656E+01  0.79595432007E+01 -0.38073623909E+01  0.10700966579E+02  0.10570000000E+00 0.  1.
         13    1    3    3    0    0  0.60538563656E+01 -0.79595432007E+01 -0.38172213976E+01  0.10704478341E+02  0.10570000000E+00 0. -1.
<mgrwt>
<rscale>  0 0.20001470E+02</rscale>
<asrwt>0</asrwt>
<pdfrwt beam="2">  1        2 0.22330791E-02 0.20001470E+02</pdfrwt>
<pdfrwt beam="1">  1       -2 0.10600662E-02 0.20001470E+02</pdfrwt>
<totfact> 0.40577742E+06</totfact>
</mgrwt>
</event>
<event>
 4    1  0.1607476E-006  0.2026152E+02  0.7818608E-02  0.1740177E+00
          2   -1    0    0  501    0  0.00000000000E+00  0.00000000000E+00  0.58016741793E+02  0.58016741851E+02  0.26000000000E-02 0. -1.
         -2   -1    0    0    0  501 -0.00000000000E+00 -0.00000000000E+00 -0.17690113127E+01  0.17690132234E+01  0.26000000000E-02 0.  1.
        -13    1    1    2    0    0 -0.87566080371E+01  0.48676798954E+01  0.32548609793E+02  0.34055772841E+02  0.10570000000E+00 0. -1.
         13    1    1    2    0    0  0.87566080371E+01 -0.48676798954E+01  0.23699120688E+02  0.25729982233E+02  0.10570000000E+00 0.  1.
<mgrwt>
<rscale>  0 0.20261523E+02</rscale>
<asrwt>0</asrwt>
<pdfrwt beam="1">  1        2 0.89256530E-02 0.20261523E+02</pdfrwt>
<pdfrwt beam="2">  1       -2 0.27215573E-03 0.20261523E+02</pdfrwt>
<totfact> 0.46078260E+06</totfact>
</mgrwt>
</event>
<event>
 5    1  0.1607476E-006  0.2000498E+02  0.7818608E-02  0.1745229E+00
          2   -1    0    0  501    0  0.00000000000E+00  0.00000000000E+00  0.38610240681E+02  0.38610240768E+02  0.26000000000E-02 0. -1.
         -2   -1    0    0    0  501 -0.00000000000E+00 -0.00000000000E+00 -0.25912755412E+01  0.25912768456E+01  0.26000000000E-02 0.  1.
       1023    2    1    2    0    0  0.00000000000E+00  0.00000000000E+00  0.36018965139E+02  0.41201517614E+02  0.20004979479E+02 0.  0.
        -13    1    3    3    0    0 -0.88561615413E+01  0.46480187872E+01  0.17897570165E+02  0.20502923357E+02  0.10570000000E+00 0.  1.
         13    1    3    3    0    0  0.88561615413E+01 -0.46480187872E+01  0.18121394975E+02  0.20698594257E+02  0.10570000000E+00 0. -1.
<mgrwt>
<rscale>  0 0.20004979E+02</rscale>
<asrwt>0</asrwt>
<pdfrwt beam="1">  1        2 0.59400371E-02 0.20004979E+02</pdfrwt>
<pdfrwt beam="2">  1       -2 0.39865789E-03 0.20004979E+02</pdfrwt>
<totfact> 0.44666227E+06</totfact>
</mgrwt>
</event>
<event>
 5    1  0.1607476E-006  0.2000374E+02  0.7818608E-02  0.1745254E+00
         -2   -1    0    0    0  501 -0.00000000000E+00  0.00000000000E+00  0.60598275422E+02  0.60598275477E+02  0.26000000000E-02 0. -1.
          2   -1    0    0  501    0  0.00000000000E+00 -0.00000000000E+00 -0.16508288027E+01  0.16508308501E+01  0.26000000000E-02 0.  1.
       1023    2    1    2    0    0  0.00000000000E+00  0.00000000000E+00  0.58947446619E+02  0.62249106327E+02  0.20003744042E+02 0.  0.
        -13    1    3    3    0    0 -0.82379300250E+01  0.56709689284E+01  0.29306382484E+02  0.30966088007E+02  0.10570000000E+00 0. -1.
         13    1    3    3    0    0  0.82379300250E+01 -0.56709689284E+01  0.29641064135E+02  0.31283018320E+02  0.10570000000E+00 0.  1.
<mgrwt>
<rscale>  0 0.20003744E+02</rscale>
<asrwt>0</asrwt>
<pdfrwt beam="2">  1        2 0.25397380E-03 0.20003744E+02</pdfrwt>
<pdfrwt beam="1">  1       -2 0.93228125E-02 0.20003744E+02</pdfrwt>
<totfact> 0.32892424E+06</totfact>
</mgrwt>
</event>
<event>
 4    1  0.1607476E-006  0.2001343E+02  0.7818608E-02  0.1745061E+00
         -2   -1    0    0    0  501 -0.00000000000E+00  0.00000000000E+00  0.11744121733E+03  0.11744121736E+03  0.26000000000E-02 0.  1.
          2   -1    0    0  501    0  0.00000000000E+00 -0.00000000000E+00 -0.85263200498E+00  0.85263596917E+00  0.26000000000E-02 0. -1.
        -13    1    1    2    0    0  0.21568466350E+01  0.97695259149E+01  0.57312680713E+02  0.58179465166E+02  0.10570000000E+00 0. -1.
         13    1    1    2    0    0 -0.21568466350E+01 -0.97695259149E+01  0.59275904609E+02  0.60114388159E+02  0.10570000000E+00 0.  1.
<mgrwt>
<rscale>  0 0.20013433E+02</rscale>
<asrwt>0</asrwt>
<pdfrwt beam="2">  1        2 0.13117453E-03 0.20013433E+02</pdfrwt>
<pdfrwt beam="1">  1       -2 0.18067871E-01 0.20013433E+02</pdfrwt>
<totfact> 0.28470399E+06</totfact>
</mgrwt>
</event>
<event>
 4    1  0.1607476E-006  0.2001659E+02  0.7818608E-02  0.1744998E+00
         -2   -1    0    0    0  501 -0.00000000000E+00  0.00000000000E+00  0.90215167929E+02  0.90215167966E+02  0.26000000000E-02 0.  1.
          2   -1    0    0  501    0  0.00000000000E+00 -0.00000000000E+00 -0.11102987725E+01  0.11103018167E+01  0.26000000000E-02 0. -1.
        -13    1    1    2    0    0 -0.34177583208E+01  0.94047571459E+01  0.43842244888E+02  0.44969813633E+02  0.10570000000E+00 0. -1.
         13    1    1    2    0    0  0.34177583208E+01 -0.94047571459E+01  0.45262624268E+02  0.46355656150E+02  0.10570000000E+00 0.  1.
<mgrwt>
<rscale>  0 0.20016586E+02</rscale>
<asrwt>0</asrwt>
<pdfrwt beam="2">  1        2 0.17081535E-03 0.20016586E+02</pdfrwt>
<pdfrwt beam="1">  1       -2 0.13879264E-01 0.20016586E+02</pdfrwt>
<totfact> 0.30403832E+06</totfact>
</mgrwt>
</event>
<event>
 4    1  0.1607476E-006  0.2008337E+02  0.7818608E-02  0.1743675E+00
          2   -1    0    0  501    0  0.00000000000E+00  0.00000000000E+00  0.67130964755E+01  0.67130969790E+01  0.26000000000E-02 0. -1.
         -2   -1    0    0    0  501 -0.00000000000E+00 -0.00000000000E+00 -0.15020705867E+02  0.15020706092E+02  0.26000000000E-02 0.  1.
        -13    1    1    2    0    0  0.11570691880E+01  0.99521332761E+01 -0.48720627906E+01  0.11141451170E+02  0.10570000000E+00 0.  1.
         13    1    1    2    0    0 -0.11570691880E+01 -0.99521332761E+01 -0.34355466006E+01  0.10592351901E+02  0.10570000000E+00 0. -1.
<mgrwt>
<rscale>  0 0.20083372E+02</rscale>
<asrwt>0</asrwt>
<pdfrwt beam="1">  1        2 0.10327841E-02 0.20083372E+02</pdfrwt>
<pdfrwt beam="2">  1       -2 0.23108779E-02 0.20083372E+02</pdfrwt>
<totfact> 0.37951139E+06</totfact>
</mgrwt>
</event>
<event>
 5    1  0.1607476E-006  0.2000238E+02  0.7818608E-02  0.1745281E+00
          2   -1    0    0  501    0  0.00000000000E+00  0.00000000000E+00  0.19151663265E+01  0.19151680913E+01  0.26000000000E-02 0.  1.
         -2   -1    0    0    0  501 -0.00000000000E+00 -0.00000000000E+00 -0.52227189883E+02  0.52227189948E+02  0.26000000000E-02 0. -1.
       1023    2    1    2    0    0  0.00000000000E+00  0.00000000000E+00 -0.50312023557E+02  0.54142358039E+02  0.20002380350E+02 0.  0.
        -13    1    3    3    0    0  0.46227881598E+01  0.88680466519E+01 -0.25116726932E+02  0.27034673404E+02  0.10570000000E+00 0.  1.
         13    1    3    3    0    0 -0.46227881598E+01 -0.88680466519E+01 -0.25195296625E+02  0.27107684636E+02  0.10570000000E+00 0. -1.
<mgrwt>
<rscale>  0 0.20002380E+02</rscale>
<asrwt>0</asrwt>
<pdfrwt beam="1">  1        2 0.29464115E-03 0.20002380E+02</pdfrwt>
<pdfrwt beam="2">  1       -2 0.80349513E-02 0.20002380E+02</pdfrwt>
<totfact> 0.33674615E+06</totfact>
</mgrwt>
</event>
<event>
 5    1  0.1607476E-006  0.2000457E+02  0.7818608E-02  0.1745237E+00
          2   -1    0    0  501    0  0.00000000000E+00  0.00000000000E+00  0.51372271866E+02  0.51372271932E+02  0.26000000000E-02 0.  1.
         -2   -1    0    0    0  501 -0.00000000000E+00 -0.00000000000E+00 -0.19474641803E+01  0.19474659159E+01  0.26000000000E-02 0. -1.
       1023    2    1    2    0    0  0.00000000000E+00  0.00000000000E+00  0.49424807686E+02  0.53319737848E+02  0.20004570212E+02 0.  0.
        -13    1    3    3    0    0  0.28099685432E+01  0.95975726947E+01  0.25135603496E+02  0.27052154451E+02  0.10570000000E+00 0. -1.
         13    1    3    3    0    0 -0.28099685432E+01 -0.95975726947E+01  0.24289204190E+02  0.26267583397E+02  0.10570000000E+00 0.  1.
<mgrwt>
<rscale>  0 0.20004570E+02</rscale>
<asrwt>0</asrwt>
<pdfrwt beam="1">  1        2 0.79034258E-02 0.20004570E+02</pdfrwt>
<pdfrwt beam="2">  1       -2 0.29961004E-03 0.20004570E+02</pdfrwt>
<totfact> 0.46495641E+06</totfact>
</mgrwt>
</event>
<event>
 5    1  0.1607476E-006  0.2000662E+02  0.7818608E-02  0.1745197E+00
          2   -1    0    0  501    0  0.00000000000E+00  0.00000000000E+00  0.97431085323E+02  0.97431085358E+02  0.26000000000E-02 0.  1.
         -2   -1    0    0    0  501 -0.00000000000E+00 -0.00000000000E+00 -0.10270438614E+01  0.10270471524E+01  0.26000000000E-02 0. -1.
       1023    2    1    2    0    0  0.00000000000E+00  0.00000000000E+00  0.96404041462E+02  0.98458132511E+02  0.20006615087E+02 0.  0.
        -13    1    3    3    0    0  0.99796799814E+01  0.67356362227E+00  0.47781868069E+02  0.48817679064E+02  0.10570000000E+00 0. -1.
         13    1    3    3    0    0 -0.99796799814E+01 -0.67356362227E+00  0.48622173393E+02  0.49640453447E+02  0.10570000000E+00 0.  1.
<mgrwt>
<rscale>  0 0.20006615E+02</rscale>
<asrwt>0</asrwt>
<pdfrwt beam="1">  1        2 0.14989400E-01 0.20006615E+02</pdfrwt>
<pdfrwt beam="2">  1       -2 0.15800699E-03 0.20006615E+02</pdfrwt>
<totfact> 0.52411033E+06</totfact>
</mgrwt>
</event>
<event>
 5    1  0.1681980E-006  0.2000210E+02  0.7818608E-02  0.1745286E+00
          2   -1    0    0  501    0  0.00000000000E+00  0.00000000000E+00  0.20765902214E+02  0.20765902377E+02  0.26000000000E-02 0. -1.
         -2   -1    0    0    0  501 -0.00000000000E+00 -0.00000000000E+00 -0.48165993910E+01  0.48166000927E+01  0.26000000000E-02 0.  1.
       1023    2    1    2    0    0  0.00000000000E+00  0.00000000000E+00  0.15949302823E+02  0.25582502470E+02  0.20002104191E+02 0.  0.
        -13    1    3    3    0    0 -0.82401999544E+01 -0.56657687545E+01  0.78599718265E+01  0.12719754733E+02  0.10570000000E+00 0. -1.
         13    1    3    3    0    0  0.82401999544E+01  0.56657687545E+01  0.80893309967E+01  0.12862747736E+02  0.10570000000E+00 0.  1.
<mgrwt>
<rscale>  0 0.20002104E+02</rscale>
<asrwt>0</asrwt>
<pdfrwt beam="1">  1        2 0.31947543E-02 0.20002104E+02</pdfrwt>
<pdfrwt beam="2">  1       -2 0.74101535E-03 0.20002104E+02</pdfrwt>
<totfact> 0.41808042E+06</totfact>
</mgrwt>
</event>
<event>
 4    1  0.1607476E-006  0.2001457E+02  0.7818608E-02  0.1745038E+00
          2   -1    0    0  501    0  0.00000000000E+00  0.00000000000E+00  0.95192188098E+00  0.95192543169E+00  0.26000000000E-02 0. -1.
         -2   -1    0    0    0  501 -0.00000000000E+00 -0.00000000000E+00 -0.10520358616E+03  0.10520358619E+03  0.26000000000E-02 0.  1.
        -13    1    1    2    0    0  0.76584519385E+01  0.64406592020E+01 -0.52259618387E+02  0.53209142668E+02  0.10570000000E+00 0. -1.
         13    1    1    2    0    0 -0.76584519385E+01 -0.64406592020E+01 -0.51992045894E+02  0.52946368958E+02  0.10570000000E+00 0.  1.
<mgrwt>
<rscale>  0 0.20014573E+02</rscale>
<asrwt>0</asrwt>
<pdfrwt beam="1">  1        2 0.14644988E-03 0.20014573E+02</pdfrwt>
<pdfrwt beam="2">  1       -2 0.16185158E-01 0.20014573E+02</pdfrwt>
<totfact> 0.29310533E+06</totfact>
</mgrwt>
</event>
<event>
 5    1  0.1607476E-006  0.2000339E+02  0.7818608E-02  0.1745261E+00
         -2   -1    0    0    0  501 -0.00000000000E+00  0.00000000000E+00  0.60653816734E+01  0.60653822307E+01  0.26000000000E-02 0. -1.
          2   -1    0    0  501    0  0.00000000000E+00 -0.00000000000E+00 -0.16492589517E+02  0.16492589722E+02  0.26000000000E-02 0.  1.
       1023    2    1    2    0    0  0.00000000000E+00  0.00000000000E+00 -0.10427207844E+02  0.22557971953E+02  0.20003385594E+02 0.  0.
        -13    1    3    3    0    0 -0.99845033744E+01  0.57077852568E+00 -0.53051537448E+01  0.11321304011E+02  0.10570000000E+00 0.  1.
         13    1    3    3    0    0  0.99845033744E+01 -0.57077852568E+00 -0.51220540992E+01  0.11236667942E+02  0.10570000000E+00 0. -1.
<mgrwt>
<rscale>  0 0.20003386E+02</rscale>
<asrwt>0</asrwt>
<pdfrwt beam="2">  1        2 0.25373215E-02 0.20003386E+02</pdfrwt>
<pdfrwt beam="1">  1       -2 0.93313571E-03 0.20003386E+02</pdfrwt>
<totfact> 0.40985265E+06</totfact>
</mgrwt>
</event>
<event>
 5    1  0.1655294E-006  0.2000124E+02  0.7818608E-02  0.1745303E+00
         -2   -1    0    0    0  501 -0.00000000000E+00  0.00000000000E+00  0.14773631078E+01  0.14773653956E+01  0.26000000000E-02 0. -1.
          2   -1    0    0  501    0  0.00000000000E+00 -0.00000000000E+00 -0.67696507017E+02  0.67696507067E+02  0.26000000000E-02 0.  1.
       1023    2    1    2    0    0  0.00000000000E+00  0.00000000000E+00 -0.66219143909E+02  0.69173872462E+02  0.20001240246E+02 0.  0.
        -13    1    3    3    0    0 -0.43207573933E+01 -0.90183810599E+01 -0.33223699929E+02  0.34696189285E+02  0.10570000000E+00 0. -1.
         13    1    3    3    0    0  0.43207573933E+01  0.90183810599E+01 -0.32995443979E+02  0.34477683177E+02  0.10570000000E+00 0.  1.
<mgrwt>
<rscale>  0 0.20001240E+02</rscale>
<asrwt>0</asrwt>
<pdfrwt beam="2">  1        2 0.10414845E-01 0.20001240E+02</pdfrwt>
<pdfrwt beam="1">  1       -2 0.22728686E-03 0.20001240E+02</pdfrwt>
<totfact> 0.48712477E+06</totfact>
</mgrwt>
</event>
<event>
 5    1  0.1607476E-006  0.2000376E+02  0.7818608E-02  0.1745253E+00
         -2   -1    0    0    0  501 -0.00000000000E+00  0.00000000000E+00  0.56173928031E+01  0.56173934048E+01  0.26000000000E-02 0.  1.
          2   -1    0    0  501    0  0.00000000000E+00 -0.00000000000E+00 -0.17808552105E+02  0.17808552295E+02  0.26000000000E-02 0. -1.
       1023    2    1    2    0    0  0.00000000000E+00  0.00000000000E+00 -0.12191159302E+02  0.23425945700E+02  0.20003763816E+02 0.  0.
        -13    1    3    3    0    0  0.89256823208E+01  0.45114485902E+01 -0.60087623530E+01  0.11667792027E+02  0.10570000000E+00 0. -1.
         13    1    3    3    0    0 -0.89256823208E+01 -0.45114485902E+01 -0.61823969494E+01  0.11758153673E+02  0.10570000000E+00 0.  1.
<mgrwt>
<rscale>  0 0.20003764E+02</rscale>
<asrwt>0</asrwt>
<pdfrwt beam="2">  1        2 0.27397773E-02 0.20003764E+02</pdfrwt>
<pdfrwt beam="1">  1       -2 0.86421435E-03 0.20003764E+02</pdfrwt>
<totfact> 0.41245295E+06</totfact>
</mgrwt>
</event>
<event>
 5    1  0.1607476E-006  0.2000895E+02  0.7818608E-02  0.1745150E+00
          2   -1    0    0  501    0  0.00000000000E+00  0.00000000000E+00  0.94798959708E+01  0.94798963273E+01  0.26000000000E-02 0. -1.
         -2   -1    0    0    0  501 -0.00000000000E+00 -0.00000000000E+00 -0.10558081759E+02  0.10558082079E+02  0.26000000000E-02 0.  1.
       1023    2    1    2    0    0  0.00000000000E+00  0.00000000000E+00 -0.10781857883E+01  0.20037978407E+02  0.20008950348E+02 0.  0.
        -13    1    3    3    0    0  0.98785074577E+01  0.15565530389E+01 -0.27303085027E+00  0.10004673173E+02  0.10570000000E+00 0. -1.
         13    1    3    3    0    0 -0.98785074577E+01 -0.15565530389E+01 -0.80515493798E+00  0.10033305234E+02  0.10570000000E+00 0.  1.
<mgrwt>
<rscale>  0 0.20008950E+02</rscale>
<asrwt>0</asrwt>
<pdfrwt beam="1">  1        2 0.14584456E-02 0.20008950E+02</pdfrwt>
<pdfrwt beam="2">  1       -2 0.16243203E-02 0.20008950E+02</pdfrwt>
<totfact> 0.39268978E+06</totfact>
</mgrwt>
</event>
<event>
 5    1  0.1607476E-006  0.2000488E+02  0.7818608E-02  0.1745231E+00
          2   -1    0    0  501    0  0.00000000000E+00  0.00000000000E+00  0.92592623036E+01  0.92592626687E+01  0.26000000000E-02 0.  1.
         -2   -1    0    0    0  501 -0.00000000000E+00 -0.00000000000E+00 -0.10805267720E+02  0.10805268033E+02  0.26000000000E-02 0. -1.
       1023    2    1    2    0    0  0.00000000000E+00  0.00000000000E+00 -0.15460054161E+01  0.20064530701E+02  0.20004880892E+02 0.  0.
        -13    1    3    3    0    0 -0.50906739448E+01  0.86076043948E+01 -0.59406739027E+00  0.10018478087E+02  0.10570000000E+00 0.  1.
         13    1    3    3    0    0  0.50906739448E+01 -0.86076043948E+01 -0.95193802583E+00  0.10046052614E+02  0.10570000000E+00 0. -1.
<mgrwt>
<rscale>  0 0.20004881E+02</rscale>
<asrwt>0</asrwt>
<pdfrwt beam="1">  1        2 0.14245019E-02 0.20004881E+02</pdfrwt>
<pdfrwt beam="2">  1       -2 0.16623489E-02 0.20004881E+02</pdfrwt>
<totfact> 0.39219649E+06</totfact>
</mgrwt>
</event>
<event>
 5    1  0.1625435E-006  0.2000181E+02  0.7818608E-02  0.1745292E+00
          2   -1    0    0  501    0  0.00000000000E+00  0.00000000000E+00  0.10140701437E+03  0.10140701441E+03  0.26000000000E-02 0. -1.
         -2   -1    0    0    0  501 -0.00000000000E+00 -0.00000000000E+00 -0.98630217358E+00  0.98630560051E+00  0.26000000000E-02 0.  1.
       1023    2    1    2    0    0  0.00000000000E+00  0.00000000000E+00  0.10042071220E+03  0.10239332001E+03  0.20001813502E+02 0.  0.
        -13    1    3    3    0    0 -0.96592779340E+01 -0.25891527062E+01  0.50415214744E+02  0.51397572045E+02  0.10570000000E+00 0. -1.
         13    1    3    3    0    0  0.96592779340E+01  0.25891527062E+01  0.50005497456E+02  0.50995747963E+02  0.10570000000E+00 0.  1.
<mgrwt>
<rscale>  0 0.20001814E+02</rscale>
<asrwt>0</asrwt>
<pdfrwt beam="1">  1        2 0.15601079E-01 0.20001814E+02</pdfrwt>
<pdfrwt beam="2">  1       -2 0.15173907E-03 0.20001814E+02</pdfrwt>
<totfact> 0.52915556E+06</totfact>
</mgrwt>
</event>
<event>
 4    1  0.1607476E-006  0.2002928E+02  0.7818608E-02  0.1744746E+00
         -2   -1    0    0    0  501 -0.00000000000E+00  0.00000000000E+00  0.69716089268E+01  0.69716094116E+01  0.26000000000E-02 0.  1.
          2   -1    0    0  501    0  0.00000000000E+00 -0.00000000000E+00 -0.14385920799E+02  0.14385921034E+02  0.26000000000E-02 0. -1.
        -13    1    1    2    0    0 -0.15804838503E+01 -0.98845683337E+01 -0.34070137860E+01  0.10574570241E+02  0.10570000000E+00 0.  1.
         13    1    1    2    0    0  0.15804838503E+01  0.98845683337E+01 -0.40072980863E+01  0.10782960205E+02  0.10570000000E+00 0. -1.
<mgrwt>
<rscale>  0 0.20029281E+02</rscale>
<asrwt>0</asrwt>
<pdfrwt beam="2">  1        2 0.22132186E-02 0.20029281E+02</pdfrwt>
<pdfrwt beam="1">  1       -2 0.10725553E-02 0.20029281E+02</pdfrwt>
<totfact> 0.40421904E+06</totfact>
</mgrwt>
</event>
<event>
 5    1  0.1607476E-006  0.2000432E+02  0.7818608E-02  0.1745242E+00
         -2   -1    0    0    0  501 -0.00000000000E+00  0.00000000000E+00  0.21540432061E+02  0.21540432218E+02  0.26000000000E-02 0. -1.
          2   -1    0    0  501    0  0.00000000000E+00 -0.00000000000E+00 -0.46444373942E+01  0.46444381219E+01  0.26000000000E-02 0.  1.
       1023    2    1    2    0    0  0.00000000000E+00  0.00000000000E+00  0.16895994667E+02  0.26184870340E+02  0.20004319507E+02 0.  0.
        -13    1    3    3    0    0  0.69314502882E+01  0.72101970230E+01  0.84599249663E+01  0.13100131569E+02  0.10570000000E+00 0. -1.
         13    1    3    3    0    0 -0.69314502882E+01 -0.72101970230E+01  0.84360697005E+01  0.13084738770E+02  0.10570000000E+00 0.  1.
<mgrwt>
<rscale>  0 0.20004320E+02</rscale>
<asrwt>0</asrwt>
<pdfrwt beam="2">  1        2 0.71452889E-03 0.20004320E+02</pdfrwt>
<pdfrwt beam="1">  1       -2 0.33139127E-02 0.20004320E+02</pdfrwt>
<totfact> 0.37181945E+06</totfact>
</mgrwt>
</event>
<event>
 5    1  0.1607476E-006  0.2000546E+02  0.7818608E-02  0.1745219E+00
         -2   -1    0    0    0  501 -0.00000000000E+00  0.00000000000E+00  0.81184289773E+02  0.81184289815E+02  0.26000000000E-02 0. -1.
          2   -1    0    0  501    0  0.00000000000E+00 -0.00000000000E+00 -0.12324370264E+01  0.12324397689E+01  0.26000000000E-02 0.  1.
       1023    2    1    2    0    0  0.00000000000E+00  0.00000000000E+00  0.79951852747E+02  0.82416729583E+02  0.20005463194E+02 0.  0.
        -13    1    3    3    0    0  0.45622353900E+01  0.89006471536E+01  0.40343376153E+02  0.41564825074E+02  0.10570000000E+00 0. -1.
         13    1    3    3    0    0 -0.45622353900E+01 -0.89006471536E+01  0.39608476593E+02  0.40851904509E+02  0.10570000000E+00 0.  1.
<mgrwt>
<rscale>  0 0.20005463E+02</rscale>
<asrwt>0</asrwt>
<pdfrwt beam="2">  1        2 0.18960587E-03 0.20005463E+02</pdfrwt>
<pdfrwt beam="1">  1       -2 0.12489894E-01 0.20005463E+02</pdfrwt>
<totfact> 0.31144544E+06</totfact>
</mgrwt>
</event>
<event>
 4    1  0.1607476E-006  0.2041637E+02  0.7818608E-02  0.1737173E+00
         -2   -1    0    0    0  501 -0.00000000000E+00  0.00000000000E+00  0.32860073372E+02  0.32860073475E+02  0.26000000000E-02 0.  1.
          2   -1    0    0  501    0  0.00000000000E+00 -0.00000000000E+00 -0.31712352999E+01  0.31712363657E+01  0.26000000000E-02 0. -1.
        -13    1    1    2    0    0  0.22324875683E+01 -0.98902749496E+01  0.16928357554E+02  0.19732764664E+02  0.10570000000E+00 0.  1.
         13    1    1    2    0    0 -0.22324875683E+01  0.98902749496E+01  0.12760480517E+02  0.16298545176E+02  0.10570000000E+00 0. -1.
<mgrwt>
<rscale>  0 0.20416370E+02</rscale>
<asrwt>0</asrwt>
<pdfrwt beam="2">  1        2 0.48788243E-03 0.20416370E+02</pdfrwt>
<pdfrwt beam="1">  1       -2 0.50553961E-02 0.20416370E+02</pdfrwt>
<totfact> 0.34147247E+06</totfact>
</mgrwt>
</event>
<event>
 5    1  0.1607476E-006  0.2000548E+02  0.7818608E-02  0.1745219E+00
          2   -1    0    0  501    0  0.00000000000E+00  0.00000000000E+00  0.68384454193E+01  0.68384459136E+01  0.26000000000E-02 0.  1.
         -2   -1    0    0    0  501 -0.00000000000E+00 -0.00000000000E+00 -0.14631225123E+02  0.14631225354E+02  0.26000000000E-02 0. -1.
       1023    2    1    2    0    0  0.00000000000E+00  0.00000000000E+00 -0.77927797034E+01  0.21469671267E+02  0.20005483469E+02 0.  0.
        -13    1    3    3    0    0  0.98946712121E+01 -0.14543119913E+01 -0.37296894761E+01  0.10674328918E+02  0.10570000000E+00 0.  1.
         13    1    3    3    0    0 -0.98946712121E+01  0.14543119913E+01 -0.40630902273E+01  0.10795342350E+02  0.10570000000E+00 0. -1.
<mgrwt>
<rscale>  0 0.20005483E+02</rscale>
<asrwt>0</asrwt>
<pdfrwt beam="1">  1        2 0.10520686E-02 0.20005483E+02</pdfrwt>
<pdfrwt beam="2">  1       -2 0.22509578E-02 0.20005483E+02</pdfrwt>
<totfact> 0.38347284E+06</totfact>
</mgrwt>
</event>
<event>
 5    1  0.1607476E-006  0.2000196E+02  0.7818608E-02  0.1745289E+00
          2   -1    0    0  501    0  0.00000000000E+00  0.00000000000E+00  0.22142119467E+01  0.22142134732E+01  0.26000000000E-02 0.  1.
         -2   -1    0    0    0  501 -0.00000000000E+00 -0.00000000000E+00 -0.45171611510E+02  0.45171611585E+02  0.26000000000E-02 0. -1.
       1023    2    1    2    0    0  0.00000000000E+00  0.00000000000E+00 -0.42957399564E+02  0.47385825058E+02  0.20001955884E+02 0.  0.
        -13    1    3    3    0    0  0.59116182235E+01  0.80656129385E+01 -0.21677548635E+02  0.23873178033E+02  0.10570000000E+00 0.  1.
         13    1    3    3    0    0 -0.59116182235E+01 -0.80656129385E+01 -0.21279850929E+02  0.23512647025E+02  0.10570000000E+00 0. -1.
<mgrwt>
<rscale>  0 0.20001956E+02</rscale>
<asrwt>0</asrwt>
<pdfrwt beam="1">  1        2 0.34064815E-03 0.20001956E+02</pdfrwt>
<pdfrwt beam="2">  1       -2 0.69494781E-02 0.20001956E+02</pdfrwt>
<totfact> 0.34372499E+06</totfact>
</mgrwt>
</event>
<event>
 5    1  0.2598710E-006  0.2000257E+02  0.7818608E-02  0.1745277E+00
          2   -1    0    0  501    0  0.00000000000E+00  0.00000000000E+00  0.11394904927E+03  0.11394904930E+03  0.26000000000E-02 0. -1.
         -2   -1    0    0    0  501 -0.00000000000E+00 -0.00000000000E+00 -0.87780871846E+00  0.87781256895E+00  0.26000000000E-02 0.  1.
       1023    2    1    2    0    0  0.00000000000E+00  0.00000000000E+00  0.11307124055E+03  0.11482686187E+03  0.20002569003E+02 0.  0.
        -13    1    3    3    0    0 -0.29245380478E+01 -0.95628284647E+01  0.57212626165E+02  0.58080085884E+02  0.10570000000E+00 0. -1.
         13    1    3    3    0    0  0.29245380478E+01  0.95628284647E+01  0.55858614385E+02  0.56746775984E+02  0.10570000000E+00 0.  1.
<mgrwt>
<rscale>  0 0.20002569E+02</rscale>
<asrwt>0</asrwt>
<pdfrwt beam="1">  1        2 0.17530608E-01 0.20002569E+02</pdfrwt>
<pdfrwt beam="2">  1       -2 0.13504791E-03 0.20002569E+02</pdfrwt>
<totfact> 0.54382658E+06</totfact>
</mgrwt>
</event>
<event>
 5    1  0.1607476E-006  0.2000154E+02  0.7818608E-02  0.1745298E+00
         -2   -1    0    0    0  501 -0.00000000000E+00  0.00000000000E+00  0.22447396501E+01  0.22447411558E+01  0.26000000000E-02 0.  1.
          2   -1    0    0  501    0  0.00000000000E+00 -0.00000000000E+00 -0.44555421627E+02  0.44555421703E+02  0.26000000000E-02 0. -1.
       1023    2    1    2    0    0  0.00000000000E+00  0.00000000000E+00 -0.42310681977E+02  0.46800162859E+02  0.20001535797E+02 0.  0.
        -13    1    3    3    0    0 -0.70175832902E+01  0.71242727606E+01 -0.21271120384E+02  0.23504754253E+02  0.10570000000E+00 0. -1.
         13    1    3    3    0    0  0.70175832902E+01 -0.71242727606E+01 -0.21039561593E+02  0.23295408606E+02  0.10570000000E+00 0.  1.
<mgrwt>
<rscale>  0 0.20001536E+02</rscale>
<asrwt>0</asrwt>
<pdfrwt beam="2">  1        2 0.68546797E-02 0.20001536E+02</pdfrwt>
<pdfrwt beam="1">  1       -2 0.34534472E-03 0.20001536E+02</pdfrwt>
<totfact> 0.45549835E+06</totfact>
</mgrwt>
</event>
<event>
 4    1  0.1607476E-006  0.2005139E+02  0.7818608E-02  0.1744308E+00
          2   -1    0    0  501    0  0.00000000000E+00  0.00000000000E+00  0.60085466482E+02  0.60085466538E+02  0.26000000000E-02 0. -1.
         -2   -1    0    0    0  501 -0.00000000000E+00 -0.00000000000E+00 -0.16728580158E+01  0.16728600363E+01  0.26000000000E-02 0.  1.
        -13    1    1    2    0    0  0.99482248778E+01 -0.11408850845E+01  0.27714651223E+02  0.29468319632E+02  0.10570000000E+00 0. -1.
         13    1    1    2    0    0 -0.99482248778E+01  0.11408850845E+01  0.30697957243E+02  0.32290006943E+02  0.10570000000E+00 0.  1.
<mgrwt>
<rscale>  0 0.20051386E+02</rscale>
<asrwt>0</asrwt>
<pdfrwt beam="1">  1        2 0.92439193E-02 0.20051386E+02</pdfrwt>
<pdfrwt beam="2">  1       -2 0.25736290E-03 0.20051386E+02</pdfrwt>
<totfact> 0.47437929E+06</totfact>
</mgrwt>
</event>
<event>
 5    1  0.1607476E-006  0.2000745E+02  0.7818608E-02  0.1745180E+00
         -2   -1    0    0    0  501 -0.00000000000E+00  0.00000000000E+00  0.10698784926E+02  0.10698785242E+02  0.26000000000E-02 0. -1.
          2   -1    0    0  501    0  0.00000000000E+00 -0.00000000000E+00 -0.93538234653E+01  0.93538238267E+01  0.26000000000E-02 0.  1.
       1023    2    1    2    0    0  0.00000000000E+00  0.00000000000E+00  0.13449614606E+01  0.20052609069E+02  0.20007453839E+02 0.  0.
        -13    1    3    3    0    0  0.49761721562E+01 -0.86762569917E+01  0.51833153969E+00  0.10015965495E+02  0.10570000000E+00 0. -1.
         13    1    3    3    0    0 -0.49761721562E+01  0.86762569917E+01  0.82662992090E+00  0.10036643574E+02  0.10570000000E+00 0.  1.
<mgrwt>
<rscale>  0 0.20007454E+02</rscale>
<asrwt>0</asrwt>
<pdfrwt beam="2">  1        2 0.14390498E-02 0.20007454E+02</pdfrwt>
<pdfrwt beam="1">  1       -2 0.16459670E-02 0.20007454E+02</pdfrwt>
<totfact> 0.39237254E+06</totfact>
</mgrwt>
</event>
<event>
 4    1  0.1607476E-006  0.2017477E+02  0.7818608E-02  0.1741875E+00
          2   -1    0    0  501    0  0.00000000000E+00  0.00000000000E+00  0.10092713496E+03  0.10092713499E+03  0.26000000000E-02 0. -1.
         -2   -1    0    0    0  501 -0.00000000000E+00 -0.00000000000E+00 -0.10082040064E+01  0.10082073589E+01  0.26000000000E-02 0.  1.
        -13    1    1    2    0    0  0.96106332951E+01 -0.30581649949E+01  0.50797292692E+02  0.51788925098E+02  0.10570000000E+00 0.  1.
         13    1    1    2    0    0 -0.96106332951E+01  0.30581649949E+01  0.49121638262E+02  0.50146417255E+02  0.10570000000E+00 0. -1.
<mgrwt>
<rscale>  0 0.20174768E+02</rscale>
<asrwt>0</asrwt>
<pdfrwt beam="1">  1        2 0.15527254E-01 0.20174768E+02</pdfrwt>
<pdfrwt beam="2">  1       -2 0.15510855E-03 0.20174768E+02</pdfrwt>
<totfact> 0.51862829E+06</totfact>
</mgrwt>
</event>
<event>
 5    1  0.1607476E-006  0.2000296E+02  0.7818608E-02  0.1745269E+00
         -2   -1    0    0    0  501 -0.00000000000E+00  0.00000000000E+00  0.15177813728E+02  0.15177813950E+02  0.26000000000E-02 0. -1.
          2   -1    0    0  501    0  0.00000000000E+00 -0.00000000000E+00 -0.65905162139E+01  0.65905167267E+01  0.26000000000E-02 0.  1.
       1023    2    1    2    0    0  0.00000000000E+00  0.00000000000E+00  0.85872975138E+01  0.21768330677E+02  0.20002963327E+02 0.  0.
        -13    1    3    3    0    0  0.97979852221E+01 -0.20030393606E+01  0.43763982924E+01  0.10916808856E+02  0.10570000000E+00 0. -1.
         13    1    3    3    0    0 -0.97979852221E+01  0.20030393606E+01  0.42108992215E+01  0.10851521821E+02  0.10570000000E+00 0.  1.
<mgrwt>
<rscale>  0 0.20002963E+02</rscale>
<asrwt>0</asrwt>
<pdfrwt beam="2">  1        2 0.10139256E-02 0.20002963E+02</pdfrwt>
<pdfrwt beam="1">  1       -2 0.23350483E-02 0.20002963E+02</pdfrwt>
<totfact> 0.38251059E+06</totfact>
</mgrwt>
</event>
<event>
 5    1  0.1607476E-006  0.2000660E+02  0.7818608E-02  0.1745197E+00
         -2   -1    0    0    0  501 -0.00000000000E+00  0.00000000000E+00  0.62743969687E+01  0.62743975074E+01  0.26000000000E-02 0. -1.
          2   -1    0    0  501    0  0.00000000000E+00 -0.00000000000E+00 -0.15948304878E+02  0.15948305090E+02  0.26000000000E-02 0.  1.
       1023    2    1    2    0    0  0.00000000000E+00  0.00000000000E+00 -0.96739079091E+01  0.22222702597E+02  0.20006599323E+02 0.  0.
        -13    1    3    3    0    0  0.42311689246E+01  0.90633802722E+01 -0.49310695827E+01  0.11152321379E+02  0.10570000000E+00 0. -1.
         13    1    3    3    0    0 -0.42311689246E+01 -0.90633802722E+01 -0.47428383264E+01  0.11070381218E+02  0.10570000000E+00 0.  1.
<mgrwt>
<rscale>  0 0.20006599E+02</rscale>
<asrwt>0</asrwt>
<pdfrwt beam="2">  1        2 0.24535854E-02 0.20006599E+02</pdfrwt>
<pdfrwt beam="1">  1       -2 0.96529190E-03 0.20006599E+02</pdfrwt>
<totfact> 0.40858850E+06</totfact>
</mgrwt>
</event>
<event>
 4    1  0.1607476E-006  0.2002280E+02  0.7818608E-02  0.1744875E+00
          2   -1    0    0  501    0  0.00000000000E+00  0.00000000000E+00  0.55527563375E+02  0.55527563436E+02  0.26000000000E-02 0.  1.
         -2   -1    0    0    0  501 -0.00000000000E+00 -0.00000000000E+00 -0.18050156079E+01  0.18050174804E+01  0.26000000000E-02 0. -1.
        -13    1    1    2    0    0 -0.55627208412E+01 -0.83214227247E+01  0.26390233754E+02  0.28224910087E+02  0.10570000000E+00 0.  1.
         13    1    1    2    0    0  0.55627208412E+01  0.83214227247E+01  0.27332314013E+02  0.29107670829E+02  0.10570000000E+00 0. -1.
<mgrwt>
<rscale>  0 0.20022804E+02</rscale>
<asrwt>0</asrwt>
<pdfrwt beam="1">  1        2 0.85427023E-02 0.20022804E+02</pdfrwt>
<pdfrwt beam="2">  1       -2 0.27769486E-03 0.20022804E+02</pdfrwt>
<totfact> 0.46972388E+06</totfact>
</mgrwt>
</event>
<event>
 5    1  0.1607476E-006  0.2000316E+02  0.7818608E-02  0.1745265E+00
          2   -1    0    0  501    0  0.00000000000E+00  0.00000000000E+00  0.13973267553E+01  0.13973291742E+01  0.26000000000E-02 0. -1.
         -2   -1    0    0    0  501 -0.00000000000E+00 -0.00000000000E+00 -0.71587759016E+02  0.71587759064E+02  0.26000000000E-02 0.  1.
       1023    2    1    2    0    0  0.00000000000E+00  0.00000000000E+00 -0.70190432261E+02  0.72985088238E+02  0.20003157853E+02 0.  0.
        -13    1    3    3    0    0 -0.83881851596E+01  0.54456793354E+01 -0.35305920105E+02  0.36695180073E+02  0.10570000000E+00 0.  1.
         13    1    3    3    0    0  0.83881851596E+01 -0.54456793354E+01 -0.34884512157E+02  0.36289908164E+02  0.10570000000E+00 0. -1.
<mgrwt>
<rscale>  0 0.20003158E+02</rscale>
<asrwt>0</asrwt>
<pdfrwt beam="1">  1        2 0.21497359E-03 0.20003158E+02</pdfrwt>
<pdfrwt beam="2">  1       -2 0.11013499E-01 0.20003158E+02</pdfrwt>
<totfact> 0.31938007E+06</totfact>
</mgrwt>
</event>
<event>
 5    1  0.1607476E-006  0.2000986E+02  0.7818608E-02  0.1745132E+00
          2   -1    0    0  501    0  0.00000000000E+00  0.00000000000E+00  0.21300568690E+01  0.21300584558E+01  0.26000000000E-02 0. -1.
         -2   -1    0    0    0  501 -0.00000000000E+00 -0.00000000000E+00 -0.46993382682E+02  0.46993382753E+02  0.26000000000E-02 0.  1.
       1023    2    1    2    0    0  0.00000000000E+00  0.00000000000E+00 -0.44863325813E+02  0.49123441209E+02  0.20009859402E+02 0.  0.
        -13    1    3    3    0    0  0.93863773681E+00  0.99577710907E+01 -0.22976199410E+02  0.25059033456E+02  0.10570000000E+00 0.  1.
         13    1    3    3    0    0 -0.93863773681E+00 -0.99577710907E+01 -0.21887126402E+02  0.24064407754E+02  0.10570000000E+00 0. -1.
<mgrwt>
<rscale>  0 0.20009859E+02</rscale>
<asrwt>0</asrwt>
<pdfrwt beam="1">  1        2 0.32770122E-03 0.20009859E+02</pdfrwt>
<pdfrwt beam="2">  1       -2 0.72297505E-02 0.20009859E+02</pdfrwt>
<totfact> 0.34159041E+06</totfact>
</mgrwt>
</event>
<event>
 5    1  0.1607476E-006  0.2001083E+02  0.7818608E-02  0.1745113E+00
          2   -1    0    0  501    0  0.00000000000E+00  0.00000000000E+00  0.23162345747E+02  0.23162345892E+02  0.26000000000E-02 0.  1.
         -2   -1    0    0    0  501 -0.00000000000E+00 -0.00000000000E+00 -0.43220300877E+01  0.43220308697E+01  0.26000000000E-02 0. -1.
       1023    2    1    2    0    0  0.00000000000E+00  0.00000000000E+00  0.18840315659E+02  0.27484376762E+02  0.20010833863E+02 0.  0.
        -13    1    3    3    0    0 -0.70822283438E+00  0.99785809668E+01  0.92094389224E+01  0.13597742292E+02  0.10570000000E+00 0. -1.
         13    1    3    3    0    0  0.70822283438E+00 -0.99785809668E+01  0.96308767364E+01  0.13886634470E+02  0.10570000000E+00 0.  1.
<mgrwt>
<rscale>  0 0.20010834E+02</rscale>
<asrwt>0</asrwt>
<pdfrwt beam="1">  1        2 0.35634379E-02 0.20010834E+02</pdfrwt>
<pdfrwt beam="2">  1       -2 0.66492776E-03 0.20010834E+02</pdfrwt>
<totfact> 0.42191075E+06</totfact>
</mgrwt>
</event>
<event>
 5    1  0.1679120E-006  0.2000342E+02  0.7818608E-02  0.1745260E+00
         -2   -1    0    0    0  501 -0.00000000000E+00  0.00000000000E+00  0.16272917071E+01  0.16272937841E+01  0.26000000000E-02 0. -1.
          2   -1    0    0  501    0  0.00000000000E+00 -0.00000000000E+00 -0.61472804580E+02  0.61472804635E+02  0.26000000000E-02 0.  1.
       1023    2    1    2    0    0  0.00000000000E+00  0.00000000000E+00 -0.59845512872E+02  0.63100098419E+02  0.20003424944E+02 0.  0.
        -13    1    3    3    0    0 -0.78830799295E+01  0.61534666679E+01 -0.29536689762E+02  0.31183895135E+02  0.10570000000E+00 0.  1.
         13    1    3    3    0    0  0.78830799295E+01 -0.61534666679E+01 -0.30308823111E+02  0.31916203284E+02  0.10570000000E+00 0. -1.
<mgrwt>
<rscale>  0 0.20003425E+02</rscale>
<asrwt>0</asrwt>
<pdfrwt beam="2">  1        2 0.94573529E-02 0.20003425E+02</pdfrwt>
<pdfrwt beam="1">  1       -2 0.25035278E-03 0.20003425E+02</pdfrwt>
<totfact> 0.47877088E+06</totfact>
</mgrwt>
</event>
<event>
 5    1  0.1607476E-006  0.2000166E+02  0.7818608E-02  0.1745295E+00
          2   -1    0    0  501    0  0.00000000000E+00  0.00000000000E+00  0.28219425457E+02  0.28219425577E+02  0.26000000000E-02 0. -1.
         -2   -1    0    0    0  501 -0.00000000000E+00 -0.00000000000E+00 -0.35442442771E+01  0.35442452307E+01  0.26000000000E-02 0.  1.
       1023    2    1    2    0    0  0.00000000000E+00  0.00000000000E+00  0.24675181180E+02  0.31763670807E+02  0.20001655354E+02 0.  0.
        -13    1    3    3    0    0 -0.46688131116E+01  0.88433440043E+01  0.12422111460E+02  0.15947494307E+02  0.10570000000E+00 0. -1.
         13    1    3    3    0    0  0.46688131116E+01 -0.88433440043E+01  0.12253069720E+02  0.15816176501E+02  0.10570000000E+00 0.  1.
<mgrwt>
<rscale>  0 0.20001655E+02</rscale>
<asrwt>0</asrwt>
<pdfrwt beam="1">  1        2 0.43414503E-02 0.20001655E+02</pdfrwt>
<pdfrwt beam="2">  1       -2 0.54526841E-03 0.20001655E+02</pdfrwt>
<totfact> 0.43080056E+06</totfact>
</mgrwt>
</event>
<event>
 5    1  0.1607476E-006  0.2000819E+02  0.7818608E-02  0.1745165E+00
          2   -1    0    0  501    0  0.00000000000E+00  0.00000000000E+00  0.23297942335E+01  0.23297956843E+01  0.26000000000E-02 0.  1.
         -2   -1    0    0    0  501 -0.00000000000E+00 -0.00000000000E+00 -0.42957399879E+02  0.42957399958E+02  0.26000000000E-02 0. -1.
       1023    2    1    2    0    0  0.00000000000E+00  0.00000000000E+00 -0.40627605646E+02  0.45287195642E+02  0.20008192038E+02 0.  0.
        -13    1    3    3    0    0  0.12799579160E+01  0.99209140789E+01 -0.20112163615E+02  0.22462705229E+02  0.10570000000E+00 0.  1.
         13    1    3    3    0    0 -0.12799579160E+01 -0.99209140789E+01 -0.20515442031E+02  0.22824490413E+02  0.10570000000E+00 0. -1.
<mgrwt>
<rscale>  0 0.20008192E+02</rscale>
<asrwt>0</asrwt>
<pdfrwt beam="1">  1        2 0.35843003E-03 0.20008192E+02</pdfrwt>
<pdfrwt beam="2">  1       -2 0.66088303E-02 0.20008192E+02</pdfrwt>
<totfact> 0.34576898E+06</totfact>
</mgrwt>
</event>
<event>
 4    1  0.1607476E-006  0.2002773E+02  0.7818608E-02  0.1744777E+00
         -2   -1    0    0    0  501 -0.00000000000E+00  0.00000000000E+00  0.81970463513E+01  0.81970467637E+01  0.26000000000E-02 0. -1.
          2   -1    0    0  501    0  0.00000000000E+00 -0.00000000000E+00 -0.12233370280E+02  0.12233370556E+02  0.26000000000E-02 0.  1.
        -13    1    1    2    0    0 -0.22716844228E+01  0.97451447357E+01 -0.16392892796E+01  0.10140356891E+02  0.10570000000E+00 0.  1.
         13    1    1    2    0    0  0.22716844228E+01 -0.97451447357E+01 -0.23970346488E+01  0.10290060429E+02  0.10570000000E+00 0. -1.
<mgrwt>
<rscale>  0 0.20027732E+02</rscale>
<asrwt>0</asrwt>
<pdfrwt beam="2">  1        2 0.18820570E-02 0.20027732E+02</pdfrwt>
<pdfrwt beam="1">  1       -2 0.12610841E-02 0.20027732E+02</pdfrwt>
<totfact> 0.39930541E+06</totfact>
</mgrwt>
</event>
<event>
 4    1  0.1607476E-006  0.2026698E+02  0.7818608E-02  0.1740070E+00
          2   -1    0    0  501    0  0.00000000000E+00  0.00000000000E+00  0.17107904713E+01  0.17107924470E+01  0.26000000000E-02 0. -1.
         -2   -1    0    0    0  501 -0.00000000000E+00 -0.00000000000E+00 -0.60023436329E+02  0.60023436385E+02  0.26000000000E-02 0.  1.
        -13    1    1    2    0    0  0.73617798127E+01 -0.68509934500E+01 -0.32941890494E+02  0.34442869146E+02  0.10570000000E+00 0. -1.
         13    1    1    2    0    0 -0.73617798127E+01  0.68509934500E+01 -0.25370755364E+02  0.27291359686E+02  0.10570000000E+00 0.  1.
<mgrwt>
<rscale>  0 0.20266977E+02</rscale>
<asrwt>0</asrwt>
<pdfrwt beam="1">  1        2 0.26319874E-03 0.20266977E+02</pdfrwt>
<pdfrwt beam="2">  1       -2 0.92343733E-02 0.20266977E+02</pdfrwt>
<totfact> 0.32015661E+06</totfact>
</mgrwt>
</event>
<event>
 4    1  0.1607476E-006  0.2230822E+02  0.7818608E-02  0.1702975E+00
          2   -1    0    0  501    0  0.00000000000E+00  0.00000000000E+00  0.45978381800E+01  0.45978389151E+01  0.26000000000E-02 0.  1.
         -2   -1    0    0    0  501 -0.00000000000E+00 -0.00000000000E+00 -0.27059268905E+02  0.27059269030E+02  0.26000000000E-02 0. -1.
        -13    1    1    2    0    0 -0.97357451766E+01 -0.37715338856E+01 -0.56629750822E+01  0.11878116907E+02  0.10570000000E+00 0.  1.
         13    1    1    2    0    0  0.97357451766E+01  0.37715338856E+01 -0.16798455643E+02  0.19778991038E+02  0.10570000000E+00 0. -1.
<mgrwt>
<rscale>  0 0.22308219E+02</rscale>
<asrwt>0</asrwt>
<pdfrwt beam="1">  1        2 0.70735980E-03 0.22308219E+02</pdfrwt>
<pdfrwt beam="2">  1       -2 0.41629644E-02 0.22308219E+02</pdfrwt>
<totfact> 0.28662306E+06</totfact>
</mgrwt>
</event>
<event>
 4    1  0.1607476E-006  0.2004696E+02  0.7818608E-02  0.1744396E+00
         -2   -1    0    0    0  501 -0.00000000000E+00  0.00000000000E+00  0.12142577389E+02  0.12142577667E+02  0.26000000000E-02 0. -1.
          2   -1    0    0  501    0  0.00000000000E+00 -0.00000000000E+00 -0.82742060619E+01  0.82742064704E+01  0.26000000000E-02 0.  1.
        -13    1    1    2    0    0  0.56271092716E+01  0.82837783940E+01  0.23586214854E+01  0.10288809991E+02  0.10570000000E+00 0.  1.
         13    1    1    2    0    0 -0.56271092716E+01 -0.82837783940E+01  0.15097498417E+01  0.10127974146E+02  0.10570000000E+00 0. -1.
<mgrwt>
<rscale>  0 0.20046964E+02</rscale>
<asrwt>0</asrwt>
<pdfrwt beam="2">  1        2 0.12729548E-02 0.20046964E+02</pdfrwt>
<pdfrwt beam="1">  1       -2 0.18680889E-02 0.20046964E+02</pdfrwt>
<totfact> 0.38710448E+06</totfact>
</mgrwt>
</event>
<event>
 5    1  0.1607476E-006  0.2000920E+02  0.7818608E-02  0.1745145E+00
         -2   -1    0    0    0  501 -0.00000000000E+00  0.00000000000E+00  0.66341490533E+01  0.66341495627E+01  0.26000000000E-02 0.  1.
          2   -1    0    0  501    0  0.00000000000E+00 -0.00000000000E+00 -0.15087397003E+02  0.15087397227E+02  0.26000000000E-02 0. -1.
       1023    2    1    2    0    0  0.00000000000E+00  0.00000000000E+00 -0.84532479502E+01  0.21721546790E+02  0.20009202734E+02 0.  0.
        -13    1    3    3    0    0  0.94243120760E+01 -0.33538406033E+01 -0.43594515279E+01  0.10912465121E+02  0.10570000000E+00 0. -1.
         13    1    3    3    0    0 -0.94243120760E+01  0.33538406033E+01 -0.40937964223E+01  0.10809081669E+02  0.10570000000E+00 0.  1.
<mgrwt>
<rscale>  0 0.20009203E+02</rscale>
<asrwt>0</asrwt>
<pdfrwt beam="2">  1        2 0.23211381E-02 0.20009203E+02</pdfrwt>
<pdfrwt beam="1">  1       -2 0.10206384E-02 0.20009203E+02</pdfrwt>
<totfact> 0.40665910E+06</totfact>
</mgrwt>
</event>
<event>
 5    1  0.1607476E-006  0.2000348E+02  0.7818608E-02  0.1745259E+00
          2   -1    0    0  501    0  0.00000000000E+00  0.00000000000E+00  0.69787137451E+01  0.69787142294E+01  0.26000000000E-02 0.  1.
         -2   -1    0    0    0  501 -0.00000000000E+00 -0.00000000000E+00 -0.14334268083E+02  0.14334268318E+02  0.26000000000E-02 0. -1.
       1023    2    1    2    0    0  0.00000000000E+00  0.00000000000E+00 -0.73555543375E+01  0.21312982548E+02  0.20003475835E+02 0.  0.
        -13    1    3    3    0    0  0.89945640609E+01 -0.43718355160E+01 -0.35797750318E+01  0.10622668695E+02  0.10570000000E+00 0. -1.
         13    1    3    3    0    0 -0.89945640609E+01  0.43718355160E+01 -0.37757793057E+01  0.10690313853E+02  0.10570000000E+00 0.  1.
<mgrwt>
<rscale>  0 0.20003476E+02</rscale>
<asrwt>0</asrwt>
<pdfrwt beam="1">  1        2 0.10736483E-02 0.20003476E+02</pdfrwt>
<pdfrwt beam="2">  1       -2 0.22052721E-02 0.20003476E+02</pdfrwt>
<totfact> 0.38414982E+06</totfact>
</mgrwt>
</event>
<event>
 5    1  0.1607476E-006  0.2000402E+02  0.7818608E-02  0.1745248E+00
         -2   -1    0    0    0  501 -0.00000000000E+00  0.00000000000E+00  0.77313353466E+02  0.77313353510E+02  0.26000000000E-02 0.  1.
          2   -1    0    0  501    0  0.00000000000E+00 -0.00000000000E+00 -0.12939563665E+01  0.12939589786E+01  0.26000000000E-02 0. -1.
       1023    2    1    2    0    0  0.00000000000E+00  0.00000000000E+00  0.76019397100E+02  0.78607312488E+02  0.20004020627E+02 0.  0.
        -13    1    3    3    0    0 -0.99620203964E+01 -0.88016047306E+00  0.37570270963E+02  0.38878695523E+02  0.10570000000E+00 0.  1.
         13    1    3    3    0    0  0.99620203964E+01  0.88016047306E+00  0.38449126136E+02  0.39728616965E+02  0.10570000000E+00 0. -1.
<mgrwt>
<rscale>  0 0.20004021E+02</rscale>
<asrwt>0</asrwt>
<pdfrwt beam="2">  1        2 0.19907032E-03 0.20004021E+02</pdfrwt>
<pdfrwt beam="1">  1       -2 0.11894368E-01 0.20004021E+02</pdfrwt>
<totfact> 0.31461178E+06</totfact>
</mgrwt>
</event>
<event>
 4    1  0.2206192E-006  0.2001372E+02  0.7818608E-02  0.1745055E+00
         -2   -1    0    0    0  501 -0.00000000000E+00  0.00000000000E+00  0.88067294390E+00  0.88067678186E+00  0.26000000000E-02 0.  1.
          2   -1    0    0  501    0  0.00000000000E+00 -0.00000000000E+00 -0.11370516535E+03  0.11370516538E+03  0.26000000000E-02 0. -1.
        -13    1    1    2    0    0  0.17125202184E+01  0.98581944561E+01 -0.56966997507E+02  0.57839145057E+02  0.10570000000E+00 0.  1.
         13    1    1    2    0    0 -0.17125202184E+01 -0.98581944561E+01 -0.55857494903E+02  0.56746697109E+02  0.10570000000E+00 0. -1.
<mgrwt>
<rscale>  0 0.20013724E+02</rscale>
<asrwt>0</asrwt>
<pdfrwt beam="2">  1        2 0.17493091E-01 0.20013724E+02</pdfrwt>
<pdfrwt beam="1">  1       -2 0.13548853E-03 0.20013724E+02</pdfrwt>
<totfact> 0.54287766E+06</totfact>
</mgrwt>
</event>
<event>
 5    1  0.1637464E-006  0.2000136E+02  0.7818608E-02  0.1745301E+00
         -2   -1    0    0    0  501 -0.00000000000E+00  0.00000000000E+00  0.15487376571E+01  0.15487398396E+01  0.26000000000E-02 0. -1.
          2   -1    0    0  501    0  0.00000000000E+00 -0.00000000000E+00 -0.64577441061E+02  0.64577441113E+02  0.26000000000E-02 0.  1.
       1023    2    1    2    0    0  0.00000000000E+00  0.00000000000E+00 -0.63028703404E+02  0.66126180953E+02  0.20001358820E+02 0.  0.
        -13    1    3    3    0    0  0.16208852915E+01 -0.98678728701E+01 -0.31564715196E+02  0.33111094848E+02  0.10570000000E+00 0. -1.
         13    1    3    3    0    0 -0.16208852915E+01  0.98678728701E+01 -0.31463988207E+02  0.33015086105E+02  0.10570000000E+00 0.  1.
<mgrwt>
<rscale>  0 0.20001359E+02</rscale>
<asrwt>0</asrwt>
<pdfrwt beam="2">  1        2 0.99349890E-02 0.20001359E+02</pdfrwt>
<pdfrwt beam="1">  1       -2 0.23826755E-03 0.20001359E+02</pdfrwt>
<totfact> 0.48301173E+06</totfact>
</mgrwt>
</event>
<event>
 5    1  0.1774334E-006  0.2000163E+02  0.7818608E-02  0.1745296E+00
         -2   -1    0    0    0  501 -0.00000000000E+00  0.00000000000E+00  0.18381495119E+01  0.18381513507E+01  0.26000000000E-02 0.  1.
          2   -1    0    0  501    0  0.00000000000E+00 -0.00000000000E+00 -0.54411404196E+02  0.54411404259E+02  0.26000000000E-02 0. -1.
       1023    2    1    2    0    0  0.00000000000E+00  0.00000000000E+00 -0.52573254685E+02  0.56249555609E+02  0.20001634886E+02 0.  0.
        -13    1    3    3    0    0 -0.79501556572E+01  0.60662670198E+01 -0.26355885657E+02  0.28189509605E+02  0.10570000000E+00 0.  1.
         13    1    3    3    0    0  0.79501556572E+01 -0.60662670198E+01 -0.26217369027E+02  0.28060046004E+02  0.10570000000E+00 0. -1.
<mgrwt>
<rscale>  0 0.20001635E+02</rscale>
<asrwt>0</asrwt>
<pdfrwt beam="2">  1        2 0.83709842E-02 0.20001635E+02</pdfrwt>
<pdfrwt beam="1">  1       -2 0.28279242E-03 0.20001635E+02</pdfrwt>
<totfact> 0.46930283E+06</totfact>
</mgrwt>
</event>
<event>
 4    1  0.1607476E-006  0.2008451E+02  0.7818608E-02  0.1743653E+00
         -2   -1    0    0    0  501 -0.00000000000E+00  0.00000000000E+00  0.54882475717E+02  0.54882475778E+02  0.26000000000E-02 0. -1.
          2   -1    0    0  501    0  0.00000000000E+00 -0.00000000000E+00 -0.18375053448E+01  0.18375071842E+01  0.26000000000E-02 0.  1.
        -13    1    1    2    0    0  0.52062816422E+01  0.85851905572E+01  0.26077227091E+02  0.27943582639E+02  0.10570000000E+00 0.  1.
         13    1    1    2    0    0 -0.52062816422E+01 -0.85851905572E+01  0.26967743281E+02  0.28776400324E+02  0.10570000000E+00 0. -1.
<mgrwt>
<rscale>  0 0.20084511E+02</rscale>
<asrwt>0</asrwt>
<pdfrwt beam="2">  1        2 0.28269328E-03 0.20084511E+02</pdfrwt>
<pdfrwt beam="1">  1       -2 0.84434578E-02 0.20084511E+02</pdfrwt>
<totfact> 0.33124972E+06</totfact>
</mgrwt>
</event>
<event>
 4    1  0.1607476E-006  0.2005866E+02  0.7818608E-02  0.1744164E+00
         -2   -1    0    0    0  501 -0.00000000000E+00  0.00000000000E+00  0.97089775957E+01  0.97089779439E+01  0.26000000000E-02 0. -1.
          2   -1    0    0  501    0  0.00000000000E+00 -0.00000000000E+00 -0.10360250158E+02  0.10360250484E+02  0.26000000000E-02 0.  1.
        -13    1    1    2    0    0 -0.77983484861E+01 -0.62737280845E+01 -0.96029519046E+00  0.10055209721E+02  0.10570000000E+00 0. -1.
         13    1    1    2    0    0  0.77983484861E+01  0.62737280845E+01  0.30902262850E+00  0.10014018707E+02  0.10570000000E+00 0.  1.
<mgrwt>
<rscale>  0 0.20058658E+02</rscale>
<asrwt>0</asrwt>
<pdfrwt beam="2">  1        2 0.15938847E-02 0.20058658E+02</pdfrwt>
<pdfrwt beam="1">  1       -2 0.14936889E-02 0.20058658E+02</pdfrwt>
<totfact> 0.39302139E+06</totfact>
</mgrwt>
</event>
<event>
 5    1  0.1607476E-006  0.2000271E+02  0.7818608E-02  0.1745274E+00
          2   -1    0    0  501    0  0.00000000000E+00  0.00000000000E+00  0.13268530087E+02  0.13268530341E+02  0.26000000000E-02 0.  1.
         -2   -1    0    0    0  501 -0.00000000000E+00 -0.00000000000E+00 -0.75386746149E+01  0.75386750633E+01  0.26000000000E-02 0. -1.
       1023    2    1    2    0    0  0.00000000000E+00  0.00000000000E+00  0.57298554718E+01  0.20807205405E+02  0.20002713642E+02 0.  0.
        -13    1    3    3    0    0 -0.99361419863E+01  0.11352223167E+01  0.28834916663E+01  0.10408714808E+02  0.10570000000E+00 0. -1.
         13    1    3    3    0    0  0.99361419863E+01 -0.11352223167E+01  0.28463638055E+01  0.10398490596E+02  0.10570000000E+00 0.  1.
<mgrwt>
<rscale>  0 0.20002714E+02</rscale>
<asrwt>0</asrwt>
<pdfrwt beam="1">  1        2 0.20413123E-02 0.20002714E+02</pdfrwt>
<pdfrwt beam="2">  1       -2 0.11597962E-02 0.20002714E+02</pdfrwt>
<totfact> 0.40291417E+06</totfact>
</mgrwt>
</event>
<event>
 5    1  0.1607476E-006  0.2000439E+02  0.7818608E-02  0.1745241E+00
         -2   -1    0    0    0  501 -0.00000000000E+00  0.00000000000E+00  0.71122182801E+01  0.71122187553E+01  0.26000000000E-02 0.  1.
          2   -1    0    0  501    0  0.00000000000E+00 -0.00000000000E+00 -0.14066482911E+02  0.14066483151E+02  0.26000000000E-02 0. -1.
       1023    2    1    2    0    0  0.00000000000E+00  0.00000000000E+00 -0.69542646309E+01  0.21178701907E+02  0.20004389966E+02 0.  0.
        -13    1    3    3    0    0 -0.75148218505E+01 -0.66000078583E+01 -0.34676152686E+01  0.10586225924E+02  0.10570000000E+00 0. -1.
         13    1    3    3    0    0  0.75148218505E+01  0.66000078583E+01 -0.34866493623E+01  0.10592475983E+02  0.10570000000E+00 0.  1.
<mgrwt>
<rscale>  0 0.20004390E+02</rscale>
<asrwt>0</asrwt>
<pdfrwt beam="2">  1        2 0.21640743E-02 0.20004390E+02</pdfrwt>
<pdfrwt beam="1">  1       -2 0.10941875E-02 0.20004390E+02</pdfrwt>
<totfact> 0.40465222E+06</totfact>
</mgrwt>
</event>
<event>
 5    1  0.1607476E-006  0.2000260E+02  0.7818608E-02  0.1745276E+00
          2   -1    0    0  501    0  0.00000000000E+00  0.00000000000E+00  0.55335733349E+01  0.55335739457E+01  0.26000000000E-02 0. -1.
         -2   -1    0    0    0  501 -0.00000000000E+00 -0.00000000000E+00 -0.18076209266E+02  0.18076209453E+02  0.26000000000E-02 0.  1.
       1023    2    1    2    0    0  0.00000000000E+00  0.00000000000E+00 -0.12542635931E+02  0.23609783399E+02  0.20002603731E+02 0.  0.
        -13    1    3    3    0    0 -0.37984099418E+01  0.92511122945E+01 -0.61978924831E+01  0.11765884603E+02  0.10570000000E+00 0. -1.
         13    1    3    3    0    0  0.37984099418E+01 -0.92511122945E+01 -0.63447434481E+01  0.11843898796E+02  0.10570000000E+00 0.  1.
<mgrwt>
<rscale>  0 0.20002604E+02</rscale>
<asrwt>0</asrwt>
<pdfrwt beam="1">  1        2 0.85131904E-03 0.20002604E+02</pdfrwt>
<pdfrwt beam="2">  1       -2 0.27809553E-02 0.20002604E+02</pdfrwt>
<totfact> 0.37734076E+06</totfact>
</mgrwt>
</event>
<event>
 5    1  0.1607476E-006  0.2000274E+02  0.7818608E-02  0.1745274E+00
         -2   -1    0    0    0  501 -0.00000000000E+00  0.00000000000E+00  0.21148211557E+02  0.21148211717E+02  0.26000000000E-02 0. -1.
          2   -1    0    0  501    0  0.00000000000E+00 -0.00000000000E+00 -0.47298289333E+01  0.47298296479E+01  0.26000000000E-02 0.  1.
       1023    2    1    2    0    0  0.00000000000E+00  0.00000000000E+00  0.16418382623E+02  0.25878041364E+02  0.20002743234E+02 0.  0.
        -13    1    3    3    0    0 -0.84418090817E+01  0.53610072868E+01  0.80691219034E+01  0.12850153325E+02  0.10570000000E+00 0. -1.
         13    1    3    3    0    0  0.84418090817E+01 -0.53610072868E+01  0.83492607200E+01  0.13027888039E+02  0.10570000000E+00 0.  1.
<mgrwt>
<rscale>  0 0.20002743E+02</rscale>
<asrwt>0</asrwt>
<pdfrwt beam="2">  1        2 0.72766604E-03 0.20002743E+02</pdfrwt>
<pdfrwt beam="1">  1       -2 0.32535711E-02 0.20002743E+02</pdfrwt>
<totfact> 0.37246928E+06</totfact>
</mgrwt>
</event>
<event>
 5    1  0.1607476E-006  0.2000432E+02  0.7818608E-02  0.1745242E+00
         -2   -1    0    0    0  501 -0.00000000000E+00  0.00000000000E+00  0.17275563310E+02  0.17275563506E+02  0.26000000000E-02 0.  1.
          2   -1    0    0  501    0  0.00000000000E+00 -0.00000000000E+00 -0.57910249319E+01  0.57910255156E+01  0.26000000000E-02 0. -1.
       1023    2    1    2    0    0  0.00000000000E+00  0.00000000000E+00  0.11484538378E+02  0.23066589021E+02  0.20004322216E+02 0.  0.
        -13    1    3    3    0    0 -0.70264880164E+01  0.71173489786E+01  0.58139460009E+01  0.11568981412E+02  0.10570000000E+00 0. -1.
         13    1    3    3    0    0  0.70264880164E+01 -0.71173489786E+01  0.56705923770E+01  0.11497607609E+02  0.10570000000E+00 0.  1.
<mgrwt>
<rscale>  0 0.20004322E+02</rscale>
<asrwt>0</asrwt>
<pdfrwt beam="2">  1        2 0.89092697E-03 0.20004322E+02</pdfrwt>
<pdfrwt beam="1">  1       -2 0.26577790E-02 0.20004322E+02</pdfrwt>
<totfact> 0.37863377E+06</totfact>
</mgrwt>
</event>
<event>
 5    1  0.1607476E-006  0.2000167E+02  0.7818608E-02  0.1745295E+00
         -2   -1    0    0    0  501 -0.00000000000E+00  0.00000000000E+00  0.20305028500E+01  0.20305045146E+01  0.26000000000E-02 0. -1.
          2   -1    0    0  501    0  0.00000000000E+00 -0.00000000000E+00 -0.49257075660E+02  0.49257075728E+02  0.26000000000E-02 0.  1.
       1023    2    1    2    0    0  0.00000000000E+00  0.00000000000E+00 -0.47226572810E+02  0.51287580243E+02  0.20001667626E+02 0.  0.
        -13    1    3    3    0    0 -0.13581019706E+01 -0.99075548540E+01 -0.23516650405E+02  0.25554805867E+02  0.10570000000E+00 0. -1.
         13    1    3    3    0    0  0.13581019706E+01  0.99075548540E+01 -0.23709922405E+02  0.25732774376E+02  0.10570000000E+00 0.  1.
<mgrwt>
<rscale>  0 0.20001668E+02</rscale>
<asrwt>0</asrwt>
<pdfrwt beam="2">  1        2 0.75780109E-02 0.20001668E+02</pdfrwt>
<pdfrwt beam="1">  1       -2 0.31238523E-03 0.20001668E+02</pdfrwt>
<totfact> 0.46215539E+06</totfact>
</mgrwt>
</event>
<event>
 4    1  0.1607476E-006  0.2002865E+02  0.7818608E-02  0.1744759E+00
          2   -1    0    0  501    0  0.00000000000E+00  0.00000000000E+00  0.21055020580E+02  0.21055020741E+02  0.26000000000E-02 0.  1.
         -2   -1    0    0    0  501 -0.00000000000E+00 -0.00000000000E+00 -0.47630758526E+01  0.47630765623E+01  0.26000000000E-02 0. -1.
        -13    1    1    2    0    0 -0.99928142690E+01 -0.58612219889E+00  0.85004578246E+01  0.13132738936E+02  0.10570000000E+00 0.  1.
         13    1    1    2    0    0  0.99928142690E+01  0.58612219889E+00  0.77914869030E+01  0.12685358367E+02  0.10570000000E+00 0. -1.
<mgrwt>
<rscale>  0 0.20028647E+02</rscale>
<asrwt>0</asrwt>
<pdfrwt beam="1">  1        2 0.32392340E-02 0.20028647E+02</pdfrwt>
<pdfrwt beam="2">  1       -2 0.73278097E-03 0.20028647E+02</pdfrwt>
<totfact> 0.41735432E+06</totfact>
</mgrwt>
</event>
<event>
 5    1  0.1607476E-006  0.2000143E+02  0.7818608E-02  0.1745300E+00
          2   -1    0    0  501    0  0.00000000000E+00  0.00000000000E+00  0.26673789218E+02  0.26673789344E+02  0.26000000000E-02 0. -1.
         -2   -1    0    0    0  501 -0.00000000000E+00 -0.00000000000E+00 -0.37495326459E+01  0.37495335474E+01  0.26000000000E-02 0.  1.
       1023    2    1    2    0    0  0.00000000000E+00  0.00000000000E+00  0.22924256572E+02  0.30423322892E+02  0.20001425859E+02 0.  0.
        -13    1    3    3    0    0 -0.94334983917E+01 -0.33184362006E+01  0.11482300998E+02  0.15226861772E+02  0.10570000000E+00 0.  1.
         13    1    3    3    0    0  0.94334983917E+01  0.33184362006E+01  0.11441955574E+02  0.15196461120E+02  0.10570000000E+00 0. -1.
<mgrwt>
<rscale>  0 0.20001426E+02</rscale>
<asrwt>0</asrwt>
<pdfrwt beam="1">  1        2 0.41036598E-02 0.20001426E+02</pdfrwt>
<pdfrwt beam="2">  1       -2 0.57685127E-03 0.20001426E+02</pdfrwt>
<totfact> 0.42828839E+06</totfact>
</mgrwt>
</event>
<event>
 5    1  0.1607476E-006  0.2000379E+02  0.7818608E-02  0.1745253E+00
          2   -1    0    0  501    0  0.00000000000E+00  0.00000000000E+00  0.11786775015E+01  0.11786803692E+01  0.26000000000E-02 0.  1.
         -2   -1    0    0    0  501 -0.00000000000E+00 -0.00000000000E+00 -0.84872890248E+02  0.84872890287E+02  0.26000000000E-02 0. -1.
       1023    2    1    2    0    0  0.00000000000E+00  0.00000000000E+00 -0.83694212746E+02  0.86051570657E+02  0.20003788773E+02 0.  0.
        -13    1    3    3    0    0  0.79726097746E+01 -0.60381864802E+01 -0.41558014957E+02  0.42744613488E+02  0.10570000000E+00 0. -1.
         13    1    3    3    0    0 -0.79726097746E+01  0.60381864802E+01 -0.42136197789E+02  0.43306957169E+02  0.10570000000E+00 0.  1.
<mgrwt>
<rscale>  0 0.20003789E+02</rscale>
<asrwt>0</asrwt>
<pdfrwt beam="1">  1        2 0.18133529E-03 0.20003789E+02</pdfrwt>
<pdfrwt beam="2">  1       -2 0.13057363E-01 0.20003789E+02</pdfrwt>
<totfact> 0.30859027E+06</totfact>
</mgrwt>
</event>
<event>
 5    1  0.1607476E-006  0.2001099E+02  0.7818608E-02  0.1745110E+00
         -2   -1    0    0    0  501 -0.00000000000E+00  0.00000000000E+00  0.62208493963E+01  0.62208499396E+01  0.26000000000E-02 0.  1.
          2   -1    0    0  501    0  0.00000000000E+00 -0.00000000000E+00 -0.16092638957E+02  0.16092639167E+02  0.26000000000E-02 0. -1.
       1023    2    1    2    0    0  0.00000000000E+00  0.00000000000E+00 -0.98717895604E+01  0.22313489106E+02  0.20010986157E+02 0.  0.
        -13    1    3    3    0    0  0.60244899729E+01  0.79874746023E+01 -0.50106064006E+01  0.11189797985E+02  0.10570000000E+00 0. -1.
         13    1    3    3    0    0 -0.60244899729E+01 -0.79874746023E+01 -0.48611831598E+01  0.11123691121E+02  0.10570000000E+00 0.  1.
<mgrwt>
<rscale>  0 0.20010986E+02</rscale>
<asrwt>0</asrwt>
<pdfrwt beam="2">  1        2 0.24757906E-02 0.20010986E+02</pdfrwt>
<pdfrwt beam="1">  1       -2 0.95705382E-03 0.20010986E+02</pdfrwt>
<totfact> 0.40868362E+06</totfact>
</mgrwt>
</event>
<event>
 5    1  0.1607476E-006  0.2000383E+02  0.7818608E-02  0.1745252E+00
         -2   -1    0    0    0  501 -0.00000000000E+00  0.00000000000E+00  0.22163251887E+01  0.22163267138E+01  0.26000000000E-02 0. -1.
          2   -1    0    0  501    0  0.00000000000E+00 -0.00000000000E+00 -0.45136982975E+02  0.45136983050E+02  0.26000000000E-02 0.  1.
       1023    2    1    2    0    0  0.00000000000E+00  0.00000000000E+00 -0.42920657787E+02  0.47353309764E+02  0.20003826653E+02 0.  0.
        -13    1    3    3    0    0 -0.98168152320E+01 -0.19123396985E+01 -0.21493239162E+02  0.23706484484E+02  0.10570000000E+00 0.  1.
         13    1    3    3    0    0  0.98168152320E+01  0.19123396985E+01 -0.21427418625E+02  0.23646825280E+02  0.10570000000E+00 0. -1.
<mgrwt>
<rscale>  0 0.20003827E+02</rscale>
<asrwt>0</asrwt>
<pdfrwt beam="2">  1        2 0.69441507E-02 0.20003827E+02</pdfrwt>
<pdfrwt beam="1">  1       -2 0.34097326E-03 0.20003827E+02</pdfrwt>
<totfact> 0.45621438E+06</totfact>
</mgrwt>
</event>
<event>
 4    1  0.1607476E-006  0.2003324E+02  0.7818608E-02  0.1744668E+00
          2   -1    0    0  501    0  0.00000000000E+00  0.00000000000E+00  0.14542088056E+02  0.14542088289E+02  0.26000000000E-02 0.  1.
         -2   -1    0    0    0  501 -0.00000000000E+00 -0.00000000000E+00 -0.68994679191E+01  0.68994684090E+01  0.26000000000E-02 0. -1.
        -13    1    1    2    0    0  0.36400208663E+01 -0.93312003062E+01  0.37984995219E+01  0.10712647767E+02  0.10570000000E+00 0.  1.
         13    1    1    2    0    0 -0.36400208663E+01  0.93312003062E+01  0.38441206155E+01  0.10728908931E+02  0.10570000000E+00 0. -1.
<mgrwt>
<rscale>  0 0.20033240E+02</rscale>
<asrwt>0</asrwt>
<pdfrwt beam="1">  1        2 0.22372443E-02 0.20033240E+02</pdfrwt>
<pdfrwt beam="2">  1       -2 0.10614567E-02 0.20033240E+02</pdfrwt>
<totfact> 0.40437952E+06</totfact>
</mgrwt>
</event>
<event>
 4    1  0.1607476E-006  0.2012763E+02  0.7818608E-02  0.1742802E+00
          2   -1    0    0  501    0  0.00000000000E+00  0.00000000000E+00  0.22781411904E+01  0.22781426741E+01  0.26000000000E-02 0.  1.
         -2   -1    0    0    0  501 -0.00000000000E+00 -0.00000000000E+00 -0.44457440728E+02  0.44457440804E+02  0.26000000000E-02 0. -1.
        -13    1    1    2    0    0 -0.78337943169E+01  0.62834236598E+01 -0.22593457656E+02  0.24724992369E+02  0.10570000000E+00 0. -1.
         13    1    1    2    0    0  0.78337943169E+01 -0.62834236598E+01 -0.19585841882E+02  0.22010591110E+02  0.10570000000E+00 0.  1.
<mgrwt>
<rscale>  0 0.20127629E+02</rscale>
<asrwt>0</asrwt>
<pdfrwt beam="1">  1        2 0.35048341E-03 0.20127629E+02</pdfrwt>
<pdfrwt beam="2">  1       -2 0.68396057E-02 0.20127629E+02</pdfrwt>
<totfact> 0.33977221E+06</totfact>
</mgrwt>
</event>
<event>
 5    1  0.1607476E-006  0.2000736E+02  0.7818608E-02  0.1745182E+00
          2   -1    0    0  501    0  0.00000000000E+00  0.00000000000E+00  0.12072328882E+01  0.12072356880E+01  0.26000000000E-02 0. -1.
         -2   -1    0    0    0  501 -0.00000000000E+00 -0.00000000000E+00 -0.82894934967E+02  0.82894935008E+02  0.26000000000E-02 0.  1.
       1023    2    1    2    0    0  0.00000000000E+00  0.00000000000E+00 -0.81687702079E+02  0.84102170696E+02  0.20007359767E+02 0.  0.
        -13    1    3    3    0    0 -0.58745906289E+01 -0.80962812915E+01 -0.41024795187E+02  0.42226834814E+02  0.10570000000E+00 0.  1.
         13    1    3    3    0    0  0.58745906289E+01  0.80962812915E+01 -0.40662906892E+02  0.41875335881E+02  0.10570000000E+00 0. -1.
<mgrwt>
<rscale>  0 0.20007360E+02</rscale>
<asrwt>0</asrwt>
<pdfrwt beam="1">  1        2 0.18572842E-03 0.20007360E+02</pdfrwt>
<pdfrwt beam="2">  1       -2 0.12753063E-01 0.20007360E+02</pdfrwt>
<totfact> 0.31002477E+06</totfact>
</mgrwt>
</event>
<event>
 4    1  0.1607476E-006  0.2061887E+02  0.7818608E-02  0.1733294E+00
         -2   -1    0    0    0  501 -0.00000000000E+00  0.00000000000E+00  0.65486101495E+02  0.65486101547E+02  0.26000000000E-02 0.  1.
          2   -1    0    0  501    0  0.00000000000E+00 -0.00000000000E+00 -0.16230071036E+01  0.16230091862E+01  0.26000000000E-02 0. -1.
        -13    1    1    2    0    0 -0.92794184515E+01 -0.43140804406E+01  0.35989428884E+02  0.37416160422E+02  0.10570000000E+00 0. -1.
         13    1    1    2    0    0  0.92794184515E+01  0.43140804406E+01  0.27873665508E+02  0.29692950311E+02  0.10570000000E+00 0.  1.
<mgrwt>
<rscale>  0 0.20618873E+02</rscale>
<asrwt>0</asrwt>
<pdfrwt beam="2">  1        2 0.24969362E-03 0.20618873E+02</pdfrwt>
<pdfrwt beam="1">  1       -2 0.10074783E-01 0.20618873E+02</pdfrwt>
<totfact> 0.30374495E+06</totfact>
</mgrwt>
</event>
<event>
 5    1  0.1607476E-006  0.2000260E+02  0.7818608E-02  0.1745276E+00
         -2   -1    0    0    0  501 -0.00000000000E+00  0.00000000000E+00  0.19715938646E+01  0.19715955790E+01  0.26000000000E-02 0.  1.
          2   -1    0    0  501    0  0.00000000000E+00 -0.00000000000E+00 -0.50733567805E+02  0.50733567872E+02  0.26000000000E-02 0. -1.
       1023    2    1    2    0    0  0.00000000000E+00  0.00000000000E+00 -0.48761973941E+02  0.52705163451E+02  0.20002603625E+02 0.  0.
        -13    1    3    3    0    0  0.53944667484E+01 -0.84206695519E+01 -0.24600148796E+02  0.26555346740E+02  0.10570000000E+00 0. -1.
         13    1    3    3    0    0 -0.53944667484E+01  0.84206695519E+01 -0.24161825145E+02  0.26149816711E+02  0.10570000000E+00 0.  1.
<mgrwt>
<rscale>  0 0.20002604E+02</rscale>
<asrwt>0</asrwt>
<pdfrwt beam="2">  1        2 0.78051634E-02 0.20002604E+02</pdfrwt>
<pdfrwt beam="1">  1       -2 0.30332231E-03 0.20002604E+02</pdfrwt>
<totfact> 0.46416998E+06</totfact>
</mgrwt>
</event>
<event>
 5    1  0.1607476E-006  0.2000768E+02  0.7818608E-02  0.1745175E+00
         -2   -1    0    0    0  501 -0.00000000000E+00  0.00000000000E+00  0.41981109409E+01  0.41981117460E+01  0.26000000000E-02 0.  1.
          2   -1    0    0  501    0  0.00000000000E+00 -0.00000000000E+00 -0.23838543210E+02  0.23838543352E+02  0.26000000000E-02 0. -1.
       1023    2    1    2    0    0  0.00000000000E+00  0.00000000000E+00 -0.19640432269E+02  0.28036655098E+02  0.20007684757E+02 0.  0.
        -13    1    3    3    0    0  0.99550609007E+01 -0.98067775019E+00 -0.98579070755E+01  0.14044731068E+02  0.10570000000E+00 0.  1.
         13    1    3    3    0    0 -0.99550609007E+01  0.98067775019E+00 -0.97825251934E+01  0.13991924029E+02  0.10570000000E+00 0. -1.
<mgrwt>
<rscale>  0 0.20007685E+02</rscale>
<asrwt>0</asrwt>
<pdfrwt beam="2">  1        2 0.36674682E-02 0.20007685E+02</pdfrwt>
<pdfrwt beam="1">  1       -2 0.64586331E-03 0.20007685E+02</pdfrwt>
<totfact> 0.42322557E+06</totfact>
</mgrwt>
</event>
<event>
 5    1  0.1607476E-006  0.2000144E+02  0.7818608E-02  0.1745299E+00
          2   -1    0    0  501    0  0.00000000000E+00  0.00000000000E+00  0.12904740495E+02  0.12904740756E+02  0.26000000000E-02 0. -1.
         -2   -1    0    0    0  501 -0.00000000000E+00 -0.00000000000E+00 -0.77502069635E+01  0.77502073996E+01  0.26000000000E-02 0.  1.
       1023    2    1    2    0    0  0.00000000000E+00  0.00000000000E+00  0.51545335311E+01  0.20654948156E+02  0.20001441633E+02 0.  0.
        -13    1    3    3    0    0  0.91562521418E+01 -0.40203968292E+01  0.25236034053E+01  0.10314082149E+02  0.10570000000E+00 0.  1.
         13    1    3    3    0    0 -0.91562521418E+01  0.40203968292E+01  0.26309301258E+01  0.10340866007E+02  0.10570000000E+00 0. -1.
<mgrwt>
<rscale>  0 0.20001442E+02</rscale>
<asrwt>0</asrwt>
<pdfrwt beam="1">  1        2 0.19853447E-02 0.20001442E+02</pdfrwt>
<pdfrwt beam="2">  1       -2 0.11923396E-02 0.20001442E+02</pdfrwt>
<totfact> 0.40211986E+06</totfact>
</mgrwt>
</event>
<event>
 5    1  0.1607476E-006  0.2000918E+02  0.7818608E-02  0.1745146E+00
          2   -1    0    0  501    0  0.00000000000E+00  0.00000000000E+00  0.18319056433E+02  0.18319056617E+02  0.26000000000E-02 0.  1.
         -2   -1    0    0    0  501 -0.00000000000E+00 -0.00000000000E+00 -0.54638060473E+01  0.54638066659E+01  0.26000000000E-02 0. -1.
       1023    2    1    2    0    0  0.00000000000E+00  0.00000000000E+00  0.12855250386E+02  0.23782863283E+02  0.20009175982E+02 0.  0.
        -13    1    3    3    0    0  0.99794238989E+01  0.69892710188E+00  0.64949457094E+01  0.11927820115E+02  0.10570000000E+00 0. -1.
         13    1    3    3    0    0 -0.99794238989E+01 -0.69892710188E+00  0.63603046761E+01  0.11855043168E+02  0.10570000000E+00 0.  1.
<mgrwt>
<rscale>  0 0.20009176E+02</rscale>
<asrwt>0</asrwt>
<pdfrwt beam="1">  1        2 0.28183164E-02 0.20009176E+02</pdfrwt>
<pdfrwt beam="2">  1       -2 0.84058561E-03 0.20009176E+02</pdfrwt>
<totfact> 0.41318928E+06</totfact>
</mgrwt>
</event>
<event>
 5    1  0.1607476E-006  0.2000369E+02  0.7818608E-02  0.1745255E+00
          2   -1    0    0  501    0  0.00000000000E+00  0.00000000000E+00  0.92025090146E+02  0.92025090183E+02  0.26000000000E-02 0.  1.
         -2   -1    0    0    0  501 -0.00000000000E+00 -0.00000000000E+00 -0.10870600840E+01  0.10870631933E+01  0.26000000000E-02 0. -1.
       1023    2    1    2    0    0  0.00000000000E+00  0.00000000000E+00  0.90938030062E+02  0.93112153376E+02  0.20003694528E+02 0.  0.
        -13    1    3    3    0    0  0.84052561305E+01  0.54183801529E+01  0.46103873849E+02  0.47176111863E+02  0.10570000000E+00 0.  1.
         13    1    3    3    0    0 -0.84052561305E+01 -0.54183801529E+01  0.44834156213E+02  0.45936041513E+02  0.10570000000E+00 0. -1.
<mgrwt>
<rscale>  0 0.20003695E+02</rscale>
<asrwt>0</asrwt>
<pdfrwt beam="1">  1        2 0.14157710E-01 0.20003695E+02</pdfrwt>
<pdfrwt beam="2">  1       -2 0.16724021E-03 0.20003695E+02</pdfrwt>
<totfact> 0.51771873E+06</totfact>
</mgrwt>
</event>
<event>
 5    1  0.1607476E-006  0.2000554E+02  0.7818608E-02  0.1745218E+00
         -2   -1    0    0    0  501 -0.00000000000E+00  0.00000000000E+00  0.23738715191E+02  0.23738715334E+02  0.26000000000E-02 0.  1.
          2   -1    0    0  501    0  0.00000000000E+00 -0.00000000000E+00 -0.42148626246E+01  0.42148634265E+01  0.26000000000E-02 0. -1.
       1023    2    1    2    0    0  0.00000000000E+00  0.00000000000E+00  0.19523852567E+02  0.27953578760E+02  0.20005542893E+02 0.  0.
        -13    1    3    3    0    0 -0.50550335077E+01 -0.86298039297E+01  0.95776929827E+01  0.13848113770E+02  0.10570000000E+00 0. -1.
         13    1    3    3    0    0  0.50550335077E+01  0.86298039297E+01  0.99461595841E+01  0.14105464990E+02  0.10570000000E+00 0.  1.
<mgrwt>
<rscale>  0 0.20005543E+02</rscale>
<asrwt>0</asrwt>
<pdfrwt beam="2">  1        2 0.64844050E-03 0.20005543E+02</pdfrwt>
<pdfrwt beam="1">  1       -2 0.36521100E-02 0.20005543E+02</pdfrwt>
<totfact> 0.36860454E+06</totfact>
</mgrwt>
</event>
<event>
 5    1  0.1607476E-006  0.2000332E+02  0.7818608E-02  0.1745262E+00
         -2   -1    0    0    0  501 -0.00000000000E+00  0.00000000000E+00  0.14303657011E+02  0.14303657247E+02  0.26000000000E-02 0.  1.
          2   -1    0    0  501    0  0.00000000000E+00 -0.00000000000E+00 -0.69935372000E+01  0.69935376833E+01  0.26000000000E-02 0. -1.
       1023    2    1    2    0    0  0.00000000000E+00  0.00000000000E+00  0.73101198110E+01  0.21297194931E+02  0.20003316232E+02 0.  0.
        -13    1    3    3    0    0 -0.86532357452E+01 -0.50142475459E+01  0.36856454336E+01  0.10659095743E+02  0.10570000000E+00 0. -1.
         13    1    3    3    0    0  0.86532357452E+01  0.50142475459E+01  0.36244743774E+01  0.10638099187E+02  0.10570000000E+00 0.  1.
<mgrwt>
<rscale>  0 0.20003316E+02</rscale>
<asrwt>0</asrwt>
<pdfrwt beam="2">  1        2 0.10759289E-02 0.20003316E+02</pdfrwt>
<pdfrwt beam="1">  1       -2 0.22005627E-02 0.20003316E+02</pdfrwt>
<totfact> 0.38421826E+06</totfact>
</mgrwt>
</event>
<event>
 5    1  0.1607476E-006  0.2000353E+02  0.7818608E-02  0.1745258E+00
         -2   -1    0    0    0  501 -0.00000000000E+00  0.00000000000E+00  0.11652829525E+02  0.11652829815E+02  0.26000000000E-02 0.  1.
          2   -1    0    0  501    0  0.00000000000E+00 -0.00000000000E+00 -0.85846390323E+01  0.85846394261E+01  0.26000000000E-02 0. -1.
       1023    2    1    2    0    0  0.00000000000E+00  0.00000000000E+00  0.30681904928E+01  0.20237469241E+02  0.20003533898E+02 0.  0.
        -13    1    3    3    0    0 -0.82959725786E+01 -0.55853510657E+01  0.16046391506E+01  0.10129429739E+02  0.10570000000E+00 0. -1.
         13    1    3    3    0    0  0.82959725786E+01  0.55853510657E+01  0.14635513422E+01  0.10108039502E+02  0.10570000000E+00 0.  1.
<mgrwt>
<rscale>  0 0.20003534E+02</rscale>
<asrwt>0</asrwt>
<pdfrwt beam="2">  1        2 0.13207138E-02 0.20003534E+02</pdfrwt>
<pdfrwt beam="1">  1       -2 0.17927430E-02 0.20003534E+02</pdfrwt>
<totfact> 0.39009034E+06</totfact>
</mgrwt>
</event>
<event>
 5    1  0.1607476E-006  0.2000116E+02  0.7818608E-02  0.1745305E+00
         -2   -1    0    0    0  501 -0.00000000000E+00  0.00000000000E+00  0.30143827673E+01  0.30143838886E+01  0.26000000000E-02 0.  1.
          2   -1    0    0  501    0  0.00000000000E+00 -0.00000000000E+00 -0.33178140205E+02  0.33178140307E+02  0.26000000000E-02 0. -1.
       1023    2    1    2    0    0  0.00000000000E+00  0.00000000000E+00 -0.30163757438E+02  0.36192524195E+02  0.20001163588E+02 0.  0.
        -13    1    3    3    0    0  0.17749111378E+01  0.98412443343E+01 -0.15096370102E+02  0.18108339580E+02  0.10570000000E+00 0.  1.
         13    1    3    3    0    0 -0.17749111378E+01 -0.98412443343E+01 -0.15067387336E+02  0.18084184616E+02  0.10570000000E+00 0. -1.
<mgrwt>
<rscale>  0 0.20001164E+02</rscale>
<asrwt>0</asrwt>
<pdfrwt beam="2">  1        2 0.51043291E-02 0.20001164E+02</pdfrwt>
<pdfrwt beam="1">  1       -2 0.46375131E-03 0.20001164E+02</pdfrwt>
<totfact> 0.43864435E+06</totfact>
</mgrwt>
</event>
<event>
 5    1  0.1607476E-006  0.2000166E+02  0.7818608E-02  0.1745295E+00
         -2   -1    0    0    0  501 -0.00000000000E+00  0.00000000000E+00  0.27590015413E+02  0.27590015535E+02  0.26000000000E-02 0. -1.
          2   -1    0    0  501    0  0.00000000000E+00 -0.00000000000E+00 -0.36250999045E+01  0.36251008369E+01  0.26000000000E-02 0.  1.
       1023    2    1    2    0    0  0.00000000000E+00  0.00000000000E+00  0.23964915508E+02  0.31215116372E+02  0.20001657801E+02 0.  0.
        -13    1    3    3    0    0 -0.68871935206E+01 -0.72505758437E+01  0.12034722586E+02  0.15647683690E+02  0.10570000000E+00 0. -1.
         13    1    3    3    0    0  0.68871935206E+01  0.72505758437E+01  0.11930192923E+02  0.15567432682E+02  0.10570000000E+00 0.  1.
<mgrwt>
<rscale>  0 0.20001658E+02</rscale>
<asrwt>0</asrwt>
<pdfrwt beam="2">  1        2 0.55770778E-03 0.20001658E+02</pdfrwt>
<pdfrwt beam="1">  1       -2 0.42446177E-02 0.20001658E+02</pdfrwt>
<totfact> 0.36360739E+06</totfact>
</mgrwt>
</event>
<event>
 4    1  0.1607476E-006  0.2020151E+02  0.7818608E-02  0.1741350E+00
          2   -1    0    0  501    0  0.00000000000E+00  0.00000000000E+00  0.59275426721E+01  0.59275432423E+01  0.26000000000E-02 0. -1.
         -2   -1    0    0    0  501 -0.00000000000E+00 -0.00000000000E+00 -0.17212069587E+02  0.17212069784E+02  0.26000000000E-02 0.  1.
        -13    1    1    2    0    0  0.52610557388E+01 -0.85724490312E+01 -0.66973889394E+01  0.12084361008E+02  0.10570000000E+00 0. -1.
         13    1    1    2    0    0 -0.52610557388E+01  0.85724490312E+01 -0.45871379758E+01  0.11055252018E+02  0.10570000000E+00 0.  1.
<mgrwt>
<rscale>  0 0.20201513E+02</rscale>
<asrwt>0</asrwt>
<pdfrwt beam="1">  1        2 0.91192971E-03 0.20201513E+02</pdfrwt>
<pdfrwt beam="2">  1       -2 0.26480108E-02 0.20201513E+02</pdfrwt>
<totfact> 0.37078244E+06</totfact>
</mgrwt>
</event>
<event>
 5    1  0.1607476E-006  0.2000788E+02  0.7818608E-02  0.1745171E+00
         -2   -1    0    0    0  501 -0.00000000000E+00  0.00000000000E+00  0.10345890187E+02  0.10345890514E+02  0.26000000000E-02 0.  1.
          2   -1    0    0  501    0  0.00000000000E+00 -0.00000000000E+00 -0.96732920036E+01  0.96732923530E+01  0.26000000000E-02 0. -1.
       1023    2    1    2    0    0  0.00000000000E+00  0.00000000000E+00  0.67259818336E+00  0.20019182867E+02  0.20007880806E+02 0.  0.
        -13    1    3    3    0    0  0.72043200577E+01 -0.69397000928E+01  0.25888471454E+00  0.10006990490E+02  0.10570000000E+00 0.  1.
         13    1    3    3    0    0 -0.72043200577E+01  0.69397000928E+01  0.41371346882E+00  0.10012192377E+02  0.10570000000E+00 0. -1.
<mgrwt>
<rscale>  0 0.20007881E+02</rscale>
<asrwt>0</asrwt>
<pdfrwt beam="2">  1        2 0.14881988E-02 0.20007881E+02</pdfrwt>
<pdfrwt beam="1">  1       -2 0.15916755E-02 0.20007881E+02</pdfrwt>
<totfact> 0.39331859E+06</totfact>
</mgrwt>
</event>
<event>
 5    1  0.1649820E-006  0.2000207E+02  0.7818608E-02  0.1745287E+00
         -2   -1    0    0    0  501 -0.00000000000E+00  0.00000000000E+00  0.96412571933E+00  0.96412922509E+00  0.26000000000E-02 0.  1.
          2   -1    0    0  501    0  0.00000000000E+00 -0.00000000000E+00 -0.10374216693E+03  0.10374216696E+03  0.26000000000E-02 0. -1.
       1023    2    1    2    0    0  0.00000000000E+00  0.00000000000E+00 -0.10277804121E+03  0.10470629618E+03  0.20002067549E+02 0.  0.
        -13    1    3    3    0    0 -0.84539587284E+01 -0.53422816878E+01 -0.51444482924E+02  0.52407589027E+02  0.10570000000E+00 0.  1.
         13    1    3    3    0    0  0.84539587284E+01  0.53422816878E+01 -0.51333558283E+02  0.52298707158E+02  0.10570000000E+00 0. -1.
<mgrwt>
<rscale>  0 0.20002068E+02</rscale>
<asrwt>0</asrwt>
<pdfrwt beam="2">  1        2 0.15960325E-01 0.20002068E+02</pdfrwt>
<pdfrwt beam="1">  1       -2 0.14832739E-03 0.20002068E+02</pdfrwt>
<totfact> 0.53191793E+06</totfact>
</mgrwt>
</event>
<event>
 5    1  0.1607476E-006  0.2000129E+02  0.7818608E-02  0.1745302E+00
         -2   -1    0    0    0  501 -0.00000000000E+00  0.00000000000E+00  0.69252296632E+02  0.69252296681E+02  0.26000000000E-02 0.  1.
          2   -1    0    0  501    0  0.00000000000E+00 -0.00000000000E+00 -0.14441803770E+01  0.14441827174E+01  0.26000000000E-02 0. -1.
       1023    2    1    2    0    0  0.00000000000E+00  0.00000000000E+00  0.67808116255E+02  0.70696479398E+02  0.20001289190E+02 0.  0.
        -13    1    3    3    0    0 -0.31046336159E+01  0.95059101823E+01  0.33993584800E+02  0.35434108685E+02  0.10570000000E+00 0. -1.
         13    1    3    3    0    0  0.31046336159E+01 -0.95059101823E+01  0.33814531455E+02  0.35262370713E+02  0.10570000000E+00 0.  1.
<mgrwt>
<rscale>  0 0.20001289E+02</rscale>
<asrwt>0</asrwt>
<pdfrwt beam="2">  1        2 0.22218179E-03 0.20001289E+02</pdfrwt>
<pdfrwt beam="1">  1       -2 0.10654199E-01 0.20001289E+02</pdfrwt>
<totfact> 0.32142347E+06</totfact>
</mgrwt>
</event>
<event>
 4    1  0.1607476E-006  0.2033445E+02  0.7818608E-02  0.1738758E+00
         -2   -1    0    0    0  501 -0.00000000000E+00  0.00000000000E+00  0.26084748317E+01  0.26084761274E+01  0.26000000000E-02 0.  1.
          2   -1    0    0  501    0  0.00000000000E+00 -0.00000000000E+00 -0.39629441425E+02  0.39629441510E+02  0.26000000000E-02 0. -1.
        -13    1    1    2    0    0 -0.84217012225E+01  0.56494793081E+01 -0.17013212902E+02  0.19806621460E+02  0.10570000000E+00 0.  1.
         13    1    1    2    0    0  0.84217012225E+01 -0.56494793081E+01 -0.20007753692E+02  0.22431296178E+02  0.10570000000E+00 0. -1.
<mgrwt>
<rscale>  0 0.20334447E+02</rscale>
<asrwt>0</asrwt>
<pdfrwt beam="2">  1        2 0.60968368E-02 0.20334447E+02</pdfrwt>
<pdfrwt beam="1">  1       -2 0.40130396E-03 0.20334447E+02</pdfrwt>
<totfact> 0.43208029E+06</totfact>
</mgrwt>
</event>
<event>
 5    1  0.1607476E-006  0.2000242E+02  0.7818608E-02  0.1745280E+00
         -2   -1    0    0    0  501 -0.00000000000E+00  0.00000000000E+00  0.62954668211E+02  0.62954668265E+02  0.26000000000E-02 0. -1.
          2   -1    0    0  501    0  0.00000000000E+00 -0.00000000000E+00 -0.15888284686E+01  0.15888305960E+01  0.26000000000E-02 0.  1.
       1023    2    1    2    0    0  0.00000000000E+00  0.00000000000E+00  0.61365839742E+02  0.64543498861E+02  0.20002423800E+02 0.  0.
        -13    1    3    3    0    0  0.42096129218E+01  0.90710722762E+01  0.30396593181E+02  0.31999519414E+02  0.10570000000E+00 0.  1.
         13    1    3    3    0    0 -0.42096129218E+01 -0.90710722762E+01  0.30969246561E+02  0.32543979447E+02  0.10570000000E+00 0. -1.
<mgrwt>
<rscale>  0 0.20002424E+02</rscale>
<asrwt>0</asrwt>
<pdfrwt beam="2">  1        2 0.24443532E-03 0.20002424E+02</pdfrwt>
<pdfrwt beam="1">  1       -2 0.96853336E-02 0.20002424E+02</pdfrwt>
<totfact> 0.32686283E+06</totfact>
</mgrwt>
</event>
<event>
 5    1  0.1607476E-006  0.2000684E+02  0.7818608E-02  0.1745192E+00
         -2   -1    0    0    0  501 -0.00000000000E+00  0.00000000000E+00  0.11464169299E+01  0.11464198782E+01  0.26000000000E-02 0.  1.
          2   -1    0    0  501    0  0.00000000000E+00 -0.00000000000E+00 -0.87287832545E+02  0.87287832584E+02  0.26000000000E-02 0. -1.
       1023    2    1    2    0    0  0.00000000000E+00  0.00000000000E+00 -0.86141415615E+02  0.88434252462E+02  0.20006836940E+02 0.  0.
        -13    1    3    3    0    0 -0.55282450074E+01 -0.83361505674E+01 -0.43360878132E+02  0.44499773303E+02  0.10570000000E+00 0. -1.
         13    1    3    3    0    0  0.55282450074E+01  0.83361505674E+01 -0.42780537483E+02  0.43934479159E+02  0.10570000000E+00 0.  1.
<mgrwt>
<rscale>  0 0.20006837E+02</rscale>
<asrwt>0</asrwt>
<pdfrwt beam="2">  1        2 0.13428892E-01 0.20006837E+02</pdfrwt>
<pdfrwt beam="1">  1       -2 0.17637213E-03 0.20006837E+02</pdfrwt>
<totfact> 0.51171406E+06</totfact>
</mgrwt>
</event>
<event>
 5    1  0.1607476E-006  0.2000666E+02  0.7818608E-02  0.1745196E+00
          2   -1    0    0  501    0  0.00000000000E+00  0.00000000000E+00  0.37785756854E+02  0.37785756944E+02  0.26000000000E-02 0.  1.
         -2   -1    0    0    0  501 -0.00000000000E+00 -0.00000000000E+00 -0.26482617941E+01  0.26482630704E+01  0.26000000000E-02 0. -1.
       1023    2    1    2    0    0  0.00000000000E+00  0.00000000000E+00  0.35137495060E+02  0.40434020014E+02  0.20006659276E+02 0.  0.
        -13    1    3    3    0    0  0.99813540285E+01  0.65382637624E+00  0.17614575714E+02  0.20256835075E+02  0.10570000000E+00 0. -1.
         13    1    3    3    0    0 -0.99813540285E+01 -0.65382637624E+00  0.17522919346E+02  0.20177184939E+02  0.10570000000E+00 0.  1.
<mgrwt>
<rscale>  0 0.20006659E+02</rscale>
<asrwt>0</asrwt>
<pdfrwt beam="1">  1        2 0.58131931E-02 0.20006659E+02</pdfrwt>
<pdfrwt beam="2">  1       -2 0.40742502E-03 0.20006659E+02</pdfrwt>
<totfact> 0.44535320E+06</totfact>
</mgrwt>
</event>
<event>
 5    1  0.1607476E-006  0.2000155E+02  0.7818608E-02  0.1745297E+00
          2   -1    0    0  501    0  0.00000000000E+00  0.00000000000E+00  0.29735881376E+01  0.29735892743E+01  0.26000000000E-02 0.  1.
         -2   -1    0    0    0  501 -0.00000000000E+00 -0.00000000000E+00 -0.33634609380E+02  0.33634609481E+02  0.26000000000E-02 0. -1.
       1023    2    1    2    0    0  0.00000000000E+00  0.00000000000E+00 -0.30661021243E+02  0.36608198755E+02  0.20001549751E+02 0.  0.
        -13    1    3    3    0    0 -0.59675736973E+01  0.80244541158E+01 -0.15288536667E+02  0.18268944294E+02  0.10570000000E+00 0.  1.
         13    1    3    3    0    0  0.59675736973E+01 -0.80244541158E+01 -0.15372484576E+02  0.18339254462E+02  0.10570000000E+00 0. -1.
<mgrwt>
<rscale>  0 0.20001550E+02</rscale>
<asrwt>0</asrwt>
<pdfrwt beam="1">  1        2 0.45747522E-03 0.20001550E+02</pdfrwt>
<pdfrwt beam="2">  1       -2 0.51745551E-02 0.20001550E+02</pdfrwt>
<totfact> 0.35624035E+06</totfact>
</mgrwt>
</event>
<event>
 5    1  0.1607476E-006  0.2000471E+02  0.7818608E-02  0.1745234E+00
         -2   -1    0    0    0  501 -0.00000000000E+00  0.00000000000E+00  0.12388490537E+02  0.12388490810E+02  0.26000000000E-02 0. -1.
          2   -1    0    0  501    0  0.00000000000E+00 -0.00000000000E+00 -0.80758094723E+01  0.80758098908E+01  0.26000000000E-02 0.  1.
       1023    2    1    2    0    0  0.00000000000E+00  0.00000000000E+00  0.43126810644E+01  0.20464300700E+02  0.20004709075E+02 0.  0.
        -13    1    3    3    0    0 -0.99429270084E+01  0.10834780110E+01  0.21418116609E+01  0.10229088511E+02  0.10570000000E+00 0.  1.
         13    1    3    3    0    0  0.99429270084E+01 -0.10834780110E+01  0.21708694035E+01  0.10235212189E+02  0.10570000000E+00 0. -1.
<mgrwt>
<rscale>  0 0.20004709E+02</rscale>
<asrwt>0</asrwt>
<pdfrwt beam="2">  1        2 0.12424323E-02 0.20004709E+02</pdfrwt>
<pdfrwt beam="1">  1       -2 0.19059217E-02 0.20004709E+02</pdfrwt>
<totfact> 0.38829044E+06</totfact>
</mgrwt>
</event>
<event>
 4    1  0.1607476E-006  0.2003331E+02  0.7818608E-02  0.1744667E+00
          2   -1    0    0  501    0  0.00000000000E+00  0.00000000000E+00  0.68124698741E+02  0.68124698791E+02  0.26000000000E-02 0.  1.
         -2   -1    0    0    0  501 -0.00000000000E+00 -0.00000000000E+00 -0.14727884540E+01  0.14727907489E+01  0.26000000000E-02 0. -1.
        -13    1    1    2    0    0  0.97332257605E+01 -0.23635755295E+01  0.33334354711E+02  0.34806788841E+02  0.10570000000E+00 0. -1.
         13    1    1    2    0    0 -0.97332257605E+01  0.23635755295E+01  0.33317555577E+02  0.34790700698E+02  0.10570000000E+00 0.  1.
<mgrwt>
<rscale>  0 0.20033307E+02</rscale>
<asrwt>0</asrwt>
<pdfrwt beam="1">  1        2 0.10480722E-01 0.20033307E+02</pdfrwt>
<pdfrwt beam="2">  1       -2 0.22658305E-03 0.20033307E+02</pdfrwt>
<totfact> 0.48595508E+06</totfact>
</mgrwt>
</event>
<event>
 4    1  0.1607476E-006  0.2001744E+02  0.7818608E-02  0.1744981E+00
         -2   -1    0    0    0  501 -0.00000000000E+00  0.00000000000E+00  0.59591342336E+02  0.59591342392E+02  0.26000000000E-02 0. -1.
          2   -1    0    0  501    0  0.00000000000E+00 -0.00000000000E+00 -0.16810228326E+01  0.16810248433E+01  0.26000000000E-02 0.  1.
        -13    1    1    2    0    0 -0.62879583501E+01  0.77814805449E+01  0.28125657976E+02  0.29852197051E+02  0.10570000000E+00 0.  1.
         13    1    1    2    0    0  0.62879583501E+01 -0.77814805449E+01  0.29784661527E+02  0.31420170185E+02  0.10570000000E+00 0. -1.
<mgrwt>
<rscale>  0 0.20017439E+02</rscale>
<asrwt>0</asrwt>
<pdfrwt beam="2">  1        2 0.25861905E-03 0.20017439E+02</pdfrwt>
<pdfrwt beam="1">  1       -2 0.91678991E-02 0.20017439E+02</pdfrwt>
<totfact> 0.32934280E+06</totfact>
</mgrwt>
</event>
<event>
 5    1  0.1607476E-006  0.2000351E+02  0.7818608E-02  0.1745258E+00
         -2   -1    0    0    0  501 -0.00000000000E+00  0.00000000000E+00  0.38811308666E+02  0.38811308753E+02  0.26000000000E-02 0. -1.
          2   -1    0    0  501    0  0.00000000000E+00 -0.00000000000E+00 -0.25774724195E+01  0.25774737308E+01  0.26000000000E-02 0.  1.
       1023    2    1    2    0    0  0.00000000000E+00  0.00000000000E+00  0.36233836247E+02  0.41388782484E+02  0.20003510351E+02 0.  0.
        -13    1    3    3    0    0 -0.18099433832E+01  0.98360224191E+01  0.18171739761E+02  0.20742384880E+02  0.10570000000E+00 0. -1.
         13    1    3    3    0    0  0.18099433832E+01 -0.98360224191E+01  0.18062096486E+02  0.20646397604E+02  0.10570000000E+00 0.  1.
<mgrwt>
<rscale>  0 0.20003510E+02</rscale>
<asrwt>0</asrwt>
<pdfrwt beam="2">  1        2 0.39653435E-03 0.20003510E+02</pdfrwt>
<pdfrwt beam="1">  1       -2 0.59709703E-02 0.20003510E+02</pdfrwt>
<totfact> 0.35035448E+06</totfact>
</mgrwt>
</event>
<event>
 5    1  0.1607476E-006  0.2000699E+02  0.7818608E-02  0.1745189E+00
         -2   -1    0    0    0  501 -0.00000000000E+00  0.00000000000E+00  0.13063511410E+01  0.13063537283E+01  0.26000000000E-02 0.  1.
          2   -1    0    0  501    0  0.00000000000E+00 -0.00000000000E+00 -0.76602545561E+02  0.76602545605E+02  0.26000000000E-02 0. -1.
       1023    2    1    2    0    0  0.00000000000E+00  0.00000000000E+00 -0.75296194420E+02  0.77908899333E+02  0.20006991308E+02 0.  0.
        -13    1    3    3    0    0  0.63048412862E+01 -0.77639907264E+01 -0.36994434115E+02  0.38322707415E+02  0.10570000000E+00 0.  1.
         13    1    3    3    0    0 -0.63048412862E+01  0.77639907264E+01 -0.38301760305E+02  0.39586191918E+02  0.10570000000E+00 0. -1.
<mgrwt>
<rscale>  0 0.20006991E+02</rscale>
<asrwt>0</asrwt>
<pdfrwt beam="2">  1        2 0.11785004E-01 0.20006991E+02</pdfrwt>
<pdfrwt beam="1">  1       -2 0.20097736E-03 0.20006991E+02</pdfrwt>
<totfact> 0.49830537E+06</totfact>
</mgrwt>
</event>
<event>
 4    1  0.1607476E-006  0.2002880E+02  0.7818608E-02  0.1744756E+00
          2   -1    0    0  501    0  0.00000000000E+00  0.00000000000E+00  0.60541863323E+02  0.60541863379E+02  0.26000000000E-02 0.  1.
         -2   -1    0    0    0  501 -0.00000000000E+00 -0.00000000000E+00 -0.16565084302E+01  0.16565104707E+01  0.26000000000E-02 0. -1.
        -13    1    1    2    0    0 -0.50346759403E+01  0.86467811371E+01  0.30693420519E+02  0.32283308714E+02  0.10570000000E+00 0.  1.
         13    1    1    2    0    0  0.50346759403E+01 -0.86467811371E+01  0.28191934374E+02  0.29915065136E+02  0.10570000000E+00 0. -1.
<mgrwt>
<rscale>  0 0.20028796E+02</rscale>
<asrwt>0</asrwt>
<pdfrwt beam="1">  1        2 0.93141324E-02 0.20028796E+02</pdfrwt>
<pdfrwt beam="2">  1       -2 0.25484763E-03 0.20028796E+02</pdfrwt>
<totfact> 0.47618064E+06</totfact>
</mgrwt>
</event>
<event>
 4    1  0.1607476E-006  0.2002672E+02  0.7818608E-02  0.1744797E+00
          2   -1    0    0  501    0  0.00000000000E+00  0.00000000000E+00  0.46183428409E+02  0.46183428483E+02  0.26000000000E-02 0. -1.
         -2   -1    0    0    0  501 -0.00000000000E+00 -0.00000000000E+00 -0.21710671738E+01  0.21710687307E+01  0.26000000000E-02 0.  1.
        -13    1    1    2    0    0  0.52577189847E+01  0.85137956160E+01  0.22869571259E+02  0.24963108516E+02  0.10570000000E+00 0. -1.
         13    1    1    2    0    0 -0.52577189847E+01 -0.85137956160E+01  0.21142789977E+02  0.23391388698E+02  0.10570000000E+00 0.  1.
<mgrwt>
<rscale>  0 0.20026719E+02</rscale>
<asrwt>0</asrwt>
<pdfrwt beam="1">  1        2 0.71051427E-02 0.20026719E+02</pdfrwt>
<pdfrwt beam="2">  1       -2 0.33401047E-03 0.20026719E+02</pdfrwt>
<totfact> 0.45654026E+06</totfact>
</mgrwt>
</event>
<event>
 5    1  0.1607476E-006  0.2000247E+02  0.7818608E-02  0.1745279E+00
         -2   -1    0    0    0  501 -0.00000000000E+00  0.00000000000E+00  0.44233962480E+01  0.44233970122E+01  0.26000000000E-02 0.  1.
          2   -1    0    0  501    0  0.00000000000E+00 -0.00000000000E+00 -0.22612646728E+02  0.22612646877E+02  0.26000000000E-02 0. -1.
       1023    2    1    2    0    0  0.00000000000E+00  0.00000000000E+00 -0.18189250480E+02  0.27036043890E+02  0.20002470752E+02 0.  0.
        -13    1    3    3    0    0 -0.34482786942E+01 -0.93873342223E+01 -0.90548311146E+01  0.13491249340E+02  0.10570000000E+00 0.  1.
         13    1    3    3    0    0  0.34482786942E+01  0.93873342223E+01 -0.91344193653E+01  0.13544794549E+02  0.10570000000E+00 0. -1.
<mgrwt>
<rscale>  0 0.20002471E+02</rscale>
<asrwt>0</asrwt>
<pdfrwt beam="2">  1        2 0.34788687E-02 0.20002471E+02</pdfrwt>
<pdfrwt beam="1">  1       -2 0.68052258E-03 0.20002471E+02</pdfrwt>
<totfact> 0.42135023E+06</totfact>
</mgrwt>
</event>
<event>
 5    1  0.1777796E-006  0.2000168E+02  0.7818608E-02  0.1745295E+00
          2   -1    0    0  501    0  0.00000000000E+00  0.00000000000E+00  0.63660429892E+02  0.63660429945E+02  0.26000000000E-02 0.  1.
         -2   -1    0    0    0  501 -0.00000000000E+00 -0.00000000000E+00 -0.15710980716E+01  0.15711002230E+01  0.26000000000E-02 0. -1.
       1023    2    1    2    0    0  0.00000000000E+00  0.00000000000E+00  0.62089331820E+02  0.65231530168E+02  0.20001684983E+02 0.  0.
        -13    1    3    3    0    0 -0.84090566927E+01 -0.54120866587E+01  0.30873281792E+02  0.32452636527E+02  0.10570000000E+00 0. -1.
         13    1    3    3    0    0  0.84090566927E+01  0.54120866587E+01  0.31216050028E+02  0.32778893640E+02  0.10570000000E+00 0.  1.
<mgrwt>
<rscale>  0 0.20001685E+02</rscale>
<asrwt>0</asrwt>
<pdfrwt beam="1">  1        2 0.97939105E-02 0.20001685E+02</pdfrwt>
<pdfrwt beam="2">  1       -2 0.24170761E-03 0.20001685E+02</pdfrwt>
<totfact> 0.48177872E+06</totfact>
</mgrwt>
</event>
<event>
 5    1  0.1607476E-006  0.2000248E+02  0.7818608E-02  0.1745279E+00
         -2   -1    0    0    0  501 -0.00000000000E+00  0.00000000000E+00  0.22788753924E+01  0.22788768755E+01  0.26000000000E-02 0. -1.
          2   -1    0    0  501    0  0.00000000000E+00 -0.00000000000E+00 -0.43892164615E+02  0.43892164692E+02  0.26000000000E-02 0.  1.
       1023    2    1    2    0    0  0.00000000000E+00  0.00000000000E+00 -0.41613289222E+02  0.46171041567E+02  0.20002480834E+02 0.  0.
        -13    1    3    3    0    0 -0.82221533232E+01 -0.56923308473E+01 -0.21002529749E+02  0.23262069214E+02  0.10570000000E+00 0.  1.
         13    1    3    3    0    0  0.82221533232E+01  0.56923308473E+01 -0.20610759473E+02  0.22908972354E+02  0.10570000000E+00 0. -1.
<mgrwt>
<rscale>  0 0.20002481E+02</rscale>
<asrwt>0</asrwt>
<pdfrwt beam="2">  1        2 0.67526402E-02 0.20002481E+02</pdfrwt>
<pdfrwt beam="1">  1       -2 0.35059637E-03 0.20002481E+02</pdfrwt>
<totfact> 0.45449789E+06</totfact>
</mgrwt>
</event>
<event>
 4    1  0.1607476E-006  0.2010045E+02  0.7818608E-02  0.1743338E+00
          2   -1    0    0  501    0  0.00000000000E+00  0.00000000000E+00  0.59774223145E+01  0.59774228800E+01  0.26000000000E-02 0. -1.
         -2   -1    0    0    0  501 -0.00000000000E+00 -0.00000000000E+00 -0.16898087945E+02  0.16898088145E+02  0.26000000000E-02 0.  1.
        -13    1    1    2    0    0  0.55103415608E+01 -0.84014916135E+01 -0.57068449850E+01  0.11555439309E+02  0.10570000000E+00 0. -1.
         13    1    1    2    0    0 -0.55103415608E+01  0.84014916135E+01 -0.52138206456E+01  0.11320071716E+02  0.10570000000E+00 0.  1.
<mgrwt>
<rscale>  0 0.20100449E+02</rscale>
<asrwt>0</asrwt>
<pdfrwt beam="1">  1        2 0.91960350E-03 0.20100449E+02</pdfrwt>
<pdfrwt beam="2">  1       -2 0.25997059E-02 0.20100449E+02</pdfrwt>
<totfact> 0.37537791E+06</totfact>
</mgrwt>
</event>
<event>
 5    1  0.1607476E-006  0.2000235E+02  0.7818608E-02  0.1745281E+00
          2   -1    0    0  501    0  0.00000000000E+00  0.00000000000E+00  0.15953904709E+01  0.15953925895E+01  0.26000000000E-02 0. -1.
         -2   -1    0    0    0  501 -0.00000000000E+00 -0.00000000000E+00 -0.62695285275E+02  0.62695285329E+02  0.26000000000E-02 0.  1.
       1023    2    1    2    0    0  0.00000000000E+00  0.00000000000E+00 -0.61099894804E+02  0.64290677918E+02  0.20002352915E+02 0.  0.
        -13    1    3    3    0    0  0.45078642694E+00 -0.99901892676E+01 -0.30783234845E+02  0.32367048213E+02  0.10570000000E+00 0. -1.
         13    1    3    3    0    0 -0.45078642694E+00  0.99901892676E+01 -0.30316659959E+02  0.31923629705E+02  0.10570000000E+00 0.  1.
<mgrwt>
<rscale>  0 0.20002353E+02</rscale>
<asrwt>0</asrwt>
<pdfrwt beam="1">  1        2 0.24544490E-03 0.20002353E+02</pdfrwt>
<pdfrwt beam="2">  1       -2 0.96454268E-02 0.20002353E+02</pdfrwt>
<totfact> 0.32709587E+06</totfact>
</mgrwt>
</event>
<event>
 4    1  0.1607476E-006  0.2012634E+02  0.7818608E-02  0.1742827E+00
         -2   -1    0    0    0  501 -0.00000000000E+00  0.00000000000E+00  0.11188024211E+03  0.11188024214E+03  0.26000000000E-02 0. -1.
          2   -1    0    0  501    0  0.00000000000E+00 -0.00000000000E+00 -0.90513864896E+00  0.90514238319E+00  0.26000000000E-02 0.  1.
        -13    1    1    2    0    0 -0.45091137397E+01 -0.89950366659E+01  0.56135753797E+02  0.57030490250E+02  0.10570000000E+00 0. -1.
         13    1    1    2    0    0  0.45091137397E+01  0.89950366659E+01  0.54839349663E+02  0.55754894272E+02  0.10570000000E+00 0.  1.
<mgrwt>
<rscale>  0 0.20126335E+02</rscale>
<asrwt>0</asrwt>
<pdfrwt beam="2">  1        2 0.13925251E-03 0.20126335E+02</pdfrwt>
<pdfrwt beam="1">  1       -2 0.17212330E-01 0.20126335E+02</pdfrwt>
<totfact> 0.28496286E+06</totfact>
</mgrwt>
</event>
<event>
 5    1  0.1607476E-006  0.2000182E+02  0.7818608E-02  0.1745292E+00
          2   -1    0    0  501    0  0.00000000000E+00  0.00000000000E+00  0.71169931231E+01  0.71169935980E+01  0.26000000000E-02 0. -1.
         -2   -1    0    0    0  501 -0.00000000000E+00 -0.00000000000E+00 -0.14053437842E+02  0.14053438083E+02  0.26000000000E-02 0.  1.
       1023    2    1    2    0    0  0.00000000000E+00  0.00000000000E+00 -0.69364447193E+01  0.21170431681E+02  0.20001822722E+02 0.  0.
        -13    1    3    3    0    0  0.52002131921E+01  0.85415886709E+01 -0.33855479255E+01  0.10558127747E+02  0.10570000000E+00 0. -1.
         13    1    3    3    0    0 -0.52002131921E+01 -0.85415886709E+01 -0.35508967937E+01  0.10612303934E+02  0.10570000000E+00 0.  1.
<mgrwt>
<rscale>  0 0.20001823E+02</rscale>
<asrwt>0</asrwt>
<pdfrwt beam="1">  1        2 0.10949221E-02 0.20001823E+02</pdfrwt>
<pdfrwt beam="2">  1       -2 0.21620674E-02 0.20001823E+02</pdfrwt>
<totfact> 0.38479010E+06</totfact>
</mgrwt>
</event>
<event>
 5    1  0.1607476E-006  0.2000995E+02  0.7818608E-02  0.1745130E+00
         -2   -1    0    0    0  501 -0.00000000000E+00  0.00000000000E+00  0.14625883519E+01  0.14625906629E+01  0.26000000000E-02 0. -1.
          2   -1    0    0  501    0  0.00000000000E+00 -0.00000000000E+00 -0.68439958211E+02  0.68439958261E+02  0.26000000000E-02 0.  1.
       1023    2    1    2    0    0  0.00000000000E+00  0.00000000000E+00 -0.66977369859E+02  0.69902548923E+02  0.20009954341E+02 0.  0.
        -13    1    3    3    0    0 -0.65212004999E+01  0.75864732930E+01 -0.33796474241E+02  0.35246183858E+02  0.10570000000E+00 0.  1.
         13    1    3    3    0    0  0.65212004999E+01 -0.75864732930E+01 -0.33180895619E+02  0.34656365065E+02  0.10570000000E+00 0. -1.
<mgrwt>
<rscale>  0 0.20009954E+02</rscale>
<asrwt>0</asrwt>
<pdfrwt beam="2">  1        2 0.10529222E-01 0.20009954E+02</pdfrwt>
<pdfrwt beam="1">  1       -2 0.22501383E-03 0.20009954E+02</pdfrwt>
<totfact> 0.48762604E+06</totfact>
</mgrwt>
</event>
<event>
 5    1  0.1607476E-006  0.2000510E+02  0.7818608E-02  0.1745227E+00
         -2   -1    0    0    0  501 -0.00000000000E+00  0.00000000000E+00  0.20570435508E+01  0.20570451940E+01  0.26000000000E-02 0.  1.
          2   -1    0    0  501    0  0.00000000000E+00 -0.00000000000E+00 -0.48638237940E+02  0.48638238010E+02  0.26000000000E-02 0. -1.
       1023    2    1    2    0    0  0.00000000000E+00  0.00000000000E+00 -0.46581194389E+02  0.50695283204E+02  0.20005101059E+02 0.  0.
        -13    1    3    3    0    0 -0.86114448554E+01  0.50854458591E+01 -0.22922473361E+02  0.25009392227E+02  0.10570000000E+00 0.  1.
         13    1    3    3    0    0  0.86114448554E+01 -0.50854458591E+01 -0.23658721029E+02  0.25685890977E+02  0.10570000000E+00 0. -1.
<mgrwt>
<rscale>  0 0.20005101E+02</rscale>
<asrwt>0</asrwt>
<pdfrwt beam="2">  1        2 0.74828051E-02 0.20005101E+02</pdfrwt>
<pdfrwt beam="1">  1       -2 0.31646841E-03 0.20005101E+02</pdfrwt>
<totfact> 0.46111034E+06</totfact>
</mgrwt>
</event>
<event>
 5    1  0.1607476E-006  0.2000487E+02  0.7818608E-02  0.1745231E+00
          2   -1    0    0  501    0  0.00000000000E+00  0.00000000000E+00  0.38401839803E+01  0.38401848605E+01  0.26000000000E-02 0. -1.
         -2   -1    0    0    0  501 -0.00000000000E+00 -0.00000000000E+00 -0.26053093782E+02  0.26053093912E+02  0.26000000000E-02 0.  1.
       1023    2    1    2    0    0  0.00000000000E+00  0.00000000000E+00 -0.22212909802E+02  0.29893278772E+02  0.20004868255E+02 0.  0.
        -13    1    3    3    0    0  0.34275958414E+01  0.93954208438E+01 -0.11290502101E+02  0.15083400024E+02  0.10570000000E+00 0.  1.
         13    1    3    3    0    0 -0.34275958414E+01 -0.93954208438E+01 -0.10922407701E+02  0.14809878749E+02  0.10570000000E+00 0. -1.
<mgrwt>
<rscale>  0 0.20004868E+02</rscale>
<asrwt>0</asrwt>
<pdfrwt beam="1">  1        2 0.59079763E-03 0.20004868E+02</pdfrwt>
<pdfrwt beam="2">  1       -2 0.40081682E-02 0.20004868E+02</pdfrwt>
<totfact> 0.36548392E+06</totfact>
</mgrwt>
</event>
<event>
 5    1  0.1607476E-006  0.2000510E+02  0.7818608E-02  0.1745227E+00
         -2   -1    0    0    0  501 -0.00000000000E+00  0.00000000000E+00  0.81083633927E+01  0.81083638096E+01  0.26000000000E-02 0.  1.
          2   -1    0    0  501    0  0.00000000000E+00 -0.00000000000E+00 -0.12339231982E+02  0.12339232256E+02  0.26000000000E-02 0. -1.
       1023    2    1    2    0    0  0.00000000000E+00  0.00000000000E+00 -0.42308685891E+01  0.20447596065E+02  0.20005097746E+02 0.  0.
        -13    1    3    3    0    0  0.40101091636E+01  0.91613727638E+01 -0.22867271096E+01  0.10259240702E+02  0.10570000000E+00 0.  1.
         13    1    3    3    0    0 -0.40101091636E+01 -0.91613727638E+01 -0.19441414795E+01  0.10188355363E+02  0.10570000000E+00 0. -1.
<mgrwt>
<rscale>  0 0.20005098E+02</rscale>
<asrwt>0</asrwt>
<pdfrwt beam="2">  1        2 0.18983435E-02 0.20005098E+02</pdfrwt>
<pdfrwt beam="1">  1       -2 0.12474406E-02 0.20005098E+02</pdfrwt>
<totfact> 0.40059299E+06</totfact>
</mgrwt>
</event>
<event>
 4    1  0.1607476E-006  0.2003246E+02  0.7818608E-02  0.1744683E+00
         -2   -1    0    0    0  501 -0.00000000000E+00  0.00000000000E+00  0.17387208124E+01  0.17387227563E+01  0.26000000000E-02 0. -1.
          2   -1    0    0  501    0  0.00000000000E+00 -0.00000000000E+00 -0.57700342691E+02  0.57700342749E+02  0.26000000000E-02 0.  1.
        -13    1    1    2    0    0  0.80733497819E+01  0.59052339007E+01 -0.29502202362E+02  0.31151916166E+02  0.10570000000E+00 0.  1.
         13    1    1    2    0    0 -0.80733497819E+01 -0.59052339007E+01 -0.26459419517E+02  0.28287149340E+02  0.10570000000E+00 0. -1.
<mgrwt>
<rscale>  0 0.20032458E+02</rscale>
<asrwt>0</asrwt>
<pdfrwt beam="2">  1        2 0.88769745E-02 0.20032458E+02</pdfrwt>
<pdfrwt beam="1">  1       -2 0.26749571E-03 0.20032458E+02</pdfrwt>
<totfact> 0.47216612E+06</totfact>
</mgrwt>
</event>
<event>
 5    1  0.1607476E-006  0.2000170E+02  0.7818608E-02  0.1745294E+00
          2   -1    0    0  501    0  0.00000000000E+00  0.00000000000E+00  0.50829263071E+02  0.50829263138E+02  0.26000000000E-02 0.  1.
         -2   -1    0    0    0  501 -0.00000000000E+00 -0.00000000000E+00 -0.19677040537E+01  0.19677057715E+01  0.26000000000E-02 0. -1.
       1023    2    1    2    0    0  0.00000000000E+00  0.00000000000E+00  0.48861559018E+02  0.52796968909E+02  0.20001699337E+02 0.  0.
        -13    1    3    3    0    0 -0.62153302338E+01  0.78339428711E+01  0.24247315501E+02  0.26228695590E+02  0.10570000000E+00 0. -1.
         13    1    3    3    0    0  0.62153302338E+01 -0.78339428711E+01  0.24614243516E+02  0.26568273320E+02  0.10570000000E+00 0.  1.
<mgrwt>
<rscale>  0 0.20001699E+02</rscale>
<asrwt>0</asrwt>
<pdfrwt beam="1">  1        2 0.78198868E-02 0.20001699E+02</pdfrwt>
<pdfrwt beam="2">  1       -2 0.30272384E-03 0.20001699E+02</pdfrwt>
<totfact> 0.46434997E+06</totfact>
</mgrwt>
</event>
<event>
 4    1  0.1607476E-006  0.2009706E+02  0.7818608E-02  0.1743405E+00
          2   -1    0    0  501    0  0.00000000000E+00  0.00000000000E+00  0.29565385479E+01  0.29565396911E+01  0.26000000000E-02 0.  1.
         -2   -1    0    0    0  501 -0.00000000000E+00 -0.00000000000E+00 -0.34152409956E+02  0.34152410055E+02  0.26000000000E-02 0. -1.
        -13    1    1    2    0    0 -0.90266871109E+01 -0.43872387753E+01 -0.16488897224E+02  0.19303467264E+02  0.10570000000E+00 0. -1.
         13    1    1    2    0    0  0.90266871109E+01  0.43872387753E+01 -0.14706974184E+02  0.17805482482E+02  0.10570000000E+00 0.  1.
<mgrwt>
<rscale>  0 0.20097058E+02</rscale>
<asrwt>0</asrwt>
<pdfrwt beam="1">  1        2 0.45485220E-03 0.20097058E+02</pdfrwt>
<pdfrwt beam="2">  1       -2 0.52542167E-02 0.20097058E+02</pdfrwt>
<totfact> 0.35196254E+06</totfact>
</mgrwt>
</event>
<event>
 5    1  0.1607476E-006  0.2000524E+02  0.7818608E-02  0.1745224E+00
         -2   -1    0    0    0  501 -0.00000000000E+00  0.00000000000E+00  0.14451141929E+02  0.14451142162E+02  0.26000000000E-02 0. -1.
          2   -1    0    0  501    0  0.00000000000E+00 -0.00000000000E+00 -0.69234915090E+01  0.69234919971E+01  0.26000000000E-02 0.  1.
       1023    2    1    2    0    0  0.00000000000E+00  0.00000000000E+00  0.75276504196E+01  0.21374634160E+02  0.20005235930E+02 0.  0.
        -13    1    3    3    0    0 -0.83965944542E+00 -0.99664364321E+01  0.36789486493E+01  0.10657425524E+02  0.10570000000E+00 0. -1.
         13    1    3    3    0    0  0.83965944542E+00  0.99664364321E+01  0.38487017702E+01  0.10717208636E+02  0.10570000000E+00 0.  1.
<mgrwt>
<rscale>  0 0.20005236E+02</rscale>
<asrwt>0</asrwt>
<pdfrwt beam="2">  1        2 0.10651526E-02 0.20005236E+02</pdfrwt>
<pdfrwt beam="1">  1       -2 0.22232526E-02 0.20005236E+02</pdfrwt>
<totfact> 0.38384192E+06</totfact>
</mgrwt>
</event>
<event>
 5    1  0.1607476E-006  0.2000545E+02  0.7818608E-02  0.1745220E+00
          2   -1    0    0  501    0  0.00000000000E+00  0.00000000000E+00  0.46051218108E+02  0.46051218181E+02  0.26000000000E-02 0.  1.
         -2   -1    0    0    0  501 -0.00000000000E+00 -0.00000000000E+00 -0.21726769509E+01  0.21726785066E+01  0.26000000000E-02 0. -1.
       1023    2    1    2    0    0  0.00000000000E+00  0.00000000000E+00  0.43878541157E+02  0.48223896688E+02  0.20005445201E+02 0.  0.
        -13    1    3    3    0    0 -0.65166962262E+01  0.75875134972E+01  0.21758944269E+02  0.23947870865E+02  0.10570000000E+00 0. -1.
         13    1    3    3    0    0  0.65166962262E+01 -0.75875134972E+01  0.22119596888E+02  0.24276025823E+02  0.10570000000E+00 0.  1.
<mgrwt>
<rscale>  0 0.20005445E+02</rscale>
<asrwt>0</asrwt>
<pdfrwt beam="1">  1        2 0.70848028E-02 0.20005445E+02</pdfrwt>
<pdfrwt beam="2">  1       -2 0.33425812E-03 0.20005445E+02</pdfrwt>
<totfact> 0.45743546E+06</totfact>
</mgrwt>
</event>
<event>
 5    1  0.1607476E-006  0.2000197E+02  0.7818608E-02  0.1745289E+00
          2   -1    0    0  501    0  0.00000000000E+00  0.00000000000E+00  0.39747746966E+02  0.39747747051E+02  0.26000000000E-02 0.  1.
         -2   -1    0    0    0  501 -0.00000000000E+00 -0.00000000000E+00 -0.25163599213E+01  0.25163612645E+01  0.26000000000E-02 0. -1.
       1023    2    1    2    0    0  0.00000000000E+00  0.00000000000E+00  0.37231387045E+02  0.42264108316E+02  0.20001966664E+02 0.  0.
        -13    1    3    3    0    0  0.66230506639E-03  0.10000317420E+02  0.18517804965E+02  0.21045821964E+02  0.10570000000E+00 0.  1.
         13    1    3    3    0    0 -0.66230506639E-03 -0.10000317420E+02  0.18713582080E+02  0.21218286352E+02  0.10570000000E+00 0. -1.
<mgrwt>
<rscale>  0 0.20001967E+02</rscale>
<asrwt>0</asrwt>
<pdfrwt beam="1">  1        2 0.61150373E-02 0.20001967E+02</pdfrwt>
<pdfrwt beam="2">  1       -2 0.38713246E-03 0.20001967E+02</pdfrwt>
<totfact> 0.44849338E+06</totfact>
</mgrwt>
</event>
<event>
 4    1  0.1607476E-006  0.2023126E+02  0.7818608E-02  0.1740768E+00
         -2   -1    0    0    0  501 -0.00000000000E+00  0.00000000000E+00  0.69273888397E+01  0.69273893276E+01  0.26000000000E-02 0. -1.
          2   -1    0    0  501    0  0.00000000000E+00 -0.00000000000E+00 -0.14771210442E+02  0.14771210671E+02  0.26000000000E-02 0.  1.
        -13    1    1    2    0    0  0.82889124781E+00 -0.10075213982E+02 -0.42899556114E+01  0.10982344428E+02  0.10570000000E+00 0.  1.
         13    1    1    2    0    0 -0.82889124781E+00  0.10075213982E+02 -0.35538659910E+01  0.10716255571E+02  0.10570000000E+00 0. -1.
<mgrwt>
<rscale>  0 0.20231256E+02</rscale>
<asrwt>0</asrwt>
<pdfrwt beam="2">  1        2 0.22724940E-02 0.20231256E+02</pdfrwt>
<pdfrwt beam="1">  1       -2 0.10657522E-02 0.20231256E+02</pdfrwt>
<totfact> 0.39594522E+06</totfact>
</mgrwt>
</event>
<event>
 4    1  0.1607476E-006  0.2002768E+02  0.7818608E-02  0.1744778E+00
          2   -1    0    0  501    0  0.00000000000E+00  0.00000000000E+00  0.27219566699E+01  0.27219579116E+01  0.26000000000E-02 0. -1.
         -2   -1    0    0    0  501 -0.00000000000E+00 -0.00000000000E+00 -0.36840019872E+02  0.36840019963E+02  0.26000000000E-02 0.  1.
        -13    1    1    2    0    0 -0.86969004432E+01  0.49587079256E+01 -0.17458671406E+02  0.20125636421E+02  0.10570000000E+00 0. -1.
         13    1    1    2    0    0  0.86969004432E+01 -0.49587079256E+01 -0.16659391796E+02  0.19436341454E+02  0.10570000000E+00 0.  1.
<mgrwt>
<rscale>  0 0.20027677E+02</rscale>
<asrwt>0</asrwt>
<pdfrwt beam="1">  1        2 0.41876269E-03 0.20027677E+02</pdfrwt>
<pdfrwt beam="2">  1       -2 0.56676951E-02 0.20027677E+02</pdfrwt>
<totfact> 0.35159379E+06</totfact>
</mgrwt>
</event>
<event>
 4    1  0.1607476E-006  0.2003271E+02  0.7818608E-02  0.1744678E+00
          2   -1    0    0  501    0  0.00000000000E+00  0.00000000000E+00  0.94194497531E+00  0.94194856363E+00  0.26000000000E-02 0. -1.
         -2   -1    0    0    0  501 -0.00000000000E+00 -0.00000000000E+00 -0.10651061018E+03  0.10651061022E+03  0.26000000000E-02 0.  1.
        -13    1    1    2    0    0 -0.98944104353E+01 -0.15535641336E+01 -0.53089493298E+02  0.54026089905E+02  0.10570000000E+00 0. -1.
         13    1    1    2    0    0  0.98944104353E+01  0.15535641336E+01 -0.52479171911E+02  0.53426468874E+02  0.10570000000E+00 0.  1.
<mgrwt>
<rscale>  0 0.20032706E+02</rscale>
<asrwt>0</asrwt>
<pdfrwt beam="1">  1        2 0.14491497E-03 0.20032706E+02</pdfrwt>
<pdfrwt beam="2">  1       -2 0.16386238E-01 0.20032706E+02</pdfrwt>
<totfact> 0.29160538E+06</totfact>
</mgrwt>
</event>
<event>
 5    1  0.1607476E-006  0.2000236E+02  0.7818608E-02  0.1745281E+00
         -2   -1    0    0    0  501 -0.00000000000E+00  0.00000000000E+00  0.13976859381E+01  0.13976883564E+01  0.26000000000E-02 0. -1.
          2   -1    0    0  501    0  0.00000000000E+00 -0.00000000000E+00 -0.71563665849E+02  0.71563665896E+02  0.26000000000E-02 0.  1.
       1023    2    1    2    0    0  0.00000000000E+00  0.00000000000E+00 -0.70165979911E+02  0.72961354253E+02  0.20002361798E+02 0.  0.
        -13    1    3    3    0    0  0.89537826837E+01 -0.44544576483E+01 -0.35063144380E+02  0.36461591896E+02  0.10570000000E+00 0. -1.
         13    1    3    3    0    0 -0.89537826837E+01  0.44544576483E+01 -0.35102835531E+02  0.36499762357E+02  0.10570000000E+00 0.  1.
<mgrwt>
<rscale>  0 0.20002362E+02</rscale>
<asrwt>0</asrwt>
<pdfrwt beam="2">  1        2 0.11009792E-01 0.20002362E+02</pdfrwt>
<pdfrwt beam="1">  1       -2 0.21502885E-03 0.20002362E+02</pdfrwt>
<totfact> 0.49209747E+06</totfact>
</mgrwt>
</event>
<event>
 4    1  0.1607476E-006  0.2001579E+02  0.7818608E-02  0.1745014E+00
          2   -1    0    0  501    0  0.00000000000E+00  0.00000000000E+00  0.87574533020E+02  0.87574533058E+02  0.26000000000E-02 0. -1.
         -2   -1    0    0    0  501 -0.00000000000E+00 -0.00000000000E+00 -0.11436866370E+01  0.11436895924E+01  0.26000000000E-02 0.  1.
        -13    1    1    2    0    0 -0.19189685586E+01  0.98178108313E+01  0.42002094424E+02  0.43177065189E+02  0.10570000000E+00 0. -1.
         13    1    1    2    0    0  0.19189685586E+01 -0.98178108313E+01  0.44428751959E+02  0.45541157462E+02  0.10570000000E+00 0.  1.
<mgrwt>
<rscale>  0 0.20015789E+02</rscale>
<asrwt>0</asrwt>
<pdfrwt beam="1">  1        2 0.13473002E-01 0.20015789E+02</pdfrwt>
<pdfrwt beam="2">  1       -2 0.17595206E-03 0.20015789E+02</pdfrwt>
<totfact> 0.51156252E+06</totfact>
</mgrwt>
</event>
<event>
 5    1  0.1607476E-006  0.2000175E+02  0.7818608E-02  0.1745293E+00
         -2   -1    0    0    0  501 -0.00000000000E+00  0.00000000000E+00  0.17017145356E+02  0.17017145555E+02  0.26000000000E-02 0.  1.
          2   -1    0    0  501    0  0.00000000000E+00 -0.00000000000E+00 -0.58774515965E+01  0.58774521716E+01  0.26000000000E-02 0. -1.
       1023    2    1    2    0    0  0.00000000000E+00  0.00000000000E+00  0.11139693760E+02  0.22894597726E+02  0.20001745624E+02 0.  0.
        -13    1    3    3    0    0 -0.42514263484E+01  0.90515651821E+01  0.56027491261E+01  0.11463307921E+02  0.10570000000E+00 0.  1.
         13    1    3    3    0    0  0.42514263484E+01 -0.90515651821E+01  0.55369446335E+01  0.11431289805E+02  0.10570000000E+00 0. -1.
<mgrwt>
<rscale>  0 0.20001746E+02</rscale>
<asrwt>0</asrwt>
<pdfrwt beam="2">  1        2 0.90422339E-03 0.20001746E+02</pdfrwt>
<pdfrwt beam="1">  1       -2 0.26180224E-02 0.20001746E+02</pdfrwt>
<totfact> 0.37918968E+06</totfact>
</mgrwt>
</event>
<event>
 5    1  0.1607476E-006  0.2000411E+02  0.7818608E-02  0.1745246E+00
         -2   -1    0    0    0  501 -0.00000000000E+00  0.00000000000E+00  0.27042745240E+01  0.27042757739E+01  0.26000000000E-02 0. -1.
          2   -1    0    0  501    0  0.00000000000E+00 -0.00000000000E+00 -0.36993691966E+02  0.36993692057E+02  0.26000000000E-02 0.  1.
       1023    2    1    2    0    0  0.00000000000E+00  0.00000000000E+00 -0.34289417442E+02  0.39697967831E+02  0.20004112113E+02 0.  0.
        -13    1    3    3    0    0 -0.91923546370E+01  0.39406255106E+01 -0.17234333852E+02  0.19926398294E+02  0.10570000000E+00 0.  1.
         13    1    3    3    0    0  0.91923546370E+01 -0.39406255106E+01 -0.17055083590E+02  0.19771569537E+02  0.10570000000E+00 0. -1.
<mgrwt>
<rscale>  0 0.20004112E+02</rscale>
<asrwt>0</asrwt>
<pdfrwt beam="2">  1        2 0.56913369E-02 0.20004112E+02</pdfrwt>
<pdfrwt beam="1">  1       -2 0.41604237E-03 0.20004112E+02</pdfrwt>
<totfact> 0.44429629E+06</totfact>
</mgrwt>
</event>
<event>
 4    1  0.1607476E-006  0.2003645E+02  0.7818608E-02  0.1744604E+00
         -2   -1    0    0    0  501 -0.00000000000E+00  0.00000000000E+00  0.22433612176E+01  0.22433627243E+01  0.26000000000E-02 0. -1.
          2   -1    0    0  501    0  0.00000000000E+00 -0.00000000000E+00 -0.44738586604E+02  0.44738586680E+02  0.26000000000E-02 0.  1.
        -13    1    1    2    0    0 -0.39930157355E+01  0.91833827094E+01 -0.21889692718E+02  0.24071736797E+02  0.10570000000E+00 0. -1.
         13    1    1    2    0    0  0.39930157355E+01 -0.91833827094E+01 -0.20605532669E+02  0.22910212607E+02  0.10570000000E+00 0.  1.
<mgrwt>
<rscale>  0 0.20036452E+02</rscale>
<asrwt>0</asrwt>
<pdfrwt beam="2">  1        2 0.68828589E-02 0.20036452E+02</pdfrwt>
<pdfrwt beam="1">  1       -2 0.34513265E-03 0.20036452E+02</pdfrwt>
<totfact> 0.45399108E+06</totfact>
</mgrwt>
</event>
<event>
 5    1  0.1607476E-006  0.2001083E+02  0.7818608E-02  0.1745113E+00
         -2   -1    0    0    0  501 -0.00000000000E+00  0.00000000000E+00  0.28351335168E+01  0.28351347090E+01  0.26000000000E-02 0.  1.
          2   -1    0    0  501    0  0.00000000000E+00 -0.00000000000E+00 -0.35309916735E+02  0.35309916831E+02  0.26000000000E-02 0. -1.
       1023    2    1    2    0    0  0.00000000000E+00  0.00000000000E+00 -0.32474783218E+02  0.38145051540E+02  0.20010832364E+02 0.  0.
        -13    1    3    3    0    0 -0.14804026893E+01 -0.98941781738E+01 -0.16435735900E+02  0.19241386149E+02  0.10570000000E+00 0. -1.
         13    1    3    3    0    0  0.14804026893E+01  0.98941781738E+01 -0.16039047318E+02  0.18903665391E+02  0.10570000000E+00 0.  1.
<mgrwt>
<rscale>  0 0.20010832E+02</rscale>
<asrwt>0</asrwt>
<pdfrwt beam="2">  1        2 0.54322947E-02 0.20010832E+02</pdfrwt>
<pdfrwt beam="1">  1       -2 0.43617451E-03 0.20010832E+02</pdfrwt>
<totfact> 0.44142656E+06</totfact>
</mgrwt>
</event>
<event>
 5    1  0.1607476E-006  0.2000817E+02  0.7818608E-02  0.1745166E+00
         -2   -1    0    0    0  501 -0.00000000000E+00  0.00000000000E+00  0.22616772619E+01  0.22616787564E+01  0.26000000000E-02 0.  1.
          2   -1    0    0  501    0  0.00000000000E+00 -0.00000000000E+00 -0.44251094338E+02  0.44251094414E+02  0.26000000000E-02 0. -1.
       1023    2    1    2    0    0  0.00000000000E+00  0.00000000000E+00 -0.41989417076E+02  0.46512773170E+02  0.20008171372E+02 0.  0.
        -13    1    3    3    0    0  0.97503686885E+01  0.22248295034E+01 -0.21519707695E+02  0.23730329700E+02  0.10570000000E+00 0.  1.
         13    1    3    3    0    0 -0.97503686885E+01 -0.22248295034E+01 -0.20469709380E+02  0.22782443470E+02  0.10570000000E+00 0. -1.
<mgrwt>
<rscale>  0 0.20008171E+02</rscale>
<asrwt>0</asrwt>
<pdfrwt beam="2">  1        2 0.68078601E-02 0.20008171E+02</pdfrwt>
<pdfrwt beam="1">  1       -2 0.34795050E-03 0.20008171E+02</pdfrwt>
<totfact> 0.45472510E+06</totfact>
</mgrwt>
</event>
<event>
 5    1  0.1607476E-006  0.2000865E+02  0.7818608E-02  0.1745156E+00
          2   -1    0    0  501    0  0.00000000000E+00  0.00000000000E+00  0.65251703866E+01  0.65251709046E+01  0.26000000000E-02 0. -1.
         -2   -1    0    0    0  501 -0.00000000000E+00 -0.00000000000E+00 -0.15338532216E+02  0.15338532437E+02  0.26000000000E-02 0.  1.
       1023    2    1    2    0    0  0.00000000000E+00  0.00000000000E+00 -0.88133618297E+01  0.21863703341E+02  0.20008652555E+02 0.  0.
        -13    1    3    3    0    0 -0.74017457026E+01 -0.67283932185E+01 -0.42590351865E+01  0.10872334982E+02  0.10570000000E+00 0. -1.
         13    1    3    3    0    0  0.74017457026E+01  0.67283932185E+01 -0.45543266432E+01  0.10991368359E+02  0.10570000000E+00 0.  1.
<mgrwt>
<rscale>  0 0.20008653E+02</rscale>
<asrwt>0</asrwt>
<pdfrwt beam="1">  1        2 0.10038724E-02 0.20008653E+02</pdfrwt>
<pdfrwt beam="2">  1       -2 0.23597742E-02 0.20008653E+02</pdfrwt>
<totfact> 0.38196849E+06</totfact>
</mgrwt>
</event>
<event>
 5    1  0.2718823E-006  0.2000140E+02  0.7818608E-02  0.1745300E+00
          2   -1    0    0  501    0  0.00000000000E+00  0.00000000000E+00  0.11601113394E+03  0.11601113397E+03  0.26000000000E-02 0. -1.
         -2   -1    0    0    0  501 -0.00000000000E+00 -0.00000000000E+00 -0.86210478598E+00  0.86210870660E+00  0.26000000000E-02 0.  1.
       1023    2    1    2    0    0  0.00000000000E+00  0.00000000000E+00  0.11514902915E+03  0.11687324267E+03  0.20001398412E+02 0.  0.
        -13    1    3    3    0    0 -0.96143739221E+01 -0.27507484635E+01  0.57556894460E+02  0.58419261167E+02  0.10570000000E+00 0.  1.
         13    1    3    3    0    0  0.96143739221E+01  0.27507484635E+01  0.57592134693E+02  0.58453981507E+02  0.10570000000E+00 0. -1.
<mgrwt>
<rscale>  0 0.20001398E+02</rscale>
<asrwt>0</asrwt>
<pdfrwt beam="1">  1        2 0.17847874E-01 0.20001398E+02</pdfrwt>
<pdfrwt beam="2">  1       -2 0.13263176E-03 0.20001398E+02</pdfrwt>
<totfact> 0.54627342E+06</totfact>
</mgrwt>
</event>
<event>
 5    1  0.1607476E-006  0.2000308E+02  0.7818608E-02  0.1745267E+00
          2   -1    0    0  501    0  0.00000000000E+00  0.00000000000E+00  0.65680911023E+02  0.65680911074E+02  0.26000000000E-02 0.  1.
         -2   -1    0    0    0  501 -0.00000000000E+00 -0.00000000000E+00 -0.15229795841E+01  0.15229818034E+01  0.26000000000E-02 0. -1.
       1023    2    1    2    0    0  0.00000000000E+00  0.00000000000E+00  0.64157931439E+02  0.67203892878E+02  0.20003076049E+02 0.  0.
        -13    1    3    3    0    0  0.31484182018E+01  0.94922773137E+01  0.32284004990E+02  0.33797692473E+02  0.10570000000E+00 0.  1.
         13    1    3    3    0    0 -0.31484182018E+01 -0.94922773137E+01  0.31873926448E+02  0.33406200405E+02  0.10570000000E+00 0. -1.
<mgrwt>
<rscale>  0 0.20003076E+02</rscale>
<asrwt>0</asrwt>
<pdfrwt beam="1">  1        2 0.10104756E-01 0.20003076E+02</pdfrwt>
<pdfrwt beam="2">  1       -2 0.23430471E-03 0.20003076E+02</pdfrwt>
<totfact> 0.48437719E+06</totfact>
</mgrwt>
</event>
<event>
 5    1  0.1607476E-006  0.2000412E+02  0.7818608E-02  0.1745246E+00
          2   -1    0    0  501    0  0.00000000000E+00  0.00000000000E+00  0.97378179374E+00  0.97378526474E+00  0.26000000000E-02 0.  1.
         -2   -1    0    0    0  501 -0.00000000000E+00 -0.00000000000E+00 -0.10273455997E+03  0.10273456001E+03  0.26000000000E-02 0. -1.
       1023    2    1    2    0    0  0.00000000000E+00  0.00000000000E+00 -0.10176077818E+03  0.10370834527E+03  0.20004122153E+02 0.  0.
        -13    1    3    3    0    0  0.81949022831E+01  0.57327388697E+01 -0.51381287174E+02  0.52345664219E+02  0.10570000000E+00 0.  1.
         13    1    3    3    0    0 -0.81949022831E+01 -0.57327388697E+01 -0.50379491006E+02  0.51362681052E+02  0.10570000000E+00 0. -1.
<mgrwt>
<rscale>  0 0.20004122E+02</rscale>
<asrwt>0</asrwt>
<pdfrwt beam="1">  1        2 0.14981293E-03 0.20004122E+02</pdfrwt>
<pdfrwt beam="2">  1       -2 0.15805309E-01 0.20004122E+02</pdfrwt>
<totfact> 0.29520061E+06</totfact>
</mgrwt>
</event>
<event>
 4    1  0.1607476E-006  0.2002576E+02  0.7818608E-02  0.1744816E+00
          2   -1    0    0  501    0  0.00000000000E+00  0.00000000000E+00  0.29285995976E+01  0.29286007517E+01  0.26000000000E-02 0. -1.
         -2   -1    0    0    0  501 -0.00000000000E+00 -0.00000000000E+00 -0.34234019776E+02  0.34234019874E+02  0.26000000000E-02 0.  1.
        -13    1    1    2    0    0  0.49131019087E+01  0.87169620707E+01 -0.16302455887E+02  0.19128649679E+02  0.10570000000E+00 0.  1.
         13    1    1    2    0    0 -0.49131019087E+01 -0.87169620707E+01 -0.15002964291E+02  0.18033970947E+02  0.10570000000E+00 0. -1.
<mgrwt>
<rscale>  0 0.20025759E+02</rscale>
<asrwt>0</asrwt>
<pdfrwt beam="1">  1        2 0.45055391E-03 0.20025759E+02</pdfrwt>
<pdfrwt beam="2">  1       -2 0.52667721E-02 0.20025759E+02</pdfrwt>
<totfact> 0.35460967E+06</totfact>
</mgrwt>
</event>
<event>
 5    1  0.1607476E-006  0.2000153E+02  0.7818608E-02  0.1745298E+00
         -2   -1    0    0    0  501 -0.00000000000E+00  0.00000000000E+00  0.42118099548E+02  0.42118099629E+02  0.26000000000E-02 0.  1.
          2   -1    0    0  501    0  0.00000000000E+00 -0.00000000000E+00 -0.23746390591E+01  0.23746404825E+01  0.26000000000E-02 0. -1.
       1023    2    1    2    0    0  0.00000000000E+00  0.00000000000E+00  0.39743460489E+02  0.44492740111E+02  0.20001531715E+02 0.  0.
        -13    1    3    3    0    0  0.41655687859E+01 -0.90912112498E+01  0.19770769233E+02  0.22156185904E+02  0.10570000000E+00 0.  1.
         13    1    3    3    0    0 -0.41655687859E+01  0.90912112498E+01  0.19972691257E+02  0.22336554207E+02  0.10570000000E+00 0. -1.
<mgrwt>
<rscale>  0 0.20001532E+02</rscale>
<asrwt>0</asrwt>
<pdfrwt beam="2">  1        2 0.36532925E-03 0.20001532E+02</pdfrwt>
<pdfrwt beam="1">  1       -2 0.64797069E-02 0.20001532E+02</pdfrwt>
<totfact> 0.34689788E+06</totfact>
</mgrwt>
</event>
<event>
 4    1  0.1607476E-006  0.2002720E+02  0.7818608E-02  0.1744788E+00
          2   -1    0    0  501    0  0.00000000000E+00  0.00000000000E+00  0.13918540720E+01  0.13918565004E+01  0.26000000000E-02 0.  1.
         -2   -1    0    0    0  501 -0.00000000000E+00 -0.00000000000E+00 -0.72042076527E+02  0.72042076574E+02  0.26000000000E-02 0. -1.
        -13    1    1    2    0    0  0.35884037396E+01  0.93468765148E+01 -0.34803535498E+02  0.36215162537E+02  0.10570000000E+00 0. -1.
         13    1    1    2    0    0 -0.35884037396E+01 -0.93468765148E+01 -0.35846686958E+02  0.37218770538E+02  0.10570000000E+00 0.  1.
<mgrwt>
<rscale>  0 0.20027196E+02</rscale>
<asrwt>0</asrwt>
<pdfrwt beam="1">  1        2 0.21413164E-03 0.20027196E+02</pdfrwt>
<pdfrwt beam="2">  1       -2 0.11083394E-01 0.20027196E+02</pdfrwt>
<totfact> 0.31816262E+06</totfact>
</mgrwt>
</event>
<event>
 4    1  0.1607476E-006  0.2174402E+02  0.7818608E-02  0.1712717E+00
          2   -1    0    0  501    0  0.00000000000E+00  0.00000000000E+00  0.84317381226E+02  0.84317381266E+02  0.26000000000E-02 0. -1.
         -2   -1    0    0    0  501 -0.00000000000E+00 -0.00000000000E+00 -0.14018525078E+01  0.14018549189E+01  0.26000000000E-02 0.  1.
        -13    1    1    2    0    0  0.64155928658E+01  0.87648961725E+01  0.43248008930E+02  0.44591307288E+02  0.10570000000E+00 0. -1.
         13    1    1    2    0    0 -0.64155928658E+01 -0.87648961725E+01  0.39667519788E+02  0.41127928897E+02  0.10570000000E+00 0.  1.
<mgrwt>
<rscale>  0 0.21744023E+02</rscale>
<asrwt>0</asrwt>
<pdfrwt beam="1">  1        2 0.12971907E-01 0.21744023E+02</pdfrwt>
<pdfrwt beam="2">  1       -2 0.21566978E-03 0.21744023E+02</pdfrwt>
<totfact> 0.42197786E+06</totfact>
</mgrwt>
</event>
<event>
 4    1  0.1607476E-006  0.2005022E+02  0.7818608E-02  0.1744331E+00
          2   -1    0    0  501    0  0.00000000000E+00  0.00000000000E+00  0.29850454422E+02  0.29850454535E+02  0.26000000000E-02 0.  1.
         -2   -1    0    0    0  501 -0.00000000000E+00 -0.00000000000E+00 -0.33668786317E+01  0.33668796356E+01  0.26000000000E-02 0. -1.
        -13    1    1    2    0    0 -0.95749416558E+01  0.29106786887E+01  0.12275564338E+02  0.15838314634E+02  0.10570000000E+00 0. -1.
         13    1    1    2    0    0  0.95749416558E+01 -0.29106786887E+01  0.14208011452E+02  0.17379019537E+02  0.10570000000E+00 0.  1.
<mgrwt>
<rscale>  0 0.20050225E+02</rscale>
<asrwt>0</asrwt>
<pdfrwt beam="1">  1        2 0.45923779E-02 0.20050225E+02</pdfrwt>
<pdfrwt beam="2">  1       -2 0.51798139E-03 0.20050225E+02</pdfrwt>
<totfact> 0.43106398E+06</totfact>
</mgrwt>
</event>
<event>
 4    1  0.1607476E-006  0.2001562E+02  0.7818608E-02  0.1745018E+00
          2   -1    0    0  501    0  0.00000000000E+00  0.00000000000E+00  0.10702920641E+01  0.10702952221E+01  0.26000000000E-02 0.  1.
         -2   -1    0    0    0  501 -0.00000000000E+00 -0.00000000000E+00 -0.93578305982E+02  0.93578306018E+02  0.26000000000E-02 0. -1.
        -13    1    1    2    0    0 -0.57389627626E+01  0.81947960585E+01 -0.47360176674E+02  0.48405453031E+02  0.10570000000E+00 0.  1.
         13    1    1    2    0    0  0.57389627626E+01 -0.81947960585E+01 -0.45147837243E+02  0.46243148209E+02  0.10570000000E+00 0. -1.
<mgrwt>
<rscale>  0 0.20015621E+02</rscale>
<asrwt>0</asrwt>
<pdfrwt beam="1">  1        2 0.16466064E-03 0.20015621E+02</pdfrwt>
<pdfrwt beam="2">  1       -2 0.14396656E-01 0.20015621E+02</pdfrwt>
<totfact> 0.30153241E+06</totfact>
</mgrwt>
</event>
<event>
 5    1  0.1607476E-006  0.2000839E+02  0.7818608E-02  0.1745161E+00
         -2   -1    0    0    0  501 -0.00000000000E+00  0.00000000000E+00  0.41999000240E+01  0.41999008288E+01  0.26000000000E-02 0.  1.
          2   -1    0    0  501    0  0.00000000000E+00 -0.00000000000E+00 -0.23830067003E+02  0.23830067144E+02  0.26000000000E-02 0. -1.
       1023    2    1    2    0    0  0.00000000000E+00  0.00000000000E+00 -0.19630166979E+02  0.28029967973E+02  0.20008389465E+02 0.  0.
        -13    1    3    3    0    0 -0.85668161870E+01 -0.51647926626E+01 -0.99349160205E+01  0.14098906045E+02  0.10570000000E+00 0.  1.
         13    1    3    3    0    0  0.85668161870E+01  0.51647926626E+01 -0.96952509580E+01  0.13931061929E+02  0.10570000000E+00 0. -1.
<mgrwt>
<rscale>  0 0.20008389E+02</rscale>
<asrwt>0</asrwt>
<pdfrwt beam="2">  1        2 0.36661641E-02 0.20008389E+02</pdfrwt>
<pdfrwt beam="1">  1       -2 0.64613855E-03 0.20008389E+02</pdfrwt>
<totfact> 0.42317752E+06</totfact>
</mgrwt>
</event>
<event>
 4    1  0.1607476E-006  0.2003980E+02  0.7818608E-02  0.1744538E+00
          2   -1    0    0  501    0  0.00000000000E+00  0.00000000000E+00  0.21680806619E+02  0.21680806775E+02  0.26000000000E-02 0.  1.
         -2   -1    0    0    0  501 -0.00000000000E+00 -0.00000000000E+00 -0.46307501322E+01  0.46307508621E+01  0.26000000000E-02 0. -1.
        -13    1    1    2    0    0  0.98405151094E+01  0.18817152546E+01  0.83895485638E+01  0.13067987125E+02  0.10570000000E+00 0.  1.
         13    1    1    2    0    0 -0.98405151094E+01 -0.18817152546E+01  0.86605079230E+01  0.13243570511E+02  0.10570000000E+00 0. -1.
<mgrwt>
<rscale>  0 0.20039801E+02</rscale>
<asrwt>0</asrwt>
<pdfrwt beam="1">  1        2 0.33355087E-02 0.20039801E+02</pdfrwt>
<pdfrwt beam="2">  1       -2 0.71242317E-03 0.20039801E+02</pdfrwt>
<totfact> 0.41794763E+06</totfact>
</mgrwt>
</event>
<event>
 5    1  0.1607476E-006  0.2000357E+02  0.7818608E-02  0.1745257E+00
          2   -1    0    0  501    0  0.00000000000E+00  0.00000000000E+00  0.10300843425E+01  0.10300876238E+01  0.26000000000E-02 0.  1.
         -2   -1    0    0    0  501 -0.00000000000E+00 -0.00000000000E+00 -0.97113913490E+02  0.97113913525E+02  0.26000000000E-02 0. -1.
       1023    2    1    2    0    0  0.00000000000E+00  0.00000000000E+00 -0.96083829148E+02  0.98144001149E+02  0.20003568127E+02 0.  0.
        -13    1    3    3    0    0 -0.93315886828E+01  0.35980239360E+01 -0.48109253734E+02  0.49137926197E+02  0.10570000000E+00 0. -1.
         13    1    3    3    0    0  0.93315886828E+01 -0.35980239360E+01 -0.47974575414E+02  0.49006074952E+02  0.10570000000E+00 0.  1.
<mgrwt>
<rscale>  0 0.20003568E+02</rscale>
<asrwt>0</asrwt>
<pdfrwt beam="1">  1        2 0.15847485E-03 0.20003568E+02</pdfrwt>
<pdfrwt beam="2">  1       -2 0.14940595E-01 0.20003568E+02</pdfrwt>
<totfact> 0.29930257E+06</totfact>
</mgrwt>
</event>
<event>
 5    1  0.1607476E-006  0.2000185E+02  0.7818608E-02  0.1745291E+00
          2   -1    0    0  501    0  0.00000000000E+00  0.00000000000E+00  0.26155484336E+02  0.26155484466E+02  0.26000000000E-02 0.  1.
         -2   -1    0    0    0  501 -0.00000000000E+00 -0.00000000000E+00 -0.38239953264E+01  0.38239962103E+01  0.26000000000E-02 0. -1.
       1023    2    1    2    0    0  0.00000000000E+00  0.00000000000E+00  0.22331489010E+02  0.29979480676E+02  0.20001846420E+02 0.  0.
        -13    1    3    3    0    0  0.74786984571E+01 -0.66385570708E+01  0.11281086351E+02  0.15075657609E+02  0.10570000000E+00 0.  1.
         13    1    3    3    0    0 -0.74786984571E+01  0.66385570708E+01  0.11050402659E+02  0.14903823067E+02  0.10570000000E+00 0. -1.
<mgrwt>
<rscale>  0 0.20001846E+02</rscale>
<asrwt>0</asrwt>
<pdfrwt beam="1">  1        2 0.40239207E-02 0.20001846E+02</pdfrwt>
<pdfrwt beam="2">  1       -2 0.58830706E-03 0.20001846E+02</pdfrwt>
<totfact> 0.42741085E+06</totfact>
</mgrwt>
</event>
<event>
 5    1  0.1607476E-006  0.2000262E+02  0.7818608E-02  0.1745276E+00
         -2   -1    0    0    0  501 -0.00000000000E+00  0.00000000000E+00  0.99199892521E+00  0.99200233247E+00  0.26000000000E-02 0. -1.
          2   -1    0    0  501    0  0.00000000000E+00 -0.00000000000E+00 -0.10083281734E+03  0.10083281737E+03  0.26000000000E-02 0.  1.
       1023    2    1    2    0    0  0.00000000000E+00  0.00000000000E+00 -0.99840818413E+02  0.10182481970E+03  0.20002621989E+02 0.  0.
        -13    1    3    3    0    0  0.99435991903E+01  0.10640708847E+01 -0.50365286001E+02  0.51348618464E+02  0.10570000000E+00 0.  1.
         13    1    3    3    0    0 -0.99435991903E+01 -0.10640708847E+01 -0.49475532412E+02  0.50476201240E+02  0.10570000000E+00 0. -1.
<mgrwt>
<rscale>  0 0.20002622E+02</rscale>
<asrwt>0</asrwt>
<pdfrwt beam="2">  1        2 0.15512733E-01 0.20002622E+02</pdfrwt>
<pdfrwt beam="1">  1       -2 0.15261556E-03 0.20002622E+02</pdfrwt>
<totfact> 0.52842287E+06</totfact>
</mgrwt>
</event>
<event>
 5    1  0.1607476E-006  0.2000213E+02  0.7818608E-02  0.1745286E+00
         -2   -1    0    0    0  501 -0.00000000000E+00  0.00000000000E+00  0.26396136793E+02  0.26396136921E+02  0.26000000000E-02 0. -1.
          2   -1    0    0  501    0  0.00000000000E+00 -0.00000000000E+00 -0.37892386705E+01  0.37892395625E+01  0.26000000000E-02 0.  1.
       1023    2    1    2    0    0  0.00000000000E+00  0.00000000000E+00  0.22606898123E+02  0.30185376484E+02  0.20002127655E+02 0.  0.
        -13    1    3    3    0    0  0.72013509394E+01 -0.69384456975E+01  0.11163328189E+02  0.14987746755E+02  0.10570000000E+00 0. -1.
         13    1    3    3    0    0 -0.72013509394E+01  0.69384456975E+01  0.11443569934E+02  0.15197629729E+02  0.10570000000E+00 0.  1.
<mgrwt>
<rscale>  0 0.20002128E+02</rscale>
<asrwt>0</asrwt>
<pdfrwt beam="2">  1        2 0.58295989E-03 0.20002128E+02</pdfrwt>
<pdfrwt beam="1">  1       -2 0.40609441E-02 0.20002128E+02</pdfrwt>
<totfact> 0.36514011E+06</totfact>
</mgrwt>
</event>
<event>
 5    1  0.1607476E-006  0.2000239E+02  0.7818608E-02  0.1745281E+00
          2   -1    0    0  501    0  0.00000000000E+00  0.00000000000E+00  0.75089936072E+01  0.75089940574E+01  0.26000000000E-02 0. -1.
         -2   -1    0    0    0  501 -0.00000000000E+00 -0.00000000000E+00 -0.13320545027E+02  0.13320545281E+02  0.26000000000E-02 0.  1.
       1023    2    1    2    0    0  0.00000000000E+00  0.00000000000E+00 -0.58115514200E+01  0.20829539338E+02  0.20002389336E+02 0.  0.
        -13    1    3    3    0    0 -0.77708958337E+01 -0.62949104374E+01 -0.29075253055E+01  0.10415257816E+02  0.10570000000E+00 0. -1.
         13    1    3    3    0    0  0.77708958337E+01  0.62949104374E+01 -0.29040261145E+01  0.10414281523E+02  0.10570000000E+00 0.  1.
<mgrwt>
<rscale>  0 0.20002389E+02</rscale>
<asrwt>0</asrwt>
<pdfrwt beam="1">  1        2 0.11552298E-02 0.20002389E+02</pdfrwt>
<pdfrwt beam="2">  1       -2 0.20493147E-02 0.20002389E+02</pdfrwt>
<totfact> 0.38630877E+06</totfact>
</mgrwt>
</event>
<event>
 5    1  0.1607476E-006  0.2000599E+02  0.7818608E-02  0.1745209E+00
          2   -1    0    0  501    0  0.00000000000E+00  0.00000000000E+00  0.45322349979E+02  0.45322350054E+02  0.26000000000E-02 0. -1.
         -2   -1    0    0    0  501 -0.00000000000E+00 -0.00000000000E+00 -0.22077370878E+01  0.22077386188E+01  0.26000000000E-02 0.  1.
       1023    2    1    2    0    0  0.00000000000E+00  0.00000000000E+00  0.43114612892E+02  0.47530088673E+02  0.20005986216E+02 0.  0.
        -13    1    3    3    0    0 -0.29899556113E+00  0.99972211050E+01  0.21847021328E+02  0.24027845129E+02  0.10570000000E+00 0.  1.
         13    1    3    3    0    0  0.29899556113E+00 -0.99972211050E+01  0.21267591564E+02  0.23502243544E+02  0.10570000000E+00 0. -1.
<mgrwt>
<rscale>  0 0.20005986E+02</rscale>
<asrwt>0</asrwt>
<pdfrwt beam="1">  1        2 0.69726688E-02 0.20005986E+02</pdfrwt>
<pdfrwt beam="2">  1       -2 0.33965201E-03 0.20005986E+02</pdfrwt>
<totfact> 0.45636929E+06</totfact>
</mgrwt>
</event>
<event>
 5    1  0.1607476E-006  0.2000269E+02  0.7818608E-02  0.1745275E+00
         -2   -1    0    0    0  501 -0.00000000000E+00  0.00000000000E+00  0.31187549423E+01  0.31187560261E+01  0.26000000000E-02 0. -1.
          2   -1    0    0  501    0  0.00000000000E+00 -0.00000000000E+00 -0.32072685238E+02  0.32072685344E+02  0.26000000000E-02 0.  1.
       1023    2    1    2    0    0  0.00000000000E+00  0.00000000000E+00 -0.28953930296E+02  0.35191441370E+02  0.20002686472E+02 0.  0.
        -13    1    3    3    0    0 -0.22634727609E+01  0.97409873108E+01 -0.14345882162E+02  0.17487871518E+02  0.10570000000E+00 0. -1.
         13    1    3    3    0    0  0.22634727609E+01 -0.97409873108E+01 -0.14608048134E+02  0.17703569852E+02  0.10570000000E+00 0.  1.
<mgrwt>
<rscale>  0 0.20002686E+02</rscale>
<asrwt>0</asrwt>
<pdfrwt beam="2">  1        2 0.49342591E-02 0.20002686E+02</pdfrwt>
<pdfrwt beam="1">  1       -2 0.47980857E-03 0.20002686E+02</pdfrwt>
<totfact> 0.43685762E+06</totfact>
</mgrwt>
</event>
<event>
 5    1  0.1607476E-006  0.2000132E+02  0.7818608E-02  0.1745302E+00
         -2   -1    0    0    0  501 -0.00000000000E+00  0.00000000000E+00  0.33846596153E+02  0.33846596253E+02  0.26000000000E-02 0.  1.
          2   -1    0    0  501    0  0.00000000000E+00 -0.00000000000E+00 -0.29548947737E+01  0.29548959175E+01  0.26000000000E-02 0. -1.
       1023    2    1    2    0    0  0.00000000000E+00  0.00000000000E+00  0.30891701379E+02  0.36801492170E+02  0.20001315253E+02 0.  0.
        -13    1    3    3    0    0 -0.21287408667E+01  0.97708679802E+01  0.15401473497E+02  0.18363495232E+02  0.10570000000E+00 0. -1.
         13    1    3    3    0    0  0.21287408667E+01 -0.97708679802E+01  0.15490227882E+02  0.18437996938E+02  0.10570000000E+00 0.  1.
<mgrwt>
<rscale>  0 0.20001315E+02</rscale>
<asrwt>0</asrwt>
<pdfrwt beam="2">  1        2 0.45459926E-03 0.20001315E+02</pdfrwt>
<pdfrwt beam="1">  1       -2 0.52071691E-02 0.20001315E+02</pdfrwt>
<totfact> 0.35600351E+06</totfact>
</mgrwt>
</event>
<event>
 4    1  0.1607476E-006  0.2001704E+02  0.7818608E-02  0.1744989E+00
         -2   -1    0    0    0  501 -0.00000000000E+00  0.00000000000E+00  0.14322328514E+01  0.14322352113E+01  0.26000000000E-02 0. -1.
          2   -1    0    0  501    0  0.00000000000E+00 -0.00000000000E+00 -0.69940020728E+02  0.69940020777E+02  0.26000000000E-02 0.  1.
        -13    1    1    2    0    0 -0.55450946259E+01 -0.83294285974E+01 -0.34890262572E+02  0.36296956484E+02  0.10570000000E+00 0.  1.
         13    1    1    2    0    0  0.55450946259E+01  0.83294285974E+01 -0.33617525305E+02  0.35075299504E+02  0.10570000000E+00 0. -1.
<mgrwt>
<rscale>  0 0.20017041E+02</rscale>
<asrwt>0</asrwt>
<pdfrwt beam="2">  1        2 0.10760001E-01 0.20017041E+02</pdfrwt>
<pdfrwt beam="1">  1       -2 0.22034376E-03 0.20017041E+02</pdfrwt>
<totfact> 0.48919539E+06</totfact>
</mgrwt>
</event>
<event>
 4    1  0.1607476E-006  0.2022060E+02  0.7818608E-02  0.1740976E+00
         -2   -1    0    0    0  501 -0.00000000000E+00  0.00000000000E+00  0.44219480353E+01  0.44219487996E+01  0.26000000000E-02 0. -1.
          2   -1    0    0  501    0  0.00000000000E+00 -0.00000000000E+00 -0.23116089932E+02  0.23116090079E+02  0.26000000000E-02 0.  1.
        -13    1    1    2    0    0  0.78934607113E+01 -0.61700331901E+01 -0.11189870283E+02  0.15020000034E+02  0.10570000000E+00 0.  1.
         13    1    1    2    0    0 -0.78934607113E+01  0.61700331901E+01 -0.75042716143E+01  0.12518038845E+02  0.10570000000E+00 0. -1.
<mgrwt>
<rscale>  0 0.20220599E+02</rscale>
<asrwt>0</asrwt>
<pdfrwt beam="2">  1        2 0.35563215E-02 0.20220599E+02</pdfrwt>
<pdfrwt beam="1">  1       -2 0.68029978E-03 0.20220599E+02</pdfrwt>
<totfact> 0.41204237E+06</totfact>
</mgrwt>
</event>
<event>
 4    1  0.1607476E-006  0.2002823E+02  0.7818608E-02  0.1744767E+00
         -2   -1    0    0    0  501 -0.00000000000E+00  0.00000000000E+00  0.12602661912E+02  0.12602662180E+02  0.26000000000E-02 0. -1.
          2   -1    0    0  501    0  0.00000000000E+00 -0.00000000000E+00 -0.79572434048E+01  0.79572438296E+01  0.26000000000E-02 0.  1.
        -13    1    1    2    0    0 -0.20030984926E+01 -0.98111512577E+01  0.23085427838E+01  0.10276752155E+02  0.10570000000E+00 0. -1.
         13    1    1    2    0    0  0.20030984926E+01  0.98111512577E+01  0.23368757233E+01  0.10283153855E+02  0.10570000000E+00 0.  1.
<mgrwt>
<rscale>  0 0.20028226E+02</rscale>
<asrwt>0</asrwt>
<pdfrwt beam="2">  1        2 0.12241914E-02 0.20028226E+02</pdfrwt>
<pdfrwt beam="1">  1       -2 0.19388711E-02 0.20028226E+02</pdfrwt>
<totfact> 0.38682134E+06</totfact>
</mgrwt>
</event>
<event>
 5    1  0.1607476E-006  0.2000257E+02  0.7818608E-02  0.1745277E+00
         -2   -1    0    0    0  501 -0.00000000000E+00  0.00000000000E+00  0.47600012793E+02  0.47600012864E+02  0.26000000000E-02 0. -1.
          2   -1    0    0  501    0  0.00000000000E+00 -0.00000000000E+00 -0.21013798513E+01  0.21013814598E+01  0.26000000000E-02 0.  1.
       1023    2    1    2    0    0  0.00000000000E+00  0.00000000000E+00  0.45498632942E+02  0.49701394324E+02  0.20002574788E+02 0.  0.
        -13    1    3    3    0    0  0.85564775579E+01 -0.51763862331E+01  0.22552182939E+02  0.24670233287E+02  0.10570000000E+00 0. -1.
         13    1    3    3    0    0 -0.85564775579E+01  0.51763862331E+01  0.22946450003E+02  0.25031161037E+02  0.10570000000E+00 0.  1.
<mgrwt>
<rscale>  0 0.20002575E+02</rscale>
<asrwt>0</asrwt>
<pdfrwt beam="2">  1        2 0.32328936E-03 0.20002575E+02</pdfrwt>
<pdfrwt beam="1">  1       -2 0.73230785E-02 0.20002575E+02</pdfrwt>
<totfact> 0.34125650E+06</totfact>
</mgrwt>
</event>
<event>
 5    1  0.1607476E-006  0.2000134E+02  0.7818608E-02  0.1745301E+00
          2   -1    0    0  501    0  0.00000000000E+00  0.00000000000E+00  0.31773429999E+02  0.31773430105E+02  0.26000000000E-02 0.  1.
         -2   -1    0    0    0  501 -0.00000000000E+00 -0.00000000000E+00 -0.31477044071E+01  0.31477054809E+01  0.26000000000E-02 0. -1.
       1023    2    1    2    0    0  0.00000000000E+00  0.00000000000E+00  0.28625725592E+02  0.34921135586E+02  0.20001338580E+02 0.  0.
        -13    1    3    3    0    0  0.61579744849E+01  0.78790604151E+01  0.14390374900E+02  0.17524106398E+02  0.10570000000E+00 0. -1.
         13    1    3    3    0    0 -0.61579744849E+01 -0.78790604151E+01  0.14235350692E+02  0.17397029188E+02  0.10570000000E+00 0.  1.
<mgrwt>
<rscale>  0 0.20001339E+02</rscale>
<asrwt>0</asrwt>
<pdfrwt beam="1">  1        2 0.48882199E-02 0.20001339E+02</pdfrwt>
<pdfrwt beam="2">  1       -2 0.48426233E-03 0.20001339E+02</pdfrwt>
<totfact> 0.43645723E+06</totfact>
</mgrwt>
</event>
<event>
 4    1  0.1607476E-006  0.2007791E+02  0.7818608E-02  0.1743783E+00
         -2   -1    0    0    0  501 -0.00000000000E+00  0.00000000000E+00  0.25645185784E+02  0.25645185916E+02  0.26000000000E-02 0.  1.
          2   -1    0    0  501    0  0.00000000000E+00 -0.00000000000E+00 -0.39298047086E+01  0.39298055687E+01  0.26000000000E-02 0. -1.
        -13    1    1    2    0    0 -0.76135354928E+01 -0.65054120027E+01  0.98338615831E+01  0.14035751286E+02  0.10570000000E+00 0. -1.
         13    1    1    2    0    0  0.76135354928E+01  0.65054120027E+01  0.11881519493E+02  0.15539240199E+02  0.10570000000E+00 0.  1.
<mgrwt>
<rscale>  0 0.20077907E+02</rscale>
<asrwt>0</asrwt>
<pdfrwt beam="2">  1        2 0.60458541E-03 0.20077907E+02</pdfrwt>
<pdfrwt beam="1">  1       -2 0.39454133E-02 0.20077907E+02</pdfrwt>
<totfact> 0.36313392E+06</totfact>
</mgrwt>
</event>
<event>
 5    1  0.1607476E-006  0.2000184E+02  0.7818608E-02  0.1745292E+00
         -2   -1    0    0    0  501 -0.00000000000E+00  0.00000000000E+00  0.57753636819E+02  0.57753636877E+02  0.26000000000E-02 0.  1.
          2   -1    0    0  501    0  0.00000000000E+00 -0.00000000000E+00 -0.17318096223E+01  0.17318115740E+01  0.26000000000E-02 0. -1.
       1023    2    1    2    0    0  0.00000000000E+00  0.00000000000E+00  0.56021827197E+02  0.59485448451E+02  0.20001836291E+02 0.  0.
        -13    1    3    3    0    0 -0.95359539032E+01  0.30119015105E+01  0.28114948753E+02  0.29840701792E+02  0.10570000000E+00 0. -1.
         13    1    3    3    0    0  0.95359539032E+01 -0.30119015105E+01  0.27906878443E+02  0.29644746659E+02  0.10570000000E+00 0.  1.
<mgrwt>
<rscale>  0 0.20001836E+02</rscale>
<asrwt>0</asrwt>
<pdfrwt beam="2">  1        2 0.26643242E-03 0.20001836E+02</pdfrwt>
<pdfrwt beam="1">  1       -2 0.88851745E-02 0.20001836E+02</pdfrwt>
<totfact> 0.33158459E+06</totfact>
</mgrwt>
</event>
<event>
 5    1  0.1607476E-006  0.2000233E+02  0.7818608E-02  0.1745282E+00
          2   -1    0    0  501    0  0.00000000000E+00  0.00000000000E+00  0.42452293156E+02  0.42452293236E+02  0.26000000000E-02 0. -1.
         -2   -1    0    0    0  501 -0.00000000000E+00 -0.00000000000E+00 -0.23561337728E+01  0.23561352073E+01  0.26000000000E-02 0.  1.
       1023    2    1    2    0    0  0.00000000000E+00  0.00000000000E+00  0.40096159384E+02  0.44808428443E+02  0.20002331420E+02 0.  0.
        -13    1    3    3    0    0  0.56067416941E+00  0.99846289643E+01  0.19890120717E+02  0.22262866969E+02  0.10570000000E+00 0.  1.
         13    1    3    3    0    0 -0.56067416941E+00 -0.99846289643E+01  0.20206038667E+02  0.22545561474E+02  0.10570000000E+00 0. -1.
<mgrwt>
<rscale>  0 0.20002331E+02</rscale>
<asrwt>0</asrwt>
<pdfrwt beam="1">  1        2 0.65311216E-02 0.20002331E+02</pdfrwt>
<pdfrwt beam="2">  1       -2 0.36248226E-03 0.20002331E+02</pdfrwt>
<totfact> 0.45242618E+06</totfact>
</mgrwt>
</event>
<event>
 5    1  0.1607476E-006  0.2000332E+02  0.7818608E-02  0.1745262E+00
          2   -1    0    0  501    0  0.00000000000E+00  0.00000000000E+00  0.64043550865E+02  0.64043550918E+02  0.26000000000E-02 0. -1.
         -2   -1    0    0    0  501 -0.00000000000E+00 -0.00000000000E+00 -0.15619540165E+01  0.15619561804E+01  0.26000000000E-02 0.  1.
       1023    2    1    2    0    0  0.00000000000E+00  0.00000000000E+00  0.62481596849E+02  0.65605507098E+02  0.20003315147E+02 0.  0.
        -13    1    3    3    0    0  0.15848240174E+01 -0.98746850285E+01  0.31339743688E+02  0.32896987377E+02  0.10570000000E+00 0.  1.
         13    1    3    3    0    0 -0.15848240174E+01  0.98746850285E+01  0.31141853161E+02  0.32708519721E+02  0.10570000000E+00 0. -1.
<mgrwt>
<rscale>  0 0.20003315E+02</rscale>
<asrwt>0</asrwt>
<pdfrwt beam="1">  1        2 0.98528549E-02 0.20003315E+02</pdfrwt>
<pdfrwt beam="2">  1       -2 0.24030077E-03 0.20003315E+02</pdfrwt>
<totfact> 0.48219979E+06</totfact>
</mgrwt>
</event>
<event>
 5    1  0.1607476E-006  0.2000133E+02  0.7818608E-02  0.1745302E+00
          2   -1    0    0  501    0  0.00000000000E+00  0.00000000000E+00  0.11035728761E+02  0.11035729068E+02  0.26000000000E-02 0.  1.
         -2   -1    0    0    0  501 -0.00000000000E+00 -0.00000000000E+00 -0.90626789306E+01  0.90626793036E+01  0.26000000000E-02 0. -1.
       1023    2    1    2    0    0  0.00000000000E+00  0.00000000000E+00  0.19730498308E+01  0.20098408371E+02  0.20001327292E+02 0.  0.
        -13    1    3    3    0    0 -0.27363889245E+01 -0.96183748550E+01  0.95257231515E+00  0.10045871077E+02  0.10570000000E+00 0.  1.
         13    1    3    3    0    0  0.27363889245E+01  0.96183748550E+01  0.10204775157E+01  0.10052537294E+02  0.10570000000E+00 0. -1.
<mgrwt>
<rscale>  0 0.20001327E+02</rscale>
<asrwt>0</asrwt>
<pdfrwt beam="1">  1        2 0.16978045E-02 0.20001327E+02</pdfrwt>
<pdfrwt beam="2">  1       -2 0.13942584E-02 0.20001327E+02</pdfrwt>
<totfact> 0.39744348E+06</totfact>
</mgrwt>
</event>
<event>
 4    1  0.1607476E-006  0.2004343E+02  0.7818608E-02  0.1744466E+00
          2   -1    0    0  501    0  0.00000000000E+00  0.00000000000E+00  0.22117462830E+02  0.22117462983E+02  0.26000000000E-02 0.  1.
         -2   -1    0    0    0  501 -0.00000000000E+00 -0.00000000000E+00 -0.45409706522E+01  0.45409713965E+01  0.26000000000E-02 0. -1.
        -13    1    1    2    0    0  0.13542494977E+01  0.99283675439E+01  0.89622483072E+01  0.13443940680E+02  0.10570000000E+00 0.  1.
         13    1    1    2    0    0 -0.13542494977E+01 -0.99283675439E+01  0.86142438708E+01  0.13214493700E+02  0.10570000000E+00 0. -1.
<mgrwt>
<rscale>  0 0.20043429E+02</rscale>
<asrwt>0</asrwt>
<pdfrwt beam="1">  1        2 0.34026867E-02 0.20043429E+02</pdfrwt>
<pdfrwt beam="2">  1       -2 0.69861094E-03 0.20043429E+02</pdfrwt>
<totfact> 0.41854824E+06</totfact>
</mgrwt>
</event>
<event>
 4    1  0.1607476E-006  0.2002582E+02  0.7818608E-02  0.1744815E+00
          2   -1    0    0  501    0  0.00000000000E+00  0.00000000000E+00  0.17446714271E+01  0.17446733644E+01  0.26000000000E-02 0.  1.
         -2   -1    0    0    0  501 -0.00000000000E+00 -0.00000000000E+00 -0.57465432733E+02  0.57465432792E+02  0.26000000000E-02 0. -1.
        -13    1    1    2    0    0 -0.78569419594E+00 -0.99791079954E+01 -0.27217524338E+02  0.29000081299E+02  0.10570000000E+00 0. -1.
         13    1    1    2    0    0  0.78569419594E+00  0.99791079954E+01 -0.28503236968E+02  0.30210024858E+02  0.10570000000E+00 0.  1.
<mgrwt>
<rscale>  0 0.20025819E+02</rscale>
<asrwt>0</asrwt>
<pdfrwt beam="1">  1        2 0.26841119E-03 0.20025819E+02</pdfrwt>
<pdfrwt beam="2">  1       -2 0.88408345E-02 0.20025819E+02</pdfrwt>
<totfact> 0.33098180E+06</totfact>
</mgrwt>
</event>
<event>
 4    1  0.1607476E-006  0.2007361E+02  0.7818608E-02  0.1743868E+00
         -2   -1    0    0    0  501 -0.00000000000E+00  0.00000000000E+00  0.10422580243E+02  0.10422580567E+02  0.26000000000E-02 0.  1.
          2   -1    0    0  501    0  0.00000000000E+00 -0.00000000000E+00 -0.96653038515E+01  0.96653042012E+01  0.26000000000E-02 0. -1.
        -13    1    1    2    0    0 -0.99340851571E+01  0.12664254975E+01 -0.28240552821E+00  0.10019022249E+02  0.10570000000E+00 0.  1.
         13    1    1    2    0    0  0.99340851571E+01 -0.12664254975E+01  0.10396819193E+01  0.10068862519E+02  0.10570000000E+00 0. -1.
<mgrwt>
<rscale>  0 0.20073606E+02</rscale>
<asrwt>0</asrwt>
<pdfrwt beam="2">  1        2 0.14869699E-02 0.20073606E+02</pdfrwt>
<pdfrwt beam="1">  1       -2 0.16034739E-02 0.20073606E+02</pdfrwt>
<totfact> 0.39035611E+06</totfact>
</mgrwt>
</event>
<event>
 5    1  0.1607476E-006  0.2000216E+02  0.7818608E-02  0.1745285E+00
         -2   -1    0    0    0  501 -0.00000000000E+00  0.00000000000E+00  0.60681272136E+01  0.60681277707E+01  0.26000000000E-02 0.  1.
          2   -1    0    0  501    0  0.00000000000E+00 -0.00000000000E+00 -0.16483108896E+02  0.16483109101E+02  0.26000000000E-02 0. -1.
       1023    2    1    2    0    0  0.00000000000E+00  0.00000000000E+00 -0.10414981683E+02  0.22551236872E+02  0.20002160908E+02 0.  0.
        -13    1    3    3    0    0  0.83831545107E+01 -0.54519158363E+01 -0.53189417240E+01  0.11327090509E+02  0.10570000000E+00 0.  1.
         13    1    3    3    0    0 -0.83831545107E+01  0.54519158363E+01 -0.50960399585E+01  0.11224146363E+02  0.10570000000E+00 0. -1.
<mgrwt>
<rscale>  0 0.20002161E+02</rscale>
<asrwt>0</asrwt>
<pdfrwt beam="2">  1        2 0.25358629E-02 0.20002161E+02</pdfrwt>
<pdfrwt beam="1">  1       -2 0.93355810E-03 0.20002161E+02</pdfrwt>
<totfact> 0.40989013E+06</totfact>
</mgrwt>
</event>
<event>
 5    1  0.1607476E-006  0.2000663E+02  0.7818608E-02  0.1745196E+00
         -2   -1    0    0    0  501 -0.00000000000E+00  0.00000000000E+00  0.31071952904E+02  0.31071953013E+02  0.26000000000E-02 0.  1.
          2   -1    0    0  501    0  0.00000000000E+00 -0.00000000000E+00 -0.32204713595E+01  0.32204724091E+01  0.26000000000E-02 0. -1.
       1023    2    1    2    0    0  0.00000000000E+00  0.00000000000E+00  0.27851481545E+02  0.34292425422E+02  0.20006634327E+02 0.  0.
        -13    1    3    3    0    0  0.51095822679E+01 -0.85984976463E+01  0.13728892738E+02  0.16986337481E+02  0.10570000000E+00 0. -1.
         13    1    3    3    0    0 -0.51095822679E+01  0.85984976463E+01  0.14122588807E+02  0.17306087941E+02  0.10570000000E+00 0.  1.
<mgrwt>
<rscale>  0 0.20006634E+02</rscale>
<asrwt>0</asrwt>
<pdfrwt beam="2">  1        2 0.49545722E-03 0.20006634E+02</pdfrwt>
<pdfrwt beam="1">  1       -2 0.47803006E-02 0.20006634E+02</pdfrwt>
<totfact> 0.35907672E+06</totfact>
</mgrwt>
</event>
<event>
 5    1  0.1607476E-006  0.2000344E+02  0.7818608E-02  0.1745260E+00
          2   -1    0    0  501    0  0.00000000000E+00  0.00000000000E+00  0.49112010889E+01  0.49112017771E+01  0.26000000000E-02 0. -1.
         -2   -1    0    0    0  501 -0.00000000000E+00 -0.00000000000E+00 -0.20368621204E+02  0.20368621370E+02  0.26000000000E-02 0.  1.
       1023    2    1    2    0    0  0.00000000000E+00  0.00000000000E+00 -0.15457420115E+02  0.25279823147E+02  0.20003440247E+02 0.  0.
        -13    1    3    3    0    0  0.91019811820E+01 -0.41439722126E+01 -0.76423858370E+01  0.12587128382E+02  0.10570000000E+00 0. -1.
         13    1    3    3    0    0 -0.91019811820E+01  0.41439722126E+01 -0.78150342778E+01  0.12692694765E+02  0.10570000000E+00 0.  1.
<mgrwt>
<rscale>  0 0.20003440E+02</rscale>
<asrwt>0</asrwt>
<pdfrwt beam="1">  1        2 0.75556947E-03 0.20003440E+02</pdfrwt>
<pdfrwt beam="2">  1       -2 0.31336341E-02 0.20003440E+02</pdfrwt>
<totfact> 0.37362770E+06</totfact>
</mgrwt>
</event>
<event>
 4    1  0.1607476E-006  0.2004212E+02  0.7818608E-02  0.1744492E+00
         -2   -1    0    0    0  501 -0.00000000000E+00  0.00000000000E+00  0.33673241290E+02  0.33673241391E+02  0.26000000000E-02 0.  1.
          2   -1    0    0  501    0  0.00000000000E+00 -0.00000000000E+00 -0.29822369070E+01  0.29822380404E+01  0.26000000000E-02 0. -1.
        -13    1    1    2    0    0 -0.39320194929E+01 -0.92060134886E+01  0.16161315323E+02  0.19010806061E+02  0.10570000000E+00 0. -1.
         13    1    1    2    0    0  0.39320194929E+01  0.92060134886E+01  0.14529689061E+02  0.17644673370E+02  0.10570000000E+00 0.  1.
<mgrwt>
<rscale>  0 0.20042116E+02</rscale>
<asrwt>0</asrwt>
<pdfrwt beam="2">  1        2 0.45880576E-03 0.20042116E+02</pdfrwt>
<pdfrwt beam="1">  1       -2 0.51804989E-02 0.20042116E+02</pdfrwt>
<totfact> 0.35462429E+06</totfact>
</mgrwt>
</event>
<event>
 4    1  0.1607476E-006  0.2038503E+02  0.7818608E-02  0.1737778E+00
         -2   -1    0    0    0  501 -0.00000000000E+00  0.00000000000E+00  0.16499218461E+01  0.16499238947E+01  0.26000000000E-02 0.  1.
          2   -1    0    0  501    0  0.00000000000E+00 -0.00000000000E+00 -0.62964971686E+02  0.62964971739E+02  0.26000000000E-02 0. -1.
        -13    1    1    2    0    0  0.79383318287E+01 -0.63450340585E+01 -0.28203069517E+02  0.29978340049E+02  0.10570000000E+00 0. -1.
         13    1    1    2    0    0 -0.79383318287E+01  0.63450340585E+01 -0.33111980322E+02  0.34636555585E+02  0.10570000000E+00 0.  1.
<mgrwt>
<rscale>  0 0.20385029E+02</rscale>
<asrwt>0</asrwt>
<pdfrwt beam="2">  1        2 0.96869170E-02 0.20385029E+02</pdfrwt>
<pdfrwt beam="1">  1       -2 0.25383434E-03 0.20385029E+02</pdfrwt>
<totfact> 0.46096631E+06</totfact>
</mgrwt>
</event>
<event>
 4    1  0.1607476E-006  0.2038974E+02  0.7818608E-02  0.1737687E+00
         -2   -1    0    0    0  501 -0.00000000000E+00  0.00000000000E+00  0.26161911573E+01  0.26161924492E+01  0.26000000000E-02 0.  1.
          2   -1    0    0  501    0  0.00000000000E+00 -0.00000000000E+00 -0.39727728283E+02  0.39727728368E+02  0.26000000000E-02 0. -1.
        -13    1    1    2    0    0 -0.92480516512E+01 -0.39708583605E+01 -0.21923661886E+02  0.24123687496E+02  0.10570000000E+00 0. -1.
         13    1    1    2    0    0  0.92480516512E+01  0.39708583605E+01 -0.15187875240E+02  0.18220233320E+02  0.10570000000E+00 0.  1.
<mgrwt>
<rscale>  0 0.20389739E+02</rscale>
<asrwt>0</asrwt>
<pdfrwt beam="2">  1        2 0.61119579E-02 0.20389739E+02</pdfrwt>
<pdfrwt beam="1">  1       -2 0.40249108E-03 0.20389739E+02</pdfrwt>
<totfact> 0.42959462E+06</totfact>
</mgrwt>
</event>
<event>
 5    1  0.1607476E-006  0.2000457E+02  0.7818608E-02  0.1745237E+00
          2   -1    0    0  501    0  0.00000000000E+00  0.00000000000E+00  0.12752921506E+02  0.12752921771E+02  0.26000000000E-02 0.  1.
         -2   -1    0    0    0  501 -0.00000000000E+00 -0.00000000000E+00 -0.78449247603E+01  0.78449251911E+01  0.26000000000E-02 0. -1.
       1023    2    1    2    0    0  0.00000000000E+00  0.00000000000E+00  0.49079967461E+01  0.20597846963E+02  0.20004571163E+02 0.  0.
        -13    1    3    3    0    0  0.94342644568E+01 -0.33207418722E+01  0.24985475009E+01  0.10309538522E+02  0.10570000000E+00 0. -1.
         13    1    3    3    0    0 -0.94342644568E+01  0.33207418722E+01  0.24094492451E+01  0.10288308441E+02  0.10570000000E+00 0.  1.
<mgrwt>
<rscale>  0 0.20004571E+02</rscale>
<asrwt>0</asrwt>
<pdfrwt beam="1">  1        2 0.19619880E-02 0.20004571E+02</pdfrwt>
<pdfrwt beam="2">  1       -2 0.12069116E-02 0.20004571E+02</pdfrwt>
<totfact> 0.40161609E+06</totfact>
</mgrwt>
</event>
<event>
 5    1  0.1607476E-006  0.2000119E+02  0.7818608E-02  0.1745304E+00
          2   -1    0    0  501    0  0.00000000000E+00  0.00000000000E+00  0.22848297816E+02  0.22848297964E+02  0.26000000000E-02 0. -1.
         -2   -1    0    0    0  501 -0.00000000000E+00 -0.00000000000E+00 -0.43772143026E+01  0.43772150748E+01  0.26000000000E-02 0.  1.
       1023    2    1    2    0    0  0.00000000000E+00  0.00000000000E+00  0.18471083514E+02  0.27225513039E+02  0.20001190816E+02 0.  0.
        -13    1    3    3    0    0  0.71524580796E+01 -0.69887433387E+01  0.92673481056E+01  0.13634335460E+02  0.10570000000E+00 0.  1.
         13    1    3    3    0    0 -0.71524580796E+01  0.69887433387E+01  0.92037354081E+01  0.13591177579E+02  0.10570000000E+00 0. -1.
<mgrwt>
<rscale>  0 0.20001191E+02</rscale>
<asrwt>0</asrwt>
<pdfrwt beam="1">  1        2 0.35151228E-02 0.20001191E+02</pdfrwt>
<pdfrwt beam="2">  1       -2 0.67341766E-03 0.20001191E+02</pdfrwt>
<totfact> 0.42182247E+06</totfact>
</mgrwt>
</event>
<event>
 5    1  0.1607476E-006  0.2000684E+02  0.7818608E-02  0.1745192E+00
         -2   -1    0    0    0  501 -0.00000000000E+00  0.00000000000E+00  0.54276977739E+02  0.54276977801E+02  0.26000000000E-02 0. -1.
          2   -1    0    0  501    0  0.00000000000E+00 -0.00000000000E+00 -0.18436617070E+01  0.18436635403E+01  0.26000000000E-02 0.  1.
       1023    2    1    2    0    0  0.00000000000E+00  0.00000000000E+00  0.52433316032E+02  0.56120641341E+02  0.20006842691E+02 0.  0.
        -13    1    3    3    0    0  0.59277219942E+01 -0.80571016702E+01  0.26356652280E+02  0.28191116815E+02  0.10570000000E+00 0.  1.
         13    1    3    3    0    0 -0.59277219942E+01  0.80571016702E+01  0.26076663752E+02  0.27929524526E+02  0.10570000000E+00 0. -1.
<mgrwt>
<rscale>  0 0.20006843E+02</rscale>
<asrwt>0</asrwt>
<pdfrwt beam="2">  1        2 0.28364041E-03 0.20006843E+02</pdfrwt>
<pdfrwt beam="1">  1       -2 0.83503042E-02 0.20006843E+02</pdfrwt>
<totfact> 0.33463577E+06</totfact>
</mgrwt>
</event>
<event>
 4    1  0.1607476E-006  0.2001414E+02  0.7818608E-02  0.1745047E+00
          2   -1    0    0  501    0  0.00000000000E+00  0.00000000000E+00  0.92142103159E+00  0.92142469983E+00  0.26000000000E-02 0.  1.
         -2   -1    0    0    0  501 -0.00000000000E+00 -0.00000000000E+00 -0.10868132830E+03  0.10868132834E+03  0.26000000000E-02 0. -1.
        -13    1    1    2    0    0 -0.24589645639E+01  0.96992235026E+01 -0.53364817808E+02  0.54294902113E+02  0.10570000000E+00 0. -1.
         13    1    1    2    0    0  0.24589645639E+01 -0.96992235026E+01 -0.54395089464E+02  0.55307850922E+02  0.10570000000E+00 0.  1.
<mgrwt>
<rscale>  0 0.20014141E+02</rscale>
<asrwt>0</asrwt>
<pdfrwt beam="1">  1        2 0.14175745E-03 0.20014141E+02</pdfrwt>
<pdfrwt beam="2">  1       -2 0.16720194E-01 0.20014141E+02</pdfrwt>
<totfact> 0.29067389E+06</totfact>
</mgrwt>
</event>
<event>
 5    1  0.1607476E-006  0.2000824E+02  0.7818608E-02  0.1745164E+00
          2   -1    0    0  501    0  0.00000000000E+00  0.00000000000E+00  0.96558312214E+02  0.96558312249E+02  0.26000000000E-02 0.  1.
         -2   -1    0    0    0  501 -0.00000000000E+00 -0.00000000000E+00 -0.10364954192E+01  0.10364986802E+01  0.26000000000E-02 0. -1.
       1023    2    1    2    0    0  0.00000000000E+00  0.00000000000E+00  0.95521816795E+02  0.97594810930E+02  0.20008239216E+02 0.  0.
        -13    1    3    3    0    0  0.24910271942E+01  0.96869543907E+01  0.46931195077E+02  0.47985315938E+02  0.10570000000E+00 0. -1.
         13    1    3    3    0    0 -0.24910271942E+01 -0.96869543907E+01  0.48590621719E+02  0.49609494992E+02  0.10570000000E+00 0.  1.
<mgrwt>
<rscale>  0 0.20008239E+02</rscale>
<asrwt>0</asrwt>
<pdfrwt beam="1">  1        2 0.14855127E-01 0.20008239E+02</pdfrwt>
<pdfrwt beam="2">  1       -2 0.15946106E-03 0.20008239E+02</pdfrwt>
<totfact> 0.52296402E+06</totfact>
</mgrwt>
</event>
<event>
 5    1  0.1607476E-006  0.2000636E+02  0.7818608E-02  0.1745202E+00
          2   -1    0    0  501    0  0.00000000000E+00  0.00000000000E+00  0.33532947873E+02  0.33532947973E+02  0.26000000000E-02 0.  1.
         -2   -1    0    0    0  501 -0.00000000000E+00 -0.00000000000E+00 -0.29840387886E+01  0.29840399213E+01  0.26000000000E-02 0. -1.
       1023    2    1    2    0    0  0.00000000000E+00  0.00000000000E+00  0.30548909084E+02  0.36516987895E+02  0.20006362955E+02 0.  0.
        -13    1    3    3    0    0 -0.69575373948E+01  0.71837464578E+01  0.14914328486E+02  0.17957224352E+02  0.10570000000E+00 0.  1.
         13    1    3    3    0    0  0.69575373948E+01 -0.71837464578E+01  0.15634580598E+02  0.18559763542E+02  0.10570000000E+00 0. -1.
<mgrwt>
<rscale>  0 0.20006363E+02</rscale>
<asrwt>0</asrwt>
<pdfrwt beam="1">  1        2 0.51589152E-02 0.20006363E+02</pdfrwt>
<pdfrwt beam="2">  1       -2 0.45908298E-03 0.20006363E+02</pdfrwt>
<totfact> 0.43893513E+06</totfact>
</mgrwt>
</event>
<event>
 5    1  0.1607476E-006  0.2000455E+02  0.7818608E-02  0.1745238E+00
          2   -1    0    0  501    0  0.00000000000E+00  0.00000000000E+00  0.10782445172E+02  0.10782445485E+02  0.26000000000E-02 0. -1.
         -2   -1    0    0    0  501 -0.00000000000E+00 -0.00000000000E+00 -0.92785575337E+01  0.92785578980E+01  0.26000000000E-02 0.  1.
       1023    2    1    2    0    0  0.00000000000E+00  0.00000000000E+00  0.15038876381E+01  0.20061003383E+02  0.20004553949E+02 0.  0.
        -13    1    3    3    0    0  0.55407481014E+01  0.83248782003E+01  0.92818277355E+00  0.10043713572E+02  0.10570000000E+00 0. -1.
         13    1    3    3    0    0 -0.55407481014E+01 -0.83248782003E+01  0.57570486457E+00  0.10017289811E+02  0.10570000000E+00 0.  1.
<mgrwt>
<rscale>  0 0.20004554E+02</rscale>
<asrwt>0</asrwt>
<pdfrwt beam="1">  1        2 0.16588378E-02 0.20004554E+02</pdfrwt>
<pdfrwt beam="2">  1       -2 0.14274704E-02 0.20004554E+02</pdfrwt>
<totfact> 0.39661664E+06</totfact>
</mgrwt>
</event>
<event>
 5    1  0.1607476E-006  0.2000206E+02  0.7818608E-02  0.1745287E+00
          2   -1    0    0  501    0  0.00000000000E+00  0.00000000000E+00  0.50535646797E+02  0.50535646864E+02  0.26000000000E-02 0.  1.
         -2   -1    0    0    0  501 -0.00000000000E+00 -0.00000000000E+00 -0.19792085609E+01  0.19792102687E+01  0.26000000000E-02 0. -1.
       1023    2    1    2    0    0  0.00000000000E+00  0.00000000000E+00  0.48556438236E+02  0.52514857132E+02  0.20002063031E+02 0.  0.
        -13    1    3    3    0    0  0.55919486970E+01 -0.82906144298E+01  0.24087424296E+02  0.26081015309E+02  0.10570000000E+00 0.  1.
         13    1    3    3    0    0 -0.55919486970E+01  0.82906144298E+01  0.24469013940E+02  0.26433841823E+02  0.10570000000E+00 0. -1.
<mgrwt>
<rscale>  0 0.20002063E+02</rscale>
<asrwt>0</asrwt>
<pdfrwt beam="1">  1        2 0.77747134E-02 0.20002063E+02</pdfrwt>
<pdfrwt beam="2">  1       -2 0.30449383E-03 0.20002063E+02</pdfrwt>
<totfact> 0.46392216E+06</totfact>
</mgrwt>
</event>
<event>
 4    1  0.1607476E-006  0.2646730E+02  0.7818608E-02  0.1640779E+00
         -2   -1    0    0    0  501 -0.00000000000E+00  0.00000000000E+00  0.34435144224E+01  0.34435154039E+01  0.26000000000E-02 0.  1.
          2   -1    0    0  501    0  0.00000000000E+00 -0.00000000000E+00 -0.50857775543E+02  0.50857775610E+02  0.26000000000E-02 0. -1.
        -13    1    1    2    0    0  0.12176455021E+02 -0.21846805231E+01 -0.33347521641E+02  0.35568346292E+02  0.10570000000E+00 0. -1.
         13    1    1    2    0    0 -0.12176455021E+02  0.21846805231E+01 -0.14066739480E+02  0.18732944721E+02  0.10570000000E+00 0.  1.
<mgrwt>
<rscale>  0 0.26467301E+02</rscale>
<asrwt>0</asrwt>
<pdfrwt beam="2">  1        2 0.78242727E-02 0.26467301E+02</pdfrwt>
<pdfrwt beam="1">  1       -2 0.52977156E-03 0.26467301E+02</pdfrwt>
<totfact> 0.24501934E+06</totfact>
</mgrwt>
</event>
<event>
 5    1  0.1607476E-006  0.2000130E+02  0.7818608E-02  0.1745302E+00
         -2   -1    0    0    0  501 -0.00000000000E+00  0.00000000000E+00  0.69021016936E+02  0.69021016985E+02  0.26000000000E-02 0. -1.
          2   -1    0    0  501    0  0.00000000000E+00 -0.00000000000E+00 -0.14490205595E+01  0.14490228921E+01  0.26000000000E-02 0.  1.
       1023    2    1    2    0    0  0.00000000000E+00  0.00000000000E+00  0.67571996376E+02  0.70470039877E+02  0.20001295607E+02 0.  0.
        -13    1    3    3    0    0 -0.99197171108E+01 -0.12652024573E+01  0.33729275918E+02  0.35180630342E+02  0.10570000000E+00 0.  1.
         13    1    3    3    0    0  0.99197171108E+01  0.12652024573E+01  0.33842720458E+02  0.35289409535E+02  0.10570000000E+00 0. -1.
<mgrwt>
<rscale>  0 0.20001296E+02</rscale>
<asrwt>0</asrwt>
<pdfrwt beam="2">  1        2 0.22292650E-03 0.20001296E+02</pdfrwt>
<pdfrwt beam="1">  1       -2 0.10618615E-01 0.20001296E+02</pdfrwt>
<totfact> 0.32162069E+06</totfact>
</mgrwt>
</event>
<event>
 4    1  0.1607476E-006  0.2001342E+02  0.7818608E-02  0.1745061E+00
         -2   -1    0    0    0  501 -0.00000000000E+00  0.00000000000E+00  0.61168370530E+02  0.61168370585E+02  0.26000000000E-02 0. -1.
          2   -1    0    0  501    0  0.00000000000E+00 -0.00000000000E+00 -0.16370250870E+01  0.16370271517E+01  0.26000000000E-02 0.  1.
        -13    1    1    2    0    0 -0.86733626474E+01 -0.49887834571E+01  0.29487255847E+02  0.31138795896E+02  0.10570000000E+00 0.  1.
         13    1    1    2    0    0  0.86733626474E+01  0.49887834571E+01  0.30044089596E+02  0.31666601840E+02  0.10570000000E+00 0. -1.
<mgrwt>
<rscale>  0 0.20013418E+02</rscale>
<asrwt>0</asrwt>
<pdfrwt beam="2">  1        2 0.25185020E-03 0.20013418E+02</pdfrwt>
<pdfrwt beam="1">  1       -2 0.94105180E-02 0.20013418E+02</pdfrwt>
<totfact> 0.32806429E+06</totfact>
</mgrwt>
</event>
<event>
 5    1  0.1607476E-006  0.2000333E+02  0.7818608E-02  0.1745262E+00
         -2   -1    0    0    0  501 -0.00000000000E+00  0.00000000000E+00  0.12090150607E+01  0.12090178563E+01  0.26000000000E-02 0.  1.
          2   -1    0    0  501    0  0.00000000000E+00 -0.00000000000E+00 -0.82739372858E+02  0.82739372899E+02  0.26000000000E-02 0. -1.
       1023    2    1    2    0    0  0.00000000000E+00  0.00000000000E+00 -0.81530357797E+02  0.83948390755E+02  0.20003326419E+02 0.  0.
        -13    1    3    3    0    0  0.19966941573E+01 -0.97997428015E+01 -0.40686897681E+02  0.41898168956E+02  0.10570000000E+00 0. -1.
         13    1    3    3    0    0 -0.19966941573E+01  0.97997428015E+01 -0.40843460117E+02  0.42050221799E+02  0.10570000000E+00 0.  1.
<mgrwt>
<rscale>  0 0.20003326E+02</rscale>
<asrwt>0</asrwt>
<pdfrwt beam="2">  1        2 0.12729130E-01 0.20003326E+02</pdfrwt>
<pdfrwt beam="1">  1       -2 0.18600260E-03 0.20003326E+02</pdfrwt>
<totfact> 0.50625020E+06</totfact>
</mgrwt>
</event>
<event>
 5    1  0.1607476E-006  0.2000737E+02  0.7818608E-02  0.1745182E+00
          2   -1    0    0  501    0  0.00000000000E+00  0.00000000000E+00  0.55064069012E+01  0.55064075151E+01  0.26000000000E-02 0. -1.
         -2   -1    0    0    0  501 -0.00000000000E+00 -0.00000000000E+00 -0.18174044068E+02  0.18174044254E+02  0.26000000000E-02 0.  1.
       1023    2    1    2    0    0  0.00000000000E+00  0.00000000000E+00 -0.12667637167E+02  0.23680451769E+02  0.20007367758E+02 0.  0.
        -13    1    3    3    0    0  0.96904959967E+01  0.24695374856E+01 -0.60483052039E+01  0.11687493161E+02  0.10570000000E+00 0.  1.
         13    1    3    3    0    0 -0.96904959967E+01 -0.24695374856E+01 -0.66193319631E+01  0.11992958608E+02  0.10570000000E+00 0. -1.
<mgrwt>
<rscale>  0 0.20007368E+02</rscale>
<asrwt>0</asrwt>
<pdfrwt beam="1">  1        2 0.84713959E-03 0.20007368E+02</pdfrwt>
<pdfrwt beam="2">  1       -2 0.27960068E-02 0.20007368E+02</pdfrwt>
<totfact> 0.37698270E+06</totfact>
</mgrwt>
</event>
<event>
 5    1  0.1607476E-006  0.2000320E+02  0.7818608E-02  0.1745264E+00
         -2   -1    0    0    0  501 -0.00000000000E+00  0.00000000000E+00  0.85121338783E+01  0.85121342754E+01  0.26000000000E-02 0.  1.
          2   -1    0    0  501    0  0.00000000000E+00 -0.00000000000E+00 -0.11751699622E+02  0.11751699910E+02  0.26000000000E-02 0. -1.
       1023    2    1    2    0    0  0.00000000000E+00  0.00000000000E+00 -0.32395657439E+01  0.20263834185E+02  0.20003204485E+02 0.  0.
        -13    1    3    3    0    0  0.48867961079E+00 -0.99890861995E+01 -0.16046189922E+01  0.10129492853E+02  0.10570000000E+00 0. -1.
         13    1    3    3    0    0 -0.48867961079E+00  0.99890861995E+01 -0.16349467517E+01  0.10134341332E+02  0.10570000000E+00 0.  1.
<mgrwt>
<rscale>  0 0.20003204E+02</rscale>
<asrwt>0</asrwt>
<pdfrwt beam="2">  1        2 0.18079538E-02 0.20003204E+02</pdfrwt>
<pdfrwt beam="1">  1       -2 0.13095591E-02 0.20003204E+02</pdfrwt>
<totfact> 0.39921725E+06</totfact>
</mgrwt>
</event>
<event>
 5    1  0.1607476E-006  0.2001068E+02  0.7818608E-02  0.1745116E+00
         -2   -1    0    0    0  501 -0.00000000000E+00  0.00000000000E+00  0.11966184862E+02  0.11966185145E+02  0.26000000000E-02 0.  1.
          2   -1    0    0  501    0  0.00000000000E+00 -0.00000000000E+00 -0.83658111105E+01  0.83658115145E+01  0.26000000000E-02 0. -1.
       1023    2    1    2    0    0  0.00000000000E+00  0.00000000000E+00  0.36003737519E+01  0.20331996659E+02  0.20010682072E+02 0.  0.
        -13    1    3    3    0    0  0.40039202295E+01 -0.91677526161E+01  0.16692316293E+01  0.10142808879E+02  0.10570000000E+00 0. -1.
         13    1    3    3    0    0 -0.40039202295E+01  0.91677526161E+01  0.19311421225E+01  0.10189187780E+02  0.10570000000E+00 0.  1.
<mgrwt>
<rscale>  0 0.20010682E+02</rscale>
<asrwt>0</asrwt>
<pdfrwt beam="2">  1        2 0.12870479E-02 0.20010682E+02</pdfrwt>
<pdfrwt beam="1">  1       -2 0.18409516E-02 0.20010682E+02</pdfrwt>
<totfact> 0.38903270E+06</totfact>
</mgrwt>
</event>
<event>
 5    1  0.1607476E-006  0.2000249E+02  0.7818608E-02  0.1745279E+00
          2   -1    0    0  501    0  0.00000000000E+00  0.00000000000E+00  0.19055831480E+02  0.19055831658E+02  0.26000000000E-02 0. -1.
         -2   -1    0    0    0  501 -0.00000000000E+00 -0.00000000000E+00 -0.52490423875E+01  0.52490430314E+01  0.26000000000E-02 0.  1.
       1023    2    1    2    0    0  0.00000000000E+00  0.00000000000E+00  0.13806789093E+02  0.24304874689E+02  0.20002487560E+02 0.  0.
        -13    1    3    3    0    0 -0.28529154313E+01  0.95847117566E+01  0.67955401421E+01  0.12091168853E+02  0.10570000000E+00 0.  1.
         13    1    3    3    0    0  0.28529154313E+01 -0.95847117566E+01  0.70112489505E+01  0.12213705836E+02  0.10570000000E+00 0. -1.
<mgrwt>
<rscale>  0 0.20002488E+02</rscale>
<asrwt>0</asrwt>
<pdfrwt beam="1">  1        2 0.29316664E-02 0.20002488E+02</pdfrwt>
<pdfrwt beam="2">  1       -2 0.80754505E-03 0.20002488E+02</pdfrwt>
<totfact> 0.41490439E+06</totfact>
</mgrwt>
</event>
<event>
 4    1  0.1607476E-006  0.2008346E+02  0.7818608E-02  0.1743673E+00
         -2   -1    0    0    0  501 -0.00000000000E+00  0.00000000000E+00  0.75299803407E+01  0.75299807896E+01  0.26000000000E-02 0.  1.
          2   -1    0    0  501    0  0.00000000000E+00 -0.00000000000E+00 -0.13391315624E+02  0.13391315876E+02  0.26000000000E-02 0. -1.
        -13    1    1    2    0    0 -0.10019606957E+02 -0.37343264219E+00 -0.34947389816E+01  0.10618679229E+02  0.10570000000E+00 0.  1.
         13    1    1    2    0    0  0.10019606957E+02  0.37343264219E+00 -0.23665963016E+01  0.10302617437E+02  0.10570000000E+00 0. -1.
<mgrwt>
<rscale>  0 0.20083461E+02</rscale>
<asrwt>0</asrwt>
<pdfrwt beam="2">  1        2 0.20602025E-02 0.20083461E+02</pdfrwt>
<pdfrwt beam="1">  1       -2 0.11584586E-02 0.20083461E+02</pdfrwt>
<totfact> 0.39952709E+06</totfact>
</mgrwt>
</event>
<event>
 5    1  0.1607476E-006  0.2000454E+02  0.7818608E-02  0.1745238E+00
         -2   -1    0    0    0  501 -0.00000000000E+00  0.00000000000E+00  0.14070213970E+02  0.14070214210E+02  0.26000000000E-02 0. -1.
          2   -1    0    0  501    0  0.00000000000E+00 -0.00000000000E+00 -0.71104358940E+01  0.71104363694E+01  0.26000000000E-02 0.  1.
       1023    2    1    2    0    0  0.00000000000E+00  0.00000000000E+00  0.69597780761E+01  0.21180650580E+02  0.20004535689E+02 0.  0.
        -13    1    3    3    0    0 -0.41508616969E+01  0.90991627402E+01  0.33752123281E+01  0.10555929431E+02  0.10570000000E+00 0. -1.
         13    1    3    3    0    0  0.41508616969E+01 -0.90991627402E+01  0.35845657480E+01  0.10624721149E+02  0.10570000000E+00 0.  1.
<mgrwt>
<rscale>  0 0.20004536E+02</rscale>
<asrwt>0</asrwt>
<pdfrwt beam="2">  1        2 0.10939133E-02 0.20004536E+02</pdfrwt>
<pdfrwt beam="1">  1       -2 0.21646483E-02 0.20004536E+02</pdfrwt>
<totfact> 0.38464316E+06</totfact>
</mgrwt>
</event>
<event>
 4    1  0.1607476E-006  0.2002437E+02  0.7818608E-02  0.1744844E+00
          2   -1    0    0  501    0  0.00000000000E+00  0.00000000000E+00  0.17516224841E+02  0.17516225034E+02  0.26000000000E-02 0. -1.
         -2   -1    0    0    0  501 -0.00000000000E+00 -0.00000000000E+00 -0.57229140149E+01  0.57229146055E+01  0.26000000000E-02 0.  1.
        -13    1    1    2    0    0  0.80830759322E+00  0.99744297287E+01  0.62449645825E+01  0.11796328442E+02  0.10570000000E+00 0.  1.
         13    1    1    2    0    0 -0.80830759322E+00 -0.99744297287E+01  0.55483462437E+01  0.11442811198E+02  0.10570000000E+00 0. -1.
<mgrwt>
<rscale>  0 0.20024371E+02</rscale>
<asrwt>0</asrwt>
<pdfrwt beam="1">  1        2 0.26948039E-02 0.20024371E+02</pdfrwt>
<pdfrwt beam="2">  1       -2 0.88044837E-03 0.20024371E+02</pdfrwt>
<totfact> 0.41092355E+06</totfact>
</mgrwt>
</event>
<event>
 5    1  0.1607476E-006  0.2001068E+02  0.7818608E-02  0.1745116E+00
          2   -1    0    0  501    0  0.00000000000E+00  0.00000000000E+00  0.66148499931E+01  0.66148505041E+01  0.26000000000E-02 0. -1.
         -2   -1    0    0    0  501 -0.00000000000E+00 -0.00000000000E+00 -0.15133655316E+02  0.15133655540E+02  0.26000000000E-02 0.  1.
       1023    2    1    2    0    0  0.00000000000E+00  0.00000000000E+00 -0.85188053231E+01  0.21748506044E+02  0.20010683921E+02 0.  0.
        -13    1    3    3    0    0 -0.73459681535E+01  0.67892298594E+01 -0.40453051155E+01  0.10790391845E+02  0.10570000000E+00 0. -1.
         13    1    3    3    0    0  0.73459681535E+01 -0.67892298594E+01 -0.44735002076E+01  0.10958114199E+02  0.10570000000E+00 0.  1.
<mgrwt>
<rscale>  0 0.20010684E+02</rscale>
<asrwt>0</asrwt>
<pdfrwt beam="1">  1        2 0.10176693E-02 0.20010684E+02</pdfrwt>
<pdfrwt beam="2">  1       -2 0.23282547E-02 0.20010684E+02</pdfrwt>
<totfact> 0.38227682E+06</totfact>
</mgrwt>
</event>
<event>
 4    1  0.1607476E-006  0.2004597E+02  0.7818608E-02  0.1744415E+00
         -2   -1    0    0    0  501 -0.00000000000E+00  0.00000000000E+00  0.14109155909E+02  0.14109156149E+02  0.26000000000E-02 0. -1.
          2   -1    0    0  501    0  0.00000000000E+00 -0.00000000000E+00 -0.71202146338E+01  0.71202151085E+01  0.26000000000E-02 0.  1.
        -13    1    1    2    0    0 -0.30907193203E+01  0.95261927702E+01  0.39021078880E+01  0.10748884271E+02  0.10570000000E+00 0.  1.
         13    1    1    2    0    0  0.30907193203E+01 -0.95261927702E+01  0.30868333872E+01  0.10480486986E+02  0.10570000000E+00 0. -1.
<mgrwt>
<rscale>  0 0.20045970E+02</rscale>
<asrwt>0</asrwt>
<pdfrwt beam="2">  1        2 0.10954177E-02 0.20045970E+02</pdfrwt>
<pdfrwt beam="1">  1       -2 0.21706394E-02 0.20045970E+02</pdfrwt>
<totfact> 0.38285120E+06</totfact>
</mgrwt>
</event>
<event>
 4    1  0.1607476E-006  0.2001399E+02  0.7818608E-02  0.1745050E+00
          2   -1    0    0  501    0  0.00000000000E+00  0.00000000000E+00  0.31519210716E+01  0.31519221440E+01  0.26000000000E-02 0. -1.
         -2   -1    0    0    0  501 -0.00000000000E+00 -0.00000000000E+00 -0.31771085466E+02  0.31771085573E+02  0.26000000000E-02 0.  1.
        -13    1    1    2    0    0  0.61219141894E+01  0.79148046017E+01 -0.14165304711E+02  0.17343269452E+02  0.10570000000E+00 0.  1.
         13    1    1    2    0    0 -0.61219141894E+01 -0.79148046017E+01 -0.14453859683E+02  0.17579738265E+02  0.10570000000E+00 0. -1.
<mgrwt>
<rscale>  0 0.20013993E+02</rscale>
<asrwt>0</asrwt>
<pdfrwt beam="1">  1        2 0.48491105E-03 0.20013993E+02</pdfrwt>
<pdfrwt beam="2">  1       -2 0.48878592E-02 0.20013993E+02</pdfrwt>
<totfact> 0.35794996E+06</totfact>
</mgrwt>
</event>
<event>
 5    1  0.1607476E-006  0.2000390E+02  0.7818608E-02  0.1745251E+00
          2   -1    0    0  501    0  0.00000000000E+00  0.00000000000E+00  0.17424366962E+01  0.17424386360E+01  0.26000000000E-02 0.  1.
         -2   -1    0    0    0  501 -0.00000000000E+00 -0.00000000000E+00 -0.57413221526E+02  0.57413221585E+02  0.26000000000E-02 0. -1.
       1023    2    1    2    0    0  0.00000000000E+00  0.00000000000E+00 -0.55670784830E+02  0.59155660221E+02  0.20003895935E+02 0.  0.
        -13    1    3    3    0    0 -0.98763689060E+01  0.15692752350E+01 -0.27391780533E+02  0.29160351520E+02  0.10570000000E+00 0. -1.
         13    1    3    3    0    0  0.98763689060E+01 -0.15692752350E+01 -0.28279004297E+02  0.29995308701E+02  0.10570000000E+00 0.  1.
<mgrwt>
<rscale>  0 0.20003896E+02</rscale>
<asrwt>0</asrwt>
<pdfrwt beam="1">  1        2 0.26806738E-03 0.20003896E+02</pdfrwt>
<pdfrwt beam="2">  1       -2 0.88328020E-02 0.20003896E+02</pdfrwt>
<totfact> 0.33182297E+06</totfact>
</mgrwt>
</event>
<event>
 4    1  0.1607476E-006  0.2002050E+02  0.7818608E-02  0.1744921E+00
          2   -1    0    0  501    0  0.00000000000E+00  0.00000000000E+00  0.21288202847E+01  0.21288218725E+01  0.26000000000E-02 0. -1.
         -2   -1    0    0    0  501 -0.00000000000E+00 -0.00000000000E+00 -0.47070701952E+02  0.47070702024E+02  0.26000000000E-02 0.  1.
        -13    1    1    2    0    0 -0.55808332176E+01  0.83068446122E+01 -0.21952151559E+02  0.24125867806E+02  0.10570000000E+00 0. -1.
         13    1    1    2    0    0  0.55808332176E+01 -0.83068446122E+01 -0.22989730108E+02  0.25073656090E+02  0.10570000000E+00 0.  1.
<mgrwt>
<rscale>  0 0.20020500E+02</rscale>
<asrwt>0</asrwt>
<pdfrwt beam="1">  1        2 0.32751098E-03 0.20020500E+02</pdfrwt>
<pdfrwt beam="2">  1       -2 0.72416458E-02 0.20020500E+02</pdfrwt>
<totfact> 0.34111664E+06</totfact>
</mgrwt>
</event>
<event>
 5    1  0.1607476E-006  0.2000158E+02  0.7818608E-02  0.1745297E+00
         -2   -1    0    0    0  501 -0.00000000000E+00  0.00000000000E+00  0.20114510845E+01  0.20114527649E+01  0.26000000000E-02 0.  1.
          2   -1    0    0  501    0  0.00000000000E+00 -0.00000000000E+00 -0.49723204752E+02  0.49723204820E+02  0.26000000000E-02 0. -1.
       1023    2    1    2    0    0  0.00000000000E+00  0.00000000000E+00 -0.47711753668E+02  0.51734657585E+02  0.20001583872E+02 0.  0.
        -13    1    3    3    0    0 -0.99844039231E+01  0.56093156411E+00 -0.23749202105E+02  0.25768949125E+02  0.10570000000E+00 0. -1.
         13    1    3    3    0    0  0.99844039231E+01 -0.56093156411E+00 -0.23962551563E+02  0.25965708460E+02  0.10570000000E+00 0.  1.
<mgrwt>
<rscale>  0 0.20001584E+02</rscale>
<asrwt>0</asrwt>
<pdfrwt beam="2">  1        2 0.76497230E-02 0.20001584E+02</pdfrwt>
<pdfrwt beam="1">  1       -2 0.30945419E-03 0.20001584E+02</pdfrwt>
<totfact> 0.46281244E+06</totfact>
</mgrwt>
</event>
<event>
 5    1  0.1607476E-006  0.2000236E+02  0.7818608E-02  0.1745281E+00
         -2   -1    0    0    0  501 -0.00000000000E+00  0.00000000000E+00  0.17575188093E+02  0.17575188285E+02  0.26000000000E-02 0.  1.
          2   -1    0    0  501    0  0.00000000000E+00 -0.00000000000E+00 -0.56911827900E+01  0.56911833839E+01  0.26000000000E-02 0. -1.
       1023    2    1    2    0    0  0.00000000000E+00  0.00000000000E+00  0.11884005303E+02  0.23266371669E+02  0.20002361576E+02 0.  0.
        -13    1    3    3    0    0  0.26194130431E+01  0.96513927902E+01  0.58935218532E+01  0.11608422796E+02  0.10570000000E+00 0.  1.
         13    1    3    3    0    0 -0.26194130431E+01 -0.96513927902E+01  0.59904834498E+01  0.11657948873E+02  0.10570000000E+00 0. -1.
<mgrwt>
<rscale>  0 0.20002362E+02</rscale>
<asrwt>0</asrwt>
<pdfrwt beam="2">  1        2 0.87556666E-03 0.20002362E+02</pdfrwt>
<pdfrwt beam="1">  1       -2 0.27038751E-02 0.20002362E+02</pdfrwt>
<totfact> 0.37819842E+06</totfact>
</mgrwt>
</event>
<event>
 5    1  0.1607476E-006  0.2001130E+02  0.7818608E-02  0.1745104E+00
         -2   -1    0    0    0  501 -0.00000000000E+00  0.00000000000E+00  0.37028490398E+01  0.37028499527E+01  0.26000000000E-02 0. -1.
          2   -1    0    0  501    0  0.00000000000E+00 -0.00000000000E+00 -0.27036744384E+02  0.27036744509E+02  0.26000000000E-02 0.  1.
       1023    2    1    2    0    0  0.00000000000E+00  0.00000000000E+00 -0.23333895344E+02  0.30739594462E+02  0.20011296703E+02 0.  0.
        -13    1    3    3    0    0  0.86968581399E+01  0.49418375101E+01 -0.11991816169E+02  0.15616399297E+02  0.10570000000E+00 0. -1.
         13    1    3    3    0    0 -0.86968581399E+01 -0.49418375101E+01 -0.11342079175E+02  0.15123195165E+02  0.10570000000E+00 0.  1.
<mgrwt>
<rscale>  0 0.20011297E+02</rscale>
<asrwt>0</asrwt>
<pdfrwt beam="2">  1        2 0.41594991E-02 0.20011297E+02</pdfrwt>
<pdfrwt beam="1">  1       -2 0.56966918E-03 0.20011297E+02</pdfrwt>
<totfact> 0.42841075E+06</totfact>
</mgrwt>
</event>
<event>
 5    1  0.1607476E-006  0.2000995E+02  0.7818608E-02  0.1745130E+00
         -2   -1    0    0    0  501 -0.00000000000E+00  0.00000000000E+00  0.10721772489E+02  0.10721772804E+02  0.26000000000E-02 0.  1.
          2   -1    0    0  501    0  0.00000000000E+00 -0.00000000000E+00 -0.93360984000E+01  0.93360987620E+01  0.26000000000E-02 0. -1.
       1023    2    1    2    0    0  0.00000000000E+00  0.00000000000E+00  0.13856740888E+01  0.20057871566E+02  0.20009950502E+02 0.  0.
        -13    1    3    3    0    0 -0.41028703441E+01  0.91216366546E+01  0.91822427776E+00  0.10044506391E+02  0.10570000000E+00 0. -1.
         13    1    3    3    0    0  0.41028703441E+01 -0.91216366546E+01  0.46744981107E+00  0.10013365175E+02  0.10570000000E+00 0.  1.
<mgrwt>
<rscale>  0 0.20009951E+02</rscale>
<asrwt>0</asrwt>
<pdfrwt beam="2">  1        2 0.14363229E-02 0.20009951E+02</pdfrwt>
<pdfrwt beam="1">  1       -2 0.16495035E-02 0.20009951E+02</pdfrwt>
<totfact> 0.39220611E+06</totfact>
</mgrwt>
</event>
<event>
 5    1  0.1607476E-006  0.2000354E+02  0.7818608E-02  0.1745258E+00
          2   -1    0    0  501    0  0.00000000000E+00  0.00000000000E+00  0.12013492248E+01  0.12013520383E+01  0.26000000000E-02 0.  1.
         -2   -1    0    0    0  501 -0.00000000000E+00 -0.00000000000E+00 -0.83269107350E+02  0.83269107390E+02  0.26000000000E-02 0. -1.
       1023    2    1    2    0    0  0.00000000000E+00  0.00000000000E+00 -0.82067758125E+02  0.84470459429E+02  0.20003539497E+02 0.  0.
        -13    1    3    3    0    0  0.10000526116E+02  0.52072357633E-01 -0.40591162123E+02  0.41805105539E+02  0.10570000000E+00 0.  1.
         13    1    3    3    0    0 -0.10000526116E+02 -0.52072357633E-01 -0.41476596002E+02  0.42665353890E+02  0.10570000000E+00 0. -1.
<mgrwt>
<rscale>  0 0.20003539E+02</rscale>
<asrwt>0</asrwt>
<pdfrwt beam="1">  1        2 0.18482324E-03 0.20003539E+02</pdfrwt>
<pdfrwt beam="2">  1       -2 0.12810628E-01 0.20003539E+02</pdfrwt>
<totfact> 0.30985890E+06</totfact>
</mgrwt>
</event>
<event>
 4    1  0.1607476E-006  0.2001406E+02  0.7818608E-02  0.1745049E+00
         -2   -1    0    0    0  501 -0.00000000000E+00  0.00000000000E+00  0.10597733256E+01  0.10597765149E+01  0.26000000000E-02 0. -1.
          2   -1    0    0  501    0  0.00000000000E+00 -0.00000000000E+00 -0.94492375823E+02  0.94492375859E+02  0.26000000000E-02 0.  1.
        -13    1    1    2    0    0  0.99261573672E+01  0.12325904285E+01 -0.48080114538E+02  0.49109637198E+02  0.10570000000E+00 0. -1.
         13    1    1    2    0    0 -0.99261573672E+01 -0.12325904285E+01 -0.45352487960E+02  0.46442515176E+02  0.10570000000E+00 0.  1.
<mgrwt>
<rscale>  0 0.20014060E+02</rscale>
<asrwt>0</asrwt>
<pdfrwt beam="2">  1        2 0.14537282E-01 0.20014060E+02</pdfrwt>
<pdfrwt beam="1">  1       -2 0.16304237E-03 0.20014060E+02</pdfrwt>
<totfact> 0.52012898E+06</totfact>
</mgrwt>
</event>
<event>
 5    1  0.1607476E-006  0.2000141E+02  0.7818608E-02  0.1745300E+00
         -2   -1    0    0    0  501 -0.00000000000E+00  0.00000000000E+00  0.19987758854E+02  0.19987759024E+02  0.26000000000E-02 0.  1.
          2   -1    0    0  501    0  0.00000000000E+00 -0.00000000000E+00 -0.50037684463E+01  0.50037691218E+01  0.26000000000E-02 0. -1.
       1023    2    1    2    0    0  0.00000000000E+00  0.00000000000E+00  0.14983990408E+02  0.24991528145E+02  0.20001412712E+02 0.  0.
        -13    1    3    3    0    0 -0.97010479359E+01 -0.24274715320E+01  0.74950656259E+01  0.12497604983E+02  0.10570000000E+00 0.  1.
         13    1    3    3    0    0  0.97010479359E+01  0.24274715320E+01  0.74889247822E+01  0.12493923162E+02  0.10570000000E+00 0. -1.
<mgrwt>
<rscale>  0 0.20001413E+02</rscale>
<asrwt>0</asrwt>
<pdfrwt beam="2">  1        2 0.76981061E-03 0.20001413E+02</pdfrwt>
<pdfrwt beam="1">  1       -2 0.30750398E-02 0.20001413E+02</pdfrwt>
<totfact> 0.37430080E+06</totfact>
</mgrwt>
</event>
<event>
 5    1  0.1607476E-006  0.2000289E+02  0.7818608E-02  0.1745271E+00
          2   -1    0    0  501    0  0.00000000000E+00  0.00000000000E+00  0.36767258642E+01  0.36767267835E+01  0.26000000000E-02 0.  1.
         -2   -1    0    0    0  501 -0.00000000000E+00 -0.00000000000E+00 -0.27205954794E+02  0.27205954918E+02  0.26000000000E-02 0. -1.
       1023    2    1    2    0    0  0.00000000000E+00  0.00000000000E+00 -0.23529228930E+02  0.30882681701E+02  0.20002885168E+02 0.  0.
        -13    1    3    3    0    0 -0.99887686527E+01  0.49171075937E+00 -0.11795593123E+02  0.15464943203E+02  0.10570000000E+00 0. -1.
         13    1    3    3    0    0  0.99887686527E+01 -0.49171075937E+00 -0.11733635807E+02  0.15417738498E+02  0.10570000000E+00 0.  1.
<mgrwt>
<rscale>  0 0.20002885E+02</rscale>
<asrwt>0</asrwt>
<pdfrwt beam="1">  1        2 0.56565023E-03 0.20002885E+02</pdfrwt>
<pdfrwt beam="2">  1       -2 0.41855315E-02 0.20002885E+02</pdfrwt>
<totfact> 0.36405384E+06</totfact>
</mgrwt>
</event>
<event>
 5    1  0.1607476E-006  0.2000662E+02  0.7818608E-02  0.1745197E+00
         -2   -1    0    0    0  501 -0.00000000000E+00  0.00000000000E+00  0.19952158371E+01  0.19952175312E+01  0.26000000000E-02 0. -1.
          2   -1    0    0  501    0  0.00000000000E+00 -0.00000000000E+00 -0.50153032233E+02  0.50153032300E+02  0.26000000000E-02 0.  1.
       1023    2    1    2    0    0  0.00000000000E+00  0.00000000000E+00 -0.48157816395E+02  0.52148249831E+02  0.20006615917E+02 0.  0.
        -13    1    3    3    0    0 -0.98036872483E+01 -0.19847630728E+01 -0.24231553024E+02  0.26215089215E+02  0.10570000000E+00 0. -1.
         13    1    3    3    0    0  0.98036872483E+01  0.19847630728E+01 -0.23926263372E+02  0.25933160616E+02  0.10570000000E+00 0.  1.
<mgrwt>
<rscale>  0 0.20006616E+02</rscale>
<asrwt>0</asrwt>
<pdfrwt beam="2">  1        2 0.77158503E-02 0.20006616E+02</pdfrwt>
<pdfrwt beam="1">  1       -2 0.30695646E-03 0.20006616E+02</pdfrwt>
<totfact> 0.46315359E+06</totfact>
</mgrwt>
</event>
<event>
 5    1  0.1607476E-006  0.2000121E+02  0.7818608E-02  0.1745304E+00
         -2   -1    0    0    0  501 -0.00000000000E+00  0.00000000000E+00  0.24504914120E+02  0.24504914258E+02  0.26000000000E-02 0. -1.
          2   -1    0    0  501    0  0.00000000000E+00 -0.00000000000E+00 -0.40813080877E+01  0.40813089158E+01  0.26000000000E-02 0.  1.
       1023    2    1    2    0    0  0.00000000000E+00  0.00000000000E+00  0.20423606032E+02  0.28586223173E+02  0.20001211763E+02 0.  0.
        -13    1    3    3    0    0 -0.74999170021E+01 -0.66145427642E+01  0.10217242405E+02  0.14296997792E+02  0.10570000000E+00 0. -1.
         13    1    3    3    0    0  0.74999170021E+01  0.66145427642E+01  0.10206363627E+02  0.14289225381E+02  0.10570000000E+00 0.  1.
<mgrwt>
<rscale>  0 0.20001212E+02</rscale>
<asrwt>0</asrwt>
<pdfrwt beam="2">  1        2 0.62789362E-03 0.20001212E+02</pdfrwt>
<pdfrwt beam="1">  1       -2 0.37699869E-02 0.20001212E+02</pdfrwt>
<totfact> 0.36771666E+06</totfact>
</mgrwt>
</event>
<event>
 4    1  0.1607476E-006  0.2001763E+02  0.7818608E-02  0.1744978E+00
          2   -1    0    0  501    0  0.00000000000E+00  0.00000000000E+00  0.23130353523E+01  0.23130368136E+01  0.26000000000E-02 0. -1.
         -2   -1    0    0    0  501 -0.00000000000E+00 -0.00000000000E+00 -0.43309480364E+02  0.43309480442E+02  0.26000000000E-02 0.  1.
        -13    1    1    2    0    0  0.37400070541E+01  0.92830674357E+01 -0.20605801034E+02  0.22907928814E+02  0.10570000000E+00 0.  1.
         13    1    1    2    0    0 -0.37400070541E+01 -0.92830674357E+01 -0.20390643977E+02  0.22714588442E+02  0.10570000000E+00 0. -1.
<mgrwt>
<rscale>  0 0.20017632E+02</rscale>
<asrwt>0</asrwt>
<pdfrwt beam="1">  1        2 0.35585174E-03 0.20017632E+02</pdfrwt>
<pdfrwt beam="2">  1       -2 0.66629965E-02 0.20017632E+02</pdfrwt>
<totfact> 0.34504773E+06</totfact>
</mgrwt>
</event>
<event>
 5    1  0.1607476E-006  0.2000380E+02  0.7818608E-02  0.1745252E+00
         -2   -1    0    0    0  501 -0.00000000000E+00  0.00000000000E+00  0.11070610044E+03  0.11070610047E+03  0.26000000000E-02 0.  1.
          2   -1    0    0  501    0  0.00000000000E+00 -0.00000000000E+00 -0.90363426553E+00  0.90363800597E+00  0.26000000000E-02 0. -1.
       1023    2    1    2    0    0  0.00000000000E+00  0.00000000000E+00  0.10980246618E+03  0.11160973848E+03  0.20003803259E+02 0.  0.
        -13    1    3    3    0    0 -0.42936807130E+01  0.90323166280E+01  0.55413386043E+02  0.56308729012E+02  0.10570000000E+00 0.  1.
         13    1    3    3    0    0  0.42936807130E+01 -0.90323166280E+01  0.54389080134E+02  0.55301009466E+02  0.10570000000E+00 0. -1.
<mgrwt>
<rscale>  0 0.20003803E+02</rscale>
<asrwt>0</asrwt>
<pdfrwt beam="2">  1        2 0.13902093E-03 0.20003803E+02</pdfrwt>
<pdfrwt beam="1">  1       -2 0.17031711E-01 0.20003803E+02</pdfrwt>
<totfact> 0.28959398E+06</totfact>
</mgrwt>
</event>
<event>
 5    1  0.1607476E-006  0.2000244E+02  0.7818608E-02  0.1745280E+00
         -2   -1    0    0    0  501 -0.00000000000E+00  0.00000000000E+00  0.41680646640E+02  0.41680646721E+02  0.26000000000E-02 0.  1.
          2   -1    0    0  501    0  0.00000000000E+00 -0.00000000000E+00 -0.23997801434E+01  0.23997815519E+01  0.26000000000E-02 0. -1.
       1023    2    1    2    0    0  0.00000000000E+00  0.00000000000E+00  0.39280866496E+02  0.44080428273E+02  0.20002441951E+02 0.  0.
        -13    1    3    3    0    0 -0.99357640131E+01  0.11374518967E+01  0.19655244342E+02  0.22053412570E+02  0.10570000000E+00 0. -1.
         13    1    3    3    0    0  0.99357640131E+01 -0.11374518967E+01  0.19625622154E+02  0.22027015703E+02  0.10570000000E+00 0.  1.
<mgrwt>
<rscale>  0 0.20002442E+02</rscale>
<asrwt>0</asrwt>
<pdfrwt beam="2">  1        2 0.36919706E-03 0.20002442E+02</pdfrwt>
<pdfrwt beam="1">  1       -2 0.64124073E-02 0.20002442E+02</pdfrwt>
<totfact> 0.34732368E+06</totfact>
</mgrwt>
</event>
<event>
 5    1  0.1607476E-006  0.2000372E+02  0.7818608E-02  0.1745254E+00
         -2   -1    0    0    0  501 -0.00000000000E+00  0.00000000000E+00  0.12387018088E+01  0.12387045374E+01  0.26000000000E-02 0.  1.
          2   -1    0    0  501    0  0.00000000000E+00 -0.00000000000E+00 -0.80759606338E+02  0.80759606380E+02  0.26000000000E-02 0. -1.
       1023    2    1    2    0    0  0.00000000000E+00  0.00000000000E+00 -0.79520904530E+02  0.81998310918E+02  0.20003718058E+02 0.  0.
        -13    1    3    3    0    0  0.98567131154E+01  0.16894849932E+01 -0.40292688541E+02  0.41515311336E+02  0.10570000000E+00 0. -1.
         13    1    3    3    0    0 -0.98567131154E+01 -0.16894849932E+01 -0.39228215989E+02  0.40482999582E+02  0.10570000000E+00 0.  1.
<mgrwt>
<rscale>  0 0.20003718E+02</rscale>
<asrwt>0</asrwt>
<pdfrwt beam="2">  1        2 0.12424551E-01 0.20003718E+02</pdfrwt>
<pdfrwt beam="1">  1       -2 0.19056979E-03 0.20003718E+02</pdfrwt>
<totfact> 0.50374534E+06</totfact>
</mgrwt>
</event>
<event>
 5    1  0.1607476E-006  0.2000937E+02  0.7818608E-02  0.1745142E+00
          2   -1    0    0  501    0  0.00000000000E+00  0.00000000000E+00  0.34262177577E+02  0.34262177676E+02  0.26000000000E-02 0. -1.
         -2   -1    0    0    0  501 -0.00000000000E+00 -0.00000000000E+00 -0.29214047980E+01  0.29214059549E+01  0.26000000000E-02 0.  1.
       1023    2    1    2    0    0  0.00000000000E+00  0.00000000000E+00  0.31340772779E+02  0.37183583631E+02  0.20009369136E+02 0.  0.
        -13    1    3    3    0    0  0.73336745397E+01 -0.68001809664E+01  0.15225565418E+02  0.18216867410E+02  0.10570000000E+00 0. -1.
         13    1    3    3    0    0 -0.73336745397E+01  0.68001809664E+01  0.16115207361E+02  0.18966716221E+02  0.10570000000E+00 0.  1.
<mgrwt>
<rscale>  0 0.20009369E+02</rscale>
<asrwt>0</asrwt>
<pdfrwt beam="1">  1        2 0.52711042E-02 0.20009369E+02</pdfrwt>
<pdfrwt beam="2">  1       -2 0.44944700E-03 0.20009369E+02</pdfrwt>
<totfact> 0.43990454E+06</totfact>
</mgrwt>
</event>
<event>
 5    1  0.1607476E-006  0.2000944E+02  0.7818608E-02  0.1745140E+00
         -2   -1    0    0    0  501 -0.00000000000E+00  0.00000000000E+00  0.19779250460E+01  0.19779267549E+01  0.26000000000E-02 0. -1.
          2   -1    0    0  501    0  0.00000000000E+00 -0.00000000000E+00 -0.50605747961E+02  0.50605748028E+02  0.26000000000E-02 0.  1.
       1023    2    1    2    0    0  0.00000000000E+00  0.00000000000E+00 -0.48627822915E+02  0.52583674782E+02  0.20009440077E+02 0.  0.
        -13    1    3    3    0    0 -0.97848554244E+01  0.20776422116E+01 -0.24714685512E+02  0.26662461351E+02  0.10570000000E+00 0. -1.
         13    1    3    3    0    0  0.97848554244E+01 -0.20776422116E+01 -0.23913137403E+02  0.25921213432E+02  0.10570000000E+00 0.  1.
<mgrwt>
<rscale>  0 0.20009440E+02</rscale>
<asrwt>0</asrwt>
<pdfrwt beam="2">  1        2 0.77854988E-02 0.20009440E+02</pdfrwt>
<pdfrwt beam="1">  1       -2 0.30429634E-03 0.20009440E+02</pdfrwt>
<totfact> 0.46363897E+06</totfact>
</mgrwt>
</event>
<event>
 5    1  0.1607476E-006  0.2000195E+02  0.7818608E-02  0.1745289E+00
          2   -1    0    0  501    0  0.00000000000E+00  0.00000000000E+00  0.17725462319E+02  0.17725462510E+02  0.26000000000E-02 0.  1.
         -2   -1    0    0    0  501 -0.00000000000E+00 -0.00000000000E+00 -0.56426996205E+01  0.56427002195E+01  0.26000000000E-02 0. -1.
       1023    2    1    2    0    0  0.00000000000E+00  0.00000000000E+00  0.12082762699E+02  0.23368162729E+02  0.20001946778E+02 0.  0.
        -13    1    3    3    0    0  0.32803713501E+01  0.94470707396E+01  0.60206631349E+01  0.11673368787E+02  0.10570000000E+00 0. -1.
         13    1    3    3    0    0 -0.32803713501E+01 -0.94470707396E+01  0.60620995638E+01  0.11694793943E+02  0.10570000000E+00 0.  1.
<mgrwt>
<rscale>  0 0.20001947E+02</rscale>
<asrwt>0</asrwt>
<pdfrwt beam="1">  1        2 0.27269942E-02 0.20001947E+02</pdfrwt>
<pdfrwt beam="2">  1       -2 0.86810771E-03 0.20001947E+02</pdfrwt>
<totfact> 0.41237528E+06</totfact>
</mgrwt>
</event>
<event>
 4    1  0.1607476E-006  0.2017195E+02  0.7818608E-02  0.1741930E+00
          2   -1    0    0  501    0  0.00000000000E+00  0.00000000000E+00  0.66267938664E+02  0.66267938715E+02  0.26000000000E-02 0. -1.
         -2   -1    0    0    0  501 -0.00000000000E+00 -0.00000000000E+00 -0.15350837519E+01  0.15350859537E+01  0.26000000000E-02 0.  1.
        -13    1    1    2    0    0 -0.55231926472E+01  0.84137916879E+01  0.30192779970E+02  0.31826289171E+02  0.10570000000E+00 0. -1.
         13    1    1    2    0    0  0.55231926472E+01 -0.84137916879E+01  0.34540074942E+02  0.35976735497E+02  0.10570000000E+00 0.  1.
<mgrwt>
<rscale>  0 0.20171952E+02</rscale>
<asrwt>0</asrwt>
<pdfrwt beam="1">  1        2 0.10195068E-01 0.20171952E+02</pdfrwt>
<pdfrwt beam="2">  1       -2 0.23616689E-03 0.20171952E+02</pdfrwt>
<totfact> 0.47617679E+06</totfact>
</mgrwt>
</event>
<event>
 5    1  0.1607476E-006  0.2000721E+02  0.7818608E-02  0.1745185E+00
          2   -1    0    0  501    0  0.00000000000E+00  0.00000000000E+00  0.16921409219E+02  0.16921409418E+02  0.26000000000E-02 0.  1.
         -2   -1    0    0    0  501 -0.00000000000E+00 -0.00000000000E+00 -0.59139340332E+01  0.59139346047E+01  0.26000000000E-02 0. -1.
       1023    2    1    2    0    0  0.00000000000E+00  0.00000000000E+00  0.11007475185E+02  0.22835344023E+02  0.20007209368E+02 0.  0.
        -13    1    3    3    0    0 -0.99877594214E+01 -0.52062332186E+00  0.57158802359E+01  0.11519932563E+02  0.10570000000E+00 0.  1.
         13    1    3    3    0    0  0.99877594214E+01  0.52062332186E+00  0.52915949494E+01  0.11315411460E+02  0.10570000000E+00 0. -1.
<mgrwt>
<rscale>  0 0.20007209E+02</rscale>
<asrwt>0</asrwt>
<pdfrwt beam="1">  1        2 0.26032938E-02 0.20007209E+02</pdfrwt>
<pdfrwt beam="2">  1       -2 0.90983607E-03 0.20007209E+02</pdfrwt>
<totfact> 0.41054006E+06</totfact>
</mgrwt>
</event>
<event>
 4    1  0.1607476E-006  0.2005433E+02  0.7818608E-02  0.1744250E+00
          2   -1    0    0  501    0  0.00000000000E+00  0.00000000000E+00  0.39480304977E+02  0.39480305063E+02  0.26000000000E-02 0. -1.
         -2   -1    0    0    0  501 -0.00000000000E+00 -0.00000000000E+00 -0.25466887156E+01  0.25466900429E+01  0.26000000000E-02 0.  1.
        -13    1    1    2    0    0  0.89807907762E+01  0.44160367813E+01  0.17180203798E+02  0.19882820697E+02  0.10570000000E+00 0. -1.
         13    1    1    2    0    0 -0.89807907762E+01 -0.44160367813E+01  0.19753412464E+02  0.22144174409E+02  0.10570000000E+00 0.  1.
<mgrwt>
<rscale>  0 0.20054334E+02</rscale>
<asrwt>0</asrwt>
<pdfrwt beam="1">  1        2 0.60738932E-02 0.20054334E+02</pdfrwt>
<pdfrwt beam="2">  1       -2 0.39179837E-03 0.20054334E+02</pdfrwt>
<totfact> 0.44548904E+06</totfact>
</mgrwt>
</event>
<event>
 5    1  0.1607476E-006  0.2000411E+02  0.7818608E-02  0.1745246E+00
         -2   -1    0    0    0  501 -0.00000000000E+00  0.00000000000E+00  0.24843422571E+01  0.24843436176E+01  0.26000000000E-02 0. -1.
          2   -1    0    0  501    0  0.00000000000E+00 -0.00000000000E+00 -0.40268619358E+02  0.40268619442E+02  0.26000000000E-02 0.  1.
       1023    2    1    2    0    0  0.00000000000E+00  0.00000000000E+00 -0.37784277101E+02  0.42752963059E+02  0.20004105937E+02 0.  0.
        -13    1    3    3    0    0 -0.53070966721E+01 -0.84758290149E+01 -0.18554631865E+02  0.21078199371E+02  0.10570000000E+00 0.  1.
         13    1    3    3    0    0  0.53070966721E+01  0.84758290149E+01 -0.19229645236E+02  0.21674763689E+02  0.10570000000E+00 0. -1.
<mgrwt>
<rscale>  0 0.20004106E+02</rscale>
<asrwt>0</asrwt>
<pdfrwt beam="2">  1        2 0.61951718E-02 0.20004106E+02</pdfrwt>
<pdfrwt beam="1">  1       -2 0.38220664E-03 0.20004106E+02</pdfrwt>
<totfact> 0.44915190E+06</totfact>
</mgrwt>
</event>
<event>
 5    1  0.1607476E-006  0.2000189E+02  0.7818608E-02  0.1745290E+00
         -2   -1    0    0    0  501 -0.00000000000E+00  0.00000000000E+00  0.13802259336E+02  0.13802259581E+02  0.26000000000E-02 0. -1.
          2   -1    0    0  501    0  0.00000000000E+00 -0.00000000000E+00 -0.72465605098E+01  0.72465609763E+01  0.26000000000E-02 0.  1.
       1023    2    1    2    0    0  0.00000000000E+00  0.00000000000E+00  0.65556988262E+01  0.21048820557E+02  0.20001891404E+02 0.  0.
        -13    1    3    3    0    0 -0.99800239314E+01  0.63712886845E+00  0.32457300373E+01  0.10514406632E+02  0.10570000000E+00 0.  1.
         13    1    3    3    0    0  0.99800239314E+01 -0.63712886845E+00  0.33099687889E+01  0.10534413925E+02  0.10570000000E+00 0. -1.
<mgrwt>
<rscale>  0 0.20001891E+02</rscale>
<asrwt>0</asrwt>
<pdfrwt beam="2">  1        2 0.11148555E-02 0.20001891E+02</pdfrwt>
<pdfrwt beam="1">  1       -2 0.21234245E-02 0.20001891E+02</pdfrwt>
<totfact> 0.38530739E+06</totfact>
</mgrwt>
</event>
<event>
 5    1  0.1676599E-006  0.2000258E+02  0.7818608E-02  0.1745277E+00
         -2   -1    0    0    0  501 -0.00000000000E+00  0.00000000000E+00  0.17874420051E+01  0.17874438961E+01  0.26000000000E-02 0. -1.
          2   -1    0    0  501    0  0.00000000000E+00 -0.00000000000E+00 -0.55960297394E+02  0.55960297455E+02  0.26000000000E-02 0.  1.
       1023    2    1    2    0    0  0.00000000000E+00  0.00000000000E+00 -0.54172855389E+02  0.57747741351E+02  0.20002584086E+02 0.  0.
        -13    1    3    3    0    0 -0.84834935602E+01  0.52948263792E+01 -0.27372528680E+02  0.29142260520E+02  0.10570000000E+00 0.  1.
         13    1    3    3    0    0  0.84834935602E+01 -0.52948263792E+01 -0.26800326709E+02  0.28605480831E+02  0.10570000000E+00 0. -1.
<mgrwt>
<rscale>  0 0.20002584E+02</rscale>
<asrwt>0</asrwt>
<pdfrwt beam="2">  1        2 0.86092753E-02 0.20002584E+02</pdfrwt>
<pdfrwt beam="1">  1       -2 0.27499127E-03 0.20002584E+02</pdfrwt>
<totfact> 0.47137119E+06</totfact>
</mgrwt>
</event>
<event>
 5    1  0.1607476E-006  0.2000727E+02  0.7818608E-02  0.1745184E+00
          2   -1    0    0  501    0  0.00000000000E+00  0.00000000000E+00  0.53249133195E+02  0.53249133258E+02  0.26000000000E-02 0. -1.
         -2   -1    0    0    0  501 -0.00000000000E+00 -0.00000000000E+00 -0.18793295661E+01  0.18793313647E+01  0.26000000000E-02 0.  1.
       1023    2    1    2    0    0  0.00000000000E+00  0.00000000000E+00  0.51369803628E+02  0.55128464623E+02  0.20007270849E+02 0.  0.
        -13    1    3    3    0    0  0.57233978055E+01 -0.82038546732E+01  0.25773559612E+02  0.27646845417E+02  0.10570000000E+00 0.  1.
         13    1    3    3    0    0 -0.57233978055E+01  0.82038546732E+01  0.25596244017E+02  0.27481619206E+02  0.10570000000E+00 0. -1.
<mgrwt>
<rscale>  0 0.20007271E+02</rscale>
<asrwt>0</asrwt>
<pdfrwt beam="1">  1        2 0.81921740E-02 0.20007271E+02</pdfrwt>
<pdfrwt beam="2">  1       -2 0.28912779E-03 0.20007271E+02</pdfrwt>
<totfact> 0.46741172E+06</totfact>
</mgrwt>
</event>
<event>
 5    1  0.1607476E-006  0.2000170E+02  0.7818608E-02  0.1745294E+00
          2   -1    0    0  501    0  0.00000000000E+00  0.00000000000E+00  0.67330734017E+02  0.67330734068E+02  0.26000000000E-02 0.  1.
         -2   -1    0    0    0  501 -0.00000000000E+00 -0.00000000000E+00 -0.14854569670E+01  0.14854592424E+01  0.26000000000E-02 0. -1.
       1023    2    1    2    0    0  0.00000000000E+00  0.00000000000E+00  0.65845277050E+02  0.68816193310E+02  0.20001698724E+02 0.  0.
        -13    1    3    3    0    0 -0.99973390116E+01  0.23779130577E+00  0.32751183050E+02  0.34244043215E+02  0.10570000000E+00 0. -1.
         13    1    3    3    0    0  0.99973390116E+01 -0.23779130577E+00  0.33094094000E+02  0.34572150095E+02  0.10570000000E+00 0.  1.
<mgrwt>
<rscale>  0 0.20001699E+02</rscale>
<asrwt>0</asrwt>
<pdfrwt beam="1">  1        2 0.10358575E-01 0.20001699E+02</pdfrwt>
<pdfrwt beam="2">  1       -2 0.22853202E-03 0.20001699E+02</pdfrwt>
<totfact> 0.48662065E+06</totfact>
</mgrwt>
</event>
<event>
 5    1  0.1642910E-006  0.2000129E+02  0.7818608E-02  0.1745302E+00
         -2   -1    0    0    0  501 -0.00000000000E+00  0.00000000000E+00  0.22870385362E+01  0.22870400141E+01  0.26000000000E-02 0.  1.
          2   -1    0    0  501    0  0.00000000000E+00 -0.00000000000E+00 -0.43730301831E+02  0.43730301908E+02  0.26000000000E-02 0. -1.
       1023    2    1    2    0    0  0.00000000000E+00  0.00000000000E+00 -0.41443263294E+02  0.46017341922E+02  0.20001292085E+02 0.  0.
        -13    1    3    3    0    0 -0.84363563282E+01 -0.53691777100E+01 -0.20630429134E+02  0.22926533888E+02  0.10570000000E+00 0. -1.
         13    1    3    3    0    0  0.84363563282E+01  0.53691777100E+01 -0.20812834161E+02  0.23090808034E+02  0.10570000000E+00 0.  1.
<mgrwt>
<rscale>  0 0.20001292E+02</rscale>
<asrwt>0</asrwt>
<pdfrwt beam="2">  1        2 0.67277383E-02 0.20001292E+02</pdfrwt>
<pdfrwt beam="1">  1       -2 0.35185223E-03 0.20001292E+02</pdfrwt>
<totfact> 0.45432518E+06</totfact>
</mgrwt>
</event>
<event>
 5    1  0.1607476E-006  0.2001235E+02  0.7818608E-02  0.1745083E+00
         -2   -1    0    0    0  501 -0.00000000000E+00  0.00000000000E+00  0.11229629899E+01  0.11229659998E+01  0.26000000000E-02 0. -1.
          2   -1    0    0  501    0  0.00000000000E+00 -0.00000000000E+00 -0.89160000896E+02  0.89160000934E+02  0.26000000000E-02 0.  1.
       1023    2    1    2    0    0  0.00000000000E+00  0.00000000000E+00 -0.88037037906E+02  0.90282966934E+02  0.20012348065E+02 0.  0.
        -13    1    3    3    0    0 -0.20117943537E+01 -0.98011971933E+01 -0.43840143993E+02  0.44967545861E+02  0.10570000000E+00 0.  1.
         13    1    3    3    0    0  0.20117943537E+01  0.98011971933E+01 -0.44196893913E+02  0.45315421073E+02  0.10570000000E+00 0. -1.
<mgrwt>
<rscale>  0 0.20012348E+02</rscale>
<asrwt>0</asrwt>
<pdfrwt beam="2">  1        2 0.13716918E-01 0.20012348E+02</pdfrwt>
<pdfrwt beam="1">  1       -2 0.17276384E-03 0.20012348E+02</pdfrwt>
<totfact> 0.51371213E+06</totfact>
</mgrwt>
</event>
<event>
 5    1  0.1607476E-006  0.2000226E+02  0.7818608E-02  0.1745283E+00
          2   -1    0    0  501    0  0.00000000000E+00  0.00000000000E+00  0.22701725394E+02  0.22701725542E+02  0.26000000000E-02 0. -1.
         -2   -1    0    0    0  501 -0.00000000000E+00 -0.00000000000E+00 -0.44059455404E+01  0.44059463075E+01  0.26000000000E-02 0.  1.
       1023    2    1    2    0    0  0.00000000000E+00  0.00000000000E+00  0.18295779853E+02  0.27107671850E+02  0.20002257690E+02 0.  0.
        -13    1    3    3    0    0 -0.53364631701E+01 -0.84577507003E+01  0.91418888786E+01  0.13549785638E+02  0.10570000000E+00 0. -1.
         13    1    3    3    0    0  0.53364631701E+01  0.84577507003E+01  0.91538909746E+01  0.13557886212E+02  0.10570000000E+00 0.  1.
<mgrwt>
<rscale>  0 0.20002258E+02</rscale>
<asrwt>0</asrwt>
<pdfrwt beam="1">  1        2 0.34925732E-02 0.20002258E+02</pdfrwt>
<pdfrwt beam="2">  1       -2 0.67783785E-03 0.20002258E+02</pdfrwt>
<totfact> 0.42151609E+06</totfact>
</mgrwt>
</event>
<event>
 5    1  0.1607476E-006  0.2000121E+02  0.7818608E-02  0.1745304E+00
          2   -1    0    0  501    0  0.00000000000E+00  0.00000000000E+00  0.22587778035E+02  0.22587778184E+02  0.26000000000E-02 0. -1.
         -2   -1    0    0    0  501 -0.00000000000E+00 -0.00000000000E+00 -0.44277089942E+01  0.44277097576E+01  0.26000000000E-02 0.  1.
       1023    2    1    2    0    0  0.00000000000E+00  0.00000000000E+00  0.18160069041E+02  0.27015487942E+02  0.20001211993E+02 0.  0.
        -13    1    3    3    0    0  0.49753010722E+01 -0.86744958656E+01  0.91086400790E+01  0.13526972901E+02  0.10570000000E+00 0.  1.
         13    1    3    3    0    0 -0.49753010722E+01  0.86744958656E+01  0.90514289616E+01  0.13488515041E+02  0.10570000000E+00 0. -1.
<mgrwt>
<rscale>  0 0.20001212E+02</rscale>
<asrwt>0</asrwt>
<pdfrwt beam="1">  1        2 0.34750428E-02 0.20001212E+02</pdfrwt>
<pdfrwt beam="2">  1       -2 0.68118607E-03 0.20001212E+02</pdfrwt>
<totfact> 0.42136637E+06</totfact>
</mgrwt>
</event>
<event>
 5    1  0.1607476E-006  0.2000639E+02  0.7818608E-02  0.1745201E+00
          2   -1    0    0  501    0  0.00000000000E+00  0.00000000000E+00  0.42166243351E+01  0.42166251367E+01  0.26000000000E-02 0. -1.
         -2   -1    0    0    0  501 -0.00000000000E+00 -0.00000000000E+00 -0.23730817189E+02  0.23730817332E+02  0.26000000000E-02 0.  1.
       1023    2    1    2    0    0  0.00000000000E+00  0.00000000000E+00 -0.19514192854E+02  0.27947442468E+02  0.20006394422E+02 0.  0.
        -13    1    3    3    0    0 -0.99118968800E+01 -0.13317327418E+01 -0.10013043135E+02  0.14152435026E+02  0.10570000000E+00 0.  1.
         13    1    3    3    0    0  0.99118968800E+01  0.13317327418E+01 -0.95011497196E+01  0.13795007443E+02  0.10570000000E+00 0. -1.
<mgrwt>
<rscale>  0 0.20006394E+02</rscale>
<asrwt>0</asrwt>
<pdfrwt beam="1">  1        2 0.64871152E-03 0.20006394E+02</pdfrwt>
<pdfrwt beam="2">  1       -2 0.36508949E-02 0.20006394E+02</pdfrwt>
<totfact> 0.36858146E+06</totfact>
</mgrwt>
</event>
<event>
 5    1  0.1607476E-006  0.2000496E+02  0.7818608E-02  0.1745229E+00
          2   -1    0    0  501    0  0.00000000000E+00  0.00000000000E+00  0.86956425530E+01  0.86956429417E+01  0.26000000000E-02 0. -1.
         -2   -1    0    0    0  501 -0.00000000000E+00 -0.00000000000E+00 -0.11505717055E+02  0.11505717348E+02  0.26000000000E-02 0.  1.
       1023    2    1    2    0    0  0.00000000000E+00  0.00000000000E+00 -0.28100745016E+01  0.20201360290E+02  0.20004960356E+02 0.  0.
        -13    1    3    3    0    0  0.62069940984E+00  0.99821810430E+01 -0.13080154157E+01  0.10087184094E+02  0.10570000000E+00 0. -1.
         13    1    3    3    0    0 -0.62069940984E+00 -0.99821810430E+01 -0.15020590859E+01  0.10114176196E+02  0.10570000000E+00 0.  1.
<mgrwt>
<rscale>  0 0.20004960E+02</rscale>
<asrwt>0</asrwt>
<pdfrwt beam="1">  1        2 0.13377912E-02 0.20004960E+02</pdfrwt>
<pdfrwt beam="2">  1       -2 0.17701104E-02 0.20004960E+02</pdfrwt>
<totfact> 0.39039412E+06</totfact>
</mgrwt>
</event>
<event>
 4    1  0.1607476E-006  0.2003247E+02  0.7818608E-02  0.1744683E+00
         -2   -1    0    0    0  501 -0.00000000000E+00  0.00000000000E+00  0.52808186195E+01  0.52808192595E+01  0.26000000000E-02 0.  1.
          2   -1    0    0  501    0  0.00000000000E+00 -0.00000000000E+00 -0.18997986478E+02  0.18997986656E+02  0.26000000000E-02 0. -1.
        -13    1    1    2    0    0  0.76247588573E+01 -0.64857331317E+01 -0.64528421322E+01  0.11910164817E+02  0.10570000000E+00 0.  1.
         13    1    1    2    0    0 -0.76247588573E+01  0.64857331317E+01 -0.72643257267E+01  0.12368641099E+02  0.10570000000E+00 0. -1.
<mgrwt>
<rscale>  0 0.20032467E+02</rscale>
<asrwt>0</asrwt>
<pdfrwt beam="2">  1        2 0.29227672E-02 0.20032467E+02</pdfrwt>
<pdfrwt beam="1">  1       -2 0.81243371E-03 0.20032467E+02</pdfrwt>
<totfact> 0.41339624E+06</totfact>
</mgrwt>
</event>
<event>
 5    1  0.1607476E-006  0.2000489E+02  0.7818608E-02  0.1745231E+00
          2   -1    0    0  501    0  0.00000000000E+00  0.00000000000E+00  0.63995550996E+02  0.63995551049E+02  0.26000000000E-02 0.  1.
         -2   -1    0    0    0  501 -0.00000000000E+00 -0.00000000000E+00 -0.15633712945E+01  0.15633734565E+01  0.26000000000E-02 0. -1.
       1023    2    1    2    0    0  0.00000000000E+00  0.00000000000E+00  0.62432179701E+02  0.65558924505E+02  0.20004887403E+02 0.  0.
        -13    1    3    3    0    0  0.87961399110E+01 -0.47582445477E+01  0.30700639556E+02  0.32288595667E+02  0.10570000000E+00 0. -1.
         13    1    3    3    0    0 -0.87961399110E+01  0.47582445477E+01  0.31731540145E+02  0.33270328838E+02  0.10570000000E+00 0.  1.
<mgrwt>
<rscale>  0 0.20004887E+02</rscale>
<asrwt>0</asrwt>
<pdfrwt beam="1">  1        2 0.98454685E-02 0.20004887E+02</pdfrwt>
<pdfrwt beam="2">  1       -2 0.24051886E-03 0.20004887E+02</pdfrwt>
<totfact> 0.48205202E+06</totfact>
</mgrwt>
</event>
<event>
 5    1  0.1607476E-006  0.2000510E+02  0.7818608E-02  0.1745227E+00
          2   -1    0    0  501    0  0.00000000000E+00  0.00000000000E+00  0.19209028277E+02  0.19209028453E+02  0.26000000000E-02 0.  1.
         -2   -1    0    0    0  501 -0.00000000000E+00 -0.00000000000E+00 -0.52085389221E+01  0.52085395710E+01  0.26000000000E-02 0. -1.
       1023    2    1    2    0    0  0.00000000000E+00  0.00000000000E+00  0.14000489355E+02  0.24417568024E+02  0.20005097501E+02 0.  0.
        -13    1    3    3    0    0  0.41029696817E+01  0.91202528499E+01  0.68017879354E+01  0.12094993339E+02  0.10570000000E+00 0. -1.
         13    1    3    3    0    0 -0.41029696817E+01 -0.91202528499E+01  0.71987014193E+01  0.12322574685E+02  0.10570000000E+00 0.  1.
<mgrwt>
<rscale>  0 0.20005098E+02</rscale>
<asrwt>0</asrwt>
<pdfrwt beam="1">  1        2 0.29552352E-02 0.20005098E+02</pdfrwt>
<pdfrwt beam="2">  1       -2 0.80131374E-03 0.20005098E+02</pdfrwt>
<totfact> 0.41507029E+06</totfact>
</mgrwt>
</event>
<event>
 5    1  0.1607476E-006  0.2000169E+02  0.7818608E-02  0.1745294E+00
         -2   -1    0    0    0  501 -0.00000000000E+00  0.00000000000E+00  0.26437403633E+01  0.26437416418E+01  0.26000000000E-02 0. -1.
          2   -1    0    0  501    0  0.00000000000E+00 -0.00000000000E+00 -0.37831577303E+02  0.37831577392E+02  0.26000000000E-02 0.  1.
       1023    2    1    2    0    0  0.00000000000E+00  0.00000000000E+00 -0.35187836939E+02  0.40475319034E+02  0.20001689489E+02 0.  0.
        -13    1    3    3    0    0 -0.97146437743E+01  0.23728482293E+01 -0.17529584279E+02  0.20181729605E+02  0.10570000000E+00 0.  1.
         13    1    3    3    0    0  0.97146437743E+01 -0.23728482293E+01 -0.17658252661E+02  0.20293589429E+02  0.10570000000E+00 0. -1.
<mgrwt>
<rscale>  0 0.20001689E+02</rscale>
<asrwt>0</asrwt>
<pdfrwt beam="2">  1        2 0.58202424E-02 0.20001689E+02</pdfrwt>
<pdfrwt beam="1">  1       -2 0.40672942E-03 0.20001689E+02</pdfrwt>
<totfact> 0.44566888E+06</totfact>
</mgrwt>
</event>
<event>
 5    1  0.1607476E-006  0.2000905E+02  0.7818608E-02  0.1745148E+00
          2   -1    0    0  501    0  0.00000000000E+00  0.00000000000E+00  0.26497172660E+02  0.26497172787E+02  0.26000000000E-02 0. -1.
         -2   -1    0    0    0  501 -0.00000000000E+00 -0.00000000000E+00 -0.37774042525E+01  0.37774051473E+01  0.26000000000E-02 0.  1.
       1023    2    1    2    0    0  0.00000000000E+00  0.00000000000E+00  0.22719768407E+02  0.30274577935E+02  0.20009052767E+02 0.  0.
        -13    1    3    3    0    0 -0.97589389307E+01  0.21955601879E+01  0.11584315509E+02  0.15305715008E+02  0.10570000000E+00 0.  1.
         13    1    3    3    0    0  0.97589389307E+01 -0.21955601879E+01  0.11135452898E+02  0.14968862927E+02  0.10570000000E+00 0. -1.
<mgrwt>
<rscale>  0 0.20009053E+02</rscale>
<asrwt>0</asrwt>
<pdfrwt beam="1">  1        2 0.40764882E-02 0.20009053E+02</pdfrwt>
<pdfrwt beam="2">  1       -2 0.58113919E-03 0.20009053E+02</pdfrwt>
<totfact> 0.42763069E+06</totfact>
</mgrwt>
</event>
<event>
 5    1  0.2773475E-006  0.2000128E+02  0.7818608E-02  0.1745303E+00
          2   -1    0    0  501    0  0.00000000000E+00  0.00000000000E+00  0.11594163283E+03  0.11594163286E+03  0.26000000000E-02 0. -1.
         -2   -1    0    0    0  501 -0.00000000000E+00 -0.00000000000E+00 -0.86261165291E+00  0.86261557124E+00  0.26000000000E-02 0.  1.
       1023    2    1    2    0    0  0.00000000000E+00  0.00000000000E+00  0.11507902118E+03  0.11680424843E+03  0.20001283367E+02 0.  0.
        -13    1    3    3    0    0  0.62733402795E+01 -0.77875168911E+01  0.57761424222E+02  0.58620760130E+02  0.10570000000E+00 0.  1.
         13    1    3    3    0    0 -0.62733402795E+01  0.77875168911E+01  0.57317596957E+02  0.58183488302E+02  0.10570000000E+00 0. -1.
<mgrwt>
<rscale>  0 0.20001283E+02</rscale>
<asrwt>0</asrwt>
<pdfrwt beam="1">  1        2 0.17837175E-01 0.20001283E+02</pdfrwt>
<pdfrwt beam="2">  1       -2 0.13270979E-03 0.20001283E+02</pdfrwt>
<totfact> 0.54620037E+06</totfact>
</mgrwt>
</event>
<event>
 4    1  0.1607476E-006  0.2004406E+02  0.7818608E-02  0.1744453E+00
         -2   -1    0    0    0  501 -0.00000000000E+00  0.00000000000E+00  0.15860064491E+01  0.15860085803E+01  0.26000000000E-02 0. -1.
          2   -1    0    0  501    0  0.00000000000E+00 -0.00000000000E+00 -0.63329508247E+02  0.63329508300E+02  0.26000000000E-02 0.  1.
        -13    1    1    2    0    0 -0.49763831774E+01 -0.86928827576E+01 -0.31892343043E+02  0.33428480633E+02  0.10570000000E+00 0.  1.
         13    1    1    2    0    0  0.49763831774E+01  0.86928827576E+01 -0.29851158755E+02  0.31487036248E+02  0.10570000000E+00 0. -1.
<mgrwt>
<rscale>  0 0.20044059E+02</rscale>
<asrwt>0</asrwt>
<pdfrwt beam="2">  1        2 0.97429995E-02 0.20044059E+02</pdfrwt>
<pdfrwt beam="1">  1       -2 0.24400121E-03 0.20044059E+02</pdfrwt>
<totfact> 0.47908219E+06</totfact>
</mgrwt>
</event>
<event>
 5    1  0.1607476E-006  0.2000967E+02  0.7818608E-02  0.1745136E+00
         -2   -1    0    0    0  501 -0.00000000000E+00  0.00000000000E+00  0.90735931792E+01  0.90735935517E+01  0.26000000000E-02 0. -1.
          2   -1    0    0  501    0  0.00000000000E+00 -0.00000000000E+00 -0.11031656343E+02  0.11031656650E+02  0.26000000000E-02 0.  1.
       1023    2    1    2    0    0  0.00000000000E+00  0.00000000000E+00 -0.19580631642E+01  0.20105250201E+02  0.20009674518E+02 0.  0.
        -13    1    3    3    0    0  0.46328336858E+01 -0.88635311106E+01 -0.73237097307E+00  0.10028602666E+02  0.10570000000E+00 0. -1.
         13    1    3    3    0    0 -0.46328336858E+01  0.88635311106E+01 -0.12256921911E+01  0.10076647535E+02  0.10570000000E+00 0.  1.
<mgrwt>
<rscale>  0 0.20009675E+02</rscale>
<asrwt>0</asrwt>
<pdfrwt beam="2">  1        2 0.16971780E-02 0.20009675E+02</pdfrwt>
<pdfrwt beam="1">  1       -2 0.13959375E-02 0.20009675E+02</pdfrwt>
<totfact> 0.39705490E+06</totfact>
</mgrwt>
</event>
<event>
 5    1  0.1607476E-006  0.2000271E+02  0.7818608E-02  0.1745274E+00
          2   -1    0    0  501    0  0.00000000000E+00  0.00000000000E+00  0.15631296795E+02  0.15631297012E+02  0.26000000000E-02 0.  1.
         -2   -1    0    0    0  501 -0.00000000000E+00 -0.00000000000E+00 -0.63991565591E+01  0.63991570873E+01  0.26000000000E-02 0. -1.
       1023    2    1    2    0    0  0.00000000000E+00  0.00000000000E+00  0.92321402363E+01  0.22030454099E+02  0.20002712178E+02 0.  0.
        -13    1    3    3    0    0  0.99912823715E+01 -0.43548485032E+00  0.45895308182E+01  0.11004105420E+02  0.10570000000E+00 0. -1.
         13    1    3    3    0    0 -0.99912823715E+01  0.43548485032E+00  0.46426094181E+01  0.11026348679E+02  0.10570000000E+00 0.  1.
<mgrwt>
<rscale>  0 0.20002712E+02</rscale>
<asrwt>0</asrwt>
<pdfrwt beam="1">  1        2 0.24048149E-02 0.20002712E+02</pdfrwt>
<pdfrwt beam="2">  1       -2 0.98448570E-03 0.20002712E+02</pdfrwt>
<totfact> 0.40810833E+06</totfact>
</mgrwt>
</event>
<event>
 5    1  0.1607476E-006  0.2000356E+02  0.7818608E-02  0.1745257E+00
          2   -1    0    0  501    0  0.00000000000E+00  0.00000000000E+00  0.22452098143E+02  0.22452098294E+02  0.26000000000E-02 0.  1.
         -2   -1    0    0    0  501 -0.00000000000E+00 -0.00000000000E+00 -0.44555112602E+01  0.44555120188E+01  0.26000000000E-02 0. -1.
       1023    2    1    2    0    0  0.00000000000E+00  0.00000000000E+00  0.17996586883E+02  0.26907610313E+02  0.20003558516E+02 0.  0.
        -13    1    3    3    0    0 -0.97146267366E+01 -0.23744437203E+01  0.88481415772E+01  0.13353379253E+02  0.10570000000E+00 0. -1.
         13    1    3    3    0    0  0.97146267366E+01  0.23744437203E+01  0.91484453059E+01  0.13554231060E+02  0.10570000000E+00 0.  1.
<mgrwt>
<rscale>  0 0.20003559E+02</rscale>
<asrwt>0</asrwt>
<pdfrwt beam="1">  1        2 0.34541689E-02 0.20003559E+02</pdfrwt>
<pdfrwt beam="2">  1       -2 0.68546336E-03 0.20003559E+02</pdfrwt>
<totfact> 0.42101738E+06</totfact>
</mgrwt>
</event>
<event>
 4    1  0.1607476E-006  0.2260094E+02  0.7818608E-02  0.1698062E+00
          2   -1    0    0  501    0  0.00000000000E+00  0.00000000000E+00  0.54686510103E+02  0.54686510165E+02  0.26000000000E-02 0.  1.
         -2   -1    0    0    0  501 -0.00000000000E+00 -0.00000000000E+00 -0.23351379421E+01  0.23351393895E+01  0.26000000000E-02 0. -1.
        -13    1    1    2    0    0 -0.10882278024E+02  0.29310370734E+01  0.28247696991E+02  0.30413130571E+02  0.10570000000E+00 0.  1.
         13    1    1    2    0    0  0.10882278024E+02 -0.29310370734E+01  0.24103675170E+02  0.26608518984E+02  0.10570000000E+00 0. -1.
<mgrwt>
<rscale>  0 0.22600937E+02</rscale>
<asrwt>0</asrwt>
<pdfrwt beam="1">  1        2 0.84133100E-02 0.22600937E+02</pdfrwt>
<pdfrwt beam="2">  1       -2 0.35925208E-03 0.22600937E+02</pdfrwt>
<totfact> 0.35677819E+06</totfact>
</mgrwt>
</event>
<event>
 5    1  0.1607476E-006  0.2000364E+02  0.7818608E-02  0.1745256E+00
         -2   -1    0    0    0  501 -0.00000000000E+00  0.00000000000E+00  0.29825025572E+01  0.29825036905E+01  0.26000000000E-02 0. -1.
          2   -1    0    0  501    0  0.00000000000E+00 -0.00000000000E+00 -0.33541071775E+02  0.33541071875E+02  0.26000000000E-02 0.  1.
       1023    2    1    2    0    0  0.00000000000E+00  0.00000000000E+00 -0.30558569218E+02  0.36523575566E+02  0.20003635157E+02 0.  0.
        -13    1    3    3    0    0  0.74490651483E+01 -0.66720190664E+01 -0.15542437102E+02  0.18481962384E+02  0.10570000000E+00 0.  1.
         13    1    3    3    0    0 -0.74490651483E+01  0.66720190664E+01 -0.15016132116E+02  0.18041613182E+02  0.10570000000E+00 0. -1.
<mgrwt>
<rscale>  0 0.20003635E+02</rscale>
<asrwt>0</asrwt>
<pdfrwt beam="2">  1        2 0.51601647E-02 0.20003635E+02</pdfrwt>
<pdfrwt beam="1">  1       -2 0.45884667E-03 0.20003635E+02</pdfrwt>
<totfact> 0.43908160E+06</totfact>
</mgrwt>
</event>
<event>
 5    1  0.1607476E-006  0.2000179E+02  0.7818608E-02  0.1745292E+00
          2   -1    0    0  501    0  0.00000000000E+00  0.00000000000E+00  0.92510465599E+01  0.92510469252E+01  0.26000000000E-02 0. -1.
         -2   -1    0    0    0  501 -0.00000000000E+00 -0.00000000000E+00 -0.10811524468E+02  0.10811524781E+02  0.26000000000E-02 0.  1.
       1023    2    1    2    0    0  0.00000000000E+00  0.00000000000E+00 -0.15604779085E+01  0.20062571706E+02  0.20001792224E+02 0.  0.
        -13    1    3    3    0    0  0.97602807938E+01  0.21779942129E+01 -0.77697549173E+00  0.10031032019E+02  0.10570000000E+00 0.  1.
         13    1    3    3    0    0 -0.97602807938E+01 -0.21779942129E+01 -0.78350241676E+00  0.10031539687E+02  0.10570000000E+00 0. -1.
<mgrwt>
<rscale>  0 0.20001792E+02</rscale>
<asrwt>0</asrwt>
<pdfrwt beam="1">  1        2 0.14232380E-02 0.20001792E+02</pdfrwt>
<pdfrwt beam="2">  1       -2 0.16633115E-02 0.20001792E+02</pdfrwt>
<totfact> 0.39230964E+06</totfact>
</mgrwt>
</event>
<event>
 5    1  0.1607476E-006  0.2000245E+02  0.7818608E-02  0.1745279E+00
          2   -1    0    0  501    0  0.00000000000E+00  0.00000000000E+00  0.22025912477E+02  0.22025912630E+02  0.26000000000E-02 0.  1.
         -2   -1    0    0    0  501 -0.00000000000E+00 -0.00000000000E+00 -0.45412193784E+01  0.45412201227E+01  0.26000000000E-02 0. -1.
       1023    2    1    2    0    0  0.00000000000E+00  0.00000000000E+00  0.17484693098E+02  0.26567132753E+02  0.20002451099E+02 0.  0.
        -13    1    3    3    0    0  0.17566233196E+01  0.98450070796E+01  0.88203615971E+01  0.13334910614E+02  0.10570000000E+00 0. -1.
         13    1    3    3    0    0 -0.17566233196E+01 -0.98450070796E+01  0.86643315012E+01  0.13232222139E+02  0.10570000000E+00 0.  1.
<mgrwt>
<rscale>  0 0.20002451E+02</rscale>
<asrwt>0</asrwt>
<pdfrwt beam="1">  1        2 0.33886021E-02 0.20002451E+02</pdfrwt>
<pdfrwt beam="2">  1       -2 0.69864919E-03 0.20002451E+02</pdfrwt>
<totfact> 0.42031912E+06</totfact>
</mgrwt>
</event>
<event>
 5    1  0.1607476E-006  0.2000171E+02  0.7818608E-02  0.1745294E+00
         -2   -1    0    0    0  501 -0.00000000000E+00  0.00000000000E+00  0.77271610645E+02  0.77271610689E+02  0.26000000000E-02 0. -1.
          2   -1    0    0  501    0  0.00000000000E+00 -0.00000000000E+00 -0.12943561266E+01  0.12943587380E+01  0.26000000000E-02 0.  1.
       1023    2    1    2    0    0  0.00000000000E+00  0.00000000000E+00  0.75977254519E+02  0.78565969427E+02  0.20001708622E+02 0.  0.
        -13    1    3    3    0    0  0.90322365348E+01  0.42921419408E+01  0.38170131537E+02  0.39458508503E+02  0.10570000000E+00 0.  1.
         13    1    3    3    0    0 -0.90322365348E+01 -0.42921419408E+01  0.37807122982E+02  0.39107460924E+02  0.10570000000E+00 0. -1.
<mgrwt>
<rscale>  0 0.20001709E+02</rscale>
<asrwt>0</asrwt>
<pdfrwt beam="2">  1        2 0.19913180E-03 0.20001709E+02</pdfrwt>
<pdfrwt beam="1">  1       -2 0.11887947E-01 0.20001709E+02</pdfrwt>
<totfact> 0.31472517E+06</totfact>
</mgrwt>
</event>
<event>
 5    1  0.1607476E-006  0.2000274E+02  0.7818608E-02  0.1745274E+00
          2   -1    0    0  501    0  0.00000000000E+00  0.00000000000E+00  0.32193831966E+01  0.32193842465E+01  0.26000000000E-02 0. -1.
         -2   -1    0    0    0  501 -0.00000000000E+00 -0.00000000000E+00 -0.31070363247E+02  0.31070363356E+02  0.26000000000E-02 0.  1.
       1023    2    1    2    0    0  0.00000000000E+00  0.00000000000E+00 -0.27850980050E+02  0.34289747602E+02  0.20002742333E+02 0.  0.
        -13    1    3    3    0    0 -0.77644187627E+00  0.99704135824E+01 -0.14037163191E+02  0.17235577505E+02  0.10570000000E+00 0.  1.
         13    1    3    3    0    0  0.77644187627E+00 -0.99704135824E+01 -0.13813816860E+02  0.17054170097E+02  0.10570000000E+00 0. -1.
<mgrwt>
<rscale>  0 0.20002742E+02</rscale>
<asrwt>0</asrwt>
<pdfrwt beam="1">  1        2 0.49528983E-03 0.20002742E+02</pdfrwt>
<pdfrwt beam="2">  1       -2 0.47800558E-02 0.20002742E+02</pdfrwt>
<totfact> 0.35923100E+06</totfact>
</mgrwt>
</event>
<event>
 5    1  0.1607476E-006  0.2000662E+02  0.7818608E-02  0.1745196E+00
          2   -1    0    0  501    0  0.00000000000E+00  0.00000000000E+00  0.96385823622E+02  0.96385823657E+02  0.26000000000E-02 0. -1.
         -2   -1    0    0    0  501 -0.00000000000E+00 -0.00000000000E+00 -0.10381826865E+01  0.10381859422E+01  0.26000000000E-02 0.  1.
       1023    2    1    2    0    0  0.00000000000E+00  0.00000000000E+00  0.95347640935E+02  0.97424009599E+02  0.20006624263E+02 0.  0.
        -13    1    3    3    0    0 -0.78266452280E+01  0.62275209104E+01  0.48302900694E+02  0.49327677627E+02  0.10570000000E+00 0. -1.
         13    1    3    3    0    0  0.78266452280E+01 -0.62275209104E+01  0.47044740242E+02  0.48096331972E+02  0.10570000000E+00 0.  1.
<mgrwt>
<rscale>  0 0.20006624E+02</rscale>
<asrwt>0</asrwt>
<pdfrwt beam="1">  1        2 0.14828588E-01 0.20006624E+02</pdfrwt>
<pdfrwt beam="2">  1       -2 0.15972067E-03 0.20006624E+02</pdfrwt>
<totfact> 0.52284890E+06</totfact>
</mgrwt>
</event>
<event>
 5    1  0.1607476E-006  0.2000119E+02  0.7818608E-02  0.1745305E+00
         -2   -1    0    0    0  501 -0.00000000000E+00  0.00000000000E+00  0.30680037093E+01  0.30680048110E+01  0.26000000000E-02 0.  1.
          2   -1    0    0  501    0  0.00000000000E+00 -0.00000000000E+00 -0.32598340649E+02  0.32598340753E+02  0.26000000000E-02 0. -1.
       1023    2    1    2    0    0  0.00000000000E+00  0.00000000000E+00 -0.29530336940E+02  0.35666345564E+02  0.20001185117E+02 0.  0.
        -13    1    3    3    0    0 -0.27811870546E+01 -0.96055019321E+01 -0.14770872395E+02  0.17837895409E+02  0.10570000000E+00 0. -1.
         13    1    3    3    0    0  0.27811870546E+01  0.96055019321E+01 -0.14759464544E+02  0.17828450155E+02  0.10570000000E+00 0.  1.
<mgrwt>
<rscale>  0 0.20001185E+02</rscale>
<asrwt>0</asrwt>
<pdfrwt beam="2">  1        2 0.50151292E-02 0.20001185E+02</pdfrwt>
<pdfrwt beam="1">  1       -2 0.47200069E-03 0.20001185E+02</pdfrwt>
<totfact> 0.43774725E+06</totfact>
</mgrwt>
</event>
<event>
 5    1  0.1607476E-006  0.2000199E+02  0.7818608E-02  0.1745289E+00
          2   -1    0    0  501    0  0.00000000000E+00  0.00000000000E+00  0.60846858372E+02  0.60846858428E+02  0.26000000000E-02 0.  1.
         -2   -1    0    0    0  501 -0.00000000000E+00 -0.00000000000E+00 -0.16437958049E+01  0.16437978611E+01  0.26000000000E-02 0. -1.
       1023    2    1    2    0    0  0.00000000000E+00  0.00000000000E+00  0.59203062567E+02  0.62490656289E+02  0.20001987553E+02 0.  0.
        -13    1    3    3    0    0 -0.98967665752E+01  0.14337567377E+01  0.29863984537E+02  0.31493973899E+02  0.10570000000E+00 0.  1.
         13    1    3    3    0    0  0.98967665752E+01 -0.14337567377E+01  0.29339078031E+02  0.30996682390E+02  0.10570000000E+00 0. -1.
<mgrwt>
<rscale>  0 0.20001988E+02</rscale>
<asrwt>0</asrwt>
<pdfrwt beam="1">  1        2 0.93610546E-02 0.20001988E+02</pdfrwt>
<pdfrwt beam="2">  1       -2 0.25289184E-03 0.20001988E+02</pdfrwt>
<totfact> 0.47800907E+06</totfact>
</mgrwt>
</event>
<event>
 5    1  0.1607476E-006  0.2000410E+02  0.7818608E-02  0.1745247E+00
         -2   -1    0    0    0  501 -0.00000000000E+00  0.00000000000E+00  0.16303892166E+01  0.16303912898E+01  0.26000000000E-02 0. -1.
          2   -1    0    0  501    0  0.00000000000E+00 -0.00000000000E+00 -0.61360165152E+02  0.61360165207E+02  0.26000000000E-02 0.  1.
       1023    2    1    2    0    0  0.00000000000E+00  0.00000000000E+00 -0.59729775936E+02  0.62990556497E+02  0.20004101442E+02 0.  0.
        -13    1    3    3    0    0  0.97458575603E+01 -0.22434407247E+01 -0.30251576113E+02  0.31861949026E+02  0.10570000000E+00 0.  1.
         13    1    3    3    0    0 -0.97458575603E+01  0.22434407247E+01 -0.29478199822E+02  0.31128607472E+02  0.10570000000E+00 0. -1.
<mgrwt>
<rscale>  0 0.20004101E+02</rscale>
<asrwt>0</asrwt>
<pdfrwt beam="2">  1        2 0.94400238E-02 0.20004101E+02</pdfrwt>
<pdfrwt beam="1">  1       -2 0.25082932E-03 0.20004101E+02</pdfrwt>
<totfact> 0.47858424E+06</totfact>
</mgrwt>
</event>
<event>
 4    1  0.1607476E-006  0.2009512E+02  0.7818608E-02  0.1743443E+00
         -2   -1    0    0    0  501 -0.00000000000E+00  0.00000000000E+00  0.44577847037E+01  0.44577854619E+01  0.26000000000E-02 0.  1.
          2   -1    0    0  501    0  0.00000000000E+00 -0.00000000000E+00 -0.22646554891E+02  0.22646555040E+02  0.26000000000E-02 0. -1.
        -13    1    1    2    0    0 -0.53167217949E+01 -0.85238553935E+01 -0.89101149633E+01  0.13428513044E+02  0.10570000000E+00 0. -1.
         13    1    1    2    0    0  0.53167217949E+01  0.85238553935E+01 -0.92786552236E+01  0.13675827458E+02  0.10570000000E+00 0.  1.
<mgrwt>
<rscale>  0 0.20095122E+02</rscale>
<asrwt>0</asrwt>
<pdfrwt beam="2">  1        2 0.34840854E-02 0.20095122E+02</pdfrwt>
<pdfrwt beam="1">  1       -2 0.68581312E-03 0.20095122E+02</pdfrwt>
<totfact> 0.41704900E+06</totfact>
</mgrwt>
</event>
<event>
 5    1  0.1690996E-006  0.2000123E+02  0.7818608E-02  0.1745304E+00
         -2   -1    0    0    0  501 -0.00000000000E+00  0.00000000000E+00  0.25146941473E+01  0.25146954914E+01  0.26000000000E-02 0.  1.
          2   -1    0    0  501    0  0.00000000000E+00 -0.00000000000E+00 -0.39771163158E+02  0.39771163243E+02  0.26000000000E-02 0. -1.
       1023    2    1    2    0    0  0.00000000000E+00  0.00000000000E+00 -0.37256469011E+02  0.42285858735E+02  0.20001234106E+02 0.  0.
        -13    1    3    3    0    0  0.34261247010E+01  0.93947732741E+01 -0.18697507241E+02  0.21203962951E+02  0.10570000000E+00 0. -1.
         13    1    3    3    0    0 -0.34261247010E+01 -0.93947732741E+01 -0.18558961770E+02  0.21081895783E+02  0.10570000000E+00 0.  1.
<mgrwt>
<rscale>  0 0.20001234E+02</rscale>
<asrwt>0</asrwt>
<pdfrwt beam="2">  1        2 0.61186401E-02 0.20001234E+02</pdfrwt>
<pdfrwt beam="1">  1       -2 0.38687616E-03 0.20001234E+02</pdfrwt>
<totfact> 0.44856456E+06</totfact>
</mgrwt>
</event>
<event>
 5    1  0.1607476E-006  0.2000693E+02  0.7818608E-02  0.1745190E+00
         -2   -1    0    0    0  501 -0.00000000000E+00  0.00000000000E+00  0.16051267557E+02  0.16051267767E+02  0.26000000000E-02 0. -1.
          2   -1    0    0  501    0  0.00000000000E+00 -0.00000000000E+00 -0.62343543244E+01  0.62343548665E+01  0.26000000000E-02 0.  1.
       1023    2    1    2    0    0  0.00000000000E+00  0.00000000000E+00  0.98169132321E+01  0.22285622634E+02  0.20006928569E+02 0.  0.
        -13    1    3    3    0    0 -0.45715737935E+01  0.88967451411E+01  0.48168449382E+01  0.11102455976E+02  0.10570000000E+00 0.  1.
         13    1    3    3    0    0  0.45715737935E+01 -0.88967451411E+01  0.50000682939E+01  0.11183166657E+02  0.10570000000E+00 0. -1.
<mgrwt>
<rscale>  0 0.20006929E+02</rscale>
<asrwt>0</asrwt>
<pdfrwt beam="2">  1        2 0.95913149E-03 0.20006929E+02</pdfrwt>
<pdfrwt beam="1">  1       -2 0.24694258E-02 0.20006929E+02</pdfrwt>
<totfact> 0.38070823E+06</totfact>
</mgrwt>
</event>
<event>
 5    1  0.1607476E-006  0.2001015E+02  0.7818608E-02  0.1745126E+00
          2   -1    0    0  501    0  0.00000000000E+00  0.00000000000E+00  0.28914133062E+01  0.28914144751E+01  0.26000000000E-02 0.  1.
         -2   -1    0    0    0  501 -0.00000000000E+00 -0.00000000000E+00 -0.34620284388E+02  0.34620284485E+02  0.26000000000E-02 0. -1.
       1023    2    1    2    0    0  0.00000000000E+00  0.00000000000E+00 -0.31728871082E+02  0.37511698961E+02  0.20010154892E+02 0.  0.
        -13    1    3    3    0    0  0.49108745264E+00  0.99923603869E+01 -0.15947624080E+02  0.18826213621E+02  0.10570000000E+00 0.  1.
         13    1    3    3    0    0 -0.49108745264E+00 -0.99923603869E+01 -0.15781247001E+02  0.18685485340E+02  0.10570000000E+00 0. -1.
<mgrwt>
<rscale>  0 0.20010155E+02</rscale>
<asrwt>0</asrwt>
<pdfrwt beam="1">  1        2 0.44483294E-03 0.20010155E+02</pdfrwt>
<pdfrwt beam="2">  1       -2 0.53261974E-02 0.20010155E+02</pdfrwt>
<totfact> 0.35477003E+06</totfact>
</mgrwt>
</event>
<event>
 4    1  0.1607476E-006  0.2002579E+02  0.7818608E-02  0.1744816E+00
          2   -1    0    0  501    0  0.00000000000E+00  0.00000000000E+00  0.76484638102E+02  0.76484638146E+02  0.26000000000E-02 0.  1.
         -2   -1    0    0    0  501 -0.00000000000E+00 -0.00000000000E+00 -0.13108245514E+01  0.13108271299E+01  0.26000000000E-02 0. -1.
        -13    1    1    2    0    0 -0.67273713272E+01  0.74154234121E+01  0.37699605091E+02  0.39006633101E+02  0.10570000000E+00 0.  1.
         13    1    1    2    0    0  0.67273713272E+01 -0.74154234121E+01  0.37474208460E+02  0.38788832176E+02  0.10570000000E+00 0. -1.
<mgrwt>
<rscale>  0 0.20025788E+02</rscale>
<asrwt>0</asrwt>
<pdfrwt beam="1">  1        2 0.11766868E-01 0.20025788E+02</pdfrwt>
<pdfrwt beam="2">  1       -2 0.20166552E-03 0.20025788E+02</pdfrwt>
<totfact> 0.49712036E+06</totfact>
</mgrwt>
</event>
<event>
 4    1  0.1607476E-006  0.2002613E+02  0.7818608E-02  0.1744809E+00
         -2   -1    0    0    0  501 -0.00000000000E+00  0.00000000000E+00  0.28985899443E+01  0.28985911104E+01  0.26000000000E-02 0. -1.
          2   -1    0    0  501    0  0.00000000000E+00 -0.00000000000E+00 -0.34589723924E+02  0.34589724022E+02  0.26000000000E-02 0.  1.
        -13    1    1    2    0    0 -0.99498562332E+01 -0.10426813516E+01 -0.15088740563E+02  0.18104366537E+02  0.10570000000E+00 0.  1.
         13    1    1    2    0    0  0.99498562332E+01  0.10426813516E+01 -0.16602393417E+02  0.19383948595E+02  0.10570000000E+00 0. -1.
<mgrwt>
<rscale>  0 0.20026128E+02</rscale>
<asrwt>0</asrwt>
<pdfrwt beam="2">  1        2 0.53214958E-02 0.20026128E+02</pdfrwt>
<pdfrwt beam="1">  1       -2 0.44593704E-03 0.20026128E+02</pdfrwt>
<totfact> 0.43957996E+06</totfact>
</mgrwt>
</event>
<event>
 4    1  0.1607476E-006  0.2001857E+02  0.7818608E-02  0.1744959E+00
          2   -1    0    0  501    0  0.00000000000E+00  0.00000000000E+00  0.71240044170E+01  0.71240048915E+01  0.26000000000E-02 0. -1.
         -2   -1    0    0    0  501 -0.00000000000E+00 -0.00000000000E+00 -0.14063130894E+02  0.14063131135E+02  0.26000000000E-02 0.  1.
        -13    1    1    2    0    0 -0.27244196672E+01 -0.96250914107E+01 -0.31188683453E+01  0.10478709817E+02  0.10570000000E+00 0. -1.
         13    1    1    2    0    0  0.27244196672E+01  0.96250914107E+01 -0.38202581319E+01  0.10708426209E+02  0.10570000000E+00 0.  1.
<mgrwt>
<rscale>  0 0.20018573E+02</rscale>
<asrwt>0</asrwt>
<pdfrwt beam="1">  1        2 0.10960007E-02 0.20018573E+02</pdfrwt>
<pdfrwt beam="2">  1       -2 0.21635586E-02 0.20018573E+02</pdfrwt>
<totfact> 0.38407633E+06</totfact>
</mgrwt>
</event>
<event>
 5    1  0.1607476E-006  0.2000641E+02  0.7818608E-02  0.1745201E+00
         -2   -1    0    0    0  501 -0.00000000000E+00  0.00000000000E+00  0.25642080371E+01  0.25642093552E+01  0.26000000000E-02 0.  1.
          2   -1    0    0  501    0  0.00000000000E+00 -0.00000000000E+00 -0.39023378159E+02  0.39023378246E+02  0.26000000000E-02 0. -1.
       1023    2    1    2    0    0  0.00000000000E+00  0.00000000000E+00 -0.36459170122E+02  0.41587587601E+02  0.20006407885E+02 0.  0.
        -13    1    3    3    0    0  0.47921343080E+01  0.87780306416E+01 -0.17843238077E+02  0.20455089604E+02  0.10570000000E+00 0.  1.
         13    1    3    3    0    0 -0.47921343080E+01 -0.87780306416E+01 -0.18615932046E+02  0.21132497997E+02  0.10570000000E+00 0. -1.
<mgrwt>
<rscale>  0 0.20006408E+02</rscale>
<asrwt>0</asrwt>
<pdfrwt beam="2">  1        2 0.60035963E-02 0.20006408E+02</pdfrwt>
<pdfrwt beam="1">  1       -2 0.39449368E-03 0.20006408E+02</pdfrwt>
<totfact> 0.44720256E+06</totfact>
</mgrwt>
</event>
<event>
 4    1  0.1607476E-006  0.2003692E+02  0.7818608E-02  0.1744595E+00
         -2   -1    0    0    0  501 -0.00000000000E+00  0.00000000000E+00  0.38289774419E+01  0.38289783246E+01  0.26000000000E-02 0.  1.
          2   -1    0    0  501    0  0.00000000000E+00 -0.00000000000E+00 -0.26213148094E+02  0.26213148223E+02  0.26000000000E-02 0. -1.
        -13    1    1    2    0    0 -0.91400356126E+01  0.40687411342E+01 -0.11961714880E+02  0.15594508674E+02  0.10570000000E+00 0.  1.
         13    1    1    2    0    0  0.91400356126E+01 -0.40687411342E+01 -0.10422455773E+02  0.14447617874E+02  0.10570000000E+00 0. -1.
<mgrwt>
<rscale>  0 0.20036923E+02</rscale>
<asrwt>0</asrwt>
<pdfrwt beam="2">  1        2 0.40327920E-02 0.20036923E+02</pdfrwt>
<pdfrwt beam="1">  1       -2 0.58907355E-03 0.20036923E+02</pdfrwt>
<totfact> 0.42582765E+06</totfact>
</mgrwt>
</event>
<event>
 5    1  0.1607476E-006  0.2000241E+02  0.7818608E-02  0.1745280E+00
          2   -1    0    0  501    0  0.00000000000E+00  0.00000000000E+00  0.10990742622E+02  0.10990742930E+02  0.26000000000E-02 0. -1.
         -2   -1    0    0    0  501 -0.00000000000E+00 -0.00000000000E+00 -0.91007576379E+01  0.91007580093E+01  0.26000000000E-02 0.  1.
       1023    2    1    2    0    0  0.00000000000E+00  0.00000000000E+00  0.18899849843E+01  0.20091500939E+02  0.20002409024E+02 0.  0.
        -13    1    3    3    0    0 -0.96256691799E+01 -0.27116235894E+01  0.86395138239E+00  0.10038127023E+02  0.10570000000E+00 0. -1.
         13    1    3    3    0    0  0.96256691799E+01  0.27116235894E+01  0.10260336019E+01  0.10053373916E+02  0.10570000000E+00 0.  1.
<mgrwt>
<rscale>  0 0.20002409E+02</rscale>
<asrwt>0</asrwt>
<pdfrwt beam="1">  1        2 0.16908835E-02 0.20002409E+02</pdfrwt>
<pdfrwt beam="2">  1       -2 0.14001166E-02 0.20002409E+02</pdfrwt>
<totfact> 0.39727450E+06</totfact>
</mgrwt>
</event>
<event>
 4    1  0.1607476E-006  0.2004480E+02  0.7818608E-02  0.1744439E+00
          2   -1    0    0  501    0  0.00000000000E+00  0.00000000000E+00  0.15075318607E+01  0.15075341028E+01  0.26000000000E-02 0. -1.
         -2   -1    0    0    0  501 -0.00000000000E+00 -0.00000000000E+00 -0.66631067513E+02  0.66631067564E+02  0.26000000000E-02 0.  1.
        -13    1    1    2    0    0  0.84271463702E+01 -0.53948627663E+01 -0.30650812703E+02  0.32242903592E+02  0.10570000000E+00 0. -1.
         13    1    1    2    0    0 -0.84271463702E+01  0.53948627663E+01 -0.34472722949E+02  0.35895698074E+02  0.10570000000E+00 0.  1.
<mgrwt>
<rscale>  0 0.20044803E+02</rscale>
<asrwt>0</asrwt>
<pdfrwt beam="1">  1        2 0.23192821E-03 0.20044803E+02</pdfrwt>
<pdfrwt beam="2">  1       -2 0.10250931E-01 0.20044803E+02</pdfrwt>
<totfact> 0.32214451E+06</totfact>
</mgrwt>
</event>
<event>
 5    1  0.1607476E-006  0.2000146E+02  0.7818608E-02  0.1745299E+00
         -2   -1    0    0    0  501 -0.00000000000E+00  0.00000000000E+00  0.31005035241E+01  0.31005046142E+01  0.26000000000E-02 0.  1.
          2   -1    0    0  501    0  0.00000000000E+00 -0.00000000000E+00 -0.32257539498E+02  0.32257539603E+02  0.26000000000E-02 0. -1.
       1023    2    1    2    0    0  0.00000000000E+00  0.00000000000E+00 -0.29157035974E+02  0.35358044217E+02  0.20001463548E+02 0.  0.
        -13    1    3    3    0    0 -0.92414700680E+01  0.38205737555E+01 -0.14501246103E+02  0.17615301980E+02  0.10570000000E+00 0.  1.
         13    1    3    3    0    0  0.92414700680E+01 -0.38205737555E+01 -0.14655789871E+02  0.17742742237E+02  0.10570000000E+00 0. -1.
<mgrwt>
<rscale>  0 0.20001464E+02</rscale>
<asrwt>0</asrwt>
<pdfrwt beam="2">  1        2 0.49626982E-02 0.20001464E+02</pdfrwt>
<pdfrwt beam="1">  1       -2 0.47700066E-03 0.20001464E+02</pdfrwt>
<totfact> 0.43720488E+06</totfact>
</mgrwt>
</event>
<event>
 5    1  0.1607476E-006  0.2000512E+02  0.7818608E-02  0.1745226E+00
          2   -1    0    0  501    0  0.00000000000E+00  0.00000000000E+00  0.79485869531E+01  0.79485873784E+01  0.26000000000E-02 0. -1.
         -2   -1    0    0    0  501 -0.00000000000E+00 -0.00000000000E+00 -0.12587287624E+02  0.12587287893E+02  0.26000000000E-02 0.  1.
       1023    2    1    2    0    0  0.00000000000E+00  0.00000000000E+00 -0.46387006713E+01  0.20535875271E+02  0.20005115077E+02 0.  0.
        -13    1    3    3    0    0  0.84272824929E+01 -0.53870484809E+01 -0.22941371079E+01  0.10262242402E+02  0.10570000000E+00 0. -1.
         13    1    3    3    0    0 -0.84272824929E+01  0.53870484809E+01 -0.23445635634E+01  0.10273632870E+02  0.10570000000E+00 0.  1.
<mgrwt>
<rscale>  0 0.20005115E+02</rscale>
<asrwt>0</asrwt>
<pdfrwt beam="1">  1        2 0.12228596E-02 0.20005115E+02</pdfrwt>
<pdfrwt beam="2">  1       -2 0.19365059E-02 0.20005115E+02</pdfrwt>
<totfact> 0.38781809E+06</totfact>
</mgrwt>
</event>
<event>
 4    1  0.1607476E-006  0.2005889E+02  0.7818608E-02  0.1744159E+00
         -2   -1    0    0    0  501 -0.00000000000E+00  0.00000000000E+00  0.32078703168E+02  0.32078703273E+02  0.26000000000E-02 0. -1.
          2   -1    0    0  501    0  0.00000000000E+00 -0.00000000000E+00 -0.31357175997E+01  0.31357186776E+01  0.26000000000E-02 0.  1.
        -13    1    1    2    0    0  0.89494291853E+01  0.45236802362E+01  0.14207360584E+02  0.17390118829E+02  0.10570000000E+00 0.  1.
         13    1    1    2    0    0 -0.89494291853E+01 -0.45236802362E+01  0.14735624984E+02  0.17824303122E+02  0.10570000000E+00 0. -1.
<mgrwt>
<rscale>  0 0.20058891E+02</rscale>
<asrwt>0</asrwt>
<pdfrwt beam="2">  1        2 0.48241819E-03 0.20058891E+02</pdfrwt>
<pdfrwt beam="1">  1       -2 0.49351852E-02 0.20058891E+02</pdfrwt>
<totfact> 0.35584009E+06</totfact>
</mgrwt>
</event>
<event>
 5    1  0.1634498E-006  0.2000124E+02  0.7818608E-02  0.1745303E+00
          2   -1    0    0  501    0  0.00000000000E+00  0.00000000000E+00  0.21956810528E+02  0.21956810682E+02  0.26000000000E-02 0.  1.
         -2   -1    0    0    0  501 -0.00000000000E+00 -0.00000000000E+00 -0.45549614857E+01  0.45549622278E+01  0.26000000000E-02 0. -1.
       1023    2    1    2    0    0  0.00000000000E+00  0.00000000000E+00  0.17401849042E+02  0.26511772910E+02  0.20001243780E+02 0.  0.
        -13    1    3    3    0    0  0.29466831886E+01 -0.95560012949E+01  0.86557185220E+01  0.13226214053E+02  0.10570000000E+00 0. -1.
         13    1    3    3    0    0 -0.29466831886E+01  0.95560012949E+01  0.87461305205E+01  0.13285558857E+02  0.10570000000E+00 0.  1.
<mgrwt>
<rscale>  0 0.20001244E+02</rscale>
<asrwt>0</asrwt>
<pdfrwt beam="1">  1        2 0.33779709E-02 0.20001244E+02</pdfrwt>
<pdfrwt beam="2">  1       -2 0.70076338E-03 0.20001244E+02</pdfrwt>
<totfact> 0.42025395E+06</totfact>
</mgrwt>
</event>
<event>
 4    1  0.1607476E-006  0.2001473E+02  0.7818608E-02  0.1745035E+00
          2   -1    0    0  501    0  0.00000000000E+00  0.00000000000E+00  0.46437612639E+02  0.46437612712E+02  0.26000000000E-02 0.  1.
         -2   -1    0    0    0  501 -0.00000000000E+00 -0.00000000000E+00 -0.21565982479E+01  0.21565998152E+01  0.26000000000E-02 0. -1.
        -13    1    1    2    0    0  0.32310305765E+01  0.94703853600E+01  0.22362817481E+02  0.24499684398E+02  0.10570000000E+00 0.  1.
         13    1    1    2    0    0 -0.32310305765E+01 -0.94703853600E+01  0.21918196910E+02  0.24094528129E+02  0.10570000000E+00 0. -1.
<mgrwt>
<rscale>  0 0.20014726E+02</rscale>
<asrwt>0</asrwt>
<pdfrwt beam="1">  1        2 0.71442483E-02 0.20014726E+02</pdfrwt>
<pdfrwt beam="2">  1       -2 0.33178447E-03 0.20014726E+02</pdfrwt>
<totfact> 0.45751123E+06</totfact>
</mgrwt>
</event>
<event>
 4    1  0.1607476E-006  0.2012453E+02  0.7818608E-02  0.1742863E+00
         -2   -1    0    0    0  501 -0.00000000000E+00  0.00000000000E+00  0.25951666946E+01  0.25951679970E+01  0.26000000000E-02 0. -1.
          2   -1    0    0  501    0  0.00000000000E+00 -0.00000000000E+00 -0.39014496258E+02  0.39014496345E+02  0.26000000000E-02 0.  1.
        -13    1    1    2    0    0  0.66466727946E+00 -0.10039167723E+02 -0.18429518263E+02  0.20997261418E+02  0.10570000000E+00 0. -1.
         13    1    1    2    0    0 -0.66466727946E+00  0.10039167723E+02 -0.17989811300E+02  0.20612402923E+02  0.10570000000E+00 0.  1.
<mgrwt>
<rscale>  0 0.20124527E+02</rscale>
<asrwt>0</asrwt>
<pdfrwt beam="2">  1        2 0.60022299E-02 0.20124527E+02</pdfrwt>
<pdfrwt beam="1">  1       -2 0.39925655E-03 0.20124527E+02</pdfrwt>
<totfact> 0.44134332E+06</totfact>
</mgrwt>
</event>
<event>
 5    1  0.1607476E-006  0.2000169E+02  0.7818608E-02  0.1745294E+00
          2   -1    0    0  501    0  0.00000000000E+00  0.00000000000E+00  0.67594493867E+01  0.67594498867E+01  0.26000000000E-02 0.  1.
         -2   -1    0    0    0  501 -0.00000000000E+00 -0.00000000000E+00 -0.14796604860E+02  0.14796605089E+02  0.26000000000E-02 0. -1.
       1023    2    1    2    0    0  0.00000000000E+00  0.00000000000E+00 -0.80371554736E+01  0.21556054975E+02  0.20001690878E+02 0.  0.
        -13    1    3    3    0    0  0.18607834445E+01  0.98254429083E+01 -0.40858258898E+01  0.10803100900E+02  0.10570000000E+00 0.  1.
         13    1    3    3    0    0 -0.18607834445E+01 -0.98254429083E+01 -0.39513295838E+01  0.10752954075E+02  0.10570000000E+00 0. -1.
<mgrwt>
<rscale>  0 0.20001691E+02</rscale>
<asrwt>0</asrwt>
<pdfrwt beam="1">  1        2 0.10399154E-02 0.20001691E+02</pdfrwt>
<pdfrwt beam="2">  1       -2 0.22764008E-02 0.20001691E+02</pdfrwt>
<totfact> 0.38330349E+06</totfact>
</mgrwt>
</event>
<event>
 5    1  0.1607476E-006  0.2000184E+02  0.7818608E-02  0.1745292E+00
         -2   -1    0    0    0  501 -0.00000000000E+00  0.00000000000E+00  0.44024764218E+02  0.44024764294E+02  0.26000000000E-02 0.  1.
          2   -1    0    0  501    0  0.00000000000E+00 -0.00000000000E+00 -0.22718657859E+01  0.22718672737E+01  0.26000000000E-02 0. -1.
       1023    2    1    2    0    0  0.00000000000E+00  0.00000000000E+00  0.41752898432E+02  0.46296631568E+02  0.20001839093E+02 0.  0.
        -13    1    3    3    0    0  0.95592970495E+01 -0.29360878242E+01  0.20690593900E+02  0.22980701039E+02  0.10570000000E+00 0. -1.
         13    1    3    3    0    0 -0.95592970495E+01  0.29360878242E+01  0.21062304532E+02  0.23315930530E+02  0.10570000000E+00 0.  1.
<mgrwt>
<rscale>  0 0.20001839E+02</rscale>
<asrwt>0</asrwt>
<pdfrwt beam="2">  1        2 0.34951794E-03 0.20001839E+02</pdfrwt>
<pdfrwt beam="1">  1       -2 0.67730407E-02 0.20001839E+02</pdfrwt>
<totfact> 0.34490386E+06</totfact>
</mgrwt>
</event>
<event>
 5    1  0.1607476E-006  0.2000594E+02  0.7818608E-02  0.1745210E+00
         -2   -1    0    0    0  501 -0.00000000000E+00  0.00000000000E+00  0.44587726038E+01  0.44587733618E+01  0.26000000000E-02 0.  1.
          2   -1    0    0  501    0  0.00000000000E+00 -0.00000000000E+00 -0.22441014133E+02  0.22441014283E+02  0.26000000000E-02 0. -1.
       1023    2    1    2    0    0  0.00000000000E+00  0.00000000000E+00 -0.17982241529E+02  0.26899787645E+02  0.20005938242E+02 0.  0.
        -13    1    3    3    0    0 -0.93861125882E+01  0.34532076752E+01 -0.87808052866E+01  0.13309300009E+02  0.10570000000E+00 0. -1.
         13    1    3    3    0    0  0.93861125882E+01 -0.34532076752E+01 -0.92014362421E+01  0.13590487636E+02  0.10570000000E+00 0.  1.
<mgrwt>
<rscale>  0 0.20005938E+02</rscale>
<asrwt>0</asrwt>
<pdfrwt beam="2">  1        2 0.34524637E-02 0.20005938E+02</pdfrwt>
<pdfrwt beam="1">  1       -2 0.68596510E-03 0.20005938E+02</pdfrwt>
<totfact> 0.42088525E+06</totfact>
</mgrwt>
</event>
<event>
 5    1  0.2534737E-006  0.2000367E+02  0.7818608E-02  0.1745255E+00
          2   -1    0    0  501    0  0.00000000000E+00  0.00000000000E+00  0.11601562641E+03  0.11601562644E+03  0.26000000000E-02 0. -1.
         -2   -1    0    0    0  501 -0.00000000000E+00 -0.00000000000E+00 -0.86226758974E+00  0.86227150962E+00  0.26000000000E-02 0.  1.
       1023    2    1    2    0    0  0.00000000000E+00  0.00000000000E+00  0.11515335882E+03  0.11687789795E+03  0.20003674196E+02 0.  0.
        -13    1    3    3    0    0 -0.16099177823E+01 -0.98702609196E+01  0.56945033989E+02  0.57816623513E+02  0.10570000000E+00 0.  1.
         13    1    3    3    0    0  0.16099177823E+01  0.98702609196E+01  0.58208324834E+02  0.59061274439E+02  0.10570000000E+00 0. -1.
<mgrwt>
<rscale>  0 0.20003674E+02</rscale>
<asrwt>0</asrwt>
<pdfrwt beam="1">  1        2 0.17848558E-01 0.20003674E+02</pdfrwt>
<pdfrwt beam="2">  1       -2 0.13265686E-03 0.20003674E+02</pdfrwt>
<totfact> 0.54614167E+06</totfact>
</mgrwt>
</event>
<event>
 4    1  0.1607476E-006  0.2020068E+02  0.7818608E-02  0.1741366E+00
          2   -1    0    0  501    0  0.00000000000E+00  0.00000000000E+00  0.98375408066E+00  0.98375751647E+00  0.26000000000E-02 0.  1.
         -2   -1    0    0    0  501 -0.00000000000E+00 -0.00000000000E+00 -0.10370142401E+03  0.10370142405E+03  0.26000000000E-02 0. -1.
        -13    1    1    2    0    0 -0.18944183180E+01 -0.98640936828E+01 -0.45882916774E+02  0.46969590046E+02  0.10570000000E+00 0. -1.
         13    1    1    2    0    0  0.18944183180E+01  0.98640936828E+01 -0.56834753159E+02  0.57715591517E+02  0.10570000000E+00 0.  1.
<mgrwt>
<rscale>  0 0.20200681E+02</rscale>
<asrwt>0</asrwt>
<pdfrwt beam="1">  1        2 0.15134713E-03 0.20200681E+02</pdfrwt>
<pdfrwt beam="2">  1       -2 0.15954057E-01 0.20200681E+02</pdfrwt>
<totfact> 0.28828951E+06</totfact>
</mgrwt>
</event>
<event>
 5    1  0.1607476E-006  0.2000936E+02  0.7818608E-02  0.1745142E+00
         -2   -1    0    0    0  501 -0.00000000000E+00  0.00000000000E+00  0.46726041918E+01  0.46726049152E+01  0.26000000000E-02 0.  1.
          2   -1    0    0  501    0  0.00000000000E+00 -0.00000000000E+00 -0.21421384747E+02  0.21421384905E+02  0.26000000000E-02 0. -1.
       1023    2    1    2    0    0  0.00000000000E+00  0.00000000000E+00 -0.16748780556E+02  0.26093989820E+02  0.20009364174E+02 0.  0.
        -13    1    3    3    0    0  0.59649479338E+01 -0.80301136033E+01 -0.81938653796E+01  0.12931122561E+02  0.10570000000E+00 0. -1.
         13    1    3    3    0    0 -0.59649479338E+01  0.80301136033E+01 -0.85549151761E+01  0.13162867260E+02  0.10570000000E+00 0.  1.
<mgrwt>
<rscale>  0 0.20009364E+02</rscale>
<asrwt>0</asrwt>
<pdfrwt beam="2">  1        2 0.32955977E-02 0.20009364E+02</pdfrwt>
<pdfrwt beam="1">  1       -2 0.71886227E-03 0.20009364E+02</pdfrwt>
<totfact> 0.41891801E+06</totfact>
</mgrwt>
</event>
<event>
 5    1  0.1687731E-006  0.2000126E+02  0.7818608E-02  0.1745303E+00
          2   -1    0    0  501    0  0.00000000000E+00  0.00000000000E+00  0.10380673138E+03  0.10380673141E+03  0.26000000000E-02 0.  1.
         -2   -1    0    0    0  501 -0.00000000000E+00 -0.00000000000E+00 -0.96344826499E+00  0.96345177321E+00  0.26000000000E-02 0. -1.
       1023    2    1    2    0    0  0.00000000000E+00  0.00000000000E+00  0.10284328311E+03  0.10477018318E+03  0.20001260033E+02 0.  0.
        -13    1    3    3    0    0 -0.13612936889E+01  0.99069598072E+01  0.51533388693E+02  0.52494783510E+02  0.10570000000E+00 0. -1.
         13    1    3    3    0    0  0.13612936889E+01 -0.99069598072E+01  0.51309894421E+02  0.52275399674E+02  0.10570000000E+00 0.  1.
<mgrwt>
<rscale>  0 0.20001260E+02</rscale>
<asrwt>0</asrwt>
<pdfrwt beam="1">  1        2 0.15970266E-01 0.20001260E+02</pdfrwt>
<pdfrwt beam="2">  1       -2 0.14822309E-03 0.20001260E+02</pdfrwt>
<totfact> 0.53204183E+06</totfact>
</mgrwt>
</event>
<event>
 5    1  0.1607476E-006  0.2000573E+02  0.7818608E-02  0.1745214E+00
         -2   -1    0    0    0  501 -0.00000000000E+00  0.00000000000E+00  0.70660795756E+01  0.70660800540E+01  0.26000000000E-02 0.  1.
          2   -1    0    0  501    0  0.00000000000E+00 -0.00000000000E+00 -0.14160227853E+02  0.14160228092E+02  0.26000000000E-02 0. -1.
       1023    2    1    2    0    0  0.00000000000E+00  0.00000000000E+00 -0.70941482778E+01  0.21226308146E+02  0.20005729622E+02 0.  0.
        -13    1    3    3    0    0  0.91352786843E+01 -0.40733604263E+01 -0.35221880582E+01  0.10604836774E+02  0.10570000000E+00 0. -1.
         13    1    3    3    0    0 -0.91352786843E+01  0.40733604263E+01 -0.35719602195E+01  0.10621471372E+02  0.10570000000E+00 0.  1.
<mgrwt>
<rscale>  0 0.20005730E+02</rscale>
<asrwt>0</asrwt>
<pdfrwt beam="2">  1        2 0.21784966E-02 0.20005730E+02</pdfrwt>
<pdfrwt beam="1">  1       -2 0.10870892E-02 0.20005730E+02</pdfrwt>
<totfact> 0.40479951E+06</totfact>
</mgrwt>
</event>
<event>
 5    1  0.1607476E-006  0.2000233E+02  0.7818608E-02  0.1745282E+00
          2   -1    0    0  501    0  0.00000000000E+00  0.00000000000E+00  0.65209659256E+01  0.65209664439E+01  0.26000000000E-02 0.  1.
         -2   -1    0    0    0  501 -0.00000000000E+00 -0.00000000000E+00 -0.15338716215E+02  0.15338716435E+02  0.26000000000E-02 0. -1.
       1023    2    1    2    0    0  0.00000000000E+00  0.00000000000E+00 -0.88177502894E+01  0.21859682879E+02  0.20002325250E+02 0.  0.
        -13    1    3    3    0    0 -0.55906292106E+00  0.99849223476E+01 -0.44408442736E+01  0.10942737134E+02  0.10570000000E+00 0.  1.
         13    1    3    3    0    0  0.55906292106E+00 -0.99849223476E+01 -0.43769060158E+01  0.10916945745E+02  0.10570000000E+00 0. -1.
<mgrwt>
<rscale>  0 0.20002325E+02</rscale>
<asrwt>0</asrwt>
<pdfrwt beam="1">  1        2 0.10032256E-02 0.20002325E+02</pdfrwt>
<pdfrwt beam="2">  1       -2 0.23598025E-02 0.20002325E+02</pdfrwt>
<totfact> 0.38222919E+06</totfact>
</mgrwt>
</event>
<event>
 5    1  0.1607476E-006  0.2000175E+02  0.7818608E-02  0.1745293E+00
          2   -1    0    0  501    0  0.00000000000E+00  0.00000000000E+00  0.84016874078E+00  0.84017276377E+00  0.26000000000E-02 0. -1.
         -2   -1    0    0    0  501 -0.00000000000E+00 -0.00000000000E+00 -0.11904428814E+03  0.11904428817E+03  0.26000000000E-02 0.  1.
       1023    2    1    2    0    0  0.00000000000E+00  0.00000000000E+00 -0.11820411940E+03  0.11988446093E+03  0.20001753175E+02 0.  0.
        -13    1    3    3    0    0  0.99384206938E+01  0.11106885875E+01 -0.59239392350E+02  0.60077638215E+02  0.10570000000E+00 0. -1.
         13    1    3    3    0    0 -0.99384206938E+01 -0.11106885875E+01 -0.58964727050E+02  0.59806822718E+02  0.10570000000E+00 0.  1.
<mgrwt>
<rscale>  0 0.20001753E+02</rscale>
<asrwt>0</asrwt>
<pdfrwt beam="1">  1        2 0.12925714E-03 0.20001753E+02</pdfrwt>
<pdfrwt beam="2">  1       -2 0.18314493E-01 0.20001753E+02</pdfrwt>
<totfact> 0.28399332E+06</totfact>
</mgrwt>
</event>
<event>
 5    1  0.1607476E-006  0.2000451E+02  0.7818608E-02  0.1745238E+00
         -2   -1    0    0    0  501 -0.00000000000E+00  0.00000000000E+00  0.36116748804E+01  0.36116758162E+01  0.26000000000E-02 0.  1.
          2   -1    0    0  501    0  0.00000000000E+00 -0.00000000000E+00 -0.27700472268E+02  0.27700472390E+02  0.26000000000E-02 0. -1.
       1023    2    1    2    0    0  0.00000000000E+00  0.00000000000E+00 -0.24088797388E+02  0.31312148207E+02  0.20004511134E+02 0.  0.
        -13    1    3    3    0    0 -0.28651483152E+01 -0.95818244250E+01 -0.12226330545E+02  0.15796036378E+02  0.10570000000E+00 0.  1.
         13    1    3    3    0    0  0.28651483152E+01  0.95818244250E+01 -0.11862466843E+02  0.15516111828E+02  0.10570000000E+00 0. -1.
<mgrwt>
<rscale>  0 0.20004511E+02</rscale>
<asrwt>0</asrwt>
<pdfrwt beam="2">  1        2 0.42616110E-02 0.20004511E+02</pdfrwt>
<pdfrwt beam="1">  1       -2 0.55564239E-03 0.20004511E+02</pdfrwt>
<totfact> 0.42982133E+06</totfact>
</mgrwt>
</event>
<event>
 5    1  0.1607476E-006  0.2000309E+02  0.7818608E-02  0.1745267E+00
         -2   -1    0    0    0  501 -0.00000000000E+00  0.00000000000E+00  0.34023740238E+02  0.34023740337E+02  0.26000000000E-02 0. -1.
          2   -1    0    0  501    0  0.00000000000E+00 -0.00000000000E+00 -0.29400317650E+01  0.29400329146E+01  0.26000000000E-02 0.  1.
       1023    2    1    2    0    0  0.00000000000E+00  0.00000000000E+00  0.31083708473E+02  0.36963773252E+02  0.20003089776E+02 0.  0.
        -13    1    3    3    0    0  0.59911656036E+01 -0.80071559356E+01  0.15347023639E+02  0.18318048983E+02  0.10570000000E+00 0.  1.
         13    1    3    3    0    0 -0.59911656036E+01  0.80071559356E+01  0.15736684834E+02  0.18645724269E+02  0.10570000000E+00 0. -1.
<mgrwt>
<rscale>  0 0.20003090E+02</rscale>
<asrwt>0</asrwt>
<pdfrwt beam="2">  1        2 0.45231271E-03 0.20003090E+02</pdfrwt>
<pdfrwt beam="1">  1       -2 0.52344212E-02 0.20003090E+02</pdfrwt>
<totfact> 0.35572972E+06</totfact>
</mgrwt>
</event>
<event>
 4    1  0.1607476E-006  0.2001798E+02  0.7818608E-02  0.1744971E+00
          2   -1    0    0  501    0  0.00000000000E+00  0.00000000000E+00  0.58903544203E+01  0.58903549941E+01  0.26000000000E-02 0. -1.
         -2   -1    0    0    0  501 -0.00000000000E+00 -0.00000000000E+00 -0.17007439929E+02  0.17007440128E+02  0.26000000000E-02 0.  1.
        -13    1    1    2    0    0  0.62462742363E+01 -0.78196222950E+01 -0.54681078646E+01  0.11404990609E+02  0.10570000000E+00 0. -1.
         13    1    1    2    0    0 -0.62462742363E+01  0.78196222950E+01 -0.56489776445E+01  0.11492804514E+02  0.10570000000E+00 0.  1.
<mgrwt>
<rscale>  0 0.20017978E+02</rscale>
<asrwt>0</asrwt>
<pdfrwt beam="1">  1        2 0.90620844E-03 0.20017978E+02</pdfrwt>
<pdfrwt beam="2">  1       -2 0.26165293E-02 0.20017978E+02</pdfrwt>
<totfact> 0.37854153E+06</totfact>
</mgrwt>
</event>
<event>
 5    1  0.1607476E-006  0.2000371E+02  0.7818608E-02  0.1745254E+00
         -2   -1    0    0    0  501 -0.00000000000E+00  0.00000000000E+00  0.82679212330E+01  0.82679216418E+01  0.26000000000E-02 0. -1.
          2   -1    0    0  501    0  0.00000000000E+00 -0.00000000000E+00 -0.12099420245E+02  0.12099420524E+02  0.26000000000E-02 0.  1.
       1023    2    1    2    0    0  0.00000000000E+00  0.00000000000E+00 -0.38314990121E+01  0.20367342166E+02  0.20003705713E+02 0.  0.
        -13    1    3    3    0    0 -0.80065261233E+01 -0.59932456791E+01 -0.19659792096E+01  0.10193120282E+02  0.10570000000E+00 0.  1.
         13    1    3    3    0    0  0.80065261233E+01  0.59932456791E+01 -0.18655198024E+01  0.10174221885E+02  0.10570000000E+00 0. -1.
<mgrwt>
<rscale>  0 0.20003706E+02</rscale>
<asrwt>0</asrwt>
<pdfrwt beam="2">  1        2 0.18614493E-02 0.20003706E+02</pdfrwt>
<pdfrwt beam="1">  1       -2 0.12719879E-02 0.20003706E+02</pdfrwt>
<totfact> 0.40006602E+06</totfact>
</mgrwt>
</event>
<event>
 5    1  0.1607476E-006  0.2001092E+02  0.7818608E-02  0.1745111E+00
         -2   -1    0    0    0  501 -0.00000000000E+00  0.00000000000E+00  0.38492819744E+01  0.38492828525E+01  0.26000000000E-02 0. -1.
          2   -1    0    0  501    0  0.00000000000E+00 -0.00000000000E+00 -0.26007233206E+02  0.26007233336E+02  0.26000000000E-02 0.  1.
       1023    2    1    2    0    0  0.00000000000E+00  0.00000000000E+00 -0.22157951232E+02  0.29856516189E+02  0.20010915925E+02 0.  0.
        -13    1    3    3    0    0  0.36357078665E+00 -0.99940146380E+01 -0.11515256314E+02  0.15252042905E+02  0.10570000000E+00 0.  1.
         13    1    3    3    0    0 -0.36357078665E+00  0.99940146380E+01 -0.10642694918E+02  0.14604473284E+02  0.10570000000E+00 0. -1.
<mgrwt>
<rscale>  0 0.20010916E+02</rscale>
<asrwt>0</asrwt>
<pdfrwt beam="2">  1        2 0.40011128E-02 0.20010916E+02</pdfrwt>
<pdfrwt beam="1">  1       -2 0.59219732E-03 0.20010916E+02</pdfrwt>
<totfact> 0.42672991E+06</totfact>
</mgrwt>
</event>
<event>
 5    1  0.1607476E-006  0.2000266E+02  0.7818608E-02  0.1745275E+00
         -2   -1    0    0    0  501 -0.00000000000E+00  0.00000000000E+00  0.13035027137E+01  0.13035053067E+01  0.26000000000E-02 0.  1.
          2   -1    0    0  501    0  0.00000000000E+00 -0.00000000000E+00 -0.76736684522E+02  0.76736684566E+02  0.26000000000E-02 0. -1.
       1023    2    1    2    0    0  0.00000000000E+00  0.00000000000E+00 -0.75433181808E+02  0.78040189873E+02  0.20002657765E+02 0.  0.
        -13    1    3    3    0    0  0.61461425544E+01  0.78892481454E+01 -0.37677125079E+02  0.38981947506E+02  0.10570000000E+00 0. -1.
         13    1    3    3    0    0 -0.61461425544E+01 -0.78892481454E+01 -0.37756056729E+02  0.39058242367E+02  0.10570000000E+00 0.  1.
<mgrwt>
<rscale>  0 0.20002658E+02</rscale>
<asrwt>0</asrwt>
<pdfrwt beam="2">  1        2 0.11805640E-01 0.20002658E+02</pdfrwt>
<pdfrwt beam="1">  1       -2 0.20053914E-03 0.20002658E+02</pdfrwt>
<totfact> 0.49871520E+06</totfact>
</mgrwt>
</event>
<event>
 4    1  0.1607476E-006  0.2007005E+02  0.7818608E-02  0.1743939E+00
          2   -1    0    0  501    0  0.00000000000E+00  0.00000000000E+00  0.53505522051E+02  0.53505522114E+02  0.26000000000E-02 0. -1.
         -2   -1    0    0    0  501 -0.00000000000E+00 -0.00000000000E+00 -0.18820792540E+01  0.18820810499E+01  0.26000000000E-02 0.  1.
        -13    1    1    2    0    0 -0.62895120921E+01 -0.77854557441E+01  0.27800303284E+02  0.29547238766E+02  0.10570000000E+00 0. -1.
         13    1    1    2    0    0  0.62895120921E+01  0.77854557441E+01  0.23823139513E+02  0.25840364399E+02  0.10570000000E+00 0.  1.
<mgrwt>
<rscale>  0 0.20070046E+02</rscale>
<asrwt>0</asrwt>
<pdfrwt beam="1">  1        2 0.82316171E-02 0.20070046E+02</pdfrwt>
<pdfrwt beam="2">  1       -2 0.28955086E-03 0.20070046E+02</pdfrwt>
<totfact> 0.46451409E+06</totfact>
</mgrwt>
</event>
<event>
 5    1  0.1607476E-006  0.2000190E+02  0.7818608E-02  0.1745290E+00
          2   -1    0    0  501    0  0.00000000000E+00  0.00000000000E+00  0.27022491593E+02  0.27022491718E+02  0.26000000000E-02 0.  1.
         -2   -1    0    0    0  501 -0.00000000000E+00 -0.00000000000E+00 -0.37013253836E+01  0.37013262968E+01  0.26000000000E-02 0. -1.
       1023    2    1    2    0    0  0.00000000000E+00  0.00000000000E+00  0.23321166209E+02  0.30723818015E+02  0.20001904910E+02 0.  0.
        -13    1    3    3    0    0 -0.99595939706E+01 -0.90201082875E+00  0.11618743862E+02  0.15330150587E+02  0.10570000000E+00 0.  1.
         13    1    3    3    0    0  0.99595939706E+01  0.90201082875E+00  0.11702422347E+02  0.15393667427E+02  0.10570000000E+00 0. -1.
<mgrwt>
<rscale>  0 0.20001905E+02</rscale>
<asrwt>0</asrwt>
<pdfrwt beam="1">  1        2 0.41573064E-02 0.20001905E+02</pdfrwt>
<pdfrwt beam="2">  1       -2 0.56943476E-03 0.20001905E+02</pdfrwt>
<totfact> 0.42883901E+06</totfact>
</mgrwt>
</event>
<event>
 4    1  0.2158578E-006  0.2180821E+02  0.7818608E-02  0.1711590E+00
          2   -1    0    0  501    0  0.00000000000E+00  0.00000000000E+00  0.11651916142E+03  0.11651916145E+03  0.26000000000E-02 0.  1.
         -2   -1    0    0    0  501 -0.00000000000E+00 -0.00000000000E+00 -0.10204274633E+01  0.10204307757E+01  0.26000000000E-02 0. -1.
        -13    1    1    2    0    0  0.71049883925E+01  0.82428283180E+01  0.61417913580E+02  0.62374645167E+02  0.10570000000E+00 0.  1.
         13    1    1    2    0    0 -0.71049883925E+01 -0.82428283180E+01  0.54080820376E+02  0.55164947056E+02  0.10570000000E+00 0. -1.
<mgrwt>
<rscale>  0 0.21808214E+02</rscale>
<asrwt>0</asrwt>
<pdfrwt beam="1">  1        2 0.17926020E-01 0.21808214E+02</pdfrwt>
<pdfrwt beam="2">  1       -2 0.15698914E-03 0.21808214E+02</pdfrwt>
<totfact> 0.45138330E+06</totfact>
</mgrwt>
</event>
<event>
 5    1  0.1607476E-006  0.2000395E+02  0.7818608E-02  0.1745250E+00
          2   -1    0    0  501    0  0.00000000000E+00  0.00000000000E+00  0.15972072654E+01  0.15972093816E+01  0.26000000000E-02 0.  1.
         -2   -1    0    0    0  501 -0.00000000000E+00 -0.00000000000E+00 -0.62633958677E+02  0.62633958731E+02  0.26000000000E-02 0. -1.
       1023    2    1    2    0    0  0.00000000000E+00  0.00000000000E+00 -0.61036751412E+02  0.64231168113E+02  0.20003947966E+02 0.  0.
        -13    1    3    3    0    0  0.98519132084E+01  0.17146647523E+01 -0.31056068865E+02  0.32626536055E+02  0.10570000000E+00 0. -1.
         13    1    3    3    0    0 -0.98519132084E+01 -0.17146647523E+01 -0.29980682547E+02  0.31604632059E+02  0.10570000000E+00 0.  1.
<mgrwt>
<rscale>  0 0.20003948E+02</rscale>
<asrwt>0</asrwt>
<pdfrwt beam="1">  1        2 0.24572441E-03 0.20003948E+02</pdfrwt>
<pdfrwt beam="2">  1       -2 0.96359919E-02 0.20003948E+02</pdfrwt>
<totfact> 0.32709344E+06</totfact>
</mgrwt>
</event>
<event>
 4    1  0.1607476E-006  0.2001707E+02  0.7818608E-02  0.1744989E+00
          2   -1    0    0  501    0  0.00000000000E+00  0.00000000000E+00  0.23191172622E+02  0.23191172767E+02  0.26000000000E-02 0. -1.
         -2   -1    0    0    0  501 -0.00000000000E+00 -0.00000000000E+00 -0.43193496247E+01  0.43193504072E+01  0.26000000000E-02 0.  1.
        -13    1    1    2    0    0 -0.63099413664E+00  0.99812300596E+01  0.99437083050E+01  0.14103602889E+02  0.10570000000E+00 0. -1.
         13    1    1    2    0    0  0.63099413664E+00 -0.99812300596E+01  0.89281146918E+01  0.13406920286E+02  0.10570000000E+00 0.  1.
<mgrwt>
<rscale>  0 0.20017072E+02</rscale>
<asrwt>0</asrwt>
<pdfrwt beam="1">  1        2 0.35678728E-02 0.20017072E+02</pdfrwt>
<pdfrwt beam="2">  1       -2 0.66451540E-03 0.20017072E+02</pdfrwt>
<totfact> 0.42166493E+06</totfact>
</mgrwt>
</event>
<event>
 4    1  0.1607476E-006  0.2006899E+02  0.7818608E-02  0.1743960E+00
         -2   -1    0    0    0  501 -0.00000000000E+00  0.00000000000E+00  0.95129341052E+02  0.95129341087E+02  0.26000000000E-02 0. -1.
          2   -1    0    0  501    0  0.00000000000E+00 -0.00000000000E+00 -0.10584633465E+01  0.10584665398E+01  0.26000000000E-02 0.  1.
        -13    1    1    2    0    0  0.26668100651E+01  0.96619578581E+01  0.49255716421E+02  0.50265316852E+02  0.10570000000E+00 0. -1.
         13    1    1    2    0    0 -0.26668100651E+01 -0.96619578581E+01  0.44815161284E+02  0.45922490775E+02  0.10570000000E+00 0.  1.
<mgrwt>
<rscale>  0 0.20068989E+02</rscale>
<asrwt>0</asrwt>
<pdfrwt beam="2">  1        2 0.16284070E-03 0.20068989E+02</pdfrwt>
<pdfrwt beam="1">  1       -2 0.14635289E-01 0.20068989E+02</pdfrwt>
<totfact> 0.29863552E+06</totfact>
</mgrwt>
</event>
<event>
 5    1  0.1607476E-006  0.2000275E+02  0.7818608E-02  0.1745273E+00
          2   -1    0    0  501    0  0.00000000000E+00  0.00000000000E+00  0.10541210064E+03  0.10541210067E+03  0.26000000000E-02 0. -1.
         -2   -1    0    0    0  501 -0.00000000000E+00 -0.00000000000E+00 -0.94891659305E+00  0.94892015500E+00  0.26000000000E-02 0.  1.
       1023    2    1    2    0    0  0.00000000000E+00  0.00000000000E+00  0.10446318405E+03  0.10636102083E+03  0.20002748065E+02 0.  0.
        -13    1    3    3    0    0 -0.77204824650E+01  0.63567468872E+01  0.52482666906E+02  0.53427105279E+02  0.10570000000E+00 0. -1.
         13    1    3    3    0    0  0.77204824650E+01 -0.63567468872E+01  0.51980517144E+02  0.52933915551E+02  0.10570000000E+00 0.  1.
<mgrwt>
<rscale>  0 0.20002748E+02</rscale>
<asrwt>0</asrwt>
<pdfrwt beam="1">  1        2 0.16217228E-01 0.20002748E+02</pdfrwt>
<pdfrwt beam="2">  1       -2 0.14598761E-03 0.20002748E+02</pdfrwt>
<totfact> 0.53385169E+06</totfact>
</mgrwt>
</event>
<event>
 5    1  0.1607476E-006  0.2000123E+02  0.7818608E-02  0.1745304E+00
         -2   -1    0    0    0  501 -0.00000000000E+00  0.00000000000E+00  0.10430933256E+03  0.10430933259E+03  0.26000000000E-02 0.  1.
          2   -1    0    0  501    0  0.00000000000E+00 -0.00000000000E+00 -0.95880285710E+00  0.95880638232E+00  0.26000000000E-02 0. -1.
       1023    2    1    2    0    0  0.00000000000E+00  0.00000000000E+00  0.10335052970E+03  0.10526813897E+03  0.20001227295E+02 0.  0.
        -13    1    3    3    0    0 -0.24443405663E+01  0.96967141359E+01  0.51706402027E+02  0.52664639455E+02  0.10570000000E+00 0.  1.
         13    1    3    3    0    0  0.24443405663E+01 -0.96967141359E+01  0.51644127672E+02  0.52603499516E+02  0.10570000000E+00 0. -1.
<mgrwt>
<rscale>  0 0.20001227E+02</rscale>
<asrwt>0</asrwt>
<pdfrwt beam="2">  1        2 0.14750847E-03 0.20001227E+02</pdfrwt>
<pdfrwt beam="1">  1       -2 0.16047583E-01 0.20001227E+02</pdfrwt>
<totfact> 0.29416798E+06</totfact>
</mgrwt>
</event>
<event>
 4    1  0.1607476E-006  0.2025856E+02  0.7818608E-02  0.1740235E+00
          2   -1    0    0  501    0  0.00000000000E+00  0.00000000000E+00  0.33551242659E+01  0.33551252733E+01  0.26000000000E-02 0. -1.
         -2   -1    0    0    0  501 -0.00000000000E+00 -0.00000000000E+00 -0.30580763002E+02  0.30580763113E+02  0.26000000000E-02 0.  1.
        -13    1    1    2    0    0  0.73506136938E+01 -0.69582171961E+01 -0.12979806992E+02  0.16460099339E+02  0.10570000000E+00 0. -1.
         13    1    1    2    0    0 -0.73506136938E+01  0.69582171961E+01 -0.14245831744E+02  0.17475789047E+02  0.10570000000E+00 0.  1.
<mgrwt>
<rscale>  0 0.20258557E+02</rscale>
<asrwt>0</asrwt>
<pdfrwt beam="1">  1        2 0.51617307E-03 0.20258557E+02</pdfrwt>
<pdfrwt beam="2">  1       -2 0.47047327E-02 0.20258557E+02</pdfrwt>
<totfact> 0.34998293E+06</totfact>
</mgrwt>
</event>
<event>
 5    1  0.1607476E-006  0.2000535E+02  0.7818608E-02  0.1745222E+00
         -2   -1    0    0    0  501 -0.00000000000E+00  0.00000000000E+00  0.99487413328E+01  0.99487416725E+01  0.26000000000E-02 0. -1.
          2   -1    0    0  501    0  0.00000000000E+00 -0.00000000000E+00 -0.10056899887E+02  0.10056900223E+02  0.26000000000E-02 0.  1.
       1023    2    1    2    0    0  0.00000000000E+00  0.00000000000E+00 -0.10815855454E+00  0.20005641896E+02  0.20005349519E+02 0.  0.
        -13    1    3    3    0    0  0.52544705721E+01 -0.85087037984E+01  0.13254750216E+00  0.10001811968E+02  0.10570000000E+00 0. -1.
         13    1    3    3    0    0 -0.52544705721E+01  0.85087037984E+01 -0.24070605671E+00  0.10003829927E+02  0.10570000000E+00 0.  1.
<mgrwt>
<rscale>  0 0.20005350E+02</rscale>
<asrwt>0</asrwt>
<pdfrwt beam="2">  1        2 0.15472154E-02 0.20005350E+02</pdfrwt>
<pdfrwt beam="1">  1       -2 0.15305756E-02 0.20005350E+02</pdfrwt>
<totfact> 0.39455472E+06</totfact>
</mgrwt>
</event>
<event>
 5    1  0.1607476E-006  0.2000140E+02  0.7818608E-02  0.1745300E+00
         -2   -1    0    0    0  501 -0.00000000000E+00  0.00000000000E+00  0.13912594293E+01  0.13912618588E+01  0.26000000000E-02 0.  1.
          2   -1    0    0  501    0  0.00000000000E+00 -0.00000000000E+00 -0.71887306329E+02  0.71887306376E+02  0.26000000000E-02 0. -1.
       1023    2    1    2    0    0  0.00000000000E+00  0.00000000000E+00 -0.70496046900E+02  0.73278568235E+02  0.20001398303E+02 0.  0.
        -13    1    3    3    0    0  0.79850040972E+01 -0.60201697745E+01 -0.35215983554E+02  0.36608460835E+02  0.10570000000E+00 0. -1.
         13    1    3    3    0    0 -0.79850040972E+01  0.60201697745E+01 -0.35280063346E+02  0.36670107400E+02  0.10570000000E+00 0.  1.
<mgrwt>
<rscale>  0 0.20001398E+02</rscale>
<asrwt>0</asrwt>
<pdfrwt beam="2">  1        2 0.11059583E-01 0.20001398E+02</pdfrwt>
<pdfrwt beam="1">  1       -2 0.21404016E-03 0.20001398E+02</pdfrwt>
<totfact> 0.49256819E+06</totfact>
</mgrwt>
</event>
<event>
 5    1  0.1607476E-006  0.2000229E+02  0.7818608E-02  0.1745283E+00
         -2   -1    0    0    0  501 -0.00000000000E+00  0.00000000000E+00  0.13735271128E+01  0.13735295736E+01  0.26000000000E-02 0.  1.
          2   -1    0    0  501    0  0.00000000000E+00 -0.00000000000E+00 -0.72821867541E+02  0.72821867588E+02  0.26000000000E-02 0. -1.
       1023    2    1    2    0    0  0.00000000000E+00  0.00000000000E+00 -0.71448340428E+02  0.74195397161E+02  0.20002290117E+02 0.  0.
        -13    1    3    3    0    0  0.81816369370E+01 -0.57499563900E+01 -0.35343197938E+02  0.36730831659E+02  0.10570000000E+00 0. -1.
         13    1    3    3    0    0 -0.81816369370E+01  0.57499563900E+01 -0.36105142491E+02  0.37464565502E+02  0.10570000000E+00 0.  1.
<mgrwt>
<rscale>  0 0.20002290E+02</rscale>
<asrwt>0</asrwt>
<pdfrwt beam="2">  1        2 0.11203361E-01 0.20002290E+02</pdfrwt>
<pdfrwt beam="1">  1       -2 0.21131211E-03 0.20002290E+02</pdfrwt>
<totfact> 0.49372459E+06</totfact>
</mgrwt>
</event>
<event>
 5    1  0.1607476E-006  0.2000276E+02  0.7818608E-02  0.1745273E+00
         -2   -1    0    0    0  501 -0.00000000000E+00  0.00000000000E+00  0.63572945448E+01  0.63572950765E+01  0.26000000000E-02 0.  1.
          2   -1    0    0  501    0  0.00000000000E+00 -0.00000000000E+00 -0.15734297750E+02  0.15734297965E+02  0.26000000000E-02 0. -1.
       1023    2    1    2    0    0  0.00000000000E+00  0.00000000000E+00 -0.93770032054E+01  0.22091593041E+02  0.20002757160E+02 0.  0.
        -13    1    3    3    0    0  0.99169714189E+01 -0.12915545604E+01 -0.47374677642E+01  0.11066580710E+02  0.10570000000E+00 0. -1.
         13    1    3    3    0    0 -0.99169714189E+01  0.12915545604E+01 -0.46395354412E+01  0.11025012331E+02  0.10570000000E+00 0.  1.
<mgrwt>
<rscale>  0 0.20002757E+02</rscale>
<asrwt>0</asrwt>
<pdfrwt beam="2">  1        2 0.24206612E-02 0.20002757E+02</pdfrwt>
<pdfrwt beam="1">  1       -2 0.97804538E-03 0.20002757E+02</pdfrwt>
<totfact> 0.40832147E+06</totfact>
</mgrwt>
</event>
<event>
 4    1  0.1607476E-006  0.2004213E+02  0.7818608E-02  0.1744492E+00
         -2   -1    0    0    0  501 -0.00000000000E+00  0.00000000000E+00  0.22220747124E+01  0.22220762335E+01  0.26000000000E-02 0.  1.
          2   -1    0    0  501    0  0.00000000000E+00 -0.00000000000E+00 -0.45192762580E+02  0.45192762655E+02  0.26000000000E-02 0. -1.
        -13    1    1    2    0    0  0.99666731105E+01 -0.10076814881E+01 -0.22067557958E+02  0.24235063062E+02  0.10570000000E+00 0.  1.
         13    1    1    2    0    0 -0.99666731105E+01  0.10076814881E+01 -0.20903129909E+02  0.23179775826E+02  0.10570000000E+00 0. -1.
<mgrwt>
<rscale>  0 0.20042129E+02</rscale>
<asrwt>0</asrwt>
<pdfrwt beam="2">  1        2 0.69527321E-02 0.20042129E+02</pdfrwt>
<pdfrwt beam="1">  1       -2 0.34185780E-03 0.20042129E+02</pdfrwt>
<totfact> 0.45435134E+06</totfact>
</mgrwt>
</event>
<event>
 5    1  0.1625688E-006  0.2000186E+02  0.7818608E-02  0.1745291E+00
          2   -1    0    0  501    0  0.00000000000E+00  0.00000000000E+00  0.83126032767E+02  0.83126032807E+02  0.26000000000E-02 0. -1.
         -2   -1    0    0    0  501 -0.00000000000E+00 -0.00000000000E+00 -0.12032149657E+01  0.12032177749E+01  0.26000000000E-02 0.  1.
       1023    2    1    2    0    0  0.00000000000E+00  0.00000000000E+00  0.81922817801E+02  0.84329250582E+02  0.20001860596E+02 0.  0.
        -13    1    3    3    0    0  0.44117352298E+01 -0.89744939578E+01  0.41171570590E+02  0.42368789774E+02  0.10570000000E+00 0.  1.
         13    1    3    3    0    0 -0.44117352298E+01  0.89744939578E+01  0.40751247210E+02  0.41960460808E+02  0.10570000000E+00 0. -1.
<mgrwt>
<rscale>  0 0.20001861E+02</rscale>
<asrwt>0</asrwt>
<pdfrwt beam="1">  1        2 0.12788624E-01 0.20001861E+02</pdfrwt>
<pdfrwt beam="2">  1       -2 0.18511017E-03 0.20001861E+02</pdfrwt>
<totfact> 0.50681577E+06</totfact>
</mgrwt>
</event>
<event>
 5    1  0.1607476E-006  0.2000966E+02  0.7818608E-02  0.1745136E+00
          2   -1    0    0  501    0  0.00000000000E+00  0.00000000000E+00  0.93324953024E+02  0.93324953060E+02  0.26000000000E-02 0.  1.
         -2   -1    0    0    0  501 -0.00000000000E+00 -0.00000000000E+00 -0.10725585248E+01  0.10725616761E+01  0.26000000000E-02 0. -1.
       1023    2    1    2    0    0  0.00000000000E+00  0.00000000000E+00  0.92252394499E+02  0.94397514737E+02  0.20009660106E+02 0.  0.
        -13    1    3    3    0    0 -0.58382000250E+01  0.81233561643E+01  0.46642057255E+02  0.47702894801E+02  0.10570000000E+00 0.  1.
         13    1    3    3    0    0  0.58382000250E+01 -0.81233561643E+01  0.45610337245E+02  0.46694619936E+02  0.10570000000E+00 0. -1.
<mgrwt>
<rscale>  0 0.20009660E+02</rscale>
<asrwt>0</asrwt>
<pdfrwt beam="1">  1        2 0.14357691E-01 0.20009660E+02</pdfrwt>
<pdfrwt beam="2">  1       -2 0.16500918E-03 0.20009660E+02</pdfrwt>
<totfact> 0.51896283E+06</totfact>
</mgrwt>
</event>
<event>
 5    1  0.1607476E-006  0.2000201E+02  0.7818608E-02  0.1745288E+00
          2   -1    0    0  501    0  0.00000000000E+00  0.00000000000E+00  0.26336644598E+01  0.26336657431E+01  0.26000000000E-02 0. -1.
         -2   -1    0    0    0  501 -0.00000000000E+00 -0.00000000000E+00 -0.37977540668E+02  0.37977540757E+02  0.26000000000E-02 0.  1.
       1023    2    1    2    0    0  0.00000000000E+00  0.00000000000E+00 -0.35343876208E+02  0.40611206500E+02  0.20002012598E+02 0.  0.
        -13    1    3    3    0    0  0.78715583163E+01 -0.61682634971E+01 -0.17657637834E+02  0.20293157745E+02  0.10570000000E+00 0. -1.
         13    1    3    3    0    0 -0.78715583163E+01  0.61682634971E+01 -0.17686238375E+02  0.20318048756E+02  0.10570000000E+00 0.  1.
<mgrwt>
<rscale>  0 0.20002013E+02</rscale>
<asrwt>0</asrwt>
<pdfrwt beam="1">  1        2 0.40517928E-03 0.20002013E+02</pdfrwt>
<pdfrwt beam="2">  1       -2 0.58426982E-02 0.20002013E+02</pdfrwt>
<totfact> 0.35132230E+06</totfact>
</mgrwt>
</event>
<event>
 5    1  0.1607476E-006  0.2000277E+02  0.7818608E-02  0.1745273E+00
          2   -1    0    0  501    0  0.00000000000E+00  0.00000000000E+00  0.15844380451E+02  0.15844380664E+02  0.26000000000E-02 0. -1.
         -2   -1    0    0    0  501 -0.00000000000E+00 -0.00000000000E+00 -0.63131324791E+01  0.63131330144E+01  0.26000000000E-02 0.  1.
       1023    2    1    2    0    0  0.00000000000E+00  0.00000000000E+00  0.95312479716E+01  0.22157513678E+02  0.20002767921E+02 0.  0.
        -13    1    3    3    0    0 -0.89697423701E+01  0.44213746256E+01  0.46459239702E+01  0.11027266832E+02  0.10570000000E+00 0. -1.
         13    1    3    3    0    0  0.89697423701E+01 -0.44213746256E+01  0.48853240014E+01  0.11130246846E+02  0.10570000000E+00 0.  1.
<mgrwt>
<rscale>  0 0.20002768E+02</rscale>
<asrwt>0</asrwt>
<pdfrwt beam="1">  1        2 0.24375970E-02 0.20002768E+02</pdfrwt>
<pdfrwt beam="2">  1       -2 0.97125121E-03 0.20002768E+02</pdfrwt>
<totfact> 0.40855009E+06</totfact>
</mgrwt>
</event>
<event>
 5    1  0.1607476E-006  0.2000160E+02  0.7818608E-02  0.1745296E+00
         -2   -1    0    0    0  501 -0.00000000000E+00  0.00000000000E+00  0.50841074004E+02  0.50841074070E+02  0.26000000000E-02 0. -1.
          2   -1    0    0  501    0  0.00000000000E+00 -0.00000000000E+00 -0.19672275813E+01  0.19672292994E+01  0.26000000000E-02 0.  1.
       1023    2    1    2    0    0  0.00000000000E+00  0.00000000000E+00  0.48873846422E+02  0.52808303370E+02  0.20001600952E+02 0.  0.
        -13    1    3    3    0    0  0.98567284629E+01  0.16877917881E+01  0.24349335173E+02  0.26323089351E+02  0.10570000000E+00 0.  1.
         13    1    3    3    0    0 -0.98567284629E+01 -0.16877917881E+01  0.24524511249E+02  0.26485214019E+02  0.10570000000E+00 0. -1.
<mgrwt>
<rscale>  0 0.20001601E+02</rscale>
<asrwt>0</asrwt>
<pdfrwt beam="2">  1        2 0.30265054E-03 0.20001601E+02</pdfrwt>
<pdfrwt beam="1">  1       -2 0.78217038E-02 0.20001601E+02</pdfrwt>
<totfact> 0.33810989E+06</totfact>
</mgrwt>
</event>
<event>
 5    1  0.1607476E-006  0.2000260E+02  0.7818608E-02  0.1745276E+00
         -2   -1    0    0    0  501 -0.00000000000E+00  0.00000000000E+00  0.29069028587E+02  0.29069028703E+02  0.26000000000E-02 0. -1.
          2   -1    0    0  501    0  0.00000000000E+00 -0.00000000000E+00 -0.34409807775E+01  0.34409817598E+01  0.26000000000E-02 0.  1.
       1023    2    1    2    0    0  0.00000000000E+00  0.00000000000E+00  0.25628047809E+02  0.32510010463E+02  0.20002598476E+02 0.  0.
        -13    1    3    3    0    0  0.49751189757E+00  0.99882633789E+01  0.12743355789E+02  0.16199296672E+02  0.10570000000E+00 0. -1.
         13    1    3    3    0    0 -0.49751189757E+00 -0.99882633789E+01  0.12884692020E+02  0.16310713791E+02  0.10570000000E+00 0.  1.
<mgrwt>
<rscale>  0 0.20002598E+02</rscale>
<asrwt>0</asrwt>
<pdfrwt beam="2">  1        2 0.52938172E-03 0.20002598E+02</pdfrwt>
<pdfrwt beam="1">  1       -2 0.44721585E-02 0.20002598E+02</pdfrwt>
<totfact> 0.36169562E+06</totfact>
</mgrwt>
</event>
<event>
 5    1  0.1607476E-006  0.2000120E+02  0.7818608E-02  0.1745304E+00
          2   -1    0    0  501    0  0.00000000000E+00  0.00000000000E+00  0.15149827856E+02  0.15149828079E+02  0.26000000000E-02 0. -1.
         -2   -1    0    0    0  501 -0.00000000000E+00 -0.00000000000E+00 -0.66015286682E+01  0.66015291802E+01  0.26000000000E-02 0.  1.
       1023    2    1    2    0    0  0.00000000000E+00  0.00000000000E+00  0.85482991873E+01  0.21751357259E+02  0.20001203054E+02 0.  0.
        -13    1    3    3    0    0 -0.84548823199E+01  0.53399596990E+01  0.43019561039E+01  0.10886606608E+02  0.10570000000E+00 0. -1.
         13    1    3    3    0    0  0.84548823199E+01 -0.53399596990E+01  0.42463430834E+01  0.10864750651E+02  0.10570000000E+00 0.  1.
<mgrwt>
<rscale>  0 0.20001203E+02</rscale>
<asrwt>0</asrwt>
<pdfrwt beam="1">  1        2 0.23307428E-02 0.20001203E+02</pdfrwt>
<pdfrwt beam="2">  1       -2 0.10156199E-02 0.20001203E+02</pdfrwt>
<totfact> 0.40716080E+06</totfact>
</mgrwt>
</event>
<event>
 4    1  0.1607476E-006  0.2014511E+02  0.7818608E-02  0.1742458E+00
         -2   -1    0    0    0  501 -0.00000000000E+00  0.00000000000E+00  0.10521429477E+01  0.10521461602E+01  0.26000000000E-02 0.  1.
          2   -1    0    0  501    0  0.00000000000E+00 -0.00000000000E+00 -0.96428137107E+02  0.96428137142E+02  0.26000000000E-02 0. -1.
        -13    1    1    2    0    0 -0.84387228020E+01 -0.54631727080E+01 -0.44678245594E+02  0.45795361124E+02  0.10570000000E+00 0. -1.
         13    1    1    2    0    0  0.84387228020E+01  0.54631727080E+01 -0.50697748565E+02  0.51684922178E+02  0.10570000000E+00 0.  1.
<mgrwt>
<rscale>  0 0.20145108E+02</rscale>
<asrwt>0</asrwt>
<pdfrwt beam="2">  1        2 0.14835091E-01 0.20145108E+02</pdfrwt>
<pdfrwt beam="1">  1       -2 0.16186847E-03 0.20145108E+02</pdfrwt>
<totfact> 0.51499167E+06</totfact>
</mgrwt>
</event>
<event>
 5    1  0.1607476E-006  0.2000866E+02  0.7818608E-02  0.1745156E+00
          2   -1    0    0  501    0  0.00000000000E+00  0.00000000000E+00  0.80376647552E+02  0.80376647594E+02  0.26000000000E-02 0.  1.
         -2   -1    0    0    0  501 -0.00000000000E+00 -0.00000000000E+00 -0.12452184702E+01  0.12452211845E+01  0.26000000000E-02 0. -1.
       1023    2    1    2    0    0  0.00000000000E+00  0.00000000000E+00  0.79131429082E+02  0.81621868778E+02  0.20008657985E+02 0.  0.
        -13    1    3    3    0    0  0.95943763945E+01  0.28310652686E+01  0.39940416899E+02  0.41174203861E+02  0.10570000000E+00 0.  1.
         13    1    3    3    0    0 -0.95943763945E+01 -0.28310652686E+01  0.39191012182E+02  0.40447664918E+02  0.10570000000E+00 0. -1.
<mgrwt>
<rscale>  0 0.20008658E+02</rscale>
<asrwt>0</asrwt>
<pdfrwt beam="1">  1        2 0.12365638E-01 0.20008658E+02</pdfrwt>
<pdfrwt beam="2">  1       -2 0.19157230E-03 0.20008658E+02</pdfrwt>
<totfact> 0.50298854E+06</totfact>
</mgrwt>
</event>
<event>
 5    1  0.1607476E-006  0.2000223E+02  0.7818608E-02  0.1745284E+00
          2   -1    0    0  501    0  0.00000000000E+00  0.00000000000E+00  0.88276465480E+00  0.88276848367E+00  0.26000000000E-02 0.  1.
         -2   -1    0    0    0  501 -0.00000000000E+00 -0.00000000000E+00 -0.11330552943E+03  0.11330552946E+03  0.26000000000E-02 0. -1.
       1023    2    1    2    0    0  0.00000000000E+00  0.00000000000E+00 -0.11242276478E+03  0.11418829794E+03  0.20002233564E+02 0.  0.
        -13    1    3    3    0    0  0.36754009514E+01  0.93001166396E+01 -0.56794201586E+02  0.57667956856E+02  0.10570000000E+00 0.  1.
         13    1    3    3    0    0 -0.36754009514E+01 -0.93001166396E+01 -0.55628563190E+02  0.56520341088E+02  0.10570000000E+00 0. -1.
<mgrwt>
<rscale>  0 0.20002234E+02</rscale>
<asrwt>0</asrwt>
<pdfrwt beam="1">  1        2 0.13581033E-03 0.20002234E+02</pdfrwt>
<pdfrwt beam="2">  1       -2 0.17431609E-01 0.20002234E+02</pdfrwt>
<totfact> 0.28785504E+06</totfact>
</mgrwt>
</event>
<event>
 5    1  0.1607476E-006  0.2000758E+02  0.7818608E-02  0.1745177E+00
         -2   -1    0    0    0  501 -0.00000000000E+00  0.00000000000E+00  0.43369585720E+02  0.43369585798E+02  0.26000000000E-02 0. -1.
          2   -1    0    0  501    0  0.00000000000E+00 -0.00000000000E+00 -0.23075111506E+01  0.23075126154E+01  0.26000000000E-02 0.  1.
       1023    2    1    2    0    0  0.00000000000E+00  0.00000000000E+00  0.41062074569E+02  0.45677098413E+02  0.20007582351E+02 0.  0.
        -13    1    3    3    0    0 -0.72318149502E+01 -0.69068793207E+01  0.21092745313E+02  0.23343504595E+02  0.10570000000E+00 0.  1.
         13    1    3    3    0    0  0.72318149502E+01  0.69068793207E+01  0.19969329255E+02  0.22333593818E+02  0.10570000000E+00 0. -1.
<mgrwt>
<rscale>  0 0.20007582E+02</rscale>
<asrwt>0</asrwt>
<pdfrwt beam="2">  1        2 0.35500187E-03 0.20007582E+02</pdfrwt>
<pdfrwt beam="1">  1       -2 0.66722434E-02 0.20007582E+02</pdfrwt>
<totfact> 0.34536413E+06</totfact>
</mgrwt>
</event>
<event>
 5    1  0.1607476E-006  0.2000121E+02  0.7818608E-02  0.1745304E+00
          2   -1    0    0  501    0  0.00000000000E+00  0.00000000000E+00  0.15328382054E+02  0.15328382275E+02  0.26000000000E-02 0.  1.
         -2   -1    0    0    0  501 -0.00000000000E+00 -0.00000000000E+00 -0.65246362753E+01  0.65246367933E+01  0.26000000000E-02 0. -1.
       1023    2    1    2    0    0  0.00000000000E+00  0.00000000000E+00  0.88037457787E+01  0.21853019068E+02  0.20001212529E+02 0.  0.
        -13    1    3    3    0    0 -0.66904118937E+01 -0.74323067750E+01  0.44156006762E+01  0.10932039934E+02  0.10570000000E+00 0.  1.
         13    1    3    3    0    0  0.66904118937E+01  0.74323067750E+01  0.43881451025E+01  0.10920979134E+02  0.10570000000E+00 0. -1.
<mgrwt>
<rscale>  0 0.20001213E+02</rscale>
<asrwt>0</asrwt>
<pdfrwt beam="1">  1        2 0.23582126E-02 0.20001213E+02</pdfrwt>
<pdfrwt beam="2">  1       -2 0.10037903E-02 0.20001213E+02</pdfrwt>
<totfact> 0.40753978E+06</totfact>
</mgrwt>
</event>
<event>
 4    1  0.1607476E-006  0.2002155E+02  0.7818608E-02  0.1744900E+00
          2   -1    0    0  501    0  0.00000000000E+00  0.00000000000E+00  0.21440903144E+02  0.21440903302E+02  0.26000000000E-02 0. -1.
         -2   -1    0    0    0  501 -0.00000000000E+00 -0.00000000000E+00 -0.46740406203E+01  0.46740413434E+01  0.26000000000E-02 0.  1.
        -13    1    1    2    0    0 -0.97429637540E+01  0.22964134927E+01  0.84813316278E+01  0.13120328361E+02  0.10570000000E+00 0.  1.
         13    1    1    2    0    0  0.97429637540E+01 -0.22964134927E+01  0.82855308959E+01  0.12994616284E+02  0.10570000000E+00 0. -1.
<mgrwt>
<rscale>  0 0.20021555E+02</rscale>
<asrwt>0</asrwt>
<pdfrwt beam="1">  1        2 0.32986005E-02 0.20021555E+02</pdfrwt>
<pdfrwt beam="2">  1       -2 0.71908325E-03 0.20021555E+02</pdfrwt>
<totfact> 0.41837868E+06</totfact>
</mgrwt>
</event>
<event>
 4    1  0.1607476E-006  0.2001938E+02  0.7818608E-02  0.1744943E+00
          2   -1    0    0  501    0  0.00000000000E+00  0.00000000000E+00  0.10262340255E+02  0.10262340584E+02  0.26000000000E-02 0. -1.
         -2   -1    0    0    0  501 -0.00000000000E+00 -0.00000000000E+00 -0.97632550478E+01  0.97632553940E+01  0.26000000000E-02 0.  1.
        -13    1    1    2    0    0  0.15235906315E+01  0.98913629969E+01  0.10020047362E+00  0.10009076030E+02  0.10570000000E+00 0.  1.
         13    1    1    2    0    0 -0.15235906315E+01 -0.98913629969E+01  0.39888473311E+00  0.10016519948E+02  0.10570000000E+00 0. -1.
<mgrwt>
<rscale>  0 0.20019376E+02</rscale>
<asrwt>0</asrwt>
<pdfrwt beam="1">  1        2 0.15788216E-02 0.20019376E+02</pdfrwt>
<pdfrwt beam="2">  1       -2 0.15020393E-02 0.20019376E+02</pdfrwt>
<totfact> 0.39450883E+06</totfact>
</mgrwt>
</event>
<event>
 5    1  0.1607476E-006  0.2000442E+02  0.7818608E-02  0.1745240E+00
          2   -1    0    0  501    0  0.00000000000E+00  0.00000000000E+00  0.20966364430E+02  0.20966364591E+02  0.26000000000E-02 0. -1.
         -2   -1    0    0    0  501 -0.00000000000E+00 -0.00000000000E+00 -0.47716515520E+01  0.47716522604E+01  0.26000000000E-02 0.  1.
       1023    2    1    2    0    0  0.00000000000E+00  0.00000000000E+00  0.16194712878E+02  0.25738016851E+02  0.20004419168E+02 0.  0.
        -13    1    3    3    0    0 -0.56386427120E+01  0.82600668954E+01  0.79685191454E+01  0.12787942235E+02  0.10570000000E+00 0.  1.
         13    1    3    3    0    0  0.56386427120E+01 -0.82600668954E+01  0.82261937322E+01  0.12950074616E+02  0.10570000000E+00 0. -1.
<mgrwt>
<rscale>  0 0.20004419E+02</rscale>
<asrwt>0</asrwt>
<pdfrwt beam="1">  1        2 0.32255945E-02 0.20004419E+02</pdfrwt>
<pdfrwt beam="2">  1       -2 0.73410032E-03 0.20004419E+02</pdfrwt>
<totfact> 0.41833390E+06</totfact>
</mgrwt>
</event>
<event>
 5    1  0.1607476E-006  0.2000207E+02  0.7818608E-02  0.1745287E+00
         -2   -1    0    0    0  501 -0.00000000000E+00  0.00000000000E+00  0.62681034168E+01  0.62681039560E+01  0.26000000000E-02 0. -1.
          2   -1    0    0  501    0  0.00000000000E+00 -0.00000000000E+00 -0.15957085209E+02  0.15957085421E+02  0.26000000000E-02 0.  1.
       1023    2    1    2    0    0  0.00000000000E+00  0.00000000000E+00 -0.96889817927E+01  0.22225189377E+02  0.20002066760E+02 0.  0.
        -13    1    3    3    0    0 -0.73565881199E+01  0.67741152675E+01 -0.48018924919E+01  0.11094024086E+02  0.10570000000E+00 0. -1.
         13    1    3    3    0    0  0.73565881199E+01 -0.67741152675E+01 -0.48870893007E+01  0.11131165291E+02  0.10570000000E+00 0.  1.
<mgrwt>
<rscale>  0 0.20002067E+02</rscale>
<asrwt>0</asrwt>
<pdfrwt beam="2">  1        2 0.24549362E-02 0.20002067E+02</pdfrwt>
<pdfrwt beam="1">  1       -2 0.96432367E-03 0.20002067E+02</pdfrwt>
<totfact> 0.40881616E+06</totfact>
</mgrwt>
</event>
<event>
 4    1  0.1607476E-006  0.2006191E+02  0.7818608E-02  0.1744100E+00
          2   -1    0    0  501    0  0.00000000000E+00  0.00000000000E+00  0.26835542654E+01  0.26835555249E+01  0.26000000000E-02 0. -1.
         -2   -1    0    0    0  501 -0.00000000000E+00 -0.00000000000E+00 -0.37495051978E+02  0.37495052068E+02  0.26000000000E-02 0.  1.
        -13    1    1    2    0    0  0.28560160098E+01 -0.95999215951E+01 -0.18490813759E+02  0.21029424339E+02  0.10570000000E+00 0.  1.
         13    1    1    2    0    0 -0.28560160098E+01  0.95999215951E+01 -0.16320683953E+02  0.19149183253E+02  0.10570000000E+00 0. -1.
<mgrwt>
<rscale>  0 0.20061908E+02</rscale>
<asrwt>0</asrwt>
<pdfrwt beam="1">  1        2 0.41285463E-03 0.20061908E+02</pdfrwt>
<pdfrwt beam="2">  1       -2 0.57684693E-02 0.20061908E+02</pdfrwt>
<totfact> 0.34956380E+06</totfact>
</mgrwt>
</event>
<event>
 5    1  0.1607476E-006  0.2000183E+02  0.7818608E-02  0.1745292E+00
          2   -1    0    0  501    0  0.00000000000E+00  0.00000000000E+00  0.18481148362E+02  0.18481148544E+02  0.26000000000E-02 0. -1.
         -2   -1    0    0    0  501 -0.00000000000E+00 -0.00000000000E+00 -0.54119115812E+01  0.54119122057E+01  0.26000000000E-02 0.  1.
       1023    2    1    2    0    0  0.00000000000E+00  0.00000000000E+00  0.13069236780E+02  0.23893060750E+02  0.20001834966E+02 0.  0.
        -13    1    3    3    0    0  0.77260190476E+01  0.63493443089E+01  0.65829129784E+01  0.11972946974E+02  0.10570000000E+00 0. -1.
         13    1    3    3    0    0 -0.77260190476E+01 -0.63493443089E+01  0.64863238020E+01  0.11920113776E+02  0.10570000000E+00 0.  1.
<mgrwt>
<rscale>  0 0.20001835E+02</rscale>
<asrwt>0</asrwt>
<pdfrwt beam="1">  1        2 0.28432536E-02 0.20001835E+02</pdfrwt>
<pdfrwt beam="2">  1       -2 0.83260185E-03 0.20001835E+02</pdfrwt>
<totfact> 0.41384275E+06</totfact>
</mgrwt>
</event>
<event>
 5    1  0.1607476E-006  0.2000423E+02  0.7818608E-02  0.1745244E+00
         -2   -1    0    0    0  501 -0.00000000000E+00  0.00000000000E+00  0.13248353892E+02  0.13248354147E+02  0.26000000000E-02 0.  1.
          2   -1    0    0  501    0  0.00000000000E+00 -0.00000000000E+00 -0.75513019289E+01  0.75513023765E+01  0.26000000000E-02 0. -1.
       1023    2    1    2    0    0  0.00000000000E+00  0.00000000000E+00  0.56970519633E+01  0.20799656524E+02  0.20004232313E+02 0.  0.
        -13    1    3    3    0    0  0.72778840521E+01 -0.68580768640E+01  0.30296375344E+01  0.10449434943E+02  0.10570000000E+00 0.  1.
         13    1    3    3    0    0 -0.72778840521E+01  0.68580768640E+01  0.26674144288E+01  0.10350221581E+02  0.10570000000E+00 0. -1.
<mgrwt>
<rscale>  0 0.20004232E+02</rscale>
<asrwt>0</asrwt>
<pdfrwt beam="2">  1        2 0.11617388E-02 0.20004232E+02</pdfrwt>
<pdfrwt beam="1">  1       -2 0.20382083E-02 0.20004232E+02</pdfrwt>
<totfact> 0.38638821E+06</totfact>
</mgrwt>
</event>
<event>
 5    1  0.1680255E-006  0.2000354E+02  0.7818608E-02  0.1745258E+00
          2   -1    0    0  501    0  0.00000000000E+00  0.00000000000E+00  0.10773307697E+03  0.10773307700E+03  0.26000000000E-02 0. -1.
         -2   -1    0    0    0  501 -0.00000000000E+00 -0.00000000000E+00 -0.92854669685E+00  0.92855033694E+00  0.26000000000E-02 0.  1.
       1023    2    1    2    0    0  0.00000000000E+00  0.00000000000E+00  0.10680453027E+03  0.10866162734E+03  0.20003538910E+02 0.  0.
        -13    1    3    3    0    0 -0.85928100317E+01 -0.51174051030E+01  0.53406171129E+02  0.54334652906E+02  0.10570000000E+00 0.  1.
         13    1    3    3    0    0  0.85928100317E+01  0.51174051030E+01  0.53398359144E+02  0.54326974432E+02  0.10570000000E+00 0. -1.
<mgrwt>
<rscale>  0 0.20003539E+02</rscale>
<asrwt>0</asrwt>
<pdfrwt beam="1">  1        2 0.16574309E-01 0.20003539E+02</pdfrwt>
<pdfrwt beam="2">  1       -2 0.14285372E-03 0.20003539E+02</pdfrwt>
<totfact> 0.53653461E+06</totfact>
</mgrwt>
</event>
<event>
 4    1  0.1607476E-006  0.2001445E+02  0.7818608E-02  0.1745041E+00
          2   -1    0    0  501    0  0.00000000000E+00  0.00000000000E+00  0.45817716359E+01  0.45817723736E+01  0.26000000000E-02 0.  1.
         -2   -1    0    0    0  501 -0.00000000000E+00 -0.00000000000E+00 -0.21857169724E+02  0.21857169879E+02  0.26000000000E-02 0. -1.
        -13    1    1    2    0    0  0.77828952741E+01  0.62896600499E+01 -0.86519998442E+01  0.13228815373E+02  0.10570000000E+00 0.  1.
         13    1    1    2    0    0 -0.77828952741E+01 -0.62896600499E+01 -0.86233982443E+01  0.13210126879E+02  0.10570000000E+00 0. -1.
<mgrwt>
<rscale>  0 0.20014452E+02</rscale>
<asrwt>0</asrwt>
<pdfrwt beam="1">  1        2 0.70488802E-03 0.20014452E+02</pdfrwt>
<pdfrwt beam="2">  1       -2 0.33626415E-02 0.20014452E+02</pdfrwt>
<totfact> 0.37094284E+06</totfact>
</mgrwt>
</event>
<event>
 5    1  0.1607476E-006  0.2001215E+02  0.7818608E-02  0.1745087E+00
         -2   -1    0    0    0  501 -0.00000000000E+00  0.00000000000E+00  0.20092747030E+02  0.20092747198E+02  0.26000000000E-02 0. -1.
          2   -1    0    0  501    0  0.00000000000E+00 -0.00000000000E+00 -0.49829666835E+01  0.49829673618E+01  0.26000000000E-02 0.  1.
       1023    2    1    2    0    0  0.00000000000E+00  0.00000000000E+00  0.15109780346E+02  0.25075714560E+02  0.20012146276E+02 0.  0.
        -13    1    3    3    0    0 -0.25741969459E+01 -0.96671175224E+01  0.77743521728E+01  0.12670097683E+02  0.10570000000E+00 0.  1.
         13    1    3    3    0    0  0.25741969459E+01  0.96671175224E+01  0.73354281735E+01  0.12405616877E+02  0.10570000000E+00 0. -1.
<mgrwt>
<rscale>  0 0.20012146E+02</rscale>
<asrwt>0</asrwt>
<pdfrwt beam="2">  1        2 0.76661032E-03 0.20012146E+02</pdfrwt>
<pdfrwt beam="1">  1       -2 0.30911919E-02 0.20012146E+02</pdfrwt>
<totfact> 0.37370183E+06</totfact>
</mgrwt>
</event>
<event>
 4    1  0.1607476E-006  0.2014358E+02  0.7818608E-02  0.1742488E+00
          2   -1    0    0  501    0  0.00000000000E+00  0.00000000000E+00  0.84707258475E+01  0.84707262465E+01  0.26000000000E-02 0.  1.
         -2   -1    0    0    0  501 -0.00000000000E+00 -0.00000000000E+00 -0.11975474809E+02  0.11975475091E+02  0.26000000000E-02 0. -1.
        -13    1    1    2    0    0  0.89908935131E+01  0.43943067845E+01 -0.29024006986E+01  0.10420230352E+02  0.10570000000E+00 0. -1.
         13    1    1    2    0    0 -0.89908935131E+01 -0.43943067845E+01 -0.60234826245E+00  0.10025970985E+02  0.10570000000E+00 0.  1.
<mgrwt>
<rscale>  0 0.20143582E+02</rscale>
<asrwt>0</asrwt>
<pdfrwt beam="1">  1        2 0.13031886E-02 0.20143582E+02</pdfrwt>
<pdfrwt beam="2">  1       -2 0.18423808E-02 0.20143582E+02</pdfrwt>
<totfact> 0.38351633E+06</totfact>
</mgrwt>
</event>
<event>
 4    1  0.1607476E-006  0.2012242E+02  0.7818608E-02  0.1742905E+00
          2   -1    0    0  501    0  0.00000000000E+00  0.00000000000E+00  0.88098529559E+02  0.88098529597E+02  0.26000000000E-02 0. -1.
         -2   -1    0    0    0  501 -0.00000000000E+00 -0.00000000000E+00 -0.11490293567E+01  0.11490322983E+01  0.26000000000E-02 0.  1.
        -13    1    1    2    0    0  0.15366008421E+01 -0.99147976751E+01  0.40178320038E+02  0.41412231630E+02  0.10570000000E+00 0.  1.
         13    1    1    2    0    0 -0.15366008421E+01  0.99147976751E+01  0.46771180165E+02  0.47835330265E+02  0.10570000000E+00 0. -1.
<mgrwt>
<rscale>  0 0.20122418E+02</rscale>
<asrwt>0</asrwt>
<pdfrwt beam="1">  1        2 0.13553620E-01 0.20122418E+02</pdfrwt>
<pdfrwt beam="2">  1       -2 0.17677398E-03 0.20122418E+02</pdfrwt>
<totfact> 0.50622568E+06</totfact>
</mgrwt>
</event>
<event>
 5    1  0.1686556E-006  0.2000273E+02  0.7818608E-02  0.1745274E+00
          2   -1    0    0  501    0  0.00000000000E+00  0.00000000000E+00  0.61631202414E+02  0.61631202469E+02  0.26000000000E-02 0. -1.
         -2   -1    0    0    0  501 -0.00000000000E+00 -0.00000000000E+00 -0.16229968321E+01  0.16229989146E+01  0.26000000000E-02 0.  1.
       1023    2    1    2    0    0  0.00000000000E+00  0.00000000000E+00  0.60008205582E+02  0.63254201383E+02  0.20002731201E+02 0.  0.
        -13    1    3    3    0    0 -0.81538005282E+01 -0.57895324196E+01  0.30364556641E+02  0.31969057246E+02  0.10570000000E+00 0.  1.
         13    1    3    3    0    0  0.81538005282E+01  0.57895324196E+01  0.29643648940E+02  0.31285144137E+02  0.10570000000E+00 0. -1.
<mgrwt>
<rscale>  0 0.20002731E+02</rscale>
<asrwt>0</asrwt>
<pdfrwt beam="1">  1        2 0.94817232E-02 0.20002731E+02</pdfrwt>
<pdfrwt beam="2">  1       -2 0.24969200E-03 0.20002731E+02</pdfrwt>
<totfact> 0.47901959E+06</totfact>
</mgrwt>
</event>
<event>
 4    1  0.1607476E-006  0.2074502E+02  0.7818608E-02  0.1730906E+00
         -2   -1    0    0    0  501 -0.00000000000E+00  0.00000000000E+00  0.25045348807E+01  0.25045362303E+01  0.26000000000E-02 0. -1.
          2   -1    0    0  501    0  0.00000000000E+00 -0.00000000000E+00 -0.42957649003E+02  0.42957649082E+02  0.26000000000E-02 0.  1.
        -13    1    1    2    0    0 -0.54851823666E+01 -0.88009232725E+01 -0.20632508176E+02  0.23092315652E+02  0.10570000000E+00 0.  1.
         13    1    1    2    0    0  0.54851823666E+01  0.88009232725E+01 -0.19820605947E+02  0.22369869660E+02  0.10570000000E+00 0. -1.
<mgrwt>
<rscale>  0 0.20745020E+02</rscale>
<asrwt>0</asrwt>
<pdfrwt beam="2">  1        2 0.66088686E-02 0.20745020E+02</pdfrwt>
<pdfrwt beam="1">  1       -2 0.38531320E-03 0.20745020E+02</pdfrwt>
<totfact> 0.41761065E+06</totfact>
</mgrwt>
</event>
<event>
 4    1  0.1607476E-006  0.2005708E+02  0.7818608E-02  0.1744195E+00
          2   -1    0    0  501    0  0.00000000000E+00  0.00000000000E+00  0.10554757751E+01  0.10554789775E+01  0.26000000000E-02 0.  1.
         -2   -1    0    0    0  501 -0.00000000000E+00 -0.00000000000E+00 -0.95285387726E+02  0.95285387761E+02  0.26000000000E-02 0. -1.
        -13    1    1    2    0    0  0.45896537516E+01 -0.89006218012E+01 -0.49631151759E+02  0.50631496002E+02  0.10570000000E+00 0. -1.
         13    1    1    2    0    0 -0.45896537516E+01  0.89006218012E+01 -0.44598760191E+02  0.45709370736E+02  0.10570000000E+00 0.  1.
<mgrwt>
<rscale>  0 0.20057076E+02</rscale>
<asrwt>0</asrwt>
<pdfrwt beam="1">  1        2 0.16238121E-03 0.20057076E+02</pdfrwt>
<pdfrwt beam="2">  1       -2 0.14659284E-01 0.20057076E+02</pdfrwt>
<totfact> 0.29890758E+06</totfact>
</mgrwt>
</event>
<event>
 4    1  0.1607476E-006  0.2012938E+02  0.7818608E-02  0.1742767E+00
          2   -1    0    0  501    0  0.00000000000E+00  0.00000000000E+00  0.19891920247E+02  0.19891920416E+02  0.26000000000E-02 0. -1.
         -2   -1    0    0    0  501 -0.00000000000E+00 -0.00000000000E+00 -0.50924182906E+01  0.50924189543E+01  0.26000000000E-02 0.  1.
        -13    1    1    2    0    0 -0.26964760548E+01 -0.96941648538E+01  0.76448693531E+01  0.12637365835E+02  0.10570000000E+00 0.  1.
         13    1    1    2    0    0  0.26964760548E+01  0.96941648538E+01  0.71546326028E+01  0.12346973536E+02  0.10570000000E+00 0. -1.
<mgrwt>
<rscale>  0 0.20129380E+02</rscale>
<asrwt>0</asrwt>
<pdfrwt beam="1">  1        2 0.30602954E-02 0.20129380E+02</pdfrwt>
<pdfrwt beam="2">  1       -2 0.78344905E-03 0.20129380E+02</pdfrwt>
<totfact> 0.41056605E+06</totfact>
</mgrwt>
</event>
<event>
 4    1  0.1607476E-006  0.2002327E+02  0.7818608E-02  0.1744866E+00
          2   -1    0    0  501    0  0.00000000000E+00  0.00000000000E+00  0.15623267457E+01  0.15623289091E+01  0.26000000000E-02 0. -1.
         -2   -1    0    0    0  501 -0.00000000000E+00 -0.00000000000E+00 -0.64156107112E+02  0.64156107165E+02  0.26000000000E-02 0.  1.
        -13    1    1    2    0    0 -0.77510468048E+01  0.63190944407E+01 -0.29785621002E+02  0.31419803820E+02  0.10570000000E+00 0.  1.
         13    1    1    2    0    0  0.77510468048E+01 -0.63190944407E+01 -0.32808159365E+02  0.34298632254E+02  0.10570000000E+00 0. -1.
<mgrwt>
<rscale>  0 0.20023274E+02</rscale>
<asrwt>0</asrwt>
<pdfrwt beam="1">  1        2 0.24035818E-03 0.20023274E+02</pdfrwt>
<pdfrwt beam="2">  1       -2 0.98701685E-02 0.20023274E+02</pdfrwt>
<totfact> 0.32505960E+06</totfact>
</mgrwt>
</event>
<event>
 5    1  0.1607476E-006  0.2000193E+02  0.7818608E-02  0.1745290E+00
          2   -1    0    0  501    0  0.00000000000E+00  0.00000000000E+00  0.46907412832E+01  0.46907420038E+01  0.26000000000E-02 0.  1.
         -2   -1    0    0    0  501 -0.00000000000E+00 -0.00000000000E+00 -0.21322712348E+02  0.21322712507E+02  0.26000000000E-02 0. -1.
       1023    2    1    2    0    0  0.00000000000E+00  0.00000000000E+00 -0.16631971065E+02  0.26013454511E+02  0.20001933758E+02 0.  0.
        -13    1    3    3    0    0 -0.44593262674E+01  0.89511213145E+01 -0.83180339311E+01  0.13008036920E+02  0.10570000000E+00 0. -1.
         13    1    3    3    0    0  0.44593262674E+01 -0.89511213145E+01 -0.83139371340E+01  0.13005417591E+02  0.10570000000E+00 0.  1.
<mgrwt>
<rscale>  0 0.20001934E+02</rscale>
<asrwt>0</asrwt>
<pdfrwt beam="1">  1        2 0.72165259E-03 0.20001934E+02</pdfrwt>
<pdfrwt beam="2">  1       -2 0.32804173E-02 0.20001934E+02</pdfrwt>
<totfact> 0.37224034E+06</totfact>
</mgrwt>
</event>
<event>
 5    1  0.1607476E-006  0.2000543E+02  0.7818608E-02  0.1745220E+00
         -2   -1    0    0    0  501 -0.00000000000E+00  0.00000000000E+00  0.37333824340E+02  0.37333824430E+02  0.26000000000E-02 0.  1.
          2   -1    0    0  501    0  0.00000000000E+00 -0.00000000000E+00 -0.26799892795E+01  0.26799905407E+01  0.26000000000E-02 0. -1.
       1023    2    1    2    0    0  0.00000000000E+00  0.00000000000E+00  0.34653835060E+02  0.40013814971E+02  0.20005426867E+02 0.  0.
        -13    1    3    3    0    0 -0.20981120434E+01 -0.97785683233E+01  0.17614208326E+02  0.20255714750E+02  0.10570000000E+00 0. -1.
         13    1    3    3    0    0  0.20981120434E+01  0.97785683233E+01  0.17039626734E+02  0.19758100221E+02  0.10570000000E+00 0.  1.
<mgrwt>
<rscale>  0 0.20005427E+02</rscale>
<asrwt>0</asrwt>
<pdfrwt beam="2">  1        2 0.41230617E-03 0.20005427E+02</pdfrwt>
<pdfrwt beam="1">  1       -2 0.57436650E-02 0.20005427E+02</pdfrwt>
<totfact> 0.35190036E+06</totfact>
</mgrwt>
</event>
<event>
 4    1  0.1607476E-006  0.2003714E+02  0.7818608E-02  0.1744591E+00
          2   -1    0    0  501    0  0.00000000000E+00  0.00000000000E+00  0.85738733727E+02  0.85738733767E+02  0.26000000000E-02 0.  1.
         -2   -1    0    0    0  501 -0.00000000000E+00 -0.00000000000E+00 -0.11706681978E+01  0.11706710851E+01  0.26000000000E-02 0. -1.
        -13    1    1    2    0    0  0.80227897504E+01  0.59698911733E+01  0.44871284361E+02  0.45972253466E+02  0.10570000000E+00 0.  1.
         13    1    1    2    0    0 -0.80227897504E+01 -0.59698911733E+01  0.39696781168E+02  0.40937151386E+02  0.10570000000E+00 0. -1.
<mgrwt>
<rscale>  0 0.20037139E+02</rscale>
<asrwt>0</asrwt>
<pdfrwt beam="1">  1        2 0.13190571E-01 0.20037139E+02</pdfrwt>
<pdfrwt beam="2">  1       -2 0.18010308E-03 0.20037139E+02</pdfrwt>
<totfact> 0.50808961E+06</totfact>
</mgrwt>
</event>
<event>
 4    1  0.1607476E-006  0.2037982E+02  0.7818608E-02  0.1737879E+00
          2   -1    0    0  501    0  0.00000000000E+00  0.00000000000E+00  0.77183914463E+01  0.77183918842E+01  0.26000000000E-02 0.  1.
         -2   -1    0    0    0  501 -0.00000000000E+00 -0.00000000000E+00 -0.13452841444E+02  0.13452841695E+02  0.26000000000E-02 0. -1.
        -13    1    1    2    0    0 -0.98328715447E+01 -0.22762044296E+01 -0.14140978582E+01  0.10192022109E+02  0.10570000000E+00 0.  1.
         13    1    1    2    0    0  0.98328715447E+01  0.22762044296E+01 -0.43203521392E+01  0.10979211471E+02  0.10570000000E+00 0. -1.
<mgrwt>
<rscale>  0 0.20379824E+02</rscale>
<asrwt>0</asrwt>
<pdfrwt beam="1">  1        2 0.11874449E-02 0.20379824E+02</pdfrwt>
<pdfrwt beam="2">  1       -2 0.20696680E-02 0.20379824E+02</pdfrwt>
<totfact> 0.37076036E+06</totfact>
</mgrwt>
</event>
<event>
 5    1  0.1607476E-006  0.2000295E+02  0.7818608E-02  0.1745270E+00
         -2   -1    0    0    0  501 -0.00000000000E+00  0.00000000000E+00  0.67502646018E+01  0.67502651025E+01  0.26000000000E-02 0. -1.
          2   -1    0    0  501    0  0.00000000000E+00 -0.00000000000E+00 -0.14818597134E+02  0.14818597362E+02  0.26000000000E-02 0.  1.
       1023    2    1    2    0    0  0.00000000000E+00  0.00000000000E+00 -0.80683325326E+01  0.21568862465E+02  0.20002945738E+02 0.  0.
        -13    1    3    3    0    0 -0.29830211937E+01  0.95456189905E+01 -0.39995652410E+01  0.10771487918E+02  0.10570000000E+00 0.  1.
         13    1    3    3    0    0  0.29830211937E+01 -0.95456189905E+01 -0.40687672916E+01  0.10797374547E+02  0.10570000000E+00 0. -1.
<mgrwt>
<rscale>  0 0.20002946E+02</rscale>
<asrwt>0</asrwt>
<pdfrwt beam="2">  1        2 0.22797842E-02 0.20002946E+02</pdfrwt>
<pdfrwt beam="1">  1       -2 0.10385023E-02 0.20002946E+02</pdfrwt>
<totfact> 0.40636962E+06</totfact>
</mgrwt>
</event>
<event>
 5    1  0.1607476E-006  0.2000319E+02  0.7818608E-02  0.1745265E+00
          2   -1    0    0  501    0  0.00000000000E+00  0.00000000000E+00  0.15043171168E+01  0.15043193637E+01  0.26000000000E-02 0. -1.
         -2   -1    0    0    0  501 -0.00000000000E+00 -0.00000000000E+00 -0.66496490799E+02  0.66496490850E+02  0.26000000000E-02 0.  1.
       1023    2    1    2    0    0  0.00000000000E+00  0.00000000000E+00 -0.64992173683E+02  0.68000810214E+02  0.20003188490E+02 0.  0.
        -13    1    3    3    0    0  0.97572742784E+01  0.21933752806E+01 -0.32746325163E+02  0.34239571852E+02  0.10570000000E+00 0. -1.
         13    1    3    3    0    0 -0.97572742784E+01 -0.21933752806E+01 -0.32245848520E+02  0.33761238362E+02  0.10570000000E+00 0.  1.
<mgrwt>
<rscale>  0 0.20003188E+02</rscale>
<asrwt>0</asrwt>
<pdfrwt beam="1">  1        2 0.23143363E-03 0.20003188E+02</pdfrwt>
<pdfrwt beam="2">  1       -2 0.10230227E-01 0.20003188E+02</pdfrwt>
<totfact> 0.32372727E+06</totfact>
</mgrwt>
</event>
<event>
 5    1  0.1607476E-006  0.2000329E+02  0.7818608E-02  0.1745263E+00
         -2   -1    0    0    0  501 -0.00000000000E+00  0.00000000000E+00  0.44960725720E+01  0.44960733238E+01  0.26000000000E-02 0. -1.
          2   -1    0    0  501    0  0.00000000000E+00 -0.00000000000E+00 -0.22248948875E+02  0.22248949027E+02  0.26000000000E-02 0.  1.
       1023    2    1    2    0    0  0.00000000000E+00  0.00000000000E+00 -0.17752876303E+02  0.26745022351E+02  0.20003289817E+02 0.  0.
        -13    1    3    3    0    0  0.96067537323E+01 -0.27804183050E+01 -0.89243696010E+01  0.13404327230E+02  0.10570000000E+00 0.  1.
         13    1    3    3    0    0 -0.96067537323E+01  0.27804183050E+01 -0.88285067019E+01  0.13340695121E+02  0.10570000000E+00 0. -1.
<mgrwt>
<rscale>  0 0.20003290E+02</rscale>
<asrwt>0</asrwt>
<pdfrwt beam="2">  1        2 0.34229152E-02 0.20003290E+02</pdfrwt>
<pdfrwt beam="1">  1       -2 0.69170355E-03 0.20003290E+02</pdfrwt>
<totfact> 0.42067301E+06</totfact>
</mgrwt>
</event>
<event>
 5    1  0.1607476E-006  0.2000472E+02  0.7818608E-02  0.1745234E+00
          2   -1    0    0  501    0  0.00000000000E+00  0.00000000000E+00  0.26245846036E+02  0.26245846165E+02  0.26000000000E-02 0. -1.
         -2   -1    0    0    0  501 -0.00000000000E+00 -0.00000000000E+00 -0.38119229249E+01  0.38119238116E+01  0.26000000000E-02 0.  1.
       1023    2    1    2    0    0  0.00000000000E+00  0.00000000000E+00  0.22433923111E+02  0.30057769977E+02  0.20004715189E+02 0.  0.
        -13    1    3    3    0    0  0.99485679972E+01  0.10297606783E+01  0.11276548167E+02  0.15073358063E+02  0.10570000000E+00 0. -1.
         13    1    3    3    0    0 -0.99485679972E+01 -0.10297606783E+01  0.11157374944E+02  0.14984411913E+02  0.10570000000E+00 0.  1.
<mgrwt>
<rscale>  0 0.20004715E+02</rscale>
<asrwt>0</asrwt>
<pdfrwt beam="1">  1        2 0.40378227E-02 0.20004715E+02</pdfrwt>
<pdfrwt beam="2">  1       -2 0.58644974E-03 0.20004715E+02</pdfrwt>
<totfact> 0.42742307E+06</totfact>
</mgrwt>
</event>
<event>
 4    1  0.1607476E-006  0.2001345E+02  0.7818608E-02  0.1745061E+00
          2   -1    0    0  501    0  0.00000000000E+00  0.00000000000E+00  0.30404234192E+02  0.30404234303E+02  0.26000000000E-02 0. -1.
         -2   -1    0    0    0  501 -0.00000000000E+00 -0.00000000000E+00 -0.32934405244E+01  0.32934415507E+01  0.26000000000E-02 0.  1.
        -13    1    1    2    0    0  0.40377001319E+01  0.91546058141E+01  0.13359373836E+02  0.16691131530E+02  0.10570000000E+00 0. -1.
         13    1    1    2    0    0 -0.40377001319E+01 -0.91546058141E+01  0.13751419832E+02  0.17006544324E+02  0.10570000000E+00 0.  1.
<mgrwt>
<rscale>  0 0.20013451E+02</rscale>
<asrwt>0</asrwt>
<pdfrwt beam="1">  1        2 0.46775745E-02 0.20013451E+02</pdfrwt>
<pdfrwt beam="2">  1       -2 0.50668325E-03 0.20013451E+02</pdfrwt>
<totfact> 0.43371845E+06</totfact>
</mgrwt>
</event>
<event>
 4    1  0.1607476E-006  0.2002789E+02  0.7818608E-02  0.1744774E+00
          2   -1    0    0  501    0  0.00000000000E+00  0.00000000000E+00  0.12646577493E+02  0.12646577760E+02  0.26000000000E-02 0.  1.
         -2   -1    0    0    0  501 -0.00000000000E+00 -0.00000000000E+00 -0.79293448641E+01  0.79293452903E+01  0.26000000000E-02 0. -1.
        -13    1    1    2    0    0  0.67657117782E+01 -0.73790959764E+01  0.21480803692E+01  0.10239694090E+02  0.10570000000E+00 0.  1.
         13    1    1    2    0    0 -0.67657117782E+01  0.73790959764E+01  0.25691522593E+01  0.10336228960E+02  0.10570000000E+00 0. -1.
<mgrwt>
<rscale>  0 0.20027889E+02</rscale>
<asrwt>0</asrwt>
<pdfrwt beam="1">  1        2 0.19456273E-02 0.20027889E+02</pdfrwt>
<pdfrwt beam="2">  1       -2 0.12198993E-02 0.20027889E+02</pdfrwt>
<totfact> 0.40030042E+06</totfact>
</mgrwt>
</event>
<event>
 5    1  0.1607476E-006  0.2000546E+02  0.7818608E-02  0.1745220E+00
          2   -1    0    0  501    0  0.00000000000E+00  0.00000000000E+00  0.18181547503E+01  0.18181566094E+01  0.26000000000E-02 0.  1.
         -2   -1    0    0    0  501 -0.00000000000E+00 -0.00000000000E+00 -0.55030826100E+02  0.55030826161E+02  0.26000000000E-02 0. -1.
       1023    2    1    2    0    0  0.00000000000E+00  0.00000000000E+00 -0.53212671349E+02  0.56848982770E+02  0.20005460502E+02 0.  0.
        -13    1    3    3    0    0  0.96854389785E+01  0.24939572857E+01 -0.26964531237E+02  0.28759775181E+02  0.10570000000E+00 0.  1.
         13    1    3    3    0    0 -0.96854389785E+01 -0.24939572857E+01 -0.26248140112E+02  0.28089207589E+02  0.10570000000E+00 0. -1.
<mgrwt>
<rscale>  0 0.20005461E+02</rscale>
<asrwt>0</asrwt>
<pdfrwt beam="1">  1        2 0.27971631E-03 0.20005461E+02</pdfrwt>
<pdfrwt beam="2">  1       -2 0.84662798E-02 0.20005461E+02</pdfrwt>
<totfact> 0.33397814E+06</totfact>
</mgrwt>
</event>
<event>
 5    1  0.1607476E-006  0.2000257E+02  0.7818608E-02  0.1745277E+00
          2   -1    0    0  501    0  0.00000000000E+00  0.00000000000E+00  0.20230184449E+01  0.20230201157E+01  0.26000000000E-02 0.  1.
         -2   -1    0    0    0  501 -0.00000000000E+00 -0.00000000000E+00 -0.49443770398E+02  0.49443770466E+02  0.26000000000E-02 0. -1.
       1023    2    1    2    0    0  0.00000000000E+00  0.00000000000E+00 -0.47420751953E+02  0.51466790582E+02  0.20002570260E+02 0.  0.
        -13    1    3    3    0    0  0.97331980377E+01 -0.22964603302E+01 -0.23903911316E+02  0.25911715936E+02  0.10570000000E+00 0. -1.
         13    1    3    3    0    0 -0.97331980377E+01  0.22964603302E+01 -0.23516840637E+02  0.25555074646E+02  0.10570000000E+00 0.  1.
<mgrwt>
<rscale>  0 0.20002570E+02</rscale>
<asrwt>0</asrwt>
<pdfrwt beam="1">  1        2 0.31123378E-03 0.20002570E+02</pdfrwt>
<pdfrwt beam="2">  1       -2 0.76067332E-02 0.20002570E+02</pdfrwt>
<totfact> 0.33943541E+06</totfact>
</mgrwt>
</event>
<event>
 4    1  0.1607476E-006  0.2009303E+02  0.7818608E-02  0.1743484E+00
         -2   -1    0    0    0  501 -0.00000000000E+00  0.00000000000E+00  0.70972374948E+01  0.70972379711E+01  0.26000000000E-02 0.  1.
          2   -1    0    0  501    0  0.00000000000E+00 -0.00000000000E+00 -0.14221374361E+02  0.14221374599E+02  0.26000000000E-02 0. -1.
        -13    1    1    2    0    0 -0.82853710193E+01  0.56388353257E+01 -0.28289293335E+01  0.10414309887E+02  0.10570000000E+00 0. -1.
         13    1    1    2    0    0  0.82853710193E+01 -0.56388353257E+01 -0.42952075326E+01  0.10904302683E+02  0.10570000000E+00 0.  1.
<mgrwt>
<rscale>  0 0.20093032E+02</rscale>
<asrwt>0</asrwt>
<pdfrwt beam="2">  1        2 0.21879038E-02 0.20093032E+02</pdfrwt>
<pdfrwt beam="1">  1       -2 0.10918828E-02 0.20093032E+02</pdfrwt>
<totfact> 0.40095618E+06</totfact>
</mgrwt>
</event>
<event>
 5    1  0.1738943E-006  0.2000149E+02  0.7818608E-02  0.1745299E+00
         -2   -1    0    0    0  501 -0.00000000000E+00  0.00000000000E+00  0.11590173575E+01  0.11590202737E+01  0.26000000000E-02 0.  1.
          2   -1    0    0  501    0  0.00000000000E+00 -0.00000000000E+00 -0.86292686721E+02  0.86292686760E+02  0.26000000000E-02 0. -1.
       1023    2    1    2    0    0  0.00000000000E+00  0.00000000000E+00 -0.85133669364E+02  0.87451707034E+02  0.20001485041E+02 0.  0.
        -13    1    3    3    0    0 -0.87169405388E+01  0.49008014565E+01 -0.42445415002E+02  0.43607652247E+02  0.10570000000E+00 0. -1.
         13    1    3    3    0    0  0.87169405388E+01 -0.49008014565E+01 -0.42688254361E+02  0.43844054787E+02  0.10570000000E+00 0.  1.
<mgrwt>
<rscale>  0 0.20001485E+02</rscale>
<asrwt>0</asrwt>
<pdfrwt beam="2">  1        2 0.13275793E-01 0.20001485E+02</pdfrwt>
<pdfrwt beam="1">  1       -2 0.17831066E-03 0.20001485E+02</pdfrwt>
<totfact> 0.51078300E+06</totfact>
</mgrwt>
</event>
<event>
 5    1  0.1607476E-006  0.2000333E+02  0.7818608E-02  0.1745262E+00
          2   -1    0    0  501    0  0.00000000000E+00  0.00000000000E+00  0.38683307187E+01  0.38683315925E+01  0.26000000000E-02 0. -1.
         -2   -1    0    0    0  501 -0.00000000000E+00 -0.00000000000E+00 -0.25859550486E+02  0.25859550617E+02  0.26000000000E-02 0.  1.
       1023    2    1    2    0    0  0.00000000000E+00  0.00000000000E+00 -0.21991219767E+02  0.29727882209E+02  0.20003330567E+02 0.  0.
        -13    1    3    3    0    0 -0.98363313715E+01  0.18071295151E+01 -0.10914155720E+02  0.14803685335E+02  0.10570000000E+00 0. -1.
         13    1    3    3    0    0  0.98363313715E+01 -0.18071295151E+01 -0.11077064047E+02  0.14924196874E+02  0.10570000000E+00 0.  1.
<mgrwt>
<rscale>  0 0.20003331E+02</rscale>
<asrwt>0</asrwt>
<pdfrwt beam="1">  1        2 0.59512790E-03 0.20003331E+02</pdfrwt>
<pdfrwt beam="2">  1       -2 0.39783923E-02 0.20003331E+02</pdfrwt>
<totfact> 0.36580202E+06</totfact>
</mgrwt>
</event>
<event>
 5    1  0.1607476E-006  0.2000704E+02  0.7818608E-02  0.1745188E+00
          2   -1    0    0  501    0  0.00000000000E+00  0.00000000000E+00  0.44880393633E+01  0.44880401164E+01  0.26000000000E-02 0.  1.
         -2   -1    0    0    0  501 -0.00000000000E+00 -0.00000000000E+00 -0.22297126319E+02  0.22297126471E+02  0.26000000000E-02 0. -1.
       1023    2    1    2    0    0  0.00000000000E+00  0.00000000000E+00 -0.17809086956E+02  0.26785166587E+02  0.20007038034E+02 0.  0.
        -13    1    3    3    0    0 -0.64337042322E+01  0.76562645616E+01 -0.86103663487E+01  0.13196988987E+02  0.10570000000E+00 0.  1.
         13    1    3    3    0    0  0.64337042322E+01 -0.76562645616E+01 -0.91987206073E+01  0.13588177600E+02  0.10570000000E+00 0. -1.
<mgrwt>
<rscale>  0 0.20007038E+02</rscale>
<asrwt>0</asrwt>
<pdfrwt beam="1">  1        2 0.69046768E-03 0.20007038E+02</pdfrwt>
<pdfrwt beam="2">  1       -2 0.34303271E-02 0.20007038E+02</pdfrwt>
<totfact> 0.37059837E+06</totfact>
</mgrwt>
</event>
<event>
 4    1  0.1607476E-006  0.2001792E+02  0.7818608E-02  0.1744972E+00
          2   -1    0    0  501    0  0.00000000000E+00  0.00000000000E+00  0.23637023761E+01  0.23637038060E+01  0.26000000000E-02 0.  1.
         -2   -1    0    0    0  501 -0.00000000000E+00 -0.00000000000E+00 -0.42382345783E+02  0.42382345863E+02  0.26000000000E-02 0. -1.
        -13    1    1    2    0    0 -0.80907669405E+01  0.58907746020E+01 -0.19830810653E+02  0.22213373421E+02  0.10570000000E+00 0. -1.
         13    1    1    2    0    0  0.80907669405E+01 -0.58907746020E+01 -0.20187832754E+02  0.22532676248E+02  0.10570000000E+00 0.  1.
<mgrwt>
<rscale>  0 0.20017920E+02</rscale>
<asrwt>0</asrwt>
<pdfrwt beam="1">  1        2 0.36364667E-03 0.20017920E+02</pdfrwt>
<pdfrwt beam="2">  1       -2 0.65203604E-02 0.20017920E+02</pdfrwt>
<totfact> 0.34600131E+06</totfact>
</mgrwt>
</event>
<event>
 4    1  0.1607476E-006  0.2026154E+02  0.7818608E-02  0.1740176E+00
         -2   -1    0    0    0  501 -0.00000000000E+00  0.00000000000E+00  0.72919366752E+01  0.72919371387E+01  0.26000000000E-02 0. -1.
          2   -1    0    0  501    0  0.00000000000E+00 -0.00000000000E+00 -0.14074793546E+02  0.14074793787E+02  0.26000000000E-02 0.  1.
        -13    1    1    2    0    0 -0.42093058813E+01  0.91743334302E+01 -0.24875350713E+01  0.10396425016E+02  0.10570000000E+00 0.  1.
         13    1    1    2    0    0  0.42093058813E+01 -0.91743334302E+01 -0.42953218000E+01  0.10970305909E+02  0.10570000000E+00 0. -1.
<mgrwt>
<rscale>  0 0.20261541E+02</rscale>
<asrwt>0</asrwt>
<pdfrwt beam="2">  1        2 0.21653529E-02 0.20261541E+02</pdfrwt>
<pdfrwt beam="1">  1       -2 0.11218365E-02 0.20261541E+02</pdfrwt>
<totfact> 0.39310368E+06</totfact>
</mgrwt>
</event>
<event>
 5    1  0.1607476E-006  0.2000209E+02  0.7818608E-02  0.1745286E+00
         -2   -1    0    0    0  501 -0.00000000000E+00  0.00000000000E+00  0.16143013579E+02  0.16143013788E+02  0.26000000000E-02 0. -1.
          2   -1    0    0  501    0  0.00000000000E+00 -0.00000000000E+00 -0.61959266827E+01  0.61959272282E+01  0.26000000000E-02 0.  1.
       1023    2    1    2    0    0  0.00000000000E+00  0.00000000000E+00  0.99470868962E+01  0.22338941016E+02  0.20002093591E+02 0.  0.
        -13    1    3    3    0    0  0.29901423756E+01  0.95428726284E+01  0.50282006897E+01  0.11193808293E+02  0.10570000000E+00 0.  1.
         13    1    3    3    0    0 -0.29901423756E+01 -0.95428726284E+01  0.49188862065E+01  0.11145132724E+02  0.10570000000E+00 0. -1.
<mgrwt>
<rscale>  0 0.20002094E+02</rscale>
<asrwt>0</asrwt>
<pdfrwt beam="2">  1        2 0.95321956E-03 0.20002094E+02</pdfrwt>
<pdfrwt beam="1">  1       -2 0.24835406E-02 0.20002094E+02</pdfrwt>
<totfact> 0.38073927E+06</totfact>
</mgrwt>
</event>
<event>
 4    1  0.1607476E-006  0.2002765E+02  0.7818608E-02  0.1744779E+00
         -2   -1    0    0    0  501 -0.00000000000E+00  0.00000000000E+00  0.43105438163E+01  0.43105446004E+01  0.26000000000E-02 0. -1.
          2   -1    0    0  501    0  0.00000000000E+00 -0.00000000000E+00 -0.23263108512E+02  0.23263108657E+02  0.26000000000E-02 0.  1.
        -13    1    1    2    0    0  0.21148047750E+01 -0.97865771208E+01 -0.96504212126E+01  0.13906519804E+02  0.10570000000E+00 0.  1.
         13    1    1    2    0    0 -0.21148047750E+01  0.97865771208E+01 -0.93021434827E+01  0.13667133454E+02  0.10570000000E+00 0. -1.
<mgrwt>
<rscale>  0 0.20027647E+02</rscale>
<asrwt>0</asrwt>
<pdfrwt beam="2">  1        2 0.35789398E-02 0.20027647E+02</pdfrwt>
<pdfrwt beam="1">  1       -2 0.66316067E-03 0.20027647E+02</pdfrwt>
<totfact> 0.42128853E+06</totfact>
</mgrwt>
</event>
<event>
 5    1  0.1607476E-006  0.2000214E+02  0.7818608E-02  0.1745286E+00
         -2   -1    0    0    0  501 -0.00000000000E+00  0.00000000000E+00  0.69250427119E+01  0.69250432000E+01  0.26000000000E-02 0.  1.
          2   -1    0    0  501    0  0.00000000000E+00 -0.00000000000E+00 -0.14443430963E+02  0.14443431197E+02  0.26000000000E-02 0. -1.
       1023    2    1    2    0    0  0.00000000000E+00  0.00000000000E+00 -0.75183882511E+01  0.21368474397E+02  0.20002138290E+02 0.  0.
        -13    1    3    3    0    0  0.57701260183E+01 -0.81675665490E+01 -0.36716582417E+01  0.10653438146E+02  0.10570000000E+00 0. -1.
         13    1    3    3    0    0 -0.57701260183E+01  0.81675665490E+01 -0.38467300094E+01  0.10715036251E+02  0.10570000000E+00 0.  1.
<mgrwt>
<rscale>  0 0.20002138E+02</rscale>
<asrwt>0</asrwt>
<pdfrwt beam="2">  1        2 0.22220664E-02 0.20002138E+02</pdfrwt>
<pdfrwt beam="1">  1       -2 0.10653912E-02 0.20002138E+02</pdfrwt>
<totfact> 0.40558980E+06</totfact>
</mgrwt>
</event>
<event>
 5    1  0.1607476E-006  0.2000228E+02  0.7818608E-02  0.1745283E+00
         -2   -1    0    0    0  501 -0.00000000000E+00  0.00000000000E+00  0.11987854650E+01  0.11987882845E+01  0.26000000000E-02 0. -1.
          2   -1    0    0  501    0  0.00000000000E+00 -0.00000000000E+00 -0.83436718038E+02  0.83436718079E+02  0.26000000000E-02 0.  1.
       1023    2    1    2    0    0  0.00000000000E+00  0.00000000000E+00 -0.82237932573E+02  0.84635506363E+02  0.20002284456E+02 0.  0.
        -13    1    3    3    0    0  0.51811431782E+01 -0.85533262280E+01 -0.41498350073E+02  0.42686389698E+02  0.10570000000E+00 0.  1.
         13    1    3    3    0    0 -0.51811431782E+01  0.85533262280E+01 -0.40739582500E+02  0.41949116665E+02  0.10570000000E+00 0. -1.
<mgrwt>
<rscale>  0 0.20002284E+02</rscale>
<asrwt>0</asrwt>
<pdfrwt beam="2">  1        2 0.12836414E-01 0.20002284E+02</pdfrwt>
<pdfrwt beam="1">  1       -2 0.18442882E-03 0.20002284E+02</pdfrwt>
<totfact> 0.50717999E+06</totfact>
</mgrwt>
</event>
<event>
 4    1  0.1607476E-006  0.2005029E+02  0.7818608E-02  0.1744330E+00
          2   -1    0    0  501    0  0.00000000000E+00  0.00000000000E+00  0.47895284696E+02  0.47895284767E+02  0.26000000000E-02 0. -1.
         -2   -1    0    0    0  501 -0.00000000000E+00 -0.00000000000E+00 -0.20984014189E+01  0.20984030296E+01  0.26000000000E-02 0.  1.
        -13    1    1    2    0    0  0.85353412135E+01  0.52191456667E+01  0.24477132750E+02  0.26443009119E+02  0.10570000000E+00 0. -1.
         13    1    1    2    0    0 -0.85353412135E+01 -0.52191456667E+01  0.21319750527E+02  0.23550678677E+02  0.10570000000E+00 0.  1.
<mgrwt>
<rscale>  0 0.20050294E+02</rscale>
<asrwt>0</asrwt>
<pdfrwt beam="1">  1        2 0.73685052E-02 0.20050294E+02</pdfrwt>
<pdfrwt beam="2">  1       -2 0.32283113E-03 0.20050294E+02</pdfrwt>
<totfact> 0.45775638E+06</totfact>
</mgrwt>
</event>
<event>
 4    1  0.1607476E-006  0.2003318E+02  0.7818608E-02  0.1744669E+00
          2   -1    0    0  501    0  0.00000000000E+00  0.00000000000E+00  0.41426994261E+02  0.41426994342E+02  0.26000000000E-02 0.  1.
         -2   -1    0    0    0  501 -0.00000000000E+00 -0.00000000000E+00 -0.24218993478E+01  0.24219007434E+01  0.26000000000E-02 0. -1.
        -13    1    1    2    0    0  0.92246930516E+01  0.38883952479E+01  0.20216150384E+02  0.22559221803E+02  0.10570000000E+00 0.  1.
         13    1    1    2    0    0 -0.92246930516E+01 -0.38883952479E+01  0.18788944529E+02  0.21289673283E+02  0.10570000000E+00 0. -1.
<mgrwt>
<rscale>  0 0.20033177E+02</rscale>
<asrwt>0</asrwt>
<pdfrwt beam="1">  1        2 0.63733842E-02 0.20033177E+02</pdfrwt>
<pdfrwt beam="2">  1       -2 0.37259999E-03 0.20033177E+02</pdfrwt>
<totfact> 0.44938674E+06</totfact>
</mgrwt>
</event>
<event>
 5    1  0.1636070E-006  0.2000225E+02  0.7818608E-02  0.1745283E+00
         -2   -1    0    0    0  501 -0.00000000000E+00  0.00000000000E+00  0.11318250782E+01  0.11318280645E+01  0.26000000000E-02 0.  1.
          2   -1    0    0  501    0  0.00000000000E+00 -0.00000000000E+00 -0.88372593492E+02  0.88372593530E+02  0.26000000000E-02 0. -1.
       1023    2    1    2    0    0  0.00000000000E+00  0.00000000000E+00 -0.87240768413E+02  0.89504421594E+02  0.20002245164E+02 0.  0.
        -13    1    3    3    0    0  0.97112433377E+01  0.23859836903E+01 -0.43170345094E+02  0.44313553608E+02  0.10570000000E+00 0.  1.
         13    1    3    3    0    0 -0.97112433377E+01 -0.23859836903E+01 -0.44070423320E+02  0.45190867987E+02  0.10570000000E+00 0. -1.
<mgrwt>
<rscale>  0 0.20002245E+02</rscale>
<asrwt>0</asrwt>
<pdfrwt beam="2">  1        2 0.13595778E-01 0.20002245E+02</pdfrwt>
<pdfrwt beam="1">  1       -2 0.17412724E-03 0.20002245E+02</pdfrwt>
<totfact> 0.51331481E+06</totfact>
</mgrwt>
</event>
<event>
 5    1  0.1607476E-006  0.2000249E+02  0.7818608E-02  0.1745279E+00
          2   -1    0    0  501    0  0.00000000000E+00  0.00000000000E+00  0.54845459590E+02  0.54845459652E+02  0.26000000000E-02 0.  1.
         -2   -1    0    0    0  501 -0.00000000000E+00 -0.00000000000E+00 -0.18237573111E+01  0.18237591644E+01  0.26000000000E-02 0. -1.
       1023    2    1    2    0    0  0.00000000000E+00  0.00000000000E+00  0.53021702279E+02  0.56669218816E+02  0.20002486062E+02 0.  0.
        -13    1    3    3    0    0 -0.99583263099E+01 -0.91927669020E+00  0.26457310036E+02  0.28284514479E+02  0.10570000000E+00 0. -1.
         13    1    3    3    0    0  0.99583263099E+01  0.91927669020E+00  0.26564392243E+02  0.28384704337E+02  0.10570000000E+00 0.  1.
<mgrwt>
<rscale>  0 0.20002486E+02</rscale>
<asrwt>0</asrwt>
<pdfrwt beam="1">  1        2 0.84377640E-02 0.20002486E+02</pdfrwt>
<pdfrwt beam="2">  1       -2 0.28057817E-03 0.20002486E+02</pdfrwt>
<totfact> 0.46985323E+06</totfact>
</mgrwt>
</event>
<event>
 5    1  0.1607476E-006  0.2000126E+02  0.7818608E-02  0.1745303E+00
          2   -1    0    0  501    0  0.00000000000E+00  0.00000000000E+00  0.18654314653E+01  0.18654332772E+01  0.26000000000E-02 0.  1.
         -2   -1    0    0    0  501 -0.00000000000E+00 -0.00000000000E+00 -0.53613619910E+02  0.53613619973E+02  0.26000000000E-02 0. -1.
       1023    2    1    2    0    0  0.00000000000E+00  0.00000000000E+00 -0.51748188445E+02  0.55479053250E+02  0.20001258517E+02 0.  0.
        -13    1    3    3    0    0 -0.43974757699E-01 -0.99999729262E+01 -0.25861453839E+02  0.27727736285E+02  0.10570000000E+00 0. -1.
         13    1    3    3    0    0  0.43974757699E-01  0.99999729262E+01 -0.25886734606E+02  0.27751316966E+02  0.10570000000E+00 0.  1.
<mgrwt>
<rscale>  0 0.20001259E+02</rscale>
<asrwt>0</asrwt>
<pdfrwt beam="1">  1        2 0.28698964E-03 0.20001259E+02</pdfrwt>
<pdfrwt beam="2">  1       -2 0.82482482E-02 0.20001259E+02</pdfrwt>
<totfact> 0.33546677E+06</totfact>
</mgrwt>
</event>
<event>
 5    1  0.1607476E-006  0.2000179E+02  0.7818608E-02  0.1745292E+00
          2   -1    0    0  501    0  0.00000000000E+00  0.00000000000E+00  0.11146378395E+01  0.11146408719E+01  0.26000000000E-02 0.  1.
         -2   -1    0    0    0  501 -0.00000000000E+00 -0.00000000000E+00 -0.89731184320E+02  0.89731184357E+02  0.26000000000E-02 0. -1.
       1023    2    1    2    0    0  0.00000000000E+00  0.00000000000E+00 -0.88616546480E+02  0.90845825229E+02  0.20001791207E+02 0.  0.
        -13    1    3    3    0    0 -0.58126182646E+01  0.81373151110E+01 -0.44606522505E+02  0.45713843098E+02  0.10570000000E+00 0.  1.
         13    1    3    3    0    0  0.58126182646E+01 -0.81373151110E+01 -0.44010023975E+02  0.45131982131E+02  0.10570000000E+00 0. -1.
<mgrwt>
<rscale>  0 0.20001791E+02</rscale>
<asrwt>0</asrwt>
<pdfrwt beam="1">  1        2 0.17148305E-03 0.20001791E+02</pdfrwt>
<pdfrwt beam="2">  1       -2 0.13804792E-01 0.20001791E+02</pdfrwt>
<totfact> 0.30489874E+06</totfact>
</mgrwt>
</event>
<event>
 5    1  0.1607476E-006  0.2000243E+02  0.7818608E-02  0.1745280E+00
          2   -1    0    0  501    0  0.00000000000E+00  0.00000000000E+00  0.55945140397E+02  0.55945140458E+02  0.26000000000E-02 0. -1.
         -2   -1    0    0    0  501 -0.00000000000E+00 -0.00000000000E+00 -0.17878989627E+01  0.17879008532E+01  0.26000000000E-02 0.  1.
       1023    2    1    2    0    0  0.00000000000E+00  0.00000000000E+00  0.54157241434E+02  0.57733041311E+02  0.20002431332E+02 0.  0.
        -13    1    3    3    0    0  0.32834893580E+01  0.94461154942E+01  0.26927481648E+02  0.28724742656E+02  0.10570000000E+00 0.  1.
         13    1    3    3    0    0 -0.32834893580E+01 -0.94461154942E+01  0.27229759787E+02  0.29008298655E+02  0.10570000000E+00 0. -1.
<mgrwt>
<rscale>  0 0.20002431E+02</rscale>
<asrwt>0</asrwt>
<pdfrwt beam="1">  1        2 0.86069437E-02 0.20002431E+02</pdfrwt>
<pdfrwt beam="2">  1       -2 0.27506156E-03 0.20002431E+02</pdfrwt>
<totfact> 0.47135853E+06</totfact>
</mgrwt>
</event>
<event>
 4    1  0.1607476E-006  0.2003304E+02  0.7818608E-02  0.1744672E+00
         -2   -1    0    0    0  501 -0.00000000000E+00  0.00000000000E+00  0.41260228625E+02  0.41260228707E+02  0.26000000000E-02 0.  1.
          2   -1    0    0  501    0  0.00000000000E+00 -0.00000000000E+00 -0.24316542056E+01  0.24316555956E+01  0.26000000000E-02 0. -1.
        -13    1    1    2    0    0  0.38149839679E+01 -0.92587731164E+01  0.19853126500E+02  0.22235934580E+02  0.10570000000E+00 0. -1.
         13    1    1    2    0    0 -0.38149839679E+01  0.92587731164E+01  0.18975447919E+02  0.21455949723E+02  0.10570000000E+00 0.  1.
<mgrwt>
<rscale>  0 0.20033037E+02</rscale>
<asrwt>0</asrwt>
<pdfrwt beam="2">  1        2 0.37410075E-03 0.20033037E+02</pdfrwt>
<pdfrwt beam="1">  1       -2 0.63477278E-02 0.20033037E+02</pdfrwt>
<totfact> 0.34660907E+06</totfact>
</mgrwt>
</event>
<event>
 5    1  0.1607476E-006  0.2000780E+02  0.7818608E-02  0.1745173E+00
          2   -1    0    0  501    0  0.00000000000E+00  0.00000000000E+00  0.21178642926E+02  0.21178643086E+02  0.26000000000E-02 0.  1.
         -2   -1    0    0    0  501 -0.00000000000E+00 -0.00000000000E+00 -0.47254230125E+01  0.47254237277E+01  0.26000000000E-02 0. -1.
       1023    2    1    2    0    0  0.00000000000E+00  0.00000000000E+00  0.16453219913E+02  0.25904066813E+02  0.20007804276E+02 0.  0.
        -13    1    3    3    0    0  0.63720015519E+01  0.77108920081E+01  0.83319999587E+01  0.13018972891E+02  0.10570000000E+00 0. -1.
         13    1    3    3    0    0 -0.63720015519E+01 -0.77108920081E+01  0.81212199547E+01  0.12885093922E+02  0.10570000000E+00 0.  1.
<mgrwt>
<rscale>  0 0.20007804E+02</rscale>
<asrwt>0</asrwt>
<pdfrwt beam="1">  1        2 0.32582528E-02 0.20007804E+02</pdfrwt>
<pdfrwt beam="2">  1       -2 0.72698823E-03 0.20007804E+02</pdfrwt>
<totfact> 0.41855659E+06</totfact>
</mgrwt>
</event>
<event>
 5    1  0.1607476E-006  0.2000479E+02  0.7818608E-02  0.1745233E+00
         -2   -1    0    0    0  501 -0.00000000000E+00  0.00000000000E+00  0.32024693469E+01  0.32024704023E+01  0.26000000000E-02 0.  1.
          2   -1    0    0  501    0  0.00000000000E+00 -0.00000000000E+00 -0.31240841584E+02  0.31240841693E+02  0.26000000000E-02 0. -1.
       1023    2    1    2    0    0  0.00000000000E+00  0.00000000000E+00 -0.28038372237E+02  0.34443312095E+02  0.20004785186E+02 0.  0.
        -13    1    3    3    0    0 -0.38054963679E+01  0.92481105747E+01 -0.13734532351E+02  0.16989935350E+02  0.10570000000E+00 0. -1.
         13    1    3    3    0    0  0.38054963679E+01 -0.92481105747E+01 -0.14303839887E+02  0.17453376745E+02  0.10570000000E+00 0.  1.
<mgrwt>
<rscale>  0 0.20004785E+02</rscale>
<asrwt>0</asrwt>
<pdfrwt beam="2">  1        2 0.48062832E-02 0.20004785E+02</pdfrwt>
<pdfrwt beam="1">  1       -2 0.49268770E-03 0.20004785E+02</pdfrwt>
<totfact> 0.43545608E+06</totfact>
</mgrwt>
</event>
<event>
 5    1  0.1607476E-006  0.2000386E+02  0.7818608E-02  0.1745251E+00
          2   -1    0    0  501    0  0.00000000000E+00  0.00000000000E+00  0.72942871638E+01  0.72942876272E+01  0.26000000000E-02 0. -1.
         -2   -1    0    0    0  501 -0.00000000000E+00 -0.00000000000E+00 -0.13714643686E+02  0.13714643932E+02  0.26000000000E-02 0.  1.
       1023    2    1    2    0    0  0.00000000000E+00  0.00000000000E+00 -0.64203565221E+01  0.21008931560E+02  0.20003855314E+02 0.  0.
        -13    1    3    3    0    0 -0.20169650567E+01 -0.97954770107E+01 -0.33033276023E+01  0.10532932338E+02  0.10570000000E+00 0. -1.
         13    1    3    3    0    0  0.20169650567E+01  0.97954770107E+01 -0.31170289198E+01  0.10475999221E+02  0.10570000000E+00 0.  1.
<mgrwt>
<rscale>  0 0.20003855E+02</rscale>
<asrwt>0</asrwt>
<pdfrwt beam="1">  1        2 0.11221981E-02 0.20003855E+02</pdfrwt>
<pdfrwt beam="2">  1       -2 0.21099452E-02 0.20003855E+02</pdfrwt>
<totfact> 0.38540929E+06</totfact>
</mgrwt>
</event>
<event>
 5    1  0.1607476E-006  0.2000142E+02  0.7818608E-02  0.1745300E+00
          2   -1    0    0  501    0  0.00000000000E+00  0.00000000000E+00  0.10929723054E+02  0.10929723363E+02  0.26000000000E-02 0. -1.
         -2   -1    0    0    0  501 -0.00000000000E+00 -0.00000000000E+00 -0.91506642863E+01  0.91506646557E+01  0.26000000000E-02 0.  1.
       1023    2    1    2    0    0  0.00000000000E+00  0.00000000000E+00  0.17790587672E+01  0.20080388018E+02  0.20001423271E+02 0.  0.
        -13    1    3    3    0    0  0.50121299996E+01  0.86534123390E+01  0.88122105123E+00  0.10039457917E+02  0.10570000000E+00 0. -1.
         13    1    3    3    0    0 -0.50121299996E+01 -0.86534123390E+01  0.89783771596E+00  0.10040930101E+02  0.10570000000E+00 0.  1.
<mgrwt>
<rscale>  0 0.20001423E+02</rscale>
<asrwt>0</asrwt>
<pdfrwt beam="1">  1        2 0.16814959E-02 0.20001423E+02</pdfrwt>
<pdfrwt beam="2">  1       -2 0.14077946E-02 0.20001423E+02</pdfrwt>
<totfact> 0.39715570E+06</totfact>
</mgrwt>
</event>
<event>
 4    1  0.1607476E-006  0.2009016E+02  0.7818608E-02  0.1743541E+00
          2   -1    0    0  501    0  0.00000000000E+00  0.00000000000E+00  0.70419268523E+01  0.70419273323E+01  0.26000000000E-02 0. -1.
         -2   -1    0    0    0  501 -0.00000000000E+00 -0.00000000000E+00 -0.14328977546E+02  0.14328977782E+02  0.26000000000E-02 0.  1.
        -13    1    1    2    0    0  0.13229104316E+01  0.99552984158E+01 -0.34462625360E+01  0.10618189889E+02  0.10570000000E+00 0. -1.
         13    1    1    2    0    0 -0.13229104316E+01 -0.99552984158E+01 -0.38407881579E+01  0.10752715226E+02  0.10570000000E+00 0.  1.
<mgrwt>
<rscale>  0 0.20090159E+02</rscale>
<asrwt>0</asrwt>
<pdfrwt beam="1">  1        2 0.10833734E-02 0.20090159E+02</pdfrwt>
<pdfrwt beam="2">  1       -2 0.22044581E-02 0.20090159E+02</pdfrwt>
<totfact> 0.38059321E+06</totfact>
</mgrwt>
</event>
<event>
 5    1  0.1607476E-006  0.2000742E+02  0.7818608E-02  0.1745181E+00
          2   -1    0    0  501    0  0.00000000000E+00  0.00000000000E+00  0.54229542835E+02  0.54229542898E+02  0.26000000000E-02 0.  1.
         -2   -1    0    0    0  501 -0.00000000000E+00 -0.00000000000E+00 -0.18453812833E+01  0.18453831149E+01  0.26000000000E-02 0. -1.
       1023    2    1    2    0    0  0.00000000000E+00  0.00000000000E+00  0.52384161552E+02  0.56074926012E+02  0.20007422268E+02 0.  0.
        -13    1    3    3    0    0 -0.10564827668E+01 -0.99467631005E+01  0.25928985179E+02  0.27791683953E+02  0.10570000000E+00 0. -1.
         13    1    3    3    0    0  0.10564827668E+01  0.99467631005E+01  0.26455176373E+02  0.28283242060E+02  0.10570000000E+00 0.  1.
<mgrwt>
<rscale>  0 0.20007422E+02</rscale>
<asrwt>0</asrwt>
<pdfrwt beam="1">  1        2 0.83430064E-02 0.20007422E+02</pdfrwt>
<pdfrwt beam="2">  1       -2 0.28390497E-03 0.20007422E+02</pdfrwt>
<totfact> 0.46875147E+06</totfact>
</mgrwt>
</event>
<event>
 5    1  0.1607476E-006  0.2000695E+02  0.7818608E-02  0.1745190E+00
          2   -1    0    0  501    0  0.00000000000E+00  0.00000000000E+00  0.15254704774E+02  0.15254704996E+02  0.26000000000E-02 0.  1.
         -2   -1    0    0    0  501 -0.00000000000E+00 -0.00000000000E+00 -0.65599079004E+01  0.65599084156E+01  0.26000000000E-02 0. -1.
       1023    2    1    2    0    0  0.00000000000E+00  0.00000000000E+00  0.86947968740E+01  0.21814613412E+02  0.20006945434E+02 0.  0.
        -13    1    3    3    0    0 -0.87272635375E+01 -0.48829578292E+01  0.41038617775E+01  0.10810238665E+02  0.10570000000E+00 0. -1.
         13    1    3    3    0    0  0.87272635375E+01  0.48829578292E+01  0.45909350965E+01  0.11004374747E+02  0.10570000000E+00 0.  1.
<mgrwt>
<rscale>  0 0.20006945E+02</rscale>
<asrwt>0</asrwt>
<pdfrwt beam="1">  1        2 0.23468777E-02 0.20006945E+02</pdfrwt>
<pdfrwt beam="2">  1       -2 0.10092167E-02 0.20006945E+02</pdfrwt>
<totfact> 0.40711930E+06</totfact>
</mgrwt>
</event>
<event>
 5    1  0.1607476E-006  0.2000284E+02  0.7818608E-02  0.1745272E+00
         -2   -1    0    0    0  501 -0.00000000000E+00  0.00000000000E+00  0.95009692401E+01  0.95009695958E+01  0.26000000000E-02 0. -1.
          2   -1    0    0  501    0  0.00000000000E+00 -0.00000000000E+00 -0.10528231394E+02  0.10528231715E+02  0.26000000000E-02 0.  1.
       1023    2    1    2    0    0  0.00000000000E+00  0.00000000000E+00 -0.10272621541E+01  0.20029201311E+02  0.20002840739E+02 0.  0.
        -13    1    3    3    0    0  0.53072226531E+01  0.84763004735E+01 -0.56806179788E+00  0.10017392310E+02  0.10570000000E+00 0.  1.
         13    1    3    3    0    0 -0.53072226531E+01 -0.84763004735E+01 -0.45920035622E+00  0.10011809001E+02  0.10570000000E+00 0. -1.
<mgrwt>
<rscale>  0 0.20002841E+02</rscale>
<asrwt>0</asrwt>
<pdfrwt beam="2">  1        2 0.16197280E-02 0.20002841E+02</pdfrwt>
<pdfrwt beam="1">  1       -2 0.14616876E-02 0.20002841E+02</pdfrwt>
<totfact> 0.39599749E+06</totfact>
</mgrwt>
</event>
<event>
 4    1  0.1607476E-006  0.2001549E+02  0.7818608E-02  0.1745020E+00
         -2   -1    0    0    0  501 -0.00000000000E+00  0.00000000000E+00  0.26912069964E+01  0.26912082523E+01  0.26000000000E-02 0. -1.
          2   -1    0    0  501    0  0.00000000000E+00 -0.00000000000E+00 -0.37215609635E+02  0.37215609726E+02  0.26000000000E-02 0.  1.
        -13    1    1    2    0    0  0.21967471644E+01  0.97602234229E+01 -0.16789944775E+02  0.19544847848E+02  0.10570000000E+00 0.  1.
         13    1    1    2    0    0 -0.21967471644E+01 -0.97602234229E+01 -0.17734457863E+02  0.20361970130E+02  0.10570000000E+00 0. -1.
<mgrwt>
<rscale>  0 0.20015488E+02</rscale>
<asrwt>0</asrwt>
<pdfrwt beam="2">  1        2 0.57254781E-02 0.20015488E+02</pdfrwt>
<pdfrwt beam="1">  1       -2 0.41403198E-03 0.20015488E+02</pdfrwt>
<totfact> 0.44406381E+06</totfact>
</mgrwt>
</event>
<event>
 4    1  0.1607476E-006  0.2006078E+02  0.7818608E-02  0.1744122E+00
         -2   -1    0    0    0  501 -0.00000000000E+00  0.00000000000E+00  0.16445481369E+02  0.16445481574E+02  0.26000000000E-02 0. -1.
          2   -1    0    0  501    0  0.00000000000E+00 -0.00000000000E+00 -0.61177091713E+01  0.61177097238E+01  0.26000000000E-02 0.  1.
        -13    1    1    2    0    0 -0.95916355123E+01 -0.28314321564E+01  0.60212229317E+01  0.11674021498E+02  0.10570000000E+00 0.  1.
         13    1    1    2    0    0  0.95916355123E+01  0.28314321564E+01  0.43065492656E+01  0.10889169800E+02  0.10570000000E+00 0. -1.
<mgrwt>
<rscale>  0 0.20060776E+02</rscale>
<asrwt>0</asrwt>
<pdfrwt beam="2">  1        2 0.94118608E-03 0.20060776E+02</pdfrwt>
<pdfrwt beam="1">  1       -2 0.25300741E-02 0.20060776E+02</pdfrwt>
<totfact> 0.37778906E+06</totfact>
</mgrwt>
</event>
<event>
 5    1  0.1607476E-006  0.2000142E+02  0.7818608E-02  0.1745300E+00
         -2   -1    0    0    0  501 -0.00000000000E+00  0.00000000000E+00  0.76558164374E+01  0.76558168789E+01  0.26000000000E-02 0.  1.
          2   -1    0    0  501    0  0.00000000000E+00 -0.00000000000E+00 -0.13063814456E+02  0.13063814715E+02  0.26000000000E-02 0. -1.
       1023    2    1    2    0    0  0.00000000000E+00  0.00000000000E+00 -0.54079980190E+01  0.20719631594E+02  0.20001417220E+02 0.  0.
        -13    1    3    3    0    0  0.68177323643E+01  0.73157900022E+01 -0.26757761216E+01  0.10352449386E+02  0.10570000000E+00 0. -1.
         13    1    3    3    0    0 -0.68177323643E+01 -0.73157900022E+01 -0.27322218974E+01  0.10367182208E+02  0.10570000000E+00 0.  1.
<mgrwt>
<rscale>  0 0.20001417E+02</rscale>
<asrwt>0</asrwt>
<pdfrwt beam="2">  1        2 0.20098177E-02 0.20001417E+02</pdfrwt>
<pdfrwt beam="1">  1       -2 0.11778180E-02 0.20001417E+02</pdfrwt>
<totfact> 0.40249606E+06</totfact>
</mgrwt>
</event>
<event>
 5    1  0.1607476E-006  0.2000169E+02  0.7818608E-02  0.1745295E+00
          2   -1    0    0  501    0  0.00000000000E+00  0.00000000000E+00  0.49684058659E+02  0.49684058727E+02  0.26000000000E-02 0.  1.
         -2   -1    0    0    0  501 -0.00000000000E+00 -0.00000000000E+00 -0.20130564248E+01  0.20130581039E+01  0.26000000000E-02 0. -1.
       1023    2    1    2    0    0  0.00000000000E+00  0.00000000000E+00  0.47671002235E+02  0.51697116831E+02  0.20001685794E+02 0.  0.
        -13    1    3    3    0    0  0.88740538858E+01  0.46103876133E+01  0.23924280815E+02  0.25930424048E+02  0.10570000000E+00 0. -1.
         13    1    3    3    0    0 -0.88740538858E+01 -0.46103876133E+01  0.23746721419E+02  0.25766692783E+02  0.10570000000E+00 0.  1.
<mgrwt>
<rscale>  0 0.20001686E+02</rscale>
<asrwt>0</asrwt>
<pdfrwt beam="1">  1        2 0.76437003E-02 0.20001686E+02</pdfrwt>
<pdfrwt beam="2">  1       -2 0.30970117E-03 0.20001686E+02</pdfrwt>
<totfact> 0.46275242E+06</totfact>
</mgrwt>
</event>
<event>
 4    1  0.1607476E-006  0.2001468E+02  0.7818608E-02  0.1745036E+00
          2   -1    0    0  501    0  0.00000000000E+00  0.00000000000E+00  0.12425896584E+01  0.12425923786E+01  0.26000000000E-02 0.  1.
         -2   -1    0    0    0  501 -0.00000000000E+00 -0.00000000000E+00 -0.80595177621E+02  0.80595177663E+02  0.26000000000E-02 0. -1.
        -13    1    1    2    0    0 -0.75417489098E+01  0.65727567220E+01 -0.40648789382E+02  0.41861848481E+02  0.10570000000E+00 0.  1.
         13    1    1    2    0    0  0.75417489098E+01 -0.65727567220E+01 -0.38703798580E+02  0.39975921560E+02  0.10570000000E+00 0. -1.
<mgrwt>
<rscale>  0 0.20014679E+02</rscale>
<asrwt>0</asrwt>
<pdfrwt beam="1">  1        2 0.19116792E-03 0.20014679E+02</pdfrwt>
<pdfrwt beam="2">  1       -2 0.12399254E-01 0.20014679E+02</pdfrwt>
<totfact> 0.31160208E+06</totfact>
</mgrwt>
</event>
<event>
 5    1  0.1607476E-006  0.2000346E+02  0.7818608E-02  0.1745259E+00
         -2   -1    0    0    0  501 -0.00000000000E+00  0.00000000000E+00  0.12646191736E+01  0.12646218463E+01  0.26000000000E-02 0.  1.
          2   -1    0    0  501    0  0.00000000000E+00 -0.00000000000E+00 -0.79102461610E+02  0.79102461653E+02  0.26000000000E-02 0. -1.
       1023    2    1    2    0    0  0.00000000000E+00  0.00000000000E+00 -0.77837842436E+02  0.80367083499E+02  0.20003459576E+02 0.  0.
        -13    1    3    3    0    0  0.53508967942E+00  0.99864372708E+01 -0.39282201365E+02  0.40535389068E+02  0.10570000000E+00 0. -1.
         13    1    3    3    0    0 -0.53508967942E+00 -0.99864372708E+01 -0.38555641071E+02  0.39831694431E+02  0.10570000000E+00 0.  1.
<mgrwt>
<rscale>  0 0.20003460E+02</rscale>
<asrwt>0</asrwt>
<pdfrwt beam="2">  1        2 0.12169606E-01 0.20003460E+02</pdfrwt>
<pdfrwt beam="1">  1       -2 0.19455707E-03 0.20003460E+02</pdfrwt>
<totfact> 0.50167068E+06</totfact>
</mgrwt>
</event>
<event>
 4    1  0.1607476E-006  0.2001744E+02  0.7818608E-02  0.1744982E+00
          2   -1    0    0  501    0  0.00000000000E+00  0.00000000000E+00  0.23759722579E+01  0.23759736805E+01  0.26000000000E-02 0.  1.
         -2   -1    0    0    0  501 -0.00000000000E+00 -0.00000000000E+00 -0.42161448029E+02  0.42161448109E+02  0.26000000000E-02 0. -1.
        -13    1    1    2    0    0  0.59467358599E+01 -0.80478753132E+01 -0.20286540631E+02  0.22620496629E+02  0.10570000000E+00 0.  1.
         13    1    1    2    0    0 -0.59467358599E+01  0.80478753132E+01 -0.19498935140E+02  0.21916925161E+02  0.10570000000E+00 0. -1.
<mgrwt>
<rscale>  0 0.20017439E+02</rscale>
<asrwt>0</asrwt>
<pdfrwt beam="1">  1        2 0.36553434E-03 0.20017439E+02</pdfrwt>
<pdfrwt beam="2">  1       -2 0.64863762E-02 0.20017439E+02</pdfrwt>
<totfact> 0.34625065E+06</totfact>
</mgrwt>
</event>
<event>
 5    1  0.1607476E-006  0.2000383E+02  0.7818608E-02  0.1745252E+00
         -2   -1    0    0    0  501 -0.00000000000E+00  0.00000000000E+00  0.25752853331E+02  0.25752853462E+02  0.26000000000E-02 0. -1.
          2   -1    0    0  501    0  0.00000000000E+00 -0.00000000000E+00 -0.38845520783E+01  0.38845529484E+01  0.26000000000E-02 0.  1.
       1023    2    1    2    0    0  0.00000000000E+00  0.00000000000E+00  0.21868301253E+02  0.29637406411E+02  0.20003831110E+02 0.  0.
        -13    1    3    3    0    0 -0.95492864003E+01  0.29708229546E+01  0.10768620236E+02  0.14696564702E+02  0.10570000000E+00 0.  1.
         13    1    3    3    0    0  0.95492864003E+01 -0.29708229546E+01  0.11099681017E+02  0.14940841708E+02  0.10570000000E+00 0. -1.
<mgrwt>
<rscale>  0 0.20003831E+02</rscale>
<asrwt>0</asrwt>
<pdfrwt beam="2">  1        2 0.59762347E-03 0.20003831E+02</pdfrwt>
<pdfrwt beam="1">  1       -2 0.39619775E-02 0.20003831E+02</pdfrwt>
<totfact> 0.36592420E+06</totfact>
</mgrwt>
</event>
<event>
 5    1  0.1607476E-006  0.2000249E+02  0.7818608E-02  0.1745279E+00
         -2   -1    0    0    0  501 -0.00000000000E+00  0.00000000000E+00  0.40406583061E+01  0.40406591426E+01  0.26000000000E-02 0. -1.
          2   -1    0    0  501    0  0.00000000000E+00 -0.00000000000E+00 -0.24754599362E+02  0.24754599499E+02  0.26000000000E-02 0.  1.
       1023    2    1    2    0    0  0.00000000000E+00  0.00000000000E+00 -0.20713941056E+02  0.28795258641E+02  0.20002488999E+02 0.  0.
        -13    1    3    3    0    0  0.27262048011E+01  0.96212563668E+01 -0.10520807262E+02  0.14515485684E+02  0.10570000000E+00 0.  1.
         13    1    3    3    0    0 -0.27262048011E+01 -0.96212563668E+01 -0.10193133794E+02  0.14279772957E+02  0.10570000000E+00 0. -1.
<mgrwt>
<rscale>  0 0.20002489E+02</rscale>
<asrwt>0</asrwt>
<pdfrwt beam="2">  1        2 0.38083999E-02 0.20002489E+02</pdfrwt>
<pdfrwt beam="1">  1       -2 0.62163983E-03 0.20002489E+02</pdfrwt>
<totfact> 0.42503312E+06</totfact>
</mgrwt>
</event>
<event>
 5    1  0.1607476E-006  0.2000210E+02  0.7818608E-02  0.1745286E+00
         -2   -1    0    0    0  501 -0.00000000000E+00  0.00000000000E+00  0.77483066694E+02  0.77483066738E+02  0.26000000000E-02 0. -1.
          2   -1    0    0  501    0  0.00000000000E+00 -0.00000000000E+00 -0.12908739261E+01  0.12908765445E+01  0.26000000000E-02 0.  1.
       1023    2    1    2    0    0  0.00000000000E+00  0.00000000000E+00  0.76192192768E+02  0.78773943282E+02  0.20002097426E+02 0.  0.
        -13    1    3    3    0    0  0.61374695340E+01  0.78956011746E+01  0.37988049501E+02  0.39282465905E+02  0.10570000000E+00 0. -1.
         13    1    3    3    0    0 -0.61374695340E+01 -0.78956011746E+01  0.38204143267E+02  0.39491477377E+02  0.10570000000E+00 0.  1.
<mgrwt>
<rscale>  0 0.20002097E+02</rscale>
<asrwt>0</asrwt>
<pdfrwt beam="2">  1        2 0.19859610E-03 0.20002097E+02</pdfrwt>
<pdfrwt beam="1">  1       -2 0.11920477E-01 0.20002097E+02</pdfrwt>
<totfact> 0.31453972E+06</totfact>
</mgrwt>
</event>
<event>
 5    1  0.1691240E-006  0.2000157E+02  0.7818608E-02  0.1745297E+00
          2   -1    0    0  501    0  0.00000000000E+00  0.00000000000E+00  0.42392851571E+02  0.42392851651E+02  0.26000000000E-02 0. -1.
         -2   -1    0    0    0  501 -0.00000000000E+00 -0.00000000000E+00 -0.23592579484E+01  0.23592593810E+01  0.26000000000E-02 0.  1.
       1023    2    1    2    0    0  0.00000000000E+00  0.00000000000E+00  0.40033593623E+02  0.44752111032E+02  0.20001570525E+02 0.  0.
        -13    1    3    3    0    0 -0.83766875817E+01 -0.54621917319E+01  0.19994420528E+02  0.22356038515E+02  0.10570000000E+00 0. -1.
         13    1    3    3    0    0  0.83766875817E+01  0.54621917319E+01  0.20039173095E+02  0.22396072517E+02  0.10570000000E+00 0.  1.
<mgrwt>
<rscale>  0 0.20001571E+02</rscale>
<asrwt>0</asrwt>
<pdfrwt beam="1">  1        2 0.65219766E-02 0.20001571E+02</pdfrwt>
<pdfrwt beam="2">  1       -2 0.36296292E-03 0.20001571E+02</pdfrwt>
<totfact> 0.45237840E+06</totfact>
</mgrwt>
</event>
<event>
 5    1  0.1607476E-006  0.2000206E+02  0.7818608E-02  0.1745287E+00
         -2   -1    0    0    0  501 -0.00000000000E+00  0.00000000000E+00  0.18590935543E+01  0.18590953724E+01  0.26000000000E-02 0.  1.
          2   -1    0    0  501    0  0.00000000000E+00 -0.00000000000E+00 -0.53800715648E+02  0.53800715710E+02  0.26000000000E-02 0. -1.
       1023    2    1    2    0    0  0.00000000000E+00  0.00000000000E+00 -0.51941622093E+02  0.55659811083E+02  0.20002061496E+02 0.  0.
        -13    1    3    3    0    0 -0.17390578504E+01  0.98479902909E+01 -0.25840037173E+02  0.27707867629E+02  0.10570000000E+00 0.  1.
         13    1    3    3    0    0  0.17390578504E+01 -0.98479902909E+01 -0.26101584921E+02  0.27951943454E+02  0.10570000000E+00 0. -1.
<mgrwt>
<rscale>  0 0.20002061E+02</rscale>
<asrwt>0</asrwt>
<pdfrwt beam="2">  1        2 0.82770321E-02 0.20002061E+02</pdfrwt>
<pdfrwt beam="1">  1       -2 0.28601458E-03 0.20002061E+02</pdfrwt>
<totfact> 0.46844192E+06</totfact>
</mgrwt>
</event>
<event>
 5    1  0.1607476E-006  0.2000144E+02  0.7818608E-02  0.1745300E+00
          2   -1    0    0  501    0  0.00000000000E+00  0.00000000000E+00  0.33621269740E+02  0.33621269841E+02  0.26000000000E-02 0. -1.
         -2   -1    0    0    0  501 -0.00000000000E+00 -0.00000000000E+00 -0.29747342087E+01  0.29747353449E+01  0.26000000000E-02 0.  1.
       1023    2    1    2    0    0  0.00000000000E+00  0.00000000000E+00  0.30646535531E+02  0.36596005186E+02  0.20001436335E+02 0.  0.
        -13    1    3    3    0    0 -0.73647704066E+01  0.67648123773E+01  0.15276200983E+02  0.18258587530E+02  0.10570000000E+00 0.  1.
         13    1    3    3    0    0  0.73647704066E+01 -0.67648123773E+01  0.15370334548E+02  0.18337417655E+02  0.10570000000E+00 0. -1.
<mgrwt>
<rscale>  0 0.20001436E+02</rscale>
<asrwt>0</asrwt>
<pdfrwt beam="1">  1        2 0.51725034E-02 0.20001436E+02</pdfrwt>
<pdfrwt beam="2">  1       -2 0.45765149E-03 0.20001436E+02</pdfrwt>
<totfact> 0.43931289E+06</totfact>
</mgrwt>
</event>
<event>
 4    1  0.1607476E-006  0.2001398E+02  0.7818608E-02  0.1745050E+00
         -2   -1    0    0    0  501 -0.00000000000E+00  0.00000000000E+00  0.96923485033E+02  0.96923485068E+02  0.26000000000E-02 0. -1.
          2   -1    0    0  501    0  0.00000000000E+00 -0.00000000000E+00 -0.10331833504E+01  0.10331866218E+01  0.26000000000E-02 0.  1.
        -13    1    1    2    0    0  0.94037452846E+01  0.34046476372E+01  0.49543680373E+02  0.50543144820E+02  0.10570000000E+00 0.  1.
         13    1    1    2    0    0 -0.94037452846E+01 -0.34046476372E+01  0.46346621310E+02  0.47413526870E+02  0.10570000000E+00 0. -1.
<mgrwt>
<rscale>  0 0.20013984E+02</rscale>
<asrwt>0</asrwt>
<pdfrwt beam="2">  1        2 0.15895145E-03 0.20013984E+02</pdfrwt>
<pdfrwt beam="1">  1       -2 0.14911314E-01 0.20013984E+02</pdfrwt>
<totfact> 0.29910289E+06</totfact>
</mgrwt>
</event>
<event>
 5    1  0.1607476E-006  0.2001154E+02  0.7818608E-02  0.1745099E+00
         -2   -1    0    0    0  501 -0.00000000000E+00  0.00000000000E+00  0.18163760310E+02  0.18163760496E+02  0.26000000000E-02 0. -1.
          2   -1    0    0  501    0  0.00000000000E+00 -0.00000000000E+00 -0.55118212069E+01  0.55118218201E+01  0.26000000000E-02 0.  1.
       1023    2    1    2    0    0  0.00000000000E+00  0.00000000000E+00  0.12651939103E+02  0.23675582316E+02  0.20011537546E+02 0.  0.
        -13    1    3    3    0    0 -0.98219028923E+01 -0.19009033313E+01  0.64975240411E+01  0.11929467761E+02  0.10570000000E+00 0.  1.
         13    1    3    3    0    0  0.98219028923E+01  0.19009033313E+01  0.61544150618E+01  0.11746114555E+02  0.10570000000E+00 0. -1.
<mgrwt>
<rscale>  0 0.20011538E+02</rscale>
<asrwt>0</asrwt>
<pdfrwt beam="2">  1        2 0.84797256E-03 0.20011538E+02</pdfrwt>
<pdfrwt beam="1">  1       -2 0.27944247E-02 0.20011538E+02</pdfrwt>
<totfact> 0.37682966E+06</totfact>
</mgrwt>
</event>
<event>
 4    1  0.1607476E-006  0.2001335E+02  0.7818608E-02  0.1745063E+00
         -2   -1    0    0    0  501 -0.00000000000E+00  0.00000000000E+00  0.74153921696E+01  0.74153926254E+01  0.26000000000E-02 0. -1.
          2   -1    0    0  501    0  0.00000000000E+00 -0.00000000000E+00 -0.13503470197E+02  0.13503470447E+02  0.26000000000E-02 0.  1.
        -13    1    1    2    0    0 -0.96642673151E+00 -0.99581933329E+01 -0.32017532652E+01  0.10505331577E+02  0.10570000000E+00 0.  1.
         13    1    1    2    0    0  0.96642673151E+00  0.99581933329E+01 -0.28863247618E+01  0.10413531495E+02  0.10570000000E+00 0. -1.
<mgrwt>
<rscale>  0 0.20013349E+02</rscale>
<asrwt>0</asrwt>
<pdfrwt beam="2">  1        2 0.20774570E-02 0.20013349E+02</pdfrwt>
<pdfrwt beam="1">  1       -2 0.11408296E-02 0.20013349E+02</pdfrwt>
<totfact> 0.40296951E+06</totfact>
</mgrwt>
</event>
<event>
 4    1  0.1607476E-006  0.2010625E+02  0.7818608E-02  0.1743223E+00
         -2   -1    0    0    0  501 -0.00000000000E+00  0.00000000000E+00  0.17988373121E+01  0.17988391911E+01  0.26000000000E-02 0. -1.
          2   -1    0    0  501    0  0.00000000000E+00 -0.00000000000E+00 -0.56183648656E+02  0.56183648716E+02  0.26000000000E-02 0.  1.
        -13    1    1    2    0    0 -0.13611768264E+01 -0.99214597801E+01 -0.29716287821E+02  0.31358525171E+02  0.10570000000E+00 0.  1.
         13    1    1    2    0    0  0.13611768264E+01  0.99214597801E+01 -0.24668523522E+02  0.26623962736E+02  0.10570000000E+00 0. -1.
<mgrwt>
<rscale>  0 0.20106248E+02</rscale>
<asrwt>0</asrwt>
<pdfrwt beam="2">  1        2 0.86436370E-02 0.20106248E+02</pdfrwt>
<pdfrwt beam="1">  1       -2 0.27674439E-03 0.20106248E+02</pdfrwt>
<totfact> 0.46628197E+06</totfact>
</mgrwt>
</event>
<event>
 5    1  0.1607476E-006  0.2000748E+02  0.7818608E-02  0.1745179E+00
         -2   -1    0    0    0  501 -0.00000000000E+00  0.00000000000E+00  0.10700570071E+02  0.10700570387E+02  0.26000000000E-02 0. -1.
          2   -1    0    0  501    0  0.00000000000E+00 -0.00000000000E+00 -0.93522903195E+01  0.93522906809E+01  0.26000000000E-02 0.  1.
       1023    2    1    2    0    0  0.00000000000E+00  0.00000000000E+00  0.13482797512E+01  0.20052861067E+02  0.20007483068E+02 0.  0.
        -13    1    3    3    0    0 -0.76317128045E+01 -0.64665507902E+01  0.74026475435E+00  0.10030876524E+02  0.10570000000E+00 0. -1.
         13    1    3    3    0    0  0.76317128045E+01  0.64665507902E+01  0.60801499684E+00  0.10021984543E+02  0.10570000000E+00 0.  1.
<mgrwt>
<rscale>  0 0.20007483E+02</rscale>
<asrwt>0</asrwt>
<pdfrwt beam="2">  1        2 0.14388140E-02 0.20007483E+02</pdfrwt>
<pdfrwt beam="1">  1       -2 0.16462416E-02 0.20007483E+02</pdfrwt>
<totfact> 0.39236652E+06</totfact>
</mgrwt>
</event>
<event>
 5    1  0.1607476E-006  0.2000181E+02  0.7818608E-02  0.1745292E+00
         -2   -1    0    0    0  501 -0.00000000000E+00  0.00000000000E+00  0.65706144887E+02  0.65706144938E+02  0.26000000000E-02 0.  1.
          2   -1    0    0  501    0  0.00000000000E+00 -0.00000000000E+00 -0.15222025168E+01  0.15222047372E+01  0.26000000000E-02 0. -1.
       1023    2    1    2    0    0  0.00000000000E+00  0.00000000000E+00  0.64183942370E+02  0.67228349676E+02  0.20001813466E+02 0.  0.
        -13    1    3    3    0    0  0.14655173906E+01  0.98922456646E+01  0.32266538276E+02  0.33780836732E+02  0.10570000000E+00 0.  1.
         13    1    3    3    0    0 -0.14655173906E+01 -0.98922456646E+01  0.31917404094E+02  0.33447512944E+02  0.10570000000E+00 0. -1.
<mgrwt>
<rscale>  0 0.20001813E+02</rscale>
<asrwt>0</asrwt>
<pdfrwt beam="2">  1        2 0.23418515E-03 0.20001813E+02</pdfrwt>
<pdfrwt beam="1">  1       -2 0.10108639E-01 0.20001813E+02</pdfrwt>
<totfact> 0.32446342E+06</totfact>
</mgrwt>
</event>
<event>
 4    1  0.1607476E-006  0.2021587E+02  0.7818608E-02  0.1741069E+00
         -2   -1    0    0    0  501 -0.00000000000E+00  0.00000000000E+00  0.15369348614E+01  0.15369370605E+01  0.26000000000E-02 0. -1.
          2   -1    0    0  501    0  0.00000000000E+00 -0.00000000000E+00 -0.66476641049E+02  0.66476641100E+02  0.26000000000E-02 0.  1.
        -13    1    1    2    0    0  0.60503279740E+01  0.80777949312E+01 -0.30621191290E+02  0.32241677500E+02  0.10570000000E+00 0. -1.
         13    1    1    2    0    0 -0.60503279740E+01 -0.80777949312E+01 -0.34318514898E+02  0.35771900660E+02  0.10570000000E+00 0.  1.
<mgrwt>
<rscale>  0 0.20215869E+02</rscale>
<asrwt>0</asrwt>
<pdfrwt beam="2">  1        2 0.10227174E-01 0.20215869E+02</pdfrwt>
<pdfrwt beam="1">  1       -2 0.23645174E-03 0.20215869E+02</pdfrwt>
<totfact> 0.47414909E+06</totfact>
</mgrwt>
</event>
<event>
 5    1  0.1607476E-006  0.2000258E+02  0.7818608E-02  0.1745277E+00
          2   -1    0    0  501    0  0.00000000000E+00  0.00000000000E+00  0.30312901256E+02  0.30312901367E+02  0.26000000000E-02 0.  1.
         -2   -1    0    0    0  501 -0.00000000000E+00 -0.00000000000E+00 -0.32997761173E+01  0.32997771416E+01  0.26000000000E-02 0. -1.
       1023    2    1    2    0    0  0.00000000000E+00  0.00000000000E+00  0.27013125139E+02  0.33612678509E+02  0.20002580503E+02 0.  0.
        -13    1    3    3    0    0  0.99092749953E+01  0.13476541533E+01  0.13622152300E+02  0.16899233959E+02  0.10570000000E+00 0.  1.
         13    1    3    3    0    0 -0.99092749953E+01 -0.13476541533E+01  0.13390972839E+02  0.16713444549E+02  0.10570000000E+00 0. -1.
<mgrwt>
<rscale>  0 0.20002581E+02</rscale>
<asrwt>0</asrwt>
<pdfrwt beam="1">  1        2 0.46635235E-02 0.20002581E+02</pdfrwt>
<pdfrwt beam="2">  1       -2 0.50765794E-03 0.20002581E+02</pdfrwt>
<totfact> 0.43410252E+06</totfact>
</mgrwt>
</event>
<event>
 4    1  0.1607476E-006  0.2002841E+02  0.7818608E-02  0.1744764E+00
          2   -1    0    0  501    0  0.00000000000E+00  0.00000000000E+00  0.12004287616E+01  0.12004315773E+01  0.26000000000E-02 0. -1.
         -2   -1    0    0    0  501 -0.00000000000E+00 -0.00000000000E+00 -0.83540312466E+02  0.83540312507E+02  0.26000000000E-02 0.  1.
        -13    1    1    2    0    0 -0.27407395773E+01  0.96247104940E+01 -0.39665475127E+02  0.40908529613E+02  0.10570000000E+00 0.  1.
         13    1    1    2    0    0  0.27407395773E+01 -0.96247104940E+01 -0.42674408577E+02  0.43832214471E+02  0.10570000000E+00 0. -1.
<mgrwt>
<rscale>  0 0.20028411E+02</rscale>
<asrwt>0</asrwt>
<pdfrwt beam="1">  1        2 0.18468163E-03 0.20028411E+02</pdfrwt>
<pdfrwt beam="2">  1       -2 0.12852351E-01 0.20028411E+02</pdfrwt>
<totfact> 0.30880654E+06</totfact>
</mgrwt>
</event>
<event>
 5    1  0.1607476E-006  0.2000290E+02  0.7818608E-02  0.1745270E+00
         -2   -1    0    0    0  501 -0.00000000000E+00  0.00000000000E+00  0.19071845952E+01  0.19071863674E+01  0.26000000000E-02 0. -1.
          2   -1    0    0  501    0  0.00000000000E+00 -0.00000000000E+00 -0.52448468595E+02  0.52448468659E+02  0.26000000000E-02 0.  1.
       1023    2    1    2    0    0  0.00000000000E+00  0.00000000000E+00 -0.50541284000E+02  0.54355655027E+02  0.20002895917E+02 0.  0.
        -13    1    3    3    0    0  0.89823315155E+01 -0.43972068913E+01 -0.25246204645E+02  0.27155105033E+02  0.10570000000E+00 0.  1.
         13    1    3    3    0    0 -0.89823315155E+01  0.43972068913E+01 -0.25295079355E+02  0.27200549994E+02  0.10570000000E+00 0. -1.
<mgrwt>
<rscale>  0 0.20002896E+02</rscale>
<asrwt>0</asrwt>
<pdfrwt beam="2">  1        2 0.80689942E-02 0.20002896E+02</pdfrwt>
<pdfrwt beam="1">  1       -2 0.29341320E-03 0.20002896E+02</pdfrwt>
<totfact> 0.46653421E+06</totfact>
</mgrwt>
</event>
<event>
 5    1  0.1607476E-006  0.2001035E+02  0.7818608E-02  0.1745122E+00
         -2   -1    0    0    0  501 -0.00000000000E+00  0.00000000000E+00  0.15830250018E+02  0.15830250231E+02  0.26000000000E-02 0.  1.
          2   -1    0    0  501    0  0.00000000000E+00 -0.00000000000E+00 -0.63235568582E+01  0.63235573927E+01  0.26000000000E-02 0. -1.
       1023    2    1    2    0    0  0.00000000000E+00  0.00000000000E+00  0.95066931598E+01  0.22153807624E+02  0.20010346759E+02 0.  0.
        -13    1    3    3    0    0 -0.85695205160E+01 -0.51600318766E+01  0.45625139862E+01  0.10995013288E+02  0.10570000000E+00 0. -1.
         13    1    3    3    0    0  0.85695205160E+01  0.51600318766E+01  0.49441791736E+01  0.11158794336E+02  0.10570000000E+00 0.  1.
<mgrwt>
<rscale>  0 0.20010347E+02</rscale>
<asrwt>0</asrwt>
<pdfrwt beam="2">  1        2 0.97285495E-03 0.20010347E+02</pdfrwt>
<pdfrwt beam="1">  1       -2 0.24354232E-02 0.20010347E+02</pdfrwt>
<totfact> 0.38097510E+06</totfact>
</mgrwt>
</event>
<event>
 5    1  0.1607476E-006  0.2000543E+02  0.7818608E-02  0.1745220E+00
         -2   -1    0    0    0  501 -0.00000000000E+00  0.00000000000E+00  0.20179490406E+01  0.20179507156E+01  0.26000000000E-02 0.  1.
          2   -1    0    0  501    0  0.00000000000E+00 -0.00000000000E+00 -0.49582148909E+02  0.49582148977E+02  0.26000000000E-02 0. -1.
       1023    2    1    2    0    0  0.00000000000E+00  0.00000000000E+00 -0.47564199869E+02  0.51600099693E+02  0.20005428743E+02 0.  0.
        -13    1    3    3    0    0 -0.88876134314E+01 -0.45878719243E+01 -0.23962301051E+02  0.25966156540E+02  0.10570000000E+00 0.  1.
         13    1    3    3    0    0  0.88876134314E+01  0.45878719243E+01 -0.23601898818E+02  0.25633943153E+02  0.10570000000E+00 0. -1.
<mgrwt>
<rscale>  0 0.20005429E+02</rscale>
<asrwt>0</asrwt>
<pdfrwt beam="2">  1        2 0.76280221E-02 0.20005429E+02</pdfrwt>
<pdfrwt beam="1">  1       -2 0.31045387E-03 0.20005429E+02</pdfrwt>
<totfact> 0.46241703E+06</totfact>
</mgrwt>
</event>
<event>
 5    1  0.1607476E-006  0.2000132E+02  0.7818608E-02  0.1745302E+00
          2   -1    0    0  501    0  0.00000000000E+00  0.00000000000E+00  0.22996488315E+01  0.22996503013E+01  0.26000000000E-02 0. -1.
         -2   -1    0    0    0  501 -0.00000000000E+00 -0.00000000000E+00 -0.43490642216E+02  0.43490642294E+02  0.26000000000E-02 0.  1.
       1023    2    1    2    0    0  0.00000000000E+00  0.00000000000E+00 -0.41190993385E+02  0.45790292595E+02  0.20001323955E+02 0.  0.
        -13    1    3    3    0    0  0.50123565226E+01  0.86532257104E+01 -0.20608922249E+02  0.22907223355E+02  0.10570000000E+00 0. -1.
         13    1    3    3    0    0 -0.50123565226E+01 -0.86532257104E+01 -0.20582071136E+02  0.22883069240E+02  0.10570000000E+00 0.  1.
<mgrwt>
<rscale>  0 0.20001324E+02</rscale>
<asrwt>0</asrwt>
<pdfrwt beam="1">  1        2 0.35379228E-03 0.20001324E+02</pdfrwt>
<pdfrwt beam="2">  1       -2 0.66908675E-02 0.20001324E+02</pdfrwt>
<totfact> 0.34547480E+06</totfact>
</mgrwt>
</event>
<event>
 5    1  0.1607476E-006  0.2000573E+02  0.7818608E-02  0.1745214E+00
          2   -1    0    0  501    0  0.00000000000E+00  0.00000000000E+00  0.29219631478E+02  0.29219631593E+02  0.26000000000E-02 0. -1.
         -2   -1    0    0    0  501 -0.00000000000E+00 -0.00000000000E+00 -0.34243182681E+01  0.34243192552E+01  0.26000000000E-02 0.  1.
       1023    2    1    2    0    0  0.00000000000E+00  0.00000000000E+00  0.25795313209E+02  0.32643950849E+02  0.20005732764E+02 0.  0.
        -13    1    3    3    0    0 -0.98686808753E+01  0.16294187252E+01  0.12869594402E+02  0.16299800617E+02  0.10570000000E+00 0.  1.
         13    1    3    3    0    0  0.98686808753E+01 -0.16294187252E+01  0.12925718808E+02  0.16344150231E+02  0.10570000000E+00 0. -1.
<mgrwt>
<rscale>  0 0.20005733E+02</rscale>
<asrwt>0</asrwt>
<pdfrwt beam="1">  1        2 0.44953279E-02 0.20005733E+02</pdfrwt>
<pdfrwt beam="2">  1       -2 0.52681829E-03 0.20005733E+02</pdfrwt>
<totfact> 0.43221121E+06</totfact>
</mgrwt>
</event>
<event>
 5    1  0.1607476E-006  0.2000439E+02  0.7818608E-02  0.1745241E+00
          2   -1    0    0  501    0  0.00000000000E+00  0.00000000000E+00  0.69209562252E+02  0.69209562301E+02  0.26000000000E-02 0. -1.
         -2   -1    0    0    0  501 -0.00000000000E+00 -0.00000000000E+00 -0.14455203897E+01  0.14455227280E+01  0.26000000000E-02 0.  1.
       1023    2    1    2    0    0  0.00000000000E+00  0.00000000000E+00  0.67764041863E+02  0.70655085029E+02  0.20004391291E+02 0.  0.
        -13    1    3    3    0    0  0.97879214231E+01  0.20549640065E+01  0.33598088751E+02  0.35055228184E+02  0.10570000000E+00 0.  1.
         13    1    3    3    0    0 -0.97879214231E+01 -0.20549640065E+01  0.34165953112E+02  0.35599856845E+02  0.10570000000E+00 0. -1.
<mgrwt>
<rscale>  0 0.20004391E+02</rscale>
<asrwt>0</asrwt>
<pdfrwt beam="1">  1        2 0.10647624E-01 0.20004391E+02</pdfrwt>
<pdfrwt beam="2">  1       -2 0.22238795E-03 0.20004391E+02</pdfrwt>
<totfact> 0.48893097E+06</totfact>
</mgrwt>
</event>
<event>
 4    1  0.1607476E-006  0.2001591E+02  0.7818608E-02  0.1745012E+00
          2   -1    0    0  501    0  0.00000000000E+00  0.00000000000E+00  0.17753511578E+02  0.17753511769E+02  0.26000000000E-02 0.  1.
         -2   -1    0    0    0  501 -0.00000000000E+00 -0.00000000000E+00 -0.56416506169E+01  0.56416512161E+01  0.26000000000E-02 0. -1.
        -13    1    1    2    0    0 -0.99088441504E+01 -0.13977793891E+01  0.61666098218E+01  0.11754881063E+02  0.10570000000E+00 0. -1.
         13    1    1    2    0    0  0.99088441504E+01  0.13977793891E+01  0.59452511393E+01  0.11640281922E+02  0.10570000000E+00 0.  1.
<mgrwt>
<rscale>  0 0.20015906E+02</rscale>
<asrwt>0</asrwt>
<pdfrwt beam="1">  1        2 0.27313095E-02 0.20015906E+02</pdfrwt>
<pdfrwt beam="2">  1       -2 0.86794633E-03 0.20015906E+02</pdfrwt>
<totfact> 0.41178087E+06</totfact>
</mgrwt>
</event>
<event>
 5    1  0.1607476E-006  0.2000784E+02  0.7818608E-02  0.1745172E+00
         -2   -1    0    0    0  501 -0.00000000000E+00  0.00000000000E+00  0.58953674836E+01  0.58953680569E+01  0.26000000000E-02 0.  1.
          2   -1    0    0  501    0  0.00000000000E+00 -0.00000000000E+00 -0.16975764221E+02  0.16975764420E+02  0.26000000000E-02 0. -1.
       1023    2    1    2    0    0  0.00000000000E+00  0.00000000000E+00 -0.11080396737E+02  0.22871132477E+02  0.20007836188E+02 0.  0.
        -13    1    3    3    0    0  0.49108466154E+01 -0.87140193952E+01 -0.56877269101E+01  0.11507039515E+02  0.10570000000E+00 0. -1.
         13    1    3    3    0    0 -0.49108466154E+01  0.87140193952E+01 -0.53926698272E+01  0.11364092962E+02  0.10570000000E+00 0.  1.
<mgrwt>
<rscale>  0 0.20007836E+02</rscale>
<asrwt>0</asrwt>
<pdfrwt beam="2">  1        2 0.26116561E-02 0.20007836E+02</pdfrwt>
<pdfrwt beam="1">  1       -2 0.90697968E-03 0.20007836E+02</pdfrwt>
<totfact> 0.41061972E+06</totfact>
</mgrwt>
</event>
<event>
 5    1  0.1607476E-006  0.2000157E+02  0.7818608E-02  0.1745297E+00
         -2   -1    0    0    0  501 -0.00000000000E+00  0.00000000000E+00  0.14624800780E+02  0.14624801011E+02  0.26000000000E-02 0.  1.
          2   -1    0    0  501    0  0.00000000000E+00 -0.00000000000E+00 -0.68387754203E+01  0.68387759146E+01  0.26000000000E-02 0. -1.
       1023    2    1    2    0    0  0.00000000000E+00  0.00000000000E+00  0.77860253595E+01  0.21463576926E+02  0.20001573527E+02 0.  0.
        -13    1    3    3    0    0  0.52077886553E+01 -0.85371237074E+01  0.38587488323E+01  0.10719359072E+02  0.10570000000E+00 0. -1.
         13    1    3    3    0    0 -0.52077886553E+01  0.85371237074E+01  0.39272765272E+01  0.10744217854E+02  0.10570000000E+00 0.  1.
<mgrwt>
<rscale>  0 0.20001574E+02</rscale>
<asrwt>0</asrwt>
<pdfrwt beam="2">  1        2 0.10521194E-02 0.20001574E+02</pdfrwt>
<pdfrwt beam="1">  1       -2 0.22499694E-02 0.20001574E+02</pdfrwt>
<totfact> 0.38364736E+06</totfact>
</mgrwt>
</event>
<event>
 5    1  0.1607476E-006  0.2000585E+02  0.7818608E-02  0.1745212E+00
         -2   -1    0    0    0  501 -0.00000000000E+00  0.00000000000E+00  0.25818511107E+01  0.25818524199E+01  0.26000000000E-02 0.  1.
          2   -1    0    0  501    0  0.00000000000E+00 -0.00000000000E+00 -0.38754548954E+02  0.38754549041E+02  0.26000000000E-02 0. -1.
       1023    2    1    2    0    0  0.00000000000E+00  0.00000000000E+00 -0.36172697843E+02  0.41336401461E+02  0.20005849557E+02 0.  0.
        -13    1    3    3    0    0 -0.87835674101E+01 -0.47830103330E+01 -0.18371810959E+02  0.20918003124E+02  0.10570000000E+00 0.  1.
         13    1    3    3    0    0  0.87835674101E+01  0.47830103330E+01 -0.17800886884E+02  0.20418398337E+02  0.10570000000E+00 0. -1.
<mgrwt>
<rscale>  0 0.20005850E+02</rscale>
<asrwt>0</asrwt>
<pdfrwt beam="2">  1        2 0.59622380E-02 0.20005850E+02</pdfrwt>
<pdfrwt beam="1">  1       -2 0.39720800E-03 0.20005850E+02</pdfrwt>
<totfact> 0.44683267E+06</totfact>
</mgrwt>
</event>
<event>
 5    1  0.1607476E-006  0.2000347E+02  0.7818608E-02  0.1745259E+00
         -2   -1    0    0    0  501 -0.00000000000E+00  0.00000000000E+00  0.13045898966E+02  0.13045899225E+02  0.26000000000E-02 0.  1.
          2   -1    0    0  501    0  0.00000000000E+00 -0.00000000000E+00 -0.76679074258E+01  0.76679078666E+01  0.26000000000E-02 0. -1.
       1023    2    1    2    0    0  0.00000000000E+00  0.00000000000E+00  0.53779915406E+01  0.20713807092E+02  0.20003474979E+02 0.  0.
        -13    1    3    3    0    0 -0.78655607037E+01  0.61770949208E+01  0.26830046113E+01  0.10355348042E+02  0.10570000000E+00 0.  1.
         13    1    3    3    0    0  0.78655607037E+01 -0.61770949208E+01  0.26949869293E+01  0.10358459050E+02  0.10570000000E+00 0. -1.
<mgrwt>
<rscale>  0 0.20003475E+02</rscale>
<asrwt>0</asrwt>
<pdfrwt beam="2">  1        2 0.11796781E-02 0.20003475E+02</pdfrwt>
<pdfrwt beam="1">  1       -2 0.20070614E-02 0.20003475E+02</pdfrwt>
<totfact> 0.38686169E+06</totfact>
</mgrwt>
</event>
<event>
 4    1  0.1607476E-006  0.2002221E+02  0.7818608E-02  0.1744887E+00
         -2   -1    0    0    0  501 -0.00000000000E+00  0.00000000000E+00  0.27894992130E+02  0.27894992251E+02  0.26000000000E-02 0.  1.
          2   -1    0    0  501    0  0.00000000000E+00 -0.00000000000E+00 -0.35928390510E+01  0.35928399918E+01  0.26000000000E-02 0. -1.
        -13    1    1    2    0    0  0.97772331161E+01  0.21398649949E+01  0.12456638204E+02  0.15979747102E+02  0.10570000000E+00 0. -1.
         13    1    1    2    0    0 -0.97772331161E+01 -0.21398649949E+01  0.11845514875E+02  0.15508085142E+02  0.10570000000E+00 0.  1.
<mgrwt>
<rscale>  0 0.20022211E+02</rscale>
<asrwt>0</asrwt>
<pdfrwt beam="2">  1        2 0.55274453E-03 0.20022211E+02</pdfrwt>
<pdfrwt beam="1">  1       -2 0.42915375E-02 0.20022211E+02</pdfrwt>
<totfact> 0.36240474E+06</totfact>
</mgrwt>
</event>
<event>
 5    1  0.1607476E-006  0.2000241E+02  0.7818608E-02  0.1745280E+00
         -2   -1    0    0    0  501 -0.00000000000E+00  0.00000000000E+00  0.57868732105E+01  0.57868737946E+01  0.26000000000E-02 0.  1.
          2   -1    0    0  501    0  0.00000000000E+00 -0.00000000000E+00 -0.17284659261E+02  0.17284659457E+02  0.26000000000E-02 0. -1.
       1023    2    1    2    0    0  0.00000000000E+00  0.00000000000E+00 -0.11497786051E+02  0.23071533251E+02  0.20002413917E+02 0.  0.
        -13    1    3    3    0    0  0.63251437200E+00 -0.99805734919E+01 -0.57115801557E+01  0.11517171616E+02  0.10570000000E+00 0. -1.
         13    1    3    3    0    0 -0.63251437200E+00  0.99805734919E+01 -0.57862058951E+01  0.11554361636E+02  0.10570000000E+00 0.  1.
<mgrwt>
<rscale>  0 0.20002414E+02</rscale>
<asrwt>0</asrwt>
<pdfrwt beam="2">  1        2 0.26591784E-02 0.20002414E+02</pdfrwt>
<pdfrwt beam="1">  1       -2 0.89028825E-03 0.20002414E+02</pdfrwt>
<totfact> 0.41148606E+06</totfact>
</mgrwt>
</event>
<event>
 5    1  0.1607476E-006  0.2000150E+02  0.7818608E-02  0.1745298E+00
         -2   -1    0    0    0  501 -0.00000000000E+00  0.00000000000E+00  0.30674861323E+01  0.30674872341E+01  0.26000000000E-02 0. -1.
          2   -1    0    0  501    0  0.00000000000E+00 -0.00000000000E+00 -0.32604871618E+02  0.32604871722E+02  0.26000000000E-02 0.  1.
       1023    2    1    2    0    0  0.00000000000E+00  0.00000000000E+00 -0.29537385486E+02  0.35672358956E+02  0.20001501247E+02 0.  0.
        -13    1    3    3    0    0  0.80596648091E+01  0.59198109910E+01 -0.14700045010E+02  0.17779337861E+02  0.10570000000E+00 0.  1.
         13    1    3    3    0    0 -0.80596648091E+01 -0.59198109910E+01 -0.14837340477E+02  0.17893021095E+02  0.10570000000E+00 0. -1.
<mgrwt>
<rscale>  0 0.20001501E+02</rscale>
<asrwt>0</asrwt>
<pdfrwt beam="2">  1        2 0.50161339E-02 0.20001501E+02</pdfrwt>
<pdfrwt beam="1">  1       -2 0.47192106E-03 0.20001501E+02</pdfrwt>
<totfact> 0.43774188E+06</totfact>
</mgrwt>
</event>
<event>
 4    1  0.1607476E-006  0.2003860E+02  0.7818608E-02  0.1744562E+00
          2   -1    0    0  501    0  0.00000000000E+00  0.00000000000E+00  0.60635075318E+01  0.60635080893E+01  0.26000000000E-02 0.  1.
         -2   -1    0    0    0  501 -0.00000000000E+00 -0.00000000000E+00 -0.16555818879E+02  0.16555819084E+02  0.26000000000E-02 0. -1.
        -13    1    1    2    0    0  0.87624993336E+01 -0.48297351991E+01 -0.58298950693E+01  0.11580439788E+02  0.10570000000E+00 0.  1.
         13    1    1    2    0    0 -0.87624993336E+01  0.48297351991E+01 -0.46624162783E+01  0.11038887385E+02  0.10570000000E+00 0. -1.
<mgrwt>
<rscale>  0 0.20038597E+02</rscale>
<asrwt>0</asrwt>
<pdfrwt beam="1">  1        2 0.93284738E-03 0.20038597E+02</pdfrwt>
<pdfrwt beam="2">  1       -2 0.25470491E-02 0.20038597E+02</pdfrwt>
<totfact> 0.37849674E+06</totfact>
</mgrwt>
</event>
<event>
 5    1  0.1607476E-006  0.2000348E+02  0.7818608E-02  0.1745259E+00
          2   -1    0    0  501    0  0.00000000000E+00  0.00000000000E+00  0.25430386237E+02  0.25430386370E+02  0.26000000000E-02 0. -1.
         -2   -1    0    0    0  501 -0.00000000000E+00 -0.00000000000E+00 -0.39336725891E+01  0.39336734483E+01  0.26000000000E-02 0.  1.
       1023    2    1    2    0    0  0.00000000000E+00  0.00000000000E+00  0.21496713648E+02  0.29364059819E+02  0.20003482481E+02 0.  0.
        -13    1    3    3    0    0 -0.11695062898E+01  0.99324351860E+01  0.10672908568E+02  0.14626796077E+02  0.10570000000E+00 0. -1.
         13    1    3    3    0    0  0.11695062898E+01 -0.99324351860E+01  0.10823805080E+02  0.14737263741E+02  0.10570000000E+00 0.  1.
<mgrwt>
<rscale>  0 0.20003482E+02</rscale>
<asrwt>0</asrwt>
<pdfrwt beam="1">  1        2 0.39123671E-02 0.20003482E+02</pdfrwt>
<pdfrwt beam="2">  1       -2 0.60518049E-03 0.20003482E+02</pdfrwt>
<totfact> 0.42612336E+06</totfact>
</mgrwt>
</event>
<event>
 5    1  0.1607476E-006  0.2000303E+02  0.7818608E-02  0.1745268E+00
         -2   -1    0    0    0  501 -0.00000000000E+00  0.00000000000E+00  0.33052816420E+01  0.33052826646E+01  0.26000000000E-02 0. -1.
          2   -1    0    0  501    0  0.00000000000E+00 -0.00000000000E+00 -0.30263775944E+02  0.30263776055E+02  0.26000000000E-02 0.  1.
       1023    2    1    2    0    0  0.00000000000E+00  0.00000000000E+00 -0.26958494302E+02  0.33569058720E+02  0.20003031979E+02 0.  0.
        -13    1    3    3    0    0 -0.99744445128E+01  0.72773745118E+00 -0.13475704316E+02  0.16781684195E+02  0.10570000000E+00 0. -1.
         13    1    3    3    0    0  0.99744445128E+01 -0.72773745118E+00 -0.13482789986E+02  0.16787374525E+02  0.10570000000E+00 0.  1.
<mgrwt>
<rscale>  0 0.20003032E+02</rscale>
<asrwt>0</asrwt>
<pdfrwt beam="2">  1        2 0.46559654E-02 0.20003032E+02</pdfrwt>
<pdfrwt beam="1">  1       -2 0.50850498E-03 0.20003032E+02</pdfrwt>
<totfact> 0.43400285E+06</totfact>
</mgrwt>
</event>
<event>
 4    1  0.1607476E-006  0.2001274E+02  0.7818608E-02  0.1745075E+00
         -2   -1    0    0    0  501 -0.00000000000E+00  0.00000000000E+00  0.62150436708E+02  0.62150436762E+02  0.26000000000E-02 0. -1.
          2   -1    0    0  501    0  0.00000000000E+00 -0.00000000000E+00 -0.16110485549E+01  0.16110506530E+01  0.26000000000E-02 0.  1.
        -13    1    1    2    0    0 -0.69996199792E+01 -0.71499246882E+01  0.30310554694E+02  0.31919539490E+02  0.10570000000E+00 0.  1.
         13    1    1    2    0    0  0.69996199792E+01  0.71499246882E+01  0.30228833459E+02  0.31841947925E+02  0.10570000000E+00 0. -1.
<mgrwt>
<rscale>  0 0.20012740E+02</rscale>
<asrwt>0</asrwt>
<pdfrwt beam="2">  1        2 0.24785380E-03 0.20012740E+02</pdfrwt>
<pdfrwt beam="1">  1       -2 0.95616054E-02 0.20012740E+02</pdfrwt>
<totfact> 0.32721000E+06</totfact>
</mgrwt>
</event>
<event>
 4    1  0.1607476E-006  0.2060461E+02  0.7818608E-02  0.1733565E+00
         -2   -1    0    0    0  501 -0.00000000000E+00  0.00000000000E+00  0.69752769956E+01  0.69752774801E+01  0.26000000000E-02 0.  1.
          2   -1    0    0  501    0  0.00000000000E+00 -0.00000000000E+00 -0.15216236978E+02  0.15216237200E+02  0.26000000000E-02 0. -1.
        -13    1    1    2    0    0 -0.10242597530E+02 -0.10309928856E+01 -0.36998188608E+01  0.10939542157E+02  0.10570000000E+00 0.  1.
         13    1    1    2    0    0  0.10242597530E+02  0.10309928856E+01 -0.45411411219E+01  0.11251972524E+02  0.10570000000E+00 0. -1.
<mgrwt>
<rscale>  0 0.20604609E+02</rscale>
<asrwt>0</asrwt>
<pdfrwt beam="2">  1        2 0.23409596E-02 0.20604609E+02</pdfrwt>
<pdfrwt beam="1">  1       -2 0.10731196E-02 0.20604609E+02</pdfrwt>
<totfact> 0.38069050E+06</totfact>
</mgrwt>
</event>
<event>
 4    1  0.1607476E-006  0.2006919E+02  0.7818608E-02  0.1743956E+00
          2   -1    0    0  501    0  0.00000000000E+00  0.00000000000E+00  0.50705320208E+02  0.50705320275E+02  0.26000000000E-02 0. -1.
         -2   -1    0    0    0  501 -0.00000000000E+00 -0.00000000000E+00 -0.19858472783E+01  0.19858489804E+01  0.26000000000E-02 0.  1.
        -13    1    1    2    0    0 -0.80351003566E+01  0.59802212715E+01  0.25926272526E+02  0.27794040076E+02  0.10570000000E+00 0.  1.
         13    1    1    2    0    0  0.80351003566E+01 -0.59802212715E+01  0.22793200404E+02  0.24897129179E+02  0.10570000000E+00 0. -1.
<mgrwt>
<rscale>  0 0.20069187E+02</rscale>
<asrwt>0</asrwt>
<pdfrwt beam="1">  1        2 0.78008176E-02 0.20069187E+02</pdfrwt>
<pdfrwt beam="2">  1       -2 0.30551514E-03 0.20069187E+02</pdfrwt>
<totfact> 0.46070764E+06</totfact>
</mgrwt>
</event>
<event>
 5    1  0.1607476E-006  0.2000185E+02  0.7818608E-02  0.1745291E+00
         -2   -1    0    0    0  501 -0.00000000000E+00  0.00000000000E+00  0.11369531693E+02  0.11369531990E+02  0.26000000000E-02 0.  1.
          2   -1    0    0  501    0  0.00000000000E+00 -0.00000000000E+00 -0.87970646886E+01  0.87970650728E+01  0.26000000000E-02 0. -1.
       1023    2    1    2    0    0  0.00000000000E+00  0.00000000000E+00  0.25724670044E+01  0.20166597063E+02  0.20001851180E+02 0.  0.
        -13    1    3    3    0    0  0.75341815633E+00  0.99718689909E+01  0.13256718414E+01  0.10088329317E+02  0.10570000000E+00 0. -1.
         13    1    3    3    0    0 -0.75341815633E+00 -0.99718689909E+01  0.12467951630E+01  0.10078267746E+02  0.10570000000E+00 0.  1.
<mgrwt>
<rscale>  0 0.20001851E+02</rscale>
<asrwt>0</asrwt>
<pdfrwt beam="2">  1        2 0.13533946E-02 0.20001851E+02</pdfrwt>
<pdfrwt beam="1">  1       -2 0.17491588E-02 0.20001851E+02</pdfrwt>
<totfact> 0.39086521E+06</totfact>
</mgrwt>
</event>
<event>
 5    1  0.1607476E-006  0.2000222E+02  0.7818608E-02  0.1745284E+00
          2   -1    0    0  501    0  0.00000000000E+00  0.00000000000E+00  0.42921392229E+02  0.42921392308E+02  0.26000000000E-02 0.  1.
         -2   -1    0    0    0  501 -0.00000000000E+00 -0.00000000000E+00 -0.23303574502E+01  0.23303589006E+01  0.26000000000E-02 0. -1.
       1023    2    1    2    0    0  0.00000000000E+00  0.00000000000E+00  0.40591034779E+02  0.45251751208E+02  0.20002221952E+02 0.  0.
        -13    1    3    3    0    0 -0.94209949283E+01 -0.33546358405E+01  0.20186520632E+02  0.22528104998E+02  0.10570000000E+00 0. -1.
         13    1    3    3    0    0  0.94209949283E+01  0.33546358405E+01  0.20404514146E+02  0.22723646211E+02  0.10570000000E+00 0.  1.
<mgrwt>
<rscale>  0 0.20002222E+02</rscale>
<asrwt>0</asrwt>
<pdfrwt beam="1">  1        2 0.66032908E-02 0.20002222E+02</pdfrwt>
<pdfrwt beam="2">  1       -2 0.35851667E-03 0.20002222E+02</pdfrwt>
<totfact> 0.45311090E+06</totfact>
</mgrwt>
</event>
<event>
 5    1  0.1607476E-006  0.2000463E+02  0.7818608E-02  0.1745236E+00
         -2   -1    0    0    0  501 -0.00000000000E+00  0.00000000000E+00  0.25555117445E+01  0.25555130671E+01  0.26000000000E-02 0. -1.
          2   -1    0    0  501    0  0.00000000000E+00 -0.00000000000E+00 -0.39149223697E+02  0.39149223784E+02  0.26000000000E-02 0.  1.
       1023    2    1    2    0    0  0.00000000000E+00  0.00000000000E+00 -0.36593711953E+02  0.41704736851E+02  0.20004632496E+02 0.  0.
        -13    1    3    3    0    0  0.65156460139E+01  0.75879689348E+01 -0.18432642152E+02  0.20971513649E+02  0.10570000000E+00 0. -1.
         13    1    3    3    0    0 -0.65156460139E+01 -0.75879689348E+01 -0.18161069801E+02  0.20733223202E+02  0.10570000000E+00 0.  1.
<mgrwt>
<rscale>  0 0.20004632E+02</rscale>
<asrwt>0</asrwt>
<pdfrwt beam="2">  1        2 0.60229572E-02 0.20004632E+02</pdfrwt>
<pdfrwt beam="1">  1       -2 0.39315579E-03 0.20004632E+02</pdfrwt>
<totfact> 0.44747724E+06</totfact>
</mgrwt>
</event>
<event>
 5    1  0.1607476E-006  0.2000527E+02  0.7818608E-02  0.1745223E+00
         -2   -1    0    0    0  501 -0.00000000000E+00  0.00000000000E+00  0.65482027467E+02  0.65482027519E+02  0.26000000000E-02 0.  1.
          2   -1    0    0  501    0  0.00000000000E+00 -0.00000000000E+00 -0.15279404187E+01  0.15279426308E+01  0.26000000000E-02 0. -1.
       1023    2    1    2    0    0  0.00000000000E+00  0.00000000000E+00  0.63954087049E+02  0.67009970150E+02  0.20005270537E+02 0.  0.
        -13    1    3    3    0    0 -0.96121458603E+01  0.27648231936E+01  0.31766670286E+02  0.33304205574E+02  0.10570000000E+00 0.  1.
         13    1    3    3    0    0  0.96121458603E+01 -0.27648231936E+01  0.32187416762E+02  0.33705764576E+02  0.10570000000E+00 0. -1.
<mgrwt>
<rscale>  0 0.20005271E+02</rscale>
<asrwt>0</asrwt>
<pdfrwt beam="2">  1        2 0.23506795E-03 0.20005271E+02</pdfrwt>
<pdfrwt beam="1">  1       -2 0.10074157E-01 0.20005271E+02</pdfrwt>
<totfact> 0.32453648E+06</totfact>
</mgrwt>
</event>
<event>
 4    1  0.1607476E-006  0.2007194E+02  0.7818608E-02  0.1743901E+00
         -2   -1    0    0    0  501 -0.00000000000E+00  0.00000000000E+00  0.20964079519E+01  0.20964095642E+01  0.26000000000E-02 0.  1.
          2   -1    0    0  501    0  0.00000000000E+00 -0.00000000000E+00 -0.48044384702E+02  0.48044384772E+02  0.26000000000E-02 0. -1.
        -13    1    1    2    0    0  0.91814389699E+01  0.40494097117E+01 -0.22689613035E+02  0.24809801546E+02  0.10570000000E+00 0.  1.
         13    1    1    2    0    0 -0.91814389699E+01 -0.40494097117E+01 -0.23258363715E+02  0.25330992790E+02  0.10570000000E+00 0. -1.
<mgrwt>
<rscale>  0 0.20071938E+02</rscale>
<asrwt>0</asrwt>
<pdfrwt beam="2">  1        2 0.73914431E-02 0.20071938E+02</pdfrwt>
<pdfrwt beam="1">  1       -2 0.32252446E-03 0.20071938E+02</pdfrwt>
<totfact> 0.45686533E+06</totfact>
</mgrwt>
</event>
<event>
 4    1  0.1607476E-006  0.2002716E+02  0.7818608E-02  0.1744789E+00
          2   -1    0    0  501    0  0.00000000000E+00  0.00000000000E+00  0.86994559394E+02  0.86994559433E+02  0.26000000000E-02 0.  1.
         -2   -1    0    0    0  501 -0.00000000000E+00 -0.00000000000E+00 -0.11526192699E+01  0.11526222024E+01  0.26000000000E-02 0. -1.
        -13    1    1    2    0    0 -0.92370975110E+01  0.38605043299E+01  0.43721730241E+02  0.44853409367E+02  0.10570000000E+00 0. -1.
         13    1    1    2    0    0  0.92370975110E+01 -0.38605043299E+01  0.42120209883E+02  0.43293772268E+02  0.10570000000E+00 0.  1.
<mgrwt>
<rscale>  0 0.20027155E+02</rscale>
<asrwt>0</asrwt>
<pdfrwt beam="1">  1        2 0.13383772E-01 0.20027155E+02</pdfrwt>
<pdfrwt beam="2">  1       -2 0.17732636E-03 0.20027155E+02</pdfrwt>
<totfact> 0.51020463E+06</totfact>
</mgrwt>
</event>
<event>
 4    1  0.1607476E-006  0.2007328E+02  0.7818608E-02  0.1743875E+00
         -2   -1    0    0    0  501 -0.00000000000E+00  0.00000000000E+00  0.81176732065E+01  0.81176736229E+01  0.26000000000E-02 0.  1.
          2   -1    0    0  501    0  0.00000000000E+00 -0.00000000000E+00 -0.12409232549E+02  0.12409232821E+02  0.26000000000E-02 0. -1.
        -13    1    1    2    0    0 -0.66606472226E+01 -0.75003822662E+01 -0.24739264705E+01  0.10332058858E+02  0.10570000000E+00 0.  1.
         13    1    1    2    0    0  0.66606472226E+01  0.75003822662E+01 -0.18176328715E+01  0.10194847586E+02  0.10570000000E+00 0. -1.
<mgrwt>
<rscale>  0 0.20073276E+02</rscale>
<asrwt>0</asrwt>
<pdfrwt beam="2">  1        2 0.19091127E-02 0.20073276E+02</pdfrwt>
<pdfrwt beam="1">  1       -2 0.12488729E-02 0.20073276E+02</pdfrwt>
<totfact> 0.39767547E+06</totfact>
</mgrwt>
</event>
<event>
 5    1  0.1607476E-006  0.2000589E+02  0.7818608E-02  0.1745211E+00
          2   -1    0    0  501    0  0.00000000000E+00  0.00000000000E+00  0.24745614332E+01  0.24745627991E+01  0.26000000000E-02 0. -1.
         -2   -1    0    0    0  501 -0.00000000000E+00 -0.00000000000E+00 -0.40434995000E+02  0.40434995084E+02  0.26000000000E-02 0.  1.
       1023    2    1    2    0    0  0.00000000000E+00  0.00000000000E+00 -0.37960433567E+02  0.42909557883E+02  0.20005890160E+02 0.  0.
        -13    1    3    3    0    0  0.26006907909E+01 -0.96582400804E+01 -0.18872040267E+02  0.21359079343E+02  0.10570000000E+00 0.  1.
         13    1    3    3    0    0 -0.26006907909E+01  0.96582400804E+01 -0.19088393300E+02  0.21550478540E+02  0.10570000000E+00 0. -1.
<mgrwt>
<rscale>  0 0.20005890E+02</rscale>
<asrwt>0</asrwt>
<pdfrwt beam="1">  1        2 0.38070190E-03 0.20005890E+02</pdfrwt>
<pdfrwt beam="2">  1       -2 0.62207681E-02 0.20005890E+02</pdfrwt>
<totfact> 0.34851487E+06</totfact>
</mgrwt>
</event>
<event>
 4    1  0.1607476E-006  0.2002299E+02  0.7818608E-02  0.1744871E+00
          2   -1    0    0  501    0  0.00000000000E+00  0.00000000000E+00  0.46662538193E+02  0.46662538266E+02  0.26000000000E-02 0. -1.
         -2   -1    0    0    0  501 -0.00000000000E+00 -0.00000000000E+00 -0.21479757904E+01  0.21479773639E+01  0.26000000000E-02 0.  1.
        -13    1    1    2    0    0  0.95650674501E+01  0.29406094232E+01  0.22951801127E+02  0.25038651053E+02  0.10570000000E+00 0. -1.
         13    1    1    2    0    0 -0.95650674501E+01 -0.29406094232E+01  0.21562761276E+02  0.23771864577E+02  0.10570000000E+00 0.  1.
<mgrwt>
<rscale>  0 0.20022991E+02</rscale>
<asrwt>0</asrwt>
<pdfrwt beam="1">  1        2 0.71788519E-02 0.20022991E+02</pdfrwt>
<pdfrwt beam="2">  1       -2 0.33045795E-03 0.20022991E+02</pdfrwt>
<totfact> 0.45740887E+06</totfact>
</mgrwt>
</event>
<event>
 5    1  0.1607476E-006  0.2000539E+02  0.7818608E-02  0.1745221E+00
         -2   -1    0    0    0  501 -0.00000000000E+00  0.00000000000E+00  0.16355044665E+02  0.16355044872E+02  0.26000000000E-02 0.  1.
          2   -1    0    0  501    0  0.00000000000E+00 -0.00000000000E+00 -0.61176140262E+01  0.61176145787E+01  0.26000000000E-02 0. -1.
       1023    2    1    2    0    0  0.00000000000E+00  0.00000000000E+00  0.10237430639E+02  0.22472659451E+02  0.20005385192E+02 0.  0.
        -13    1    3    3    0    0  0.86508620790E+01 -0.50179019997E+01  0.52996081391E+01  0.11318735535E+02  0.10570000000E+00 0. -1.
         13    1    3    3    0    0 -0.86508620790E+01  0.50179019997E+01  0.49378225000E+01  0.11153923916E+02  0.10570000000E+00 0.  1.
<mgrwt>
<rscale>  0 0.20005385E+02</rscale>
<asrwt>0</asrwt>
<pdfrwt beam="2">  1        2 0.94117147E-03 0.20005385E+02</pdfrwt>
<pdfrwt beam="1">  1       -2 0.25161607E-02 0.20005385E+02</pdfrwt>
<totfact> 0.38021856E+06</totfact>
</mgrwt>
</event>
<event>
 5    1  0.1607476E-006  0.2000209E+02  0.7818608E-02  0.1745287E+00
         -2   -1    0    0    0  501 -0.00000000000E+00  0.00000000000E+00  0.81147712193E+01  0.81147716359E+01  0.26000000000E-02 0.  1.
          2   -1    0    0  501    0  0.00000000000E+00 -0.00000000000E+00 -0.12325777938E+02  0.12325778212E+02  0.26000000000E-02 0. -1.
       1023    2    1    2    0    0  0.00000000000E+00  0.00000000000E+00 -0.42110067183E+01  0.20440549848E+02  0.20002087403E+02 0.  0.
        -13    1    3    3    0    0  0.58614453536E+01 -0.81024686338E+01 -0.21629771038E+01  0.10232115228E+02  0.10570000000E+00 0. -1.
         13    1    3    3    0    0 -0.58614453536E+01  0.81024686338E+01 -0.20480296145E+01  0.10208434620E+02  0.10570000000E+00 0.  1.
<mgrwt>
<rscale>  0 0.20002087E+02</rscale>
<asrwt>0</asrwt>
<pdfrwt beam="2">  1        2 0.18962736E-02 0.20002087E+02</pdfrwt>
<pdfrwt beam="1">  1       -2 0.12484264E-02 0.20002087E+02</pdfrwt>
<totfact> 0.40069715E+06</totfact>
</mgrwt>
</event>
<event>
 4    1  0.1607476E-006  0.2001504E+02  0.7818608E-02  0.1745029E+00
         -2   -1    0    0    0  501 -0.00000000000E+00  0.00000000000E+00  0.32888239025E+01  0.32888249302E+01  0.26000000000E-02 0.  1.
          2   -1    0    0  501    0  0.00000000000E+00 -0.00000000000E+00 -0.30451762148E+02  0.30451762259E+02  0.26000000000E-02 0. -1.
        -13    1    1    2    0    0  0.48345152213E+01  0.87542011924E+01 -0.12971899142E+02  0.16379557863E+02  0.10570000000E+00 0. -1.
         13    1    1    2    0    0 -0.48345152213E+01 -0.87542011924E+01 -0.14191039104E+02  0.17361029327E+02  0.10570000000E+00 0.  1.
<mgrwt>
<rscale>  0 0.20015045E+02</rscale>
<asrwt>0</asrwt>
<pdfrwt beam="2">  1        2 0.46848864E-02 0.20015045E+02</pdfrwt>
<pdfrwt beam="1">  1       -2 0.50597301E-03 0.20015045E+02</pdfrwt>
<totfact> 0.43371605E+06</totfact>
</mgrwt>
</event>
<event>
 4    1  0.1607476E-006  0.2005992E+02  0.7818608E-02  0.1744139E+00
          2   -1    0    0  501    0  0.00000000000E+00  0.00000000000E+00  0.71729993434E+02  0.71729993481E+02  0.26000000000E-02 0. -1.
         -2   -1    0    0    0  501 -0.00000000000E+00 -0.00000000000E+00 -0.14024811637E+01  0.14024835737E+01  0.26000000000E-02 0.  1.
        -13    1    1    2    0    0  0.24795267817E+01  0.97118022618E+01  0.36435713280E+02  0.37789410302E+02  0.10570000000E+00 0.  1.
         13    1    1    2    0    0 -0.24795267817E+01 -0.97118022618E+01  0.33891798990E+02  0.35343066753E+02  0.10570000000E+00 0. -1.
<mgrwt>
<rscale>  0 0.20059916E+02</rscale>
<asrwt>0</asrwt>
<pdfrwt beam="1">  1        2 0.11035387E-01 0.20059916E+02</pdfrwt>
<pdfrwt beam="2">  1       -2 0.21576647E-03 0.20059916E+02</pdfrwt>
<totfact> 0.48918635E+06</totfact>
</mgrwt>
</event>
<event>
 5    1  0.1607476E-006  0.2000701E+02  0.7818608E-02  0.1745189E+00
         -2   -1    0    0    0  501 -0.00000000000E+00  0.00000000000E+00  0.37235180566E+02  0.37235180657E+02  0.26000000000E-02 0. -1.
          2   -1    0    0  501    0  0.00000000000E+00 -0.00000000000E+00 -0.26875132944E+01  0.26875145521E+01  0.26000000000E-02 0.  1.
       1023    2    1    2    0    0  0.00000000000E+00  0.00000000000E+00  0.34547667272E+02  0.39922695209E+02  0.20007005744E+02 0.  0.
        -13    1    3    3    0    0  0.24197365767E+01  0.97047377231E+01  0.17568711813E+02  0.20216524593E+02  0.10570000000E+00 0. -1.
         13    1    3    3    0    0 -0.24197365767E+01 -0.97047377231E+01  0.16978955459E+02  0.19706170616E+02  0.10570000000E+00 0.  1.
<mgrwt>
<rscale>  0 0.20007006E+02</rscale>
<asrwt>0</asrwt>
<pdfrwt beam="2">  1        2 0.41346371E-03 0.20007006E+02</pdfrwt>
<pdfrwt beam="1">  1       -2 0.57284891E-02 0.20007006E+02</pdfrwt>
<totfact> 0.35194886E+06</totfact>
</mgrwt>
</event>
<event>
 5    1  0.1607476E-006  0.2000201E+02  0.7818608E-02  0.1745288E+00
         -2   -1    0    0    0  501 -0.00000000000E+00  0.00000000000E+00  0.48980965362E+01  0.48980972263E+01  0.26000000000E-02 0. -1.
          2   -1    0    0  501    0  0.00000000000E+00 -0.00000000000E+00 -0.20420202707E+02  0.20420202872E+02  0.26000000000E-02 0.  1.
       1023    2    1    2    0    0  0.00000000000E+00  0.00000000000E+00 -0.15522106171E+02  0.25318300099E+02  0.20002013396E+02 0.  0.
        -13    1    3    3    0    0  0.74166181846E+01 -0.67078623103E+01 -0.76527530005E+01  0.12592753593E+02  0.10570000000E+00 0.  1.
         13    1    3    3    0    0 -0.74166181846E+01  0.67078623103E+01 -0.78693531703E+01  0.12725546506E+02  0.10570000000E+00 0. -1.
<mgrwt>
<rscale>  0 0.20002013E+02</rscale>
<asrwt>0</asrwt>
<pdfrwt beam="2">  1        2 0.31415697E-02 0.20002013E+02</pdfrwt>
<pdfrwt beam="1">  1       -2 0.75355339E-03 0.20002013E+02</pdfrwt>
<totfact> 0.41745592E+06</totfact>
</mgrwt>
</event>
<event>
 5    1  0.1772198E-006  0.2000128E+02  0.7818608E-02  0.1745303E+00
          2   -1    0    0  501    0  0.00000000000E+00  0.00000000000E+00  0.51955370819E+02  0.51955370884E+02  0.26000000000E-02 0.  1.
         -2   -1    0    0    0  501 -0.00000000000E+00 -0.00000000000E+00 -0.19249747481E+01  0.19249765040E+01  0.26000000000E-02 0. -1.
       1023    2    1    2    0    0  0.00000000000E+00  0.00000000000E+00  0.50030396071E+02  0.53880347388E+02  0.20001282550E+02 0.  0.
        -13    1    3    3    0    0 -0.81369324173E+01 -0.58130557971E+01  0.25066773509E+02  0.26988063908E+02  0.10570000000E+00 0.  1.
         13    1    3    3    0    0  0.81369324173E+01  0.58130557971E+01  0.24963622562E+02  0.26892283480E+02  0.10570000000E+00 0. -1.
<mgrwt>
<rscale>  0 0.20001283E+02</rscale>
<asrwt>0</asrwt>
<pdfrwt beam="1">  1        2 0.79931328E-02 0.20001283E+02</pdfrwt>
<pdfrwt beam="2">  1       -2 0.29615015E-03 0.20001283E+02</pdfrwt>
<totfact> 0.46593548E+06</totfact>
</mgrwt>
</event>
<event>
 4    1  0.1607476E-006  0.2001278E+02  0.7818608E-02  0.1745074E+00
         -2   -1    0    0    0  501 -0.00000000000E+00  0.00000000000E+00  0.14746526664E+01  0.14746549585E+01  0.26000000000E-02 0. -1.
          2   -1    0    0  501    0  0.00000000000E+00 -0.00000000000E+00 -0.67899232729E+02  0.67899232778E+02  0.26000000000E-02 0.  1.
        -13    1    1    2    0    0  0.70415154033E+01  0.71038532822E+01 -0.34123009333E+02  0.35558945556E+02  0.10570000000E+00 0. -1.
         13    1    1    2    0    0 -0.70415154033E+01 -0.71038532822E+01 -0.32301570729E+02  0.33814942181E+02  0.10570000000E+00 0.  1.
<mgrwt>
<rscale>  0 0.20012782E+02</rscale>
<asrwt>0</asrwt>
<pdfrwt beam="2">  1        2 0.10446034E-01 0.20012782E+02</pdfrwt>
<pdfrwt beam="1">  1       -2 0.22686987E-03 0.20012782E+02</pdfrwt>
<totfact> 0.48676684E+06</totfact>
</mgrwt>
</event>
<event>
 5    1  0.1607476E-006  0.2000583E+02  0.7818608E-02  0.1745212E+00
          2   -1    0    0  501    0  0.00000000000E+00  0.00000000000E+00  0.29736217164E+01  0.29736228531E+01  0.26000000000E-02 0. -1.
         -2   -1    0    0    0  501 -0.00000000000E+00 -0.00000000000E+00 -0.33648638483E+02  0.33648638583E+02  0.26000000000E-02 0.  1.
       1023    2    1    2    0    0  0.00000000000E+00  0.00000000000E+00 -0.30675016766E+02  0.36622261436E+02  0.20005833626E+02 0.  0.
        -13    1    3    3    0    0  0.80026203953E+01 -0.59985914025E+01 -0.15609891398E+02  0.18539280298E+02  0.10570000000E+00 0. -1.
         13    1    3    3    0    0 -0.80026203953E+01  0.59985914025E+01 -0.15065125368E+02  0.18082981138E+02  0.10570000000E+00 0.  1.
<mgrwt>
<rscale>  0 0.20005834E+02</rscale>
<asrwt>0</asrwt>
<pdfrwt beam="1">  1        2 0.45748038E-03 0.20005834E+02</pdfrwt>
<pdfrwt beam="2">  1       -2 0.51767135E-02 0.20005834E+02</pdfrwt>
<totfact> 0.35605766E+06</totfact>
</mgrwt>
</event>
<event>
 5    1  0.1607476E-006  0.2000241E+02  0.7818608E-02  0.1745280E+00
          2   -1    0    0  501    0  0.00000000000E+00  0.00000000000E+00  0.32083333088E+02  0.32083333193E+02  0.26000000000E-02 0.  1.
         -2   -1    0    0    0  501 -0.00000000000E+00 -0.00000000000E+00 -0.31176348926E+01  0.31176359767E+01  0.26000000000E-02 0. -1.
       1023    2    1    2    0    0  0.00000000000E+00  0.00000000000E+00  0.28965698195E+02  0.35200969170E+02  0.20002413818E+02 0.  0.
        -13    1    3    3    0    0 -0.98427428008E+01  0.17699684867E+01  0.14525699031E+02  0.17635744360E+02  0.10570000000E+00 0. -1.
         13    1    3    3    0    0  0.98427428008E+01 -0.17699684867E+01  0.14439999164E+02  0.17565224810E+02  0.10570000000E+00 0.  1.
<mgrwt>
<rscale>  0 0.20002414E+02</rscale>
<asrwt>0</asrwt>
<pdfrwt beam="1">  1        2 0.49358973E-02 0.20002414E+02</pdfrwt>
<pdfrwt beam="2">  1       -2 0.47963625E-03 0.20002414E+02</pdfrwt>
<totfact> 0.43688752E+06</totfact>
</mgrwt>
</event>
<event>
 5    1  0.1607476E-006  0.2000234E+02  0.7818608E-02  0.1745282E+00
          2   -1    0    0  501    0  0.00000000000E+00  0.00000000000E+00  0.86045460348E+01  0.86045464276E+01  0.26000000000E-02 0. -1.
         -2   -1    0    0    0  501 -0.00000000000E+00 -0.00000000000E+00 -0.11624480193E+02  0.11624480483E+02  0.26000000000E-02 0.  1.
       1023    2    1    2    0    0  0.00000000000E+00  0.00000000000E+00 -0.30199341578E+01  0.20229026911E+02  0.20002338050E+02 0.  0.
        -13    1    3    3    0    0 -0.38721084387E+01  0.92201479071E+01 -0.14203160473E+01  0.10101129707E+02  0.10570000000E+00 0.  1.
         13    1    3    3    0    0  0.38721084387E+01 -0.92201479071E+01 -0.15996181105E+01  0.10127897204E+02  0.10570000000E+00 0. -1.
<mgrwt>
<rscale>  0 0.20002338E+02</rscale>
<asrwt>0</asrwt>
<pdfrwt beam="1">  1        2 0.13237764E-02 0.20002338E+02</pdfrwt>
<pdfrwt beam="2">  1       -2 0.17883816E-02 0.20002338E+02</pdfrwt>
<totfact> 0.39021009E+06</totfact>
</mgrwt>
</event>
<event>
 5    1  0.1607476E-006  0.2001083E+02  0.7818608E-02  0.1745113E+00
          2   -1    0    0  501    0  0.00000000000E+00  0.00000000000E+00  0.21199046793E+01  0.21199062737E+01  0.26000000000E-02 0. -1.
         -2   -1    0    0    0  501 -0.00000000000E+00 -0.00000000000E+00 -0.47223011485E+02  0.47223011557E+02  0.26000000000E-02 0.  1.
       1023    2    1    2    0    0  0.00000000000E+00  0.00000000000E+00 -0.45103106806E+02  0.49342917831E+02  0.20010829480E+02 0.  0.
        -13    1    3    3    0    0  0.13870476769E+01  0.99081152796E+01 -0.22428214081E+02  0.24558717577E+02  0.10570000000E+00 0. -1.
         13    1    3    3    0    0 -0.13870476769E+01 -0.99081152796E+01 -0.22674892725E+02  0.24784200254E+02  0.10570000000E+00 0.  1.
<mgrwt>
<rscale>  0 0.20010829E+02</rscale>
<asrwt>0</asrwt>
<pdfrwt beam="1">  1        2 0.32613935E-03 0.20010829E+02</pdfrwt>
<pdfrwt beam="2">  1       -2 0.72650780E-02 0.20010829E+02</pdfrwt>
<totfact> 0.34132475E+06</totfact>
</mgrwt>
</event>
<event>
 5    1  0.1607476E-006  0.2000337E+02  0.7818608E-02  0.1745261E+00
          2   -1    0    0  501    0  0.00000000000E+00  0.00000000000E+00  0.12916718205E+01  0.12916744373E+01  0.26000000000E-02 0. -1.
         -2   -1    0    0    0  501 -0.00000000000E+00 -0.00000000000E+00 -0.77445042754E+02  0.77445042798E+02  0.26000000000E-02 0.  1.
       1023    2    1    2    0    0  0.00000000000E+00  0.00000000000E+00 -0.76153370933E+02  0.78736717235E+02  0.20003368126E+02 0.  0.
        -13    1    3    3    0    0  0.14705863255E+01 -0.98921121134E+01 -0.37771653514E+02  0.39073334742E+02  0.10570000000E+00 0. -1.
         13    1    3    3    0    0 -0.14705863255E+01  0.98921121134E+01 -0.38381717420E+02  0.39663382493E+02  0.10570000000E+00 0.  1.
<mgrwt>
<rscale>  0 0.20003368E+02</rscale>
<asrwt>0</asrwt>
<pdfrwt beam="1">  1        2 0.19871901E-03 0.20003368E+02</pdfrwt>
<pdfrwt beam="2">  1       -2 0.11914619E-01 0.20003368E+02</pdfrwt>
<totfact> 0.31452707E+06</totfact>
</mgrwt>
</event>
<event>
 5    1  0.1607476E-006  0.2000548E+02  0.7818608E-02  0.1745219E+00
          2   -1    0    0  501    0  0.00000000000E+00  0.00000000000E+00  0.26386598170E+01  0.26386610979E+01  0.26000000000E-02 0.  1.
         -2   -1    0    0    0  501 -0.00000000000E+00 -0.00000000000E+00 -0.37918783563E+02  0.37918783652E+02  0.26000000000E-02 0. -1.
       1023    2    1    2    0    0  0.00000000000E+00  0.00000000000E+00 -0.35280123746E+02  0.40557444750E+02  0.20005479078E+02 0.  0.
        -13    1    3    3    0    0 -0.98561154450E+01 -0.17022309267E+01 -0.17528577895E+02  0.20181744655E+02  0.10570000000E+00 0. -1.
         13    1    3    3    0    0  0.98561154450E+01  0.17022309267E+01 -0.17751545851E+02  0.20375700096E+02  0.10570000000E+00 0.  1.
<mgrwt>
<rscale>  0 0.20005479E+02</rscale>
<asrwt>0</asrwt>
<pdfrwt beam="1">  1        2 0.40594780E-03 0.20005479E+02</pdfrwt>
<pdfrwt beam="2">  1       -2 0.58336587E-02 0.20005479E+02</pdfrwt>
<totfact> 0.35125389E+06</totfact>
</mgrwt>
</event>
<event>
 5    1  0.1607476E-006  0.2000491E+02  0.7818608E-02  0.1745231E+00
          2   -1    0    0  501    0  0.00000000000E+00  0.00000000000E+00  0.40409898853E+02  0.40409898937E+02  0.26000000000E-02 0.  1.
         -2   -1    0    0    0  501 -0.00000000000E+00 -0.00000000000E+00 -0.24758544865E+01  0.24758558517E+01  0.26000000000E-02 0. -1.
       1023    2    1    2    0    0  0.00000000000E+00  0.00000000000E+00  0.37934044367E+02  0.42885754788E+02  0.20004905443E+02 0.  0.
        -13    1    3    3    0    0 -0.69113396828E+01  0.72288356592E+01  0.18702662744E+02  0.21209041643E+02  0.10570000000E+00 0.  1.
         13    1    3    3    0    0  0.69113396828E+01 -0.72288356592E+01  0.19231381622E+02  0.21676713146E+02  0.10570000000E+00 0. -1.
<mgrwt>
<rscale>  0 0.20004905E+02</rscale>
<asrwt>0</asrwt>
<pdfrwt beam="1">  1        2 0.62169074E-02 0.20004905E+02</pdfrwt>
<pdfrwt beam="2">  1       -2 0.38090081E-03 0.20004905E+02</pdfrwt>
<totfact> 0.44931906E+06</totfact>
</mgrwt>
</event>
<event>
 5    1  0.1607476E-006  0.2000776E+02  0.7818608E-02  0.1745174E+00
          2   -1    0    0  501    0  0.00000000000E+00  0.00000000000E+00  0.14107884597E+01  0.14107908555E+01  0.26000000000E-02 0. -1.
         -2   -1    0    0    0  501 -0.00000000000E+00 -0.00000000000E+00 -0.70937334621E+02  0.70937334669E+02  0.26000000000E-02 0.  1.
       1023    2    1    2    0    0  0.00000000000E+00  0.00000000000E+00 -0.69526546162E+02  0.72348125525E+02  0.20007764636E+02 0.  0.
        -13    1    3    3    0    0 -0.22728623161E+01  0.97389997406E+01 -0.35591565702E+02  0.36970051943E+02  0.10570000000E+00 0. -1.
         13    1    3    3    0    0  0.22728623161E+01 -0.97389997406E+01 -0.33934980460E+02  0.35378073582E+02  0.10570000000E+00 0.  1.
<mgrwt>
<rscale>  0 0.20007765E+02</rscale>
<asrwt>0</asrwt>
<pdfrwt beam="1">  1        2 0.21704462E-03 0.20007765E+02</pdfrwt>
<pdfrwt beam="2">  1       -2 0.10913433E-01 0.20007765E+02</pdfrwt>
<totfact> 0.31976730E+06</totfact>
</mgrwt>
</event>
<event>
 4    1  0.1607476E-006  0.2004850E+02  0.7818608E-02  0.1744365E+00
          2   -1    0    0  501    0  0.00000000000E+00  0.00000000000E+00  0.25931333800E+02  0.25931333931E+02  0.26000000000E-02 0.  1.
         -2   -1    0    0    0  501 -0.00000000000E+00 -0.00000000000E+00 -0.38750628550E+01  0.38750637272E+01  0.26000000000E-02 0. -1.
        -13    1    1    2    0    0 -0.26358340114E+01  0.96694708168E+01  0.10778898796E+02  0.14718767563E+02  0.10570000000E+00 0. -1.
         13    1    1    2    0    0  0.26358340114E+01 -0.96694708168E+01  0.11277372149E+02  0.15087630095E+02  0.10570000000E+00 0.  1.
<mgrwt>
<rscale>  0 0.20048498E+02</rscale>
<asrwt>0</asrwt>
<pdfrwt beam="1">  1        2 0.39894362E-02 0.20048498E+02</pdfrwt>
<pdfrwt beam="2">  1       -2 0.59616357E-03 0.20048498E+02</pdfrwt>
<totfact> 0.42480953E+06</totfact>
</mgrwt>
</event>
<event>
 4    1  0.1607476E-006  0.2001741E+02  0.7818608E-02  0.1744982E+00
          2   -1    0    0  501    0  0.00000000000E+00  0.00000000000E+00  0.63820454466E+01  0.63820459762E+01  0.26000000000E-02 0.  1.
         -2   -1    0    0    0  501 -0.00000000000E+00 -0.00000000000E+00 -0.15696243380E+02  0.15696243595E+02  0.26000000000E-02 0. -1.
        -13    1    1    2    0    0  0.24360418845E+00  0.99999236122E+01 -0.42994302273E+01  0.10888254590E+02  0.10570000000E+00 0.  1.
         13    1    1    2    0    0 -0.24360418845E+00 -0.99999236122E+01 -0.50147677061E+01  0.11190034981E+02  0.10570000000E+00 0. -1.
<mgrwt>
<rscale>  0 0.20017407E+02</rscale>
<asrwt>0</asrwt>
<pdfrwt beam="1">  1        2 0.98185321E-03 0.20017407E+02</pdfrwt>
<pdfrwt beam="2">  1       -2 0.24148067E-02 0.20017407E+02</pdfrwt>
<totfact> 0.38093388E+06</totfact>
</mgrwt>
</event>
<event>
 5    1  0.1607476E-006  0.2000152E+02  0.7818608E-02  0.1745298E+00
         -2   -1    0    0    0  501 -0.00000000000E+00  0.00000000000E+00  0.35536735062E+02  0.35536735157E+02  0.26000000000E-02 0. -1.
          2   -1    0    0  501    0  0.00000000000E+00 -0.00000000000E+00 -0.28144178402E+01  0.28144190411E+01  0.26000000000E-02 0.  1.
       1023    2    1    2    0    0  0.00000000000E+00  0.00000000000E+00  0.32722317222E+02  0.38351154198E+02  0.20001524541E+02 0.  0.
        -13    1    3    3    0    0 -0.34126014359E+01  0.93999027414E+01  0.16347147788E+02  0.19163622659E+02  0.10570000000E+00 0. -1.
         13    1    3    3    0    0  0.34126014359E+01 -0.93999027414E+01  0.16375169434E+02  0.19187531540E+02  0.10570000000E+00 0.  1.
<mgrwt>
<rscale>  0 0.20001525E+02</rscale>
<asrwt>0</asrwt>
<pdfrwt beam="2">  1        2 0.43298743E-03 0.20001525E+02</pdfrwt>
<pdfrwt beam="1">  1       -2 0.54671905E-02 0.20001525E+02</pdfrwt>
<totfact> 0.35406063E+06</totfact>
</mgrwt>
</event>
<event>
 5    1  0.1607476E-006  0.2000428E+02  0.7818608E-02  0.1745243E+00
         -2   -1    0    0    0  501 -0.00000000000E+00  0.00000000000E+00  0.70934532094E+01  0.70934536859E+01  0.26000000000E-02 0.  1.
          2   -1    0    0  501    0  0.00000000000E+00 -0.00000000000E+00 -0.14103539885E+02  0.14103540125E+02  0.26000000000E-02 0. -1.
       1023    2    1    2    0    0  0.00000000000E+00  0.00000000000E+00 -0.70100866755E+01  0.21196993811E+02  0.20004280327E+02 0.  0.
        -13    1    3    3    0    0 -0.74231428139E+01 -0.67008161192E+01 -0.36812387867E+01  0.10656766742E+02  0.10570000000E+00 0.  1.
         13    1    3    3    0    0  0.74231428139E+01  0.67008161192E+01 -0.33288478889E+01  0.10540227069E+02  0.10570000000E+00 0. -1.
<mgrwt>
<rscale>  0 0.20004280E+02</rscale>
<asrwt>0</asrwt>
<pdfrwt beam="2">  1        2 0.21697754E-02 0.20004280E+02</pdfrwt>
<pdfrwt beam="1">  1       -2 0.10913005E-02 0.20004280E+02</pdfrwt>
<totfact> 0.40473988E+06</totfact>
</mgrwt>
</event>
<event>
 5    1  0.1621609E-006  0.2000142E+02  0.7818608E-02  0.1745300E+00
          2   -1    0    0  501    0  0.00000000000E+00  0.00000000000E+00  0.94811478139E+02  0.94811478175E+02  0.26000000000E-02 0. -1.
         -2   -1    0    0    0  501 -0.00000000000E+00 -0.00000000000E+00 -0.10548723074E+01  0.10548755115E+01  0.26000000000E-02 0.  1.
       1023    2    1    2    0    0  0.00000000000E+00  0.00000000000E+00  0.93756605832E+02  0.95866353686E+02  0.20001415750E+02 0.  0.
        -13    1    3    3    0    0  0.94249916967E+01  0.33424616253E+01  0.46981914940E+02  0.48034508659E+02  0.10570000000E+00 0.  1.
         13    1    3    3    0    0 -0.94249916967E+01 -0.33424616253E+01  0.46774690892E+02  0.47831845028E+02  0.10570000000E+00 0. -1.
<mgrwt>
<rscale>  0 0.20001416E+02</rscale>
<asrwt>0</asrwt>
<pdfrwt beam="1">  1        2 0.14586379E-01 0.20001416E+02</pdfrwt>
<pdfrwt beam="2">  1       -2 0.16228833E-03 0.20001416E+02</pdfrwt>
<totfact> 0.52124290E+06</totfact>
</mgrwt>
</event>
<event>
 5    1  0.1607476E-006  0.2000727E+02  0.7818608E-02  0.1745184E+00
          2   -1    0    0  501    0  0.00000000000E+00  0.00000000000E+00  0.45893211109E+02  0.45893211183E+02  0.26000000000E-02 0. -1.
         -2   -1    0    0    0  501 -0.00000000000E+00 -0.00000000000E+00 -0.21805553525E+01  0.21805569026E+01  0.26000000000E-02 0.  1.
       1023    2    1    2    0    0  0.00000000000E+00  0.00000000000E+00  0.43712655757E+02  0.48073768085E+02  0.20007271294E+02 0.  0.
        -13    1    3    3    0    0  0.11360101168E+01 -0.99370210501E+01  0.22248563626E+02  0.24393537305E+02  0.10570000000E+00 0. -1.
         13    1    3    3    0    0 -0.11360101168E+01  0.99370210501E+01  0.21464092130E+02  0.23680230780E+02  0.10570000000E+00 0.  1.
<mgrwt>
<rscale>  0 0.20007271E+02</rscale>
<asrwt>0</asrwt>
<pdfrwt beam="1">  1        2 0.70604947E-02 0.20007271E+02</pdfrwt>
<pdfrwt beam="2">  1       -2 0.33547015E-03 0.20007271E+02</pdfrwt>
<totfact> 0.45711758E+06</totfact>
</mgrwt>
</event>
<event>
 4    1  0.1607476E-006  0.2007003E+02  0.7818608E-02  0.1743939E+00
          2   -1    0    0  501    0  0.00000000000E+00  0.00000000000E+00  0.17966050696E+01  0.17966069509E+01  0.26000000000E-02 0.  1.
         -2   -1    0    0    0  501 -0.00000000000E+00 -0.00000000000E+00 -0.56050999854E+02  0.56050999915E+02  0.26000000000E-02 0. -1.
        -13    1    1    2    0    0 -0.61430035482E+01 -0.78928898825E+01 -0.29462011888E+02  0.31113590604E+02  0.10570000000E+00 0.  1.
         13    1    1    2    0    0  0.61430035482E+01  0.78928898825E+01 -0.24792382897E+02  0.26734016262E+02  0.10570000000E+00 0. -1.
<mgrwt>
<rscale>  0 0.20070034E+02</rscale>
<asrwt>0</asrwt>
<pdfrwt beam="1">  1        2 0.27640097E-03 0.20070034E+02</pdfrwt>
<pdfrwt beam="2">  1       -2 0.86232296E-02 0.20070034E+02</pdfrwt>
<totfact> 0.33068900E+06</totfact>
</mgrwt>
</event>
<event>
 4    1  0.1607476E-006  0.2001273E+02  0.7818608E-02  0.1745075E+00
         -2   -1    0    0    0  501 -0.00000000000E+00  0.00000000000E+00  0.76075543839E+01  0.76075548282E+01  0.26000000000E-02 0. -1.
          2   -1    0    0  501    0  0.00000000000E+00 -0.00000000000E+00 -0.13161569159E+02  0.13161569416E+02  0.26000000000E-02 0.  1.
        -13    1    1    2    0    0 -0.25264843600E+01 -0.96812793659E+01 -0.28566852649E+01  0.10405869333E+02  0.10570000000E+00 0.  1.
         13    1    1    2    0    0  0.25264843600E+01  0.96812793659E+01 -0.26973295107E+01  0.10363254912E+02  0.10570000000E+00 0. -1.
<mgrwt>
<rscale>  0 0.20012732E+02</rscale>
<asrwt>0</asrwt>
<pdfrwt beam="2">  1        2 0.20248568E-02 0.20012732E+02</pdfrwt>
<pdfrwt beam="1">  1       -2 0.11703930E-02 0.20012732E+02</pdfrwt>
<totfact> 0.40220790E+06</totfact>
</mgrwt>
</event>
<event>
 5    1  0.1607476E-006  0.2000718E+02  0.7818608E-02  0.1745185E+00
          2   -1    0    0  501    0  0.00000000000E+00  0.00000000000E+00  0.10164936914E+03  0.10164936918E+03  0.26000000000E-02 0.  1.
         -2   -1    0    0    0  501 -0.00000000000E+00 -0.00000000000E+00 -0.98447818558E+00  0.98448161887E+00  0.26000000000E-02 0. -1.
       1023    2    1    2    0    0  0.00000000000E+00  0.00000000000E+00  0.10066489096E+03  0.10263385080E+03  0.20007175152E+02 0.  0.
        -13    1    3    3    0    0 -0.12665052466E+00  0.10002177232E+02  0.50494840555E+02  0.51476205036E+02  0.10570000000E+00 0.  1.
         13    1    3    3    0    0  0.12665052466E+00 -0.10002177232E+02  0.50170050403E+02  0.51157645760E+02  0.10570000000E+00 0. -1.
<mgrwt>
<rscale>  0 0.20007175E+02</rscale>
<asrwt>0</asrwt>
<pdfrwt beam="1">  1        2 0.15638360E-01 0.20007175E+02</pdfrwt>
<pdfrwt beam="2">  1       -2 0.15145849E-03 0.20007175E+02</pdfrwt>
<totfact> 0.52913157E+06</totfact>
</mgrwt>
</event>
<event>
 5    1  0.1607476E-006  0.2000231E+02  0.7818608E-02  0.1745282E+00
          2   -1    0    0  501    0  0.00000000000E+00  0.00000000000E+00  0.82146815517E+02  0.82146815558E+02  0.26000000000E-02 0. -1.
         -2   -1    0    0    0  501 -0.00000000000E+00 -0.00000000000E+00 -0.12176125014E+01  0.12176152773E+01  0.26000000000E-02 0.  1.
       1023    2    1    2    0    0  0.00000000000E+00  0.00000000000E+00  0.80929203016E+02  0.83364430836E+02  0.20002310561E+02 0.  0.
        -13    1    3    3    0    0 -0.96726446236E+01 -0.25394212525E+01  0.40228097750E+02  0.41452620368E+02  0.10570000000E+00 0. -1.
         13    1    3    3    0    0  0.96726446236E+01  0.25394212525E+01  0.40701105266E+02  0.41911810467E+02  0.10570000000E+00 0.  1.
<mgrwt>
<rscale>  0 0.20002311E+02</rscale>
<asrwt>0</asrwt>
<pdfrwt beam="1">  1        2 0.12637973E-01 0.20002311E+02</pdfrwt>
<pdfrwt beam="2">  1       -2 0.18732520E-03 0.20002311E+02</pdfrwt>
<totfact> 0.50556530E+06</totfact>
</mgrwt>
</event>
<event>
 4    1  0.1607476E-006  0.2020605E+02  0.7818608E-02  0.1741261E+00
         -2   -1    0    0    0  501 -0.00000000000E+00  0.00000000000E+00  0.13191103934E+02  0.13191104190E+02  0.26000000000E-02 0. -1.
          2   -1    0    0  501    0  0.00000000000E+00 -0.00000000000E+00 -0.77378777779E+01  0.77378782147E+01  0.26000000000E-02 0.  1.
        -13    1    1    2    0    0 -0.37538155239E+01 -0.93027262181E+01  0.39644168138E+01  0.10787011599E+02  0.10570000000E+00 0.  1.
         13    1    1    2    0    0  0.37538155239E+01  0.93027262181E+01  0.14888093421E+01  0.10141970806E+02  0.10570000000E+00 0. -1.
<mgrwt>
<rscale>  0 0.20206054E+02</rscale>
<asrwt>0</asrwt>
<pdfrwt beam="2">  1        2 0.11904428E-02 0.20206054E+02</pdfrwt>
<pdfrwt beam="1">  1       -2 0.20294006E-02 0.20206054E+02</pdfrwt>
<totfact> 0.37824401E+06</totfact>
</mgrwt>
</event>
<event>
 5    1  0.1607476E-006  0.2000944E+02  0.7818608E-02  0.1745141E+00
          2   -1    0    0  501    0  0.00000000000E+00  0.00000000000E+00  0.33273458181E+01  0.33273468339E+01  0.26000000000E-02 0. -1.
         -2   -1    0    0    0  501 -0.00000000000E+00 -0.00000000000E+00 -0.30082342512E+02  0.30082342624E+02  0.26000000000E-02 0.  1.
       1023    2    1    2    0    0  0.00000000000E+00  0.00000000000E+00 -0.26754996694E+02  0.33409689458E+02  0.20009435315E+02 0.  0.
        -13    1    3    3    0    0 -0.71847815412E+00 -0.99763164435E+01 -0.13711864342E+02  0.16972610196E+02  0.10570000000E+00 0.  1.
         13    1    3    3    0    0  0.71847815412E+00  0.99763164435E+01 -0.13043132352E+02  0.16437079262E+02  0.10570000000E+00 0. -1.
<mgrwt>
<rscale>  0 0.20009435E+02</rscale>
<asrwt>0</asrwt>
<pdfrwt beam="1">  1        2 0.51189946E-03 0.20009435E+02</pdfrwt>
<pdfrwt beam="2">  1       -2 0.46280526E-02 0.20009435E+02</pdfrwt>
<totfact> 0.36017168E+06</totfact>
</mgrwt>
</event>
<event>
 5    1  0.1607476E-006  0.2000697E+02  0.7818608E-02  0.1745190E+00
         -2   -1    0    0    0  501 -0.00000000000E+00  0.00000000000E+00  0.87000421127E+02  0.87000421166E+02  0.26000000000E-02 0.  1.
          2   -1    0    0  501    0  0.00000000000E+00 -0.00000000000E+00 -0.11502190948E+01  0.11502220333E+01  0.26000000000E-02 0. -1.
       1023    2    1    2    0    0  0.00000000000E+00  0.00000000000E+00  0.85850202032E+02  0.88150643199E+02  0.20006966473E+02 0.  0.
        -13    1    3    3    0    0 -0.94047453940E+01  0.34061985273E+01  0.43295834693E+02  0.44436380350E+02  0.10570000000E+00 0. -1.
         13    1    3    3    0    0  0.94047453940E+01 -0.34061985273E+01  0.42554367339E+02  0.43714262849E+02  0.10570000000E+00 0.  1.
<mgrwt>
<rscale>  0 0.20006966E+02</rscale>
<asrwt>0</asrwt>
<pdfrwt beam="2">  1        2 0.17695698E-03 0.20006966E+02</pdfrwt>
<pdfrwt beam="1">  1       -2 0.13384683E-01 0.20006966E+02</pdfrwt>
<totfact> 0.30682655E+06</totfact>
</mgrwt>
</event>
<event>
 4    1  0.1607476E-006  0.2010551E+02  0.7818608E-02  0.1743238E+00
         -2   -1    0    0    0  501 -0.00000000000E+00  0.00000000000E+00  0.10847415034E+02  0.10847415345E+02  0.26000000000E-02 0. -1.
          2   -1    0    0  501    0  0.00000000000E+00 -0.00000000000E+00 -0.93163102463E+01  0.93163106091E+01  0.26000000000E-02 0.  1.
        -13    1    1    2    0    0 -0.98704334532E+01 -0.18896116271E+01  0.53989092886E+00  0.10064727684E+02  0.10570000000E+00 0. -1.
         13    1    1    2    0    0  0.98704334532E+01  0.18896116271E+01  0.99121385854E+00  0.10098998270E+02  0.10570000000E+00 0.  1.
<mgrwt>
<rscale>  0 0.20105511E+02</rscale>
<asrwt>0</asrwt>
<pdfrwt beam="2">  1        2 0.14332786E-02 0.20105511E+02</pdfrwt>
<pdfrwt beam="1">  1       -2 0.16688331E-02 0.20105511E+02</pdfrwt>
<totfact> 0.38789120E+06</totfact>
</mgrwt>
</event>
<event>
 5    1  0.1607476E-006  0.2000286E+02  0.7818608E-02  0.1745271E+00
         -2   -1    0    0    0  501 -0.00000000000E+00  0.00000000000E+00  0.11161798967E+01  0.11161829249E+01  0.26000000000E-02 0. -1.
          2   -1    0    0  501    0  0.00000000000E+00 -0.00000000000E+00 -0.89616758035E+02  0.89616758073E+02  0.26000000000E-02 0.  1.
       1023    2    1    2    0    0  0.00000000000E+00  0.00000000000E+00 -0.88500578138E+02  0.90732940997E+02  0.20002856078E+02 0.  0.
        -13    1    3    3    0    0  0.54610313114E+01 -0.83778158072E+01 -0.43878180997E+02  0.45003517649E+02  0.10570000000E+00 0.  1.
         13    1    3    3    0    0 -0.54610313114E+01  0.83778158072E+01 -0.44622397141E+02  0.45729423348E+02  0.10570000000E+00 0. -1.
<mgrwt>
<rscale>  0 0.20002856E+02</rscale>
<asrwt>0</asrwt>
<pdfrwt beam="2">  1        2 0.13787188E-01 0.20002856E+02</pdfrwt>
<pdfrwt beam="1">  1       -2 0.17172029E-03 0.20002856E+02</pdfrwt>
<totfact> 0.51481332E+06</totfact>
</mgrwt>
</event>
<event>
 4    1  0.1607476E-006  0.2008462E+02  0.7818608E-02  0.1743650E+00
         -2   -1    0    0    0  501 -0.00000000000E+00  0.00000000000E+00  0.16112887696E+01  0.16112908673E+01  0.26000000000E-02 0. -1.
          2   -1    0    0  501    0  0.00000000000E+00 -0.00000000000E+00 -0.62588390364E+02  0.62588390418E+02  0.26000000000E-02 0.  1.
        -13    1    1    2    0    0 -0.75775817399E+01  0.65708060297E+01 -0.28917302821E+02  0.30607463336E+02  0.10570000000E+00 0.  1.
         13    1    1    2    0    0  0.75775817399E+01 -0.65708060297E+01 -0.32059798773E+02  0.33592217950E+02  0.10570000000E+00 0. -1.
<mgrwt>
<rscale>  0 0.20084625E+02</rscale>
<asrwt>0</asrwt>
<pdfrwt beam="2">  1        2 0.96289814E-02 0.20084625E+02</pdfrwt>
<pdfrwt beam="1">  1       -2 0.24789079E-03 0.20084625E+02</pdfrwt>
<totfact> 0.47595723E+06</totfact>
</mgrwt>
</event>
<event>
 5    1  0.1607476E-006  0.2000270E+02  0.7818608E-02  0.1745274E+00
          2   -1    0    0  501    0  0.00000000000E+00  0.00000000000E+00  0.87406813785E+02  0.87406813824E+02  0.26000000000E-02 0.  1.
         -2   -1    0    0    0  501 -0.00000000000E+00 -0.00000000000E+00 -0.11443828537E+01  0.11443858072E+01  0.26000000000E-02 0. -1.
       1023    2    1    2    0    0  0.00000000000E+00  0.00000000000E+00  0.86262430931E+02  0.88551199631E+02  0.20002698965E+02 0.  0.
        -13    1    3    3    0    0 -0.62820390607E+01  0.77811257264E+01  0.42791558803E+02  0.43944722204E+02  0.10570000000E+00 0.  1.
         13    1    3    3    0    0  0.62820390607E+01 -0.77811257264E+01  0.43470872129E+02  0.44606477427E+02  0.10570000000E+00 0. -1.
<mgrwt>
<rscale>  0 0.20002699E+02</rscale>
<asrwt>0</asrwt>
<pdfrwt beam="1">  1        2 0.13447203E-01 0.20002699E+02</pdfrwt>
<pdfrwt beam="2">  1       -2 0.17605912E-03 0.20002699E+02</pdfrwt>
<totfact> 0.51209543E+06</totfact>
</mgrwt>
</event>
<event>
 5    1  0.1607476E-006  0.2000204E+02  0.7818608E-02  0.1745287E+00
         -2   -1    0    0    0  501 -0.00000000000E+00  0.00000000000E+00  0.73698118432E+02  0.73698118477E+02  0.26000000000E-02 0.  1.
          2   -1    0    0  501    0  0.00000000000E+00 -0.00000000000E+00 -0.13571627472E+01  0.13571652377E+01  0.26000000000E-02 0. -1.
       1023    2    1    2    0    0  0.00000000000E+00  0.00000000000E+00  0.72340955684E+02  0.75055283715E+02  0.20002043501E+02 0.  0.
        -13    1    3    3    0    0  0.34331105053E+01 -0.93924006378E+01  0.36456892538E+02  0.37803698543E+02  0.10570000000E+00 0.  1.
         13    1    3    3    0    0 -0.34331105053E+01  0.93924006378E+01  0.35884063146E+02  0.37251585172E+02  0.10570000000E+00 0. -1.
<mgrwt>
<rscale>  0 0.20002044E+02</rscale>
<asrwt>0</asrwt>
<pdfrwt beam="2">  1        2 0.20879439E-03 0.20002044E+02</pdfrwt>
<pdfrwt beam="1">  1       -2 0.11338176E-01 0.20002044E+02</pdfrwt>
<totfact> 0.31765371E+06</totfact>
</mgrwt>
</event>
<event>
 5    1  0.1607476E-006  0.2000351E+02  0.7818608E-02  0.1745258E+00
          2   -1    0    0  501    0  0.00000000000E+00  0.00000000000E+00  0.19178104049E+01  0.19178121673E+01  0.26000000000E-02 0. -1.
         -2   -1    0    0    0  501 -0.00000000000E+00 -0.00000000000E+00 -0.52161063846E+02  0.52161063911E+02  0.26000000000E-02 0.  1.
       1023    2    1    2    0    0  0.00000000000E+00  0.00000000000E+00 -0.50243253441E+02  0.54078876078E+02  0.20003507730E+02 0.  0.
        -13    1    3    3    0    0 -0.27907602517E+01 -0.96038273572E+01 -0.24998768965E+02  0.26925294147E+02  0.10570000000E+00 0. -1.
         13    1    3    3    0    0  0.27907602517E+01  0.96038273572E+01 -0.25244484476E+02  0.27153581931E+02  0.10570000000E+00 0.  1.
<mgrwt>
<rscale>  0 0.20003508E+02</rscale>
<asrwt>0</asrwt>
<pdfrwt beam="1">  1        2 0.29504793E-03 0.20003508E+02</pdfrwt>
<pdfrwt beam="2">  1       -2 0.80247781E-02 0.20003508E+02</pdfrwt>
<totfact> 0.33676802E+06</totfact>
</mgrwt>
</event>
<event>
 5    1  0.1607476E-006  0.2001214E+02  0.7818608E-02  0.1745087E+00
          2   -1    0    0  501    0  0.00000000000E+00  0.00000000000E+00  0.19087413957E+02  0.19087414134E+02  0.26000000000E-02 0.  1.
         -2   -1    0    0    0  501 -0.00000000000E+00 -0.00000000000E+00 -0.52454184623E+01  0.52454191067E+01  0.26000000000E-02 0. -1.
       1023    2    1    2    0    0  0.00000000000E+00  0.00000000000E+00  0.13841995495E+02  0.24332833241E+02  0.20012144669E+02 0.  0.
        -13    1    3    3    0    0  0.87343345884E+01 -0.48738804351E+01  0.72357262273E+01  0.12345453322E+02  0.10570000000E+00 0. -1.
         13    1    3    3    0    0 -0.87343345884E+01  0.48738804351E+01  0.66062692677E+01  0.11987379919E+02  0.10570000000E+00 0.  1.
<mgrwt>
<rscale>  0 0.20012145E+02</rscale>
<asrwt>0</asrwt>
<pdfrwt beam="1">  1        2 0.29365253E-02 0.20012145E+02</pdfrwt>
<pdfrwt beam="2">  1       -2 0.80698752E-03 0.20012145E+02</pdfrwt>
<totfact> 0.41451232E+06</totfact>
</mgrwt>
</event>
<event>
 5    1  0.1607476E-006  0.2000843E+02  0.7818608E-02  0.1745160E+00
         -2   -1    0    0    0  501 -0.00000000000E+00  0.00000000000E+00  0.57793153486E+02  0.57793153544E+02  0.26000000000E-02 0.  1.
          2   -1    0    0  501    0  0.00000000000E+00 -0.00000000000E+00 -0.17317668948E+01  0.17317688465E+01  0.26000000000E-02 0. -1.
       1023    2    1    2    0    0  0.00000000000E+00  0.00000000000E+00  0.56061386591E+02  0.59524922391E+02  0.20008431201E+02 0.  0.
        -13    1    3    3    0    0 -0.60426050553E+01 -0.79724215600E+01  0.27959299213E+02  0.29695221272E+02  0.10570000000E+00 0. -1.
         13    1    3    3    0    0  0.60426050553E+01  0.79724215600E+01  0.28102087378E+02  0.29829701119E+02  0.10570000000E+00 0.  1.
<mgrwt>
<rscale>  0 0.20008431E+02</rscale>
<asrwt>0</asrwt>
<pdfrwt beam="2">  1        2 0.26642584E-03 0.20008431E+02</pdfrwt>
<pdfrwt beam="1">  1       -2 0.88912543E-02 0.20008431E+02</pdfrwt>
<totfact> 0.33130958E+06</totfact>
</mgrwt>
</event>
<event>
 5    1  0.1607476E-006  0.2000174E+02  0.7818608E-02  0.1745293E+00
          2   -1    0    0  501    0  0.00000000000E+00  0.00000000000E+00  0.14812998897E+02  0.14812999126E+02  0.26000000000E-02 0.  1.
         -2   -1    0    0    0  501 -0.00000000000E+00 -0.00000000000E+00 -0.67520045852E+01  0.67520050858E+01  0.26000000000E-02 0. -1.
       1023    2    1    2    0    0  0.00000000000E+00  0.00000000000E+00  0.80609943123E+01  0.21565004211E+02  0.20001744357E+02 0.  0.
        -13    1    3    3    0    0 -0.54893200113E+01 -0.83590095086E+01  0.40568556342E+01  0.10792354900E+02  0.10570000000E+00 0.  1.
         13    1    3    3    0    0  0.54893200113E+01  0.83590095086E+01  0.40041386780E+01  0.10772649312E+02  0.10570000000E+00 0. -1.
<mgrwt>
<rscale>  0 0.20001744E+02</rscale>
<asrwt>0</asrwt>
<pdfrwt beam="1">  1        2 0.22789229E-02 0.20001744E+02</pdfrwt>
<pdfrwt beam="2">  1       -2 0.10387700E-02 0.20001744E+02</pdfrwt>
<totfact> 0.40641281E+06</totfact>
</mgrwt>
</event>
<event>
 4    1  0.1607476E-006  0.2574540E+02  0.7818608E-02  0.1650521E+00
         -2   -1    0    0    0  501 -0.00000000000E+00  0.00000000000E+00  0.16799958835E+01  0.16799978954E+01  0.26000000000E-02 0.  1.
          2   -1    0    0  501    0  0.00000000000E+00 -0.00000000000E+00 -0.98634939427E+02  0.98634939461E+02  0.26000000000E-02 0. -1.
        -13    1    1    2    0    0  0.37756157741E+01 -0.12092476820E+02 -0.57372886271E+02  0.58754936147E+02  0.10570000000E+00 0. -1.
         13    1    1    2    0    0 -0.37756157741E+01  0.12092476820E+02 -0.39582057272E+02  0.41560001209E+02  0.10570000000E+00 0.  1.
<mgrwt>
<rscale>  0 0.25745399E+02</rscale>
<asrwt>0</asrwt>
<pdfrwt beam="2">  1        2 0.15174602E-01 0.25745399E+02</pdfrwt>
<pdfrwt beam="1">  1       -2 0.25846114E-03 0.25745399E+02</pdfrwt>
<totfact> 0.29750961E+06</totfact>
</mgrwt>
</event>
<event>
 4    1  0.1607476E-006  0.2001999E+02  0.7818608E-02  0.1744931E+00
          2   -1    0    0  501    0  0.00000000000E+00  0.00000000000E+00  0.14913458150E+02  0.14913458376E+02  0.26000000000E-02 0.  1.
         -2   -1    0    0    0  501 -0.00000000000E+00 -0.00000000000E+00 -0.67187648157E+01  0.67187653188E+01  0.26000000000E-02 0. -1.
        -13    1    1    2    0    0  0.41265872375E+01 -0.91166613183E+01  0.43306450025E+01  0.10904489646E+02  0.10570000000E+00 0. -1.
         13    1    1    2    0    0 -0.41265872375E+01  0.91166613183E+01  0.38640483315E+01  0.10727734049E+02  0.10570000000E+00 0.  1.
<mgrwt>
<rscale>  0 0.20019993E+02</rscale>
<asrwt>0</asrwt>
<pdfrwt beam="1">  1        2 0.22943782E-02 0.20019993E+02</pdfrwt>
<pdfrwt beam="2">  1       -2 0.10336562E-02 0.20019993E+02</pdfrwt>
<totfact> 0.40579044E+06</totfact>
</mgrwt>
</event>
<event>
 5    1  0.1607476E-006  0.2000175E+02  0.7818608E-02  0.1745293E+00
         -2   -1    0    0    0  501 -0.00000000000E+00  0.00000000000E+00  0.12804000191E+01  0.12804026589E+01  0.26000000000E-02 0.  1.
          2   -1    0    0  501    0  0.00000000000E+00 -0.00000000000E+00 -0.78114200298E+02  0.78114200341E+02  0.26000000000E-02 0. -1.
       1023    2    1    2    0    0  0.00000000000E+00  0.00000000000E+00 -0.76833800278E+02  0.79394603000E+02  0.20001752930E+02 0.  0.
        -13    1    3    3    0    0 -0.14312445494E+01  0.98971363883E+01 -0.38148037066E+02  0.39437110368E+02  0.10570000000E+00 0. -1.
         13    1    3    3    0    0  0.14312445494E+01 -0.98971363883E+01 -0.38685763212E+02  0.39957492632E+02  0.10570000000E+00 0.  1.
<mgrwt>
<rscale>  0 0.20001753E+02</rscale>
<asrwt>0</asrwt>
<pdfrwt beam="2">  1        2 0.12017566E-01 0.20001753E+02</pdfrwt>
<pdfrwt beam="1">  1       -2 0.19698489E-03 0.20001753E+02</pdfrwt>
<totfact> 0.50051463E+06</totfact>
</mgrwt>
</event>
<event>
 5    1  0.1607476E-006  0.2000127E+02  0.7818608E-02  0.1745303E+00
          2   -1    0    0  501    0  0.00000000000E+00  0.00000000000E+00  0.78341332954E+01  0.78341337268E+01  0.26000000000E-02 0.  1.
         -2   -1    0    0    0  501 -0.00000000000E+00 -0.00000000000E+00 -0.12766268998E+02  0.12766269262E+02  0.26000000000E-02 0. -1.
       1023    2    1    2    0    0  0.00000000000E+00  0.00000000000E+00 -0.49321357023E+01  0.20600402989E+02  0.20001265978E+02 0.  0.
        -13    1    3    3    0    0  0.86028010927E+01 -0.50983006331E+01 -0.24919545286E+01  0.10306399267E+02  0.10570000000E+00 0. -1.
         13    1    3    3    0    0 -0.86028010927E+01  0.50983006331E+01 -0.24401811738E+01  0.10294003722E+02  0.10570000000E+00 0.  1.
<mgrwt>
<rscale>  0 0.20001266E+02</rscale>
<asrwt>0</asrwt>
<pdfrwt beam="1">  1        2 0.12052513E-02 0.20001266E+02</pdfrwt>
<pdfrwt beam="2">  1       -2 0.19640414E-02 0.20001266E+02</pdfrwt>
<totfact> 0.38757443E+06</totfact>
</mgrwt>
</event>
<event>
 5    1  0.1607476E-006  0.2000555E+02  0.7818608E-02  0.1745218E+00
         -2   -1    0    0    0  501 -0.00000000000E+00  0.00000000000E+00  0.46163720455E+02  0.46163720528E+02  0.26000000000E-02 0. -1.
          2   -1    0    0  501    0  0.00000000000E+00 -0.00000000000E+00 -0.21674047702E+01  0.21674063297E+01  0.26000000000E-02 0.  1.
       1023    2    1    2    0    0  0.00000000000E+00  0.00000000000E+00  0.43996315685E+02  0.48331126858E+02  0.20005549968E+02 0.  0.
        -13    1    3    3    0    0 -0.99247929036E+01 -0.12263691013E+01  0.21522041101E+02  0.23732149523E+02  0.10570000000E+00 0. -1.
         13    1    3    3    0    0  0.99247929036E+01  0.12263691013E+01  0.22474274584E+02  0.24598977335E+02  0.10570000000E+00 0.  1.
<mgrwt>
<rscale>  0 0.20005550E+02</rscale>
<asrwt>0</asrwt>
<pdfrwt beam="2">  1        2 0.33344701E-03 0.20005550E+02</pdfrwt>
<pdfrwt beam="1">  1       -2 0.71021110E-02 0.20005550E+02</pdfrwt>
<totfact> 0.34258480E+06</totfact>
</mgrwt>
</event>
<event>
 5    1  0.1607476E-006  0.2000281E+02  0.7818608E-02  0.1745272E+00
          2   -1    0    0  501    0  0.00000000000E+00  0.00000000000E+00  0.31217239671E+01  0.31217250498E+01  0.26000000000E-02 0. -1.
         -2   -1    0    0    0  501 -0.00000000000E+00 -0.00000000000E+00 -0.32042569327E+02  0.32042569433E+02  0.26000000000E-02 0.  1.
       1023    2    1    2    0    0  0.00000000000E+00  0.00000000000E+00 -0.28920845360E+02  0.35164294482E+02  0.20002807556E+02 0.  0.
        -13    1    3    3    0    0 -0.97886529460E+01  0.20474624515E+01 -0.14312543734E+02  0.17460524323E+02  0.10570000000E+00 0. -1.
         13    1    3    3    0    0  0.97886529460E+01 -0.20474624515E+01 -0.14608301626E+02  0.17703770160E+02  0.10570000000E+00 0.  1.
<mgrwt>
<rscale>  0 0.20002808E+02</rscale>
<asrwt>0</asrwt>
<pdfrwt beam="1">  1        2 0.48026534E-03 0.20002808E+02</pdfrwt>
<pdfrwt beam="2">  1       -2 0.49296259E-02 0.20002808E+02</pdfrwt>
<totfact> 0.35806295E+06</totfact>
</mgrwt>
</event>
<event>
 4    1  0.1607476E-006  0.2028567E+02  0.7818608E-02  0.1739706E+00
          2   -1    0    0  501    0  0.00000000000E+00  0.00000000000E+00  0.76282835119E+01  0.76282839550E+01  0.26000000000E-02 0. -1.
         -2   -1    0    0    0  501 -0.00000000000E+00 -0.00000000000E+00 -0.13486265666E+02  0.13486265916E+02  0.26000000000E-02 0.  1.
        -13    1    1    2    0    0 -0.46291274527E+01  0.90225872028E+01 -0.27487326470E+01  0.10507264366E+02  0.10570000000E+00 0. -1.
         13    1    1    2    0    0  0.46291274527E+01 -0.90225872028E+01 -0.31092495069E+01  0.10607285505E+02  0.10570000000E+00 0.  1.
<mgrwt>
<rscale>  0 0.20285666E+02</rscale>
<asrwt>0</asrwt>
<pdfrwt beam="1">  1        2 0.11735821E-02 0.20285666E+02</pdfrwt>
<pdfrwt beam="2">  1       -2 0.20748102E-02 0.20285666E+02</pdfrwt>
<totfact> 0.37442337E+06</totfact>
</mgrwt>
</event>
<event>
 5    1  0.1607476E-006  0.2000308E+02  0.7818608E-02  0.1745267E+00
          2   -1    0    0  501    0  0.00000000000E+00  0.00000000000E+00  0.97605710563E+01  0.97605714026E+01  0.26000000000E-02 0.  1.
         -2   -1    0    0    0  501 -0.00000000000E+00 -0.00000000000E+00 -0.10248462168E+02  0.10248462498E+02  0.26000000000E-02 0. -1.
       1023    2    1    2    0    0  0.00000000000E+00  0.00000000000E+00 -0.48789111174E+00  0.20009033900E+02  0.20003084759E+02 0.  0.
        -13    1    3    3    0    0  0.90411312042E+01 -0.42748714723E+01 -0.18826997589E+00  0.10003159382E+02  0.10570000000E+00 0.  1.
         13    1    3    3    0    0 -0.90411312042E+01  0.42748714723E+01 -0.29962113585E+00  0.10005874518E+02  0.10570000000E+00 0. -1.
<mgrwt>
<rscale>  0 0.20003085E+02</rscale>
<asrwt>0</asrwt>
<pdfrwt beam="1">  1        2 0.15016264E-02 0.20003085E+02</pdfrwt>
<pdfrwt beam="2">  1       -2 0.15766865E-02 0.20003085E+02</pdfrwt>
<totfact> 0.39379302E+06</totfact>
</mgrwt>
</event>
<event>
 4    1  0.1607476E-006  0.2004644E+02  0.7818608E-02  0.1744406E+00
         -2   -1    0    0    0  501 -0.00000000000E+00  0.00000000000E+00  0.39920001368E+01  0.39920009835E+01  0.26000000000E-02 0.  1.
          2   -1    0    0  501    0  0.00000000000E+00 -0.00000000000E+00 -0.25166566642E+02  0.25166566777E+02  0.26000000000E-02 0. -1.
        -13    1    1    2    0    0 -0.22204680011E+01 -0.97719177377E+01 -0.10851214598E+02  0.14770947335E+02  0.10570000000E+00 0. -1.
         13    1    1    2    0    0  0.22204680011E+01  0.97719177377E+01 -0.10323351907E+02  0.14387620425E+02  0.10570000000E+00 0.  1.
<mgrwt>
<rscale>  0 0.20046441E+02</rscale>
<asrwt>0</asrwt>
<pdfrwt beam="2">  1        2 0.38717795E-02 0.20046441E+02</pdfrwt>
<pdfrwt beam="1">  1       -2 0.61415396E-03 0.20046441E+02</pdfrwt>
<totfact> 0.42363341E+06</totfact>
</mgrwt>
</event>
<event>
 4    1  0.1607476E-006  0.2006463E+02  0.7818608E-02  0.1744046E+00
          2   -1    0    0  501    0  0.00000000000E+00  0.00000000000E+00  0.28017096588E+01  0.28017108653E+01  0.26000000000E-02 0.  1.
         -2   -1    0    0    0  501 -0.00000000000E+00 -0.00000000000E+00 -0.35923526240E+02  0.35923526334E+02  0.26000000000E-02 0. -1.
        -13    1    1    2    0    0 -0.96824167978E+01  0.25923404625E+01 -0.15772855041E+02  0.18688594189E+02  0.10570000000E+00 0.  1.
         13    1    1    2    0    0  0.96824167978E+01 -0.25923404625E+01 -0.17348961540E+02  0.20036643011E+02  0.10570000000E+00 0. -1.
<mgrwt>
<rscale>  0 0.20064627E+02</rscale>
<asrwt>0</asrwt>
<pdfrwt beam="1">  1        2 0.43103238E-03 0.20064627E+02</pdfrwt>
<pdfrwt beam="2">  1       -2 0.55266961E-02 0.20064627E+02</pdfrwt>
<totfact> 0.35120079E+06</totfact>
</mgrwt>
</event>
<event>
 4    1  0.1607476E-006  0.2002776E+02  0.7818608E-02  0.1744777E+00
          2   -1    0    0  501    0  0.00000000000E+00  0.00000000000E+00  0.21446837084E+01  0.21446852844E+01  0.26000000000E-02 0.  1.
         -2   -1    0    0    0  501 -0.00000000000E+00 -0.00000000000E+00 -0.46756449596E+02  0.46756449668E+02  0.26000000000E-02 0. -1.
        -13    1    1    2    0    0  0.94682733930E+01  0.32339884705E+01 -0.23281881340E+02  0.25340956054E+02  0.10570000000E+00 0.  1.
         13    1    1    2    0    0 -0.94682733930E+01 -0.32339884705E+01 -0.21329884547E+02  0.23560178899E+02  0.10570000000E+00 0. -1.
<mgrwt>
<rscale>  0 0.20027764E+02</rscale>
<asrwt>0</asrwt>
<pdfrwt beam="1">  1        2 0.32995150E-03 0.20027764E+02</pdfrwt>
<pdfrwt beam="2">  1       -2 0.71932993E-02 0.20027764E+02</pdfrwt>
<totfact> 0.34116039E+06</totfact>
</mgrwt>
</event>
<event>
 5    1  0.1607476E-006  0.2000335E+02  0.7818608E-02  0.1745262E+00
          2   -1    0    0  501    0  0.00000000000E+00  0.00000000000E+00  0.39335980217E+01  0.39335988810E+01  0.26000000000E-02 0.  1.
         -2   -1    0    0    0  501 -0.00000000000E+00 -0.00000000000E+00 -0.25430520159E+02  0.25430520292E+02  0.26000000000E-02 0. -1.
       1023    2    1    2    0    0  0.00000000000E+00  0.00000000000E+00 -0.21496922137E+02  0.29364119173E+02  0.20003345556E+02 0.  0.
        -13    1    3    3    0    0  0.93756696994E+01 -0.34789599487E+01 -0.10933803666E+02  0.14817745434E+02  0.10570000000E+00 0.  1.
         13    1    3    3    0    0 -0.93756696994E+01  0.34789599487E+01 -0.10563118471E+02  0.14546373739E+02  0.10570000000E+00 0. -1.
<mgrwt>
<rscale>  0 0.20003346E+02</rscale>
<asrwt>0</asrwt>
<pdfrwt beam="1">  1        2 0.60516902E-03 0.20003346E+02</pdfrwt>
<pdfrwt beam="2">  1       -2 0.39123877E-02 0.20003346E+02</pdfrwt>
<totfact> 0.36637489E+06</totfact>
</mgrwt>
</event>
<event>
 4    1  0.1607476E-006  0.2012252E+02  0.7818608E-02  0.1742902E+00
         -2   -1    0    0    0  501 -0.00000000000E+00  0.00000000000E+00  0.90945122716E+02  0.90945122753E+02  0.26000000000E-02 0. -1.
          2   -1    0    0  501    0  0.00000000000E+00 -0.00000000000E+00 -0.11130762115E+01  0.11130792481E+01  0.26000000000E-02 0.  1.
        -13    1    1    2    0    0  0.10001448690E+02 -0.10885844261E+01  0.44632909036E+02  0.45752833065E+02  0.10570000000E+00 0.  1.
         13    1    1    2    0    0 -0.10001448690E+02  0.10885844261E+01  0.45199137468E+02  0.46305368936E+02  0.10570000000E+00 0. -1.
<mgrwt>
<rscale>  0 0.20122524E+02</rscale>
<asrwt>0</asrwt>
<pdfrwt beam="2">  1        2 0.17124270E-03 0.20122524E+02</pdfrwt>
<pdfrwt beam="1">  1       -2 0.13991560E-01 0.20122524E+02</pdfrwt>
<totfact> 0.30000634E+06</totfact>
</mgrwt>
</event>
<event>
 5    1  0.1607476E-006  0.2000699E+02  0.7818608E-02  0.1745189E+00
          2   -1    0    0  501    0  0.00000000000E+00  0.00000000000E+00  0.87621271849E+01  0.87621275707E+01  0.26000000000E-02 0. -1.
         -2   -1    0    0    0  501 -0.00000000000E+00 -0.00000000000E+00 -0.11420735492E+02  0.11420735788E+02  0.26000000000E-02 0.  1.
       1023    2    1    2    0    0  0.00000000000E+00  0.00000000000E+00 -0.26586083076E+01  0.20182863359E+02  0.20006993158E+02 0.  0.
        -13    1    3    3    0    0 -0.26287148599E+01 -0.96505974748E+01 -0.12074203728E+01  0.10075376414E+02  0.10570000000E+00 0. -1.
         13    1    3    3    0    0  0.26287148599E+01  0.96505974748E+01 -0.14511879348E+01  0.10107486945E+02  0.10570000000E+00 0.  1.
<mgrwt>
<rscale>  0 0.20006993E+02</rscale>
<asrwt>0</asrwt>
<pdfrwt beam="1">  1        2 0.13480196E-02 0.20006993E+02</pdfrwt>
<pdfrwt beam="2">  1       -2 0.17570363E-02 0.20006993E+02</pdfrwt>
<totfact> 0.39052113E+06</totfact>
</mgrwt>
</event>
<event>
 5    1  0.1607476E-006  0.2000251E+02  0.7818608E-02  0.1745278E+00
          2   -1    0    0  501    0  0.00000000000E+00  0.00000000000E+00  0.53969066437E+02  0.53969066500E+02  0.26000000000E-02 0. -1.
         -2   -1    0    0    0  501 -0.00000000000E+00 -0.00000000000E+00 -0.18533777352E+01  0.18533795589E+01  0.26000000000E-02 0.  1.
       1023    2    1    2    0    0  0.00000000000E+00  0.00000000000E+00  0.52115688702E+02  0.55822446059E+02  0.20002511720E+02 0.  0.
        -13    1    3    3    0    0 -0.99600631773E+01  0.89955675965E+00  0.25936664869E+02  0.27798090184E+02  0.10570000000E+00 0. -1.
         13    1    3    3    0    0  0.99600631773E+01 -0.89955675965E+00  0.26179023833E+02  0.28024355874E+02  0.10570000000E+00 0.  1.
<mgrwt>
<rscale>  0 0.20002512E+02</rscale>
<asrwt>0</asrwt>
<pdfrwt beam="1">  1        2 0.83029336E-02 0.20002512E+02</pdfrwt>
<pdfrwt beam="2">  1       -2 0.28513518E-03 0.20002512E+02</pdfrwt>
<totfact> 0.46864986E+06</totfact>
</mgrwt>
</event>
<event>
 5    1  0.1607476E-006  0.2000216E+02  0.7818608E-02  0.1745285E+00
         -2   -1    0    0    0  501 -0.00000000000E+00  0.00000000000E+00  0.56629317644E+01  0.56629323613E+01  0.26000000000E-02 0. -1.
          2   -1    0    0  501    0  0.00000000000E+00 -0.00000000000E+00 -0.17662501860E+02  0.17662502051E+02  0.26000000000E-02 0.  1.
       1023    2    1    2    0    0  0.00000000000E+00  0.00000000000E+00 -0.11999570095E+02  0.23325434412E+02  0.20002155085E+02 0.  0.
        -13    1    3    3    0    0 -0.10000451784E+02 -0.18626675397E-01 -0.60366005360E+01  0.11681656619E+02  0.10570000000E+00 0. -1.
         13    1    3    3    0    0  0.10000451784E+02  0.18626675397E-01 -0.59629695591E+01  0.11643777793E+02  0.10570000000E+00 0.  1.
<mgrwt>
<rscale>  0 0.20002155E+02</rscale>
<asrwt>0</asrwt>
<pdfrwt beam="2">  1        2 0.27173080E-02 0.20002155E+02</pdfrwt>
<pdfrwt beam="1">  1       -2 0.87122034E-03 0.20002155E+02</pdfrwt>
<totfact> 0.41224236E+06</totfact>
</mgrwt>
</event>
<event>
 5    1  0.1607476E-006  0.2000574E+02  0.7818608E-02  0.1745214E+00
          2   -1    0    0  501    0  0.00000000000E+00  0.00000000000E+00  0.36317786496E+02  0.36317786589E+02  0.26000000000E-02 0. -1.
         -2   -1    0    0    0  501 -0.00000000000E+00 -0.00000000000E+00 -0.27550521879E+01  0.27550534147E+01  0.26000000000E-02 0.  1.
       1023    2    1    2    0    0  0.00000000000E+00  0.00000000000E+00  0.33562734308E+02  0.39072840004E+02  0.20005741469E+02 0.  0.
        -13    1    3    3    0    0  0.88544329126E+01 -0.46503309481E+01  0.17055427744E+02  0.19771832190E+02  0.10570000000E+00 0.  1.
         13    1    3    3    0    0 -0.88544329126E+01  0.46503309481E+01  0.16507306564E+02  0.19301007814E+02  0.10570000000E+00 0. -1.
<mgrwt>
<rscale>  0 0.20005741E+02</rscale>
<asrwt>0</asrwt>
<pdfrwt beam="1">  1        2 0.55873517E-02 0.20005741E+02</pdfrwt>
<pdfrwt beam="2">  1       -2 0.42385430E-03 0.20005741E+02</pdfrwt>
<totfact> 0.44320041E+06</totfact>
</mgrwt>
</event>
<event>
 4    1  0.2029067E-006  0.2003345E+02  0.7818608E-02  0.1744664E+00
          2   -1    0    0  501    0  0.00000000000E+00  0.00000000000E+00  0.11067130807E+03  0.11067130810E+03  0.26000000000E-02 0.  1.
         -2   -1    0    0    0  501 -0.00000000000E+00 -0.00000000000E+00 -0.90659990628E+00  0.90660363449E+00  0.26000000000E-02 0. -1.
        -13    1    1    2    0    0 -0.58989761791E+01  0.80938004793E+01  0.54175465605E+02  0.55093554725E+02  0.10570000000E+00 0.  1.
         13    1    1    2    0    0  0.58989761791E+01 -0.80938004793E+01  0.55589242556E+02  0.56484357008E+02  0.10570000000E+00 0. -1.
<mgrwt>
<rscale>  0 0.20033453E+02</rscale>
<asrwt>0</asrwt>
<pdfrwt beam="1">  1        2 0.17026338E-01 0.20033453E+02</pdfrwt>
<pdfrwt beam="2">  1       -2 0.13947734E-03 0.20033453E+02</pdfrwt>
<totfact> 0.53819230E+06</totfact>
</mgrwt>
</event>
<event>
 5    1  0.1607476E-006  0.2000370E+02  0.7818608E-02  0.1745255E+00
         -2   -1    0    0    0  501 -0.00000000000E+00  0.00000000000E+00  0.34915169783E+01  0.34915179464E+01  0.26000000000E-02 0.  1.
          2   -1    0    0  501    0  0.00000000000E+00 -0.00000000000E+00 -0.28651440666E+02  0.28651440784E+02  0.26000000000E-02 0. -1.
       1023    2    1    2    0    0  0.00000000000E+00  0.00000000000E+00 -0.25159923688E+02  0.32142958731E+02  0.20003700557E+02 0.  0.
        -13    1    3    3    0    0  0.22935008837E+01  0.97341714214E+01 -0.12406921563E+02  0.15936031963E+02  0.10570000000E+00 0.  1.
         13    1    3    3    0    0 -0.22935008837E+01 -0.97341714214E+01 -0.12753002124E+02  0.16206926767E+02  0.10570000000E+00 0. -1.
<mgrwt>
<rscale>  0 0.20003701E+02</rscale>
<asrwt>0</asrwt>
<pdfrwt beam="2">  1        2 0.44079139E-02 0.20003701E+02</pdfrwt>
<pdfrwt beam="1">  1       -2 0.53715656E-03 0.20003701E+02</pdfrwt>
<totfact> 0.43139840E+06</totfact>
</mgrwt>
</event>
<event>
 4    1  0.1607476E-006  0.2002237E+02  0.7818608E-02  0.1744884E+00
          2   -1    0    0  501    0  0.00000000000E+00  0.00000000000E+00  0.70157751271E+02  0.70157751320E+02  0.26000000000E-02 0. -1.
         -2   -1    0    0    0  501 -0.00000000000E+00 -0.00000000000E+00 -0.14285483192E+01  0.14285506853E+01  0.26000000000E-02 0.  1.
        -13    1    1    2    0    0 -0.70546689371E+01  0.70991115923E+01  0.33590214332E+02  0.35049670620E+02  0.10570000000E+00 0. -1.
         13    1    1    2    0    0  0.70546689371E+01 -0.70991115923E+01  0.35138988620E+02  0.36536631385E+02  0.10570000000E+00 0.  1.
<mgrwt>
<rscale>  0 0.20022370E+02</rscale>
<asrwt>0</asrwt>
<pdfrwt beam="1">  1        2 0.10793503E-01 0.20022370E+02</pdfrwt>
<pdfrwt beam="2">  1       -2 0.21977680E-03 0.20022370E+02</pdfrwt>
<totfact> 0.48918914E+06</totfact>
</mgrwt>
</event>
<event>
 5    1  0.1607476E-006  0.2000195E+02  0.7818608E-02  0.1745289E+00
          2   -1    0    0  501    0  0.00000000000E+00  0.00000000000E+00  0.70220279480E+01  0.70220284294E+01  0.26000000000E-02 0.  1.
         -2   -1    0    0    0  501 -0.00000000000E+00 -0.00000000000E+00 -0.14243676170E+02  0.14243676407E+02  0.26000000000E-02 0. -1.
       1023    2    1    2    0    0  0.00000000000E+00  0.00000000000E+00 -0.72216482218E+01  0.21265704837E+02  0.20001949884E+02 0.  0.
        -13    1    3    3    0    0  0.25952267368E+00  0.99967539721E+01 -0.35292613629E+01  0.10605154419E+02  0.10570000000E+00 0.  1.
         13    1    3    3    0    0 -0.25952267368E+00 -0.99967539721E+01 -0.36923868590E+01  0.10660550417E+02  0.10570000000E+00 0. -1.
<mgrwt>
<rscale>  0 0.20001950E+02</rscale>
<asrwt>0</asrwt>
<pdfrwt beam="1">  1        2 0.10803121E-02 0.20001950E+02</pdfrwt>
<pdfrwt beam="2">  1       -2 0.21913348E-02 0.20001950E+02</pdfrwt>
<totfact> 0.38439640E+06</totfact>
</mgrwt>
</event>
<event>
 4    1  0.1607476E-006  0.2003572E+02  0.7818608E-02  0.1744619E+00
         -2   -1    0    0    0  501 -0.00000000000E+00  0.00000000000E+00  0.34010199808E+02  0.34010199908E+02  0.26000000000E-02 0. -1.
          2   -1    0    0  501    0  0.00000000000E+00 -0.00000000000E+00 -0.29508051914E+01  0.29508063369E+01  0.26000000000E-02 0.  1.
        -13    1    1    2    0    0 -0.25402989854E+01 -0.96895333225E+01  0.15674363418E+02  0.18602070207E+02  0.10570000000E+00 0.  1.
         13    1    1    2    0    0  0.25402989854E+01  0.96895333225E+01  0.15385031199E+02  0.18358936037E+02  0.10570000000E+00 0. -1.
<mgrwt>
<rscale>  0 0.20035718E+02</rscale>
<asrwt>0</asrwt>
<pdfrwt beam="2">  1        2 0.45397014E-03 0.20035718E+02</pdfrwt>
<pdfrwt beam="1">  1       -2 0.52323384E-02 0.20035718E+02</pdfrwt>
<totfact> 0.35448246E+06</totfact>
</mgrwt>
</event>
<event>
 4    1  0.1607476E-006  0.2004913E+02  0.7818608E-02  0.1744353E+00
         -2   -1    0    0    0  501 -0.00000000000E+00  0.00000000000E+00  0.10906141910E+03  0.10906141913E+03  0.26000000000E-02 0.  1.
          2   -1    0    0  501    0  0.00000000000E+00 -0.00000000000E+00 -0.92142256755E+00  0.92142623578E+00  0.26000000000E-02 0. -1.
        -13    1    1    2    0    0  0.94715973104E+01 -0.32742345166E+01  0.55283267053E+02  0.56184362200E+02  0.10570000000E+00 0. -1.
         13    1    1    2    0    0 -0.94715973104E+01  0.32742345166E+01  0.52856729474E+02  0.53798483162E+02  0.10570000000E+00 0.  1.
<mgrwt>
<rscale>  0 0.20049125E+02</rscale>
<asrwt>0</asrwt>
<pdfrwt beam="2">  1        2 0.14175766E-03 0.20049125E+02</pdfrwt>
<pdfrwt beam="1">  1       -2 0.16778673E-01 0.20049125E+02</pdfrwt>
<totfact> 0.28930509E+06</totfact>
</mgrwt>
</event>
<event>
 5    1  0.1607476E-006  0.2000156E+02  0.7818608E-02  0.1745297E+00
         -2   -1    0    0    0  501 -0.00000000000E+00  0.00000000000E+00  0.13584625181E+02  0.13584625430E+02  0.26000000000E-02 0. -1.
          2   -1    0    0  501    0  0.00000000000E+00 -0.00000000000E+00 -0.73624140054E+01  0.73624144644E+01  0.26000000000E-02 0.  1.
       1023    2    1    2    0    0  0.00000000000E+00  0.00000000000E+00  0.62222111754E+01  0.20947039894E+02  0.20001564149E+02 0.  0.
        -13    1    3    3    0    0  0.15187768327E+01  0.98840686048E+01  0.31682212804E+01  0.10490485872E+02  0.10570000000E+00 0. -1.
         13    1    3    3    0    0 -0.15187768327E+01 -0.98840686048E+01  0.30539898950E+01  0.10456554022E+02  0.10570000000E+00 0.  1.
<mgrwt>
<rscale>  0 0.20001564E+02</rscale>
<asrwt>0</asrwt>
<pdfrwt beam="2">  1        2 0.11326791E-02 0.20001564E+02</pdfrwt>
<pdfrwt beam="1">  1       -2 0.20899424E-02 0.20001564E+02</pdfrwt>
<totfact> 0.38577864E+06</totfact>
</mgrwt>
</event>
<event>
 5    1  0.1607476E-006  0.2000187E+02  0.7818608E-02  0.1745291E+00
          2   -1    0    0  501    0  0.00000000000E+00  0.00000000000E+00  0.75952319981E+01  0.75952324431E+01  0.26000000000E-02 0. -1.
         -2   -1    0    0    0  501 -0.00000000000E+00 -0.00000000000E+00 -0.13168620520E+02  0.13168620776E+02  0.26000000000E-02 0.  1.
       1023    2    1    2    0    0  0.00000000000E+00  0.00000000000E+00 -0.55733885217E+01  0.20763853220E+02  0.20001873435E+02 0.  0.
        -13    1    3    3    0    0 -0.31342736035E+01 -0.94964413525E+01 -0.27465781549E+01  0.10371158732E+02  0.10570000000E+00 0.  1.
         13    1    3    3    0    0  0.31342736035E+01  0.94964413525E+01 -0.28268103668E+01  0.10392694488E+02  0.10570000000E+00 0. -1.
<mgrwt>
<rscale>  0 0.20001873E+02</rscale>
<asrwt>0</asrwt>
<pdfrwt beam="1">  1        2 0.11684973E-02 0.20001873E+02</pdfrwt>
<pdfrwt beam="2">  1       -2 0.20259417E-02 0.20001873E+02</pdfrwt>
<totfact> 0.38665968E+06</totfact>
</mgrwt>
</event>
<event>
 5    1  0.1607476E-006  0.2000964E+02  0.7818608E-02  0.1745136E+00
          2   -1    0    0  501    0  0.00000000000E+00  0.00000000000E+00  0.15206480741E+01  0.15206502968E+01  0.26000000000E-02 0. -1.
         -2   -1    0    0    0  501 -0.00000000000E+00 -0.00000000000E+00 -0.65824827088E+02  0.65824827140E+02  0.26000000000E-02 0.  1.
       1023    2    1    2    0    0  0.00000000000E+00  0.00000000000E+00 -0.64304179014E+02  0.67345477436E+02  0.20009644986E+02 0.  0.
        -13    1    3    3    0    0 -0.91847519820E+01  0.39598960663E+01 -0.31439279966E+02  0.32992119409E+02  0.10570000000E+00 0.  1.
         13    1    3    3    0    0  0.91847519820E+01 -0.39598960663E+01 -0.32864899048E+02  0.34353358027E+02  0.10570000000E+00 0. -1.
<mgrwt>
<rscale>  0 0.20009645E+02</rscale>
<asrwt>0</asrwt>
<pdfrwt beam="1">  1        2 0.23394608E-03 0.20009645E+02</pdfrwt>
<pdfrwt beam="2">  1       -2 0.10126894E-01 0.20009645E+02</pdfrwt>
<totfact> 0.32408270E+06</totfact>
</mgrwt>
</event>
<event>
 5    1  0.1607476E-006  0.2000178E+02  0.7818608E-02  0.1745293E+00
          2   -1    0    0  501    0  0.00000000000E+00  0.00000000000E+00  0.79047463665E+02  0.79047463708E+02  0.26000000000E-02 0. -1.
         -2   -1    0    0    0  501 -0.00000000000E+00 -0.00000000000E+00 -0.12652871667E+01  0.12652898380E+01  0.26000000000E-02 0.  1.
       1023    2    1    2    0    0  0.00000000000E+00  0.00000000000E+00  0.77782176498E+02  0.80312753546E+02  0.20001784953E+02 0.  0.
        -13    1    3    3    0    0 -0.49526761326E+01 -0.86874385622E+01  0.38577788703E+02  0.39852948992E+02  0.10570000000E+00 0. -1.
         13    1    3    3    0    0  0.49526761326E+01  0.86874385622E+01  0.39204387795E+02  0.40459804554E+02  0.10570000000E+00 0.  1.
<mgrwt>
<rscale>  0 0.20001785E+02</rscale>
<asrwt>0</asrwt>
<pdfrwt beam="1">  1        2 0.12161150E-01 0.20001785E+02</pdfrwt>
<pdfrwt beam="2">  1       -2 0.19465975E-03 0.20001785E+02</pdfrwt>
<totfact> 0.50169418E+06</totfact>
</mgrwt>
</event>
<event>
 5    1  0.1607476E-006  0.2000233E+02  0.7818608E-02  0.1745282E+00
         -2   -1    0    0    0  501 -0.00000000000E+00  0.00000000000E+00  0.86682164955E+01  0.86682168854E+01  0.26000000000E-02 0.  1.
          2   -1    0    0  501    0  0.00000000000E+00 -0.00000000000E+00 -0.11539083571E+02  0.11539083864E+02  0.26000000000E-02 0. -1.
       1023    2    1    2    0    0  0.00000000000E+00  0.00000000000E+00 -0.28708670753E+01  0.20207300749E+02  0.20002328010E+02 0.  0.
        -13    1    3    3    0    0 -0.99421828319E+01  0.10790618488E+01 -0.14628226915E+01  0.10107541573E+02  0.10570000000E+00 0.  1.
         13    1    3    3    0    0  0.99421828319E+01 -0.10790618488E+01 -0.14080443838E+01  0.10099759176E+02  0.10570000000E+00 0. -1.
<mgrwt>
<rscale>  0 0.20002328E+02</rscale>
<asrwt>0</asrwt>
<pdfrwt beam="2">  1        2 0.17752437E-02 0.20002328E+02</pdfrwt>
<pdfrwt beam="1">  1       -2 0.13335718E-02 0.20002328E+02</pdfrwt>
<totfact> 0.39871446E+06</totfact>
</mgrwt>
</event>
<event>
 4    1  0.1607476E-006  0.2002566E+02  0.7818608E-02  0.1744818E+00
          2   -1    0    0  501    0  0.00000000000E+00  0.00000000000E+00  0.31590803062E+02  0.31590803169E+02  0.26000000000E-02 0.  1.
         -2   -1    0    0    0  501 -0.00000000000E+00 -0.00000000000E+00 -0.31736047858E+01  0.31736058508E+01  0.26000000000E-02 0. -1.
        -13    1    1    2    0    0  0.63168662107E+01 -0.77670862343E+01  0.13994963500E+02  0.17207574005E+02  0.10570000000E+00 0.  1.
         13    1    1    2    0    0 -0.63168662107E+01  0.77670862343E+01  0.14422234776E+02  0.17556835015E+02  0.10570000000E+00 0. -1.
<mgrwt>
<rscale>  0 0.20025658E+02</rscale>
<asrwt>0</asrwt>
<pdfrwt beam="1">  1        2 0.48601235E-02 0.20025658E+02</pdfrwt>
<pdfrwt beam="2">  1       -2 0.48824699E-03 0.20025658E+02</pdfrwt>
<totfact> 0.43498629E+06</totfact>
</mgrwt>
</event>
<event>
 5    1  0.1607476E-006  0.2000484E+02  0.7818608E-02  0.1745232E+00
         -2   -1    0    0    0  501 -0.00000000000E+00  0.00000000000E+00  0.11759145513E+02  0.11759145801E+02  0.26000000000E-02 0. -1.
          2   -1    0    0  501    0  0.00000000000E+00 -0.00000000000E+00 -0.85081361645E+01  0.85081365618E+01  0.26000000000E-02 0.  1.
       1023    2    1    2    0    0  0.00000000000E+00  0.00000000000E+00  0.32510093489E+01  0.20267282363E+02  0.20004841229E+02 0.  0.
        -13    1    3    3    0    0 -0.36220604520E+01  0.93229742209E+01  0.16167066218E+01  0.10132229914E+02  0.10570000000E+00 0.  1.
         13    1    3    3    0    0  0.36220604520E+01 -0.93229742209E+01  0.16343027271E+01  0.10135052449E+02  0.10570000000E+00 0. -1.
<mgrwt>
<rscale>  0 0.20004841E+02</rscale>
<asrwt>0</asrwt>
<pdfrwt beam="2">  1        2 0.13089441E-02 0.20004841E+02</pdfrwt>
<pdfrwt beam="1">  1       -2 0.18090993E-02 0.20004841E+02</pdfrwt>
<totfact> 0.38977584E+06</totfact>
</mgrwt>
</event>
<event>
 4    1  0.1607476E-006  0.2002755E+02  0.7818608E-02  0.1744781E+00
         -2   -1    0    0    0  501 -0.00000000000E+00  0.00000000000E+00  0.53385682005E+02  0.53385682069E+02  0.26000000000E-02 0. -1.
          2   -1    0    0  501    0  0.00000000000E+00 -0.00000000000E+00 -0.18783243471E+01  0.18783261465E+01  0.26000000000E-02 0.  1.
        -13    1    1    2    0    0  0.95244652816E+01 -0.30874787928E+01  0.26108571088E+02  0.27962772054E+02  0.10570000000E+00 0. -1.
         13    1    1    2    0    0 -0.95244652816E+01  0.30874787928E+01  0.25398786570E+02  0.27301236161E+02  0.10570000000E+00 0.  1.
<mgrwt>
<rscale>  0 0.20027549E+02</rscale>
<asrwt>0</asrwt>
<pdfrwt beam="2">  1        2 0.28897318E-03 0.20027549E+02</pdfrwt>
<pdfrwt beam="1">  1       -2 0.82131803E-02 0.20027549E+02</pdfrwt>
<totfact> 0.33472079E+06</totfact>
</mgrwt>
</event>
<event>
 4    1  0.1607476E-006  0.2007621E+02  0.7818608E-02  0.1743817E+00
          2   -1    0    0  501    0  0.00000000000E+00  0.00000000000E+00  0.45069519174E+02  0.45069519249E+02  0.26000000000E-02 0.  1.
         -2   -1    0    0    0  501 -0.00000000000E+00 -0.00000000000E+00 -0.22357352072E+01  0.22357367190E+01  0.26000000000E-02 0. -1.
        -13    1    1    2    0    0 -0.80696328637E+01 -0.59682151662E+01  0.21693783008E+02  0.23903346220E+02  0.10570000000E+00 0. -1.
         13    1    1    2    0    0  0.80696328637E+01  0.59682151662E+01  0.21140000959E+02  0.23401909748E+02  0.10570000000E+00 0.  1.
<mgrwt>
<rscale>  0 0.20076210E+02</rscale>
<asrwt>0</asrwt>
<pdfrwt beam="1">  1        2 0.69337732E-02 0.20076210E+02</pdfrwt>
<pdfrwt beam="2">  1       -2 0.34395934E-03 0.20076210E+02</pdfrwt>
<totfact> 0.45245741E+06</totfact>
</mgrwt>
</event>
<event>
 5    1  0.1607476E-006  0.2000453E+02  0.7818608E-02  0.1745238E+00
         -2   -1    0    0    0  501 -0.00000000000E+00  0.00000000000E+00  0.14641602311E+02  0.14641602542E+02  0.26000000000E-02 0. -1.
          2   -1    0    0  501    0  0.00000000000E+00 -0.00000000000E+00 -0.68329466303E+01  0.68329471250E+01  0.26000000000E-02 0.  1.
       1023    2    1    2    0    0  0.00000000000E+00  0.00000000000E+00  0.78086556808E+01  0.21474549667E+02  0.20004528984E+02 0.  0.
        -13    1    3    3    0    0 -0.13140848755E+01  0.99145847636E+01  0.38064558507E+01  0.10701686256E+02  0.10570000000E+00 0. -1.
         13    1    3    3    0    0  0.13140848755E+01 -0.99145847636E+01  0.40021998301E+01  0.10772863411E+02  0.10570000000E+00 0.  1.
<mgrwt>
<rscale>  0 0.20004529E+02</rscale>
<asrwt>0</asrwt>
<pdfrwt beam="2">  1        2 0.10512226E-02 0.20004529E+02</pdfrwt>
<pdfrwt beam="1">  1       -2 0.22525543E-02 0.20004529E+02</pdfrwt>
<totfact> 0.38349176E+06</totfact>
</mgrwt>
</event>
<event>
 4    1  0.1607476E-006  0.2003422E+02  0.7818608E-02  0.1744648E+00
         -2   -1    0    0    0  501 -0.00000000000E+00  0.00000000000E+00  0.43394102066E+02  0.43394102144E+02  0.26000000000E-02 0.  1.
          2   -1    0    0  501    0  0.00000000000E+00 -0.00000000000E+00 -0.23123531751E+01  0.23123546368E+01  0.26000000000E-02 0. -1.
        -13    1    1    2    0    0  0.99059131828E+01  0.13795043744E+01  0.21792964236E+02  0.23978628213E+02  0.10570000000E+00 0. -1.
         13    1    1    2    0    0 -0.99059131828E+01 -0.13795043744E+01  0.19288784655E+02  0.21727828567E+02  0.10570000000E+00 0.  1.
<mgrwt>
<rscale>  0 0.20034223E+02</rscale>
<asrwt>0</asrwt>
<pdfrwt beam="2">  1        2 0.35574680E-03 0.20034223E+02</pdfrwt>
<pdfrwt beam="1">  1       -2 0.66760151E-02 0.20034223E+02</pdfrwt>
<totfact> 0.34433636E+06</totfact>
</mgrwt>
</event>
<event>
 5    1  0.1607476E-006  0.2000261E+02  0.7818608E-02  0.1745276E+00
         -2   -1    0    0    0  501 -0.00000000000E+00  0.00000000000E+00  0.27936915319E+01  0.27936927417E+01  0.26000000000E-02 0.  1.
          2   -1    0    0  501    0  0.00000000000E+00 -0.00000000000E+00 -0.35804258443E+02  0.35804258537E+02  0.26000000000E-02 0. -1.
       1023    2    1    2    0    0  0.00000000000E+00  0.00000000000E+00 -0.33010566911E+02  0.38597951279E+02  0.20002607709E+02 0.  0.
        -13    1    3    3    0    0  0.82566569111E+01 -0.56428655898E+01 -0.16458377351E+02  0.19258859596E+02  0.10570000000E+00 0.  1.
         13    1    3    3    0    0 -0.82566569111E+01  0.56428655898E+01 -0.16552189560E+02  0.19339091683E+02  0.10570000000E+00 0. -1.
<mgrwt>
<rscale>  0 0.20002608E+02</rscale>
<asrwt>0</asrwt>
<pdfrwt beam="2">  1        2 0.55083472E-02 0.20002608E+02</pdfrwt>
<pdfrwt beam="1">  1       -2 0.42979882E-03 0.20002608E+02</pdfrwt>
<totfact> 0.44258109E+06</totfact>
</mgrwt>
</event>
<event>
 5    1  0.1607476E-006  0.2000535E+02  0.7818608E-02  0.1745222E+00
          2   -1    0    0  501    0  0.00000000000E+00  0.00000000000E+00  0.78504750072E+01  0.78504754377E+01  0.26000000000E-02 0.  1.
         -2   -1    0    0    0  501 -0.00000000000E+00 -0.00000000000E+00 -0.12744892258E+02  0.12744892524E+02  0.26000000000E-02 0. -1.
       1023    2    1    2    0    0  0.00000000000E+00  0.00000000000E+00 -0.48944172512E+01  0.20595367961E+02  0.20005345816E+02 0.  0.
        -13    1    3    3    0    0 -0.78889259616E+01  0.61471049341E+01 -0.23007420205E+01  0.10262876704E+02  0.10570000000E+00 0. -1.
         13    1    3    3    0    0  0.78889259616E+01 -0.61471049341E+01 -0.25936752307E+01  0.10332491258E+02  0.10570000000E+00 0.  1.
<mgrwt>
<rscale>  0 0.20005346E+02</rscale>
<asrwt>0</asrwt>
<pdfrwt beam="1">  1        2 0.12077654E-02 0.20005346E+02</pdfrwt>
<pdfrwt beam="2">  1       -2 0.19607527E-02 0.20005346E+02</pdfrwt>
<totfact> 0.38745237E+06</totfact>
</mgrwt>
</event>
<event>
 5    1  0.1607476E-006  0.2000508E+02  0.7818608E-02  0.1745227E+00
         -2   -1    0    0    0  501 -0.00000000000E+00  0.00000000000E+00  0.13389247013E+01  0.13389272257E+01  0.26000000000E-02 0.  1.
          2   -1    0    0  501    0  0.00000000000E+00 -0.00000000000E+00 -0.74724639736E+02  0.74724639781E+02  0.26000000000E-02 0. -1.
       1023    2    1    2    0    0  0.00000000000E+00  0.00000000000E+00 -0.73385715035E+02  0.76063567007E+02  0.20005075723E+02 0.  0.
        -13    1    3    3    0    0 -0.99679374156E+01  0.82322376662E+00 -0.36517894337E+02  0.37862979981E+02  0.10570000000E+00 0.  1.
         13    1    3    3    0    0  0.99679374156E+01 -0.82322376662E+00 -0.36867820697E+02  0.38200587026E+02  0.10570000000E+00 0. -1.
<mgrwt>
<rscale>  0 0.20005076E+02</rscale>
<asrwt>0</asrwt>
<pdfrwt beam="2">  1        2 0.11496095E-01 0.20005076E+02</pdfrwt>
<pdfrwt beam="1">  1       -2 0.20598867E-03 0.20005076E+02</pdfrwt>
<totfact> 0.49601445E+06</totfact>
</mgrwt>
</event>
<event>
 5    1  0.1607476E-006  0.2000920E+02  0.7818608E-02  0.1745145E+00
         -2   -1    0    0    0  501 -0.00000000000E+00  0.00000000000E+00  0.45342948984E+02  0.45342949058E+02  0.26000000000E-02 0. -1.
          2   -1    0    0  501    0  0.00000000000E+00 -0.00000000000E+00 -0.22074429510E+01  0.22074444822E+01  0.26000000000E-02 0.  1.
       1023    2    1    2    0    0  0.00000000000E+00  0.00000000000E+00  0.43135506033E+02  0.47550393540E+02  0.20009199013E+02 0.  0.
        -13    1    3    3    0    0  0.15751262732E+00 -0.10002779247E+02  0.21518137611E+02  0.23730187981E+02  0.10570000000E+00 0. -1.
         13    1    3    3    0    0 -0.15751262732E+00  0.10002779247E+02  0.21617368422E+02  0.23820205559E+02  0.10570000000E+00 0.  1.
<mgrwt>
<rscale>  0 0.20009199E+02</rscale>
<asrwt>0</asrwt>
<pdfrwt beam="2">  1        2 0.33960675E-03 0.20009199E+02</pdfrwt>
<pdfrwt beam="1">  1       -2 0.69758380E-02 0.20009199E+02</pdfrwt>
<totfact> 0.34327902E+06</totfact>
</mgrwt>
</event>
<event>
 4    1  0.1607476E-006  0.2199848E+02  0.7818608E-02  0.1708278E+00
         -2   -1    0    0    0  501 -0.00000000000E+00  0.00000000000E+00  0.22894361251E+01  0.22894376014E+01  0.26000000000E-02 0. -1.
          2   -1    0    0  501    0  0.00000000000E+00 -0.00000000000E+00 -0.52844104985E+02  0.52844105049E+02  0.26000000000E-02 0.  1.
        -13    1    1    2    0    0  0.67141406670E+00  0.10288627588E+02 -0.34875108395E+02  0.36367444405E+02  0.10570000000E+00 0.  1.
         13    1    1    2    0    0 -0.67141406670E+00 -0.10288627588E+02 -0.15679560465E+02  0.18766098245E+02  0.10570000000E+00 0. -1.
<mgrwt>
<rscale>  0 0.21998477E+02</rscale>
<asrwt>0</asrwt>
<pdfrwt beam="2">  1        2 0.81298615E-02 0.21998477E+02</pdfrwt>
<pdfrwt beam="1">  1       -2 0.35222110E-03 0.21998477E+02</pdfrwt>
<totfact> 0.37724529E+06</totfact>
</mgrwt>
</event>
<event>
 5    1  0.1607476E-006  0.2000221E+02  0.7818608E-02  0.1745284E+00
          2   -1    0    0  501    0  0.00000000000E+00  0.00000000000E+00  0.35695716527E+01  0.35695725996E+01  0.26000000000E-02 0.  1.
         -2   -1    0    0    0  501 -0.00000000000E+00 -0.00000000000E+00 -0.28020765601E+02  0.28020765721E+02  0.26000000000E-02 0. -1.
       1023    2    1    2    0    0  0.00000000000E+00  0.00000000000E+00 -0.24451193948E+02  0.31590338321E+02  0.20002214621E+02 0.  0.
        -13    1    3    3    0    0 -0.72886077558E+01 -0.68468354233E+01 -0.12367004237E+02  0.15904619600E+02  0.10570000000E+00 0. -1.
         13    1    3    3    0    0  0.72886077558E+01  0.68468354233E+01 -0.12084189711E+02  0.15685718721E+02  0.10570000000E+00 0.  1.
<mgrwt>
<rscale>  0 0.20002215E+02</rscale>
<asrwt>0</asrwt>
<pdfrwt beam="1">  1        2 0.54916497E-03 0.20002215E+02</pdfrwt>
<pdfrwt beam="2">  1       -2 0.43108869E-02 0.20002215E+02</pdfrwt>
<totfact> 0.36303398E+06</totfact>
</mgrwt>
</event>
<event>
 5    1  0.1607476E-006  0.2000255E+02  0.7818608E-02  0.1745277E+00
         -2   -1    0    0    0  501 -0.00000000000E+00  0.00000000000E+00  0.16179806505E+02  0.16179806713E+02  0.26000000000E-02 0.  1.
          2   -1    0    0  501    0  0.00000000000E+00 -0.00000000000E+00 -0.61821179616E+01  0.61821185083E+01  0.26000000000E-02 0. -1.
       1023    2    1    2    0    0  0.00000000000E+00  0.00000000000E+00  0.99976885429E+01  0.22361925222E+02  0.20002547923E+02 0.  0.
        -13    1    3    3    0    0 -0.53833830543E+00 -0.99861149974E+01  0.49487542710E+01  0.11158568107E+02  0.10570000000E+00 0. -1.
         13    1    3    3    0    0  0.53833830543E+00  0.99861149974E+01  0.50489342720E+01  0.11203357115E+02  0.10570000000E+00 0.  1.
<mgrwt>
<rscale>  0 0.20002548E+02</rscale>
<asrwt>0</asrwt>
<pdfrwt beam="2">  1        2 0.95109513E-03 0.20002548E+02</pdfrwt>
<pdfrwt beam="1">  1       -2 0.24892011E-02 0.20002548E+02</pdfrwt>
<totfact> 0.38065341E+06</totfact>
</mgrwt>
</event>
<event>
 5    1  0.1607476E-006  0.2000195E+02  0.7818608E-02  0.1745289E+00
          2   -1    0    0  501    0  0.00000000000E+00  0.00000000000E+00  0.51316654021E+02  0.51316654087E+02  0.26000000000E-02 0.  1.
         -2   -1    0    0    0  501 -0.00000000000E+00 -0.00000000000E+00 -0.19490633624E+01  0.19490650966E+01  0.26000000000E-02 0. -1.
       1023    2    1    2    0    0  0.00000000000E+00  0.00000000000E+00  0.49367590659E+02  0.53265719184E+02  0.20001945723E+02 0.  0.
        -13    1    3    3    0    0 -0.49384787765E+00  0.99882118457E+01  0.24670726409E+02  0.26620747090E+02  0.10570000000E+00 0.  1.
         13    1    3    3    0    0  0.49384787765E+00 -0.99882118457E+01  0.24696864250E+02  0.26644972093E+02  0.10570000000E+00 0. -1.
<mgrwt>
<rscale>  0 0.20001946E+02</rscale>
<asrwt>0</asrwt>
<pdfrwt beam="1">  1        2 0.78948705E-02 0.20001946E+02</pdfrwt>
<pdfrwt beam="2">  1       -2 0.29985602E-03 0.20001946E+02</pdfrwt>
<totfact> 0.46501501E+06</totfact>
</mgrwt>
</event>
<event>
 5    1  0.1607476E-006  0.2000367E+02  0.7818608E-02  0.1745255E+00
          2   -1    0    0  501    0  0.00000000000E+00  0.00000000000E+00  0.98779771496E+02  0.98779771530E+02  0.26000000000E-02 0.  1.
         -2   -1    0    0    0  501 -0.00000000000E+00 -0.00000000000E+00 -0.10127226199E+01  0.10127259574E+01  0.26000000000E-02 0. -1.
       1023    2    1    2    0    0  0.00000000000E+00  0.00000000000E+00  0.97767048876E+02  0.99792497487E+02  0.20003667385E+02 0.  0.
        -13    1    3    3    0    0 -0.61330680071E+01 -0.79000559552E+01  0.48834277159E+02  0.49848001017E+02  0.10570000000E+00 0. -1.
         13    1    3    3    0    0  0.61330680071E+01  0.79000559552E+01  0.48932771717E+02  0.49944496471E+02  0.10570000000E+00 0.  1.
<mgrwt>
<rscale>  0 0.20003667E+02</rscale>
<asrwt>0</asrwt>
<pdfrwt beam="1">  1        2 0.15196888E-01 0.20003667E+02</pdfrwt>
<pdfrwt beam="2">  1       -2 0.15580374E-03 0.20003667E+02</pdfrwt>
<totfact> 0.52590318E+06</totfact>
</mgrwt>
</event>
<event>
 4    1  0.1607476E-006  0.2025139E+02  0.7818608E-02  0.1740375E+00
         -2   -1    0    0    0  501 -0.00000000000E+00  0.00000000000E+00  0.67396599768E+01  0.67396604783E+01  0.26000000000E-02 0.  1.
          2   -1    0    0  501    0  0.00000000000E+00 -0.00000000000E+00 -0.15212887058E+02  0.15212887280E+02  0.26000000000E-02 0. -1.
        -13    1    1    2    0    0  0.10120680671E+02 -0.98459318564E-01 -0.45444587057E+01  0.11095095713E+02  0.10570000000E+00 0.  1.
         13    1    1    2    0    0 -0.10120680671E+02  0.98459318564E-01 -0.39287683755E+01  0.10857452045E+02  0.10570000000E+00 0. -1.
<mgrwt>
<rscale>  0 0.20251389E+02</rscale>
<asrwt>0</asrwt>
<pdfrwt beam="2">  1        2 0.23404442E-02 0.20251389E+02</pdfrwt>
<pdfrwt beam="1">  1       -2 0.10368708E-02 0.20251389E+02</pdfrwt>
<totfact> 0.39597793E+06</totfact>
</mgrwt>
</event>
<event>
 4    1  0.1607476E-006  0.2001637E+02  0.7818608E-02  0.1745003E+00
         -2   -1    0    0    0  501 -0.00000000000E+00  0.00000000000E+00  0.35519057077E+02  0.35519057172E+02  0.26000000000E-02 0.  1.
          2   -1    0    0  501    0  0.00000000000E+00 -0.00000000000E+00 -0.28200008008E+01  0.28200019993E+01  0.26000000000E-02 0. -1.
        -13    1    1    2    0    0 -0.76263580075E+01 -0.64738369812E+01  0.15805343055E+02  0.18705398774E+02  0.10570000000E+00 0. -1.
         13    1    1    2    0    0  0.76263580075E+01  0.64738369812E+01  0.16893713222E+02  0.19633660398E+02  0.10570000000E+00 0.  1.
<mgrwt>
<rscale>  0 0.20016373E+02</rscale>
<asrwt>0</asrwt>
<pdfrwt beam="2">  1        2 0.43384639E-03 0.20016373E+02</pdfrwt>
<pdfrwt beam="1">  1       -2 0.54644703E-02 0.20016373E+02</pdfrwt>
<totfact> 0.35350766E+06</totfact>
</mgrwt>
</event>
<event>
 5    1  0.1607476E-006  0.2000565E+02  0.7818608E-02  0.1745216E+00
          2   -1    0    0  501    0  0.00000000000E+00  0.00000000000E+00  0.56224234171E+01  0.56224240182E+01  0.26000000000E-02 0.  1.
         -2   -1    0    0    0  501 -0.00000000000E+00 -0.00000000000E+00 -0.17795971280E+02  0.17795971470E+02  0.26000000000E-02 0. -1.
       1023    2    1    2    0    0  0.00000000000E+00  0.00000000000E+00 -0.12173547863E+02  0.23418395489E+02  0.20005648694E+02 0.  0.
        -13    1    3    3    0    0 -0.68605972525E+01  0.72754752860E+01 -0.58384899826E+01  0.11580132688E+02  0.10570000000E+00 0. -1.
         13    1    3    3    0    0  0.68605972525E+01 -0.72754752860E+01 -0.63350578807E+01  0.11838262801E+02  0.10570000000E+00 0.  1.
<mgrwt>
<rscale>  0 0.20005649E+02</rscale>
<asrwt>0</asrwt>
<pdfrwt beam="1">  1        2 0.86498829E-03 0.20005649E+02</pdfrwt>
<pdfrwt beam="2">  1       -2 0.27378418E-02 0.20005649E+02</pdfrwt>
<totfact> 0.37768820E+06</totfact>
</mgrwt>
</event>
<event>
 5    1  0.1607476E-006  0.2000386E+02  0.7818608E-02  0.1745251E+00
         -2   -1    0    0    0  501 -0.00000000000E+00  0.00000000000E+00  0.16578677252E+01  0.16578697639E+01  0.26000000000E-02 0.  1.
          2   -1    0    0  501    0  0.00000000000E+00 -0.00000000000E+00 -0.60341688531E+02  0.60341688587E+02  0.26000000000E-02 0. -1.
       1023    2    1    2    0    0  0.00000000000E+00  0.00000000000E+00 -0.58683820806E+02  0.61999558351E+02  0.20003859911E+02 0.  0.
        -13    1    3    3    0    0  0.16450943843E+01  0.98651336033E+01 -0.29389301634E+02  0.31044635923E+02  0.10570000000E+00 0. -1.
         13    1    3    3    0    0 -0.16450943843E+01 -0.98651336033E+01 -0.29294519171E+02  0.30954922428E+02  0.10570000000E+00 0.  1.
<mgrwt>
<rscale>  0 0.20003860E+02</rscale>
<asrwt>0</asrwt>
<pdfrwt beam="2">  1        2 0.92833352E-02 0.20003860E+02</pdfrwt>
<pdfrwt beam="1">  1       -2 0.25505678E-03 0.20003860E+02</pdfrwt>
<totfact> 0.47723192E+06</totfact>
</mgrwt>
</event>
<event>
 5    1  0.1607476E-006  0.2000457E+02  0.7818608E-02  0.1745237E+00
          2   -1    0    0  501    0  0.00000000000E+00  0.00000000000E+00  0.54548554072E+01  0.54548560268E+01  0.26000000000E-02 0.  1.
         -2   -1    0    0    0  501 -0.00000000000E+00 -0.00000000000E+00 -0.18340670163E+02  0.18340670347E+02  0.26000000000E-02 0. -1.
       1023    2    1    2    0    0  0.00000000000E+00  0.00000000000E+00 -0.12885814755E+02  0.23795526374E+02  0.20004570815E+02 0.  0.
        -13    1    3    3    0    0 -0.93533136454E+01  0.35425090068E+01 -0.64115561046E+01  0.11880785765E+02  0.10570000000E+00 0.  1.
         13    1    3    3    0    0  0.93533136454E+01 -0.35425090068E+01 -0.64742586509E+01  0.11914740609E+02  0.10570000000E+00 0. -1.
<mgrwt>
<rscale>  0 0.20004571E+02</rscale>
<asrwt>0</asrwt>
<pdfrwt beam="1">  1        2 0.83920860E-03 0.20004571E+02</pdfrwt>
<pdfrwt beam="2">  1       -2 0.28216416E-02 0.20004571E+02</pdfrwt>
<totfact> 0.37681996E+06</totfact>
</mgrwt>
</event>
<event>
 5    1  0.1607476E-006  0.2001226E+02  0.7818608E-02  0.1745084E+00
          2   -1    0    0  501    0  0.00000000000E+00  0.00000000000E+00  0.13671647324E+02  0.13671647571E+02  0.26000000000E-02 0. -1.
         -2   -1    0    0    0  501 -0.00000000000E+00 -0.00000000000E+00 -0.73233778172E+01  0.73233782787E+01  0.26000000000E-02 0.  1.
       1023    2    1    2    0    0  0.00000000000E+00  0.00000000000E+00  0.63482695065E+01  0.20995025850E+02  0.20012260859E+02 0.  0.
        -13    1    3    3    0    0  0.33604035926E+00  0.99996058614E+01  0.30899888305E+01  0.10472069708E+02  0.10570000000E+00 0. -1.
         13    1    3    3    0    0 -0.33604035926E+00 -0.99996058614E+01  0.32582806760E+01  0.10522956142E+02  0.10570000000E+00 0.  1.
<mgrwt>
<rscale>  0 0.20012261E+02</rscale>
<asrwt>0</asrwt>
<pdfrwt beam="1">  1        2 0.21033304E-02 0.20012261E+02</pdfrwt>
<pdfrwt beam="2">  1       -2 0.11266736E-02 0.20012261E+02</pdfrwt>
<totfact> 0.40340284E+06</totfact>
</mgrwt>
</event>
<event>
 5    1  0.1607476E-006  0.2000123E+02  0.7818608E-02  0.1745304E+00
          2   -1    0    0  501    0  0.00000000000E+00  0.00000000000E+00  0.20828048800E+01  0.20828065028E+01  0.26000000000E-02 0.  1.
         -2   -1    0    0    0  501 -0.00000000000E+00 -0.00000000000E+00 -0.48018086140E+02  0.48018086210E+02  0.26000000000E-02 0. -1.
       1023    2    1    2    0    0  0.00000000000E+00  0.00000000000E+00 -0.45935281260E+02  0.50100892713E+02  0.20001234618E+02 0.  0.
        -13    1    3    3    0    0 -0.98827973712E+01 -0.15265503256E+01 -0.22883277871E+02  0.24973097894E+02  0.10570000000E+00 0.  1.
         13    1    3    3    0    0  0.98827973712E+01  0.15265503256E+01 -0.23052003389E+02  0.25127794820E+02  0.10570000000E+00 0. -1.
<mgrwt>
<rscale>  0 0.20001235E+02</rscale>
<asrwt>0</asrwt>
<pdfrwt beam="1">  1        2 0.32043169E-03 0.20001235E+02</pdfrwt>
<pdfrwt beam="2">  1       -2 0.73873972E-02 0.20001235E+02</pdfrwt>
<totfact> 0.34089084E+06</totfact>
</mgrwt>
</event>
<event>
 4    1  0.1607476E-006  0.2001756E+02  0.7818608E-02  0.1744979E+00
         -2   -1    0    0    0  501 -0.00000000000E+00  0.00000000000E+00  0.56491041994E+01  0.56491047977E+01  0.26000000000E-02 0. -1.
          2   -1    0    0  501    0  0.00000000000E+00 -0.00000000000E+00 -0.17733014132E+02  0.17733014322E+02  0.26000000000E-02 0.  1.
        -13    1    1    2    0    0  0.22578509742E+01  0.97466557286E+01 -0.57344758372E+01  0.11532153942E+02  0.10570000000E+00 0.  1.
         13    1    1    2    0    0 -0.22578509742E+01 -0.97466557286E+01 -0.63494340951E+01  0.11849965178E+02  0.10570000000E+00 0. -1.
<mgrwt>
<rscale>  0 0.20017558E+02</rscale>
<asrwt>0</asrwt>
<pdfrwt beam="2">  1        2 0.27281561E-02 0.20017558E+02</pdfrwt>
<pdfrwt beam="1">  1       -2 0.86909302E-03 0.20017558E+02</pdfrwt>
<totfact> 0.41166412E+06</totfact>
</mgrwt>
</event>
<event>
 4    1  0.1607476E-006  0.2003301E+02  0.7818608E-02  0.1744672E+00
          2   -1    0    0  501    0  0.00000000000E+00  0.00000000000E+00  0.42146197647E+02  0.42146197727E+02  0.26000000000E-02 0.  1.
         -2   -1    0    0    0  501 -0.00000000000E+00 -0.00000000000E+00 -0.23805316270E+01  0.23805330469E+01  0.26000000000E-02 0. -1.
        -13    1    1    2    0    0  0.67874301762E+01  0.73654090526E+01  0.19944045400E+02  0.22318032582E+02  0.10570000000E+00 0. -1.
         13    1    1    2    0    0 -0.67874301762E+01 -0.73654090526E+01  0.19821620620E+02  0.22208698193E+02  0.10570000000E+00 0.  1.
<mgrwt>
<rscale>  0 0.20033012E+02</rscale>
<asrwt>0</asrwt>
<pdfrwt beam="1">  1        2 0.64840296E-02 0.20033012E+02</pdfrwt>
<pdfrwt beam="2">  1       -2 0.36623580E-03 0.20033012E+02</pdfrwt>
<totfact> 0.45043826E+06</totfact>
</mgrwt>
</event>
<event>
 4    1  0.1607476E-006  0.2002192E+02  0.7818608E-02  0.1744892E+00
         -2   -1    0    0    0  501 -0.00000000000E+00  0.00000000000E+00  0.28825971318E+02  0.28825971436E+02  0.26000000000E-02 0.  1.
          2   -1    0    0  501    0  0.00000000000E+00 -0.00000000000E+00 -0.34767023657E+01  0.34767033379E+01  0.26000000000E-02 0. -1.
        -13    1    1    2    0    0  0.98070674810E+01 -0.20072855490E+01  0.12706898970E+02  0.16176656693E+02  0.10570000000E+00 0.  1.
         13    1    1    2    0    0 -0.98070674810E+01  0.20072855490E+01  0.12642369983E+02  0.16126018080E+02  0.10570000000E+00 0. -1.
<mgrwt>
<rscale>  0 0.20021922E+02</rscale>
<asrwt>0</asrwt>
<pdfrwt beam="2">  1        2 0.53487738E-03 0.20021922E+02</pdfrwt>
<pdfrwt beam="1">  1       -2 0.44347649E-02 0.20021922E+02</pdfrwt>
<totfact> 0.36123923E+06</totfact>
</mgrwt>
</event>
<event>
 4    1  0.1607476E-006  0.2001377E+02  0.7818608E-02  0.1745054E+00
         -2   -1    0    0    0  501 -0.00000000000E+00  0.00000000000E+00  0.29193060991E+02  0.29193061107E+02  0.26000000000E-02 0.  1.
          2   -1    0    0  501    0  0.00000000000E+00 -0.00000000000E+00 -0.34301909190E+01  0.34301919044E+01  0.26000000000E-02 0. -1.
        -13    1    1    2    0    0 -0.78771785087E+00 -0.99708832109E+01  0.12398968622E+02  0.15930618531E+02  0.10570000000E+00 0. -1.
         13    1    1    2    0    0  0.78771785087E+00  0.99708832109E+01  0.13363901450E+02  0.16692634480E+02  0.10570000000E+00 0.  1.
<mgrwt>
<rscale>  0 0.20013774E+02</rscale>
<asrwt>0</asrwt>
<pdfrwt beam="2">  1        2 0.52772176E-03 0.20013774E+02</pdfrwt>
<pdfrwt beam="1">  1       -2 0.44912402E-02 0.20013774E+02</pdfrwt>
<totfact> 0.36110089E+06</totfact>
</mgrwt>
</event>
<event>
 4    1  0.1607476E-006  0.2033597E+02  0.7818608E-02  0.1738728E+00
         -2   -1    0    0    0  501 -0.00000000000E+00  0.00000000000E+00  0.17611116209E+01  0.17611135401E+01  0.26000000000E-02 0.  1.
          2   -1    0    0  501    0  0.00000000000E+00 -0.00000000000E+00 -0.58706043704E+02  0.58706043761E+02  0.26000000000E-02 0. -1.
        -13    1    1    2    0    0  0.38389399419E+01 -0.93656405591E+01 -0.25614124696E+02  0.27541736318E+02  0.10570000000E+00 0.  1.
         13    1    1    2    0    0 -0.38389399419E+01  0.93656405591E+01 -0.31330807387E+02  0.32925420984E+02  0.10570000000E+00 0. -1.
<mgrwt>
<rscale>  0 0.20335974E+02</rscale>
<asrwt>0</asrwt>
<pdfrwt beam="2">  1        2 0.90316977E-02 0.20335974E+02</pdfrwt>
<pdfrwt beam="1">  1       -2 0.27094045E-03 0.20335974E+02</pdfrwt>
<totfact> 0.45792915E+06</totfact>
</mgrwt>
</event>
<event>
 5    1  0.1607476E-006  0.2000243E+02  0.7818608E-02  0.1745280E+00
          2   -1    0    0  501    0  0.00000000000E+00  0.00000000000E+00  0.49253868527E+02  0.49253868596E+02  0.26000000000E-02 0.  1.
         -2   -1    0    0    0  501 -0.00000000000E+00 -0.00000000000E+00 -0.20307892361E+01  0.20307909005E+01  0.26000000000E-02 0. -1.
       1023    2    1    2    0    0  0.00000000000E+00  0.00000000000E+00  0.47223079291E+02  0.51284659496E+02  0.20002426901E+02 0.  0.
        -13    1    3    3    0    0  0.99378679568E+01 -0.11181945162E+01  0.23711482881E+02  0.25734357800E+02  0.10570000000E+00 0.  1.
         13    1    3    3    0    0 -0.99378679568E+01  0.11181945162E+01  0.23511596410E+02  0.25550301696E+02  0.10570000000E+00 0. -1.
<mgrwt>
<rscale>  0 0.20002427E+02</rscale>
<asrwt>0</asrwt>
<pdfrwt beam="1">  1        2 0.75775180E-02 0.20002427E+02</pdfrwt>
<pdfrwt beam="2">  1       -2 0.31242926E-03 0.20002427E+02</pdfrwt>
<totfact> 0.46211182E+06</totfact>
</mgrwt>
</event>
<event>
 5    1  0.1607476E-006  0.2000920E+02  0.7818608E-02  0.1745145E+00
          2   -1    0    0  501    0  0.00000000000E+00  0.00000000000E+00  0.61578362664E+01  0.61578368153E+01  0.26000000000E-02 0.  1.
         -2   -1    0    0    0  501 -0.00000000000E+00 -0.00000000000E+00 -0.16254404766E+02  0.16254404974E+02  0.26000000000E-02 0. -1.
       1023    2    1    2    0    0  0.00000000000E+00  0.00000000000E+00 -0.10096568500E+02  0.22412241790E+02  0.20009195050E+02 0.  0.
        -13    1    3    3    0    0  0.68488573093E+01 -0.72901053456E+01 -0.52367695323E+01  0.11291032283E+02  0.10570000000E+00 0.  1.
         13    1    3    3    0    0 -0.68488573093E+01  0.72901053456E+01 -0.48597989678E+01  0.11121209507E+02  0.10570000000E+00 0. -1.
<mgrwt>
<rscale>  0 0.20009195E+02</rscale>
<asrwt>0</asrwt>
<pdfrwt beam="1">  1        2 0.94735949E-03 0.20009195E+02</pdfrwt>
<pdfrwt beam="2">  1       -2 0.25006777E-02 0.20009195E+02</pdfrwt>
<totfact> 0.38024432E+06</totfact>
</mgrwt>
</event>
<event>
 5    1  0.1607476E-006  0.2000421E+02  0.7818608E-02  0.1745244E+00
          2   -1    0    0  501    0  0.00000000000E+00  0.00000000000E+00  0.51840511058E+01  0.51840517578E+01  0.26000000000E-02 0. -1.
         -2   -1    0    0    0  501 -0.00000000000E+00 -0.00000000000E+00 -0.19298044109E+02  0.19298044285E+02  0.26000000000E-02 0.  1.
       1023    2    1    2    0    0  0.00000000000E+00  0.00000000000E+00 -0.14113993004E+02  0.24482096042E+02  0.20004205261E+02 0.  0.
        -13    1    3    3    0    0 -0.46862328498E+01 -0.88349700588E+01 -0.69152715864E+01  0.12159343233E+02  0.10570000000E+00 0. -1.
         13    1    3    3    0    0  0.46862328498E+01  0.88349700588E+01 -0.71987214172E+01  0.12322752809E+02  0.10570000000E+00 0.  1.
<mgrwt>
<rscale>  0 0.20004205E+02</rscale>
<asrwt>0</asrwt>
<pdfrwt beam="1">  1        2 0.79754640E-03 0.20004205E+02</pdfrwt>
<pdfrwt beam="2">  1       -2 0.29689299E-02 0.20004205E+02</pdfrwt>
<totfact> 0.37527714E+06</totfact>
</mgrwt>
</event>
<event>
 5    1  0.1607476E-006  0.2000281E+02  0.7818608E-02  0.1745272E+00
          2   -1    0    0  501    0  0.00000000000E+00  0.00000000000E+00  0.33854004362E+02  0.33854004462E+02  0.26000000000E-02 0.  1.
         -2   -1    0    0    0  501 -0.00000000000E+00 -0.00000000000E+00 -0.29546896461E+01  0.29546907901E+01  0.26000000000E-02 0. -1.
       1023    2    1    2    0    0  0.00000000000E+00  0.00000000000E+00  0.30899314716E+02  0.36808695252E+02  0.20002809709E+02 0.  0.
        -13    1    3    3    0    0 -0.36604039822E+00  0.99939932016E+01  0.15551132437E+02  0.18489531585E+02  0.10570000000E+00 0. -1.
         13    1    3    3    0    0  0.36604039822E+00 -0.99939932016E+01  0.15348182280E+02  0.18319163667E+02  0.10570000000E+00 0.  1.
<mgrwt>
<rscale>  0 0.20002810E+02</rscale>
<asrwt>0</asrwt>
<pdfrwt beam="1">  1        2 0.52083084E-02 0.20002810E+02</pdfrwt>
<pdfrwt beam="2">  1       -2 0.45456774E-03 0.20002810E+02</pdfrwt>
<totfact> 0.43960251E+06</totfact>
</mgrwt>
</event>
<event>
 5    1  0.1607476E-006  0.2000508E+02  0.7818608E-02  0.1745227E+00
         -2   -1    0    0    0  501 -0.00000000000E+00  0.00000000000E+00  0.98414517200E+00  0.98414860645E+00  0.26000000000E-02 0.  1.
          2   -1    0    0  501    0  0.00000000000E+00 -0.00000000000E+00 -0.10166244714E+03  0.10166244718E+03  0.26000000000E-02 0. -1.
       1023    2    1    2    0    0  0.00000000000E+00  0.00000000000E+00 -0.10067830197E+03  0.10264659578E+03  0.20005077806E+02 0.  0.
        -13    1    3    3    0    0  0.61669571023E+01  0.78727265567E+01 -0.49474018503E+02  0.50474754706E+02  0.10570000000E+00 0. -1.
         13    1    3    3    0    0 -0.61669571023E+01 -0.78727265567E+01 -0.51204283468E+02  0.52171841077E+02  0.10570000000E+00 0.  1.
<mgrwt>
<rscale>  0 0.20005078E+02</rscale>
<asrwt>0</asrwt>
<pdfrwt beam="2">  1        2 0.15640368E-01 0.20005078E+02</pdfrwt>
<pdfrwt beam="1">  1       -2 0.15140730E-03 0.20005078E+02</pdfrwt>
<totfact> 0.52926953E+06</totfact>
</mgrwt>
</event>
<event>
 5    1  0.2349024E-006  0.2000789E+02  0.7818608E-02  0.1745171E+00
         -2   -1    0    0    0  501 -0.00000000000E+00  0.00000000000E+00  0.87074922465E+00  0.87075310636E+00  0.26000000000E-02 0. -1.
          2   -1    0    0  501    0  0.00000000000E+00 -0.00000000000E+00 -0.11493402236E+03  0.11493402239E+03  0.26000000000E-02 0.  1.
       1023    2    1    2    0    0  0.00000000000E+00  0.00000000000E+00 -0.11406327313E+03  0.11580477550E+03  0.20007892175E+02 0.  0.
        -13    1    3    3    0    0  0.92994380974E+01 -0.36811949281E+01 -0.55918003332E+02  0.56805501618E+02  0.10570000000E+00 0.  1.
         13    1    3    3    0    0 -0.92994380974E+01  0.36811949281E+01 -0.58145269803E+02  0.58999273877E+02  0.10570000000E+00 0. -1.
<mgrwt>
<rscale>  0 0.20007892E+02</rscale>
<asrwt>0</asrwt>
<pdfrwt beam="2">  1        2 0.17682146E-01 0.20007892E+02</pdfrwt>
<pdfrwt beam="1">  1       -2 0.13396181E-03 0.20007892E+02</pdfrwt>
<totfact> 0.54464381E+06</totfact>
</mgrwt>
</event>
<event>
 5    1  0.1607476E-006  0.2000896E+02  0.7818608E-02  0.1745150E+00
         -2   -1    0    0    0  501 -0.00000000000E+00  0.00000000000E+00  0.11742377384E+01  0.11742406168E+01  0.26000000000E-02 0. -1.
          2   -1    0    0  501    0  0.00000000000E+00 -0.00000000000E+00 -0.85237878777E+02  0.85237878817E+02  0.26000000000E-02 0.  1.
       1023    2    1    2    0    0  0.00000000000E+00  0.00000000000E+00 -0.84063641039E+02  0.86412119433E+02  0.20008963999E+02 0.  0.
        -13    1    3    3    0    0  0.96143977073E+01 -0.27526233413E+01 -0.40931541834E+02  0.42135684021E+02  0.10570000000E+00 0. -1.
         13    1    3    3    0    0 -0.96143977073E+01  0.27526233413E+01 -0.43132099204E+02  0.44276435412E+02  0.10570000000E+00 0.  1.
<mgrwt>
<rscale>  0 0.20008964E+02</rscale>
<asrwt>0</asrwt>
<pdfrwt beam="2">  1        2 0.13113515E-01 0.20008964E+02</pdfrwt>
<pdfrwt beam="1">  1       -2 0.18065225E-03 0.20008964E+02</pdfrwt>
<totfact> 0.50905055E+06</totfact>
</mgrwt>
</event>
<event>
 4    1  0.1607476E-006  0.2007798E+02  0.7818608E-02  0.1743782E+00
         -2   -1    0    0    0  501 -0.00000000000E+00  0.00000000000E+00  0.32940994006E+01  0.32941004267E+01  0.26000000000E-02 0.  1.
          2   -1    0    0  501    0  0.00000000000E+00 -0.00000000000E+00 -0.30594489468E+02  0.30594489579E+02  0.26000000000E-02 0. -1.
        -13    1    1    2    0    0 -0.99121674318E+01  0.15397717604E+01 -0.13000480891E+02  0.16420890236E+02  0.10570000000E+00 0. -1.
         13    1    1    2    0    0  0.99121674318E+01 -0.15397717604E+01 -0.14299909177E+02  0.17467699769E+02  0.10570000000E+00 0.  1.
<mgrwt>
<rscale>  0 0.20077979E+02</rscale>
<asrwt>0</asrwt>
<pdfrwt beam="2">  1        2 0.47068444E-02 0.20077979E+02</pdfrwt>
<pdfrwt beam="1">  1       -2 0.50678463E-03 0.20077979E+02</pdfrwt>
<totfact> 0.43089774E+06</totfact>
</mgrwt>
</event>
<event>
 5    1  0.1607476E-006  0.2000342E+02  0.7818608E-02  0.1745260E+00
          2   -1    0    0  501    0  0.00000000000E+00  0.00000000000E+00  0.28288337192E+01  0.28288349141E+01  0.26000000000E-02 0. -1.
         -2   -1    0    0    0  501 -0.00000000000E+00 -0.00000000000E+00 -0.35362354996E+02  0.35362355091E+02  0.26000000000E-02 0.  1.
       1023    2    1    2    0    0  0.00000000000E+00  0.00000000000E+00 -0.32533521276E+02  0.38191190005E+02  0.20003424391E+02 0.  0.
        -13    1    3    3    0    0  0.67673440067E+01 -0.73631835633E+01 -0.16454383549E+02  0.19255423329E+02  0.10570000000E+00 0. -1.
         13    1    3    3    0    0 -0.67673440067E+01  0.73631835633E+01 -0.16079137727E+02  0.18935766677E+02  0.10570000000E+00 0.  1.
<mgrwt>
<rscale>  0 0.20003424E+02</rscale>
<asrwt>0</asrwt>
<pdfrwt beam="1">  1        2 0.43520531E-03 0.20003424E+02</pdfrwt>
<pdfrwt beam="2">  1       -2 0.54403621E-02 0.20003424E+02</pdfrwt>
<totfact> 0.35418479E+06</totfact>
</mgrwt>
</event>
<event>
 5    1  0.1607476E-006  0.2000190E+02  0.7818608E-02  0.1745290E+00
          2   -1    0    0  501    0  0.00000000000E+00  0.00000000000E+00  0.20999326759E+01  0.20999342855E+01  0.26000000000E-02 0.  1.
         -2   -1    0    0    0  501 -0.00000000000E+00 -0.00000000000E+00 -0.47629622074E+02  0.47629622145E+02  0.26000000000E-02 0. -1.
       1023    2    1    2    0    0  0.00000000000E+00  0.00000000000E+00 -0.45529689398E+02  0.49729556430E+02  0.20001904061E+02 0.  0.
        -13    1    3    3    0    0  0.48709907163E+01  0.87335245365E+01 -0.22558806817E+02  0.24676141086E+02  0.10570000000E+00 0.  1.
         13    1    3    3    0    0 -0.48709907163E+01 -0.87335245365E+01 -0.22970882581E+02  0.25053415345E+02  0.10570000000E+00 0. -1.
<mgrwt>
<rscale>  0 0.20001904E+02</rscale>
<asrwt>0</asrwt>
<pdfrwt beam="1">  1        2 0.32306673E-03 0.20001904E+02</pdfrwt>
<pdfrwt beam="2">  1       -2 0.73276335E-02 0.20001904E+02</pdfrwt>
<totfact> 0.34125202E+06</totfact>
</mgrwt>
</event>
<event>
 5    1  0.1607476E-006  0.2000284E+02  0.7818608E-02  0.1745272E+00
          2   -1    0    0  501    0  0.00000000000E+00  0.00000000000E+00  0.40454223515E+02  0.40454223599E+02  0.26000000000E-02 0. -1.
         -2   -1    0    0    0  501 -0.00000000000E+00 -0.00000000000E+00 -0.24726320706E+01  0.24726334375E+01  0.26000000000E-02 0.  1.
       1023    2    1    2    0    0  0.00000000000E+00  0.00000000000E+00  0.37981591444E+02  0.42926857036E+02  0.20002843956E+02 0.  0.
        -13    1    3    3    0    0 -0.62041609338E+01 -0.78437085901E+01  0.19084136216E+02  0.21546015987E+02  0.10570000000E+00 0. -1.
         13    1    3    3    0    0  0.62041609338E+01  0.78437085901E+01  0.18897455229E+02  0.21380841049E+02  0.10570000000E+00 0.  1.
<mgrwt>
<rscale>  0 0.20002844E+02</rscale>
<asrwt>0</asrwt>
<pdfrwt beam="1">  1        2 0.62237265E-02 0.20002844E+02</pdfrwt>
<pdfrwt beam="2">  1       -2 0.38040506E-03 0.20002844E+02</pdfrwt>
<totfact> 0.44948748E+06</totfact>
</mgrwt>
</event>
<event>
 5    1  0.1607476E-006  0.2000334E+02  0.7818608E-02  0.1745262E+00
         -2   -1    0    0    0  501 -0.00000000000E+00  0.00000000000E+00  0.83601894865E+01  0.83601898908E+01  0.26000000000E-02 0.  1.
          2   -1    0    0  501    0  0.00000000000E+00 -0.00000000000E+00 -0.11965440982E+02  0.11965441264E+02  0.26000000000E-02 0. -1.
       1023    2    1    2    0    0  0.00000000000E+00  0.00000000000E+00 -0.36052514951E+01  0.20325631155E+02  0.20003335809E+02 0.  0.
        -13    1    3    3    0    0  0.29186909502E+01  0.95651496149E+01 -0.19108517787E+01  0.10182012131E+02  0.10570000000E+00 0.  1.
         13    1    3    3    0    0 -0.29186909502E+01 -0.95651496149E+01 -0.16943997164E+01  0.10143619024E+02  0.10570000000E+00 0. -1.
<mgrwt>
<rscale>  0 0.20003336E+02</rscale>
<asrwt>0</asrwt>
<pdfrwt beam="2">  1        2 0.18408371E-02 0.20003336E+02</pdfrwt>
<pdfrwt beam="1">  1       -2 0.12861831E-02 0.20003336E+02</pdfrwt>
<totfact> 0.39974927E+06</totfact>
</mgrwt>
</event>
<event>
 4    1  0.1607476E-006  0.2035255E+02  0.7818608E-02  0.1738407E+00
          2   -1    0    0  501    0  0.00000000000E+00  0.00000000000E+00  0.99660277671E+01  0.99660281063E+01  0.26000000000E-02 0. -1.
         -2   -1    0    0    0  501 -0.00000000000E+00 -0.00000000000E+00 -0.10390952019E+02  0.10390952345E+02  0.26000000000E-02 0.  1.
        -13    1    1    2    0    0 -0.79549701925E+01  0.62424237680E+01  0.92618191905E+00  0.10154722581E+02  0.10570000000E+00 0.  1.
         13    1    1    2    0    0  0.79549701925E+01 -0.62424237680E+01 -0.13511061712E+01  0.10202257870E+02  0.10570000000E+00 0. -1.
<mgrwt>
<rscale>  0 0.20352545E+02</rscale>
<asrwt>0</asrwt>
<pdfrwt beam="1">  1        2 0.15332351E-02 0.20352545E+02</pdfrwt>
<pdfrwt beam="2">  1       -2 0.15986081E-02 0.20352545E+02</pdfrwt>
<totfact> 0.37905832E+06</totfact>
</mgrwt>
</event>
<event>
 5    1  0.1607476E-006  0.2000411E+02  0.7818608E-02  0.1745246E+00
          2   -1    0    0  501    0  0.00000000000E+00  0.00000000000E+00  0.17916083694E+02  0.17916083882E+02  0.26000000000E-02 0.  1.
         -2   -1    0    0    0  501 -0.00000000000E+00 -0.00000000000E+00 -0.55838693771E+01  0.55838699824E+01  0.26000000000E-02 0. -1.
       1023    2    1    2    0    0  0.00000000000E+00  0.00000000000E+00  0.12332214317E+02  0.23499953865E+02  0.20004107621E+02 0.  0.
        -13    1    3    3    0    0  0.96782623527E+01 -0.25196581688E+01  0.62972832145E+01  0.11818814993E+02  0.10570000000E+00 0.  1.
         13    1    3    3    0    0 -0.96782623527E+01  0.25196581688E+01  0.60349311021E+01  0.11681138872E+02  0.10570000000E+00 0. -1.
<mgrwt>
<rscale>  0 0.20004108E+02</rscale>
<asrwt>0</asrwt>
<pdfrwt beam="1">  1        2 0.27563206E-02 0.20004108E+02</pdfrwt>
<pdfrwt beam="2">  1       -2 0.85905689E-03 0.20004108E+02</pdfrwt>
<totfact> 0.41264636E+06</totfact>
</mgrwt>
</event>
<event>
 4    1  0.1607476E-006  0.2013505E+02  0.7818608E-02  0.1742656E+00
         -2   -1    0    0    0  501 -0.00000000000E+00  0.00000000000E+00  0.10895384497E+03  0.10895384500E+03  0.26000000000E-02 0.  1.
          2   -1    0    0  501    0  0.00000000000E+00 -0.00000000000E+00 -0.93025515953E+00  0.93025879293E+00  0.26000000000E-02 0. -1.
        -13    1    1    2    0    0  0.65241740797E+01 -0.75919623515E+01  0.48181957575E+02  0.49210923056E+02  0.10570000000E+00 0. -1.
         13    1    1    2    0    0 -0.65241740797E+01  0.75919623515E+01  0.59841632235E+02  0.60673180737E+02  0.10570000000E+00 0.  1.
<mgrwt>
<rscale>  0 0.20135052E+02</rscale>
<asrwt>0</asrwt>
<pdfrwt beam="2">  1        2 0.14311656E-03 0.20135052E+02</pdfrwt>
<pdfrwt beam="1">  1       -2 0.16762118E-01 0.20135052E+02</pdfrwt>
<totfact> 0.28669223E+06</totfact>
</mgrwt>
</event>
<event>
 5    1  0.1607476E-006  0.2000301E+02  0.7818608E-02  0.1745268E+00
          2   -1    0    0  501    0  0.00000000000E+00  0.00000000000E+00  0.13836223015E+01  0.13836247443E+01  0.26000000000E-02 0. -1.
         -2   -1    0    0    0  501 -0.00000000000E+00 -0.00000000000E+00 -0.72295734248E+02  0.72295734295E+02  0.26000000000E-02 0.  1.
       1023    2    1    2    0    0  0.00000000000E+00  0.00000000000E+00 -0.70912111947E+02  0.73679359039E+02  0.20003007966E+02 0.  0.
        -13    1    3    3    0    0  0.88497110377E+01 -0.46575175588E+01 -0.35105566543E+02  0.36502353761E+02  0.10570000000E+00 0. -1.
         13    1    3    3    0    0 -0.88497110377E+01  0.46575175588E+01 -0.35806545403E+02  0.37177005278E+02  0.10570000000E+00 0.  1.
<mgrwt>
<rscale>  0 0.20003008E+02</rscale>
<asrwt>0</asrwt>
<pdfrwt beam="1">  1        2 0.21286522E-03 0.20003008E+02</pdfrwt>
<pdfrwt beam="2">  1       -2 0.11122418E-01 0.20003008E+02</pdfrwt>
<totfact> 0.31879072E+06</totfact>
</mgrwt>
</event>
<event>
 4    1  0.1607476E-006  0.2009804E+02  0.7818608E-02  0.1743385E+00
         -2   -1    0    0    0  501 -0.00000000000E+00  0.00000000000E+00  0.23268039186E+01  0.23268053712E+01  0.26000000000E-02 0. -1.
          2   -1    0    0  501    0  0.00000000000E+00 -0.00000000000E+00 -0.43399770020E+02  0.43399770098E+02  0.26000000000E-02 0.  1.
        -13    1    1    2    0    0  0.71508601795E+01  0.70414880625E+01 -0.21683726894E+02  0.23893776176E+02  0.10570000000E+00 0.  1.
         13    1    1    2    0    0 -0.71508601795E+01 -0.70414880625E+01 -0.19389239207E+02  0.21832799293E+02  0.10570000000E+00 0. -1.
<mgrwt>
<rscale>  0 0.20098039E+02</rscale>
<asrwt>0</asrwt>
<pdfrwt beam="2">  1        2 0.66768872E-02 0.20098039E+02</pdfrwt>
<pdfrwt beam="1">  1       -2 0.35796998E-03 0.20098039E+02</pdfrwt>
<totfact> 0.44898672E+06</totfact>
</mgrwt>
</event>
<event>
 4    1  0.1607476E-006  0.2047861E+02  0.7818608E-02  0.1735974E+00
         -2   -1    0    0    0  501 -0.00000000000E+00  0.00000000000E+00  0.31093984786E+02  0.31093984895E+02  0.26000000000E-02 0. -1.
          2   -1    0    0  501    0  0.00000000000E+00 -0.00000000000E+00 -0.33718203704E+01  0.33718213729E+01  0.26000000000E-02 0.  1.
        -13    1    1    2    0    0 -0.69061264299E-01  0.10139124954E+02  0.16256382015E+02  0.19159534258E+02  0.10570000000E+00 0.  1.
         13    1    1    2    0    0  0.69061264299E-01 -0.10139124954E+02  0.11465782401E+02  0.15306272010E+02  0.10570000000E+00 0. -1.
<mgrwt>
<rscale>  0 0.20478608E+02</rscale>
<asrwt>0</asrwt>
<pdfrwt beam="2">  1        2 0.51874171E-03 0.20478608E+02</pdfrwt>
<pdfrwt beam="1">  1       -2 0.47836898E-02 0.20478608E+02</pdfrwt>
<totfact> 0.34120647E+06</totfact>
</mgrwt>
</event>
<event>
 4    1  0.1607476E-006  0.2001972E+02  0.7818608E-02  0.1744936E+00
         -2   -1    0    0    0  501 -0.00000000000E+00  0.00000000000E+00  0.94323007646E+01  0.94323011229E+01  0.26000000000E-02 0.  1.
          2   -1    0    0  501    0  0.00000000000E+00 -0.00000000000E+00 -0.10622784790E+02  0.10622785109E+02  0.26000000000E-02 0. -1.
        -13    1    1    2    0    0  0.64560555229E+01 -0.76426793385E+01 -0.90390155749E+00  0.10045865363E+02  0.10570000000E+00 0.  1.
         13    1    1    2    0    0 -0.64560555229E+01  0.76426793385E+01 -0.28658246837E+00  0.10009220868E+02  0.10570000000E+00 0. -1.
<mgrwt>
<rscale>  0 0.20019721E+02</rscale>
<asrwt>0</asrwt>
<pdfrwt beam="2">  1        2 0.16342746E-02 0.20019721E+02</pdfrwt>
<pdfrwt beam="1">  1       -2 0.14511232E-02 0.20019721E+02</pdfrwt>
<totfact> 0.39549647E+06</totfact>
</mgrwt>
</event>
<event>
 5    1  0.1607476E-006  0.2000176E+02  0.7818608E-02  0.1745293E+00
          2   -1    0    0  501    0  0.00000000000E+00  0.00000000000E+00  0.27590951529E+02  0.27590951652E+02  0.26000000000E-02 0.  1.
         -2   -1    0    0    0  501 -0.00000000000E+00 -0.00000000000E+00 -0.36250132169E+01  0.36250141493E+01  0.26000000000E-02 0. -1.
       1023    2    1    2    0    0  0.00000000000E+00  0.00000000000E+00  0.23965938312E+02  0.31215965801E+02  0.20001757965E+02 0.  0.
        -13    1    3    3    0    0  0.18516985644E+01 -0.98273904188E+01  0.11976362739E+02  0.15602910849E+02  0.10570000000E+00 0. -1.
         13    1    3    3    0    0 -0.18516985644E+01  0.98273904188E+01  0.11989575573E+02  0.15613054952E+02  0.10570000000E+00 0.  1.
<mgrwt>
<rscale>  0 0.20001758E+02</rscale>
<asrwt>0</asrwt>
<pdfrwt beam="1">  1        2 0.42447617E-02 0.20001758E+02</pdfrwt>
<pdfrwt beam="2">  1       -2 0.55769444E-03 0.20001758E+02</pdfrwt>
<totfact> 0.42977586E+06</totfact>
</mgrwt>
</event>
<event>
 5    1  0.1607476E-006  0.2000597E+02  0.7818608E-02  0.1745209E+00
         -2   -1    0    0    0  501 -0.00000000000E+00  0.00000000000E+00  0.44390817449E+01  0.44390825063E+01  0.26000000000E-02 0. -1.
          2   -1    0    0  501    0  0.00000000000E+00 -0.00000000000E+00 -0.22540640173E+02  0.22540640323E+02  0.26000000000E-02 0.  1.
       1023    2    1    2    0    0  0.00000000000E+00  0.00000000000E+00 -0.18101558428E+02  0.26979722829E+02  0.20005974768E+02 0.  0.
        -13    1    3    3    0    0  0.10429001863E+01  0.99477390558E+01 -0.91297720648E+01  0.13542860243E+02  0.10570000000E+00 0. -1.
         13    1    3    3    0    0 -0.10429001863E+01 -0.99477390558E+01 -0.89717863632E+01  0.13436862586E+02  0.10570000000E+00 0.  1.
<mgrwt>
<rscale>  0 0.20005975E+02</rscale>
<asrwt>0</asrwt>
<pdfrwt beam="2">  1        2 0.34677908E-02 0.20005975E+02</pdfrwt>
<pdfrwt beam="1">  1       -2 0.68293573E-03 0.20005975E+02</pdfrwt>
<totfact> 0.42105817E+06</totfact>
</mgrwt>
</event>
<event>
 5    1  0.1607476E-006  0.2000398E+02  0.7818608E-02  0.1745249E+00
          2   -1    0    0  501    0  0.00000000000E+00  0.00000000000E+00  0.16173210134E+02  0.16173210343E+02  0.26000000000E-02 0.  1.
         -2   -1    0    0    0  501 -0.00000000000E+00 -0.00000000000E+00 -0.61855246762E+01  0.61855252226E+01  0.26000000000E-02 0. -1.
       1023    2    1    2    0    0  0.00000000000E+00  0.00000000000E+00  0.99876854582E+01  0.22358735566E+02  0.20003979487E+02 0.  0.
        -13    1    3    3    0    0 -0.51606208705E+01 -0.85671479596E+01  0.49665924240E+01  0.11167195025E+02  0.10570000000E+00 0. -1.
         13    1    3    3    0    0  0.51606208705E+01  0.85671479596E+01  0.50210930342E+01  0.11191540541E+02  0.10570000000E+00 0.  1.
<mgrwt>
<rscale>  0 0.20003979E+02</rscale>
<asrwt>0</asrwt>
<pdfrwt beam="1">  1        2 0.24881862E-02 0.20003979E+02</pdfrwt>
<pdfrwt beam="2">  1       -2 0.95161923E-03 0.20003979E+02</pdfrwt>
<totfact> 0.40917312E+06</totfact>
</mgrwt>
</event>
<event>
 5    1  0.1607476E-006  0.2000524E+02  0.7818608E-02  0.1745224E+00
         -2   -1    0    0    0  501 -0.00000000000E+00  0.00000000000E+00  0.10559509022E+03  0.10559509025E+03  0.26000000000E-02 0. -1.
          2   -1    0    0  501    0  0.00000000000E+00 -0.00000000000E+00 -0.94750816607E+00  0.94751173332E+00  0.26000000000E-02 0.  1.
       1023    2    1    2    0    0  0.00000000000E+00  0.00000000000E+00  0.10464758205E+03  0.10654260198E+03  0.20005239515E+02 0.  0.
        -13    1    3    3    0    0 -0.88639596893E+01  0.46325543977E+01  0.51768076583E+02  0.52725470764E+02  0.10570000000E+00 0.  1.
         13    1    3    3    0    0  0.88639596893E+01 -0.46325543977E+01  0.52879505468E+02  0.53817131219E+02  0.10570000000E+00 0. -1.
<mgrwt>
<rscale>  0 0.20005240E+02</rscale>
<asrwt>0</asrwt>
<pdfrwt beam="2">  1        2 0.14577084E-03 0.20005240E+02</pdfrwt>
<pdfrwt beam="1">  1       -2 0.16245391E-01 0.20005240E+02</pdfrwt>
<totfact> 0.29312610E+06</totfact>
</mgrwt>
</event>
<event>
 4    1  0.1607476E-006  0.2036038E+02  0.7818608E-02  0.1738255E+00
         -2   -1    0    0    0  501 -0.00000000000E+00  0.00000000000E+00  0.12839873844E+02  0.12839874107E+02  0.26000000000E-02 0.  1.
          2   -1    0    0  501    0  0.00000000000E+00 -0.00000000000E+00 -0.80714395725E+01  0.80714399913E+01  0.26000000000E-02 0. -1.
        -13    1    1    2    0    0  0.98881049919E+01  0.20907061526E+01  0.11349873087E+01  0.10170793540E+02  0.10570000000E+00 0. -1.
         13    1    1    2    0    0 -0.98881049919E+01 -0.20907061526E+01  0.36334469625E+01  0.10740520558E+02  0.10570000000E+00 0.  1.
<mgrwt>
<rscale>  0 0.20360380E+02</rscale>
<asrwt>0</asrwt>
<pdfrwt beam="2">  1        2 0.12417600E-02 0.20360380E+02</pdfrwt>
<pdfrwt beam="1">  1       -2 0.19753653E-02 0.20360380E+02</pdfrwt>
<totfact> 0.37283045E+06</totfact>
</mgrwt>
</event>
<event>
 5    1  0.1607476E-006  0.2001030E+02  0.7818608E-02  0.1745123E+00
         -2   -1    0    0    0  501 -0.00000000000E+00  0.00000000000E+00  0.31580608424E+02  0.31580608531E+02  0.26000000000E-02 0. -1.
          2   -1    0    0  501    0  0.00000000000E+00 -0.00000000000E+00 -0.31697613848E+01  0.31697624512E+01  0.26000000000E-02 0.  1.
       1023    2    1    2    0    0  0.00000000000E+00  0.00000000000E+00  0.28410847039E+02  0.34750370982E+02  0.20010298696E+02 0.  0.
        -13    1    3    3    0    0  0.54568905607E+01 -0.83838974043E+01  0.13933872386E+02  0.17153173538E+02  0.10570000000E+00 0. -1.
         13    1    3    3    0    0 -0.54568905607E+01  0.83838974043E+01  0.14476974653E+02  0.17597197444E+02  0.10570000000E+00 0.  1.
<mgrwt>
<rscale>  0 0.20010299E+02</rscale>
<asrwt>0</asrwt>
<pdfrwt beam="2">  1        2 0.48765569E-03 0.20010299E+02</pdfrwt>
<pdfrwt beam="1">  1       -2 0.48585552E-02 0.20010299E+02</pdfrwt>
<totfact> 0.35832182E+06</totfact>
</mgrwt>
</event>
<event>
 4    1  0.1607476E-006  0.2015487E+02  0.7818608E-02  0.1742266E+00
         -2   -1    0    0    0  501 -0.00000000000E+00  0.00000000000E+00  0.10641293991E+03  0.10641293994E+03  0.26000000000E-02 0. -1.
          2   -1    0    0  501    0  0.00000000000E+00 -0.00000000000E+00 -0.95434340286E+00  0.95434694455E+00  0.26000000000E-02 0.  1.
        -13    1    1    2    0    0  0.54293589082E+01 -0.84653047079E+01  0.49342558069E+02  0.50357110037E+02  0.10570000000E+00 0.  1.
         13    1    1    2    0    0 -0.54293589082E+01  0.84653047079E+01  0.56116038433E+02  0.57010176845E+02  0.10570000000E+00 0. -1.
<mgrwt>
<rscale>  0 0.20154868E+02</rscale>
<asrwt>0</asrwt>
<pdfrwt beam="2">  1        2 0.14682234E-03 0.20154868E+02</pdfrwt>
<pdfrwt beam="1">  1       -2 0.16371221E-01 0.20154868E+02</pdfrwt>
<totfact> 0.28783036E+06</totfact>
</mgrwt>
</event>
<event>
 5    1  0.1607476E-006  0.2000195E+02  0.7818608E-02  0.1745289E+00
         -2   -1    0    0    0  501 -0.00000000000E+00  0.00000000000E+00  0.22859051396E+01  0.22859066182E+01  0.26000000000E-02 0. -1.
          2   -1    0    0  501    0  0.00000000000E+00 -0.00000000000E+00 -0.43754847774E+02  0.43754847851E+02  0.26000000000E-02 0.  1.
       1023    2    1    2    0    0  0.00000000000E+00  0.00000000000E+00 -0.41468942635E+02  0.46040754470E+02  0.20001946628E+02 0.  0.
        -13    1    3    3    0    0 -0.66117080188E+01  0.75028570460E+01 -0.20797423212E+02  0.23077078054E+02  0.10570000000E+00 0.  1.
         13    1    3    3    0    0  0.66117080188E+01 -0.75028570460E+01 -0.20671519423E+02  0.22963676415E+02  0.10570000000E+00 0. -1.
<mgrwt>
<rscale>  0 0.20001947E+02</rscale>
<asrwt>0</asrwt>
<pdfrwt beam="2">  1        2 0.67315145E-02 0.20001947E+02</pdfrwt>
<pdfrwt beam="1">  1       -2 0.35167787E-03 0.20001947E+02</pdfrwt>
<totfact> 0.45432735E+06</totfact>
</mgrwt>
</event>
<event>
 5    1  0.1607476E-006  0.2000178E+02  0.7818608E-02  0.1745293E+00
          2   -1    0    0  501    0  0.00000000000E+00  0.00000000000E+00  0.81294506912E+02  0.81294506954E+02  0.26000000000E-02 0. -1.
         -2   -1    0    0    0  501 -0.00000000000E+00 -0.00000000000E+00 -0.12303132190E+01  0.12303159663E+01  0.26000000000E-02 0.  1.
       1023    2    1    2    0    0  0.00000000000E+00  0.00000000000E+00  0.80064193693E+02  0.82524822920E+02  0.20001782077E+02 0.  0.
        -13    1    3    3    0    0 -0.95516636669E+01  0.29610821384E+01  0.39759575565E+02  0.40998015901E+02  0.10570000000E+00 0. -1.
         13    1    3    3    0    0  0.95516636669E+01 -0.29610821384E+01  0.40304618128E+02  0.41526807019E+02  0.10570000000E+00 0.  1.
<mgrwt>
<rscale>  0 0.20001782E+02</rscale>
<asrwt>0</asrwt>
<pdfrwt beam="1">  1        2 0.12506844E-01 0.20001782E+02</pdfrwt>
<pdfrwt beam="2">  1       -2 0.18927923E-03 0.20001782E+02</pdfrwt>
<totfact> 0.50452559E+06</totfact>
</mgrwt>
</event>
<event>
 4    1  0.1607476E-006  0.2013062E+02  0.7818608E-02  0.1742743E+00
          2   -1    0    0  501    0  0.00000000000E+00  0.00000000000E+00  0.29906867855E+02  0.29906867968E+02  0.26000000000E-02 0.  1.
         -2   -1    0    0    0  501 -0.00000000000E+00 -0.00000000000E+00 -0.33875305927E+01  0.33875315904E+01  0.26000000000E-02 0. -1.
        -13    1    1    2    0    0  0.95902779205E+00 -0.10012100772E+02  0.12646647803E+02  0.16158922282E+02  0.10570000000E+00 0.  1.
         13    1    1    2    0    0 -0.95902779205E+00  0.10012100772E+02  0.13872689459E+02  0.17135477276E+02  0.10570000000E+00 0. -1.
<mgrwt>
<rscale>  0 0.20130618E+02</rscale>
<asrwt>0</asrwt>
<pdfrwt beam="1">  1        2 0.46010568E-02 0.20130618E+02</pdfrwt>
<pdfrwt beam="2">  1       -2 0.52115863E-03 0.20130618E+02</pdfrwt>
<totfact> 0.42730019E+06</totfact>
</mgrwt>
</event>
<event>
 5    1  0.1607476E-006  0.2000684E+02  0.7818608E-02  0.1745192E+00
         -2   -1    0    0    0  501 -0.00000000000E+00  0.00000000000E+00  0.20878783543E+01  0.20878799732E+01  0.26000000000E-02 0.  1.
          2   -1    0    0  501    0  0.00000000000E+00 -0.00000000000E+00 -0.47928268259E+02  0.47928268330E+02  0.26000000000E-02 0. -1.
       1023    2    1    2    0    0  0.00000000000E+00  0.00000000000E+00 -0.45840389905E+02  0.50016148303E+02  0.20006842440E+02 0.  0.
        -13    1    3    3    0    0  0.99994419825E+01 -0.13357513776E+00 -0.23482441559E+02  0.25523379799E+02  0.10570000000E+00 0.  1.
         13    1    3    3    0    0 -0.99994419825E+01  0.13357513776E+00 -0.22357948346E+02  0.24492768504E+02  0.10570000000E+00 0. -1.
<mgrwt>
<rscale>  0 0.20006842E+02</rscale>
<asrwt>0</asrwt>
<pdfrwt beam="2">  1        2 0.73735791E-02 0.20006842E+02</pdfrwt>
<pdfrwt beam="1">  1       -2 0.32121222E-03 0.20006842E+02</pdfrwt>
<totfact> 0.46002181E+06</totfact>
</mgrwt>
</event>
<event>
 5    1  0.1607476E-006  0.2000826E+02  0.7818608E-02  0.1745164E+00
         -2   -1    0    0    0  501 -0.00000000000E+00  0.00000000000E+00  0.14331616601E+02  0.14331616837E+02  0.26000000000E-02 0.  1.
          2   -1    0    0  501    0  0.00000000000E+00 -0.00000000000E+00 -0.69833443214E+01  0.69833448054E+01  0.26000000000E-02 0. -1.
       1023    2    1    2    0    0  0.00000000000E+00  0.00000000000E+00  0.73482722799E+01  0.21314961643E+02  0.20008260402E+02 0.  0.
        -13    1    3    3    0    0 -0.70012092064E+01  0.71446683502E+01  0.35774779612E+01  0.10624158190E+02  0.10570000000E+00 0.  1.
         13    1    3    3    0    0  0.70012092064E+01 -0.71446683502E+01  0.37707943188E+01  0.10690803453E+02  0.10570000000E+00 0. -1.
<mgrwt>
<rscale>  0 0.20008260E+02</rscale>
<asrwt>0</asrwt>
<pdfrwt beam="2">  1        2 0.10743607E-02 0.20008260E+02</pdfrwt>
<pdfrwt beam="1">  1       -2 0.22048641E-02 0.20008260E+02</pdfrwt>
<totfact> 0.38395704E+06</totfact>
</mgrwt>
</event>
<event>
 5    1  0.1607476E-006  0.2000539E+02  0.7818608E-02  0.1745221E+00
          2   -1    0    0  501    0  0.00000000000E+00  0.00000000000E+00  0.14937993286E+01  0.14938015913E+01  0.26000000000E-02 0. -1.
         -2   -1    0    0    0  501 -0.00000000000E+00 -0.00000000000E+00 -0.66979463792E+02  0.66979463842E+02  0.26000000000E-02 0.  1.
       1023    2    1    2    0    0  0.00000000000E+00  0.00000000000E+00 -0.65485664463E+02  0.68473265433E+02  0.20005394996E+02 0.  0.
        -13    1    3    3    0    0  0.99669677494E+01 -0.82955602918E+00 -0.33150345684E+02  0.34626365688E+02  0.10570000000E+00 0. -1.
         13    1    3    3    0    0 -0.99669677494E+01  0.82955602918E+00 -0.32335318779E+02  0.33846899745E+02  0.10570000000E+00 0.  1.
<mgrwt>
<rscale>  0 0.20005395E+02</rscale>
<asrwt>0</asrwt>
<pdfrwt beam="1">  1        2 0.22981551E-03 0.20005395E+02</pdfrwt>
<pdfrwt beam="2">  1       -2 0.10304531E-01 0.20005395E+02</pdfrwt>
<totfact> 0.32323098E+06</totfact>
</mgrwt>
</event>
<event>
 4    1  0.1607476E-006  0.2010351E+02  0.7818608E-02  0.1743277E+00
         -2   -1    0    0    0  501 -0.00000000000E+00  0.00000000000E+00  0.35426945241E+01  0.35426954781E+01  0.26000000000E-02 0.  1.
          2   -1    0    0  501    0  0.00000000000E+00 -0.00000000000E+00 -0.28520032179E+02  0.28520032298E+02  0.26000000000E-02 0. -1.
        -13    1    1    2    0    0  0.62909845883E+01  0.78148816582E+01 -0.13468897557E+02  0.16794976520E+02  0.10570000000E+00 0. -1.
         13    1    1    2    0    0 -0.62909845883E+01 -0.78148816582E+01 -0.11508440098E+02  0.15267751256E+02  0.10570000000E+00 0.  1.
<mgrwt>
<rscale>  0 0.20103510E+02</rscale>
<asrwt>0</asrwt>
<pdfrwt beam="2">  1        2 0.43876972E-02 0.20103510E+02</pdfrwt>
<pdfrwt beam="1">  1       -2 0.54503003E-03 0.20103510E+02</pdfrwt>
<totfact> 0.42639799E+06</totfact>
</mgrwt>
</event>
<event>
 4    1  0.1607476E-006  0.2003133E+02  0.7818608E-02  0.1744706E+00
          2   -1    0    0  501    0  0.00000000000E+00  0.00000000000E+00  0.22777382182E+01  0.22777397021E+01  0.26000000000E-02 0. -1.
         -2   -1    0    0    0  501 -0.00000000000E+00 -0.00000000000E+00 -0.44040852155E+02  0.44040852232E+02  0.26000000000E-02 0.  1.
        -13    1    1    2    0    0  0.73893524672E+01 -0.67508100664E+01 -0.21703741761E+02  0.23900618096E+02  0.10570000000E+00 0. -1.
         13    1    1    2    0    0 -0.73893524672E+01  0.67508100664E+01 -0.20059372176E+02  0.22417973838E+02  0.10570000000E+00 0.  1.
<mgrwt>
<rscale>  0 0.20031332E+02</rscale>
<asrwt>0</asrwt>
<pdfrwt beam="1">  1        2 0.35042142E-03 0.20031332E+02</pdfrwt>
<pdfrwt beam="2">  1       -2 0.67755152E-02 0.20031332E+02</pdfrwt>
<totfact> 0.34377898E+06</totfact>
</mgrwt>
</event>
<event>
 5    1  0.1607476E-006  0.2000299E+02  0.7818608E-02  0.1745269E+00
         -2   -1    0    0    0  501 -0.00000000000E+00  0.00000000000E+00  0.23099987322E+01  0.23100001954E+01  0.26000000000E-02 0.  1.
          2   -1    0    0  501    0  0.00000000000E+00 -0.00000000000E+00 -0.43302985810E+02  0.43302985888E+02  0.26000000000E-02 0. -1.
       1023    2    1    2    0    0  0.00000000000E+00  0.00000000000E+00 -0.40992987077E+02  0.45612986083E+02  0.20002987524E+02 0.  0.
        -13    1    3    3    0    0 -0.11650585167E+01  0.99326050967E+01 -0.20340169674E+02  0.22666002740E+02  0.10570000000E+00 0.  1.
         13    1    3    3    0    0  0.11650585167E+01 -0.99326050967E+01 -0.20652817403E+02  0.22946983343E+02  0.10570000000E+00 0. -1.
<mgrwt>
<rscale>  0 0.20002988E+02</rscale>
<asrwt>0</asrwt>
<pdfrwt beam="2">  1        2 0.66619973E-02 0.20002988E+02</pdfrwt>
<pdfrwt beam="1">  1       -2 0.35538457E-03 0.20002988E+02</pdfrwt>
<totfact> 0.45362338E+06</totfact>
</mgrwt>
</event>
<event>
 5    1  0.1607476E-006  0.2000173E+02  0.7818608E-02  0.1745294E+00
          2   -1    0    0  501    0  0.00000000000E+00  0.00000000000E+00  0.34766600051E+02  0.34766600148E+02  0.26000000000E-02 0.  1.
         -2   -1    0    0    0  501 -0.00000000000E+00 -0.00000000000E+00 -0.28768212904E+01  0.28768224653E+01  0.26000000000E-02 0. -1.
       1023    2    1    2    0    0  0.00000000000E+00  0.00000000000E+00  0.31889778761E+02  0.37643422613E+02  0.20001731841E+02 0.  0.
        -13    1    3    3    0    0 -0.85666097713E+00  0.99635465355E+01  0.15953109910E+02  0.18828675362E+02  0.10570000000E+00 0. -1.
         13    1    3    3    0    0  0.85666097713E+00 -0.99635465355E+01  0.15936668851E+02  0.18814747252E+02  0.10570000000E+00 0.  1.
<mgrwt>
<rscale>  0 0.20001732E+02</rscale>
<asrwt>0</asrwt>
<pdfrwt beam="1">  1        2 0.53487079E-02 0.20001732E+02</pdfrwt>
<pdfrwt beam="2">  1       -2 0.44258798E-03 0.20001732E+02</pdfrwt>
<totfact> 0.44105023E+06</totfact>
</mgrwt>
</event>
<event>
 5    1  0.1607476E-006  0.2000169E+02  0.7818608E-02  0.1745294E+00
          2   -1    0    0  501    0  0.00000000000E+00  0.00000000000E+00  0.42727311281E+01  0.42727319192E+01  0.26000000000E-02 0. -1.
         -2   -1    0    0    0  501 -0.00000000000E+00 -0.00000000000E+00 -0.23408193375E+02  0.23408193519E+02  0.26000000000E-02 0.  1.
       1023    2    1    2    0    0  0.00000000000E+00  0.00000000000E+00 -0.19135462247E+02  0.27680925438E+02  0.20001692872E+02 0.  0.
        -13    1    3    3    0    0 -0.50167168591E+01  0.86508708989E+01 -0.96054184607E+01  0.13866515483E+02  0.10570000000E+00 0. -1.
         13    1    3    3    0    0  0.50167168591E+01 -0.86508708989E+01 -0.95300437860E+01  0.13814409955E+02  0.10570000000E+00 0.  1.
<mgrwt>
<rscale>  0 0.20001693E+02</rscale>
<asrwt>0</asrwt>
<pdfrwt beam="1">  1        2 0.65734334E-03 0.20001693E+02</pdfrwt>
<pdfrwt beam="2">  1       -2 0.36012605E-02 0.20001693E+02</pdfrwt>
<totfact> 0.36922306E+06</totfact>
</mgrwt>
</event>
<event>
 5    1  0.1847306E-006  0.2000163E+02  0.7818608E-02  0.1745296E+00
          2   -1    0    0  501    0  0.00000000000E+00  0.00000000000E+00  0.10301276231E+03  0.10301276235E+03  0.26000000000E-02 0. -1.
         -2   -1    0    0    0  501 -0.00000000000E+00 -0.00000000000E+00 -0.97091041583E+00  0.97091389709E+00  0.26000000000E-02 0.  1.
       1023    2    1    2    0    0  0.00000000000E+00  0.00000000000E+00  0.10204185190E+03  0.10398367624E+03  0.20001634593E+02 0.  0.
        -13    1    3    3    0    0 -0.84420555516E+01 -0.53604067235E+01  0.51301462817E+02  0.52267136155E+02  0.10570000000E+00 0. -1.
         13    1    3    3    0    0  0.84420555516E+01  0.53604067235E+01  0.50740389079E+02  0.51716540087E+02  0.10570000000E+00 0.  1.
<mgrwt>
<rscale>  0 0.20001635E+02</rscale>
<asrwt>0</asrwt>
<pdfrwt beam="1">  1        2 0.15848110E-01 0.20001635E+02</pdfrwt>
<pdfrwt beam="2">  1       -2 0.14937117E-03 0.20001635E+02</pdfrwt>
<totfact> 0.53107768E+06</totfact>
</mgrwt>
</event>
<event>
 5    1  0.1607476E-006  0.2000139E+02  0.7818608E-02  0.1745300E+00
          2   -1    0    0  501    0  0.00000000000E+00  0.00000000000E+00  0.85703366445E+02  0.85703366485E+02  0.26000000000E-02 0. -1.
         -2   -1    0    0    0  501 -0.00000000000E+00 -0.00000000000E+00 -0.11669762288E+01  0.11669791251E+01  0.26000000000E-02 0.  1.
       1023    2    1    2    0    0  0.00000000000E+00  0.00000000000E+00  0.84536390217E+02  0.86870345610E+02  0.20001391840E+02 0.  0.
        -13    1    3    3    0    0  0.56780201566E+01 -0.82318005269E+01  0.42193777519E+02  0.43362754601E+02  0.10570000000E+00 0. -1.
         13    1    3    3    0    0 -0.56780201566E+01  0.82318005269E+01  0.42342612698E+02  0.43507591009E+02  0.10570000000E+00 0.  1.
<mgrwt>
<rscale>  0 0.20001392E+02</rscale>
<asrwt>0</asrwt>
<pdfrwt beam="1">  1        2 0.13185135E-01 0.20001392E+02</pdfrwt>
<pdfrwt beam="2">  1       -2 0.17953500E-03 0.20001392E+02</pdfrwt>
<totfact> 0.51005608E+06</totfact>
</mgrwt>
</event>
<event>
 5    1  0.1607476E-006  0.2000338E+02  0.7818608E-02  0.1745261E+00
          2   -1    0    0  501    0  0.00000000000E+00  0.00000000000E+00  0.23510353518E+02  0.23510353661E+02  0.26000000000E-02 0.  1.
         -2   -1    0    0    0  501 -0.00000000000E+00 -0.00000000000E+00 -0.42548823085E+01  0.42548831029E+01  0.26000000000E-02 0. -1.
       1023    2    1    2    0    0  0.00000000000E+00  0.00000000000E+00  0.19255471209E+02  0.27765236764E+02  0.20003379742E+02 0.  0.
        -13    1    3    3    0    0  0.95875465844E+01 -0.28463033637E+01  0.96438890656E+01  0.13893820970E+02  0.10570000000E+00 0.  1.
         13    1    3    3    0    0 -0.95875465844E+01  0.28463033637E+01  0.96115821436E+01  0.13871415794E+02  0.10570000000E+00 0. -1.
<mgrwt>
<rscale>  0 0.20003380E+02</rscale>
<asrwt>0</asrwt>
<pdfrwt beam="1">  1        2 0.36169776E-02 0.20003380E+02</pdfrwt>
<pdfrwt beam="2">  1       -2 0.65459735E-03 0.20003380E+02</pdfrwt>
<totfact> 0.42286606E+06</totfact>
</mgrwt>
</event>
<event>
 5    1  0.1607476E-006  0.2000724E+02  0.7818608E-02  0.1745184E+00
         -2   -1    0    0    0  501 -0.00000000000E+00  0.00000000000E+00  0.16794064113E+02  0.16794064315E+02  0.26000000000E-02 0. -1.
          2   -1    0    0  501    0  0.00000000000E+00 -0.00000000000E+00 -0.59587986124E+01  0.59587991796E+01  0.26000000000E-02 0.  1.
       1023    2    1    2    0    0  0.00000000000E+00  0.00000000000E+00  0.10835265501E+02  0.22752863494E+02  0.20007244156E+02 0.  0.
        -13    1    3    3    0    0  0.23349922356E+01  0.97256043853E+01  0.55852067271E+01  0.11456233067E+02  0.10570000000E+00 0.  1.
         13    1    3    3    0    0 -0.23349922356E+01 -0.97256043853E+01  0.52500587737E+01  0.11296630428E+02  0.10570000000E+00 0. -1.
<mgrwt>
<rscale>  0 0.20007244E+02</rscale>
<asrwt>0</asrwt>
<pdfrwt beam="2">  1        2 0.91673833E-03 0.20007244E+02</pdfrwt>
<pdfrwt beam="1">  1       -2 0.25837022E-02 0.20007244E+02</pdfrwt>
<totfact> 0.37935700E+06</totfact>
</mgrwt>
</event>
<event>
 5    1  0.1607476E-006  0.2000300E+02  0.7818608E-02  0.1745269E+00
         -2   -1    0    0    0  501 -0.00000000000E+00  0.00000000000E+00  0.25861699382E+01  0.25861712452E+01  0.26000000000E-02 0. -1.
          2   -1    0    0  501    0  0.00000000000E+00 -0.00000000000E+00 -0.38678790426E+02  0.38678790514E+02  0.26000000000E-02 0.  1.
       1023    2    1    2    0    0  0.00000000000E+00  0.00000000000E+00 -0.36092620488E+02  0.41264961759E+02  0.20002995157E+02 0.  0.
        -13    1    3    3    0    0 -0.96101055350E+01  0.27685106782E+01 -0.18048885474E+02  0.20634733318E+02  0.10570000000E+00 0.  1.
         13    1    3    3    0    0  0.96101055350E+01 -0.27685106782E+01 -0.18043735014E+02  0.20630228441E+02  0.10570000000E+00 0. -1.
<mgrwt>
<rscale>  0 0.20002995E+02</rscale>
<asrwt>0</asrwt>
<pdfrwt beam="2">  1        2 0.59505828E-02 0.20002995E+02</pdfrwt>
<pdfrwt beam="1">  1       -2 0.39787243E-03 0.20002995E+02</pdfrwt>
<totfact> 0.44686290E+06</totfact>
</mgrwt>
</event>
<event>
 4    1  0.1607476E-006  0.2002592E+02  0.7818608E-02  0.1744813E+00
          2   -1    0    0  501    0  0.00000000000E+00  0.00000000000E+00  0.62277071739E+01  0.62277077166E+01  0.26000000000E-02 0.  1.
         -2   -1    0    0    0  501 -0.00000000000E+00 -0.00000000000E+00 -0.16098914347E+02  0.16098914557E+02  0.26000000000E-02 0. -1.
        -13    1    1    2    0    0  0.68123376460E+01 -0.73375697626E+01 -0.49544599879E+01  0.11171648065E+02  0.10570000000E+00 0. -1.
         13    1    1    2    0    0 -0.68123376460E+01  0.73375697626E+01 -0.49167471853E+01  0.11154974209E+02  0.10570000000E+00 0.  1.
<mgrwt>
<rscale>  0 0.20025916E+02</rscale>
<asrwt>0</asrwt>
<pdfrwt beam="1">  1        2 0.95810886E-03 0.20025916E+02</pdfrwt>
<pdfrwt beam="2">  1       -2 0.24767561E-02 0.20025916E+02</pdfrwt>
<totfact> 0.37984105E+06</totfact>
</mgrwt>
</event>
<event>
 4    1  0.1607476E-006  0.2007333E+02  0.7818608E-02  0.1743874E+00
         -2   -1    0    0    0  501 -0.00000000000E+00  0.00000000000E+00  0.51434811102E+02  0.51434811167E+02  0.26000000000E-02 0. -1.
          2   -1    0    0  501    0  0.00000000000E+00 -0.00000000000E+00 -0.19584902731E+01  0.19584919989E+01  0.26000000000E-02 0.  1.
        -13    1    1    2    0    0 -0.38671401500E+01 -0.92611260544E+01  0.24698364427E+02  0.26659775067E+02  0.10570000000E+00 0. -1.
         13    1    1    2    0    0  0.38671401500E+01  0.92611260544E+01  0.24777956402E+02  0.26733528100E+02  0.10570000000E+00 0.  1.
<mgrwt>
<rscale>  0 0.20073328E+02</rscale>
<asrwt>0</asrwt>
<pdfrwt beam="2">  1        2 0.30130636E-03 0.20073328E+02</pdfrwt>
<pdfrwt beam="1">  1       -2 0.79130474E-02 0.20073328E+02</pdfrwt>
<totfact> 0.33490593E+06</totfact>
</mgrwt>
</event>
<event>
 5    1  0.1607476E-006  0.2001023E+02  0.7818608E-02  0.1745125E+00
         -2   -1    0    0    0  501 -0.00000000000E+00  0.00000000000E+00  0.65913400494E+01  0.65913405622E+01  0.26000000000E-02 0. -1.
          2   -1    0    0  501    0  0.00000000000E+00 -0.00000000000E+00 -0.15186939748E+02  0.15186939970E+02  0.26000000000E-02 0.  1.
       1023    2    1    2    0    0  0.00000000000E+00  0.00000000000E+00 -0.85955996985E+01  0.21778280533E+02  0.20010226605E+02 0.  0.
        -13    1    3    3    0    0  0.83232902963E+01  0.55453364176E+01 -0.45714138040E+01  0.10997132081E+02  0.10570000000E+00 0.  1.
         13    1    3    3    0    0 -0.83232902963E+01 -0.55453364176E+01 -0.40241858945E+01  0.10781148452E+02  0.10570000000E+00 0. -1.
<mgrwt>
<rscale>  0 0.20010227E+02</rscale>
<asrwt>0</asrwt>
<pdfrwt beam="2">  1        2 0.23364523E-02 0.20010227E+02</pdfrwt>
<pdfrwt beam="1">  1       -2 0.10140524E-02 0.20010227E+02</pdfrwt>
<totfact> 0.40682418E+06</totfact>
</mgrwt>
</event>
<event>
 5    1  0.1607476E-006  0.2000299E+02  0.7818608E-02  0.1745269E+00
          2   -1    0    0  501    0  0.00000000000E+00  0.00000000000E+00  0.39099730608E+01  0.39099739253E+01  0.26000000000E-02 0.  1.
         -2   -1    0    0    0  501 -0.00000000000E+00 -0.00000000000E+00 -0.25583279687E+02  0.25583279820E+02  0.26000000000E-02 0. -1.
       1023    2    1    2    0    0  0.00000000000E+00  0.00000000000E+00 -0.21673306627E+02  0.29493253745E+02  0.20002994684E+02 0.  0.
        -13    1    3    3    0    0  0.63954869752E+01  0.76877434318E+01 -0.11017978903E+02  0.14879875144E+02  0.10570000000E+00 0.  1.
         13    1    3    3    0    0 -0.63954869752E+01 -0.76877434318E+01 -0.10655327724E+02  0.14613378600E+02  0.10570000000E+00 0. -1.
<mgrwt>
<rscale>  0 0.20002995E+02</rscale>
<asrwt>0</asrwt>
<pdfrwt beam="1">  1        2 0.60153441E-03 0.20002995E+02</pdfrwt>
<pdfrwt beam="2">  1       -2 0.39358892E-02 0.20002995E+02</pdfrwt>
<totfact> 0.36618406E+06</totfact>
</mgrwt>
</event>
<event>
 5    1  0.1607476E-006  0.2000192E+02  0.7818608E-02  0.1745290E+00
          2   -1    0    0  501    0  0.00000000000E+00  0.00000000000E+00  0.60003630954E+01  0.60003636587E+01  0.26000000000E-02 0. -1.
         -2   -1    0    0    0  501 -0.00000000000E+00 -0.00000000000E+00 -0.16668857336E+02  0.16668857539E+02  0.26000000000E-02 0.  1.
       1023    2    1    2    0    0  0.00000000000E+00  0.00000000000E+00 -0.10668494241E+02  0.22669221198E+02  0.20001920416E+02 0.  0.
        -13    1    3    3    0    0 -0.87745784535E+01  0.47965763397E+01 -0.52350481990E+01  0.11287926017E+02  0.10570000000E+00 0. -1.
         13    1    3    3    0    0  0.87745784535E+01 -0.47965763397E+01 -0.54334460419E+01  0.11381295181E+02  0.10570000000E+00 0.  1.
<mgrwt>
<rscale>  0 0.20001920E+02</rscale>
<asrwt>0</asrwt>
<pdfrwt beam="1">  1        2 0.92313285E-03 0.20001920E+02</pdfrwt>
<pdfrwt beam="2">  1       -2 0.25644396E-02 0.20001920E+02</pdfrwt>
<totfact> 0.37979786E+06</totfact>
</mgrwt>
</event>
<event>
 5    1  0.1607476E-006  0.2000243E+02  0.7818608E-02  0.1745280E+00
         -2   -1    0    0    0  501 -0.00000000000E+00  0.00000000000E+00  0.61951512197E+01  0.61951517653E+01  0.26000000000E-02 0. -1.
          2   -1    0    0  501    0  0.00000000000E+00 -0.00000000000E+00 -0.16145575282E+02  0.16145575492E+02  0.26000000000E-02 0.  1.
       1023    2    1    2    0    0  0.00000000000E+00  0.00000000000E+00 -0.99504240624E+01  0.22340727257E+02  0.20002428736E+02 0.  0.
        -13    1    3    3    0    0 -0.52480167973E+01 -0.85126593489E+01 -0.48882166483E+01  0.11131616414E+02  0.10570000000E+00 0.  1.
         13    1    3    3    0    0  0.52480167973E+01  0.85126593489E+01 -0.50622074141E+01  0.11209110843E+02  0.10570000000E+00 0. -1.
<mgrwt>
<rscale>  0 0.20002429E+02</rscale>
<asrwt>0</asrwt>
<pdfrwt beam="2">  1        2 0.24839347E-02 0.20002429E+02</pdfrwt>
<pdfrwt beam="1">  1       -2 0.95310025E-03 0.20002429E+02</pdfrwt>
<totfact> 0.40918810E+06</totfact>
</mgrwt>
</event>
<event>
 5    1  0.1607476E-006  0.2000362E+02  0.7818608E-02  0.1745256E+00
         -2   -1    0    0    0  501 -0.00000000000E+00  0.00000000000E+00  0.35417216090E+01  0.35417225634E+01  0.26000000000E-02 0.  1.
          2   -1    0    0  501    0  0.00000000000E+00 -0.00000000000E+00 -0.28245084776E+02  0.28245084895E+02  0.26000000000E-02 0. -1.
       1023    2    1    2    0    0  0.00000000000E+00  0.00000000000E+00 -0.24703363167E+02  0.31786807459E+02  0.20003624089E+02 0.  0.
        -13    1    3    3    0    0 -0.71210110357E+01  0.70208216536E+01 -0.12599577921E+02  0.16086058284E+02  0.10570000000E+00 0.  1.
         13    1    3    3    0    0  0.71210110357E+01 -0.70208216536E+01 -0.12103785246E+02  0.15700749174E+02  0.10570000000E+00 0. -1.
<mgrwt>
<rscale>  0 0.20003624E+02</rscale>
<asrwt>0</asrwt>
<pdfrwt beam="2">  1        2 0.43453976E-02 0.20003624E+02</pdfrwt>
<pdfrwt beam="1">  1       -2 0.54488035E-03 0.20003624E+02</pdfrwt>
<totfact> 0.43074692E+06</totfact>
</mgrwt>
</event>
<event>
 4    1  0.3353363E-006  0.2063232E+02  0.7818608E-02  0.1733038E+00
         -2   -1    0    0    0  501 -0.00000000000E+00  0.00000000000E+00  0.14723660924E+01  0.14723683880E+01  0.26000000000E-02 0.  1.
          2   -1    0    0  501    0  0.00000000000E+00 -0.00000000000E+00 -0.72280318788E+02  0.72280318835E+02  0.26000000000E-02 0. -1.
        -13    1    1    2    0    0  0.99296125551E+01  0.19685021155E+01 -0.42499210630E+02  0.43688285418E+02  0.10570000000E+00 0. -1.
         13    1    1    2    0    0 -0.99296125551E+01 -0.19685021155E+01 -0.28308742066E+02  0.30064401805E+02  0.10570000000E+00 0.  1.
<mgrwt>
<rscale>  0 0.20632322E+02</rscale>
<asrwt>0</asrwt>
<pdfrwt beam="2">  1        2 0.11120046E-01 0.20632322E+02</pdfrwt>
<pdfrwt beam="1">  1       -2 0.22651810E-03 0.20632322E+02</pdfrwt>
<totfact> 0.46017786E+06</totfact>
</mgrwt>
</event>
<event>
 5    1  0.1672694E-006  0.2000159E+02  0.7818608E-02  0.1745296E+00
         -2   -1    0    0    0  501 -0.00000000000E+00  0.00000000000E+00  0.17991025091E+01  0.17991043878E+01  0.26000000000E-02 0. -1.
          2   -1    0    0  501    0  0.00000000000E+00 -0.00000000000E+00 -0.55592090912E+02  0.55592090973E+02  0.26000000000E-02 0.  1.
       1023    2    1    2    0    0  0.00000000000E+00  0.00000000000E+00 -0.53792988403E+02  0.57391195360E+02  0.20001592527E+02 0.  0.
        -13    1    3    3    0    0 -0.93613864111E+01  0.35168041699E+01 -0.26793585402E+02  0.28599140867E+02  0.10570000000E+00 0. -1.
         13    1    3    3    0    0  0.93613864111E+01 -0.35168041699E+01 -0.26999403001E+02  0.28792054494E+02  0.10570000000E+00 0.  1.
<mgrwt>
<rscale>  0 0.20001593E+02</rscale>
<asrwt>0</asrwt>
<pdfrwt beam="2">  1        2 0.85526282E-02 0.20001593E+02</pdfrwt>
<pdfrwt beam="1">  1       -2 0.27678519E-03 0.20001593E+02</pdfrwt>
<totfact> 0.47092079E+06</totfact>
</mgrwt>
</event>
<event>
 5    1  0.1607476E-006  0.2001059E+02  0.7818608E-02  0.1745118E+00
         -2   -1    0    0    0  501 -0.00000000000E+00  0.00000000000E+00  0.15644136986E+01  0.15644158591E+01  0.26000000000E-02 0.  1.
          2   -1    0    0  501    0  0.00000000000E+00 -0.00000000000E+00 -0.63989368111E+02  0.63989368163E+02  0.26000000000E-02 0. -1.
       1023    2    1    2    0    0  0.00000000000E+00  0.00000000000E+00 -0.62424954412E+02  0.65553784023E+02  0.20010588855E+02 0.  0.
        -13    1    3    3    0    0 -0.97906196879E+01  0.20568821104E+01 -0.30924152144E+02  0.32502328474E+02  0.10570000000E+00 0. -1.
         13    1    3    3    0    0  0.97906196879E+01 -0.20568821104E+01 -0.31500802268E+02  0.33051455549E+02  0.10570000000E+00 0.  1.
<mgrwt>
<rscale>  0 0.20010589E+02</rscale>
<asrwt>0</asrwt>
<pdfrwt beam="2">  1        2 0.98445163E-02 0.20010589E+02</pdfrwt>
<pdfrwt beam="1">  1       -2 0.24067925E-03 0.20010589E+02</pdfrwt>
<totfact> 0.48173893E+06</totfact>
</mgrwt>
</event>
<event>
 4    1  0.2102659E-006  0.2010460E+02  0.7818608E-02  0.1743256E+00
         -2   -1    0    0    0  501 -0.00000000000E+00  0.00000000000E+00  0.88938377072E+00  0.88938757109E+00  0.26000000000E-02 0.  1.
          2   -1    0    0  501    0  0.00000000000E+00 -0.00000000000E+00 -0.11361627177E+03  0.11361627180E+03  0.26000000000E-02 0. -1.
        -13    1    1    2    0    0 -0.90760246954E+01  0.43200240271E+01 -0.56512305594E+02  0.57399378811E+02  0.10570000000E+00 0. -1.
         13    1    1    2    0    0  0.90760246954E+01 -0.43200240271E+01 -0.56214582403E+02  0.57106280557E+02  0.10570000000E+00 0.  1.
<mgrwt>
<rscale>  0 0.20104595E+02</rscale>
<asrwt>0</asrwt>
<pdfrwt beam="2">  1        2 0.17479415E-01 0.20104595E+02</pdfrwt>
<pdfrwt beam="1">  1       -2 0.13682866E-03 0.20104595E+02</pdfrwt>
<totfact> 0.53738298E+06</totfact>
</mgrwt>
</event>
<event>
 5    1  0.1607476E-006  0.2000294E+02  0.7818608E-02  0.1745270E+00
          2   -1    0    0  501    0  0.00000000000E+00  0.00000000000E+00  0.37461308661E+02  0.37461308751E+02  0.26000000000E-02 0. -1.
         -2   -1    0    0    0  501 -0.00000000000E+00 -0.00000000000E+00 -0.26702060101E+01  0.26702072759E+01  0.26000000000E-02 0.  1.
       1023    2    1    2    0    0  0.00000000000E+00  0.00000000000E+00  0.34791102651E+02  0.40131516027E+02  0.20002943658E+02 0.  0.
        -13    1    3    3    0    0  0.92417630828E+01  0.38216920405E+01  0.17500786856E+02  0.20156989557E+02  0.10570000000E+00 0. -1.
         13    1    3    3    0    0 -0.92417630828E+01 -0.38216920405E+01  0.17290315795E+02  0.19974526470E+02  0.10570000000E+00 0.  1.
<mgrwt>
<rscale>  0 0.20002944E+02</rscale>
<asrwt>0</asrwt>
<pdfrwt beam="1">  1        2 0.57632784E-02 0.20002944E+02</pdfrwt>
<pdfrwt beam="2">  1       -2 0.41080102E-03 0.20002944E+02</pdfrwt>
<totfact> 0.44505398E+06</totfact>
</mgrwt>
</event>
<event>
 5    1  0.1607476E-006  0.2001075E+02  0.7818608E-02  0.1745114E+00
         -2   -1    0    0    0  501 -0.00000000000E+00  0.00000000000E+00  0.23605629431E+01  0.23605643750E+01  0.26000000000E-02 0.  1.
          2   -1    0    0  501    0  0.00000000000E+00 -0.00000000000E+00 -0.42408330130E+02  0.42408330210E+02  0.26000000000E-02 0. -1.
       1023    2    1    2    0    0  0.00000000000E+00  0.00000000000E+00 -0.40047767187E+02  0.44768894585E+02  0.20010753751E+02 0.  0.
        -13    1    3    3    0    0 -0.12871402833E+01 -0.99180792806E+01 -0.19426212477E+02  0.21849803899E+02  0.10570000000E+00 0.  1.
         13    1    3    3    0    0  0.12871402833E+01  0.99180792806E+01 -0.20621554710E+02  0.22919090686E+02  0.10570000000E+00 0. -1.
<mgrwt>
<rscale>  0 0.20010754E+02</rscale>
<asrwt>0</asrwt>
<pdfrwt beam="2">  1        2 0.65243581E-02 0.20010754E+02</pdfrwt>
<pdfrwt beam="1">  1       -2 0.36316368E-03 0.20010754E+02</pdfrwt>
<totfact> 0.45193759E+06</totfact>
</mgrwt>
</event>
<event>
 5    1  0.1607476E-006  0.2000142E+02  0.7818608E-02  0.1745300E+00
          2   -1    0    0  501    0  0.00000000000E+00  0.00000000000E+00  0.12354689113E+02  0.12354689386E+02  0.26000000000E-02 0. -1.
         -2   -1    0    0    0  501 -0.00000000000E+00 -0.00000000000E+00 -0.80952380204E+01  0.80952384379E+01  0.26000000000E-02 0.  1.
       1023    2    1    2    0    0  0.00000000000E+00  0.00000000000E+00  0.42594510925E+01  0.20449927824E+02  0.20001415560E+02 0.  0.
        -13    1    3    3    0    0  0.28709741912E+01  0.95791694578E+01  0.21315844308E+01  0.10225351093E+02  0.10570000000E+00 0. -1.
         13    1    3    3    0    0 -0.28709741912E+01 -0.95791694578E+01  0.21278666617E+01  0.10224576731E+02  0.10570000000E+00 0.  1.
<mgrwt>
<rscale>  0 0.20001416E+02</rscale>
<asrwt>0</asrwt>
<pdfrwt beam="1">  1        2 0.19007214E-02 0.20001416E+02</pdfrwt>
<pdfrwt beam="2">  1       -2 0.12454213E-02 0.20001416E+02</pdfrwt>
<totfact> 0.40079842E+06</totfact>
</mgrwt>
</event>
<event>
 5    1  0.1607476E-006  0.2000171E+02  0.7818608E-02  0.1745294E+00
          2   -1    0    0  501    0  0.00000000000E+00  0.00000000000E+00  0.40618715911E+02  0.40618715994E+02  0.26000000000E-02 0.  1.
         -2   -1    0    0    0  501 -0.00000000000E+00 -0.00000000000E+00 -0.24623406819E+01  0.24623420545E+01  0.26000000000E-02 0. -1.
       1023    2    1    2    0    0  0.00000000000E+00  0.00000000000E+00  0.38156375229E+02  0.43081058049E+02  0.20001714726E+02 0.  0.
        -13    1    3    3    0    0 -0.51097673184E+01  0.85962833390E+01  0.19105955862E+02  0.21565123027E+02  0.10570000000E+00 0. -1.
         13    1    3    3    0    0  0.51097673184E+01 -0.85962833390E+01  0.19050419367E+02  0.21515935022E+02  0.10570000000E+00 0.  1.
<mgrwt>
<rscale>  0 0.20001715E+02</rscale>
<asrwt>0</asrwt>
<pdfrwt beam="1">  1        2 0.62490324E-02 0.20001715E+02</pdfrwt>
<pdfrwt beam="2">  1       -2 0.37882181E-03 0.20001715E+02</pdfrwt>
<totfact> 0.44978524E+06</totfact>
</mgrwt>
</event>
<event>
 5    1  0.1607476E-006  0.2000471E+02  0.7818608E-02  0.1745234E+00
         -2   -1    0    0    0  501 -0.00000000000E+00  0.00000000000E+00  0.72762361541E+01  0.72762366186E+01  0.26000000000E-02 0. -1.
          2   -1    0    0  501    0  0.00000000000E+00 -0.00000000000E+00 -0.13749848592E+02  0.13749848837E+02  0.26000000000E-02 0.  1.
       1023    2    1    2    0    0  0.00000000000E+00  0.00000000000E+00 -0.64736124375E+01  0.21026085456E+02  0.20004714735E+02 0.  0.
        -13    1    3    3    0    0 -0.76814960948E+01 -0.64035883381E+01 -0.30717717536E+01  0.10462231122E+02  0.10570000000E+00 0.  1.
         13    1    3    3    0    0  0.76814960948E+01  0.64035883381E+01 -0.34018406839E+01  0.10563854334E+02  0.10570000000E+00 0. -1.
<mgrwt>
<rscale>  0 0.20004715E+02</rscale>
<asrwt>0</asrwt>
<pdfrwt beam="2">  1        2 0.21153614E-02 0.20004715E+02</pdfrwt>
<pdfrwt beam="1">  1       -2 0.11194210E-02 0.20004715E+02</pdfrwt>
<totfact> 0.40392557E+06</totfact>
</mgrwt>
</event>
<event>
 5    1  0.1656169E-006  0.2000187E+02  0.7818608E-02  0.1745291E+00
          2   -1    0    0  501    0  0.00000000000E+00  0.00000000000E+00  0.94840913096E+02  0.94840913132E+02  0.26000000000E-02 0.  1.
         -2   -1    0    0    0  501 -0.00000000000E+00 -0.00000000000E+00 -0.10545932798E+01  0.10545964849E+01  0.26000000000E-02 0. -1.
       1023    2    1    2    0    0  0.00000000000E+00  0.00000000000E+00  0.93786319816E+02  0.95895509617E+02  0.20001874411E+02 0.  0.
        -13    1    3    3    0    0  0.92132712069E+01  0.38884936076E+01  0.47147920097E+02  0.48196911632E+02  0.10570000000E+00 0.  1.
         13    1    3    3    0    0 -0.92132712069E+01 -0.38884936076E+01  0.46638399719E+02  0.47698597985E+02  0.10570000000E+00 0. -1.
<mgrwt>
<rscale>  0 0.20001874E+02</rscale>
<asrwt>0</asrwt>
<pdfrwt beam="1">  1        2 0.14590903E-01 0.20001874E+02</pdfrwt>
<pdfrwt beam="2">  1       -2 0.16224545E-03 0.20001874E+02</pdfrwt>
<totfact> 0.52125219E+06</totfact>
</mgrwt>
</event>
<event>
 4    1  0.1607476E-006  0.2001287E+02  0.7818608E-02  0.1745072E+00
          2   -1    0    0  501    0  0.00000000000E+00  0.00000000000E+00  0.19984613781E+01  0.19984630694E+01  0.26000000000E-02 0. -1.
         -2   -1    0    0    0  501 -0.00000000000E+00 -0.00000000000E+00 -0.50102868363E+02  0.50102868430E+02  0.26000000000E-02 0.  1.
        -13    1    1    2    0    0 -0.87204276307E+01 -0.49011028364E+01 -0.24639287752E+02  0.26592712168E+02  0.10570000000E+00 0. -1.
         13    1    1    2    0    0  0.87204276307E+01  0.49011028364E+01 -0.23465119233E+02  0.25508619331E+02  0.10570000000E+00 0.  1.
<mgrwt>
<rscale>  0 0.20012865E+02</rscale>
<asrwt>0</asrwt>
<pdfrwt beam="1">  1        2 0.30745577E-03 0.20012865E+02</pdfrwt>
<pdfrwt beam="2">  1       -2 0.77081327E-02 0.20012865E+02</pdfrwt>
<totfact> 0.33841063E+06</totfact>
</mgrwt>
</event>
<event>
 5    1  0.1607476E-006  0.2001181E+02  0.7818608E-02  0.1745093E+00
          2   -1    0    0  501    0  0.00000000000E+00  0.00000000000E+00  0.30678919726E+02  0.30678919836E+02  0.26000000000E-02 0. -1.
         -2   -1    0    0    0  501 -0.00000000000E+00 -0.00000000000E+00 -0.32634179753E+01  0.32634190110E+01  0.26000000000E-02 0.  1.
       1023    2    1    2    0    0  0.00000000000E+00  0.00000000000E+00  0.27415501751E+02  0.33942338847E+02  0.20011812266E+02 0.  0.
        -13    1    3    3    0    0 -0.49179642915E+00 -0.99896328423E+01  0.14163993259E+02  0.17339680089E+02  0.10570000000E+00 0.  1.
         13    1    3    3    0    0  0.49179642915E+00  0.99896328423E+01  0.13251508492E+02  0.16602658759E+02  0.10570000000E+00 0. -1.
<mgrwt>
<rscale>  0 0.20011812E+02</rscale>
<asrwt>0</asrwt>
<pdfrwt beam="1">  1        2 0.47198341E-02 0.20011812E+02</pdfrwt>
<pdfrwt beam="2">  1       -2 0.50206438E-03 0.20011812E+02</pdfrwt>
<totfact> 0.43423114E+06</totfact>
</mgrwt>
</event>
<event>
 4    1  0.1607476E-006  0.2004236E+02  0.7818608E-02  0.1744487E+00
          2   -1    0    0  501    0  0.00000000000E+00  0.00000000000E+00  0.11565993625E+01  0.11566022849E+01  0.26000000000E-02 0.  1.
         -2   -1    0    0    0  501 -0.00000000000E+00 -0.00000000000E+00 -0.86826875096E+02  0.86826875135E+02  0.26000000000E-02 0. -1.
        -13    1    1    2    0    0  0.83207557457E+01 -0.55705483165E+01 -0.41152712727E+02  0.42353546747E+02  0.10570000000E+00 0.  1.
         13    1    1    2    0    0 -0.83207557457E+01  0.55705483165E+01 -0.44517563007E+02  0.45629930673E+02  0.10570000000E+00 0. -1.
<mgrwt>
<rscale>  0 0.20042359E+02</rscale>
<asrwt>0</asrwt>
<pdfrwt beam="1">  1        2 0.17793866E-03 0.20042359E+02</pdfrwt>
<pdfrwt beam="2">  1       -2 0.13357976E-01 0.20042359E+02</pdfrwt>
<totfact> 0.30577902E+06</totfact>
</mgrwt>
</event>
<event>
 5    1  0.1607476E-006  0.2000340E+02  0.7818608E-02  0.1745260E+00
          2   -1    0    0  501    0  0.00000000000E+00  0.00000000000E+00  0.15749961688E+01  0.15749983148E+01  0.26000000000E-02 0.  1.
         -2   -1    0    0    0  501 -0.00000000000E+00 -0.00000000000E+00 -0.63513791811E+02  0.63513791864E+02  0.26000000000E-02 0. -1.
       1023    2    1    2    0    0  0.00000000000E+00  0.00000000000E+00 -0.61938795642E+02  0.65088790179E+02  0.20003404744E+02 0.  0.
        -13    1    3    3    0    0 -0.54556093713E+01 -0.83820371259E+01 -0.30885939600E+02  0.32464975858E+02  0.10570000000E+00 0. -1.
         13    1    3    3    0    0  0.54556093713E+01  0.83820371259E+01 -0.31052856043E+02  0.32623814321E+02  0.10570000000E+00 0.  1.
<mgrwt>
<rscale>  0 0.20003405E+02</rscale>
<asrwt>0</asrwt>
<pdfrwt beam="1">  1        2 0.24230732E-03 0.20003405E+02</pdfrwt>
<pdfrwt beam="2">  1       -2 0.97713508E-02 0.20003405E+02</pdfrwt>
<totfact> 0.32633236E+06</totfact>
</mgrwt>
</event>
<event>
 5    1  0.1607476E-006  0.2000119E+02  0.7818608E-02  0.1745304E+00
          2   -1    0    0  501    0  0.00000000000E+00  0.00000000000E+00  0.17732128787E+01  0.17732147849E+01  0.26000000000E-02 0. -1.
         -2   -1    0    0    0  501 -0.00000000000E+00 -0.00000000000E+00 -0.56401495475E+02  0.56401495535E+02  0.26000000000E-02 0.  1.
       1023    2    1    2    0    0  0.00000000000E+00  0.00000000000E+00 -0.54628282596E+02  0.58174710320E+02  0.20001191499E+02 0.  0.
        -13    1    3    3    0    0 -0.89884229290E+01  0.43827357892E+01 -0.27386745113E+02  0.29155532924E+02  0.10570000000E+00 0. -1.
         13    1    3    3    0    0  0.89884229290E+01 -0.43827357892E+01 -0.27241537484E+02  0.29019177395E+02  0.10570000000E+00 0.  1.
<mgrwt>
<rscale>  0 0.20001191E+02</rscale>
<asrwt>0</asrwt>
<pdfrwt beam="1">  1        2 0.27280218E-03 0.20001191E+02</pdfrwt>
<pdfrwt beam="2">  1       -2 0.86771519E-02 0.20001191E+02</pdfrwt>
<totfact> 0.33285600E+06</totfact>
</mgrwt>
</event>
<event>
 4    1  0.1607476E-006  0.2001681E+02  0.7818608E-02  0.1744994E+00
          2   -1    0    0  501    0  0.00000000000E+00  0.00000000000E+00  0.66862397974E+02  0.66862398025E+02  0.26000000000E-02 0. -1.
         -2   -1    0    0    0  501 -0.00000000000E+00 -0.00000000000E+00 -0.14981223796E+01  0.14981246357E+01  0.26000000000E-02 0.  1.
        -13    1    1    2    0    0 -0.74646061283E+01  0.66548727381E+01  0.34001667323E+02  0.35441955773E+02  0.10570000000E+00 0. -1.
         13    1    1    2    0    0  0.74646061283E+01 -0.66548727381E+01  0.31362608272E+02  0.32918566887E+02  0.10570000000E+00 0.  1.
<mgrwt>
<rscale>  0 0.20016806E+02</rscale>
<asrwt>0</asrwt>
<pdfrwt beam="1">  1        2 0.10286522E-01 0.20016806E+02</pdfrwt>
<pdfrwt beam="2">  1       -2 0.23048058E-03 0.20016806E+02</pdfrwt>
<totfact> 0.48519244E+06</totfact>
</mgrwt>
</event>
<event>
 5    1  0.1607476E-006  0.2000143E+02  0.7818608E-02  0.1745300E+00
          2   -1    0    0  501    0  0.00000000000E+00  0.00000000000E+00  0.13868313620E+02  0.13868313864E+02  0.26000000000E-02 0.  1.
         -2   -1    0    0    0  501 -0.00000000000E+00 -0.00000000000E+00 -0.72117160108E+01  0.72117164795E+01  0.26000000000E-02 0. -1.
       1023    2    1    2    0    0  0.00000000000E+00  0.00000000000E+00  0.66565976092E+01  0.21080030343E+02  0.20001434637E+02 0.  0.
        -13    1    3    3    0    0  0.66260409296E+01  0.74897032656E+01  0.33869882600E+01  0.10558547976E+02  0.10570000000E+00 0. -1.
         13    1    3    3    0    0 -0.66260409296E+01 -0.74897032656E+01  0.32696093492E+01  0.10521482367E+02  0.10570000000E+00 0.  1.
<mgrwt>
<rscale>  0 0.20001435E+02</rscale>
<asrwt>0</asrwt>
<pdfrwt beam="1">  1        2 0.21335868E-02 0.20001435E+02</pdfrwt>
<pdfrwt beam="2">  1       -2 0.11094948E-02 0.20001435E+02</pdfrwt>
<totfact> 0.40434345E+06</totfact>
</mgrwt>
</event>
<event>
 5    1  0.1607476E-006  0.2000137E+02  0.7818608E-02  0.1745301E+00
          2   -1    0    0  501    0  0.00000000000E+00  0.00000000000E+00  0.16743933940E+02  0.16743934142E+02  0.26000000000E-02 0.  1.
         -2   -1    0    0    0  501 -0.00000000000E+00 -0.00000000000E+00 -0.59731302125E+01  0.59731307783E+01  0.26000000000E-02 0. -1.
       1023    2    1    2    0    0  0.00000000000E+00  0.00000000000E+00  0.10770803728E+02  0.22717064920E+02  0.20001370594E+02 0.  0.
        -13    1    3    3    0    0 -0.75103670352E+00 -0.99717807986E+01  0.53337834099E+01  0.11334058690E+02  0.10570000000E+00 0. -1.
         13    1    3    3    0    0  0.75103670352E+00  0.99717807986E+01  0.54370203179E+01  0.11383006231E+02  0.10570000000E+00 0.  1.
<mgrwt>
<rscale>  0 0.20001371E+02</rscale>
<asrwt>0</asrwt>
<pdfrwt beam="1">  1        2 0.25759899E-02 0.20001371E+02</pdfrwt>
<pdfrwt beam="2">  1       -2 0.91894316E-03 0.20001371E+02</pdfrwt>
<totfact> 0.41045442E+06</totfact>
</mgrwt>
</event>
<event>
 4    1  0.1607476E-006  0.2008159E+02  0.7818608E-02  0.1743710E+00
         -2   -1    0    0    0  501 -0.00000000000E+00  0.00000000000E+00  0.54282665039E+01  0.54282671266E+01  0.26000000000E-02 0. -1.
          2   -1    0    0  501    0  0.00000000000E+00 -0.00000000000E+00 -0.18572694967E+02  0.18572695149E+02  0.26000000000E-02 0.  1.
        -13    1    1    2    0    0 -0.63964386002E+01 -0.77187813506E+01 -0.72401893353E+01  0.12366306094E+02  0.10570000000E+00 0.  1.
         13    1    1    2    0    0  0.63964386002E+01  0.77187813506E+01 -0.59042391283E+01  0.11634656182E+02  0.10570000000E+00 0. -1.
<mgrwt>
<rscale>  0 0.20081588E+02</rscale>
<asrwt>0</asrwt>
<pdfrwt beam="2">  1        2 0.28573377E-02 0.20081588E+02</pdfrwt>
<pdfrwt beam="1">  1       -2 0.83511800E-03 0.20081588E+02</pdfrwt>
<totfact> 0.41031561E+06</totfact>
</mgrwt>
</event>
<event>
 5    1  0.1607476E-006  0.2000375E+02  0.7818608E-02  0.1745253E+00
         -2   -1    0    0    0  501 -0.00000000000E+00  0.00000000000E+00  0.95674109968E+00  0.95674463250E+00  0.26000000000E-02 0.  1.
          2   -1    0    0  501    0  0.00000000000E+00 -0.00000000000E+00 -0.10456052232E+03  0.10456052235E+03  0.26000000000E-02 0. -1.
       1023    2    1    2    0    0  0.00000000000E+00  0.00000000000E+00 -0.10360378122E+03  0.10551726698E+03  0.20003753368E+02 0.  0.
        -13    1    3    3    0    0  0.15485402907E+01 -0.98803992119E+01 -0.51389940595E+02  0.52354153918E+02  0.10570000000E+00 0.  1.
         13    1    3    3    0    0 -0.15485402907E+01  0.98803992119E+01 -0.52213840622E+02  0.53163113063E+02  0.10570000000E+00 0. -1.
<mgrwt>
<rscale>  0 0.20003753E+02</rscale>
<asrwt>0</asrwt>
<pdfrwt beam="2">  1        2 0.16086225E-01 0.20003753E+02</pdfrwt>
<pdfrwt beam="1">  1       -2 0.14719130E-03 0.20003753E+02</pdfrwt>
<totfact> 0.53278725E+06</totfact>
</mgrwt>
</event>
<event>
 5    1  0.1607476E-006  0.2000699E+02  0.7818608E-02  0.1745189E+00
         -2   -1    0    0    0  501 -0.00000000000E+00  0.00000000000E+00  0.10927063027E+02  0.10927063336E+02  0.26000000000E-02 0.  1.
          2   -1    0    0  501    0  0.00000000000E+00 -0.00000000000E+00 -0.91579899094E+01  0.91579902785E+01  0.26000000000E-02 0. -1.
       1023    2    1    2    0    0  0.00000000000E+00  0.00000000000E+00  0.17690731177E+01  0.20085053615E+02  0.20006992753E+02 0.  0.
        -13    1    3    3    0    0 -0.81625656116E+01  0.57801309453E+01  0.10313128773E+01  0.10055454731E+02  0.10570000000E+00 0.  1.
         13    1    3    3    0    0  0.81625656116E+01 -0.57801309453E+01  0.73776024038E+00  0.10029598884E+02  0.10570000000E+00 0. -1.
<mgrwt>
<rscale>  0 0.20006993E+02</rscale>
<asrwt>0</asrwt>
<pdfrwt beam="2">  1        2 0.14089216E-02 0.20006993E+02</pdfrwt>
<pdfrwt beam="1">  1       -2 0.16810867E-02 0.20006993E+02</pdfrwt>
<totfact> 0.39178651E+06</totfact>
</mgrwt>
</event>
<event>
 5    1  0.1607476E-006  0.2000478E+02  0.7818608E-02  0.1745233E+00
         -2   -1    0    0    0  501 -0.00000000000E+00  0.00000000000E+00  0.29935239787E+02  0.29935239900E+02  0.26000000000E-02 0.  1.
          2   -1    0    0  501    0  0.00000000000E+00 -0.00000000000E+00 -0.33421423095E+01  0.33421433208E+01  0.26000000000E-02 0. -1.
       1023    2    1    2    0    0  0.00000000000E+00  0.00000000000E+00  0.26593097477E+02  0.33277383220E+02  0.20004784442E+02 0.  0.
        -13    1    3    3    0    0 -0.99624293409E+01  0.88055243567E+00  0.13119667015E+02  0.16497339362E+02  0.10570000000E+00 0.  1.
         13    1    3    3    0    0  0.99624293409E+01 -0.88055243567E+00  0.13473430462E+02  0.16780043858E+02  0.10570000000E+00 0. -1.
<mgrwt>
<rscale>  0 0.20004784E+02</rscale>
<asrwt>0</asrwt>
<pdfrwt beam="2">  1        2 0.51417582E-03 0.20004784E+02</pdfrwt>
<pdfrwt beam="1">  1       -2 0.46054216E-02 0.20004784E+02</pdfrwt>
<totfact> 0.36053509E+06</totfact>
</mgrwt>
</event>
<event>
 5    1  0.1607476E-006  0.2000624E+02  0.7818608E-02  0.1745204E+00
          2   -1    0    0  501    0  0.00000000000E+00  0.00000000000E+00  0.23907467893E+02  0.23907468034E+02  0.26000000000E-02 0.  1.
         -2   -1    0    0    0  501 -0.00000000000E+00 -0.00000000000E+00 -0.41854049983E+01  0.41854058058E+01  0.26000000000E-02 0. -1.
       1023    2    1    2    0    0  0.00000000000E+00  0.00000000000E+00  0.19722062895E+02  0.28092873840E+02  0.20006243920E+02 0.  0.
        -13    1    3    3    0    0 -0.32419177800E+01  0.94625365898E+01  0.99180160637E+01  0.14086441876E+02  0.10570000000E+00 0.  1.
         13    1    3    3    0    0  0.32419177800E+01 -0.94625365898E+01  0.98040468311E+01  0.14006431964E+02  0.10570000000E+00 0. -1.
<mgrwt>
<rscale>  0 0.20006244E+02</rscale>
<asrwt>0</asrwt>
<pdfrwt beam="1">  1        2 0.36780720E-02 0.20006244E+02</pdfrwt>
<pdfrwt beam="2">  1       -2 0.64390855E-03 0.20006244E+02</pdfrwt>
<totfact> 0.42341222E+06</totfact>
</mgrwt>
</event>
<event>
 5    1  0.1607476E-006  0.2000269E+02  0.7818608E-02  0.1745275E+00
          2   -1    0    0  501    0  0.00000000000E+00  0.00000000000E+00  0.29568780617E+02  0.29568780732E+02  0.26000000000E-02 0. -1.
         -2   -1    0    0    0  501 -0.00000000000E+00 -0.00000000000E+00 -0.33828548189E+01  0.33828558181E+01  0.26000000000E-02 0.  1.
       1023    2    1    2    0    0  0.00000000000E+00  0.00000000000E+00  0.26185925798E+02  0.32951636550E+02  0.20002690854E+02 0.  0.
        -13    1    3    3    0    0  0.98356869000E+01 -0.18088590791E+01  0.13002284826E+02  0.16403758446E+02  0.10570000000E+00 0. -1.
         13    1    3    3    0    0 -0.98356869000E+01  0.18088590791E+01  0.13183640973E+02  0.16547878104E+02  0.10570000000E+00 0.  1.
<mgrwt>
<rscale>  0 0.20002691E+02</rscale>
<asrwt>0</asrwt>
<pdfrwt beam="1">  1        2 0.45490431E-02 0.20002691E+02</pdfrwt>
<pdfrwt beam="2">  1       -2 0.52043931E-03 0.20002691E+02</pdfrwt>
<totfact> 0.43291593E+06</totfact>
</mgrwt>
</event>
<event>
 4    1  0.1607476E-006  0.2006240E+02  0.7818608E-02  0.1744090E+00
          2   -1    0    0  501    0  0.00000000000E+00  0.00000000000E+00  0.85842836963E+01  0.85842840901E+01  0.26000000000E-02 0.  1.
         -2   -1    0    0    0  501 -0.00000000000E+00 -0.00000000000E+00 -0.11722004184E+02  0.11722004472E+02  0.26000000000E-02 0. -1.
        -13    1    1    2    0    0 -0.34098744001E+01 -0.94097422178E+01 -0.22428011497E+01  0.10257281390E+02  0.10570000000E+00 0.  1.
         13    1    1    2    0    0  0.34098744001E+01  0.94097422178E+01 -0.89491933764E+00  0.10049007172E+02  0.10570000000E+00 0. -1.
<mgrwt>
<rscale>  0 0.20062404E+02</rscale>
<asrwt>0</asrwt>
<pdfrwt beam="1">  1        2 0.13206591E-02 0.20062404E+02</pdfrwt>
<pdfrwt beam="2">  1       -2 0.18033853E-02 0.20062404E+02</pdfrwt>
<totfact> 0.38746840E+06</totfact>
</mgrwt>
</event>
<event>
 4    1  0.1607476E-006  0.2002066E+02  0.7818608E-02  0.1744918E+00
         -2   -1    0    0    0  501 -0.00000000000E+00  0.00000000000E+00  0.12052649624E+01  0.12052677668E+01  0.26000000000E-02 0.  1.
          2   -1    0    0  501    0  0.00000000000E+00 -0.00000000000E+00 -0.83140704818E+02  0.83140704859E+02  0.26000000000E-02 0. -1.
        -13    1    1    2    0    0  0.79797417455E+01 -0.60367697546E+01 -0.39801269379E+02  0.41039871882E+02  0.10570000000E+00 0.  1.
         13    1    1    2    0    0 -0.79797417455E+01  0.60367697546E+01 -0.42134170477E+02  0.43306100744E+02  0.10570000000E+00 0. -1.
<mgrwt>
<rscale>  0 0.20020659E+02</rscale>
<asrwt>0</asrwt>
<pdfrwt beam="2">  1        2 0.12790873E-01 0.20020659E+02</pdfrwt>
<pdfrwt beam="1">  1       -2 0.18542566E-03 0.20020659E+02</pdfrwt>
<totfact> 0.50578183E+06</totfact>
</mgrwt>
</event>
<event>
 4    1  0.1607476E-006  0.2001558E+02  0.7818608E-02  0.1745018E+00
         -2   -1    0    0    0  501 -0.00000000000E+00  0.00000000000E+00  0.50266053334E+02  0.50266053401E+02  0.26000000000E-02 0.  1.
          2   -1    0    0  501    0  0.00000000000E+00 -0.00000000000E+00 -0.19925134204E+01  0.19925151168E+01  0.26000000000E-02 0. -1.
        -13    1    1    2    0    0 -0.10000892873E+02 -0.13470895091E-01  0.23207717839E+02  0.25271077925E+02  0.10570000000E+00 0.  1.
         13    1    1    2    0    0  0.10000892873E+02  0.13470895091E-01  0.25065822075E+02  0.26987490593E+02  0.10570000000E+00 0. -1.
<mgrwt>
<rscale>  0 0.20015577E+02</rscale>
<asrwt>0</asrwt>
<pdfrwt beam="2">  1        2 0.30654068E-03 0.20015577E+02</pdfrwt>
<pdfrwt beam="1">  1       -2 0.77332386E-02 0.20015577E+02</pdfrwt>
<totfact> 0.33815176E+06</totfact>
</mgrwt>
</event>
<event>
 4    1  0.1607476E-006  0.2003340E+02  0.7818608E-02  0.1744665E+00
         -2   -1    0    0    0  501 -0.00000000000E+00  0.00000000000E+00  0.11746844898E+02  0.11746845186E+02  0.26000000000E-02 0. -1.
          2   -1    0    0  501    0  0.00000000000E+00 -0.00000000000E+00 -0.85413801875E+01  0.85413805833E+01  0.26000000000E-02 0.  1.
        -13    1    1    2    0    0  0.99854542536E+01 -0.77366782264E+00  0.17277701504E+01  0.10163868394E+02  0.10570000000E+00 0.  1.
         13    1    1    2    0    0 -0.99854542536E+01  0.77366782264E+00  0.14776945600E+01  0.10124357375E+02  0.10570000000E+00 0. -1.
<mgrwt>
<rscale>  0 0.20033400E+02</rscale>
<asrwt>0</asrwt>
<pdfrwt beam="2">  1        2 0.13140585E-02 0.20033400E+02</pdfrwt>
<pdfrwt beam="1">  1       -2 0.18072070E-02 0.20033400E+02</pdfrwt>
<totfact> 0.38861360E+06</totfact>
</mgrwt>
</event>
<event>
 5    1  0.1607476E-006  0.2000408E+02  0.7818608E-02  0.1745247E+00
         -2   -1    0    0    0  501 -0.00000000000E+00  0.00000000000E+00  0.15045307249E+02  0.15045307474E+02  0.26000000000E-02 0. -1.
          2   -1    0    0  501    0  0.00000000000E+00 -0.00000000000E+00 -0.66493040386E+01  0.66493045469E+01  0.26000000000E-02 0.  1.
       1023    2    1    2    0    0  0.00000000000E+00  0.00000000000E+00  0.83960032108E+01  0.21694612021E+02  0.20004082604E+02 0.  0.
        -13    1    3    3    0    0 -0.99175987357E+01  0.12875346691E+01  0.40736489654E+01  0.10799180459E+02  0.10570000000E+00 0.  1.
         13    1    3    3    0    0  0.99175987357E+01 -0.12875346691E+01  0.43223542454E+01  0.10895431562E+02  0.10570000000E+00 0. -1.
<mgrwt>
<rscale>  0 0.20004083E+02</rscale>
<asrwt>0</asrwt>
<pdfrwt beam="2">  1        2 0.10229699E-02 0.20004083E+02</pdfrwt>
<pdfrwt beam="1">  1       -2 0.23146627E-02 0.20004083E+02</pdfrwt>
<totfact> 0.38271985E+06</totfact>
</mgrwt>
</event>
<event>
 5    1  0.1607476E-006  0.2000211E+02  0.7818608E-02  0.1745286E+00
          2   -1    0    0  501    0  0.00000000000E+00  0.00000000000E+00  0.22726965262E+01  0.22726980134E+01  0.26000000000E-02 0.  1.
         -2   -1    0    0    0  501 -0.00000000000E+00 -0.00000000000E+00 -0.44009864416E+02  0.44009864493E+02  0.26000000000E-02 0. -1.
       1023    2    1    2    0    0  0.00000000000E+00  0.00000000000E+00 -0.41737167890E+02  0.46282562506E+02  0.20002110106E+02 0.  0.
        -13    1    3    3    0    0 -0.73448408231E+01  0.67869689517E+01 -0.20908353809E+02  0.23177145332E+02  0.10570000000E+00 0.  1.
         13    1    3    3    0    0  0.73448408231E+01 -0.67869689517E+01 -0.20828814081E+02  0.23105417174E+02  0.10570000000E+00 0. -1.
<mgrwt>
<rscale>  0 0.20002110E+02</rscale>
<asrwt>0</asrwt>
<pdfrwt beam="1">  1        2 0.34964577E-03 0.20002110E+02</pdfrwt>
<pdfrwt beam="2">  1       -2 0.67707478E-02 0.20002110E+02</pdfrwt>
<totfact> 0.34490900E+06</totfact>
</mgrwt>
</event>
<event>
 5    1  0.1607476E-006  0.2000364E+02  0.7818608E-02  0.1745256E+00
         -2   -1    0    0    0  501 -0.00000000000E+00  0.00000000000E+00  0.35873089427E+01  0.35873098849E+01  0.26000000000E-02 0.  1.
          2   -1    0    0  501    0  0.00000000000E+00 -0.00000000000E+00 -0.27886203328E+02  0.27886203449E+02  0.26000000000E-02 0. -1.
       1023    2    1    2    0    0  0.00000000000E+00  0.00000000000E+00 -0.24298894385E+02  0.31473513334E+02  0.20003643999E+02 0.  0.
        -13    1    3    3    0    0 -0.73572170735E+01  0.67738713896E+01 -0.12316657444E+02  0.15865850111E+02  0.10570000000E+00 0.  1.
         13    1    3    3    0    0  0.73572170735E+01 -0.67738713896E+01 -0.11982236941E+02  0.15607663223E+02  0.10570000000E+00 0. -1.
<mgrwt>
<rscale>  0 0.20003644E+02</rscale>
<asrwt>0</asrwt>
<pdfrwt beam="2">  1        2 0.42901851E-02 0.20003644E+02</pdfrwt>
<pdfrwt beam="1">  1       -2 0.55189378E-03 0.20003644E+02</pdfrwt>
<totfact> 0.43016483E+06</totfact>
</mgrwt>
</event>
<event>
 5    1  0.1607476E-006  0.2000355E+02  0.7818608E-02  0.1745257E+00
         -2   -1    0    0    0  501 -0.00000000000E+00  0.00000000000E+00  0.11077570970E+03  0.11077570973E+03  0.26000000000E-02 0. -1.
          2   -1    0    0  501    0  0.00000000000E+00 -0.00000000000E+00 -0.90304394462E+00  0.90304768751E+00  0.26000000000E-02 0.  1.
       1023    2    1    2    0    0  0.00000000000E+00  0.00000000000E+00  0.10987266576E+03  0.11167875742E+03  0.20003554140E+02 0.  0.
        -13    1    3    3    0    0  0.56493764722E+01 -0.82518754647E+01  0.55630705503E+02  0.56522521798E+02  0.10570000000E+00 0. -1.
         13    1    3    3    0    0 -0.56493764722E+01  0.82518754647E+01  0.54241960254E+02  0.55156235621E+02  0.10570000000E+00 0.  1.
<mgrwt>
<rscale>  0 0.20003554E+02</rscale>
<asrwt>0</asrwt>
<pdfrwt beam="2">  1        2 0.13893004E-03 0.20003554E+02</pdfrwt>
<pdfrwt beam="1">  1       -2 0.17042428E-01 0.20003554E+02</pdfrwt>
<totfact> 0.28955365E+06</totfact>
</mgrwt>
</event>
<event>
 4    1  0.1607476E-006  0.2002578E+02  0.7818608E-02  0.1744816E+00
         -2   -1    0    0    0  501 -0.00000000000E+00  0.00000000000E+00  0.11306977059E+02  0.11306977358E+02  0.26000000000E-02 0.  1.
          2   -1    0    0  501    0  0.00000000000E+00 -0.00000000000E+00 -0.88669066280E+01  0.88669070092E+01  0.26000000000E-02 0. -1.
        -13    1    1    2    0    0  0.89862513306E+01  0.44145881627E+01  0.12943546387E+01  0.10095931262E+02  0.10570000000E+00 0. -1.
         13    1    1    2    0    0 -0.89862513306E+01 -0.44145881627E+01  0.11457157922E+01  0.10077953105E+02  0.10570000000E+00 0.  1.
<mgrwt>
<rscale>  0 0.20025775E+02</rscale>
<asrwt>0</asrwt>
<pdfrwt beam="2">  1        2 0.13641395E-02 0.20025775E+02</pdfrwt>
<pdfrwt beam="1">  1       -2 0.17395350E-02 0.20025775E+02</pdfrwt>
<totfact> 0.39002189E+06</totfact>
</mgrwt>
</event>
<event>
 5    1  0.1607476E-006  0.2000220E+02  0.7818608E-02  0.1745284E+00
          2   -1    0    0  501    0  0.00000000000E+00  0.00000000000E+00  0.41286565792E+01  0.41286573979E+01  0.26000000000E-02 0.  1.
         -2   -1    0    0    0  501 -0.00000000000E+00 -0.00000000000E+00 -0.24226281077E+02  0.24226281217E+02  0.26000000000E-02 0. -1.
       1023    2    1    2    0    0  0.00000000000E+00  0.00000000000E+00 -0.20097624498E+02  0.28354938615E+02  0.20002200713E+02 0.  0.
        -13    1    3    3    0    0 -0.66623232120E+01  0.74574601933E+01 -0.99030501297E+01  0.14074154947E+02  0.10570000000E+00 0.  1.
         13    1    3    3    0    0  0.66623232120E+01 -0.74574601933E+01 -0.10194574368E+02  0.14280783668E+02  0.10570000000E+00 0. -1.
<mgrwt>
<rscale>  0 0.20002201E+02</rscale>
<asrwt>0</asrwt>
<pdfrwt beam="1">  1        2 0.63517803E-03 0.20002201E+02</pdfrwt>
<pdfrwt beam="2">  1       -2 0.37271201E-02 0.20002201E+02</pdfrwt>
<totfact> 0.36806078E+06</totfact>
</mgrwt>
</event>
<event>
 5    1  0.1607476E-006  0.2000181E+02  0.7818608E-02  0.1745292E+00
          2   -1    0    0  501    0  0.00000000000E+00  0.00000000000E+00  0.34210865817E+01  0.34210875697E+01  0.26000000000E-02 0. -1.
         -2   -1    0    0    0  501 -0.00000000000E+00 -0.00000000000E+00 -0.29235750769E+02  0.29235750885E+02  0.26000000000E-02 0.  1.
       1023    2    1    2    0    0  0.00000000000E+00  0.00000000000E+00 -0.25814664187E+02  0.32656838454E+02  0.20001805187E+02 0.  0.
        -13    1    3    3    0    0 -0.27275296556E+01  0.96211880265E+01 -0.12884062320E+02  0.16310024875E+02  0.10570000000E+00 0. -1.
         13    1    3    3    0    0  0.27275296556E+01 -0.96211880265E+01 -0.12930601867E+02  0.16346813579E+02  0.10570000000E+00 0.  1.
<mgrwt>
<rscale>  0 0.20001805E+02</rscale>
<asrwt>0</asrwt>
<pdfrwt beam="1">  1        2 0.52632112E-03 0.20001805E+02</pdfrwt>
<pdfrwt beam="2">  1       -2 0.44978077E-02 0.20001805E+02</pdfrwt>
<totfact> 0.36151875E+06</totfact>
</mgrwt>
</event>
<event>
 5    1  0.1607476E-006  0.2000331E+02  0.7818608E-02  0.1745262E+00
          2   -1    0    0  501    0  0.00000000000E+00  0.00000000000E+00  0.43566775428E+02  0.43566775505E+02  0.26000000000E-02 0.  1.
         -2   -1    0    0    0  501 -0.00000000000E+00 -0.00000000000E+00 -0.22960861674E+01  0.22960876395E+01  0.26000000000E-02 0. -1.
       1023    2    1    2    0    0  0.00000000000E+00  0.00000000000E+00  0.41270689260E+02  0.45862863145E+02  0.20003310322E+02 0.  0.
        -13    1    3    3    0    0 -0.97089454412E+01 -0.23960093708E+01  0.20938223662E+02  0.23203983820E+02  0.10570000000E+00 0.  1.
         13    1    3    3    0    0  0.97089454412E+01  0.23960093708E+01  0.20332465598E+02  0.22658879325E+02  0.10570000000E+00 0. -1.
<mgrwt>
<rscale>  0 0.20003310E+02</rscale>
<asrwt>0</asrwt>
<pdfrwt beam="1">  1        2 0.67025810E-02 0.20003310E+02</pdfrwt>
<pdfrwt beam="2">  1       -2 0.35324414E-03 0.20003310E+02</pdfrwt>
<totfact> 0.45398741E+06</totfact>
</mgrwt>
</event>
<event>
 5    1  0.1607476E-006  0.2000635E+02  0.7818608E-02  0.1745202E+00
          2   -1    0    0  501    0  0.00000000000E+00  0.00000000000E+00  0.64230346237E+02  0.64230346290E+02  0.26000000000E-02 0. -1.
         -2   -1    0    0    0  501 -0.00000000000E+00 -0.00000000000E+00 -0.15578840257E+01  0.15578861953E+01  0.26000000000E-02 0.  1.
       1023    2    1    2    0    0  0.00000000000E+00  0.00000000000E+00  0.62672462211E+02  0.65788232485E+02  0.20006349339E+02 0.  0.
        -13    1    3    3    0    0 -0.46626915374E+01  0.88493316771E+01  0.31438513236E+02  0.32991554229E+02  0.10570000000E+00 0.  1.
         13    1    3    3    0    0  0.46626915374E+01 -0.88493316771E+01  0.31233948976E+02  0.32796678256E+02  0.10570000000E+00 0. -1.
<mgrwt>
<rscale>  0 0.20006349E+02</rscale>
<asrwt>0</asrwt>
<pdfrwt beam="1">  1        2 0.98815906E-02 0.20006349E+02</pdfrwt>
<pdfrwt beam="2">  1       -2 0.23967467E-03 0.20006349E+02</pdfrwt>
<totfact> 0.48228490E+06</totfact>
</mgrwt>
</event>
<event>
 4    1  0.1607476E-006  0.2008572E+02  0.7818608E-02  0.1743629E+00
         -2   -1    0    0    0  501 -0.00000000000E+00  0.00000000000E+00  0.17986897218E+02  0.17986897406E+02  0.26000000000E-02 0.  1.
          2   -1    0    0  501    0  0.00000000000E+00 -0.00000000000E+00 -0.56073624071E+01  0.56073630098E+01  0.26000000000E-02 0. -1.
        -13    1    1    2    0    0  0.28540778047E+01  0.95928186062E+01  0.71584028066E+01  0.12305357864E+02  0.10570000000E+00 0. -1.
         13    1    1    2    0    0 -0.28540778047E+01 -0.95928186062E+01  0.52211320043E+01  0.11288902552E+02  0.10570000000E+00 0.  1.
<mgrwt>
<rscale>  0 0.20085722E+02</rscale>
<asrwt>0</asrwt>
<pdfrwt beam="2">  1        2 0.86267120E-03 0.20085722E+02</pdfrwt>
<pdfrwt beam="1">  1       -2 0.27672150E-02 0.20085722E+02</pdfrwt>
<totfact> 0.37411403E+06</totfact>
</mgrwt>
</event>
<event>
 4    1  0.1607476E-006  0.2004024E+02  0.7818608E-02  0.1744529E+00
         -2   -1    0    0    0  501 -0.00000000000E+00  0.00000000000E+00  0.22168553665E+01  0.22168568912E+01  0.26000000000E-02 0. -1.
          2   -1    0    0  501    0  0.00000000000E+00 -0.00000000000E+00 -0.45290605944E+02  0.45290606019E+02  0.26000000000E-02 0.  1.
        -13    1    1    2    0    0 -0.91240704462E+01  0.40961285398E+01 -0.20105340918E+02  0.22455797390E+02  0.10570000000E+00 0.  1.
         13    1    1    2    0    0  0.91240704462E+01 -0.40961285398E+01 -0.22968409660E+02  0.25051665520E+02  0.10570000000E+00 0. -1.
<mgrwt>
<rscale>  0 0.20040236E+02</rscale>
<asrwt>0</asrwt>
<pdfrwt beam="2">  1        2 0.69677850E-02 0.20040236E+02</pdfrwt>
<pdfrwt beam="1">  1       -2 0.34105483E-03 0.20040236E+02</pdfrwt>
<totfact> 0.45458635E+06</totfact>
</mgrwt>
</event>
<event>
 5    1  0.1607476E-006  0.2001100E+02  0.7818608E-02  0.1745109E+00
         -2   -1    0    0    0  501 -0.00000000000E+00  0.00000000000E+00  0.11908575235E+02  0.11908575519E+02  0.26000000000E-02 0. -1.
          2   -1    0    0  501    0  0.00000000000E+00 -0.00000000000E+00 -0.84065475343E+01  0.84065479363E+01  0.26000000000E-02 0.  1.
       1023    2    1    2    0    0  0.00000000000E+00  0.00000000000E+00  0.35020277006E+01  0.20315123455E+02  0.20010998051E+02 0.  0.
        -13    1    3    3    0    0 -0.79237369858E+01  0.61015962388E+01  0.14572130956E+01  0.10106914810E+02  0.10570000000E+00 0. -1.
         13    1    3    3    0    0  0.79237369858E+01 -0.61015962388E+01  0.20448146050E+01  0.10208208645E+02  0.10570000000E+00 0.  1.
<mgrwt>
<rscale>  0 0.20010998E+02</rscale>
<asrwt>0</asrwt>
<pdfrwt beam="2">  1        2 0.12933151E-02 0.20010998E+02</pdfrwt>
<pdfrwt beam="1">  1       -2 0.18320885E-02 0.20010998E+02</pdfrwt>
<totfact> 0.38915744E+06</totfact>
</mgrwt>
</event>
<event>
 5    1  0.1607476E-006  0.2000447E+02  0.7818608E-02  0.1745239E+00
          2   -1    0    0  501    0  0.00000000000E+00  0.00000000000E+00  0.77584827345E+01  0.77584831702E+01  0.26000000000E-02 0.  1.
         -2   -1    0    0    0  501 -0.00000000000E+00 -0.00000000000E+00 -0.12894873974E+02  0.12894874236E+02  0.26000000000E-02 0. -1.
       1023    2    1    2    0    0  0.00000000000E+00  0.00000000000E+00 -0.51363912390E+01  0.20653357406E+02  0.20004465931E+02 0.  0.
        -13    1    3    3    0    0  0.13536121565E+01  0.99085283371E+01 -0.24140470673E+01  0.10288342695E+02  0.10570000000E+00 0.  1.
         13    1    3    3    0    0 -0.13536121565E+01 -0.99085283371E+01 -0.27223441717E+01  0.10365014711E+02  0.10570000000E+00 0. -1.
<mgrwt>
<rscale>  0 0.20004466E+02</rscale>
<asrwt>0</asrwt>
<pdfrwt beam="1">  1        2 0.11936128E-02 0.20004466E+02</pdfrwt>
<pdfrwt beam="2">  1       -2 0.19838268E-02 0.20004466E+02</pdfrwt>
<totfact> 0.38715404E+06</totfact>
</mgrwt>
</event>
<event>
 5    1  0.1607476E-006  0.2000577E+02  0.7818608E-02  0.1745213E+00
         -2   -1    0    0    0  501 -0.00000000000E+00  0.00000000000E+00  0.26384014511E+02  0.26384014639E+02  0.26000000000E-02 0.  1.
          2   -1    0    0  501    0  0.00000000000E+00 -0.00000000000E+00 -0.37923596017E+01  0.37923604930E+01  0.26000000000E-02 0. -1.
       1023    2    1    2    0    0  0.00000000000E+00  0.00000000000E+00  0.22591654909E+02  0.30176375132E+02  0.20005767782E+02 0.  0.
        -13    1    3    3    0    0 -0.18742169989E+01 -0.98249137088E+01  0.11190295478E+02  0.15009180661E+02  0.10570000000E+00 0. -1.
         13    1    3    3    0    0  0.18742169989E+01  0.98249137088E+01  0.11401359431E+02  0.15167194470E+02  0.10570000000E+00 0.  1.
<mgrwt>
<rscale>  0 0.20005768E+02</rscale>
<asrwt>0</asrwt>
<pdfrwt beam="2">  1        2 0.58344003E-03 0.20005768E+02</pdfrwt>
<pdfrwt beam="1">  1       -2 0.40590792E-02 0.20005768E+02</pdfrwt>
<totfact> 0.36501140E+06</totfact>
</mgrwt>
</event>
<event>
 4    1  0.1607476E-006  0.2014581E+02  0.7818608E-02  0.1742444E+00
         -2   -1    0    0    0  501 -0.00000000000E+00  0.00000000000E+00  0.96254080848E+01  0.96254084360E+01  0.26000000000E-02 0. -1.
          2   -1    0    0  501    0  0.00000000000E+00 -0.00000000000E+00 -0.10541210439E+02  0.10541210760E+02  0.26000000000E-02 0.  1.
        -13    1    1    2    0    0 -0.99584586506E+01  0.12573124976E+01 -0.12957560258E+01  0.10121358090E+02  0.10570000000E+00 0.  1.
         13    1    1    2    0    0  0.99584586506E+01 -0.12573124976E+01  0.37995367115E+00  0.10045261106E+02  0.10570000000E+00 0. -1.
<mgrwt>
<rscale>  0 0.20145814E+02</rscale>
<asrwt>0</asrwt>
<pdfrwt beam="2">  1        2 0.16217247E-02 0.20145814E+02</pdfrwt>
<pdfrwt beam="1">  1       -2 0.14808321E-02 0.20145814E+02</pdfrwt>
<totfact> 0.38964652E+06</totfact>
</mgrwt>
</event>
<event>
 5    1  0.1607476E-006  0.2000196E+02  0.7818608E-02  0.1745289E+00
          2   -1    0    0  501    0  0.00000000000E+00  0.00000000000E+00  0.42383102616E+01  0.42383110591E+01  0.26000000000E-02 0.  1.
         -2   -1    0    0    0  501 -0.00000000000E+00 -0.00000000000E+00 -0.23598925025E+02  0.23598925168E+02  0.26000000000E-02 0. -1.
       1023    2    1    2    0    0  0.00000000000E+00  0.00000000000E+00 -0.19360614763E+02  0.27837236227E+02  0.20001957823E+02 0.  0.
        -13    1    3    3    0    0  0.74084750404E+01 -0.67170130736E+01 -0.97751046660E+01  0.13984549002E+02  0.10570000000E+00 0.  1.
         13    1    3    3    0    0 -0.74084750404E+01  0.67170130736E+01 -0.95855100969E+01  0.13852687225E+02  0.10570000000E+00 0. -1.
<mgrwt>
<rscale>  0 0.20001958E+02</rscale>
<asrwt>0</asrwt>
<pdfrwt beam="1">  1        2 0.65204782E-03 0.20001958E+02</pdfrwt>
<pdfrwt beam="2">  1       -2 0.36306039E-02 0.20001958E+02</pdfrwt>
<totfact> 0.36894408E+06</totfact>
</mgrwt>
</event>
<event>
 5    1  0.1607476E-006  0.2000987E+02  0.7818608E-02  0.1745132E+00
          2   -1    0    0  501    0  0.00000000000E+00  0.00000000000E+00  0.47464795713E+02  0.47464795785E+02  0.26000000000E-02 0. -1.
         -2   -1    0    0    0  501 -0.00000000000E+00 -0.00000000000E+00 -0.21089042404E+01  0.21089058432E+01  0.26000000000E-02 0.  1.
       1023    2    1    2    0    0  0.00000000000E+00  0.00000000000E+00  0.45355891473E+02  0.49573701628E+02  0.20009872608E+02 0.  0.
        -13    1    3    3    0    0  0.93841238391E+01  0.34601930137E+01  0.23247557512E+02  0.25307999105E+02  0.10570000000E+00 0. -1.
         13    1    3    3    0    0 -0.93841238391E+01 -0.34601930137E+01  0.22108333961E+02  0.24265702523E+02  0.10570000000E+00 0.  1.
<mgrwt>
<rscale>  0 0.20009873E+02</rscale>
<asrwt>0</asrwt>
<pdfrwt beam="1">  1        2 0.73022762E-02 0.20009873E+02</pdfrwt>
<pdfrwt beam="2">  1       -2 0.32444694E-03 0.20009873E+02</pdfrwt>
<totfact> 0.45921279E+06</totfact>
</mgrwt>
</event>
<event>
 4    1  0.1607476E-006  0.2001840E+02  0.7818608E-02  0.1744962E+00
          2   -1    0    0  501    0  0.00000000000E+00  0.00000000000E+00  0.73116446316E+01  0.73116450938E+01  0.26000000000E-02 0.  1.
         -2   -1    0    0    0  501 -0.00000000000E+00 -0.00000000000E+00 -0.13701992203E+02  0.13701992450E+02  0.26000000000E-02 0. -1.
        -13    1    1    2    0    0  0.42077775540E+01 -0.90806538874E+01 -0.32962180226E+01  0.10537546807E+02  0.10570000000E+00 0. -1.
         13    1    1    2    0    0 -0.42077775540E+01  0.90806538874E+01 -0.30941295489E+01  0.10476090737E+02  0.10570000000E+00 0.  1.
<mgrwt>
<rscale>  0 0.20018402E+02</rscale>
<asrwt>0</asrwt>
<pdfrwt beam="1">  1        2 0.11248685E-02 0.20018402E+02</pdfrwt>
<pdfrwt beam="2">  1       -2 0.21079988E-02 0.20018402E+02</pdfrwt>
<totfact> 0.38483252E+06</totfact>
</mgrwt>
</event>
<event>
 5    1  0.1607476E-006  0.2000199E+02  0.7818608E-02  0.1745288E+00
         -2   -1    0    0    0  501 -0.00000000000E+00  0.00000000000E+00  0.18963358051E+02  0.18963358229E+02  0.26000000000E-02 0. -1.
          2   -1    0    0  501    0  0.00000000000E+00 -0.00000000000E+00 -0.52743770034E+01  0.52743776442E+01  0.26000000000E-02 0.  1.
       1023    2    1    2    0    0  0.00000000000E+00  0.00000000000E+00  0.13688981048E+02  0.24237735874E+02  0.20001990855E+02 0.  0.
        -13    1    3    3    0    0  0.57604235501E+00 -0.99837784668E+01  0.68046718818E+01  0.12096379176E+02  0.10570000000E+00 0.  1.
         13    1    3    3    0    0 -0.57604235501E+00  0.99837784668E+01  0.68843091660E+01  0.12141356697E+02  0.10570000000E+00 0. -1.
<mgrwt>
<rscale>  0 0.20001991E+02</rscale>
<asrwt>0</asrwt>
<pdfrwt beam="2">  1        2 0.81144270E-03 0.20001991E+02</pdfrwt>
<pdfrwt beam="1">  1       -2 0.29174397E-02 0.20001991E+02</pdfrwt>
<totfact> 0.37590594E+06</totfact>
</mgrwt>
</event>
<event>
 5    1  0.1607476E-006  0.2000184E+02  0.7818608E-02  0.1745292E+00
         -2   -1    0    0    0  501 -0.00000000000E+00  0.00000000000E+00  0.43743598115E+01  0.43743605842E+01  0.26000000000E-02 0. -1.
          2   -1    0    0  501    0  0.00000000000E+00 -0.00000000000E+00 -0.22864684711E+02  0.22864684859E+02  0.26000000000E-02 0.  1.
       1023    2    1    2    0    0  0.00000000000E+00  0.00000000000E+00 -0.18490324900E+02  0.27239045443E+02  0.20001836960E+02 0.  0.
        -13    1    3    3    0    0 -0.98171559045E+01  0.19040663820E+01 -0.91471571404E+01  0.13552995059E+02  0.10570000000E+00 0. -1.
         13    1    3    3    0    0  0.98171559045E+01 -0.19040663820E+01 -0.93431677596E+01  0.13686050384E+02  0.10570000000E+00 0.  1.
<mgrwt>
<rscale>  0 0.20001837E+02</rscale>
<asrwt>0</asrwt>
<pdfrwt beam="2">  1        2 0.35176438E-02 0.20001837E+02</pdfrwt>
<pdfrwt beam="1">  1       -2 0.67297851E-03 0.20001837E+02</pdfrwt>
<totfact> 0.42182038E+06</totfact>
</mgrwt>
</event>
<event>
 5    1  0.1607476E-006  0.2000908E+02  0.7818608E-02  0.1745147E+00
         -2   -1    0    0    0  501 -0.00000000000E+00  0.00000000000E+00  0.40731168734E+02  0.40731168817E+02  0.26000000000E-02 0.  1.
          2   -1    0    0  501    0  0.00000000000E+00 -0.00000000000E+00 -0.24573522773E+01  0.24573536528E+01  0.26000000000E-02 0. -1.
       1023    2    1    2    0    0  0.00000000000E+00  0.00000000000E+00  0.38273816457E+02  0.43188522470E+02  0.20009084111E+02 0.  0.
        -13    1    3    3    0    0 -0.78432246182E+01 -0.62074382148E+01  0.18755481802E+02  0.21256239830E+02  0.10570000000E+00 0.  1.
         13    1    3    3    0    0  0.78432246182E+01  0.62074382148E+01  0.19518334655E+02  0.21932282640E+02  0.10570000000E+00 0. -1.
<mgrwt>
<rscale>  0 0.20009084E+02</rscale>
<asrwt>0</asrwt>
<pdfrwt beam="2">  1        2 0.37805434E-03 0.20009084E+02</pdfrwt>
<pdfrwt beam="1">  1       -2 0.62663333E-02 0.20009084E+02</pdfrwt>
<totfact> 0.34807759E+06</totfact>
</mgrwt>
</event>
<event>
 5    1  0.1607476E-006  0.2000151E+02  0.7818608E-02  0.1745298E+00
          2   -1    0    0  501    0  0.00000000000E+00  0.00000000000E+00  0.53259517915E+01  0.53259524262E+01  0.26000000000E-02 0.  1.
         -2   -1    0    0    0  501 -0.00000000000E+00 -0.00000000000E+00 -0.18778819978E+02  0.18778820158E+02  0.26000000000E-02 0. -1.
       1023    2    1    2    0    0  0.00000000000E+00  0.00000000000E+00 -0.13452868186E+02  0.24104772584E+02  0.20001509915E+02 0.  0.
        -13    1    3    3    0    0 -0.95556672463E+00  0.99544347228E+01 -0.67348541835E+01  0.12057085542E+02  0.10570000000E+00 0. -1.
         13    1    3    3    0    0  0.95556672463E+00 -0.99544347228E+01 -0.67180140025E+01  0.12047687041E+02  0.10570000000E+00 0.  1.
<mgrwt>
<rscale>  0 0.20001510E+02</rscale>
<asrwt>0</asrwt>
<pdfrwt beam="1">  1        2 0.81937727E-03 0.20001510E+02</pdfrwt>
<pdfrwt beam="2">  1       -2 0.28890492E-02 0.20001510E+02</pdfrwt>
<totfact> 0.37622512E+06</totfact>
</mgrwt>
</event>
<event>
 5    1  0.1607476E-006  0.2000194E+02  0.7818608E-02  0.1745290E+00
          2   -1    0    0  501    0  0.00000000000E+00  0.00000000000E+00  0.92563681875E+00  0.92564047028E+00  0.26000000000E-02 0.  1.
         -2   -1    0    0    0  501 -0.00000000000E+00 -0.00000000000E+00 -0.10805444860E+03  0.10805444863E+03  0.26000000000E-02 0. -1.
       1023    2    1    2    0    0  0.00000000000E+00  0.00000000000E+00 -0.10712881178E+03  0.10898008910E+03  0.20001937579E+02 0.  0.
        -13    1    3    3    0    0 -0.67768062488E+01 -0.73540326897E+01 -0.53761193698E+02  0.54683489465E+02  0.10570000000E+00 0. -1.
         13    1    3    3    0    0  0.67768062488E+01  0.73540326897E+01 -0.53367618085E+02  0.54296599638E+02  0.10570000000E+00 0.  1.
<mgrwt>
<rscale>  0 0.20001938E+02</rscale>
<asrwt>0</asrwt>
<pdfrwt beam="1">  1        2 0.14240603E-03 0.20001938E+02</pdfrwt>
<pdfrwt beam="2">  1       -2 0.16623752E-01 0.20001938E+02</pdfrwt>
<totfact> 0.29149918E+06</totfact>
</mgrwt>
</event>
<event>
 5    1  0.1607476E-006  0.2000192E+02  0.7818608E-02  0.1745290E+00
          2   -1    0    0  501    0  0.00000000000E+00  0.00000000000E+00  0.27518455601E+02  0.27518455724E+02  0.26000000000E-02 0.  1.
         -2   -1    0    0    0  501 -0.00000000000E+00 -0.00000000000E+00 -0.36346225339E+01  0.36346234639E+01  0.26000000000E-02 0. -1.
       1023    2    1    2    0    0  0.00000000000E+00  0.00000000000E+00  0.23883833067E+02  0.31153079188E+02  0.20001921430E+02 0.  0.
        -13    1    3    3    0    0  0.29851204451E+01  0.95442475237E+01  0.12045673329E+02  0.15656085823E+02  0.10570000000E+00 0. -1.
         13    1    3    3    0    0 -0.29851204451E+01 -0.95442475237E+01  0.11838159738E+02  0.15496993365E+02  0.10570000000E+00 0.  1.
<mgrwt>
<rscale>  0 0.20001921E+02</rscale>
<asrwt>0</asrwt>
<pdfrwt beam="1">  1        2 0.42336085E-02 0.20001921E+02</pdfrwt>
<pdfrwt beam="2">  1       -2 0.55917280E-03 0.20001921E+02</pdfrwt>
<totfact> 0.42964987E+06</totfact>
</mgrwt>
</event>
<event>
 5    1  0.1607476E-006  0.2000547E+02  0.7818608E-02  0.1745219E+00
          2   -1    0    0  501    0  0.00000000000E+00  0.00000000000E+00  0.43487783983E+01  0.43487791755E+01  0.26000000000E-02 0. -1.
         -2   -1    0    0    0  501 -0.00000000000E+00 -0.00000000000E+00 -0.23007533796E+02  0.23007533943E+02  0.26000000000E-02 0.  1.
       1023    2    1    2    0    0  0.00000000000E+00  0.00000000000E+00 -0.18658755398E+02  0.27356313118E+02  0.20005467114E+02 0.  0.
        -13    1    3    3    0    0  0.31076453911E+01  0.95063565991E+01 -0.91606193366E+01  0.13563052562E+02  0.10570000000E+00 0.  1.
         13    1    3    3    0    0 -0.31076453911E+01 -0.95063565991E+01 -0.94981360609E+01  0.13793260557E+02  0.10570000000E+00 0. -1.
<mgrwt>
<rscale>  0 0.20005467E+02</rscale>
<asrwt>0</asrwt>
<pdfrwt beam="1">  1        2 0.66904291E-03 0.20005467E+02</pdfrwt>
<pdfrwt beam="2">  1       -2 0.35396206E-02 0.20005467E+02</pdfrwt>
<totfact> 0.36963950E+06</totfact>
</mgrwt>
</event>
<event>
 5    1  0.1607476E-006  0.2000898E+02  0.7818608E-02  0.1745150E+00
          2   -1    0    0  501    0  0.00000000000E+00  0.00000000000E+00  0.19468084599E+02  0.19468084772E+02  0.26000000000E-02 0.  1.
         -2   -1    0    0    0  501 -0.00000000000E+00 -0.00000000000E+00 -0.51412259215E+01  0.51412265789E+01  0.26000000000E-02 0. -1.
       1023    2    1    2    0    0  0.00000000000E+00  0.00000000000E+00  0.14326858677E+02  0.24609311351E+02  0.20008981124E+02 0.  0.
        -13    1    3    3    0    0 -0.99847345152E+01 -0.59934578934E+00  0.73560205661E+01  0.12416776948E+02  0.10570000000E+00 0. -1.
         13    1    3    3    0    0  0.99847345152E+01  0.59934578934E+00  0.69708381112E+01  0.12192534403E+02  0.10570000000E+00 0.  1.
<mgrwt>
<rscale>  0 0.20008981E+02</rscale>
<asrwt>0</asrwt>
<pdfrwt beam="1">  1        2 0.29950899E-02 0.20008981E+02</pdfrwt>
<pdfrwt beam="2">  1       -2 0.79095792E-03 0.20008981E+02</pdfrwt>
<totfact> 0.41537297E+06</totfact>
</mgrwt>
</event>
<event>
 5    1  0.1682229E-006  0.2000147E+02  0.7818608E-02  0.1745299E+00
          2   -1    0    0  501    0  0.00000000000E+00  0.00000000000E+00  0.39854851804E+02  0.39854851889E+02  0.26000000000E-02 0. -1.
         -2   -1    0    0    0  501 -0.00000000000E+00 -0.00000000000E+00 -0.25094720554E+01  0.25094734023E+01  0.26000000000E-02 0.  1.
       1023    2    1    2    0    0  0.00000000000E+00  0.00000000000E+00  0.37345379749E+02  0.42364325291E+02  0.20001466666E+02 0.  0.
        -13    1    3    3    0    0 -0.73924699767E+01 -0.67345611819E+01  0.18622208790E+02  0.21137662108E+02  0.10570000000E+00 0.  1.
         13    1    3    3    0    0  0.73924699767E+01  0.67345611819E+01  0.18723170958E+02  0.21226663183E+02  0.10570000000E+00 0. -1.
<mgrwt>
<rscale>  0 0.20001467E+02</rscale>
<asrwt>0</asrwt>
<pdfrwt beam="1">  1        2 0.61315146E-02 0.20001467E+02</pdfrwt>
<pdfrwt beam="2">  1       -2 0.38607281E-03 0.20001467E+02</pdfrwt>
<totfact> 0.44867608E+06</totfact>
</mgrwt>
</event>
<event>
 4    1  0.1607476E-006  0.2002595E+02  0.7818608E-02  0.1744812E+00
          2   -1    0    0  501    0  0.00000000000E+00  0.00000000000E+00  0.32668720856E+01  0.32668731202E+01  0.26000000000E-02 0.  1.
         -2   -1    0    0    0  501 -0.00000000000E+00 -0.00000000000E+00 -0.30689812987E+02  0.30689813097E+02  0.26000000000E-02 0. -1.
        -13    1    1    2    0    0 -0.43962207414E+01  0.89891100210E+01 -0.13129780236E+02  0.16508578295E+02  0.10570000000E+00 0.  1.
         13    1    1    2    0    0  0.43962207414E+01 -0.89891100210E+01 -0.14293160665E+02  0.17448107922E+02  0.10570000000E+00 0. -1.
<mgrwt>
<rscale>  0 0.20025954E+02</rscale>
<asrwt>0</asrwt>
<pdfrwt beam="1">  1        2 0.50259581E-03 0.20025954E+02</pdfrwt>
<pdfrwt beam="2">  1       -2 0.47215096E-02 0.20025954E+02</pdfrwt>
<totfact> 0.35878377E+06</totfact>
</mgrwt>
</event>
<event>
 5    1  0.1607476E-006  0.2000839E+02  0.7818608E-02  0.1745161E+00
          2   -1    0    0  501    0  0.00000000000E+00  0.00000000000E+00  0.41431348098E+02  0.41431348180E+02  0.26000000000E-02 0. -1.
         -2   -1    0    0    0  501 -0.00000000000E+00 -0.00000000000E+00 -0.24156548708E+01  0.24156562700E+01  0.26000000000E-02 0.  1.
       1023    2    1    2    0    0  0.00000000000E+00  0.00000000000E+00  0.39015693227E+02  0.43847004450E+02  0.20008385272E+02 0.  0.
        -13    1    3    3    0    0 -0.93884190438E+01 -0.34445740458E+01  0.18948300249E+02  0.21425609847E+02  0.10570000000E+00 0. -1.
         13    1    3    3    0    0  0.93884190438E+01  0.34445740458E+01  0.20067392979E+02  0.22421394603E+02  0.10570000000E+00 0.  1.
<mgrwt>
<rscale>  0 0.20008385E+02</rscale>
<asrwt>0</asrwt>
<pdfrwt beam="1">  1        2 0.63740532E-02 0.20008385E+02</pdfrwt>
<pdfrwt beam="2">  1       -2 0.37163935E-03 0.20008385E+02</pdfrwt>
<totfact> 0.45063733E+06</totfact>
</mgrwt>
</event>
<event>
 4    1  0.1607476E-006  0.2003772E+02  0.7818608E-02  0.1744579E+00
         -2   -1    0    0    0  501 -0.00000000000E+00  0.00000000000E+00  0.22698783842E+02  0.22698783991E+02  0.26000000000E-02 0. -1.
          2   -1    0    0  501    0  0.00000000000E+00 -0.00000000000E+00 -0.44221566523E+01  0.44221574166E+01  0.26000000000E-02 0.  1.
        -13    1    1    2    0    0  0.23852914965E+01  0.97192876003E+01  0.97618777314E+01  0.13980686547E+02  0.10570000000E+00 0.  1.
         13    1    1    2    0    0 -0.23852914965E+01 -0.97192876003E+01  0.85147494580E+01  0.13140254861E+02  0.10570000000E+00 0. -1.
<mgrwt>
<rscale>  0 0.20037723E+02</rscale>
<asrwt>0</asrwt>
<pdfrwt beam="2">  1        2 0.68033185E-03 0.20037723E+02</pdfrwt>
<pdfrwt beam="1">  1       -2 0.34921207E-02 0.20037723E+02</pdfrwt>
<totfact> 0.36878744E+06</totfact>
</mgrwt>
</event>
<event>
 5    1  0.1607476E-006  0.2000298E+02  0.7818608E-02  0.1745269E+00
         -2   -1    0    0    0  501 -0.00000000000E+00  0.00000000000E+00  0.15954699132E+01  0.15954720317E+01  0.26000000000E-02 0.  1.
          2   -1    0    0  501    0  0.00000000000E+00 -0.00000000000E+00 -0.62696109383E+02  0.62696109437E+02  0.26000000000E-02 0. -1.
       1023    2    1    2    0    0  0.00000000000E+00  0.00000000000E+00 -0.61100639469E+02  0.64291581468E+02  0.20002982381E+02 0.  0.
        -13    1    3    3    0    0 -0.42713296120E+01 -0.90421437889E+01 -0.30169579995E+02  0.31783948001E+02  0.10570000000E+00 0.  1.
         13    1    3    3    0    0  0.42713296120E+01  0.90421437889E+01 -0.30931059474E+02  0.32507633467E+02  0.10570000000E+00 0. -1.
<mgrwt>
<rscale>  0 0.20002982E+02</rscale>
<asrwt>0</asrwt>
<pdfrwt beam="2">  1        2 0.96455535E-02 0.20002982E+02</pdfrwt>
<pdfrwt beam="1">  1       -2 0.24545713E-03 0.20002982E+02</pdfrwt>
<totfact> 0.48042715E+06</totfact>
</mgrwt>
</event>
<event>
 5    1  0.1607476E-006  0.2000180E+02  0.7818608E-02  0.1745292E+00
          2   -1    0    0  501    0  0.00000000000E+00  0.00000000000E+00  0.24799858998E+01  0.24799872627E+01  0.26000000000E-02 0. -1.
         -2   -1    0    0    0  501 -0.00000000000E+00 -0.00000000000E+00 -0.40330075781E+02  0.40330075864E+02  0.26000000000E-02 0.  1.
       1023    2    1    2    0    0  0.00000000000E+00  0.00000000000E+00 -0.37850089881E+02  0.42810063127E+02  0.20001804943E+02 0.  0.
        -13    1    3    3    0    0 -0.95649458819E+01  0.29186696453E+01 -0.18940993925E+02  0.21419132699E+02  0.10570000000E+00 0.  1.
         13    1    3    3    0    0  0.95649458819E+01 -0.29186696453E+01 -0.18909095955E+02  0.21390930428E+02  0.10570000000E+00 0. -1.
<mgrwt>
<rscale>  0 0.20001805E+02</rscale>
<asrwt>0</asrwt>
<pdfrwt beam="1">  1        2 0.38153644E-03 0.20001805E+02</pdfrwt>
<pdfrwt beam="2">  1       -2 0.62046266E-02 0.20001805E+02</pdfrwt>
<totfact> 0.34878253E+06</totfact>
</mgrwt>
</event>
<event>
 5    1  0.1607476E-006  0.2000335E+02  0.7818608E-02  0.1745261E+00
         -2   -1    0    0    0  501 -0.00000000000E+00  0.00000000000E+00  0.11057549752E+03  0.11057549755E+03  0.26000000000E-02 0. -1.
          2   -1    0    0  501    0  0.00000000000E+00 -0.00000000000E+00 -0.90466063285E+00  0.90466436905E+00  0.26000000000E-02 0.  1.
       1023    2    1    2    0    0  0.00000000000E+00  0.00000000000E+00  0.10967083689E+03  0.11148016192E+03  0.20003350672E+02 0.  0.
        -13    1    3    3    0    0  0.68084303218E+01 -0.73255490128E+01  0.55185470126E+02  0.56084451297E+02  0.10570000000E+00 0. -1.
         13    1    3    3    0    0 -0.68084303218E+01  0.73255490128E+01  0.54485366765E+02  0.55395710626E+02  0.10570000000E+00 0.  1.
<mgrwt>
<rscale>  0 0.20003351E+02</rscale>
<asrwt>0</asrwt>
<pdfrwt beam="2">  1        2 0.13917883E-03 0.20003351E+02</pdfrwt>
<pdfrwt beam="1">  1       -2 0.17011618E-01 0.20003351E+02</pdfrwt>
<totfact> 0.28969867E+06</totfact>
</mgrwt>
</event>
<event>
 5    1  0.1607476E-006  0.2000163E+02  0.7818608E-02  0.1745296E+00
          2   -1    0    0  501    0  0.00000000000E+00  0.00000000000E+00  0.58035724616E+02  0.58035724674E+02  0.26000000000E-02 0.  1.
         -2   -1    0    0    0  501 -0.00000000000E+00 -0.00000000000E+00 -0.17233561416E+01  0.17233581029E+01  0.26000000000E-02 0. -1.
       1023    2    1    2    0    0  0.00000000000E+00  0.00000000000E+00  0.56312368474E+02  0.59759082777E+02  0.20001628213E+02 0.  0.
        -13    1    3    3    0    0 -0.99469161224E+01 -0.10303974822E+01  0.28297934703E+02  0.30013116137E+02  0.10570000000E+00 0.  1.
         13    1    3    3    0    0  0.99469161224E+01  0.10303974822E+01  0.28014433771E+02  0.29745966640E+02  0.10570000000E+00 0. -1.
<mgrwt>
<rscale>  0 0.20001628E+02</rscale>
<asrwt>0</asrwt>
<pdfrwt beam="1">  1        2 0.89285722E-02 0.20001628E+02</pdfrwt>
<pdfrwt beam="2">  1       -2 0.26513190E-03 0.20001628E+02</pdfrwt>
<totfact> 0.47424008E+06</totfact>
</mgrwt>
</event>
<event>
 4    1  0.1607476E-006  0.2009358E+02  0.7818608E-02  0.1743473E+00
         -2   -1    0    0    0  501 -0.00000000000E+00  0.00000000000E+00  0.83492383142E+01  0.83492387190E+01  0.26000000000E-02 0.  1.
          2   -1    0    0  501    0  0.00000000000E+00 -0.00000000000E+00 -0.12089486236E+02  0.12089486516E+02  0.26000000000E-02 0. -1.
        -13    1    1    2    0    0 -0.84993888715E+01  0.53202207869E+01 -0.12410547801E+01  0.10104244151E+02  0.10570000000E+00 0.  1.
         13    1    1    2    0    0  0.84993888715E+01 -0.53202207869E+01 -0.24991931417E+01  0.10334481083E+02  0.10570000000E+00 0. -1.
<mgrwt>
<rscale>  0 0.20093582E+02</rscale>
<asrwt>0</asrwt>
<pdfrwt beam="2">  1        2 0.18599210E-02 0.20093582E+02</pdfrwt>
<pdfrwt beam="1">  1       -2 0.12844983E-02 0.20093582E+02</pdfrwt>
<totfact> 0.39598197E+06</totfact>
</mgrwt>
</event>
<event>
 5    1  0.1607476E-006  0.2000222E+02  0.7818608E-02  0.1745284E+00
         -2   -1    0    0    0  501 -0.00000000000E+00  0.00000000000E+00  0.10929993900E+02  0.10929994209E+02  0.26000000000E-02 0.  1.
          2   -1    0    0  501    0  0.00000000000E+00 -0.00000000000E+00 -0.91511690674E+01  0.91511694368E+01  0.26000000000E-02 0. -1.
       1023    2    1    2    0    0  0.00000000000E+00  0.00000000000E+00  0.17788248326E+01  0.20081163646E+02  0.20002222766E+02 0.  0.
        -13    1    3    3    0    0  0.72555871854E+01 -0.68816870799E+01  0.78955157339E+00  0.10031735974E+02  0.10570000000E+00 0.  1.
         13    1    3    3    0    0 -0.72555871854E+01  0.68816870799E+01  0.98927325921E+00  0.10049427672E+02  0.10570000000E+00 0. -1.
<mgrwt>
<rscale>  0 0.20002223E+02</rscale>
<asrwt>0</asrwt>
<pdfrwt beam="2">  1        2 0.14078722E-02 0.20002223E+02</pdfrwt>
<pdfrwt beam="1">  1       -2 0.16815376E-02 0.20002223E+02</pdfrwt>
<totfact> 0.39197908E+06</totfact>
</mgrwt>
</event>
<event>
 4    1  0.1607476E-006  0.2003764E+02  0.7818608E-02  0.1744581E+00
          2   -1    0    0  501    0  0.00000000000E+00  0.00000000000E+00  0.10182669959E+02  0.10182670290E+02  0.26000000000E-02 0.  1.
         -2   -1    0    0    0  501 -0.00000000000E+00 -0.00000000000E+00 -0.98576040752E+01  0.98576044181E+01  0.26000000000E-02 0. -1.
        -13    1    1    2    0    0 -0.41708945511E+01 -0.91071344009E+01  0.33374191167E+00  0.10022914472E+02  0.10570000000E+00 0.  1.
         13    1    1    2    0    0  0.41708945511E+01  0.91071344009E+01 -0.86760283444E-02  0.10017360237E+02  0.10570000000E+00 0. -1.
<mgrwt>
<rscale>  0 0.20037638E+02</rscale>
<asrwt>0</asrwt>
<pdfrwt beam="1">  1        2 0.15665647E-02 0.20037638E+02</pdfrwt>
<pdfrwt beam="2">  1       -2 0.15165545E-02 0.20037638E+02</pdfrwt>
<totfact> 0.39346291E+06</totfact>
</mgrwt>
</event>
<event>
 5    1  0.1607476E-006  0.2000529E+02  0.7818608E-02  0.1745223E+00
         -2   -1    0    0    0  501 -0.00000000000E+00  0.00000000000E+00  0.25304214399E+01  0.25304227756E+01  0.26000000000E-02 0. -1.
          2   -1    0    0  501    0  0.00000000000E+00 -0.00000000000E+00 -0.39540024485E+02  0.39540024570E+02  0.26000000000E-02 0.  1.
       1023    2    1    2    0    0  0.00000000000E+00  0.00000000000E+00 -0.37009603045E+02  0.42070447346E+02  0.20005294858E+02 0.  0.
        -13    1    3    3    0    0 -0.42306709755E+01 -0.90628199517E+01 -0.18698693550E+02  0.21205791552E+02  0.10570000000E+00 0. -1.
         13    1    3    3    0    0  0.42306709755E+01  0.90628199517E+01 -0.18310909495E+02  0.20864655794E+02  0.10570000000E+00 0.  1.
<mgrwt>
<rscale>  0 0.20005295E+02</rscale>
<asrwt>0</asrwt>
<pdfrwt beam="2">  1        2 0.60830804E-02 0.20005295E+02</pdfrwt>
<pdfrwt beam="1">  1       -2 0.38929574E-03 0.20005295E+02</pdfrwt>
<totfact> 0.44802079E+06</totfact>
</mgrwt>
</event>
<event>
 5    1  0.1607476E-006  0.2000319E+02  0.7818608E-02  0.1745265E+00
          2   -1    0    0  501    0  0.00000000000E+00  0.00000000000E+00  0.23332685301E+02  0.23332685446E+02  0.26000000000E-02 0.  1.
         -2   -1    0    0    0  501 -0.00000000000E+00 -0.00000000000E+00 -0.42871980669E+01  0.42871988553E+01  0.26000000000E-02 0. -1.
       1023    2    1    2    0    0  0.00000000000E+00  0.00000000000E+00  0.19045487235E+02  0.27619884302E+02  0.20003185367E+02 0.  0.
        -13    1    3    3    0    0  0.54127726120E+01  0.84090890371E+01  0.96594188994E+01  0.13904187562E+02  0.10570000000E+00 0. -1.
         13    1    3    3    0    0 -0.54127726120E+01 -0.84090890371E+01  0.93860683352E+01  0.13715696740E+02  0.10570000000E+00 0.  1.
<mgrwt>
<rscale>  0 0.20003185E+02</rscale>
<asrwt>0</asrwt>
<pdfrwt beam="1">  1        2 0.35896439E-02 0.20003185E+02</pdfrwt>
<pdfrwt beam="2">  1       -2 0.65956901E-03 0.20003185E+02</pdfrwt>
<totfact> 0.42256857E+06</totfact>
</mgrwt>
</event>
<event>
 4    1  0.1607476E-006  0.2005514E+02  0.7818608E-02  0.1744234E+00
          2   -1    0    0  501    0  0.00000000000E+00  0.00000000000E+00  0.26283685152E+02  0.26283685281E+02  0.26000000000E-02 0. -1.
         -2   -1    0    0    0  501 -0.00000000000E+00 -0.00000000000E+00 -0.38256502941E+01  0.38256511777E+01  0.26000000000E-02 0.  1.
        -13    1    1    2    0    0 -0.97097968635E+01  0.24957467326E+01  0.10959933255E+02  0.14853962984E+02  0.10570000000E+00 0.  1.
         13    1    1    2    0    0  0.97097968635E+01 -0.24957467326E+01  0.11498101604E+02  0.15255373475E+02  0.10570000000E+00 0. -1.
<mgrwt>
<rscale>  0 0.20055144E+02</rscale>
<asrwt>0</asrwt>
<pdfrwt beam="1">  1        2 0.40436441E-02 0.20055144E+02</pdfrwt>
<pdfrwt beam="2">  1       -2 0.58856164E-03 0.20055144E+02</pdfrwt>
<totfact> 0.42507539E+06</totfact>
</mgrwt>
</event>
<event>
 5    1  0.1607476E-006  0.2000987E+02  0.7818608E-02  0.1745132E+00
          2   -1    0    0  501    0  0.00000000000E+00  0.00000000000E+00  0.83031264269E+02  0.83031264310E+02  0.26000000000E-02 0. -1.
         -2   -1    0    0    0  501 -0.00000000000E+00 -0.00000000000E+00 -0.12055526447E+01  0.12055554484E+01  0.26000000000E-02 0.  1.
       1023    2    1    2    0    0  0.00000000000E+00  0.00000000000E+00  0.81825711625E+02  0.84236819759E+02  0.20009865570E+02 0.  0.
        -13    1    3    3    0    0 -0.67161721142E+01 -0.74124673840E+01  0.41710125167E+02  0.42892859016E+02  0.10570000000E+00 0.  1.
         13    1    3    3    0    0  0.67161721142E+01  0.74124673840E+01  0.40115586458E+02  0.41343960743E+02  0.10570000000E+00 0. -1.
<mgrwt>
<rscale>  0 0.20009866E+02</rscale>
<asrwt>0</asrwt>
<pdfrwt beam="1">  1        2 0.12774047E-01 0.20009866E+02</pdfrwt>
<pdfrwt beam="2">  1       -2 0.18546976E-03 0.20009866E+02</pdfrwt>
<totfact> 0.50624904E+06</totfact>
</mgrwt>
</event>
<event>
 5    1  0.1607476E-006  0.2000161E+02  0.7818608E-02  0.1745296E+00
         -2   -1    0    0    0  501 -0.00000000000E+00  0.00000000000E+00  0.29578882607E+01  0.29578894034E+01  0.26000000000E-02 0.  1.
          2   -1    0    0  501    0  0.00000000000E+00 -0.00000000000E+00 -0.33813326239E+02  0.33813326339E+02  0.26000000000E-02 0. -1.
       1023    2    1    2    0    0  0.00000000000E+00  0.00000000000E+00 -0.30855437978E+02  0.36771215742E+02  0.20001606294E+02 0.  0.
        -13    1    3    3    0    0 -0.52149971738E+01 -0.85327230581E+01 -0.15360603426E+02  0.18329289905E+02  0.10570000000E+00 0. -1.
         13    1    3    3    0    0  0.52149971738E+01  0.85327230581E+01 -0.15494834552E+02  0.18441925837E+02  0.10570000000E+00 0.  1.
<mgrwt>
<rscale>  0 0.20001606E+02</rscale>
<asrwt>0</asrwt>
<pdfrwt beam="2">  1        2 0.52020500E-02 0.20001606E+02</pdfrwt>
<pdfrwt beam="1">  1       -2 0.45505985E-03 0.20001606E+02</pdfrwt>
<totfact> 0.43959933E+06</totfact>
</mgrwt>
</event>
<event>
 5    1  0.1607476E-006  0.2000253E+02  0.7818608E-02  0.1745278E+00
         -2   -1    0    0    0  501 -0.00000000000E+00  0.00000000000E+00  0.43457284480E+01  0.43457292257E+01  0.26000000000E-02 0. -1.
          2   -1    0    0  501    0  0.00000000000E+00 -0.00000000000E+00 -0.23016924465E+02  0.23016924612E+02  0.26000000000E-02 0.  1.
       1023    2    1    2    0    0  0.00000000000E+00  0.00000000000E+00 -0.18671196017E+02  0.27362653838E+02  0.20002531448E+02 0.  0.
        -13    1    3    3    0    0 -0.61044790518E+01  0.79208722427E+01 -0.92039464674E+01  0.13591493098E+02  0.10570000000E+00 0.  1.
         13    1    3    3    0    0  0.61044790518E+01 -0.79208722427E+01 -0.94672495498E+01  0.13771160739E+02  0.10570000000E+00 0. -1.
<mgrwt>
<rscale>  0 0.20002531E+02</rscale>
<asrwt>0</asrwt>
<pdfrwt beam="2">  1        2 0.35410653E-02 0.20002531E+02</pdfrwt>
<pdfrwt beam="1">  1       -2 0.66857369E-03 0.20002531E+02</pdfrwt>
<totfact> 0.42205234E+06</totfact>
</mgrwt>
</event>
<event>
 4    1  0.1607476E-006  0.2002436E+02  0.7818608E-02  0.1744844E+00
          2   -1    0    0  501    0  0.00000000000E+00  0.00000000000E+00  0.27664021891E+02  0.27664022013E+02  0.26000000000E-02 0.  1.
         -2   -1    0    0    0  501 -0.00000000000E+00 -0.00000000000E+00 -0.36236152385E+01  0.36236161713E+01  0.26000000000E-02 0. -1.
        -13    1    1    2    0    0  0.81305552144E+01  0.58407711891E+01  0.11848479056E+02  0.15511871731E+02  0.10570000000E+00 0.  1.
         13    1    1    2    0    0 -0.81305552144E+01 -0.58407711891E+01  0.12191927597E+02  0.15775766454E+02  0.10570000000E+00 0. -1.
<mgrwt>
<rscale>  0 0.20024364E+02</rscale>
<asrwt>0</asrwt>
<pdfrwt beam="1">  1        2 0.42560036E-02 0.20024364E+02</pdfrwt>
<pdfrwt beam="2">  1       -2 0.55747932E-03 0.20024364E+02</pdfrwt>
<totfact> 0.42880649E+06</totfact>
</mgrwt>
</event>
<event>
 4    1  0.1607476E-006  0.2005883E+02  0.7818608E-02  0.1744161E+00
          2   -1    0    0  501    0  0.00000000000E+00  0.00000000000E+00  0.10968000051E+02  0.10968000359E+02  0.26000000000E-02 0.  1.
         -2   -1    0    0    0  501 -0.00000000000E+00 -0.00000000000E+00 -0.91711525361E+01  0.91711529046E+01  0.26000000000E-02 0. -1.
        -13    1    1    2    0    0 -0.37755776915E+01  0.92608270675E+01  0.16498395039E+01  0.10136619148E+02  0.10570000000E+00 0. -1.
         13    1    1    2    0    0  0.37755776915E+01 -0.92608270675E+01  0.14700801072E+00  0.10002534115E+02  0.10570000000E+00 0.  1.
<mgrwt>
<rscale>  0 0.20058834E+02</rscale>
<asrwt>0</asrwt>
<pdfrwt beam="1">  1        2 0.16873847E-02 0.20058834E+02</pdfrwt>
<pdfrwt beam="2">  1       -2 0.14109466E-02 0.20058834E+02</pdfrwt>
<totfact> 0.39467095E+06</totfact>
</mgrwt>
</event>
<event>
 5    1  0.1607476E-006  0.2000554E+02  0.7818608E-02  0.1745218E+00
         -2   -1    0    0    0  501 -0.00000000000E+00  0.00000000000E+00  0.91835116618E+01  0.91835120298E+01  0.26000000000E-02 0. -1.
          2   -1    0    0  501    0  0.00000000000E+00 -0.00000000000E+00 -0.10895109974E+02  0.10895110284E+02  0.26000000000E-02 0.  1.
       1023    2    1    2    0    0  0.00000000000E+00  0.00000000000E+00 -0.17115983119E+01  0.20078622314E+02  0.20005536865E+02 0.  0.
        -13    1    3    3    0    0  0.72952377747E+01 -0.68419257770E+01 -0.96464483991E+00  0.10048589686E+02  0.10570000000E+00 0. -1.
         13    1    3    3    0    0 -0.72952377747E+01  0.68419257770E+01 -0.74695347203E+00  0.10030032627E+02  0.10570000000E+00 0.  1.
<mgrwt>
<rscale>  0 0.20005537E+02</rscale>
<asrwt>0</asrwt>
<pdfrwt beam="2">  1        2 0.16761708E-02 0.20005537E+02</pdfrwt>
<pdfrwt beam="1">  1       -2 0.14128480E-02 0.20005537E+02</pdfrwt>
<totfact> 0.39687658E+06</totfact>
</mgrwt>
</event>
<event>
 4    1  0.1607476E-006  0.2001434E+02  0.7818608E-02  0.1745043E+00
          2   -1    0    0  501    0  0.00000000000E+00  0.00000000000E+00  0.33186445491E+01  0.33186455676E+01  0.26000000000E-02 0.  1.
         -2   -1    0    0    0  501 -0.00000000000E+00 -0.00000000000E+00 -0.30175998865E+02  0.30175998977E+02  0.26000000000E-02 0. -1.
        -13    1    1    2    0    0 -0.97999176086E+01 -0.20053345087E+01 -0.12978036903E+02  0.16385980776E+02  0.10570000000E+00 0.  1.
         13    1    1    2    0    0  0.97999176086E+01  0.20053345087E+01 -0.13879317413E+02  0.17108663769E+02  0.10570000000E+00 0. -1.
<mgrwt>
<rscale>  0 0.20014338E+02</rscale>
<asrwt>0</asrwt>
<pdfrwt beam="1">  1        2 0.51056081E-03 0.20014338E+02</pdfrwt>
<pdfrwt beam="2">  1       -2 0.46424613E-02 0.20014338E+02</pdfrwt>
<totfact> 0.35986457E+06</totfact>
</mgrwt>
</event>
<event>
 5    1  0.1607476E-006  0.2000218E+02  0.7818608E-02  0.1745285E+00
          2   -1    0    0  501    0  0.00000000000E+00  0.00000000000E+00  0.23575827637E+02  0.23575827780E+02  0.26000000000E-02 0. -1.
         -2   -1    0    0    0  501 -0.00000000000E+00 -0.00000000000E+00 -0.42425578200E+01  0.42425586167E+01  0.26000000000E-02 0.  1.
       1023    2    1    2    0    0  0.00000000000E+00  0.00000000000E+00  0.19333269817E+02  0.27818386397E+02  0.20002182379E+02 0.  0.
        -13    1    3    3    0    0 -0.17645901419E+01  0.98436166871E+01  0.96538401279E+01  0.13900301060E+02  0.10570000000E+00 0. -1.
         13    1    3    3    0    0  0.17645901419E+01 -0.98436166871E+01  0.96794296886E+01  0.13918085337E+02  0.10570000000E+00 0.  1.
<mgrwt>
<rscale>  0 0.20002182E+02</rscale>
<asrwt>0</asrwt>
<pdfrwt beam="1">  1        2 0.36270505E-02 0.20002182E+02</pdfrwt>
<pdfrwt beam="2">  1       -2 0.65270127E-03 0.20002182E+02</pdfrwt>
<totfact> 0.42303582E+06</totfact>
</mgrwt>
</event>
<event>
 5    1  0.1607476E-006  0.2000174E+02  0.7818608E-02  0.1745294E+00
          2   -1    0    0  501    0  0.00000000000E+00  0.00000000000E+00  0.22240343191E+02  0.22240343343E+02  0.26000000000E-02 0.  1.
         -2   -1    0    0    0  501 -0.00000000000E+00 -0.00000000000E+00 -0.44971143843E+01  0.44971151359E+01  0.26000000000E-02 0. -1.
       1023    2    1    2    0    0  0.00000000000E+00  0.00000000000E+00  0.17743228807E+02  0.26737458479E+02  0.20001737860E+02 0.  0.
        -13    1    3    3    0    0  0.55594317377E+00 -0.99847585977E+01  0.89272112626E+01  0.13405623838E+02  0.10570000000E+00 0. -1.
         13    1    3    3    0    0 -0.55594317377E+00  0.99847585977E+01  0.88160175444E+01  0.13331834641E+02  0.10570000000E+00 0.  1.
<mgrwt>
<rscale>  0 0.20001738E+02</rscale>
<asrwt>0</asrwt>
<pdfrwt beam="1">  1        2 0.34215912E-02 0.20001738E+02</pdfrwt>
<pdfrwt beam="2">  1       -2 0.69186384E-03 0.20001738E+02</pdfrwt>
<totfact> 0.42073131E+06</totfact>
</mgrwt>
</event>
<event>
 4    1  0.1607476E-006  0.2002496E+02  0.7818608E-02  0.1744832E+00
          2   -1    0    0  501    0  0.00000000000E+00  0.00000000000E+00  0.32962671332E+01  0.32962681586E+01  0.26000000000E-02 0.  1.
         -2   -1    0    0    0  501 -0.00000000000E+00 -0.00000000000E+00 -0.30413096330E+02  0.30413096441E+02  0.26000000000E-02 0. -1.
        -13    1    1    2    0    0  0.99713559842E+01 -0.81777399799E+00 -0.12924425926E+02  0.16344682697E+02  0.10570000000E+00 0.  1.
         13    1    1    2    0    0 -0.99713559842E+01  0.81777399799E+00 -0.14192403271E+02  0.17364681903E+02  0.10570000000E+00 0. -1.
<mgrwt>
<rscale>  0 0.20024955E+02</rscale>
<asrwt>0</asrwt>
<pdfrwt beam="1">  1        2 0.50711813E-03 0.20024955E+02</pdfrwt>
<pdfrwt beam="2">  1       -2 0.46789378E-02 0.20024955E+02</pdfrwt>
<totfact> 0.35915923E+06</totfact>
</mgrwt>
</event>
<event>
 4    1  0.1607476E-006  0.2004290E+02  0.7818608E-02  0.1744476E+00
         -2   -1    0    0    0  501 -0.00000000000E+00  0.00000000000E+00  0.17277409593E+01  0.17277429156E+01  0.26000000000E-02 0. -1.
          2   -1    0    0  501    0  0.00000000000E+00 -0.00000000000E+00 -0.58127567358E+02  0.58127567416E+02  0.26000000000E-02 0.  1.
        -13    1    1    2    0    0  0.10011102513E+02  0.43509717181E+00 -0.27953946812E+02  0.29695888569E+02  0.10570000000E+00 0.  1.
         13    1    1    2    0    0 -0.10011102513E+02 -0.43509717181E+00 -0.28445879587E+02  0.30159421762E+02  0.10570000000E+00 0. -1.
<mgrwt>
<rscale>  0 0.20042898E+02</rscale>
<asrwt>0</asrwt>
<pdfrwt beam="2">  1        2 0.89427013E-02 0.20042898E+02</pdfrwt>
<pdfrwt beam="1">  1       -2 0.26580650E-03 0.20042898E+02</pdfrwt>
<totfact> 0.47219558E+06</totfact>
</mgrwt>
</event>
<event>
 5    1  0.2517032E-006  0.2000301E+02  0.7818608E-02  0.1745268E+00
         -2   -1    0    0    0  501 -0.00000000000E+00  0.00000000000E+00  0.88753027507E+00  0.88753408338E+00  0.26000000000E-02 0. -1.
          2   -1    0    0  501    0  0.00000000000E+00 -0.00000000000E+00 -0.11270590854E+03  0.11270590857E+03  0.26000000000E-02 0.  1.
       1023    2    1    2    0    0  0.00000000000E+00  0.00000000000E+00 -0.11181837827E+03  0.11359344266E+03  0.20003012175E+02 0.  0.
        -13    1    3    3    0    0  0.92463656605E+01 -0.38096302270E+01 -0.56488070103E+02  0.57366556432E+02  0.10570000000E+00 0. -1.
         13    1    3    3    0    0 -0.92463656605E+01  0.38096302270E+01 -0.55330308165E+02  0.56226886224E+02  0.10570000000E+00 0.  1.
<mgrwt>
<rscale>  0 0.20003012E+02</rscale>
<asrwt>0</asrwt>
<pdfrwt beam="2">  1        2 0.17339360E-01 0.20003012E+02</pdfrwt>
<pdfrwt beam="1">  1       -2 0.13654350E-03 0.20003012E+02</pdfrwt>
<totfact> 0.54236194E+06</totfact>
</mgrwt>
</event>
<event>
 5    1  0.1607476E-006  0.2000674E+02  0.7818608E-02  0.1745194E+00
          2   -1    0    0  501    0  0.00000000000E+00  0.00000000000E+00  0.20730024227E+02  0.20730024390E+02  0.26000000000E-02 0.  1.
         -2   -1    0    0    0  501 -0.00000000000E+00 -0.00000000000E+00 -0.48271737294E+01  0.48271744296E+01  0.26000000000E-02 0. -1.
       1023    2    1    2    0    0  0.00000000000E+00  0.00000000000E+00  0.15902850497E+02  0.25557198819E+02  0.20006742802E+02 0.  0.
        -13    1    3    3    0    0  0.52528573579E+01  0.85109382487E+01  0.77388700658E+01  0.12646337916E+02  0.10570000000E+00 0.  1.
         13    1    3    3    0    0 -0.52528573579E+01 -0.85109382487E+01  0.81639804316E+01  0.12910860904E+02  0.10570000000E+00 0. -1.
<mgrwt>
<rscale>  0 0.20006743E+02</rscale>
<asrwt>0</asrwt>
<pdfrwt beam="1">  1        2 0.31892346E-02 0.20006743E+02</pdfrwt>
<pdfrwt beam="2">  1       -2 0.74264217E-03 0.20006743E+02</pdfrwt>
<totfact> 0.41779707E+06</totfact>
</mgrwt>
</event>
<event>
 4    1  0.1607476E-006  0.2005866E+02  0.7818608E-02  0.1744164E+00
         -2   -1    0    0    0  501 -0.00000000000E+00  0.00000000000E+00  0.88851679606E+01  0.88851683410E+01  0.26000000000E-02 0. -1.
          2   -1    0    0  501    0  0.00000000000E+00 -0.00000000000E+00 -0.11320823301E+02  0.11320823599E+02  0.26000000000E-02 0.  1.
        -13    1    1    2    0    0  0.99681913497E+01  0.10797970854E+01 -0.10030709270E+01  0.10077108926E+02  0.10570000000E+00 0. -1.
         13    1    1    2    0    0 -0.99681913497E+01 -0.10797970854E+01 -0.14325844132E+01  0.10128883014E+02  0.10570000000E+00 0.  1.
<mgrwt>
<rscale>  0 0.20058656E+02</rscale>
<asrwt>0</asrwt>
<pdfrwt beam="2">  1        2 0.17416652E-02 0.20058656E+02</pdfrwt>
<pdfrwt beam="1">  1       -2 0.13669490E-02 0.20058656E+02</pdfrwt>
<totfact> 0.39560696E+06</totfact>
</mgrwt>
</event>
<event>
 4    1  0.1607476E-006  0.2004880E+02  0.7818608E-02  0.1744359E+00
          2   -1    0    0  501    0  0.00000000000E+00  0.00000000000E+00  0.91008054940E+00  0.91008426335E+00  0.26000000000E-02 0.  1.
         -2   -1    0    0    0  501 -0.00000000000E+00 -0.00000000000E+00 -0.11041698264E+03  0.11041698267E+03  0.26000000000E-02 0. -1.
        -13    1    1    2    0    0 -0.33925349745E+01  0.94319422776E+01 -0.55203039388E+02  0.56105771172E+02  0.10570000000E+00 0.  1.
         13    1    1    2    0    0  0.33925349745E+01 -0.94319422776E+01 -0.54303862704E+02  0.55221295763E+02  0.10570000000E+00 0. -1.
<mgrwt>
<rscale>  0 0.20048796E+02</rscale>
<asrwt>0</asrwt>
<pdfrwt beam="1">  1        2 0.14001277E-03 0.20048796E+02</pdfrwt>
<pdfrwt beam="2">  1       -2 0.16987218E-01 0.20048796E+02</pdfrwt>
<totfact> 0.28837804E+06</totfact>
</mgrwt>
</event>
<event>
 4    1  0.1607476E-006  0.2005869E+02  0.7818608E-02  0.1744163E+00
         -2   -1    0    0    0  501 -0.00000000000E+00  0.00000000000E+00  0.12675937259E+01  0.12675963924E+01  0.26000000000E-02 0.  1.
          2   -1    0    0  501    0  0.00000000000E+00 -0.00000000000E+00 -0.79353241929E+02  0.79353241972E+02  0.26000000000E-02 0. -1.
        -13    1    1    2    0    0  0.87728449597E+01  0.48049129394E+01 -0.41959510775E+02  0.43135388187E+02  0.10570000000E+00 0. -1.
         13    1    1    2    0    0 -0.87728449597E+01 -0.48049129394E+01 -0.36126137428E+02  0.37485450177E+02  0.10570000000E+00 0.  1.
<mgrwt>
<rscale>  0 0.20058692E+02</rscale>
<asrwt>0</asrwt>
<pdfrwt beam="2">  1        2 0.12208187E-01 0.20058692E+02</pdfrwt>
<pdfrwt beam="1">  1       -2 0.19501469E-03 0.20058692E+02</pdfrwt>
<totfact> 0.49893229E+06</totfact>
</mgrwt>
</event>
<event>
 5    1  0.1647701E-006  0.2000181E+02  0.7818608E-02  0.1745292E+00
         -2   -1    0    0    0  501 -0.00000000000E+00  0.00000000000E+00  0.15354340420E+01  0.15354362433E+01  0.26000000000E-02 0. -1.
          2   -1    0    0  501    0  0.00000000000E+00 -0.00000000000E+00 -0.65139890642E+02  0.65139890694E+02  0.26000000000E-02 0.  1.
       1023    2    1    2    0    0  0.00000000000E+00  0.00000000000E+00 -0.63604456600E+02  0.66675326937E+02  0.20001807988E+02 0.  0.
        -13    1    3    3    0    0 -0.76562618461E+01 -0.64331399891E+01 -0.31992925704E+02  0.33519577908E+02  0.10570000000E+00 0. -1.
         13    1    3    3    0    0  0.76562618461E+01  0.64331399891E+01 -0.31611530896E+02  0.33155749029E+02  0.10570000000E+00 0.  1.
<mgrwt>
<rscale>  0 0.20001808E+02</rscale>
<asrwt>0</asrwt>
<pdfrwt beam="2">  1        2 0.10021520E-01 0.20001808E+02</pdfrwt>
<pdfrwt beam="1">  1       -2 0.23622085E-03 0.20001808E+02</pdfrwt>
<totfact> 0.48373132E+06</totfact>
</mgrwt>
</event>
<event>
 5    1  0.1607476E-006  0.2000582E+02  0.7818608E-02  0.1745212E+00
          2   -1    0    0  501    0  0.00000000000E+00  0.00000000000E+00  0.38334288224E+02  0.38334288312E+02  0.26000000000E-02 0. -1.
         -2   -1    0    0    0  501 -0.00000000000E+00 -0.00000000000E+00 -0.26101494451E+01  0.26101507400E+01  0.26000000000E-02 0.  1.
       1023    2    1    2    0    0  0.00000000000E+00  0.00000000000E+00  0.35724138779E+02  0.40944439052E+02  0.20005824097E+02 0.  0.
        -13    1    3    3    0    0 -0.20965454182E+01 -0.97797796417E+01  0.18039128322E+02  0.20626703946E+02  0.10570000000E+00 0.  1.
         13    1    3    3    0    0  0.20965454182E+01  0.97797796417E+01  0.17685010456E+02  0.20317735106E+02  0.10570000000E+00 0. -1.
<mgrwt>
<rscale>  0 0.20005824E+02</rscale>
<asrwt>0</asrwt>
<pdfrwt beam="1">  1        2 0.58975823E-02 0.20005824E+02</pdfrwt>
<pdfrwt beam="2">  1       -2 0.40156160E-03 0.20005824E+02</pdfrwt>
<totfact> 0.44621073E+06</totfact>
</mgrwt>
</event>
<event>
 5    1  0.1607476E-006  0.2000157E+02  0.7818608E-02  0.1745297E+00
          2   -1    0    0  501    0  0.00000000000E+00  0.00000000000E+00  0.28489583575E+01  0.28489595439E+01  0.26000000000E-02 0.  1.
         -2   -1    0    0    0  501 -0.00000000000E+00 -0.00000000000E+00 -0.35106054483E+02  0.35106054579E+02  0.26000000000E-02 0. -1.
       1023    2    1    2    0    0  0.00000000000E+00  0.00000000000E+00 -0.32257096125E+02  0.37955014123E+02  0.20001571104E+02 0.  0.
        -13    1    3    3    0    0 -0.93245687628E+01 -0.36130110672E+01 -0.16234331261E+02  0.19067409776E+02  0.10570000000E+00 0.  1.
         13    1    3    3    0    0  0.93245687628E+01  0.36130110672E+01 -0.16022764865E+02  0.18887604347E+02  0.10570000000E+00 0. -1.
<mgrwt>
<rscale>  0 0.20001571E+02</rscale>
<asrwt>0</asrwt>
<pdfrwt beam="1">  1        2 0.43830141E-03 0.20001571E+02</pdfrwt>
<pdfrwt beam="2">  1       -2 0.54009312E-02 0.20001571E+02</pdfrwt>
<totfact> 0.35454763E+06</totfact>
</mgrwt>
</event>
<event>
 5    1  0.1607476E-006  0.2000239E+02  0.7818608E-02  0.1745281E+00
          2   -1    0    0  501    0  0.00000000000E+00  0.00000000000E+00  0.35267793797E+01  0.35267803380E+01  0.26000000000E-02 0. -1.
         -2   -1    0    0    0  501 -0.00000000000E+00 -0.00000000000E+00 -0.28361242012E+02  0.28361242131E+02  0.26000000000E-02 0.  1.
       1023    2    1    2    0    0  0.00000000000E+00  0.00000000000E+00 -0.24834462632E+02  0.31888022469E+02  0.20002385927E+02 0.  0.
        -13    1    3    3    0    0  0.88034242068E+01 -0.47446973911E+01 -0.12391669057E+02  0.15924103290E+02  0.10570000000E+00 0. -1.
         13    1    3    3    0    0 -0.88034242068E+01  0.47446973911E+01 -0.12442793575E+02  0.15963919179E+02  0.10570000000E+00 0.  1.
<mgrwt>
<rscale>  0 0.20002386E+02</rscale>
<asrwt>0</asrwt>
<pdfrwt beam="1">  1        2 0.54258155E-03 0.20002386E+02</pdfrwt>
<pdfrwt beam="2">  1       -2 0.43632679E-02 0.20002386E+02</pdfrwt>
<totfact> 0.36259460E+06</totfact>
</mgrwt>
</event>
<event>
 4    1  0.1607476E-006  0.2003016E+02  0.7818608E-02  0.1744729E+00
         -2   -1    0    0    0  501 -0.00000000000E+00  0.00000000000E+00  0.11396814997E+02  0.11396815294E+02  0.26000000000E-02 0.  1.
          2   -1    0    0  501    0  0.00000000000E+00 -0.00000000000E+00 -0.88008644797E+01  0.88008648637E+01  0.26000000000E-02 0. -1.
        -13    1    1    2    0    0 -0.29604813227E+01  0.95665464959E+01  0.13847012623E+01  0.10109986726E+02  0.10570000000E+00 0. -1.
         13    1    1    2    0    0  0.29604813227E+01 -0.95665464959E+01  0.12112492549E+01  0.10087693431E+02  0.10570000000E+00 0.  1.
<mgrwt>
<rscale>  0 0.20030160E+02</rscale>
<asrwt>0</asrwt>
<pdfrwt beam="2">  1        2 0.13539792E-02 0.20030160E+02</pdfrwt>
<pdfrwt beam="1">  1       -2 0.17533562E-02 0.20030160E+02</pdfrwt>
<totfact> 0.38961256E+06</totfact>
</mgrwt>
</event>
<event>
 5    1  0.1607476E-006  0.2000249E+02  0.7818608E-02  0.1745279E+00
          2   -1    0    0  501    0  0.00000000000E+00  0.00000000000E+00  0.28351814529E+02  0.28351814649E+02  0.26000000000E-02 0. -1.
         -2   -1    0    0    0  501 -0.00000000000E+00 -0.00000000000E+00 -0.35279893265E+01  0.35279902845E+01  0.26000000000E-02 0.  1.
       1023    2    1    2    0    0  0.00000000000E+00  0.00000000000E+00  0.24823825203E+02  0.31879804933E+02  0.20002491467E+02 0.  0.
        -13    1    3    3    0    0 -0.96290913753E+01  0.27003435773E+01  0.12332421253E+02  0.15878004995E+02  0.10570000000E+00 0. -1.
         13    1    3    3    0    0  0.96290913753E+01 -0.27003435773E+01  0.12491403950E+02  0.16001799939E+02  0.10570000000E+00 0.  1.
<mgrwt>
<rscale>  0 0.20002491E+02</rscale>
<asrwt>0</asrwt>
<pdfrwt beam="1">  1        2 0.43618178E-02 0.20002491E+02</pdfrwt>
<pdfrwt beam="2">  1       -2 0.54276766E-03 0.20002491E+02</pdfrwt>
<totfact> 0.43097403E+06</totfact>
</mgrwt>
</event>
<event>
 5    1  0.1607476E-006  0.2000151E+02  0.7818608E-02  0.1745298E+00
         -2   -1    0    0    0  501 -0.00000000000E+00  0.00000000000E+00  0.45377642922E+02  0.45377642996E+02  0.26000000000E-02 0. -1.
          2   -1    0    0  501    0  0.00000000000E+00 -0.00000000000E+00 -0.22040592363E+01  0.22040607699E+01  0.26000000000E-02 0.  1.
       1023    2    1    2    0    0  0.00000000000E+00  0.00000000000E+00  0.43173583686E+02  0.47581703766E+02  0.20001505070E+02 0.  0.
        -13    1    3    3    0    0 -0.88283633697E+01  0.46968284327E+01  0.21442447727E+02  0.23659880265E+02  0.10570000000E+00 0.  1.
         13    1    3    3    0    0  0.88283633697E+01 -0.46968284327E+01  0.21731135958E+02  0.23921823502E+02  0.10570000000E+00 0. -1.
<mgrwt>
<rscale>  0 0.20001505E+02</rscale>
<asrwt>0</asrwt>
<pdfrwt beam="2">  1        2 0.33908617E-03 0.20001505E+02</pdfrwt>
<pdfrwt beam="1">  1       -2 0.69811758E-02 0.20001505E+02</pdfrwt>
<totfact> 0.34353228E+06</totfact>
</mgrwt>
</event>
<event>
 4    1  0.1607476E-006  0.2001560E+02  0.7818608E-02  0.1745018E+00
          2   -1    0    0  501    0  0.00000000000E+00  0.00000000000E+00  0.11888120921E+02  0.11888121206E+02  0.26000000000E-02 0.  1.
         -2   -1    0    0    0  501 -0.00000000000E+00 -0.00000000000E+00 -0.84248848450E+01  0.84248852462E+01  0.26000000000E-02 0. -1.
        -13    1    1    2    0    0  0.15928582792E+01 -0.98771487230E+01  0.15055530088E+01  0.10117960602E+02  0.10570000000E+00 0.  1.
         13    1    1    2    0    0 -0.15928582792E+01  0.98771487230E+01  0.19576830674E+01  0.10195045850E+02  0.10570000000E+00 0. -1.
<mgrwt>
<rscale>  0 0.20015600E+02</rscale>
<asrwt>0</asrwt>
<pdfrwt beam="1">  1        2 0.18289417E-02 0.20015600E+02</pdfrwt>
<pdfrwt beam="2">  1       -2 0.12961362E-02 0.20015600E+02</pdfrwt>
<totfact> 0.39899873E+06</totfact>
</mgrwt>
</event>
<event>
 4    1  0.1607476E-006  0.2002250E+02  0.7818608E-02  0.1744881E+00
          2   -1    0    0  501    0  0.00000000000E+00  0.00000000000E+00  0.18111615258E+02  0.18111615445E+02  0.26000000000E-02 0. -1.
         -2   -1    0    0    0  501 -0.00000000000E+00 -0.00000000000E+00 -0.55337493671E+01  0.55337499779E+01  0.26000000000E-02 0.  1.
        -13    1    1    2    0    0  0.29658279527E+01 -0.95586624487E+01  0.65525052141E+01  0.11962886789E+02  0.10570000000E+00 0. -1.
         13    1    1    2    0    0 -0.29658279527E+01  0.95586624487E+01  0.60253606770E+01  0.11682478634E+02  0.10570000000E+00 0.  1.
<mgrwt>
<rscale>  0 0.20022502E+02</rscale>
<asrwt>0</asrwt>
<pdfrwt beam="1">  1        2 0.27864025E-02 0.20022502E+02</pdfrwt>
<pdfrwt beam="2">  1       -2 0.85134610E-03 0.20022502E+02</pdfrwt>
<totfact> 0.41216940E+06</totfact>
</mgrwt>
</event>
<event>
 5    1  0.1607476E-006  0.2000634E+02  0.7818608E-02  0.1745202E+00
         -2   -1    0    0    0  501 -0.00000000000E+00  0.00000000000E+00  0.67215563240E+01  0.67215568268E+01  0.26000000000E-02 0.  1.
          2   -1    0    0  501    0  0.00000000000E+00 -0.00000000000E+00 -0.14886934879E+02  0.14886935106E+02  0.26000000000E-02 0. -1.
       1023    2    1    2    0    0  0.00000000000E+00  0.00000000000E+00 -0.81653785545E+01  0.21608491932E+02  0.20006336912E+02 0.  0.
        -13    1    3    3    0    0  0.77821780716E+00  0.99710328616E+01 -0.42537635178E+01  0.10868891196E+02  0.10570000000E+00 0.  1.
         13    1    3    3    0    0 -0.77821780716E+00 -0.99710328616E+01 -0.39116150367E+01  0.10739600736E+02  0.10570000000E+00 0. -1.
<mgrwt>
<rscale>  0 0.20006337E+02</rscale>
<asrwt>0</asrwt>
<pdfrwt beam="2">  1        2 0.22902977E-02 0.20006337E+02</pdfrwt>
<pdfrwt beam="1">  1       -2 0.10340856E-02 0.20006337E+02</pdfrwt>
<totfact> 0.40636100E+06</totfact>
</mgrwt>
</event>
<event>
 5    1  0.1607476E-006  0.2000208E+02  0.7818608E-02  0.1745287E+00
          2   -1    0    0  501    0  0.00000000000E+00  0.00000000000E+00  0.31734883425E+02  0.31734883532E+02  0.26000000000E-02 0.  1.
         -2   -1    0    0    0  501 -0.00000000000E+00 -0.00000000000E+00 -0.31517606542E+01  0.31517617266E+01  0.26000000000E-02 0. -1.
       1023    2    1    2    0    0  0.00000000000E+00  0.00000000000E+00  0.28583122771E+02  0.34886645258E+02  0.20002077643E+02 0.  0.
        -13    1    3    3    0    0  0.21495805890E+01 -0.97663073786E+01  0.14134118577E+02  0.17314327506E+02  0.10570000000E+00 0.  1.
         13    1    3    3    0    0 -0.21495805890E+01  0.97663073786E+01  0.14449004194E+02  0.17572317753E+02  0.10570000000E+00 0. -1.
<mgrwt>
<rscale>  0 0.20002078E+02</rscale>
<asrwt>0</asrwt>
<pdfrwt beam="1">  1        2 0.48822899E-02 0.20002078E+02</pdfrwt>
<pdfrwt beam="2">  1       -2 0.48488634E-03 0.20002078E+02</pdfrwt>
<totfact> 0.43636096E+06</totfact>
</mgrwt>
</event>
<event>
 4    1  0.1607476E-006  0.2001867E+02  0.7818608E-02  0.1744957E+00
          2   -1    0    0  501    0  0.00000000000E+00  0.00000000000E+00  0.51991147053E+02  0.51991147118E+02  0.26000000000E-02 0. -1.
         -2   -1    0    0    0  501 -0.00000000000E+00 -0.00000000000E+00 -0.19269965907E+01  0.19269983447E+01  0.26000000000E-02 0.  1.
        -13    1    1    2    0    0  0.99388732693E+01  0.11800568304E+01  0.24914559293E+02  0.26849956671E+02  0.10570000000E+00 0. -1.
         13    1    1    2    0    0 -0.99388732693E+01 -0.11800568304E+01  0.25149591169E+02  0.27068188792E+02  0.10570000000E+00 0.  1.
<mgrwt>
<rscale>  0 0.20018672E+02</rscale>
<asrwt>0</asrwt>
<pdfrwt beam="1">  1        2 0.79986383E-02 0.20018672E+02</pdfrwt>
<pdfrwt beam="2">  1       -2 0.29646115E-03 0.20018672E+02</pdfrwt>
<totfact> 0.46508435E+06</totfact>
</mgrwt>
</event>
<event>
 5    1  0.1607476E-006  0.2001165E+02  0.7818608E-02  0.1745096E+00
         -2   -1    0    0    0  501 -0.00000000000E+00  0.00000000000E+00  0.92060366002E+00  0.92060733152E+00  0.26000000000E-02 0. -1.
          2   -1    0    0  501    0  0.00000000000E+00 -0.00000000000E+00 -0.10875075126E+03  0.10875075129E+03  0.26000000000E-02 0.  1.
       1023    2    1    2    0    0  0.00000000000E+00  0.00000000000E+00 -0.10783014760E+03  0.10967135863E+03  0.20011650874E+02 0.  0.
        -13    1    3    3    0    0 -0.92724446989E+01  0.37576513581E+01 -0.54379962191E+02  0.55292762951E+02  0.10570000000E+00 0.  1.
         13    1    3    3    0    0  0.92724446989E+01 -0.37576513581E+01 -0.53450185412E+02  0.54378595674E+02  0.10570000000E+00 0. -1.
<mgrwt>
<rscale>  0 0.20011651E+02</rscale>
<asrwt>0</asrwt>
<pdfrwt beam="2">  1        2 0.16730875E-01 0.20011651E+02</pdfrwt>
<pdfrwt beam="1">  1       -2 0.14163170E-03 0.20011651E+02</pdfrwt>
<totfact> 0.53724614E+06</totfact>
</mgrwt>
</event>
<event>
 4    1  0.1607476E-006  0.2135698E+02  0.7818608E-02  0.1719616E+00
         -2   -1    0    0    0  501 -0.00000000000E+00  0.00000000000E+00  0.36827191899E+02  0.36827191991E+02  0.26000000000E-02 0. -1.
          2   -1    0    0  501    0  0.00000000000E+00 -0.00000000000E+00 -0.30963556331E+01  0.30963567247E+01  0.26000000000E-02 0.  1.
        -13    1    1    2    0    0 -0.74547747672E+01 -0.75947699333E+01  0.15230690353E+02  0.18580616198E+02  0.10570000000E+00 0.  1.
         13    1    1    2    0    0  0.74547747672E+01  0.75947699333E+01  0.18500145914E+02  0.21342932518E+02  0.10570000000E+00 0. -1.
<mgrwt>
<rscale>  0 0.21356976E+02</rscale>
<asrwt>0</asrwt>
<pdfrwt beam="2">  1        2 0.47636247E-03 0.21356976E+02</pdfrwt>
<pdfrwt beam="1">  1       -2 0.56657222E-02 0.21356976E+02</pdfrwt>
<totfact> 0.30532404E+06</totfact>
</mgrwt>
</event>
<event>
 5    1  0.1607476E-006  0.2000617E+02  0.7818608E-02  0.1745205E+00
         -2   -1    0    0    0  501 -0.00000000000E+00  0.00000000000E+00  0.25916888551E+01  0.25916901592E+01  0.26000000000E-02 0. -1.
          2   -1    0    0  501    0  0.00000000000E+00 -0.00000000000E+00 -0.38608662245E+02  0.38608662333E+02  0.26000000000E-02 0.  1.
       1023    2    1    2    0    0  0.00000000000E+00  0.00000000000E+00 -0.36016973390E+02  0.41200352492E+02  0.20006165881E+02 0.  0.
        -13    1    3    3    0    0  0.20027417102E+01 -0.97999475761E+01 -0.18056738596E+02  0.20642357618E+02  0.10570000000E+00 0.  1.
         13    1    3    3    0    0 -0.20027417102E+01  0.97999475761E+01 -0.17960234795E+02  0.20557994874E+02  0.10570000000E+00 0. -1.
<mgrwt>
<rscale>  0 0.20006166E+02</rscale>
<asrwt>0</asrwt>
<pdfrwt beam="2">  1        2 0.59397939E-02 0.20006166E+02</pdfrwt>
<pdfrwt beam="1">  1       -2 0.39872150E-03 0.20006166E+02</pdfrwt>
<totfact> 0.44660074E+06</totfact>
</mgrwt>
</event>
<event>
 4    1  0.1719400E-006  0.2302418E+02  0.7818608E-02  0.1691118E+00
         -2   -1    0    0    0  501 -0.00000000000E+00  0.00000000000E+00  0.27202888237E+02  0.27202888361E+02  0.26000000000E-02 0. -1.
          2   -1    0    0  501    0  0.00000000000E+00 -0.00000000000E+00 -0.48718431380E+01  0.48718438318E+01  0.26000000000E-02 0.  1.
        -13    1    1    2    0    0 -0.37599329868E+01  0.10659182192E+02  0.14205453426E+02  0.18153824407E+02  0.10570000000E+00 0. -1.
         13    1    1    2    0    0  0.37599329868E+01 -0.10659182192E+02  0.81255916725E+01  0.13920907786E+02  0.10570000000E+00 0.  1.
<mgrwt>
<rscale>  0 0.23024180E+02</rscale>
<asrwt>0</asrwt>
<pdfrwt beam="2">  1        2 0.74951440E-03 0.23024180E+02</pdfrwt>
<pdfrwt beam="1">  1       -2 0.41850597E-02 0.23024180E+02</pdfrwt>
<totfact> 0.26710371E+06</totfact>
</mgrwt>
</event>
<event>
 5    1  0.1607476E-006  0.2000531E+02  0.7818608E-02  0.1745223E+00
         -2   -1    0    0    0  501 -0.00000000000E+00  0.00000000000E+00  0.15796677472E+01  0.15796698869E+01  0.26000000000E-02 0. -1.
          2   -1    0    0  501    0  0.00000000000E+00 -0.00000000000E+00 -0.63338018671E+02  0.63338018724E+02  0.26000000000E-02 0.  1.
       1023    2    1    2    0    0  0.00000000000E+00  0.00000000000E+00 -0.61758350923E+02  0.64917688611E+02  0.20005308941E+02 0.  0.
        -13    1    3    3    0    0  0.93669659044E+01  0.35037532196E+01 -0.30360102780E+02  0.31965033242E+02  0.10570000000E+00 0. -1.
         13    1    3    3    0    0 -0.93669659044E+01 -0.35037532196E+01 -0.31398248144E+02  0.32952655369E+02  0.10570000000E+00 0.  1.
<mgrwt>
<rscale>  0 0.20005309E+02</rscale>
<asrwt>0</asrwt>
<pdfrwt beam="2">  1        2 0.97443088E-02 0.20005309E+02</pdfrwt>
<pdfrwt beam="1">  1       -2 0.24302603E-03 0.20005309E+02</pdfrwt>
<totfact> 0.48115685E+06</totfact>
</mgrwt>
</event>
<event>
 5    1  0.1607476E-006  0.2001060E+02  0.7818608E-02  0.1745117E+00
         -2   -1    0    0    0  501 -0.00000000000E+00  0.00000000000E+00  0.18090950314E+01  0.18090968997E+01  0.26000000000E-02 0.  1.
          2   -1    0    0  501    0  0.00000000000E+00 -0.00000000000E+00 -0.55334834240E+02  0.55334834302E+02  0.26000000000E-02 0. -1.
       1023    2    1    2    0    0  0.00000000000E+00  0.00000000000E+00 -0.53525739209E+02  0.57143931201E+02  0.20010600072E+02 0.  0.
        -13    1    3    3    0    0  0.99283097060E+01 -0.12204901389E+01 -0.26236876938E+02  0.28079277301E+02  0.10570000000E+00 0. -1.
         13    1    3    3    0    0 -0.99283097060E+01  0.12204901389E+01 -0.27288862272E+02  0.29064653901E+02  0.10570000000E+00 0.  1.
<mgrwt>
<rscale>  0 0.20010600E+02</rscale>
<asrwt>0</asrwt>
<pdfrwt beam="2">  1        2 0.85130503E-02 0.20010600E+02</pdfrwt>
<pdfrwt beam="1">  1       -2 0.27832250E-03 0.20010600E+02</pdfrwt>
<totfact> 0.47009833E+06</totfact>
</mgrwt>
</event>
<event>
 5    1  0.1607476E-006  0.2000145E+02  0.7818608E-02  0.1745299E+00
         -2   -1    0    0    0  501 -0.00000000000E+00  0.00000000000E+00  0.61136916916E+02  0.61136916971E+02  0.26000000000E-02 0. -1.
          2   -1    0    0  501    0  0.00000000000E+00 -0.00000000000E+00 -0.16359096124E+01  0.16359116785E+01  0.26000000000E-02 0.  1.
       1023    2    1    2    0    0  0.00000000000E+00  0.00000000000E+00  0.59501007304E+02  0.62772828650E+02  0.20001453611E+02 0.  0.
        -13    1    3    3    0    0  0.57751892220E+01 -0.81639571226E+01  0.29809860105E+02  0.31442677024E+02  0.10570000000E+00 0.  1.
         13    1    3    3    0    0 -0.57751892220E+01  0.81639571226E+01  0.29691147199E+02  0.31330151626E+02  0.10570000000E+00 0. -1.
<mgrwt>
<rscale>  0 0.20001454E+02</rscale>
<asrwt>0</asrwt>
<pdfrwt beam="2">  1        2 0.25167859E-03 0.20001454E+02</pdfrwt>
<pdfrwt beam="1">  1       -2 0.94056788E-02 0.20001454E+02</pdfrwt>
<totfact> 0.32852146E+06</totfact>
</mgrwt>
</event>
<event>
 5    1  0.1607476E-006  0.2000354E+02  0.7818608E-02  0.1745258E+00
         -2   -1    0    0    0  501 -0.00000000000E+00  0.00000000000E+00  0.94177145354E+01  0.94177148943E+01  0.26000000000E-02 0.  1.
          2   -1    0    0  501    0  0.00000000000E+00 -0.00000000000E+00 -0.10622047694E+02  0.10622048012E+02  0.26000000000E-02 0. -1.
       1023    2    1    2    0    0  0.00000000000E+00  0.00000000000E+00 -0.12043331588E+01  0.20039762907E+02  0.20003541661E+02 0.  0.
        -13    1    3    3    0    0  0.36047155331E+01  0.93287320222E+01 -0.53110123912E+00  0.10015610627E+02  0.10570000000E+00 0.  1.
         13    1    3    3    0    0 -0.36047155331E+01 -0.93287320222E+01 -0.67323191971E+00  0.10024152280E+02  0.10570000000E+00 0. -1.
<mgrwt>
<rscale>  0 0.20003542E+02</rscale>
<asrwt>0</asrwt>
<pdfrwt beam="2">  1        2 0.16341612E-02 0.20003542E+02</pdfrwt>
<pdfrwt beam="1">  1       -2 0.14488792E-02 0.20003542E+02</pdfrwt>
<totfact> 0.39622450E+06</totfact>
</mgrwt>
</event>
<event>
 5    1  0.1699277E-006  0.2000166E+02  0.7818608E-02  0.1745295E+00
         -2   -1    0    0    0  501 -0.00000000000E+00  0.00000000000E+00  0.30233238055E+01  0.30233249235E+01  0.26000000000E-02 0. -1.
          2   -1    0    0  501    0  0.00000000000E+00 -0.00000000000E+00 -0.33081659863E+02  0.33081659966E+02  0.26000000000E-02 0.  1.
       1023    2    1    2    0    0  0.00000000000E+00  0.00000000000E+00 -0.30058336058E+02  0.36104984889E+02  0.20001659113E+02 0.  0.
        -13    1    3    3    0    0 -0.73350136987E+01  0.67972003230E+01 -0.15087969315E+02  0.18101446040E+02  0.10570000000E+00 0.  1.
         13    1    3    3    0    0  0.73350136987E+01 -0.67972003230E+01 -0.14970366743E+02  0.18003538849E+02  0.10570000000E+00 0. -1.
<mgrwt>
<rscale>  0 0.20001659E+02</rscale>
<asrwt>0</asrwt>
<pdfrwt beam="2">  1        2 0.50894860E-02 0.20001659E+02</pdfrwt>
<pdfrwt beam="1">  1       -2 0.46512686E-03 0.20001659E+02</pdfrwt>
<totfact> 0.43847123E+06</totfact>
</mgrwt>
</event>
<event>
 5    1  0.1607476E-006  0.2000279E+02  0.7818608E-02  0.1745273E+00
          2   -1    0    0  501    0  0.00000000000E+00  0.00000000000E+00  0.68858834308E+02  0.68858834357E+02  0.26000000000E-02 0. -1.
         -2   -1    0    0    0  501 -0.00000000000E+00 -0.00000000000E+00 -0.14526507532E+01  0.14526530799E+01  0.26000000000E-02 0.  1.
       1023    2    1    2    0    0  0.00000000000E+00  0.00000000000E+00  0.67406183555E+02  0.70311487437E+02  0.20002791910E+02 0.  0.
        -13    1    3    3    0    0 -0.34156027261E+01 -0.93992435709E+01  0.33463992004E+02  0.34926523661E+02  0.10570000000E+00 0. -1.
         13    1    3    3    0    0  0.34156027261E+01  0.93992435709E+01  0.33942191551E+02  0.35384963776E+02  0.10570000000E+00 0.  1.
<mgrwt>
<rscale>  0 0.20002792E+02</rscale>
<asrwt>0</asrwt>
<pdfrwt beam="1">  1        2 0.10593664E-01 0.20002792E+02</pdfrwt>
<pdfrwt beam="2">  1       -2 0.22348498E-03 0.20002792E+02</pdfrwt>
<totfact> 0.48856031E+06</totfact>
</mgrwt>
</event>
<event>
 4    1  0.1607476E-006  0.2015248E+02  0.7818608E-02  0.1742313E+00
          2   -1    0    0  501    0  0.00000000000E+00  0.00000000000E+00  0.70853333212E+02  0.70853333260E+02  0.26000000000E-02 0.  1.
         -2   -1    0    0    0  501 -0.00000000000E+00 -0.00000000000E+00 -0.14329673038E+01  0.14329696625E+01  0.26000000000E-02 0. -1.
        -13    1    1    2    0    0  0.92935846264E+01  0.38417179942E+01  0.36949991223E+02  0.38294157991E+02  0.10570000000E+00 0. -1.
         13    1    1    2    0    0 -0.92935846264E+01 -0.38417179942E+01  0.32470374685E+02  0.33992144931E+02  0.10570000000E+00 0.  1.
<mgrwt>
<rscale>  0 0.20152478E+02</rscale>
<asrwt>0</asrwt>
<pdfrwt beam="1">  1        2 0.10900513E-01 0.20152478E+02</pdfrwt>
<pdfrwt beam="2">  1       -2 0.22045669E-03 0.20152478E+02</pdfrwt>
<totfact> 0.48309738E+06</totfact>
</mgrwt>
</event>
<event>
 4    1  0.1607476E-006  0.2001719E+02  0.7818608E-02  0.1744986E+00
         -2   -1    0    0    0  501 -0.00000000000E+00  0.00000000000E+00  0.22186753732E+02  0.22186753885E+02  0.26000000000E-02 0. -1.
          2   -1    0    0  501    0  0.00000000000E+00 -0.00000000000E+00 -0.45149455302E+01  0.45149462788E+01  0.26000000000E-02 0.  1.
        -13    1    1    2    0    0  0.98088495377E+01  0.19635638952E+01  0.92398731993E+01  0.13618206257E+02  0.10570000000E+00 0. -1.
         13    1    1    2    0    0 -0.98088495377E+01 -0.19635638952E+01  0.84319350027E+01  0.13083493907E+02  0.10570000000E+00 0.  1.
<mgrwt>
<rscale>  0 0.20017192E+02</rscale>
<asrwt>0</asrwt>
<pdfrwt beam="2">  1        2 0.69460707E-03 0.20017192E+02</pdfrwt>
<pdfrwt beam="1">  1       -2 0.34133468E-02 0.20017192E+02</pdfrwt>
<totfact> 0.37035038E+06</totfact>
</mgrwt>
</event>
<event>
 5    1  0.1607476E-006  0.2001024E+02  0.7818608E-02  0.1745125E+00
         -2   -1    0    0    0  501 -0.00000000000E+00  0.00000000000E+00  0.16644149484E+02  0.16644149687E+02  0.26000000000E-02 0. -1.
          2   -1    0    0  501    0  0.00000000000E+00 -0.00000000000E+00 -0.60142675195E+01  0.60142680815E+01  0.26000000000E-02 0.  1.
       1023    2    1    2    0    0  0.00000000000E+00  0.00000000000E+00  0.10629881965E+02  0.22658417769E+02  0.20010235011E+02 0.  0.
        -13    1    3    3    0    0 -0.16414289891E+01 -0.98681518785E+01  0.51695191217E+01  0.11260986238E+02  0.10570000000E+00 0. -1.
         13    1    3    3    0    0  0.16414289891E+01  0.98681518785E+01  0.54603628430E+01  0.11397431530E+02  0.10570000000E+00 0.  1.
<mgrwt>
<rscale>  0 0.20010235E+02</rscale>
<asrwt>0</asrwt>
<pdfrwt beam="2">  1        2 0.92527198E-03 0.20010235E+02</pdfrwt>
<pdfrwt beam="1">  1       -2 0.25606384E-02 0.20010235E+02</pdfrwt>
<totfact> 0.37950054E+06</totfact>
</mgrwt>
</event>
<event>
 4    1  0.1607476E-006  0.2002255E+02  0.7818608E-02  0.1744880E+00
          2   -1    0    0  501    0  0.00000000000E+00  0.00000000000E+00  0.66454720169E+02  0.66454720220E+02  0.26000000000E-02 0. -1.
         -2   -1    0    0    0  501 -0.00000000000E+00 -0.00000000000E+00 -0.15081780488E+01  0.15081802899E+01  0.26000000000E-02 0.  1.
        -13    1    1    2    0    0  0.98111224763E+01  0.19741076536E+01  0.31647186401E+02  0.33192029236E+02  0.10570000000E+00 0. -1.
         13    1    1    2    0    0 -0.98111224763E+01 -0.19741076536E+01  0.33299355720E+02  0.34770871274E+02  0.10570000000E+00 0.  1.
<mgrwt>
<rscale>  0 0.20022550E+02</rscale>
<asrwt>0</asrwt>
<pdfrwt beam="1">  1        2 0.10223802E-01 0.20022550E+02</pdfrwt>
<pdfrwt beam="2">  1       -2 0.23202759E-03 0.20022550E+02</pdfrwt>
<totfact> 0.48434897E+06</totfact>
</mgrwt>
</event>
<event>
 5    1  0.1607476E-006  0.2000187E+02  0.7818608E-02  0.1745291E+00
          2   -1    0    0  501    0  0.00000000000E+00  0.00000000000E+00  0.25006189428E+02  0.25006189563E+02  0.26000000000E-02 0. -1.
         -2   -1    0    0    0  501 -0.00000000000E+00 -0.00000000000E+00 -0.39997578602E+01  0.39997587053E+01  0.26000000000E-02 0.  1.
       1023    2    1    2    0    0  0.00000000000E+00  0.00000000000E+00  0.21006431568E+02  0.29005948268E+02  0.20001871606E+02 0.  0.
        -13    1    3    3    0    0  0.99488717680E+01 -0.10112777413E+01  0.10603814768E+02  0.14575829041E+02  0.10570000000E+00 0. -1.
         13    1    3    3    0    0 -0.99488717680E+01  0.10112777413E+01  0.10402616800E+02  0.14430119227E+02  0.10570000000E+00 0.  1.
<mgrwt>
<rscale>  0 0.20001872E+02</rscale>
<asrwt>0</asrwt>
<pdfrwt beam="1">  1        2 0.38471061E-02 0.20001872E+02</pdfrwt>
<pdfrwt beam="2">  1       -2 0.61534744E-03 0.20001872E+02</pdfrwt>
<totfact> 0.42548748E+06</totfact>
</mgrwt>
</event>
<event>
 5    1  0.1607476E-006  0.2000309E+02  0.7818608E-02  0.1745267E+00
          2   -1    0    0  501    0  0.00000000000E+00  0.00000000000E+00  0.21679190972E+01  0.21679206563E+01  0.26000000000E-02 0. -1.
         -2   -1    0    0    0  501 -0.00000000000E+00 -0.00000000000E+00 -0.46141403364E+02  0.46141403438E+02  0.26000000000E-02 0.  1.
       1023    2    1    2    0    0  0.00000000000E+00  0.00000000000E+00 -0.43973484267E+02  0.48309324094E+02  0.20003086657E+02 0.  0.
        -13    1    3    3    0    0 -0.19479362086E+01  0.98093120637E+01 -0.21862703368E+02  0.24041755961E+02  0.10570000000E+00 0. -1.
         13    1    3    3    0    0  0.19479362086E+01 -0.98093120637E+01 -0.22110780899E+02  0.24267568133E+02  0.10570000000E+00 0.  1.
<mgrwt>
<rscale>  0 0.20003087E+02</rscale>
<asrwt>0</asrwt>
<pdfrwt beam="1">  1        2 0.33352617E-03 0.20003087E+02</pdfrwt>
<pdfrwt beam="2">  1       -2 0.70986768E-02 0.20003087E+02</pdfrwt>
<totfact> 0.34269949E+06</totfact>
</mgrwt>
</event>
<event>
 5    1  0.1607476E-006  0.2000181E+02  0.7818608E-02  0.1745292E+00
         -2   -1    0    0    0  501 -0.00000000000E+00  0.00000000000E+00  0.11446517717E+01  0.11446547246E+01  0.26000000000E-02 0. -1.
          2   -1    0    0  501    0  0.00000000000E+00 -0.00000000000E+00 -0.87378481276E+02  0.87378481315E+02  0.26000000000E-02 0.  1.
       1023    2    1    2    0    0  0.00000000000E+00  0.00000000000E+00 -0.86233829504E+02  0.88523136039E+02  0.20001806500E+02 0.  0.
        -13    1    3    3    0    0  0.80649667608E+01 -0.59126935608E+01 -0.43369583500E+02  0.44507702473E+02  0.10570000000E+00 0. -1.
         13    1    3    3    0    0 -0.80649667608E+01  0.59126935608E+01 -0.42864246005E+02  0.44015433566E+02  0.10570000000E+00 0.  1.
<mgrwt>
<rscale>  0 0.20001806E+02</rscale>
<asrwt>0</asrwt>
<pdfrwt beam="2">  1        2 0.13442838E-01 0.20001806E+02</pdfrwt>
<pdfrwt beam="1">  1       -2 0.17610057E-03 0.20001806E+02</pdfrwt>
<totfact> 0.51211083E+06</totfact>
</mgrwt>
</event>
<event>
 5    1  0.1607476E-006  0.2000248E+02  0.7818608E-02  0.1745279E+00
         -2   -1    0    0    0  501 -0.00000000000E+00  0.00000000000E+00  0.37050627791E+02  0.37050627883E+02  0.26000000000E-02 0. -1.
          2   -1    0    0  501    0  0.00000000000E+00 -0.00000000000E+00 -0.26996785152E+01  0.26996797672E+01  0.26000000000E-02 0.  1.
       1023    2    1    2    0    0  0.00000000000E+00  0.00000000000E+00  0.34350949276E+02  0.39750307650E+02  0.20002480898E+02 0.  0.
        -13    1    3    3    0    0  0.62044540753E+01 -0.78432131824E+01  0.17078227649E+02  0.19791116076E+02  0.10570000000E+00 0.  1.
         13    1    3    3    0    0 -0.62044540753E+01  0.78432131824E+01  0.17272721627E+02  0.19959191574E+02  0.10570000000E+00 0. -1.
<mgrwt>
<rscale>  0 0.20002481E+02</rscale>
<asrwt>0</asrwt>
<pdfrwt beam="2">  1        2 0.41533527E-03 0.20002481E+02</pdfrwt>
<pdfrwt beam="1">  1       -2 0.57000966E-02 0.20002481E+02</pdfrwt>
<totfact> 0.35232727E+06</totfact>
</mgrwt>
</event>
<event>
 5    1  0.1607476E-006  0.2000749E+02  0.7818608E-02  0.1745179E+00
          2   -1    0    0  501    0  0.00000000000E+00  0.00000000000E+00  0.19143621184E+01  0.19143638840E+01  0.26000000000E-02 0. -1.
         -2   -1    0    0    0  501 -0.00000000000E+00 -0.00000000000E+00 -0.52275827800E+02  0.52275827865E+02  0.26000000000E-02 0.  1.
       1023    2    1    2    0    0  0.00000000000E+00  0.00000000000E+00 -0.50361465682E+02  0.54190191749E+02  0.20007490002E+02 0.  0.
        -13    1    3    3    0    0 -0.91357757464E+01 -0.40744180474E+01 -0.25238863802E+02  0.27149119680E+02  0.10570000000E+00 0. -1.
         13    1    3    3    0    0  0.91357757464E+01  0.40744180474E+01 -0.25122601880E+02  0.27041072068E+02  0.10570000000E+00 0.  1.
<mgrwt>
<rscale>  0 0.20007490E+02</rscale>
<asrwt>0</asrwt>
<pdfrwt beam="1">  1        2 0.29451743E-03 0.20007490E+02</pdfrwt>
<pdfrwt beam="2">  1       -2 0.80424341E-02 0.20007490E+02</pdfrwt>
<totfact> 0.33651173E+06</totfact>
</mgrwt>
</event>
<event>
 5    1  0.1607476E-006  0.2000314E+02  0.7818608E-02  0.1745266E+00
         -2   -1    0    0    0  501 -0.00000000000E+00  0.00000000000E+00  0.51997565900E+01  0.51997572400E+01  0.26000000000E-02 0. -1.
          2   -1    0    0  501    0  0.00000000000E+00 -0.00000000000E+00 -0.19237708145E+02  0.19237708321E+02  0.26000000000E-02 0.  1.
       1023    2    1    2    0    0  0.00000000000E+00  0.00000000000E+00 -0.14037951555E+02  0.24437465561E+02  0.20003140733E+02 0.  0.
        -13    1    3    3    0    0  0.71220713651E+01 -0.70200066604E+01 -0.71727488389E+01  0.12307066768E+02  0.10570000000E+00 0.  1.
         13    1    3    3    0    0 -0.71220713651E+01  0.70200066604E+01 -0.68652027163E+01  0.12130398793E+02  0.10570000000E+00 0. -1.
<mgrwt>
<rscale>  0 0.20003141E+02</rscale>
<asrwt>0</asrwt>
<pdfrwt beam="2">  1        2 0.29596474E-02 0.20003141E+02</pdfrwt>
<pdfrwt beam="1">  1       -2 0.79996263E-03 0.20003141E+02</pdfrwt>
<totfact> 0.41521567E+06</totfact>
</mgrwt>
</event>
<event>
 5    1  0.1607476E-006  0.2000115E+02  0.7818608E-02  0.1745305E+00
         -2   -1    0    0    0  501 -0.00000000000E+00  0.00000000000E+00  0.10897460250E+01  0.10897491266E+01  0.26000000000E-02 0. -1.
          2   -1    0    0  501    0  0.00000000000E+00 -0.00000000000E+00 -0.91774885367E+02  0.91774885404E+02  0.26000000000E-02 0.  1.
       1023    2    1    2    0    0  0.00000000000E+00  0.00000000000E+00 -0.90685139342E+02  0.92864634530E+02  0.20001146192E+02 0.  0.
        -13    1    3    3    0    0 -0.57118796785E+01  0.82081944934E+01 -0.45267208081E+02  0.46358724381E+02  0.10570000000E+00 0.  1.
         13    1    3    3    0    0  0.57118796785E+01 -0.82081944934E+01 -0.45417931260E+02  0.46505910149E+02  0.10570000000E+00 0. -1.
<mgrwt>
<rscale>  0 0.20001146E+02</rscale>
<asrwt>0</asrwt>
<pdfrwt beam="2">  1        2 0.14119207E-01 0.20001146E+02</pdfrwt>
<pdfrwt beam="1">  1       -2 0.16765355E-03 0.20001146E+02</pdfrwt>
<totfact> 0.51755839E+06</totfact>
</mgrwt>
</event>
<event>
 5    1  0.1607476E-006  0.2000293E+02  0.7818608E-02  0.1745270E+00
          2   -1    0    0  501    0  0.00000000000E+00  0.00000000000E+00  0.13949750253E+02  0.13949750495E+02  0.26000000000E-02 0.  1.
         -2   -1    0    0    0  501 -0.00000000000E+00 -0.00000000000E+00 -0.71706883478E+01  0.71706888192E+01  0.26000000000E-02 0. -1.
       1023    2    1    2    0    0  0.00000000000E+00  0.00000000000E+00  0.67790619048E+01  0.21120439314E+02  0.20002931698E+02 0.  0.
        -13    1    3    3    0    0 -0.77885760313E+01  0.62730196114E+01  0.34675151461E+01  0.10585250371E+02  0.10570000000E+00 0. -1.
         13    1    3    3    0    0  0.77885760313E+01 -0.62730196114E+01  0.33115467586E+01  0.10535188943E+02  0.10570000000E+00 0.  1.
<mgrwt>
<rscale>  0 0.20002932E+02</rscale>
<asrwt>0</asrwt>
<pdfrwt beam="1">  1        2 0.21461155E-02 0.20002932E+02</pdfrwt>
<pdfrwt beam="2">  1       -2 0.11031829E-02 0.20002932E+02</pdfrwt>
<totfact> 0.40445789E+06</totfact>
</mgrwt>
</event>
<event>
 4    1  0.1607476E-006  0.2018230E+02  0.7818608E-02  0.1741727E+00
          2   -1    0    0  501    0  0.00000000000E+00  0.00000000000E+00  0.22047090853E+02  0.22047091006E+02  0.26000000000E-02 0.  1.
         -2   -1    0    0    0  501 -0.00000000000E+00 -0.00000000000E+00 -0.46188102708E+01  0.46188110026E+01  0.26000000000E-02 0. -1.
        -13    1    1    2    0    0  0.76087493873E+01 -0.65227719498E+01  0.10266567624E+02  0.14347585316E+02  0.10570000000E+00 0. -1.
         13    1    1    2    0    0 -0.76087493873E+01  0.65227719498E+01  0.71617129584E+01  0.12318316693E+02  0.10570000000E+00 0.  1.
<mgrwt>
<rscale>  0 0.20182303E+02</rscale>
<asrwt>0</asrwt>
<pdfrwt beam="1">  1        2 0.33918601E-02 0.20182303E+02</pdfrwt>
<pdfrwt beam="2">  1       -2 0.71058628E-03 0.20182303E+02</pdfrwt>
<totfact> 0.41196601E+06</totfact>
</mgrwt>
</event>
<event>
 5    1  0.1607476E-006  0.2000185E+02  0.7818608E-02  0.1745291E+00
          2   -1    0    0  501    0  0.00000000000E+00  0.00000000000E+00  0.34864002920E+01  0.34864012615E+01  0.26000000000E-02 0.  1.
         -2   -1    0    0    0  501 -0.00000000000E+00 -0.00000000000E+00 -0.28688192102E+02  0.28688192220E+02  0.26000000000E-02 0. -1.
       1023    2    1    2    0    0  0.00000000000E+00  0.00000000000E+00 -0.25201791810E+02  0.32174593481E+02  0.20001853795E+02 0.  0.
        -13    1    3    3    0    0  0.28215168258E+01 -0.95939131138E+01 -0.12509329816E+02  0.16015574637E+02  0.10570000000E+00 0. -1.
         13    1    3    3    0    0 -0.28215168258E+01  0.95939131138E+01 -0.12692461994E+02  0.16159018844E+02  0.10570000000E+00 0.  1.
<mgrwt>
<rscale>  0 0.20001854E+02</rscale>
<asrwt>0</asrwt>
<pdfrwt beam="1">  1        2 0.53636938E-03 0.20001854E+02</pdfrwt>
<pdfrwt beam="2">  1       -2 0.44135679E-02 0.20001854E+02</pdfrwt>
<totfact> 0.36220276E+06</totfact>
</mgrwt>
</event>
<event>
 5    1  0.1607476E-006  0.2000345E+02  0.7818608E-02  0.1745260E+00
         -2   -1    0    0    0  501 -0.00000000000E+00  0.00000000000E+00  0.44318792287E+01  0.44318799913E+01  0.26000000000E-02 0. -1.
          2   -1    0    0  501    0  0.00000000000E+00 -0.00000000000E+00 -0.22571566341E+02  0.22571566490E+02  0.26000000000E-02 0.  1.
       1023    2    1    2    0    0  0.00000000000E+00  0.00000000000E+00 -0.18139687112E+02  0.27003446482E+02  0.20003446537E+02 0.  0.
        -13    1    3    3    0    0 -0.35546304127E+01 -0.93474548489E+01 -0.89160077049E+01  0.13398383313E+02  0.10570000000E+00 0. -1.
         13    1    3    3    0    0  0.35546304127E+01  0.93474548489E+01 -0.92236794070E+01  0.13605063168E+02  0.10570000000E+00 0.  1.
<mgrwt>
<rscale>  0 0.20003447E+02</rscale>
<asrwt>0</asrwt>
<pdfrwt beam="2">  1        2 0.34725487E-02 0.20003447E+02</pdfrwt>
<pdfrwt beam="1">  1       -2 0.68182766E-03 0.20003447E+02</pdfrwt>
<totfact> 0.42123209E+06</totfact>
</mgrwt>
</event>
<event>
 4    1  0.1607476E-006  0.2006609E+02  0.7818608E-02  0.1744017E+00
          2   -1    0    0  501    0  0.00000000000E+00  0.00000000000E+00  0.29869730616E+02  0.29869730729E+02  0.26000000000E-02 0.  1.
         -2   -1    0    0    0  501 -0.00000000000E+00 -0.00000000000E+00 -0.33700333231E+01  0.33700343261E+01  0.26000000000E-02 0. -1.
        -13    1    1    2    0    0 -0.30296022378E+01  0.95569315845E+01  0.12635814433E+02  0.16130356782E+02  0.10570000000E+00 0.  1.
         13    1    1    2    0    0  0.30296022378E+01 -0.95569315845E+01  0.13863882860E+02  0.17109408274E+02  0.10570000000E+00 0. -1.
<mgrwt>
<rscale>  0 0.20066091E+02</rscale>
<asrwt>0</asrwt>
<pdfrwt beam="1">  1        2 0.45953433E-02 0.20066091E+02</pdfrwt>
<pdfrwt beam="2">  1       -2 0.51846674E-03 0.20066091E+02</pdfrwt>
<totfact> 0.43033035E+06</totfact>
</mgrwt>
</event>
<event>
 5    1  0.1739821E-006  0.2000235E+02  0.7818608E-02  0.1745281E+00
          2   -1    0    0  501    0  0.00000000000E+00  0.00000000000E+00  0.90295069687E+02  0.90295069725E+02  0.26000000000E-02 0. -1.
         -2   -1    0    0    0  501 -0.00000000000E+00 -0.00000000000E+00 -0.11077383477E+01  0.11077413989E+01  0.26000000000E-02 0.  1.
       1023    2    1    2    0    0  0.00000000000E+00  0.00000000000E+00  0.89187331339E+02  0.91402811124E+02  0.20002345108E+02 0.  0.
        -13    1    3    3    0    0 -0.90867950159E+01 -0.41763072290E+01  0.44457017428E+02  0.45568069487E+02  0.10570000000E+00 0.  1.
         13    1    3    3    0    0  0.90867950159E+01  0.41763072290E+01  0.44730313912E+02  0.45834741636E+02  0.10570000000E+00 0. -1.
<mgrwt>
<rscale>  0 0.20002345E+02</rscale>
<asrwt>0</asrwt>
<pdfrwt beam="1">  1        2 0.13891549E-01 0.20002345E+02</pdfrwt>
<pdfrwt beam="2">  1       -2 0.17042152E-03 0.20002345E+02</pdfrwt>
<totfact> 0.51567619E+06</totfact>
</mgrwt>
</event>
<event>
 5    1  0.1607476E-006  0.2000682E+02  0.7818608E-02  0.1745192E+00
          2   -1    0    0  501    0  0.00000000000E+00  0.00000000000E+00  0.61403398723E+02  0.61403398778E+02  0.26000000000E-02 0.  1.
         -2   -1    0    0    0  501 -0.00000000000E+00 -0.00000000000E+00 -0.16296842283E+01  0.16296863024E+01  0.26000000000E-02 0. -1.
       1023    2    1    2    0    0  0.00000000000E+00  0.00000000000E+00  0.59773714495E+02  0.63033085080E+02  0.20006820594E+02 0.  0.
        -13    1    3    3    0    0 -0.71857542385E+01 -0.69577013276E+01  0.29536400952E+02  0.31184207949E+02  0.10570000000E+00 0.  1.
         13    1    3    3    0    0  0.71857542385E+01  0.69577013276E+01  0.30237313542E+02  0.31848877131E+02  0.10570000000E+00 0. -1.
<mgrwt>
<rscale>  0 0.20006821E+02</rscale>
<asrwt>0</asrwt>
<pdfrwt beam="1">  1        2 0.94466764E-02 0.20006821E+02</pdfrwt>
<pdfrwt beam="2">  1       -2 0.25072083E-03 0.20006821E+02</pdfrwt>
<totfact> 0.47849760E+06</totfact>
</mgrwt>
</event>
<event>
 4    1  0.1607476E-006  0.2001963E+02  0.7818608E-02  0.1744938E+00
         -2   -1    0    0    0  501 -0.00000000000E+00  0.00000000000E+00  0.23316978044E+02  0.23316978189E+02  0.26000000000E-02 0.  1.
          2   -1    0    0  501    0  0.00000000000E+00 -0.00000000000E+00 -0.42971429226E+01  0.42971437091E+01  0.26000000000E-02 0. -1.
        -13    1    1    2    0    0  0.98281493385E+01  0.18743609928E+01  0.91210503094E+01  0.13539220058E+02  0.10570000000E+00 0. -1.
         13    1    1    2    0    0 -0.98281493385E+01 -0.18743609928E+01  0.98987848116E+01  0.14074901839E+02  0.10570000000E+00 0.  1.
<mgrwt>
<rscale>  0 0.20019630E+02</rscale>
<asrwt>0</asrwt>
<pdfrwt beam="2">  1        2 0.66109900E-03 0.20019630E+02</pdfrwt>
<pdfrwt beam="1">  1       -2 0.35872274E-02 0.20019630E+02</pdfrwt>
<totfact> 0.36863266E+06</totfact>
</mgrwt>
</event>
<event>
 5    1  0.1607476E-006  0.2000561E+02  0.7818608E-02  0.1745216E+00
          2   -1    0    0  501    0  0.00000000000E+00  0.00000000000E+00  0.24458517384E+02  0.24458517522E+02  0.26000000000E-02 0.  1.
         -2   -1    0    0    0  501 -0.00000000000E+00 -0.00000000000E+00 -0.40908498946E+01  0.40908507209E+01  0.26000000000E-02 0. -1.
       1023    2    1    2    0    0  0.00000000000E+00  0.00000000000E+00  0.20367667489E+02  0.28549368243E+02  0.20005612915E+02 0.  0.
        -13    1    3    3    0    0  0.96471179465E+01  0.26414991002E+01  0.10217675686E+02  0.14298827612E+02  0.10570000000E+00 0.  1.
         13    1    3    3    0    0 -0.96471179465E+01 -0.26414991002E+01  0.10149991804E+02  0.14250540631E+02  0.10570000000E+00 0. -1.
<mgrwt>
<rscale>  0 0.20005613E+02</rscale>
<asrwt>0</asrwt>
<pdfrwt beam="1">  1        2 0.37628489E-02 0.20005613E+02</pdfrwt>
<pdfrwt beam="2">  1       -2 0.62936159E-03 0.20005613E+02</pdfrwt>
<totfact> 0.42438215E+06</totfact>
</mgrwt>
</event>
<event>
 4    1  0.1607476E-006  0.2010272E+02  0.7818608E-02  0.1743293E+00
          2   -1    0    0  501    0  0.00000000000E+00  0.00000000000E+00  0.10637963622E+03  0.10637963625E+03  0.26000000000E-02 0. -1.
         -2   -1    0    0    0  501 -0.00000000000E+00 -0.00000000000E+00 -0.94970832870E+00  0.94971188768E+00  0.26000000000E-02 0.  1.
        -13    1    1    2    0    0  0.98674722366E+01 -0.17858835204E+01  0.49084968067E+02  0.50098918660E+02  0.10570000000E+00 0.  1.
         13    1    1    2    0    0 -0.98674722366E+01  0.17858835204E+01  0.56344959822E+02  0.57230429477E+02  0.10570000000E+00 0. -1.
<mgrwt>
<rscale>  0 0.20102718E+02</rscale>
<asrwt>0</asrwt>
<pdfrwt beam="1">  1        2 0.16366104E-01 0.20102718E+02</pdfrwt>
<pdfrwt beam="2">  1       -2 0.14610920E-03 0.20102718E+02</pdfrwt>
<totfact> 0.52914158E+06</totfact>
</mgrwt>
</event>
<event>
 4    1  0.1607476E-006  0.2010375E+02  0.7818608E-02  0.1743273E+00
         -2   -1    0    0    0  501 -0.00000000000E+00  0.00000000000E+00  0.33178772606E+02  0.33178772708E+02  0.26000000000E-02 0.  1.
          2   -1    0    0  501    0  0.00000000000E+00 -0.00000000000E+00 -0.30453256414E+01  0.30453267513E+01  0.26000000000E-02 0. -1.
        -13    1    1    2    0    0  0.28256424860E+01  0.95977162121E+01  0.13330378911E+02  0.16667650895E+02  0.10570000000E+00 0.  1.
         13    1    1    2    0    0 -0.28256424860E+01 -0.95977162121E+01  0.16803068053E+02  0.19556448564E+02  0.10570000000E+00 0. -1.
<mgrwt>
<rscale>  0 0.20103750E+02</rscale>
<asrwt>0</asrwt>
<pdfrwt beam="2">  1        2 0.46851173E-03 0.20103750E+02</pdfrwt>
<pdfrwt beam="1">  1       -2 0.51044267E-02 0.20103750E+02</pdfrwt>
<totfact> 0.35282591E+06</totfact>
</mgrwt>
</event>
<event>
 5    1  0.1607476E-006  0.2000595E+02  0.7818608E-02  0.1745210E+00
          2   -1    0    0  501    0  0.00000000000E+00  0.00000000000E+00  0.13042351651E+01  0.13042377566E+01  0.26000000000E-02 0.  1.
         -2   -1    0    0    0  501 -0.00000000000E+00 -0.00000000000E+00 -0.76718837710E+02  0.76718837754E+02  0.26000000000E-02 0. -1.
       1023    2    1    2    0    0  0.00000000000E+00  0.00000000000E+00 -0.75414602545E+02  0.78023075511E+02  0.20005949993E+02 0.  0.
        -13    1    3    3    0    0  0.97710189846E+01  0.21348382149E+01 -0.37184206268E+02  0.38505930900E+02  0.10570000000E+00 0.  1.
         13    1    3    3    0    0 -0.97710189846E+01 -0.21348382149E+01 -0.38230396277E+02  0.39517144611E+02  0.10570000000E+00 0. -1.
<mgrwt>
<rscale>  0 0.20005950E+02</rscale>
<asrwt>0</asrwt>
<pdfrwt beam="1">  1        2 0.20065183E-03 0.20005950E+02</pdfrwt>
<pdfrwt beam="2">  1       -2 0.11802895E-01 0.20005950E+02</pdfrwt>
<totfact> 0.31503024E+06</totfact>
</mgrwt>
</event>
<event>
 5    1  0.1607476E-006  0.2001063E+02  0.7818608E-02  0.1745117E+00
         -2   -1    0    0    0  501 -0.00000000000E+00  0.00000000000E+00  0.24563437083E+01  0.24563450844E+01  0.26000000000E-02 0. -1.
          2   -1    0    0  501    0  0.00000000000E+00 -0.00000000000E+00 -0.40754185348E+02  0.40754185431E+02  0.26000000000E-02 0.  1.
       1023    2    1    2    0    0  0.00000000000E+00  0.00000000000E+00 -0.38297841640E+02  0.43210530516E+02  0.20010629005E+02 0.  0.
        -13    1    3    3    0    0  0.36889908711E+01  0.92997617331E+01 -0.19083286339E+02  0.21547092888E+02  0.10570000000E+00 0.  1.
         13    1    3    3    0    0 -0.36889908711E+01 -0.92997617331E+01 -0.19214555301E+02  0.21663437628E+02  0.10570000000E+00 0. -1.
<mgrwt>
<rscale>  0 0.20010629E+02</rscale>
<asrwt>0</asrwt>
<pdfrwt beam="2">  1        2 0.62698743E-02 0.20010629E+02</pdfrwt>
<pdfrwt beam="1">  1       -2 0.37789917E-03 0.20010629E+02</pdfrwt>
<totfact> 0.44953611E+06</totfact>
</mgrwt>
</event>
<event>
 5    1  0.1607476E-006  0.2000149E+02  0.7818608E-02  0.1745299E+00
         -2   -1    0    0    0  501 -0.00000000000E+00  0.00000000000E+00  0.90726607025E+01  0.90726610751E+01  0.26000000000E-02 0.  1.
          2   -1    0    0  501    0  0.00000000000E+00 -0.00000000000E+00 -0.11023762645E+02  0.11023762952E+02  0.26000000000E-02 0. -1.
       1023    2    1    2    0    0  0.00000000000E+00  0.00000000000E+00 -0.19511019428E+01  0.20096424027E+02  0.20001486442E+02 0.  0.
        -13    1    3    3    0    0 -0.98870455721E+01  0.14990828252E+01 -0.10284603886E+01  0.10053348831E+02  0.10570000000E+00 0.  1.
         13    1    3    3    0    0  0.98870455721E+01 -0.14990828252E+01 -0.92264155414E+00  0.10043075196E+02  0.10570000000E+00 0. -1.
<mgrwt>
<rscale>  0 0.20001486E+02</rscale>
<asrwt>0</asrwt>
<pdfrwt beam="2">  1        2 0.16959635E-02 0.20001486E+02</pdfrwt>
<pdfrwt beam="1">  1       -2 0.13957940E-02 0.20001486E+02</pdfrwt>
<totfact> 0.39740439E+06</totfact>
</mgrwt>
</event>
<event>
 5    1  0.1607476E-006  0.2000484E+02  0.7818608E-02  0.1745232E+00
         -2   -1    0    0    0  501 -0.00000000000E+00  0.00000000000E+00  0.29921371020E+01  0.29921382316E+01  0.26000000000E-02 0.  1.
          2   -1    0    0  501    0  0.00000000000E+00 -0.00000000000E+00 -0.33437092618E+02  0.33437092719E+02  0.26000000000E-02 0. -1.
       1023    2    1    2    0    0  0.00000000000E+00  0.00000000000E+00 -0.30444955516E+02  0.36429230951E+02  0.20004838197E+02 0.  0.
        -13    1    3    3    0    0 -0.97827173598E+01  0.20811528215E+01 -0.15344082196E+02  0.18316243800E+02  0.10570000000E+00 0. -1.
         13    1    3    3    0    0  0.97827173598E+01 -0.20811528215E+01 -0.15100873320E+02  0.18112987151E+02  0.10570000000E+00 0.  1.
<mgrwt>
<rscale>  0 0.20004838E+02</rscale>
<asrwt>0</asrwt>
<pdfrwt beam="2">  1        2 0.51441679E-02 0.20004838E+02</pdfrwt>
<pdfrwt beam="1">  1       -2 0.46032890E-03 0.20004838E+02</pdfrwt>
<totfact> 0.43886266E+06</totfact>
</mgrwt>
</event>
<event>
 4    1  0.1607476E-006  0.2001608E+02  0.7818608E-02  0.1745009E+00
          2   -1    0    0  501    0  0.00000000000E+00  0.00000000000E+00  0.35206976101E+02  0.35206976197E+02  0.26000000000E-02 0. -1.
         -2   -1    0    0    0  501 -0.00000000000E+00 -0.00000000000E+00 -0.28449139758E+01  0.28449151639E+01  0.26000000000E-02 0.  1.
        -13    1    1    2    0    0  0.23031622387E+01  0.97333810567E+01  0.15560901006E+02  0.18498542529E+02  0.10570000000E+00 0. -1.
         13    1    1    2    0    0 -0.23031622387E+01 -0.97333810567E+01  0.16801161119E+02  0.19553348831E+02  0.10570000000E+00 0.  1.
<mgrwt>
<rscale>  0 0.20016078E+02</rscale>
<asrwt>0</asrwt>
<pdfrwt beam="1">  1        2 0.54164579E-02 0.20016078E+02</pdfrwt>
<pdfrwt beam="2">  1       -2 0.43767917E-03 0.20016078E+02</pdfrwt>
<totfact> 0.44101183E+06</totfact>
</mgrwt>
</event>
<event>
 5    1  0.1607476E-006  0.2000972E+02  0.7818608E-02  0.1745135E+00
          2   -1    0    0  501    0  0.00000000000E+00  0.00000000000E+00  0.75884228214E+01  0.75884232668E+01  0.26000000000E-02 0.  1.
         -2   -1    0    0    0  501 -0.00000000000E+00 -0.00000000000E+00 -0.13190779977E+02  0.13190780233E+02  0.26000000000E-02 0. -1.
       1023    2    1    2    0    0  0.00000000000E+00  0.00000000000E+00 -0.56023571553E+01  0.20779203500E+02  0.20009719948E+02 0.  0.
        -13    1    3    3    0    0  0.91423367180E+01 -0.40608563563E+01 -0.26819794707E+01  0.10357464042E+02  0.10570000000E+00 0.  1.
         13    1    3    3    0    0 -0.91423367180E+01  0.40608563563E+01 -0.29203776845E+01  0.10421739458E+02  0.10570000000E+00 0. -1.
<mgrwt>
<rscale>  0 0.20009720E+02</rscale>
<asrwt>0</asrwt>
<pdfrwt beam="1">  1        2 0.11674497E-02 0.20009720E+02</pdfrwt>
<pdfrwt beam="2">  1       -2 0.20293508E-02 0.20009720E+02</pdfrwt>
<totfact> 0.38628505E+06</totfact>
</mgrwt>
</event>
<event>
 5    1  0.1607476E-006  0.2000145E+02  0.7818608E-02  0.1745299E+00
          2   -1    0    0  501    0  0.00000000000E+00  0.00000000000E+00  0.94318751571E+01  0.94318755155E+01  0.26000000000E-02 0. -1.
         -2   -1    0    0    0  501 -0.00000000000E+00 -0.00000000000E+00 -0.10603880626E+02  0.10603880945E+02  0.26000000000E-02 0.  1.
       1023    2    1    2    0    0  0.00000000000E+00  0.00000000000E+00 -0.11720054692E+01  0.20035756460E+02  0.20001448451E+02 0.  0.
        -13    1    3    3    0    0  0.23311542664E+01  0.97246609530E+01 -0.58729954756E+00  0.10017954088E+02  0.10570000000E+00 0.  1.
         13    1    3    3    0    0 -0.23311542664E+01 -0.97246609530E+01 -0.58470592161E+00  0.10017802372E+02  0.10570000000E+00 0. -1.
<mgrwt>
<rscale>  0 0.20001448E+02</rscale>
<asrwt>0</asrwt>
<pdfrwt beam="1">  1        2 0.14510578E-02 0.20001448E+02</pdfrwt>
<pdfrwt beam="2">  1       -2 0.16313663E-02 0.20001448E+02</pdfrwt>
<totfact> 0.39288080E+06</totfact>
</mgrwt>
</event>
<event>
 5    1  0.1607476E-006  0.2000248E+02  0.7818608E-02  0.1745279E+00
          2   -1    0    0  501    0  0.00000000000E+00  0.00000000000E+00  0.63056671889E+02  0.63056671943E+02  0.26000000000E-02 0.  1.
         -2   -1    0    0    0  501 -0.00000000000E+00 -0.00000000000E+00 -0.15862674105E+01  0.15862695413E+01  0.26000000000E-02 0. -1.
       1023    2    1    2    0    0  0.00000000000E+00  0.00000000000E+00  0.61470404479E+02  0.64642941484E+02  0.20002481270E+02 0.  0.
        -13    1    3    3    0    0 -0.22974526793E+01  0.97331472697E+01  0.30623383866E+02  0.32215140174E+02  0.10570000000E+00 0. -1.
         13    1    3    3    0    0  0.22974526793E+01 -0.97331472697E+01  0.30847020613E+02  0.32427801310E+02  0.10570000000E+00 0.  1.
<mgrwt>
<rscale>  0 0.20002481E+02</rscale>
<asrwt>0</asrwt>
<pdfrwt beam="1">  1        2 0.97010275E-02 0.20002481E+02</pdfrwt>
<pdfrwt beam="2">  1       -2 0.24404129E-03 0.20002481E+02</pdfrwt>
<totfact> 0.48093384E+06</totfact>
</mgrwt>
</event>
<event>
 5    1  0.1607476E-006  0.2000339E+02  0.7818608E-02  0.1745261E+00
         -2   -1    0    0    0  501 -0.00000000000E+00  0.00000000000E+00  0.15928153672E+01  0.15928174892E+01  0.26000000000E-02 0.  1.
          2   -1    0    0  501    0  0.00000000000E+00 -0.00000000000E+00 -0.62803160076E+02  0.62803160130E+02  0.26000000000E-02 0. -1.
       1023    2    1    2    0    0  0.00000000000E+00  0.00000000000E+00 -0.61210344709E+02  0.64395977619E+02  0.20003390566E+02 0.  0.
        -13    1    3    3    0    0  0.19939644789E+01 -0.98003483594E+01 -0.30617105116E+02  0.32209331264E+02  0.10570000000E+00 0. -1.
         13    1    3    3    0    0 -0.19939644789E+01  0.98003483594E+01 -0.30593239593E+02  0.32186646355E+02  0.10570000000E+00 0.  1.
<mgrwt>
<rscale>  0 0.20003391E+02</rscale>
<asrwt>0</asrwt>
<pdfrwt beam="2">  1        2 0.96620229E-02 0.20003391E+02</pdfrwt>
<pdfrwt beam="1">  1       -2 0.24504873E-03 0.20003391E+02</pdfrwt>
<totfact> 0.48054792E+06</totfact>
</mgrwt>
</event>
<event>
 5    1  0.1607476E-006  0.2000150E+02  0.7818608E-02  0.1745298E+00
          2   -1    0    0  501    0  0.00000000000E+00  0.00000000000E+00  0.13608189568E+02  0.13608189816E+02  0.26000000000E-02 0.  1.
         -2   -1    0    0    0  501 -0.00000000000E+00 -0.00000000000E+00 -0.73496165282E+01  0.73496169881E+01  0.26000000000E-02 0. -1.
       1023    2    1    2    0    0  0.00000000000E+00  0.00000000000E+00  0.62585730397E+01  0.20957806804E+02  0.20001498183E+02 0.  0.
        -13    1    3    3    0    0  0.12291767129E+01  0.99242335892E+01  0.30766640867E+01  0.10463188908E+02  0.10570000000E+00 0. -1.
         13    1    3    3    0    0 -0.12291767129E+01 -0.99242335892E+01  0.31819089531E+01  0.10494617897E+02  0.10570000000E+00 0.  1.
<mgrwt>
<rscale>  0 0.20001498E+02</rscale>
<asrwt>0</asrwt>
<pdfrwt beam="1">  1        2 0.20935677E-02 0.20001498E+02</pdfrwt>
<pdfrwt beam="2">  1       -2 0.11307103E-02 0.20001498E+02</pdfrwt>
<totfact> 0.40375095E+06</totfact>
</mgrwt>
</event>
<event>
 4    1  0.1607476E-006  0.2001318E+02  0.7818608E-02  0.1745066E+00
         -2   -1    0    0    0  501 -0.00000000000E+00  0.00000000000E+00  0.19507452056E+01  0.19507469383E+01  0.26000000000E-02 0. -1.
          2   -1    0    0  501    0  0.00000000000E+00 -0.00000000000E+00 -0.51330021968E+02  0.51330022033E+02  0.26000000000E-02 0.  1.
        -13    1    1    2    0    0  0.67882924970E+01 -0.73498443319E+01 -0.25061815335E+02  0.26985308727E+02  0.10570000000E+00 0. -1.
         13    1    1    2    0    0 -0.67882924970E+01  0.73498443319E+01 -0.24317461427E+02  0.26295460245E+02  0.10570000000E+00 0.  1.
<mgrwt>
<rscale>  0 0.20013180E+02</rscale>
<asrwt>0</asrwt>
<pdfrwt beam="2">  1        2 0.78969256E-02 0.20013180E+02</pdfrwt>
<pdfrwt beam="1">  1       -2 0.30011482E-03 0.20013180E+02</pdfrwt>
<totfact> 0.46445254E+06</totfact>
</mgrwt>
</event>
<event>
 5    1  0.1856958E-006  0.2000182E+02  0.7818608E-02  0.1745292E+00
          2   -1    0    0  501    0  0.00000000000E+00  0.00000000000E+00  0.96106463784E+02  0.96106463819E+02  0.26000000000E-02 0.  1.
         -2   -1    0    0    0  501 -0.00000000000E+00 -0.00000000000E+00 -0.10407009229E+01  0.10407041707E+01  0.26000000000E-02 0. -1.
       1023    2    1    2    0    0  0.00000000000E+00  0.00000000000E+00  0.95065762861E+02  0.97147167990E+02  0.20001824419E+02 0.  0.
        -13    1    3    3    0    0 -0.81984792659E+01 -0.57260807439E+01  0.47225335715E+02  0.48272627532E+02  0.10570000000E+00 0.  1.
         13    1    3    3    0    0  0.81984792659E+01  0.57260807439E+01  0.47840427146E+02  0.48874540458E+02  0.10570000000E+00 0. -1.
<mgrwt>
<rscale>  0 0.20001824E+02</rscale>
<asrwt>0</asrwt>
<pdfrwt beam="1">  1        2 0.14785614E-01 0.20001824E+02</pdfrwt>
<pdfrwt beam="2">  1       -2 0.16010804E-03 0.20001824E+02</pdfrwt>
<totfact> 0.52278826E+06</totfact>
</mgrwt>
</event>
<event>
 5    1  0.1607476E-006  0.2000121E+02  0.7818608E-02  0.1745304E+00
          2   -1    0    0  501    0  0.00000000000E+00  0.00000000000E+00  0.19623518889E+01  0.19623536113E+01  0.26000000000E-02 0.  1.
         -2   -1    0    0    0  501 -0.00000000000E+00 -0.00000000000E+00 -0.50965421850E+02  0.50965421917E+02  0.26000000000E-02 0. -1.
       1023    2    1    2    0    0  0.00000000000E+00  0.00000000000E+00 -0.49003069962E+02  0.52927775528E+02  0.20001213880E+02 0.  0.
        -13    1    3    3    0    0 -0.74438793488E+01  0.66775447277E+01 -0.24514317275E+02  0.26475722224E+02  0.10570000000E+00 0. -1.
         13    1    3    3    0    0  0.74438793488E+01 -0.66775447277E+01 -0.24488752687E+02  0.26452053304E+02  0.10570000000E+00 0.  1.
<mgrwt>
<rscale>  0 0.20001214E+02</rscale>
<asrwt>0</asrwt>
<pdfrwt beam="1">  1        2 0.30190047E-03 0.20001214E+02</pdfrwt>
<pdfrwt beam="2">  1       -2 0.78408333E-02 0.20001214E+02</pdfrwt>
<totfact> 0.33800380E+06</totfact>
</mgrwt>
</event>
<event>
 4    1  0.1607476E-006  0.2010104E+02  0.7818608E-02  0.1743326E+00
         -2   -1    0    0    0  501 -0.00000000000E+00  0.00000000000E+00  0.38015643629E+02  0.38015643718E+02  0.26000000000E-02 0.  1.
          2   -1    0    0  501    0  0.00000000000E+00 -0.00000000000E+00 -0.26571411139E+01  0.26571423859E+01  0.26000000000E-02 0. -1.
        -13    1    1    2    0    0 -0.63372187323E+01  0.77360932950E+01  0.15661605109E+02  0.18582371426E+02  0.10570000000E+00 0. -1.
         13    1    1    2    0    0  0.63372187323E+01 -0.77360932950E+01  0.19696897406E+02  0.22090414678E+02  0.10570000000E+00 0.  1.
<mgrwt>
<rscale>  0 0.20101041E+02</rscale>
<asrwt>0</asrwt>
<pdfrwt beam="2">  1        2 0.40879105E-03 0.20101041E+02</pdfrwt>
<pdfrwt beam="1">  1       -2 0.58485606E-02 0.20101041E+02</pdfrwt>
<totfact> 0.34751213E+06</totfact>
</mgrwt>
</event>
<event>
 5    1  0.1607476E-006  0.2000760E+02  0.7818608E-02  0.1745177E+00
          2   -1    0    0  501    0  0.00000000000E+00  0.00000000000E+00  0.17791471970E+02  0.17791472160E+02  0.26000000000E-02 0.  1.
         -2   -1    0    0    0  501 -0.00000000000E+00 -0.00000000000E+00 -0.56249447546E+01  0.56249453554E+01  0.26000000000E-02 0. -1.
       1023    2    1    2    0    0  0.00000000000E+00  0.00000000000E+00  0.12166527215E+02  0.23416417515E+02  0.20007604174E+02 0.  0.
        -13    1    3    3    0    0 -0.56636139775E+01 -0.82453968551E+01  0.61327957828E+01  0.11733944315E+02  0.10570000000E+00 0. -1.
         13    1    3    3    0    0  0.56636139775E+01  0.82453968551E+01  0.60337314323E+01  0.11682473200E+02  0.10570000000E+00 0.  1.
<mgrwt>
<rscale>  0 0.20007604E+02</rscale>
<asrwt>0</asrwt>
<pdfrwt beam="1">  1        2 0.27371496E-02 0.20007604E+02</pdfrwt>
<pdfrwt beam="2">  1       -2 0.86537618E-03 0.20007604E+02</pdfrwt>
<totfact> 0.41224090E+06</totfact>
</mgrwt>
</event>
<event>
 5    1  0.1607476E-006  0.2000233E+02  0.7818608E-02  0.1745282E+00
         -2   -1    0    0    0  501 -0.00000000000E+00  0.00000000000E+00  0.24480360869E+02  0.24480361007E+02  0.26000000000E-02 0. -1.
          2   -1    0    0  501    0  0.00000000000E+00 -0.00000000000E+00 -0.40858598900E+01  0.40858607172E+01  0.26000000000E-02 0.  1.
       1023    2    1    2    0    0  0.00000000000E+00  0.00000000000E+00  0.20394500979E+02  0.28566221724E+02  0.20002333699E+02 0.  0.
        -13    1    3    3    0    0  0.24778690306E+01  0.96885136456E+01  0.10298581042E+02  0.14355454558E+02  0.10570000000E+00 0. -1.
         13    1    3    3    0    0 -0.24778690306E+01 -0.96885136456E+01  0.10095919937E+02  0.14210767166E+02  0.10570000000E+00 0.  1.
<mgrwt>
<rscale>  0 0.20002334E+02</rscale>
<asrwt>0</asrwt>
<pdfrwt beam="2">  1        2 0.62859392E-03 0.20002334E+02</pdfrwt>
<pdfrwt beam="1">  1       -2 0.37662094E-02 0.20002334E+02</pdfrwt>
<totfact> 0.36770549E+06</totfact>
</mgrwt>
</event>
<event>
 5    1  0.2422832E-006  0.2000543E+02  0.7818608E-02  0.1745220E+00
         -2   -1    0    0    0  501 -0.00000000000E+00  0.00000000000E+00  0.89677157101E+00  0.89677534008E+00  0.26000000000E-02 0. -1.
          2   -1    0    0  501    0  0.00000000000E+00 -0.00000000000E+00 -0.11157147653E+03  0.11157147656E+03  0.26000000000E-02 0.  1.
       1023    2    1    2    0    0  0.00000000000E+00  0.00000000000E+00 -0.11067470496E+03  0.11246825190E+03  0.20005433456E+02 0.  0.
        -13    1    3    3    0    0  0.39759988206E+01  0.91777911466E+01 -0.55042404500E+02  0.55943881547E+02  0.10570000000E+00 0.  1.
         13    1    3    3    0    0 -0.39759988206E+01 -0.91777911466E+01 -0.55632300456E+02  0.56524370350E+02  0.10570000000E+00 0. -1.
<mgrwt>
<rscale>  0 0.20005433E+02</rscale>
<asrwt>0</asrwt>
<pdfrwt beam="2">  1        2 0.17164832E-01 0.20005433E+02</pdfrwt>
<pdfrwt beam="1">  1       -2 0.13796524E-03 0.20005433E+02</pdfrwt>
<totfact> 0.54090155E+06</totfact>
</mgrwt>
</event>
<event>
 4    1  0.1607476E-006  0.2005053E+02  0.7818608E-02  0.1744325E+00
         -2   -1    0    0    0  501 -0.00000000000E+00  0.00000000000E+00  0.94259106491E+02  0.94259106527E+02  0.26000000000E-02 0. -1.
          2   -1    0    0  501    0  0.00000000000E+00 -0.00000000000E+00 -0.10662715468E+01  0.10662747167E+01  0.26000000000E-02 0.  1.
        -13    1    1    2    0    0  0.76210934471E+01 -0.65124373040E+01  0.46802481252E+02  0.47864144501E+02  0.10570000000E+00 0.  1.
         13    1    1    2    0    0 -0.76210934471E+01  0.65124373040E+01  0.46390353693E+02  0.47461236743E+02  0.10570000000E+00 0. -1.
<mgrwt>
<rscale>  0 0.20050532E+02</rscale>
<asrwt>0</asrwt>
<pdfrwt beam="2">  1        2 0.16404198E-03 0.20050532E+02</pdfrwt>
<pdfrwt beam="1">  1       -2 0.14501405E-01 0.20050532E+02</pdfrwt>
<totfact> 0.29988106E+06</totfact>
</mgrwt>
</event>
<event>
 4    1  0.1607476E-006  0.2003317E+02  0.7818608E-02  0.1744669E+00
         -2   -1    0    0    0  501 -0.00000000000E+00  0.00000000000E+00  0.65702389831E+02  0.65702389883E+02  0.26000000000E-02 0. -1.
          2   -1    0    0  501    0  0.00000000000E+00 -0.00000000000E+00 -0.15270659892E+01  0.15270682026E+01  0.26000000000E-02 0.  1.
        -13    1    1    2    0    0 -0.99097770480E+01  0.13509953767E+01  0.30274481238E+02  0.31883918460E+02  0.10570000000E+00 0. -1.
         13    1    1    2    0    0  0.99097770480E+01 -0.13509953767E+01  0.33900842604E+02  0.35345539625E+02  0.10570000000E+00 0.  1.
<mgrwt>
<rscale>  0 0.20033169E+02</rscale>
<asrwt>0</asrwt>
<pdfrwt beam="2">  1        2 0.23493345E-03 0.20033169E+02</pdfrwt>
<pdfrwt beam="1">  1       -2 0.10108058E-01 0.20033169E+02</pdfrwt>
<totfact> 0.32335822E+06</totfact>
</mgrwt>
</event>
<event>
 5    1  0.1607476E-006  0.2000332E+02  0.7818608E-02  0.1745262E+00
         -2   -1    0    0    0  501 -0.00000000000E+00  0.00000000000E+00  0.10058915495E+03  0.10058915499E+03  0.26000000000E-02 0. -1.
          2   -1    0    0  501    0  0.00000000000E+00 -0.00000000000E+00 -0.99447153817E+00  0.99447493695E+00  0.26000000000E-02 0.  1.
       1023    2    1    2    0    0  0.00000000000E+00  0.00000000000E+00  0.99594683415E+02  0.10158362992E+03  0.20003322323E+02 0.  0.
        -13    1    3    3    0    0  0.62556155172E+01  0.78024465579E+01  0.50333718731E+02  0.51317690046E+02  0.10570000000E+00 0. -1.
         13    1    3    3    0    0 -0.62556155172E+01 -0.78024465579E+01  0.49260964684E+02  0.50265939879E+02  0.10570000000E+00 0.  1.
<mgrwt>
<rscale>  0 0.20003322E+02</rscale>
<asrwt>0</asrwt>
<pdfrwt beam="2">  1        2 0.15299581E-03 0.20003322E+02</pdfrwt>
<pdfrwt beam="1">  1       -2 0.15475263E-01 0.20003322E+02</pdfrwt>
<totfact> 0.29677237E+06</totfact>
</mgrwt>
</event>
<event>
 5    1  0.1607476E-006  0.2000333E+02  0.7818608E-02  0.1745262E+00
         -2   -1    0    0    0  501 -0.00000000000E+00  0.00000000000E+00  0.61172917197E+01  0.61172922722E+01  0.26000000000E-02 0. -1.
          2   -1    0    0  501    0  0.00000000000E+00 -0.00000000000E+00 -0.16352541625E+02  0.16352541832E+02  0.26000000000E-02 0.  1.
       1023    2    1    2    0    0  0.00000000000E+00  0.00000000000E+00 -0.10235249906E+02  0.22469834104E+02  0.20003327324E+02 0.  0.
        -13    1    3    3    0    0 -0.88441952928E+01 -0.46678837585E+01 -0.52465574519E+01  0.11293647185E+02  0.10570000000E+00 0.  1.
         13    1    3    3    0    0  0.88441952928E+01  0.46678837585E+01 -0.49886924537E+01  0.11176186919E+02  0.10570000000E+00 0. -1.
<mgrwt>
<rscale>  0 0.20003327E+02</rscale>
<asrwt>0</asrwt>
<pdfrwt beam="2">  1        2 0.25157757E-02 0.20003327E+02</pdfrwt>
<pdfrwt beam="1">  1       -2 0.94112186E-03 0.20003327E+02</pdfrwt>
<totfact> 0.40957028E+06</totfact>
</mgrwt>
</event>
<event>
 5    1  0.1607476E-006  0.2000739E+02  0.7818608E-02  0.1745181E+00
         -2   -1    0    0    0  501 -0.00000000000E+00  0.00000000000E+00  0.17002810773E+02  0.17002810972E+02  0.26000000000E-02 0. -1.
          2   -1    0    0  501    0  0.00000000000E+00 -0.00000000000E+00 -0.58857271040E+01  0.58857276783E+01  0.26000000000E-02 0.  1.
       1023    2    1    2    0    0  0.00000000000E+00  0.00000000000E+00  0.11117083669E+02  0.22888538650E+02  0.20007389940E+02 0.  0.
        -13    1    3    3    0    0 -0.95603211242E+01  0.29431899969E+01  0.55873291958E+01  0.11458251498E+02  0.10570000000E+00 0. -1.
         13    1    3    3    0    0  0.95603211242E+01 -0.29431899969E+01  0.55297544729E+01  0.11430287152E+02  0.10570000000E+00 0.  1.
<mgrwt>
<rscale>  0 0.20007390E+02</rscale>
<asrwt>0</asrwt>
<pdfrwt beam="2">  1        2 0.90549655E-03 0.20007390E+02</pdfrwt>
<pdfrwt beam="1">  1       -2 0.26158171E-02 0.20007390E+02</pdfrwt>
<totfact> 0.37898333E+06</totfact>
</mgrwt>
</event>
<event>
 4    1  0.1607476E-006  0.2001555E+02  0.7818608E-02  0.1745019E+00
          2   -1    0    0  501    0  0.00000000000E+00  0.00000000000E+00  0.12243370263E+01  0.12243397870E+01  0.26000000000E-02 0.  1.
         -2   -1    0    0    0  501 -0.00000000000E+00 -0.00000000000E+00 -0.81803842667E+02  0.81803842708E+02  0.26000000000E-02 0. -1.
        -13    1    1    2    0    0 -0.57849635720E+01  0.81653651695E+01 -0.40595297589E+02  0.41810624855E+02  0.10570000000E+00 0. -1.
         13    1    1    2    0    0  0.57849635720E+01 -0.81653651695E+01 -0.39984208051E+02  0.41217557640E+02  0.10570000000E+00 0.  1.
<mgrwt>
<rscale>  0 0.20015553E+02</rscale>
<asrwt>0</asrwt>
<pdfrwt beam="1">  1        2 0.18835982E-03 0.20015553E+02</pdfrwt>
<pdfrwt beam="2">  1       -2 0.12585203E-01 0.20015553E+02</pdfrwt>
<totfact> 0.31061064E+06</totfact>
</mgrwt>
</event>
<event>
 5    1  0.2456815E-006  0.2000416E+02  0.7818608E-02  0.1745245E+00
         -2   -1    0    0    0  501 -0.00000000000E+00  0.00000000000E+00  0.91465484250E+00  0.91465853787E+00  0.26000000000E-02 0.  1.
          2   -1    0    0  501    0  0.00000000000E+00 -0.00000000000E+00 -0.10937608474E+03  0.10937608477E+03  0.26000000000E-02 0. -1.
       1023    2    1    2    0    0  0.00000000000E+00  0.00000000000E+00 -0.10846142990E+03  0.11029074331E+03  0.20004156673E+02 0.  0.
        -13    1    3    3    0    0  0.83197775953E+01 -0.55508285284E+01 -0.54238452762E+02  0.55152981126E+02  0.10570000000E+00 0.  1.
         13    1    3    3    0    0 -0.83197775953E+01  0.55508285284E+01 -0.54222977133E+02  0.55137762180E+02  0.10570000000E+00 0. -1.
<mgrwt>
<rscale>  0 0.20004157E+02</rscale>
<asrwt>0</asrwt>
<pdfrwt beam="2">  1        2 0.16827080E-01 0.20004157E+02</pdfrwt>
<pdfrwt beam="1">  1       -2 0.14071650E-03 0.20004157E+02</pdfrwt>
<totfact> 0.53842067E+06</totfact>
</mgrwt>
</event>
<event>
 5    1  0.1607476E-006  0.2001180E+02  0.7818608E-02  0.1745094E+00
          2   -1    0    0  501    0  0.00000000000E+00  0.00000000000E+00  0.12387948595E+02  0.12387948868E+02  0.26000000000E-02 0.  1.
         -2   -1    0    0    0  501 -0.00000000000E+00 -0.00000000000E+00 -0.80818857394E+01  0.80818861576E+01  0.26000000000E-02 0. -1.
       1023    2    1    2    0    0  0.00000000000E+00  0.00000000000E+00  0.43060628558E+01  0.20469835026E+02  0.20011795738E+02 0.  0.
        -13    1    3    3    0    0 -0.78619563048E+01  0.61880095325E+01  0.22253660790E+01  0.10250133930E+02  0.10570000000E+00 0. -1.
         13    1    3    3    0    0  0.78619563048E+01 -0.61880095325E+01  0.20806967768E+01  0.10219701095E+02  0.10570000000E+00 0.  1.
<mgrwt>
<rscale>  0 0.20011796E+02</rscale>
<asrwt>0</asrwt>
<pdfrwt beam="1">  1        2 0.19058383E-02 0.20011796E+02</pdfrwt>
<pdfrwt beam="2">  1       -2 0.12433671E-02 0.20011796E+02</pdfrwt>
<totfact> 0.40040707E+06</totfact>
</mgrwt>
</event>
<event>
 5    1  0.1607476E-006  0.2000380E+02  0.7818608E-02  0.1745253E+00
         -2   -1    0    0    0  501 -0.00000000000E+00  0.00000000000E+00  0.19971710047E+02  0.19971710216E+02  0.26000000000E-02 0. -1.
          2   -1    0    0  501    0  0.00000000000E+00 -0.00000000000E+00 -0.50089848591E+01  0.50089855339E+01  0.26000000000E-02 0.  1.
       1023    2    1    2    0    0  0.00000000000E+00  0.00000000000E+00  0.14962725188E+02  0.24980695750E+02  0.20003800017E+02 0.  0.
        -13    1    3    3    0    0 -0.36661513805E+01  0.93045510741E+01  0.76152500646E+01  0.12570542656E+02  0.10570000000E+00 0.  1.
         13    1    3    3    0    0  0.36661513805E+01 -0.93045510741E+01  0.73474751231E+01  0.12410153094E+02  0.10570000000E+00 0. -1.
<mgrwt>
<rscale>  0 0.20003800E+02</rscale>
<asrwt>0</asrwt>
<pdfrwt beam="2">  1        2 0.77061310E-03 0.20003800E+02</pdfrwt>
<pdfrwt beam="1">  1       -2 0.30725709E-02 0.20003800E+02</pdfrwt>
<totfact> 0.37422894E+06</totfact>
</mgrwt>
</event>
<event>
 5    1  0.1607476E-006  0.2000121E+02  0.7818608E-02  0.1745304E+00
          2   -1    0    0  501    0  0.00000000000E+00  0.00000000000E+00  0.79320243637E+02  0.79320243679E+02  0.26000000000E-02 0.  1.
         -2   -1    0    0    0  501 -0.00000000000E+00 -0.00000000000E+00 -0.12608634659E+01  0.12608661466E+01  0.26000000000E-02 0. -1.
       1023    2    1    2    0    0  0.00000000000E+00  0.00000000000E+00  0.78059380171E+02  0.80581109826E+02  0.20001210667E+02 0.  0.
        -13    1    3    3    0    0 -0.99288059492E+01  0.11913154810E+01  0.38938315804E+02  0.40202040126E+02  0.10570000000E+00 0. -1.
         13    1    3    3    0    0  0.99288059492E+01 -0.11913154810E+01  0.39121064367E+02  0.40379069701E+02  0.10570000000E+00 0.  1.
<mgrwt>
<rscale>  0 0.20001211E+02</rscale>
<asrwt>0</asrwt>
<pdfrwt beam="1">  1        2 0.12203115E-01 0.20001211E+02</pdfrwt>
<pdfrwt beam="2">  1       -2 0.19397919E-03 0.20001211E+02</pdfrwt>
<totfact> 0.50207075E+06</totfact>
</mgrwt>
</event>
<event>
 5    1  0.1607476E-006  0.2000868E+02  0.7818608E-02  0.1745156E+00
         -2   -1    0    0    0  501 -0.00000000000E+00  0.00000000000E+00  0.15749661558E+02  0.15749661772E+02  0.26000000000E-02 0. -1.
          2   -1    0    0  501    0  0.00000000000E+00 -0.00000000000E+00 -0.63548528286E+01  0.63548533605E+01  0.26000000000E-02 0.  1.
       1023    2    1    2    0    0  0.00000000000E+00  0.00000000000E+00  0.93948087290E+01  0.22104515133E+02  0.20008677073E+02 0.  0.
        -13    1    3    3    0    0  0.86867945392E+01  0.49613640770E+01  0.46872678789E+01  0.11047949381E+02  0.10570000000E+00 0. -1.
         13    1    3    3    0    0 -0.86867945392E+01 -0.49613640770E+01  0.47075408501E+01  0.11056565751E+02  0.10570000000E+00 0.  1.
<mgrwt>
<rscale>  0 0.20008677E+02</rscale>
<asrwt>0</asrwt>
<pdfrwt beam="2">  1        2 0.97766974E-03 0.20008677E+02</pdfrwt>
<pdfrwt beam="1">  1       -2 0.24230249E-02 0.20008677E+02</pdfrwt>
<totfact> 0.38119356E+06</totfact>
</mgrwt>
</event>
<event>
 5    1  0.1607476E-006  0.2000739E+02  0.7818608E-02  0.1745181E+00
         -2   -1    0    0    0  501 -0.00000000000E+00  0.00000000000E+00  0.25182667343E+02  0.25182667477E+02  0.26000000000E-02 0.  1.
          2   -1    0    0  501    0  0.00000000000E+00 -0.00000000000E+00 -0.39739184474E+01  0.39739192979E+01  0.26000000000E-02 0. -1.
       1023    2    1    2    0    0  0.00000000000E+00  0.00000000000E+00  0.21208748895E+02  0.29156586775E+02  0.20007386702E+02 0.  0.
        -13    1    3    3    0    0 -0.92739820212E+01  0.37485672559E+01  0.10698920757E+02  0.14647067176E+02  0.10570000000E+00 0.  1.
         13    1    3    3    0    0  0.92739820212E+01 -0.37485672559E+01  0.10509828139E+02  0.14509519599E+02  0.10570000000E+00 0. -1.
<mgrwt>
<rscale>  0 0.20007387E+02</rscale>
<asrwt>0</asrwt>
<pdfrwt beam="2">  1        2 0.61137215E-03 0.20007387E+02</pdfrwt>
<pdfrwt beam="1">  1       -2 0.38742565E-02 0.20007387E+02</pdfrwt>
<totfact> 0.36654753E+06</totfact>
</mgrwt>
</event>
<event>
 4    1  0.1607476E-006  0.2010527E+02  0.7818608E-02  0.1743243E+00
          2   -1    0    0  501    0  0.00000000000E+00  0.00000000000E+00  0.23799074291E+01  0.23799088494E+01  0.26000000000E-02 0. -1.
         -2   -1    0    0    0  501 -0.00000000000E+00 -0.00000000000E+00 -0.42461925092E+02  0.42461925172E+02  0.26000000000E-02 0.  1.
        -13    1    1    2    0    0  0.61050573125E+01  0.79749236134E+01 -0.20969169505E+02  0.23250556415E+02  0.10570000000E+00 0. -1.
         13    1    1    2    0    0 -0.61050573125E+01 -0.79749236134E+01 -0.19112848158E+02  0.21591277606E+02  0.10570000000E+00 0.  1.
<mgrwt>
<rscale>  0 0.20105271E+02</rscale>
<asrwt>0</asrwt>
<pdfrwt beam="1">  1        2 0.36613975E-03 0.20105271E+02</pdfrwt>
<pdfrwt beam="2">  1       -2 0.65326034E-02 0.20105271E+02</pdfrwt>
<totfact> 0.34264280E+06</totfact>
</mgrwt>
</event>
<event>
 5    1  0.1607476E-006  0.2000706E+02  0.7818608E-02  0.1745188E+00
          2   -1    0    0  501    0  0.00000000000E+00  0.00000000000E+00  0.68183283501E+02  0.68183283551E+02  0.26000000000E-02 0.  1.
         -2   -1    0    0    0  501 -0.00000000000E+00 -0.00000000000E+00 -0.14676689108E+01  0.14676712138E+01  0.26000000000E-02 0. -1.
       1023    2    1    2    0    0  0.00000000000E+00  0.00000000000E+00  0.66715614591E+02  0.69650954765E+02  0.20007055491E+02 0.  0.
        -13    1    3    3    0    0 -0.33089113236E+01  0.94395105094E+01  0.33084971664E+02  0.34564140019E+02  0.10570000000E+00 0. -1.
         13    1    3    3    0    0  0.33089113236E+01 -0.94395105094E+01  0.33630642927E+02  0.35086814745E+02  0.10570000000E+00 0.  1.
<mgrwt>
<rscale>  0 0.20007055E+02</rscale>
<asrwt>0</asrwt>
<pdfrwt beam="1">  1        2 0.10489733E-01 0.20007055E+02</pdfrwt>
<pdfrwt beam="2">  1       -2 0.22579547E-03 0.20007055E+02</pdfrwt>
<totfact> 0.48744744E+06</totfact>
</mgrwt>
</event>
<event>
 4    1  0.1607476E-006  0.2002033E+02  0.7818608E-02  0.1744924E+00
          2   -1    0    0  501    0  0.00000000000E+00  0.00000000000E+00  0.39616667502E+01  0.39616676033E+01  0.26000000000E-02 0.  1.
         -2   -1    0    0    0  501 -0.00000000000E+00 -0.00000000000E+00 -0.25293235158E+02  0.25293235291E+02  0.26000000000E-02 0. -1.
        -13    1    1    2    0    0 -0.99323459373E+01  0.11842864665E+01 -0.10122595505E+02  0.14231378798E+02  0.10570000000E+00 0. -1.
         13    1    1    2    0    0  0.99323459373E+01 -0.11842864665E+01 -0.11208972902E+02  0.15023524096E+02  0.10570000000E+00 0.  1.
<mgrwt>
<rscale>  0 0.20020328E+02</rscale>
<asrwt>0</asrwt>
<pdfrwt beam="1">  1        2 0.60948729E-03 0.20020328E+02</pdfrwt>
<pdfrwt beam="2">  1       -2 0.38912669E-02 0.20020328E+02</pdfrwt>
<totfact> 0.36588316E+06</totfact>
</mgrwt>
</event>
<event>
 4    1  0.1607476E-006  0.2003432E+02  0.7818608E-02  0.1744646E+00
          2   -1    0    0  501    0  0.00000000000E+00  0.00000000000E+00  0.70660570152E+01  0.70660574935E+01  0.26000000000E-02 0. -1.
         -2   -1    0    0    0  501 -0.00000000000E+00 -0.00000000000E+00 -0.14200781740E+02  0.14200781978E+02  0.26000000000E-02 0.  1.
        -13    1    1    2    0    0 -0.13457917250E+01 -0.99113884847E+01 -0.41346468184E+01  0.10823735670E+02  0.10570000000E+00 0.  1.
         13    1    1    2    0    0  0.13457917250E+01  0.99113884847E+01 -0.30000779061E+01  0.10443103801E+02  0.10570000000E+00 0. -1.
<mgrwt>
<rscale>  0 0.20034325E+02</rscale>
<asrwt>0</asrwt>
<pdfrwt beam="1">  1        2 0.10870858E-02 0.20034325E+02</pdfrwt>
<pdfrwt beam="2">  1       -2 0.21847357E-02 0.20034325E+02</pdfrwt>
<totfact> 0.38314477E+06</totfact>
</mgrwt>
</event>
<event>
 5    1  0.1607476E-006  0.2000298E+02  0.7818608E-02  0.1745269E+00
         -2   -1    0    0    0  501 -0.00000000000E+00  0.00000000000E+00  0.78591180256E+01  0.78591184557E+01  0.26000000000E-02 0.  1.
          2   -1    0    0  501    0  0.00000000000E+00 -0.00000000000E+00 -0.12727869514E+02  0.12727869780E+02  0.26000000000E-02 0. -1.
       1023    2    1    2    0    0  0.00000000000E+00  0.00000000000E+00 -0.48687514884E+01  0.20586988235E+02  0.20002983366E+02 0.  0.
        -13    1    3    3    0    0 -0.99737714191E+01 -0.72430221853E+00 -0.22965504259E+01  0.10260898907E+02  0.10570000000E+00 0. -1.
         13    1    3    3    0    0  0.99737714191E+01  0.72430221853E+00 -0.25722010626E+01  0.10326089329E+02  0.10570000000E+00 0.  1.
<mgrwt>
<rscale>  0 0.20002983E+02</rscale>
<asrwt>0</asrwt>
<pdfrwt beam="2">  1        2 0.19581338E-02 0.20002983E+02</pdfrwt>
<pdfrwt beam="1">  1       -2 0.12090951E-02 0.20002983E+02</pdfrwt>
<totfact> 0.40162866E+06</totfact>
</mgrwt>
</event>
<event>
 4    1  0.1607476E-006  0.2008974E+02  0.7818608E-02  0.1743549E+00
          2   -1    0    0  501    0  0.00000000000E+00  0.00000000000E+00  0.36005737335E+01  0.36005746722E+01  0.26000000000E-02 0.  1.
         -2   -1    0    0    0  501 -0.00000000000E+00 -0.00000000000E+00 -0.28023132144E+02  0.28023132265E+02  0.26000000000E-02 0. -1.
        -13    1    1    2    0    0  0.22900937023E+01  0.97682468928E+01 -0.12957986394E+02  0.16388525267E+02  0.10570000000E+00 0.  1.
         13    1    1    2    0    0 -0.22900937023E+01 -0.97682468928E+01 -0.11464572016E+02  0.15235181670E+02  0.10570000000E+00 0. -1.
<mgrwt>
<rscale>  0 0.20089736E+02</rscale>
<asrwt>0</asrwt>
<pdfrwt beam="1">  1        2 0.55393452E-03 0.20089736E+02</pdfrwt>
<pdfrwt beam="2">  1       -2 0.43112510E-02 0.20089736E+02</pdfrwt>
<totfact> 0.35959342E+06</totfact>
</mgrwt>
</event>
<event>
 5    1  0.1607476E-006  0.2000318E+02  0.7818608E-02  0.1745265E+00
          2   -1    0    0  501    0  0.00000000000E+00  0.00000000000E+00  0.10240861211E+01  0.10240894216E+01  0.26000000000E-02 0.  1.
         -2   -1    0    0    0  501 -0.00000000000E+00 -0.00000000000E+00 -0.97678938054E+02  0.97678938089E+02  0.26000000000E-02 0. -1.
       1023    2    1    2    0    0  0.00000000000E+00  0.00000000000E+00 -0.96654851933E+02  0.98703027510E+02  0.20003180685E+02 0.  0.
        -13    1    3    3    0    0 -0.53364164238E+01 -0.84581489996E+01 -0.48056613335E+02  0.49086320726E+02  0.10570000000E+00 0.  1.
         13    1    3    3    0    0  0.53364164238E+01  0.84581489996E+01 -0.48598238598E+02  0.49616706784E+02  0.10570000000E+00 0. -1.
<mgrwt>
<rscale>  0 0.20003181E+02</rscale>
<asrwt>0</asrwt>
<pdfrwt beam="1">  1        2 0.15755204E-03 0.20003181E+02</pdfrwt>
<pdfrwt beam="2">  1       -2 0.15027522E-01 0.20003181E+02</pdfrwt>
<totfact> 0.29889965E+06</totfact>
</mgrwt>
</event>
<event>
 4    1  0.1607476E-006  0.2026295E+02  0.7818608E-02  0.1740149E+00
          2   -1    0    0  501    0  0.00000000000E+00  0.00000000000E+00  0.27032473351E+02  0.27032473476E+02  0.26000000000E-02 0.  1.
         -2   -1    0    0    0  501 -0.00000000000E+00 -0.00000000000E+00 -0.37971659580E+01  0.37971668481E+01  0.26000000000E-02 0. -1.
        -13    1    1    2    0    0  0.21245788208E+01  0.98740904291E+01  0.10415653369E+02  0.14508911212E+02  0.10570000000E+00 0. -1.
         13    1    1    2    0    0 -0.21245788208E+01 -0.98740904291E+01  0.12819654024E+02  0.16320729112E+02  0.10570000000E+00 0.  1.
<mgrwt>
<rscale>  0 0.20262952E+02</rscale>
<asrwt>0</asrwt>
<pdfrwt beam="1">  1        2 0.41588423E-02 0.20262952E+02</pdfrwt>
<pdfrwt beam="2">  1       -2 0.58417944E-03 0.20262952E+02</pdfrwt>
<totfact> 0.41653811E+06</totfact>
</mgrwt>
</event>
<event>
 4    1  0.1766421E-006  0.2059787E+02  0.7818608E-02  0.1733694E+00
         -2   -1    0    0    0  501 -0.00000000000E+00  0.00000000000E+00  0.64499765466E+01  0.64499770706E+01  0.26000000000E-02 0. -1.
          2   -1    0    0  501    0  0.00000000000E+00 -0.00000000000E+00 -0.16444720690E+02  0.16444720895E+02  0.26000000000E-02 0.  1.
        -13    1    1    2    0    0  0.10040220334E+02 -0.14431664825E+01 -0.30189675425E+01  0.10583670977E+02  0.10570000000E+00 0. -1.
         13    1    1    2    0    0 -0.10040220334E+02  0.14431664825E+01 -0.69757766009E+01  0.12311026989E+02  0.10570000000E+00 0.  1.
<mgrwt>
<rscale>  0 0.20597871E+02</rscale>
<asrwt>0</asrwt>
<pdfrwt beam="2">  1        2 0.25299571E-02 0.20597871E+02</pdfrwt>
<pdfrwt beam="1">  1       -2 0.99230415E-03 0.20597871E+02</pdfrwt>
<totfact> 0.38339967E+06</totfact>
</mgrwt>
</event>
<event>
 4    1  0.1607476E-006  0.2001277E+02  0.7818608E-02  0.1745074E+00
          2   -1    0    0  501    0  0.00000000000E+00  0.00000000000E+00  0.10185236334E+02  0.10185236666E+02  0.26000000000E-02 0. -1.
         -2   -1    0    0    0  501 -0.00000000000E+00 -0.00000000000E+00 -0.98306731923E+01  0.98306735362E+01  0.26000000000E-02 0.  1.
        -13    1    1    2    0    0 -0.95216109895E+00  0.99577387249E+01  0.40838662294E+00  0.10012048911E+02  0.10570000000E+00 0. -1.
         13    1    1    2    0    0  0.95216109895E+00 -0.99577387249E+01 -0.53823481358E-01  0.10003861291E+02  0.10570000000E+00 0.  1.
<mgrwt>
<rscale>  0 0.20012770E+02</rscale>
<asrwt>0</asrwt>
<pdfrwt beam="1">  1        2 0.15669595E-02 0.20012770E+02</pdfrwt>
<pdfrwt beam="2">  1       -2 0.15124113E-02 0.20012770E+02</pdfrwt>
<totfact> 0.39458764E+06</totfact>
</mgrwt>
</event>
<event>
 4    1  0.1607476E-006  0.2007178E+02  0.7818608E-02  0.1743904E+00
         -2   -1    0    0    0  501 -0.00000000000E+00  0.00000000000E+00  0.22194350967E+01  0.22194366196E+01  0.26000000000E-02 0.  1.
          2   -1    0    0  501    0  0.00000000000E+00 -0.00000000000E+00 -0.45380491222E+02  0.45380491297E+02  0.26000000000E-02 0. -1.
        -13    1    1    2    0    0  0.97564041853E+01 -0.23427757074E+01 -0.21156968559E+02  0.23415902967E+02  0.10570000000E+00 0.  1.
         13    1    1    2    0    0 -0.97564041853E+01  0.23427757074E+01 -0.22004087566E+02  0.24184024949E+02  0.10570000000E+00 0. -1.
<mgrwt>
<rscale>  0 0.20071780E+02</rscale>
<asrwt>0</asrwt>
<pdfrwt beam="2">  1        2 0.69816135E-02 0.20071780E+02</pdfrwt>
<pdfrwt beam="1">  1       -2 0.34145171E-03 0.20071780E+02</pdfrwt>
<totfact> 0.45312140E+06</totfact>
</mgrwt>
</event>
<event>
 4    1  0.1607476E-006  0.2026713E+02  0.7818608E-02  0.1740067E+00
          2   -1    0    0  501    0  0.00000000000E+00  0.00000000000E+00  0.47033876194E+02  0.47033876266E+02  0.26000000000E-02 0.  1.
         -2   -1    0    0    0  501 -0.00000000000E+00 -0.00000000000E+00 -0.21833015724E+01  0.21833031205E+01  0.26000000000E-02 0. -1.
        -13    1    1    2    0    0  0.38648983031E+01 -0.93641600070E+01  0.21865844269E+02  0.24098781082E+02  0.10570000000E+00 0. -1.
         13    1    1    2    0    0 -0.38648983031E+01  0.93641600070E+01  0.22984730352E+02  0.25118398305E+02  0.10570000000E+00 0.  1.
<mgrwt>
<rscale>  0 0.20267134E+02</rscale>
<asrwt>0</asrwt>
<pdfrwt beam="1">  1        2 0.72359806E-02 0.20267134E+02</pdfrwt>
<pdfrwt beam="2">  1       -2 0.33589270E-03 0.20267134E+02</pdfrwt>
<totfact> 0.44571258E+06</totfact>
</mgrwt>
</event>
<event>
 5    1  0.1607476E-006  0.2000123E+02  0.7818608E-02  0.1745304E+00
         -2   -1    0    0    0  501 -0.00000000000E+00  0.00000000000E+00  0.10890345966E+02  0.10890346276E+02  0.26000000000E-02 0. -1.
          2   -1    0    0  501    0  0.00000000000E+00 -0.00000000000E+00 -0.91835742595E+01  0.91835746276E+01  0.26000000000E-02 0.  1.
       1023    2    1    2    0    0  0.00000000000E+00  0.00000000000E+00  0.17067717062E+01  0.20073920904E+02  0.20001230732E+02 0.  0.
        -13    1    3    3    0    0 -0.44189098451E+01  0.89707080544E+01  0.88119920405E+00  0.10039325263E+02  0.10570000000E+00 0. -1.
         13    1    3    3    0    0  0.44189098451E+01 -0.89707080544E+01  0.82557250214E+00  0.10034595640E+02  0.10570000000E+00 0.  1.
<mgrwt>
<rscale>  0 0.20001231E+02</rscale>
<asrwt>0</asrwt>
<pdfrwt beam="2">  1        2 0.14128576E-02 0.20001231E+02</pdfrwt>
<pdfrwt beam="1">  1       -2 0.16754379E-02 0.20001231E+02</pdfrwt>
<totfact> 0.39212492E+06</totfact>
</mgrwt>
</event>
<event>
 5    1  0.1607476E-006  0.2000235E+02  0.7818608E-02  0.1745281E+00
          2   -1    0    0  501    0  0.00000000000E+00  0.00000000000E+00  0.11180199691E+02  0.11180199993E+02  0.26000000000E-02 0. -1.
         -2   -1    0    0    0  501 -0.00000000000E+00 -0.00000000000E+00 -0.89464814276E+01  0.89464818054E+01  0.26000000000E-02 0.  1.
       1023    2    1    2    0    0  0.00000000000E+00  0.00000000000E+00  0.22337182634E+01  0.20126681799E+02  0.20002345436E+02 0.  0.
        -13    1    3    3    0    0  0.91742901455E+01  0.39805152408E+01  0.11304333740E+01  0.10064847409E+02  0.10570000000E+00 0.  1.
         13    1    3    3    0    0 -0.91742901455E+01 -0.39805152408E+01  0.11032848894E+01  0.10061834390E+02  0.10570000000E+00 0. -1.
<mgrwt>
<rscale>  0 0.20002345E+02</rscale>
<asrwt>0</asrwt>
<pdfrwt beam="1">  1        2 0.17200308E-02 0.20002345E+02</pdfrwt>
<pdfrwt beam="2">  1       -2 0.13763818E-02 0.20002345E+02</pdfrwt>
<totfact> 0.39778003E+06</totfact>
</mgrwt>
</event>
<event>
 4    1  0.1607476E-006  0.2002748E+02  0.7818608E-02  0.1744782E+00
         -2   -1    0    0    0  501 -0.00000000000E+00  0.00000000000E+00  0.12663600275E+02  0.12663600542E+02  0.26000000000E-02 0.  1.
          2   -1    0    0  501    0  0.00000000000E+00 -0.00000000000E+00 -0.79183636474E+01  0.79183640742E+01  0.26000000000E-02 0. -1.
        -13    1    1    2    0    0  0.26203698983E+01  0.96642287995E+01  0.23592180857E+01  0.10287892844E+02  0.10570000000E+00 0.  1.
         13    1    1    2    0    0 -0.26203698983E+01 -0.96642287995E+01  0.23860185424E+01  0.10294071773E+02  0.10570000000E+00 0. -1.
<mgrwt>
<rscale>  0 0.20027481E+02</rscale>
<asrwt>0</asrwt>
<pdfrwt beam="2">  1        2 0.12182099E-02 0.20027481E+02</pdfrwt>
<pdfrwt beam="1">  1       -2 0.19482462E-02 0.20027481E+02</pdfrwt>
<totfact> 0.38671447E+06</totfact>
</mgrwt>
</event>
<event>
 4    1  0.1607476E-006  0.2007954E+02  0.7818608E-02  0.1743751E+00
          2   -1    0    0  501    0  0.00000000000E+00  0.00000000000E+00  0.49745152471E+01  0.49745159266E+01  0.26000000000E-02 0. -1.
         -2   -1    0    0    0  501 -0.00000000000E+00 -0.00000000000E+00 -0.20262679534E+02  0.20262679701E+02  0.26000000000E-02 0.  1.
        -13    1    1    2    0    0 -0.42341382173E+01 -0.90699435063E+01 -0.66753652694E+01  0.12031769430E+02  0.10570000000E+00 0.  1.
         13    1    1    2    0    0  0.42341382173E+01  0.90699435063E+01 -0.86127990178E+01  0.13205426198E+02  0.10570000000E+00 0. -1.
<mgrwt>
<rscale>  0 0.20079544E+02</rscale>
<asrwt>0</asrwt>
<pdfrwt beam="1">  1        2 0.76531012E-03 0.20079544E+02</pdfrwt>
<pdfrwt beam="2">  1       -2 0.31173353E-02 0.20079544E+02</pdfrwt>
<totfact> 0.37072280E+06</totfact>
</mgrwt>
</event>
<event>
 4    1  0.1607476E-006  0.2001785E+02  0.7818608E-02  0.1744973E+00
         -2   -1    0    0    0  501 -0.00000000000E+00  0.00000000000E+00  0.11321237814E+02  0.11321238112E+02  0.26000000000E-02 0. -1.
          2   -1    0    0  501    0  0.00000000000E+00 -0.00000000000E+00 -0.88487257161E+01  0.88487260981E+01  0.26000000000E-02 0.  1.
        -13    1    1    2    0    0 -0.79807784068E+01  0.60393522367E+01  0.12084211760E+01  0.10081569999E+02  0.10570000000E+00 0.  1.
         13    1    1    2    0    0  0.79807784068E+01 -0.60393522367E+01  0.12640909217E+01  0.10088394211E+02  0.10570000000E+00 0. -1.
<mgrwt>
<rscale>  0 0.20017846E+02</rscale>
<asrwt>0</asrwt>
<pdfrwt beam="2">  1        2 0.13613425E-02 0.20017846E+02</pdfrwt>
<pdfrwt beam="1">  1       -2 0.17417289E-02 0.20017846E+02</pdfrwt>
<totfact> 0.39031731E+06</totfact>
</mgrwt>
</event>
<event>
 4    1  0.1607476E-006  0.2001300E+02  0.7818608E-02  0.1745070E+00
         -2   -1    0    0    0  501 -0.00000000000E+00  0.00000000000E+00  0.32166849708E+01  0.32166860216E+01  0.26000000000E-02 0.  1.
          2   -1    0    0  501    0  0.00000000000E+00 -0.00000000000E+00 -0.31128333372E+02  0.31128333481E+02  0.26000000000E-02 0. -1.
        -13    1    1    2    0    0  0.21252505081E+01  0.97752476000E+01 -0.14326819877E+02  0.17474012008E+02  0.10570000000E+00 0. -1.
         13    1    1    2    0    0 -0.21252505081E+01 -0.97752476000E+01 -0.13584828524E+02  0.16871007495E+02  0.10570000000E+00 0.  1.
<mgrwt>
<rscale>  0 0.20013002E+02</rscale>
<asrwt>0</asrwt>
<pdfrwt beam="2">  1        2 0.47889742E-02 0.20013002E+02</pdfrwt>
<pdfrwt beam="1">  1       -2 0.49487472E-03 0.20013002E+02</pdfrwt>
<totfact> 0.43487932E+06</totfact>
</mgrwt>
</event>
<event>
 4    1  0.1607476E-006  0.2052465E+02  0.7818608E-02  0.1735092E+00
          2   -1    0    0  501    0  0.00000000000E+00  0.00000000000E+00  0.80937284867E+02  0.80937284909E+02  0.26000000000E-02 0. -1.
         -2   -1    0    0    0  501 -0.00000000000E+00 -0.00000000000E+00 -0.13011947089E+01  0.13011973065E+01  0.26000000000E-02 0.  1.
        -13    1    1    2    0    0 -0.35292856855E+01 -0.94834609346E+01  0.46655761066E+02  0.47740581290E+02  0.10570000000E+00 0.  1.
         13    1    1    2    0    0  0.35292856855E+01  0.94834609346E+01  0.32980329093E+02  0.34497900926E+02  0.10570000000E+00 0. -1.
<mgrwt>
<rscale>  0 0.20524646E+02</rscale>
<asrwt>0</asrwt>
<pdfrwt beam="1">  1        2 0.12451895E-01 0.20524646E+02</pdfrwt>
<pdfrwt beam="2">  1       -2 0.20018393E-03 0.20524646E+02</pdfrwt>
<totfact> 0.47603136E+06</totfact>
</mgrwt>
</event>
<event>
 5    1  0.1607476E-006  0.2000540E+02  0.7818608E-02  0.1745221E+00
         -2   -1    0    0    0  501 -0.00000000000E+00  0.00000000000E+00  0.99149335508E+01  0.99149338917E+01  0.26000000000E-02 0.  1.
          2   -1    0    0  501    0  0.00000000000E+00 -0.00000000000E+00 -0.10091241467E+02  0.10091241802E+02  0.26000000000E-02 0. -1.
       1023    2    1    2    0    0  0.00000000000E+00  0.00000000000E+00 -0.17630791617E+00  0.20006175694E+02  0.20005398806E+02 0.  0.
        -13    1    3    3    0    0  0.97007357795E+01  0.24299088603E+01 -0.27279895459E+00  0.10004715063E+02  0.10570000000E+00 0. -1.
         13    1    3    3    0    0 -0.97007357795E+01 -0.24299088603E+01  0.96491038422E-01  0.10001460630E+02  0.10570000000E+00 0.  1.
<mgrwt>
<rscale>  0 0.20005399E+02</rscale>
<asrwt>0</asrwt>
<pdfrwt beam="2">  1        2 0.15524987E-02 0.20005399E+02</pdfrwt>
<pdfrwt beam="1">  1       -2 0.15253744E-02 0.20005399E+02</pdfrwt>
<totfact> 0.39465114E+06</totfact>
</mgrwt>
</event>
<event>
 4    1  0.1607476E-006  0.2002177E+02  0.7818608E-02  0.1744895E+00
         -2   -1    0    0    0  501 -0.00000000000E+00  0.00000000000E+00  0.10602854586E+02  0.10602854905E+02  0.26000000000E-02 0.  1.
          2   -1    0    0  501    0  0.00000000000E+00 -0.00000000000E+00 -0.94519654711E+01  0.94519658287E+01  0.26000000000E-02 0. -1.
        -13    1    1    2    0    0 -0.95259601695E+01 -0.30652097084E+01  0.31574445863E+00  0.10012506917E+02  0.10570000000E+00 0. -1.
         13    1    1    2    0    0  0.95259601695E+01  0.30652097084E+01  0.83514465634E+00  0.10042313817E+02  0.10570000000E+00 0.  1.
<mgrwt>
<rscale>  0 0.20021770E+02</rscale>
<asrwt>0</asrwt>
<pdfrwt beam="2">  1        2 0.14541486E-02 0.20021770E+02</pdfrwt>
<pdfrwt beam="1">  1       -2 0.16312084E-02 0.20021770E+02</pdfrwt>
<totfact> 0.39203018E+06</totfact>
</mgrwt>
</event>
<event>
 5    1  0.1607476E-006  0.2000339E+02  0.7818608E-02  0.1745261E+00
         -2   -1    0    0    0  501 -0.00000000000E+00  0.00000000000E+00  0.92270255598E+02  0.92270255635E+02  0.26000000000E-02 0.  1.
          2   -1    0    0  501    0  0.00000000000E+00 -0.00000000000E+00 -0.10841381949E+01  0.10841413126E+01  0.26000000000E-02 0. -1.
       1023    2    1    2    0    0  0.00000000000E+00  0.00000000000E+00  0.91186117403E+02  0.93354396948E+02  0.20003385272E+02 0.  0.
        -13    1    3    3    0    0  0.74775699128E+01 -0.66413917295E+01  0.45483890002E+02  0.46570565362E+02  0.10570000000E+00 0.  1.
         13    1    3    3    0    0 -0.74775699128E+01  0.66413917295E+01  0.45702227401E+02  0.46783831586E+02  0.10570000000E+00 0. -1.
<mgrwt>
<rscale>  0 0.20003385E+02</rscale>
<asrwt>0</asrwt>
<pdfrwt beam="2">  1        2 0.16679073E-03 0.20003385E+02</pdfrwt>
<pdfrwt beam="1">  1       -2 0.14195424E-01 0.20003385E+02</pdfrwt>
<totfact> 0.30291836E+06</totfact>
</mgrwt>
</event>
<event>
 5    1  0.1613261E-006  0.2000170E+02  0.7818608E-02  0.1745294E+00
          2   -1    0    0  501    0  0.00000000000E+00  0.00000000000E+00  0.10813654021E+03  0.10813654024E+03  0.26000000000E-02 0.  1.
         -2   -1    0    0    0  501 -0.00000000000E+00 -0.00000000000E+00 -0.92491182681E+00  0.92491548121E+00  0.26000000000E-02 0. -1.
       1023    2    1    2    0    0  0.00000000000E+00  0.00000000000E+00  0.10721162838E+03  0.10906145572E+03  0.20001696521E+02 0.  0.
        -13    1    3    3    0    0  0.76507675487E+01 -0.64397159035E+01  0.53824492918E+02  0.54745697505E+02  0.10570000000E+00 0.  1.
         13    1    3    3    0    0 -0.76507675487E+01  0.64397159035E+01  0.53387135463E+02  0.54315758214E+02  0.10570000000E+00 0. -1.
<mgrwt>
<rscale>  0 0.20001697E+02</rscale>
<asrwt>0</asrwt>
<pdfrwt beam="1">  1        2 0.16636390E-01 0.20001697E+02</pdfrwt>
<pdfrwt beam="2">  1       -2 0.14229442E-03 0.20001697E+02</pdfrwt>
<totfact> 0.53711658E+06</totfact>
</mgrwt>
</event>
<event>
 5    1  0.1607476E-006  0.2000483E+02  0.7818608E-02  0.1745232E+00
         -2   -1    0    0    0  501 -0.00000000000E+00  0.00000000000E+00  0.63703259652E+01  0.63703264958E+01  0.26000000000E-02 0.  1.
          2   -1    0    0  501    0  0.00000000000E+00 -0.00000000000E+00 -0.15705357870E+02  0.15705358085E+02  0.26000000000E-02 0. -1.
       1023    2    1    2    0    0  0.00000000000E+00  0.00000000000E+00 -0.93350319045E+01  0.22075684581E+02  0.20004825144E+02 0.  0.
        -13    1    3    3    0    0 -0.99007219455E+01  0.14144300455E+01 -0.47892904332E+01  0.11089336443E+02  0.10570000000E+00 0.  1.
         13    1    3    3    0    0  0.99007219455E+01 -0.14144300455E+01 -0.45457414713E+01  0.10986348138E+02  0.10570000000E+00 0. -1.
<mgrwt>
<rscale>  0 0.20004825E+02</rscale>
<asrwt>0</asrwt>
<pdfrwt beam="2">  1        2 0.24162090E-02 0.20004825E+02</pdfrwt>
<pdfrwt beam="1">  1       -2 0.98005021E-03 0.20004825E+02</pdfrwt>
<totfact> 0.40816559E+06</totfact>
</mgrwt>
</event>
<event>
 5    1  0.1607476E-006  0.2000861E+02  0.7818608E-02  0.1745157E+00
          2   -1    0    0  501    0  0.00000000000E+00  0.00000000000E+00  0.35219717982E+01  0.35219727579E+01  0.26000000000E-02 0.  1.
         -2   -1    0    0    0  501 -0.00000000000E+00 -0.00000000000E+00 -0.28417636888E+02  0.28417637007E+02  0.26000000000E-02 0. -1.
       1023    2    1    2    0    0  0.00000000000E+00  0.00000000000E+00 -0.24895665090E+02  0.31939609765E+02  0.20008611438E+02 0.  0.
        -13    1    3    3    0    0  0.50105030325E+00 -0.99908903227E+01 -0.12323982614E+02  0.15873268750E+02  0.10570000000E+00 0. -1.
         13    1    3    3    0    0 -0.50105030325E+00  0.99908903227E+01 -0.12571682476E+02  0.16066341015E+02  0.10570000000E+00 0.  1.
<mgrwt>
<rscale>  0 0.20008611E+02</rscale>
<asrwt>0</asrwt>
<pdfrwt beam="1">  1        2 0.54184192E-03 0.20008611E+02</pdfrwt>
<pdfrwt beam="2">  1       -2 0.43719441E-02 0.20008611E+02</pdfrwt>
<totfact> 0.36227749E+06</totfact>
</mgrwt>
</event>
<event>
 5    1  0.1607476E-006  0.2000928E+02  0.7818608E-02  0.1745144E+00
         -2   -1    0    0    0  501 -0.00000000000E+00  0.00000000000E+00  0.58668089353E+01  0.58668095115E+01  0.26000000000E-02 0.  1.
          2   -1    0    0  501    0  0.00000000000E+00 -0.00000000000E+00 -0.17060857032E+02  0.17060857230E+02  0.26000000000E-02 0. -1.
       1023    2    1    2    0    0  0.00000000000E+00  0.00000000000E+00 -0.11194048097E+02  0.22927666742E+02  0.20009277584E+02 0.  0.
        -13    1    3    3    0    0 -0.30404910948E+01 -0.95308277082E+01 -0.55752237883E+01  0.11453189760E+02  0.10570000000E+00 0. -1.
         13    1    3    3    0    0  0.30404910948E+01  0.95308277082E+01 -0.56188243085E+01  0.11474476982E+02  0.10570000000E+00 0.  1.
<mgrwt>
<rscale>  0 0.20009278E+02</rscale>
<asrwt>0</asrwt>
<pdfrwt beam="2">  1        2 0.26247473E-02 0.20009278E+02</pdfrwt>
<pdfrwt beam="1">  1       -2 0.90258606E-03 0.20009278E+02</pdfrwt>
<totfact> 0.41072270E+06</totfact>
</mgrwt>
</event>
<event>
 5    1  0.1607476E-006  0.2000765E+02  0.7818608E-02  0.1745176E+00
         -2   -1    0    0    0  501 -0.00000000000E+00  0.00000000000E+00  0.25761295821E+01  0.25761308941E+01  0.26000000000E-02 0. -1.
          2   -1    0    0  501    0  0.00000000000E+00 -0.00000000000E+00 -0.38847594970E+02  0.38847595057E+02  0.26000000000E-02 0.  1.
       1023    2    1    2    0    0  0.00000000000E+00  0.00000000000E+00 -0.36271465388E+02  0.41423725951E+02  0.20007645296E+02 0.  0.
        -13    1    3    3    0    0  0.42678981927E+01 -0.90454808574E+01 -0.17779431290E+02  0.20399878147E+02  0.10570000000E+00 0.  1.
         13    1    3    3    0    0 -0.42678981927E+01  0.90454808574E+01 -0.18492034098E+02  0.21023847804E+02  0.10570000000E+00 0. -1.
<mgrwt>
<rscale>  0 0.20007645E+02</rscale>
<asrwt>0</asrwt>
<pdfrwt beam="2">  1        2 0.59765527E-02 0.20007645E+02</pdfrwt>
<pdfrwt beam="1">  1       -2 0.39632776E-03 0.20007645E+02</pdfrwt>
<totfact> 0.44688079E+06</totfact>
</mgrwt>
</event>
<event>
 4    1  0.1607476E-006  0.2040438E+02  0.7818608E-02  0.1737404E+00
         -2   -1    0    0    0  501 -0.00000000000E+00  0.00000000000E+00  0.11418434984E+01  0.11418464585E+01  0.26000000000E-02 0.  1.
          2   -1    0    0  501    0  0.00000000000E+00 -0.00000000000E+00 -0.91154865108E+02  0.91154865145E+02  0.26000000000E-02 0. -1.
        -13    1    1    2    0    0 -0.12244517384E+01  0.10010846885E+02 -0.51951357210E+02  0.52921366440E+02  0.10570000000E+00 0.  1.
         13    1    1    2    0    0  0.12244517384E+01 -0.10010846885E+02 -0.38061664400E+02  0.39375345164E+02  0.10570000000E+00 0. -1.
<mgrwt>
<rscale>  0 0.20404385E+02</rscale>
<asrwt>0</asrwt>
<pdfrwt beam="2">  1        2 0.14023820E-01 0.20404385E+02</pdfrwt>
<pdfrwt beam="1">  1       -2 0.17566853E-03 0.20404385E+02</pdfrwt>
<totfact> 0.49446392E+06</totfact>
</mgrwt>
</event>
<event>
 4    1  0.1607476E-006  0.2041496E+02  0.7818608E-02  0.1737200E+00
          2   -1    0    0  501    0  0.00000000000E+00  0.00000000000E+00  0.28841800508E+01  0.28841812227E+01  0.26000000000E-02 0.  1.
         -2   -1    0    0    0  501 -0.00000000000E+00 -0.00000000000E+00 -0.36125567076E+02  0.36125567170E+02  0.26000000000E-02 0. -1.
        -13    1    1    2    0    0  0.10157603376E+02 -0.87235422841E+00 -0.15677612909E+02  0.18701246676E+02  0.10570000000E+00 0. -1.
         13    1    1    2    0    0 -0.10157603376E+02  0.87235422841E+00 -0.17563774117E+02  0.20308501716E+02  0.10570000000E+00 0.  1.
<mgrwt>
<rscale>  0 0.20414962E+02</rscale>
<asrwt>0</asrwt>
<pdfrwt beam="1">  1        2 0.44372013E-03 0.20414962E+02</pdfrwt>
<pdfrwt beam="2">  1       -2 0.55577793E-02 0.20414962E+02</pdfrwt>
<totfact> 0.33792974E+06</totfact>
</mgrwt>
</event>
<event>
 5    1  0.1607476E-006  0.2000383E+02  0.7818608E-02  0.1745252E+00
          2   -1    0    0  501    0  0.00000000000E+00  0.00000000000E+00  0.45540400857E+02  0.45540400932E+02  0.26000000000E-02 0.  1.
         -2   -1    0    0    0  501 -0.00000000000E+00 -0.00000000000E+00 -0.21966936788E+01  0.21966952175E+01  0.26000000000E-02 0. -1.
       1023    2    1    2    0    0  0.00000000000E+00  0.00000000000E+00  0.43343707179E+02  0.47737096149E+02  0.20003834551E+02 0.  0.
        -13    1    3    3    0    0 -0.30593459366E+01 -0.95218326432E+01  0.21785858836E+02  0.23972061074E+02  0.10570000000E+00 0. -1.
         13    1    3    3    0    0  0.30593459366E+01  0.95218326432E+01  0.21557848343E+02  0.23765035075E+02  0.10570000000E+00 0.  1.
<mgrwt>
<rscale>  0 0.20003835E+02</rscale>
<asrwt>0</asrwt>
<pdfrwt beam="1">  1        2 0.70062150E-02 0.20003835E+02</pdfrwt>
<pdfrwt beam="2">  1       -2 0.33795303E-03 0.20003835E+02</pdfrwt>
<totfact> 0.45678994E+06</totfact>
</mgrwt>
</event>
<event>
 5    1  0.1607476E-006  0.2001188E+02  0.7818608E-02  0.1745092E+00
          2   -1    0    0  501    0  0.00000000000E+00  0.00000000000E+00  0.18853840028E+02  0.18853840207E+02  0.26000000000E-02 0. -1.
         -2   -1    0    0    0  501 -0.00000000000E+00 -0.00000000000E+00 -0.53102605687E+01  0.53102612052E+01  0.26000000000E-02 0.  1.
       1023    2    1    2    0    0  0.00000000000E+00  0.00000000000E+00  0.13543579459E+02  0.24164101413E+02  0.20011877786E+02 0.  0.
        -13    1    3    3    0    0 -0.39077657684E+01 -0.92093708904E+01  0.65828067241E+01  0.11976128855E+02  0.10570000000E+00 0.  1.
         13    1    3    3    0    0  0.39077657684E+01  0.92093708904E+01  0.69607727352E+01  0.12187972557E+02  0.10570000000E+00 0. -1.
<mgrwt>
<rscale>  0 0.20011878E+02</rscale>
<asrwt>0</asrwt>
<pdfrwt beam="1">  1        2 0.29005908E-02 0.20011878E+02</pdfrwt>
<pdfrwt beam="2">  1       -2 0.81696323E-03 0.20011878E+02</pdfrwt>
<totfact> 0.41408390E+06</totfact>
</mgrwt>
</event>
<event>
 5    1  0.1607476E-006  0.2000151E+02  0.7818608E-02  0.1745298E+00
         -2   -1    0    0    0  501 -0.00000000000E+00  0.00000000000E+00  0.68127897532E+02  0.68127897582E+02  0.26000000000E-02 0. -1.
          2   -1    0    0  501    0  0.00000000000E+00 -0.00000000000E+00 -0.14680481436E+01  0.14680504460E+01  0.26000000000E-02 0.  1.
       1023    2    1    2    0    0  0.00000000000E+00  0.00000000000E+00  0.66659849389E+02  0.69595948028E+02  0.20001511477E+02 0.  0.
        -13    1    3    3    0    0  0.55153694002E+01  0.83417406781E+01  0.33338226816E+02  0.34805925888E+02  0.10570000000E+00 0.  1.
         13    1    3    3    0    0 -0.55153694002E+01 -0.83417406781E+01  0.33321622572E+02  0.34790022140E+02  0.10570000000E+00 0. -1.
<mgrwt>
<rscale>  0 0.20001511E+02</rscale>
<asrwt>0</asrwt>
<pdfrwt beam="2">  1        2 0.22585371E-03 0.20001511E+02</pdfrwt>
<pdfrwt beam="1">  1       -2 0.10481216E-01 0.20001511E+02</pdfrwt>
<totfact> 0.32237810E+06</totfact>
</mgrwt>
</event>
<event>
 5    1  0.1607476E-006  0.2000614E+02  0.7818608E-02  0.1745206E+00
          2   -1    0    0  501    0  0.00000000000E+00  0.00000000000E+00  0.98657524233E+02  0.98657524268E+02  0.26000000000E-02 0. -1.
         -2   -1    0    0    0  501 -0.00000000000E+00 -0.00000000000E+00 -0.10142279126E+01  0.10142312451E+01  0.26000000000E-02 0.  1.
       1023    2    1    2    0    0  0.00000000000E+00  0.00000000000E+00  0.97643296321E+02  0.99671755513E+02  0.20006137323E+02 0.  0.
        -13    1    3    3    0    0 -0.98743735347E+01  0.15946052818E+01  0.48499102518E+02  0.49519896367E+02  0.10570000000E+00 0. -1.
         13    1    3    3    0    0  0.98743735347E+01 -0.15946052818E+01  0.49144193803E+02  0.50151859145E+02  0.10570000000E+00 0.  1.
<mgrwt>
<rscale>  0 0.20006137E+02</rscale>
<asrwt>0</asrwt>
<pdfrwt beam="1">  1        2 0.15178083E-01 0.20006137E+02</pdfrwt>
<pdfrwt beam="2">  1       -2 0.15603530E-03 0.20006137E+02</pdfrwt>
<totfact> 0.52561312E+06</totfact>
</mgrwt>
</event>
<event>
 5    1  0.1607476E-006  0.2000178E+02  0.7818608E-02  0.1745293E+00
         -2   -1    0    0    0  501 -0.00000000000E+00  0.00000000000E+00  0.11971651041E+01  0.11971679275E+01  0.26000000000E-02 0.  1.
          2   -1    0    0  501    0  0.00000000000E+00 -0.00000000000E+00 -0.83545420791E+02  0.83545420832E+02  0.26000000000E-02 0. -1.
       1023    2    1    2    0    0  0.00000000000E+00  0.00000000000E+00 -0.82348255687E+02  0.84742588759E+02  0.20001778293E+02 0.  0.
        -13    1    3    3    0    0  0.92766097153E+01 -0.37344377759E+01 -0.41476630879E+02  0.42665250438E+02  0.10570000000E+00 0.  1.
         13    1    3    3    0    0 -0.92766097153E+01  0.37344377759E+01 -0.40871624808E+02  0.42077338321E+02  0.10570000000E+00 0. -1.
<mgrwt>
<rscale>  0 0.20001778E+02</rscale>
<asrwt>0</asrwt>
<pdfrwt beam="2">  1        2 0.12853137E-01 0.20001778E+02</pdfrwt>
<pdfrwt beam="1">  1       -2 0.18417953E-03 0.20001778E+02</pdfrwt>
<totfact> 0.50734408E+06</totfact>
</mgrwt>
</event>
<event>
 5    1  0.1607476E-006  0.2000170E+02  0.7818608E-02  0.1745294E+00
         -2   -1    0    0    0  501 -0.00000000000E+00  0.00000000000E+00  0.14640573373E+02  0.14640573604E+02  0.26000000000E-02 0. -1.
          2   -1    0    0  501    0  0.00000000000E+00 -0.00000000000E+00 -0.68314922042E+01  0.68314926989E+01  0.26000000000E-02 0.  1.
       1023    2    1    2    0    0  0.00000000000E+00  0.00000000000E+00  0.78090811689E+01  0.21472066303E+02  0.20001696993E+02 0.  0.
        -13    1    3    3    0    0  0.61281416112E+01 -0.79026021712E+01  0.38791938630E+01  0.10726814914E+02  0.10570000000E+00 0.  1.
         13    1    3    3    0    0 -0.61281416112E+01  0.79026021712E+01  0.39298873059E+01  0.10745251389E+02  0.10570000000E+00 0. -1.
<mgrwt>
<rscale>  0 0.20001697E+02</rscale>
<asrwt>0</asrwt>
<pdfrwt beam="2">  1        2 0.10509989E-02 0.20001697E+02</pdfrwt>
<pdfrwt beam="1">  1       -2 0.22523959E-02 0.20001697E+02</pdfrwt>
<totfact> 0.38361098E+06</totfact>
</mgrwt>
</event>
<event>
 5    1  0.1607476E-006  0.2000367E+02  0.7818608E-02  0.1745255E+00
          2   -1    0    0  501    0  0.00000000000E+00  0.00000000000E+00  0.14645987527E+02  0.14645987758E+02  0.26000000000E-02 0. -1.
         -2   -1    0    0    0  501 -0.00000000000E+00 -0.00000000000E+00 -0.68303136677E+01  0.68303141626E+01  0.26000000000E-02 0.  1.
       1023    2    1    2    0    0  0.00000000000E+00  0.00000000000E+00  0.78156738592E+01  0.21476301920E+02  0.20003669321E+02 0.  0.
        -13    1    3    3    0    0  0.99983209261E+01 -0.19227864110E+00  0.40675560473E+01  0.10796276076E+02  0.10570000000E+00 0. -1.
         13    1    3    3    0    0 -0.99983209261E+01  0.19227864110E+00  0.37481178118E+01  0.10680025844E+02  0.10570000000E+00 0.  1.
<mgrwt>
<rscale>  0 0.20003669E+02</rscale>
<asrwt>0</asrwt>
<pdfrwt beam="1">  1        2 0.22532289E-02 0.20003669E+02</pdfrwt>
<pdfrwt beam="2">  1       -2 0.10508176E-02 0.20003669E+02</pdfrwt>
<totfact> 0.40596209E+06</totfact>
</mgrwt>
</event>
<event>
 5    1  0.1607476E-006  0.2000163E+02  0.7818608E-02  0.1745296E+00
         -2   -1    0    0    0  501 -0.00000000000E+00  0.00000000000E+00  0.23279388203E+02  0.23279388349E+02  0.26000000000E-02 0.  1.
          2   -1    0    0  501    0  0.00000000000E+00 -0.00000000000E+00 -0.42963462536E+01  0.42963470403E+01  0.26000000000E-02 0. -1.
       1023    2    1    2    0    0  0.00000000000E+00  0.00000000000E+00  0.18983041950E+02  0.27575735389E+02  0.20001632448E+02 0.  0.
        -13    1    3    3    0    0 -0.99960383076E+01  0.29045723157E+00  0.94947249955E+01  0.13790073331E+02  0.10570000000E+00 0. -1.
         13    1    3    3    0    0  0.99960383076E+01 -0.29045723157E+00  0.94883169543E+01  0.13785662058E+02  0.10570000000E+00 0.  1.
<mgrwt>
<rscale>  0 0.20001632E+02</rscale>
<asrwt>0</asrwt>
<pdfrwt beam="2">  1        2 0.66097640E-03 0.20001632E+02</pdfrwt>
<pdfrwt beam="1">  1       -2 0.35814445E-02 0.20001632E+02</pdfrwt>
<totfact> 0.36940746E+06</totfact>
</mgrwt>
</event>
<event>
 5    1  0.1607476E-006  0.2000145E+02  0.7818608E-02  0.1745299E+00
         -2   -1    0    0    0  501 -0.00000000000E+00  0.00000000000E+00  0.10926575014E+02  0.10926575324E+02  0.26000000000E-02 0. -1.
          2   -1    0    0  501    0  0.00000000000E+00 -0.00000000000E+00 -0.91533244604E+01  0.91533248297E+01  0.26000000000E-02 0.  1.
       1023    2    1    2    0    0  0.00000000000E+00  0.00000000000E+00  0.17732505538E+01  0.20079900153E+02  0.20001449263E+02 0.  0.
        -13    1    3    3    0    0 -0.66220423225E+00  0.99781601978E+01  0.85294834486E+00  0.10036976076E+02  0.10570000000E+00 0. -1.
         13    1    3    3    0    0  0.66220423225E+00 -0.99781601978E+01  0.92030220891E+00  0.10042924077E+02  0.10570000000E+00 0.  1.
<mgrwt>
<rscale>  0 0.20001449E+02</rscale>
<asrwt>0</asrwt>
<pdfrwt beam="2">  1        2 0.14082038E-02 0.20001449E+02</pdfrwt>
<pdfrwt beam="1">  1       -2 0.16810116E-02 0.20001449E+02</pdfrwt>
<totfact> 0.39202053E+06</totfact>
</mgrwt>
</event>
<event>
 5    1  0.1607476E-006  0.2000203E+02  0.7818608E-02  0.1745288E+00
          2   -1    0    0  501    0  0.00000000000E+00  0.00000000000E+00  0.24299231835E+02  0.24299231974E+02  0.26000000000E-02 0.  1.
         -2   -1    0    0    0  501 -0.00000000000E+00 -0.00000000000E+00 -0.41161921636E+01  0.41161929847E+01  0.26000000000E-02 0. -1.
       1023    2    1    2    0    0  0.00000000000E+00  0.00000000000E+00  0.20183039672E+02  0.28415424959E+02  0.20002032027E+02 0.  0.
        -13    1    3    3    0    0 -0.80209739030E-01 -0.10000065101E+02  0.10144924735E+02  0.14245645159E+02  0.10570000000E+00 0. -1.
         13    1    3    3    0    0  0.80209739030E-01  0.10000065101E+02  0.10038114937E+02  0.14169779800E+02  0.10570000000E+00 0.  1.
<mgrwt>
<rscale>  0 0.20002032E+02</rscale>
<asrwt>0</asrwt>
<pdfrwt beam="1">  1        2 0.37383433E-02 0.20002032E+02</pdfrwt>
<pdfrwt beam="2">  1       -2 0.63326043E-03 0.20002032E+02</pdfrwt>
<totfact> 0.42428195E+06</totfact>
</mgrwt>
</event>
<event>
 5    1  0.1607476E-006  0.2000526E+02  0.7818608E-02  0.1745224E+00
          2   -1    0    0  501    0  0.00000000000E+00  0.00000000000E+00  0.37080640495E+01  0.37080649611E+01  0.26000000000E-02 0. -1.
         -2   -1    0    0    0  501 -0.00000000000E+00 -0.00000000000E+00 -0.26982429848E+02  0.26982429974E+02  0.26000000000E-02 0.  1.
       1023    2    1    2    0    0  0.00000000000E+00  0.00000000000E+00 -0.23274365799E+02  0.30690494935E+02  0.20005258709E+02 0.  0.
        -13    1    3    3    0    0 -0.85006715492E+01  0.52679682354E+01 -0.11896242329E+02  0.15541707119E+02  0.10570000000E+00 0. -1.
         13    1    3    3    0    0  0.85006715492E+01 -0.52679682354E+01 -0.11378123469E+02  0.15148787816E+02  0.10570000000E+00 0.  1.
<mgrwt>
<rscale>  0 0.20005259E+02</rscale>
<asrwt>0</asrwt>
<pdfrwt beam="1">  1        2 0.57047149E-03 0.20005259E+02</pdfrwt>
<pdfrwt beam="2">  1       -2 0.41511430E-02 0.20005259E+02</pdfrwt>
<totfact> 0.36424948E+06</totfact>
</mgrwt>
</event>
<event>
 4    1  0.1607476E-006  0.2003551E+02  0.7818608E-02  0.1744623E+00
          2   -1    0    0  501    0  0.00000000000E+00  0.00000000000E+00  0.22341360630E+01  0.22341375759E+01  0.26000000000E-02 0.  1.
         -2   -1    0    0    0  501 -0.00000000000E+00 -0.00000000000E+00 -0.44919081102E+02  0.44919081177E+02  0.26000000000E-02 0. -1.
        -13    1    1    2    0    0 -0.39714314293E+01  0.91846034344E+01 -0.20251217301E+02  0.22588762306E+02  0.10570000000E+00 0. -1.
         13    1    1    2    0    0  0.39714314293E+01 -0.91846034344E+01 -0.22433727738E+02  0.24564456447E+02  0.10570000000E+00 0.  1.
<mgrwt>
<rscale>  0 0.20035506E+02</rscale>
<asrwt>0</asrwt>
<pdfrwt beam="1">  1        2 0.34371340E-03 0.20035506E+02</pdfrwt>
<pdfrwt beam="2">  1       -2 0.69106273E-02 0.20035506E+02</pdfrwt>
<totfact> 0.34272535E+06</totfact>
</mgrwt>
</event>
<event>
 5    1  0.1607476E-006  0.2001227E+02  0.7818608E-02  0.1745084E+00
          2   -1    0    0  501    0  0.00000000000E+00  0.00000000000E+00  0.71541723825E+02  0.71541723873E+02  0.26000000000E-02 0. -1.
         -2   -1    0    0    0  501 -0.00000000000E+00 -0.00000000000E+00 -0.13995004064E+01  0.13995028215E+01  0.26000000000E-02 0.  1.
       1023    2    1    2    0    0  0.00000000000E+00  0.00000000000E+00  0.70142223419E+02  0.72941226694E+02  0.20012272372E+02 0.  0.
        -13    1    3    3    0    0 -0.21184068954E+01  0.97756057592E+01  0.35974801517E+02  0.37339625499E+02  0.10570000000E+00 0.  1.
         13    1    3    3    0    0  0.21184068954E+01 -0.97756057592E+01  0.34167421902E+02  0.35601601195E+02  0.10570000000E+00 0. -1.
<mgrwt>
<rscale>  0 0.20012272E+02</rscale>
<asrwt>0</asrwt>
<pdfrwt beam="1">  1        2 0.11006424E-01 0.20012272E+02</pdfrwt>
<pdfrwt beam="2">  1       -2 0.21530785E-03 0.20012272E+02</pdfrwt>
<totfact> 0.49152918E+06</totfact>
</mgrwt>
</event>
<event>
 5    1  0.1607476E-006  0.2000551E+02  0.7818608E-02  0.1745218E+00
          2   -1    0    0  501    0  0.00000000000E+00  0.00000000000E+00  0.78188873260E+02  0.78188873304E+02  0.26000000000E-02 0. -1.
         -2   -1    0    0    0  501 -0.00000000000E+00 -0.00000000000E+00 -0.12796580997E+01  0.12796607411E+01  0.26000000000E-02 0.  1.
       1023    2    1    2    0    0  0.00000000000E+00  0.00000000000E+00  0.76909215161E+02  0.79468534045E+02  0.20005512405E+02 0.  0.
        -13    1    3    3    0    0 -0.96390303102E+01 -0.26686366642E+01  0.38879334927E+02  0.40145315839E+02  0.10570000000E+00 0.  1.
         13    1    3    3    0    0  0.96390303102E+01  0.26686366642E+01  0.38029880234E+02  0.39323218206E+02  0.10570000000E+00 0. -1.
<mgrwt>
<rscale>  0 0.20005512E+02</rscale>
<asrwt>0</asrwt>
<pdfrwt beam="1">  1        2 0.12029061E-01 0.20005512E+02</pdfrwt>
<pdfrwt beam="2">  1       -2 0.19687062E-03 0.20005512E+02</pdfrwt>
<totfact> 0.50040108E+06</totfact>
</mgrwt>
</event>
<event>
 5    1  0.1607476E-006  0.2000193E+02  0.7818608E-02  0.1745290E+00
         -2   -1    0    0    0  501 -0.00000000000E+00  0.00000000000E+00  0.73860257036E+01  0.73860261612E+01  0.26000000000E-02 0.  1.
          2   -1    0    0  501    0  0.00000000000E+00 -0.00000000000E+00 -0.13541686826E+02  0.13541687075E+02  0.26000000000E-02 0. -1.
       1023    2    1    2    0    0  0.00000000000E+00  0.00000000000E+00 -0.61556611222E+01  0.20927713237E+02  0.20001925344E+02 0.  0.
        -13    1    3    3    0    0 -0.45725387928E+01 -0.88935955893E+01 -0.31434081657E+01  0.10483145563E+02  0.10570000000E+00 0. -1.
         13    1    3    3    0    0  0.45725387928E+01  0.88935955893E+01 -0.30122529566E+01  0.10444567673E+02  0.10570000000E+00 0.  1.
<mgrwt>
<rscale>  0 0.20001925E+02</rscale>
<asrwt>0</asrwt>
<pdfrwt beam="2">  1        2 0.20833365E-02 0.20001925E+02</pdfrwt>
<pdfrwt beam="1">  1       -2 0.11363117E-02 0.20001925E+02</pdfrwt>
<totfact> 0.40357948E+06</totfact>
</mgrwt>
</event>
<event>
 5    1  0.1607476E-006  0.2000179E+02  0.7818608E-02  0.1745293E+00
         -2   -1    0    0    0  501 -0.00000000000E+00  0.00000000000E+00  0.10546259422E+01  0.10546291472E+01  0.26000000000E-02 0. -1.
          2   -1    0    0  501    0  0.00000000000E+00 -0.00000000000E+00 -0.94837129093E+02  0.94837129128E+02  0.26000000000E-02 0.  1.
       1023    2    1    2    0    0  0.00000000000E+00  0.00000000000E+00 -0.93782503150E+02  0.95891758275E+02  0.20001785120E+02 0.  0.
        -13    1    3    3    0    0 -0.93051364152E+01 -0.36632294783E+01 -0.46684179749E+02  0.47743362106E+02  0.10570000000E+00 0. -1.
         13    1    3    3    0    0  0.93051364152E+01  0.36632294783E+01 -0.47098323402E+02  0.48148396169E+02  0.10570000000E+00 0.  1.
<mgrwt>
<rscale>  0 0.20001785E+02</rscale>
<asrwt>0</asrwt>
<pdfrwt beam="2">  1        2 0.14590321E-01 0.20001785E+02</pdfrwt>
<pdfrwt beam="1">  1       -2 0.16225047E-03 0.20001785E+02</pdfrwt>
<totfact> 0.52125274E+06</totfact>
</mgrwt>
</event>
<event>
 5    1  0.1607476E-006  0.2000189E+02  0.7818608E-02  0.1745290E+00
          2   -1    0    0  501    0  0.00000000000E+00  0.00000000000E+00  0.11089798856E+01  0.11089829334E+01  0.26000000000E-02 0.  1.
         -2   -1    0    0    0  501 -0.00000000000E+00 -0.00000000000E+00 -0.90189883061E+02  0.90189883099E+02  0.26000000000E-02 0. -1.
       1023    2    1    2    0    0  0.00000000000E+00  0.00000000000E+00 -0.89080903176E+02  0.91298866032E+02  0.20001890615E+02 0.  0.
        -13    1    3    3    0    0 -0.32906237018E+01 -0.94434855844E+01 -0.44492530350E+02  0.45602675949E+02  0.10570000000E+00 0.  1.
         13    1    3    3    0    0  0.32906237018E+01  0.94434855844E+01 -0.44588372826E+02  0.45696190083E+02  0.10570000000E+00 0. -1.
<mgrwt>
<rscale>  0 0.20001891E+02</rscale>
<asrwt>0</asrwt>
<pdfrwt beam="1">  1        2 0.17061260E-03 0.20001891E+02</pdfrwt>
<pdfrwt beam="2">  1       -2 0.13875361E-01 0.20001891E+02</pdfrwt>
<totfact> 0.30454536E+06</totfact>
</mgrwt>
</event>
<event>
 4    1  0.1607476E-006  0.2002274E+02  0.7818608E-02  0.1744876E+00
         -2   -1    0    0    0  501 -0.00000000000E+00  0.00000000000E+00  0.15053591292E+02  0.15053591517E+02  0.26000000000E-02 0.  1.
          2   -1    0    0  501    0  0.00000000000E+00 -0.00000000000E+00 -0.66580470698E+01  0.66580475774E+01  0.26000000000E-02 0. -1.
        -13    1    1    2    0    0  0.36856256835E+01  0.93033134100E+01  0.38893938983E+01  0.10736574615E+02  0.10570000000E+00 0. -1.
         13    1    1    2    0    0 -0.36856256835E+01 -0.93033134100E+01  0.45061503243E+01  0.10975064479E+02  0.10570000000E+00 0.  1.
<mgrwt>
<rscale>  0 0.20022740E+02</rscale>
<asrwt>0</asrwt>
<pdfrwt beam="2">  1        2 0.10243150E-02 0.20022740E+02</pdfrwt>
<pdfrwt beam="1">  1       -2 0.23159371E-02 0.20022740E+02</pdfrwt>
<totfact> 0.38193419E+06</totfact>
</mgrwt>
</event>
<event>
 5    1  0.1607476E-006  0.2000198E+02  0.7818608E-02  0.1745289E+00
         -2   -1    0    0    0  501 -0.00000000000E+00  0.00000000000E+00  0.10046516631E+03  0.10046516634E+03  0.26000000000E-02 0. -1.
          2   -1    0    0  501    0  0.00000000000E+00 -0.00000000000E+00 -0.99556474210E+00  0.99556813716E+00  0.26000000000E-02 0.  1.
       1023    2    1    2    0    0  0.00000000000E+00  0.00000000000E+00  0.99469601569E+02  0.10146073448E+03  0.20001975035E+02 0.  0.
        -13    1    3    3    0    0  0.57574161788E+00  0.99838231336E+01  0.49833169394E+02  0.50826805400E+02  0.10570000000E+00 0.  1.
         13    1    3    3    0    0 -0.57574161788E+00 -0.99838231336E+01  0.49636432174E+02  0.50633929082E+02  0.10570000000E+00 0. -1.
<mgrwt>
<rscale>  0 0.20001975E+02</rscale>
<asrwt>0</asrwt>
<pdfrwt beam="2">  1        2 0.15316404E-03 0.20001975E+02</pdfrwt>
<pdfrwt beam="1">  1       -2 0.15456183E-01 0.20001975E+02</pdfrwt>
<totfact> 0.29690584E+06</totfact>
</mgrwt>
</event>
<event>
 5    1  0.1607476E-006  0.2000576E+02  0.7818608E-02  0.1745214E+00
          2   -1    0    0  501    0  0.00000000000E+00  0.00000000000E+00  0.15515357815E+02  0.15515358033E+02  0.26000000000E-02 0.  1.
         -2   -1    0    0    0  501 -0.00000000000E+00 -0.00000000000E+00 -0.64489361231E+01  0.64489366472E+01  0.26000000000E-02 0. -1.
       1023    2    1    2    0    0  0.00000000000E+00  0.00000000000E+00  0.90664216919E+01  0.21964294680E+02  0.20005755134E+02 0.  0.
        -13    1    3    3    0    0 -0.79352452317E+01  0.60871241231E+01  0.47074628362E+01  0.11054075078E+02  0.10570000000E+00 0.  1.
         13    1    3    3    0    0  0.79352452317E+01 -0.60871241231E+01  0.43589588557E+01  0.10910219602E+02  0.10570000000E+00 0. -1.
<mgrwt>
<rscale>  0 0.20005755E+02</rscale>
<asrwt>0</asrwt>
<pdfrwt beam="1">  1        2 0.23869781E-02 0.20005755E+02</pdfrwt>
<pdfrwt beam="2">  1       -2 0.99214409E-03 0.20005755E+02</pdfrwt>
<totfact> 0.40772470E+06</totfact>
</mgrwt>
</event>
<event>
 4    1  0.1607476E-006  0.2163153E+02  0.7818608E-02  0.1714704E+00
         -2   -1    0    0    0  501 -0.00000000000E+00  0.00000000000E+00  0.26750229786E+01  0.26750242421E+01  0.26000000000E-02 0.  1.
          2   -1    0    0  501    0  0.00000000000E+00 -0.00000000000E+00 -0.43730726420E+02  0.43730726498E+02  0.26000000000E-02 0. -1.
        -13    1    1    2    0    0  0.46427351636E+01 -0.97058780661E+01 -0.22888148716E+02  0.25291057372E+02  0.10570000000E+00 0. -1.
         13    1    1    2    0    0 -0.46427351636E+01  0.97058780661E+01 -0.18167554726E+02  0.21114693368E+02  0.10570000000E+00 0.  1.
<mgrwt>
<rscale>  0 0.21631526E+02</rscale>
<asrwt>0</asrwt>
<pdfrwt beam="2">  1        2 0.67278037E-02 0.21631526E+02</pdfrwt>
<pdfrwt beam="1">  1       -2 0.41154213E-03 0.21631526E+02</pdfrwt>
<totfact> 0.38093030E+06</totfact>
</mgrwt>
</event>
<event>
 5    1  0.1607476E-006  0.2000741E+02  0.7818608E-02  0.1745181E+00
          2   -1    0    0  501    0  0.00000000000E+00  0.00000000000E+00  0.62503626068E+02  0.62503626122E+02  0.26000000000E-02 0.  1.
         -2   -1    0    0    0  501 -0.00000000000E+00 -0.00000000000E+00 -0.16010923866E+01  0.16010944977E+01  0.26000000000E-02 0. -1.
       1023    2    1    2    0    0  0.00000000000E+00  0.00000000000E+00  0.60902533681E+02  0.64104720620E+02  0.20007413549E+02 0.  0.
        -13    1    3    3    0    0  0.94419817498E+01  0.33022295042E+01  0.30178683832E+02  0.31793393487E+02  0.10570000000E+00 0. -1.
         13    1    3    3    0    0 -0.94419817498E+01 -0.33022295042E+01  0.30723849849E+02  0.32311327133E+02  0.10570000000E+00 0.  1.
<mgrwt>
<rscale>  0 0.20007414E+02</rscale>
<asrwt>0</asrwt>
<pdfrwt beam="1">  1        2 0.96159441E-02 0.20007414E+02</pdfrwt>
<pdfrwt beam="2">  1       -2 0.24632203E-03 0.20007414E+02</pdfrwt>
<totfact> 0.47993459E+06</totfact>
</mgrwt>
</event>
<event>
 4    1  0.1607476E-006  0.2001625E+02  0.7818608E-02  0.1745005E+00
         -2   -1    0    0    0  501 -0.00000000000E+00  0.00000000000E+00  0.25089024788E+01  0.25089038260E+01  0.26000000000E-02 0.  1.
          2   -1    0    0  501    0  0.00000000000E+00 -0.00000000000E+00 -0.39922855627E+02  0.39922855711E+02  0.26000000000E-02 0. -1.
        -13    1    1    2    0    0  0.59217249697E+01  0.80672386723E+01 -0.18568893459E+02  0.21094125798E+02  0.10570000000E+00 0. -1.
         13    1    1    2    0    0 -0.59217249697E+01 -0.80672386723E+01 -0.18845059689E+02  0.21337633739E+02  0.10570000000E+00 0.  1.
<mgrwt>
<rscale>  0 0.20016252E+02</rscale>
<asrwt>0</asrwt>
<pdfrwt beam="2">  1        2 0.61419774E-02 0.20016252E+02</pdfrwt>
<pdfrwt beam="1">  1       -2 0.38598514E-03 0.20016252E+02</pdfrwt>
<totfact> 0.44803604E+06</totfact>
</mgrwt>
</event>
<event>
 5    1  0.1607476E-006  0.2000720E+02  0.7818608E-02  0.1745185E+00
         -2   -1    0    0    0  501 -0.00000000000E+00  0.00000000000E+00  0.18936624510E+01  0.18936642359E+01  0.26000000000E-02 0. -1.
          2   -1    0    0  501    0  0.00000000000E+00 -0.00000000000E+00 -0.52845722388E+02  0.52845722452E+02  0.26000000000E-02 0.  1.
       1023    2    1    2    0    0  0.00000000000E+00  0.00000000000E+00 -0.50952059937E+02  0.54739386688E+02  0.20007199783E+02 0.  0.
        -13    1    3    3    0    0  0.45654393980E+01 -0.88991907121E+01 -0.25881898014E+02  0.27747480057E+02  0.10570000000E+00 0. -1.
         13    1    3    3    0    0 -0.45654393980E+01  0.88991907121E+01 -0.25070161923E+02  0.26991906630E+02  0.10570000000E+00 0.  1.
<mgrwt>
<rscale>  0 0.20007200E+02</rscale>
<asrwt>0</asrwt>
<pdfrwt beam="2">  1        2 0.81301102E-02 0.20007200E+02</pdfrwt>
<pdfrwt beam="1">  1       -2 0.29133287E-03 0.20007200E+02</pdfrwt>
<totfact> 0.46685933E+06</totfact>
</mgrwt>
</event>
<event>
 5    1  0.1607476E-006  0.2000308E+02  0.7818608E-02  0.1745267E+00
         -2   -1    0    0    0  501 -0.00000000000E+00  0.00000000000E+00  0.93815383808E+00  0.93815744089E+00  0.26000000000E-02 0. -1.
          2   -1    0    0  501    0  0.00000000000E+00 -0.00000000000E+00 -0.10662494713E+03  0.10662494716E+03  0.26000000000E-02 0.  1.
       1023    2    1    2    0    0  0.00000000000E+00  0.00000000000E+00 -0.10568679329E+03  0.10756310460E+03  0.20003079648E+02 0.  0.
        -13    1    3    3    0    0  0.98679332748E+01 -0.16243438912E+01 -0.53224624916E+02  0.54156130494E+02  0.10570000000E+00 0. -1.
         13    1    3    3    0    0 -0.98679332748E+01  0.16243438912E+01 -0.52462168375E+02  0.53406974107E+02  0.10570000000E+00 0.  1.
<mgrwt>
<rscale>  0 0.20003080E+02</rscale>
<asrwt>0</asrwt>
<pdfrwt beam="2">  1        2 0.16403829E-01 0.20003080E+02</pdfrwt>
<pdfrwt beam="1">  1       -2 0.14433172E-03 0.20003080E+02</pdfrwt>
<totfact> 0.53526055E+06</totfact>
</mgrwt>
</event>
<event>
 4    1  0.1607476E-006  0.2001624E+02  0.7818608E-02  0.1745005E+00
         -2   -1    0    0    0  501 -0.00000000000E+00  0.00000000000E+00  0.12473171288E+02  0.12473171559E+02  0.26000000000E-02 0.  1.
          2   -1    0    0  501    0  0.00000000000E+00 -0.00000000000E+00 -0.80302330525E+01  0.80302334734E+01  0.26000000000E-02 0. -1.
        -13    1    1    2    0    0 -0.62102164147E+01  0.78466174923E+01  0.20955423044E+01  0.10224415095E+02  0.10570000000E+00 0.  1.
         13    1    1    2    0    0  0.62102164147E+01 -0.78466174923E+01  0.23473959306E+01  0.10278989937E+02  0.10570000000E+00 0. -1.
<mgrwt>
<rscale>  0 0.20016241E+02</rscale>
<asrwt>0</asrwt>
<pdfrwt beam="2">  1        2 0.12354205E-02 0.20016241E+02</pdfrwt>
<pdfrwt beam="1">  1       -2 0.19189495E-02 0.20016241E+02</pdfrwt>
<totfact> 0.38761493E+06</totfact>
</mgrwt>
</event>
<event>
 4    1  0.1607476E-006  0.2005964E+02  0.7818608E-02  0.1744145E+00
         -2   -1    0    0    0  501 -0.00000000000E+00  0.00000000000E+00  0.10742327384E+02  0.10742327699E+02  0.26000000000E-02 0.  1.
          2   -1    0    0  501    0  0.00000000000E+00 -0.00000000000E+00 -0.93645676031E+01  0.93645679640E+01  0.26000000000E-02 0. -1.
        -13    1    1    2    0    0  0.17526046491E+01  0.98740527731E+01  0.55611375663E+00  0.10044350463E+02  0.10570000000E+00 0. -1.
         13    1    1    2    0    0 -0.17526046491E+01 -0.98740527731E+01  0.82164602453E+00  0.10062545200E+02  0.10570000000E+00 0.  1.
<mgrwt>
<rscale>  0 0.20059637E+02</rscale>
<asrwt>0</asrwt>
<pdfrwt beam="2">  1        2 0.14407028E-02 0.20059637E+02</pdfrwt>
<pdfrwt beam="1">  1       -2 0.16526658E-02 0.20059637E+02</pdfrwt>
<totfact> 0.39007320E+06</totfact>
</mgrwt>
</event>
<event>
 5    1  0.1607476E-006  0.2000684E+02  0.7818608E-02  0.1745192E+00
          2   -1    0    0  501    0  0.00000000000E+00  0.00000000000E+00  0.19001198339E+01  0.19001216127E+01  0.26000000000E-02 0. -1.
         -2   -1    0    0    0  501 -0.00000000000E+00 -0.00000000000E+00 -0.52664247069E+02  0.52664247133E+02  0.26000000000E-02 0.  1.
       1023    2    1    2    0    0  0.00000000000E+00  0.00000000000E+00 -0.50764127235E+02  0.54564368746E+02  0.20006841897E+02 0.  0.
        -13    1    3    3    0    0 -0.91465985538E+01 -0.40478549025E+01 -0.25679122097E+02  0.27558553637E+02  0.10570000000E+00 0. -1.
         13    1    3    3    0    0  0.91465985538E+01  0.40478549025E+01 -0.25085005138E+02  0.27005815109E+02  0.10570000000E+00 0.  1.
<mgrwt>
<rscale>  0 0.20006842E+02</rscale>
<asrwt>0</asrwt>
<pdfrwt beam="1">  1        2 0.29232631E-03 0.20006842E+02</pdfrwt>
<pdfrwt beam="2">  1       -2 0.81021909E-02 0.20006842E+02</pdfrwt>
<totfact> 0.33616446E+06</totfact>
</mgrwt>
</event>
<event>
 5    1  0.1607476E-006  0.2000168E+02  0.7818608E-02  0.1745295E+00
          2   -1    0    0  501    0  0.00000000000E+00  0.00000000000E+00  0.41143113602E+02  0.41143113684E+02  0.26000000000E-02 0.  1.
         -2   -1    0    0    0  501 -0.00000000000E+00 -0.00000000000E+00 -0.24309485736E+01  0.24309499640E+01  0.26000000000E-02 0. -1.
       1023    2    1    2    0    0  0.00000000000E+00  0.00000000000E+00  0.38712165028E+02  0.43574063648E+02  0.20001682470E+02 0.  0.
        -13    1    3    3    0    0 -0.85407037276E+00 -0.99636152005E+01  0.19466927227E+02  0.21885508726E+02  0.10570000000E+00 0.  1.
         13    1    3    3    0    0  0.85407037276E+00  0.99636152005E+01  0.19245237801E+02  0.21688554921E+02  0.10570000000E+00 0. -1.
<mgrwt>
<rscale>  0 0.20001682E+02</rscale>
<asrwt>0</asrwt>
<pdfrwt beam="1">  1        2 0.63297101E-02 0.20001682E+02</pdfrwt>
<pdfrwt beam="2">  1       -2 0.37399219E-03 0.20001682E+02</pdfrwt>
<totfact> 0.45055394E+06</totfact>
</mgrwt>
</event>
<event>
 4    1  0.1705301E-006  0.2310918E+02  0.7818608E-02  0.1689746E+00
          2   -1    0    0  501    0  0.00000000000E+00  0.00000000000E+00  0.27445832154E+01  0.27445844470E+01  0.26000000000E-02 0. -1.
         -2   -1    0    0    0  501 -0.00000000000E+00 -0.00000000000E+00 -0.48644378126E+02  0.48644378195E+02  0.26000000000E-02 0.  1.
        -13    1    1    2    0    0 -0.11329886720E+02  0.74943812517E+00 -0.27703419689E+02  0.29940250926E+02  0.10570000000E+00 0.  1.
         13    1    1    2    0    0  0.11329886720E+02 -0.74943812517E+00 -0.18196375221E+02  0.21448711716E+02  0.10570000000E+00 0. -1.
<mgrwt>
<rscale>  0 0.23109182E+02</rscale>
<asrwt>0</asrwt>
<pdfrwt beam="1">  1        2 0.42224371E-03 0.23109182E+02</pdfrwt>
<pdfrwt beam="2">  1       -2 0.74837500E-02 0.23109182E+02</pdfrwt>
<totfact> 0.24726000E+06</totfact>
</mgrwt>
</event>
<event>
 4    1  0.1607476E-006  0.2005876E+02  0.7818608E-02  0.1744162E+00
          2   -1    0    0  501    0  0.00000000000E+00  0.00000000000E+00  0.10031120779E+02  0.10031121116E+02  0.26000000000E-02 0. -1.
         -2   -1    0    0    0  501 -0.00000000000E+00 -0.00000000000E+00 -0.10027637311E+02  0.10027637648E+02  0.26000000000E-02 0.  1.
        -13    1    1    2    0    0  0.10004344586E+02  0.60269983294E+00  0.35827726772E+00  0.10029441299E+02  0.10570000000E+00 0. -1.
         13    1    1    2    0    0 -0.10004344586E+02 -0.60269983294E+00 -0.35479379995E+00  0.10029317465E+02  0.10570000000E+00 0.  1.
<mgrwt>
<rscale>  0 0.20058758E+02</rscale>
<asrwt>0</asrwt>
<pdfrwt beam="1">  1        2 0.15432494E-02 0.20058758E+02</pdfrwt>
<pdfrwt beam="2">  1       -2 0.15427135E-02 0.20058758E+02</pdfrwt>
<totfact> 0.39208494E+06</totfact>
</mgrwt>
</event>
<event>
 5    1  0.1607476E-006  0.2000290E+02  0.7818608E-02  0.1745270E+00
         -2   -1    0    0    0  501 -0.00000000000E+00  0.00000000000E+00  0.76457656872E+02  0.76457656916E+02  0.26000000000E-02 0. -1.
          2   -1    0    0  501    0  0.00000000000E+00 -0.00000000000E+00 -0.13082915634E+01  0.13082941469E+01  0.26000000000E-02 0.  1.
       1023    2    1    2    0    0  0.00000000000E+00  0.00000000000E+00  0.75149365308E+02  0.77765951063E+02  0.20002900751E+02 0.  0.
        -13    1    3    3    0    0 -0.31931128553E+01 -0.94774376030E+01  0.37548924638E+02  0.38858084193E+02  0.10570000000E+00 0. -1.
         13    1    3    3    0    0  0.31931128553E+01  0.94774376030E+01  0.37600440671E+02  0.38907866870E+02  0.10570000000E+00 0.  1.
<mgrwt>
<rscale>  0 0.20002901E+02</rscale>
<asrwt>0</asrwt>
<pdfrwt beam="2">  1        2 0.20127589E-03 0.20002901E+02</pdfrwt>
<pdfrwt beam="1">  1       -2 0.11762713E-01 0.20002901E+02</pdfrwt>
<totfact> 0.31534860E+06</totfact>
</mgrwt>
</event>
<event>
 4    1  0.1607476E-006  0.2003869E+02  0.7818608E-02  0.1744560E+00
         -2   -1    0    0    0  501 -0.00000000000E+00  0.00000000000E+00  0.15247515874E+02  0.15247516095E+02  0.26000000000E-02 0. -1.
          2   -1    0    0  501    0  0.00000000000E+00 -0.00000000000E+00 -0.65838439482E+01  0.65838444616E+01  0.26000000000E-02 0.  1.
        -13    1    1    2    0    0 -0.29842430521E+01  0.95553158371E+01  0.38875106196E+01  0.10739351873E+02  0.10570000000E+00 0.  1.
         13    1    1    2    0    0  0.29842430521E+01 -0.95553158371E+01  0.47761613060E+01  0.11092008684E+02  0.10570000000E+00 0. -1.
<mgrwt>
<rscale>  0 0.20038690E+02</rscale>
<asrwt>0</asrwt>
<pdfrwt beam="2">  1        2 0.10128991E-02 0.20038690E+02</pdfrwt>
<pdfrwt beam="1">  1       -2 0.23457717E-02 0.20038690E+02</pdfrwt>
<totfact> 0.38090591E+06</totfact>
</mgrwt>
</event>
<event>
 5    1  0.1607476E-006  0.2000529E+02  0.7818608E-02  0.1745223E+00
         -2   -1    0    0    0  501 -0.00000000000E+00  0.00000000000E+00  0.17624023701E+02  0.17624023893E+02  0.26000000000E-02 0.  1.
          2   -1    0    0  501    0  0.00000000000E+00 -0.00000000000E+00 -0.56770734037E+01  0.56770739990E+01  0.26000000000E-02 0. -1.
       1023    2    1    2    0    0  0.00000000000E+00  0.00000000000E+00  0.11946950297E+02  0.23301097892E+02  0.20005287840E+02 0.  0.
        -13    1    3    3    0    0  0.69292640178E+01  0.72105294811E+01  0.57547082811E+01  0.11538382691E+02  0.10570000000E+00 0. -1.
         13    1    3    3    0    0 -0.69292640178E+01 -0.72105294811E+01  0.61922420162E+01  0.11762715201E+02  0.10570000000E+00 0.  1.
<mgrwt>
<rscale>  0 0.20005288E+02</rscale>
<asrwt>0</asrwt>
<pdfrwt beam="2">  1        2 0.87339597E-03 0.20005288E+02</pdfrwt>
<pdfrwt beam="1">  1       -2 0.27113883E-02 0.20005288E+02</pdfrwt>
<totfact> 0.37799524E+06</totfact>
</mgrwt>
</event>
<event>
 4    1  0.1607476E-006  0.2004117E+02  0.7818608E-02  0.1744511E+00
         -2   -1    0    0    0  501 -0.00000000000E+00  0.00000000000E+00  0.24954149141E+02  0.24954149276E+02  0.26000000000E-02 0.  1.
          2   -1    0    0  501    0  0.00000000000E+00 -0.00000000000E+00 -0.40238637709E+01  0.40238646108E+01  0.26000000000E-02 0. -1.
        -13    1    1    2    0    0 -0.89077263625E+01 -0.45736569691E+01  0.99338539565E+01  0.14105266887E+02  0.10570000000E+00 0. -1.
         13    1    1    2    0    0  0.89077263625E+01  0.45736569691E+01  0.10996431413E+02  0.14872747000E+02  0.10570000000E+00 0.  1.
<mgrwt>
<rscale>  0 0.20041169E+02</rscale>
<asrwt>0</asrwt>
<pdfrwt beam="2">  1        2 0.61905604E-03 0.20041169E+02</pdfrwt>
<pdfrwt beam="1">  1       -2 0.38390999E-02 0.20041169E+02</pdfrwt>
<totfact> 0.36551242E+06</totfact>
</mgrwt>
</event>
<event>
 5    1  0.1607476E-006  0.2000281E+02  0.7818608E-02  0.1745272E+00
          2   -1    0    0  501    0  0.00000000000E+00  0.00000000000E+00  0.14980071443E+02  0.14980071669E+02  0.26000000000E-02 0.  1.
         -2   -1    0    0    0  501 -0.00000000000E+00 -0.00000000000E+00 -0.66774080837E+01  0.66774085899E+01  0.26000000000E-02 0. -1.
       1023    2    1    2    0    0  0.00000000000E+00  0.00000000000E+00  0.83026633594E+01  0.21657480259E+02  0.20002805611E+02 0.  0.
        -13    1    3    3    0    0 -0.51588096302E+01 -0.85675834882E+01  0.41611335025E+01  0.10832497780E+02  0.10570000000E+00 0.  1.
         13    1    3    3    0    0  0.51588096302E+01  0.85675834882E+01  0.41415298568E+01  0.10824982479E+02  0.10570000000E+00 0. -1.
<mgrwt>
<rscale>  0 0.20002806E+02</rscale>
<asrwt>0</asrwt>
<pdfrwt beam="1">  1        2 0.23046264E-02 0.20002806E+02</pdfrwt>
<pdfrwt beam="2">  1       -2 0.10272936E-02 0.20002806E+02</pdfrwt>
<totfact> 0.40672380E+06</totfact>
</mgrwt>
</event>
<event>
 5    1  0.1607476E-006  0.2000456E+02  0.7818608E-02  0.1745237E+00
          2   -1    0    0  501    0  0.00000000000E+00  0.00000000000E+00  0.11099118466E+01  0.11099148918E+01  0.26000000000E-02 0.  1.
         -2   -1    0    0    0  501 -0.00000000000E+00 -0.00000000000E+00 -0.90138218935E+02  0.90138218972E+02  0.26000000000E-02 0. -1.
       1023    2    1    2    0    0  0.00000000000E+00  0.00000000000E+00 -0.89028307088E+02  0.91248133864E+02  0.20004561247E+02 0.  0.
        -13    1    3    3    0    0 -0.69737390154E+01  0.71685494226E+01 -0.43987942993E+02  0.45110657698E+02  0.10570000000E+00 0. -1.
         13    1    3    3    0    0  0.69737390154E+01 -0.71685494226E+01 -0.45040364095E+02  0.46137476166E+02  0.10570000000E+00 0.  1.
<mgrwt>
<rscale>  0 0.20004561E+02</rscale>
<asrwt>0</asrwt>
<pdfrwt beam="1">  1        2 0.17075598E-03 0.20004561E+02</pdfrwt>
<pdfrwt beam="2">  1       -2 0.13867413E-01 0.20004561E+02</pdfrwt>
<totfact> 0.30449602E+06</totfact>
</mgrwt>
</event>
<event>
 4    1  0.1607476E-006  0.2011265E+02  0.7818608E-02  0.1743097E+00
         -2   -1    0    0    0  501 -0.00000000000E+00  0.00000000000E+00  0.11963837825E+02  0.11963838108E+02  0.26000000000E-02 0. -1.
          2   -1    0    0  501    0  0.00000000000E+00 -0.00000000000E+00 -0.84529435354E+01  0.84529439352E+01  0.26000000000E-02 0.  1.
        -13    1    1    2    0    0 -0.89918030330E+01 -0.43787668682E+01  0.28164113605E+01  0.10390835698E+02  0.10570000000E+00 0. -1.
         13    1    1    2    0    0  0.89918030330E+01  0.43787668682E+01  0.69448292918E+00  0.10025946344E+02  0.10570000000E+00 0.  1.
<mgrwt>
<rscale>  0 0.20112648E+02</rscale>
<asrwt>0</asrwt>
<pdfrwt beam="2">  1        2 0.13004529E-02 0.20112648E+02</pdfrwt>
<pdfrwt beam="1">  1       -2 0.18405905E-02 0.20112648E+02</pdfrwt>
<totfact> 0.38481286E+06</totfact>
</mgrwt>
</event>
<event>
 5    1  0.1607476E-006  0.2000279E+02  0.7818608E-02  0.1745273E+00
          2   -1    0    0  501    0  0.00000000000E+00  0.00000000000E+00  0.22771995889E+02  0.22771996037E+02  0.26000000000E-02 0.  1.
         -2   -1    0    0    0  501 -0.00000000000E+00 -0.00000000000E+00 -0.43925837286E+01  0.43925844981E+01  0.26000000000E-02 0. -1.
       1023    2    1    2    0    0  0.00000000000E+00  0.00000000000E+00  0.18379412160E+02  0.27164580535E+02  0.20002790913E+02 0.  0.
        -13    1    3    3    0    0  0.83999147392E+01 -0.54264400201E+01  0.90414390771E+01  0.13481973594E+02  0.10570000000E+00 0.  1.
         13    1    3    3    0    0 -0.83999147392E+01  0.54264400201E+01  0.93379730831E+01  0.13682606941E+02  0.10570000000E+00 0. -1.
<mgrwt>
<rscale>  0 0.20002791E+02</rscale>
<asrwt>0</asrwt>
<pdfrwt beam="1">  1        2 0.35033840E-02 0.20002791E+02</pdfrwt>
<pdfrwt beam="2">  1       -2 0.67578219E-03 0.20002791E+02</pdfrwt>
<totfact> 0.42161351E+06</totfact>
</mgrwt>
</event>
<event>
 5    1  0.1607476E-006  0.2000312E+02  0.7818608E-02  0.1745266E+00
         -2   -1    0    0    0  501 -0.00000000000E+00  0.00000000000E+00  0.69625842569E+02  0.69625842618E+02  0.26000000000E-02 0. -1.
          2   -1    0    0  501    0  0.00000000000E+00 -0.00000000000E+00 -0.14366946984E+01  0.14366970510E+01  0.26000000000E-02 0.  1.
       1023    2    1    2    0    0  0.00000000000E+00  0.00000000000E+00  0.68189147871E+02  0.71062539669E+02  0.20003116178E+02 0.  0.
        -13    1    3    3    0    0  0.63845835356E+01 -0.76978031258E+01  0.34201849344E+02  0.35634207595E+02  0.10570000000E+00 0.  1.
         13    1    3    3    0    0 -0.63845835356E+01  0.76978031258E+01  0.33987298526E+02  0.35428332073E+02  0.10570000000E+00 0. -1.
<mgrwt>
<rscale>  0 0.20003116E+02</rscale>
<asrwt>0</asrwt>
<pdfrwt beam="2">  1        2 0.22103017E-03 0.20003116E+02</pdfrwt>
<pdfrwt beam="1">  1       -2 0.10711667E-01 0.20003116E+02</pdfrwt>
<totfact> 0.32104114E+06</totfact>
</mgrwt>
</event>
<event>
 5    1  0.1607476E-006  0.2000230E+02  0.7818608E-02  0.1745282E+00
          2   -1    0    0  501    0  0.00000000000E+00  0.00000000000E+00  0.24252059090E+01  0.24252073027E+01  0.26000000000E-02 0.  1.
         -2   -1    0    0    0  501 -0.00000000000E+00 -0.00000000000E+00 -0.41243072829E+02  0.41243072911E+02  0.26000000000E-02 0. -1.
       1023    2    1    2    0    0  0.00000000000E+00  0.00000000000E+00 -0.38817866920E+02  0.43668280214E+02  0.20002297483E+02 0.  0.
        -13    1    3    3    0    0  0.82106034440E+00  0.99668271869E+01 -0.19399318445E+02  0.21825593071E+02  0.10570000000E+00 0.  1.
         13    1    3    3    0    0 -0.82106034440E+00 -0.99668271869E+01 -0.19418548475E+02  0.21842687143E+02  0.10570000000E+00 0. -1.
<mgrwt>
<rscale>  0 0.20002297E+02</rscale>
<asrwt>0</asrwt>
<pdfrwt beam="1">  1        2 0.37310875E-03 0.20002297E+02</pdfrwt>
<pdfrwt beam="2">  1       -2 0.63450877E-02 0.20002297E+02</pdfrwt>
<totfact> 0.34779169E+06</totfact>
</mgrwt>
</event>
<event>
 5    1  0.1607476E-006  0.2000200E+02  0.7818608E-02  0.1745288E+00
         -2   -1    0    0    0  501 -0.00000000000E+00  0.00000000000E+00  0.42867621920E+01  0.42867629804E+01  0.26000000000E-02 0.  1.
          2   -1    0    0  501    0  0.00000000000E+00 -0.00000000000E+00 -0.23332291739E+02  0.23332291883E+02  0.26000000000E-02 0. -1.
       1023    2    1    2    0    0  0.00000000000E+00  0.00000000000E+00 -0.19045529547E+02  0.27619054864E+02  0.20001999797E+02 0.  0.
        -13    1    3    3    0    0 -0.47401455443E+01  0.88055824549E+01 -0.94681514249E+01  0.13771867195E+02  0.10570000000E+00 0.  1.
         13    1    3    3    0    0  0.47401455443E+01 -0.88055824549E+01 -0.95773781217E+01  0.13847187669E+02  0.10570000000E+00 0. -1.
<mgrwt>
<rscale>  0 0.20002000E+02</rscale>
<asrwt>0</asrwt>
<pdfrwt beam="2">  1        2 0.35895834E-02 0.20002000E+02</pdfrwt>
<pdfrwt beam="1">  1       -2 0.65950196E-03 0.20002000E+02</pdfrwt>
<totfact> 0.42262422E+06</totfact>
</mgrwt>
</event>
<event>
 4    1  0.1607476E-006  0.2001844E+02  0.7818608E-02  0.1744962E+00
          2   -1    0    0  501    0  0.00000000000E+00  0.00000000000E+00  0.67312074447E+02  0.67312074497E+02  0.26000000000E-02 0. -1.
         -2   -1    0    0    0  501 -0.00000000000E+00 -0.00000000000E+00 -0.14883574004E+01  0.14883596713E+01  0.26000000000E-02 0.  1.
        -13    1    1    2    0    0 -0.94318950888E+01  0.33443955130E+01  0.32339798761E+02  0.33852908039E+02  0.10570000000E+00 0.  1.
         13    1    1    2    0    0  0.94318950888E+01 -0.33443955130E+01  0.33483918286E+02  0.34947526129E+02  0.10570000000E+00 0. -1.
<mgrwt>
<rscale>  0 0.20018442E+02</rscale>
<asrwt>0</asrwt>
<pdfrwt beam="1">  1        2 0.10355706E-01 0.20018442E+02</pdfrwt>
<pdfrwt beam="2">  1       -2 0.22897820E-03 0.20018442E+02</pdfrwt>
<totfact> 0.48569365E+06</totfact>
</mgrwt>
</event>
<event>
 4    1  0.1607476E-006  0.2001242E+02  0.7818608E-02  0.1745081E+00
         -2   -1    0    0    0  501 -0.00000000000E+00  0.00000000000E+00  0.16520512145E+02  0.16520512350E+02  0.26000000000E-02 0.  1.
          2   -1    0    0  501    0  0.00000000000E+00 -0.00000000000E+00 -0.60606010182E+01  0.60606015759E+01  0.26000000000E-02 0. -1.
        -13    1    1    2    0    0  0.74641972672E+01 -0.66584235279E+01  0.49440024429E+01  0.11158099182E+02  0.10570000000E+00 0.  1.
         13    1    1    2    0    0 -0.74641972672E+01  0.66584235279E+01  0.55159086840E+01  0.11423014743E+02  0.10570000000E+00 0. -1.
<mgrwt>
<rscale>  0 0.20012420E+02</rscale>
<asrwt>0</asrwt>
<pdfrwt beam="2">  1        2 0.93240021E-03 0.20012420E+02</pdfrwt>
<pdfrwt beam="1">  1       -2 0.25416173E-02 0.20012420E+02</pdfrwt>
<totfact> 0.37963182E+06</totfact>
</mgrwt>
</event>
<event>
 5    1  0.1607476E-006  0.2000364E+02  0.7818608E-02  0.1745256E+00
         -2   -1    0    0    0  501 -0.00000000000E+00  0.00000000000E+00  0.33872558811E+01  0.33872568790E+01  0.26000000000E-02 0. -1.
          2   -1    0    0  501    0  0.00000000000E+00 -0.00000000000E+00 -0.29533159984E+02  0.29533160098E+02  0.26000000000E-02 0.  1.
       1023    2    1    2    0    0  0.00000000000E+00  0.00000000000E+00 -0.26145904103E+02  0.32920416977E+02  0.20003638484E+02 0.  0.
        -13    1    3    3    0    0  0.35699854459E+01  0.93419470188E+01 -0.13224192648E+02  0.16580326109E+02  0.10570000000E+00 0. -1.
         13    1    3    3    0    0 -0.35699854459E+01 -0.93419470188E+01 -0.12921711454E+02  0.16340090868E+02  0.10570000000E+00 0.  1.
<mgrwt>
<rscale>  0 0.20003638E+02</rscale>
<asrwt>0</asrwt>
<pdfrwt beam="2">  1        2 0.45435630E-02 0.20003638E+02</pdfrwt>
<pdfrwt beam="1">  1       -2 0.52111640E-03 0.20003638E+02</pdfrwt>
<totfact> 0.43281319E+06</totfact>
</mgrwt>
</event>
<event>
 5    1  0.1607476E-006  0.2000190E+02  0.7818608E-02  0.1745290E+00
          2   -1    0    0  501    0  0.00000000000E+00  0.00000000000E+00  0.17123147249E+01  0.17123166988E+01  0.26000000000E-02 0. -1.
         -2   -1    0    0    0  501 -0.00000000000E+00 -0.00000000000E+00 -0.58411536720E+02  0.58411536778E+02  0.26000000000E-02 0.  1.
       1023    2    1    2    0    0  0.00000000000E+00  0.00000000000E+00 -0.56699221995E+02  0.60123853477E+02  0.20001899461E+02 0.  0.
        -13    1    3    3    0    0  0.77722220422E+01 -0.62928129834E+01 -0.28259820280E+02  0.29977250465E+02  0.10570000000E+00 0.  1.
         13    1    3    3    0    0 -0.77722220422E+01  0.62928129834E+01 -0.28439401715E+02  0.30146603012E+02  0.10570000000E+00 0. -1.
<mgrwt>
<rscale>  0 0.20001899E+02</rscale>
<asrwt>0</asrwt>
<pdfrwt beam="1">  1        2 0.26343324E-03 0.20001899E+02</pdfrwt>
<pdfrwt beam="2">  1       -2 0.89863889E-02 0.20001899E+02</pdfrwt>
<totfact> 0.33097842E+06</totfact>
</mgrwt>
</event>
<event>
 5    1  0.1607476E-006  0.2000279E+02  0.7818608E-02  0.1745273E+00
          2   -1    0    0  501    0  0.00000000000E+00  0.00000000000E+00  0.20947866374E+02  0.20947866535E+02  0.26000000000E-02 0.  1.
         -2   -1    0    0    0  501 -0.00000000000E+00 -0.00000000000E+00 -0.47750881581E+01  0.47750888659E+01  0.26000000000E-02 0. -1.
       1023    2    1    2    0    0  0.00000000000E+00  0.00000000000E+00  0.16172778216E+02  0.25722955401E+02  0.20002791789E+02 0.  0.
        -13    1    3    3    0    0  0.99916691872E+01  0.42040917454E+00  0.79823104377E+01  0.12796040381E+02  0.10570000000E+00 0.  1.
         13    1    3    3    0    0 -0.99916691872E+01 -0.42040917454E+00  0.81904677781E+01  0.12926915020E+02  0.10570000000E+00 0. -1.
<mgrwt>
<rscale>  0 0.20002792E+02</rscale>
<asrwt>0</asrwt>
<pdfrwt beam="1">  1        2 0.32227488E-02 0.20002792E+02</pdfrwt>
<pdfrwt beam="2">  1       -2 0.73462901E-03 0.20002792E+02</pdfrwt>
<totfact> 0.41837717E+06</totfact>
</mgrwt>
</event>
<event>
 5    1  0.1607476E-006  0.2000150E+02  0.7818608E-02  0.1745298E+00
         -2   -1    0    0    0  501 -0.00000000000E+00  0.00000000000E+00  0.24868774869E+01  0.24868788460E+01  0.26000000000E-02 0.  1.
          2   -1    0    0  501    0  0.00000000000E+00 -0.00000000000E+00 -0.40217106829E+02  0.40217106913E+02  0.26000000000E-02 0. -1.
       1023    2    1    2    0    0  0.00000000000E+00  0.00000000000E+00 -0.37730229342E+02  0.42703985759E+02  0.20001504781E+02 0.  0.
        -13    1    3    3    0    0  0.94372342078E+01  0.33077378064E+01 -0.18786465305E+02  0.21282503848E+02  0.10570000000E+00 0.  1.
         13    1    3    3    0    0 -0.94372342078E+01 -0.33077378064E+01 -0.18943764038E+02  0.21421481912E+02  0.10570000000E+00 0. -1.
<mgrwt>
<rscale>  0 0.20001505E+02</rscale>
<asrwt>0</asrwt>
<pdfrwt beam="2">  1        2 0.61872468E-02 0.20001505E+02</pdfrwt>
<pdfrwt beam="1">  1       -2 0.38259668E-03 0.20001505E+02</pdfrwt>
<totfact> 0.44920673E+06</totfact>
</mgrwt>
</event>
<event>
 5    1  0.1607476E-006  0.2000193E+02  0.7818608E-02  0.1745290E+00
          2   -1    0    0  501    0  0.00000000000E+00  0.00000000000E+00  0.16687975363E+02  0.16687975566E+02  0.26000000000E-02 0.  1.
         -2   -1    0    0    0  501 -0.00000000000E+00 -0.00000000000E+00 -0.59934966358E+01  0.59934971997E+01  0.26000000000E-02 0. -1.
       1023    2    1    2    0    0  0.00000000000E+00  0.00000000000E+00  0.10694478728E+02  0.22681472766E+02  0.20001933196E+02 0.  0.
        -13    1    3    3    0    0  0.36999317044E+01  0.92905991794E+01  0.52808015265E+01  0.11309410461E+02  0.10570000000E+00 0. -1.
         13    1    3    3    0    0 -0.36999317044E+01 -0.92905991794E+01  0.54136772012E+01  0.11372062305E+02  0.10570000000E+00 0.  1.
<mgrwt>
<rscale>  0 0.20001933E+02</rscale>
<asrwt>0</asrwt>
<pdfrwt beam="1">  1        2 0.25673809E-02 0.20001933E+02</pdfrwt>
<pdfrwt beam="2">  1       -2 0.92207645E-03 0.20001933E+02</pdfrwt>
<totfact> 0.41031550E+06</totfact>
</mgrwt>
</event>
<event>
 5    1  0.1607476E-006  0.2000167E+02  0.7818608E-02  0.1745295E+00
          2   -1    0    0  501    0  0.00000000000E+00  0.00000000000E+00  0.52521425100E+01  0.52521431535E+01  0.26000000000E-02 0. -1.
         -2   -1    0    0    0  501 -0.00000000000E+00 -0.00000000000E+00 -0.19043027965E+02  0.19043028143E+02  0.26000000000E-02 0.  1.
       1023    2    1    2    0    0  0.00000000000E+00  0.00000000000E+00 -0.13790885455E+02  0.24295171296E+02  0.20001670597E+02 0.  0.
        -13    1    3    3    0    0  0.47993682387E+01 -0.87731669593E+01 -0.69635089776E+01  0.12186222703E+02  0.10570000000E+00 0. -1.
         13    1    3    3    0    0 -0.47993682387E+01  0.87731669593E+01 -0.68273764777E+01  0.12108948594E+02  0.10570000000E+00 0.  1.
<mgrwt>
<rscale>  0 0.20001671E+02</rscale>
<asrwt>0</asrwt>
<pdfrwt beam="1">  1        2 0.80802200E-03 0.20001671E+02</pdfrwt>
<pdfrwt beam="2">  1       -2 0.29296966E-02 0.20001671E+02</pdfrwt>
<totfact> 0.37579015E+06</totfact>
</mgrwt>
</event>
<event>
 5    1  0.1607476E-006  0.2000177E+02  0.7818608E-02  0.1745293E+00
          2   -1    0    0  501    0  0.00000000000E+00  0.00000000000E+00  0.28350834777E+02  0.28350834896E+02  0.26000000000E-02 0. -1.
         -2   -1    0    0    0  501 -0.00000000000E+00 -0.00000000000E+00 -0.35278577776E+01  0.35278587357E+01  0.26000000000E-02 0.  1.
       1023    2    1    2    0    0  0.00000000000E+00  0.00000000000E+00  0.24822977000E+02  0.31878693632E+02  0.20001772936E+02 0.  0.
        -13    1    3    3    0    0  0.94278106563E+01 -0.33351039047E+01  0.12419588055E+02  0.15945653695E+02  0.10570000000E+00 0. -1.
         13    1    3    3    0    0 -0.94278106563E+01  0.33351039047E+01  0.12403388945E+02  0.15933039937E+02  0.10570000000E+00 0.  1.
<mgrwt>
<rscale>  0 0.20001773E+02</rscale>
<asrwt>0</asrwt>
<pdfrwt beam="1">  1        2 0.43616671E-02 0.20001773E+02</pdfrwt>
<pdfrwt beam="2">  1       -2 0.54274741E-03 0.20001773E+02</pdfrwt>
<totfact> 0.43100717E+06</totfact>
</mgrwt>
</event>
<event>
 4    1  0.1607476E-006  0.2002099E+02  0.7818608E-02  0.1744911E+00
          2   -1    0    0  501    0  0.00000000000E+00  0.00000000000E+00  0.26545193718E+01  0.26545206451E+01  0.26000000000E-02 0. -1.
         -2   -1    0    0    0  501 -0.00000000000E+00 -0.00000000000E+00 -0.37750713822E+02  0.37750713912E+02  0.26000000000E-02 0.  1.
        -13    1    1    2    0    0  0.11677539202E+01  0.99411418133E+01 -0.17738557082E+02  0.20368051689E+02  0.10570000000E+00 0.  1.
         13    1    1    2    0    0 -0.11677539202E+01 -0.99411418133E+01 -0.17357637368E+02  0.20037182868E+02  0.10570000000E+00 0. -1.
<mgrwt>
<rscale>  0 0.20020992E+02</rscale>
<asrwt>0</asrwt>
<pdfrwt beam="1">  1        2 0.40838773E-03 0.20020992E+02</pdfrwt>
<pdfrwt beam="2">  1       -2 0.58078018E-02 0.20020992E+02</pdfrwt>
<totfact> 0.35084437E+06</totfact>
</mgrwt>
</event>
<event>
 5    1  0.1607476E-006  0.2000641E+02  0.7818608E-02  0.1745201E+00
          2   -1    0    0  501    0  0.00000000000E+00  0.00000000000E+00  0.43756825166E+02  0.43756825243E+02  0.26000000000E-02 0. -1.
         -2   -1    0    0    0  501 -0.00000000000E+00 -0.00000000000E+00 -0.22868209972E+01  0.22868224752E+01  0.26000000000E-02 0.  1.
       1023    2    1    2    0    0  0.00000000000E+00  0.00000000000E+00  0.41470004169E+02  0.46043647718E+02  0.20006405211E+02 0.  0.
        -13    1    3    3    0    0  0.13918157530E+01  0.99044659335E+01  0.21037651815E+02  0.23294410551E+02  0.10570000000E+00 0.  1.
         13    1    3    3    0    0 -0.13918157530E+01 -0.99044659335E+01  0.20432352353E+02  0.22749237167E+02  0.10570000000E+00 0. -1.
<mgrwt>
<rscale>  0 0.20006405E+02</rscale>
<asrwt>0</asrwt>
<pdfrwt beam="1">  1        2 0.67318194E-02 0.20006405E+02</pdfrwt>
<pdfrwt beam="2">  1       -2 0.35181874E-03 0.20006405E+02</pdfrwt>
<totfact> 0.45410434E+06</totfact>
</mgrwt>
</event>
<event>
 5    1  0.1607476E-006  0.2000258E+02  0.7818608E-02  0.1745277E+00
         -2   -1    0    0    0  501 -0.00000000000E+00  0.00000000000E+00  0.94461485348E+01  0.94461488926E+01  0.26000000000E-02 0. -1.
          2   -1    0    0  501    0  0.00000000000E+00 -0.00000000000E+00 -0.10589058765E+02  0.10589059085E+02  0.26000000000E-02 0.  1.
       1023    2    1    2    0    0  0.00000000000E+00  0.00000000000E+00 -0.11429102307E+01  0.20035207977E+02  0.20002582706E+02 0.  0.
        -13    1    3    3    0    0 -0.28597795891E+01 -0.95829189782E+01 -0.63465154768E+00  0.10021209035E+02  0.10570000000E+00 0.  1.
         13    1    3    3    0    0  0.28597795891E+01  0.95829189782E+01 -0.50825868306E+00  0.10013998942E+02  0.10570000000E+00 0. -1.
<mgrwt>
<rscale>  0 0.20002583E+02</rscale>
<asrwt>0</asrwt>
<pdfrwt beam="2">  1        2 0.16290860E-02 0.20002583E+02</pdfrwt>
<pdfrwt beam="1">  1       -2 0.14532537E-02 0.20002583E+02</pdfrwt>
<totfact> 0.39617708E+06</totfact>
</mgrwt>
</event>
<event>
 5    1  0.1607476E-006  0.2000193E+02  0.7818608E-02  0.1745290E+00
          2   -1    0    0  501    0  0.00000000000E+00  0.00000000000E+00  0.14049753534E+01  0.14049777591E+01  0.26000000000E-02 0.  1.
         -2   -1    0    0    0  501 -0.00000000000E+00 -0.00000000000E+00 -0.71189321856E+02  0.71189321903E+02  0.26000000000E-02 0. -1.
       1023    2    1    2    0    0  0.00000000000E+00  0.00000000000E+00 -0.69784346502E+02  0.72594299662E+02  0.20001933074E+02 0.  0.
        -13    1    3    3    0    0 -0.98587703543E+01 -0.16770879246E+01 -0.34843159382E+02  0.36250033173E+02  0.10570000000E+00 0. -1.
         13    1    3    3    0    0  0.98587703543E+01  0.16770879246E+01 -0.34941187120E+02  0.36344266489E+02  0.10570000000E+00 0.  1.
<mgrwt>
<rscale>  0 0.20001933E+02</rscale>
<asrwt>0</asrwt>
<pdfrwt beam="1">  1        2 0.21615030E-03 0.20001933E+02</pdfrwt>
<pdfrwt beam="2">  1       -2 0.10952201E-01 0.20001933E+02</pdfrwt>
<totfact> 0.31975838E+06</totfact>
</mgrwt>
</event>
<event>
 5    1  0.1607476E-006  0.2000746E+02  0.7818608E-02  0.1745180E+00
         -2   -1    0    0    0  501 -0.00000000000E+00  0.00000000000E+00  0.74151149552E+01  0.74151154110E+01  0.26000000000E-02 0.  1.
          2   -1    0    0  501    0  0.00000000000E+00 -0.00000000000E+00 -0.13496033122E+02  0.13496033373E+02  0.26000000000E-02 0. -1.
       1023    2    1    2    0    0  0.00000000000E+00  0.00000000000E+00 -0.60809181671E+01  0.20911148784E+02  0.20007463050E+02 0.  0.
        -13    1    3    3    0    0 -0.96118908427E+01  0.27701654653E+01 -0.30041080029E+01  0.10445003574E+02  0.10570000000E+00 0. -1.
         13    1    3    3    0    0  0.96118908427E+01 -0.27701654653E+01 -0.30768101642E+01  0.10466145210E+02  0.10570000000E+00 0.  1.
<mgrwt>
<rscale>  0 0.20007463E+02</rscale>
<asrwt>0</asrwt>
<pdfrwt beam="2">  1        2 0.20763128E-02 0.20007463E+02</pdfrwt>
<pdfrwt beam="1">  1       -2 0.11407870E-02 0.20007463E+02</pdfrwt>
<totfact> 0.40322153E+06</totfact>
</mgrwt>
</event>
<event>
 5    1  0.1607476E-006  0.2000358E+02  0.7818608E-02  0.1745257E+00
         -2   -1    0    0    0  501 -0.00000000000E+00  0.00000000000E+00  0.98785787618E+00  0.98786129772E+00  0.26000000000E-02 0.  1.
          2   -1    0    0  501    0  0.00000000000E+00 -0.00000000000E+00 -0.10126516473E+03  0.10126516476E+03  0.26000000000E-02 0. -1.
       1023    2    1    2    0    0  0.00000000000E+00  0.00000000000E+00 -0.10027730685E+03  0.10225302606E+03  0.20003576400E+02 0.  0.
        -13    1    3    3    0    0  0.89977049173E+01 -0.43661958934E+01 -0.49897027164E+02  0.50889555438E+02  0.10570000000E+00 0.  1.
         13    1    3    3    0    0 -0.89977049173E+01  0.43661958934E+01 -0.50380279690E+02  0.51363470623E+02  0.10570000000E+00 0. -1.
<mgrwt>
<rscale>  0 0.20003576E+02</rscale>
<asrwt>0</asrwt>
<pdfrwt beam="2">  1        2 0.15579248E-01 0.20003576E+02</pdfrwt>
<pdfrwt beam="1">  1       -2 0.15197848E-03 0.20003576E+02</pdfrwt>
<totfact> 0.52888339E+06</totfact>
</mgrwt>
</event>
<event>
 5    1  0.1607476E-006  0.2000199E+02  0.7818608E-02  0.1745288E+00
          2   -1    0    0  501    0  0.00000000000E+00  0.00000000000E+00  0.41372719152E+01  0.41372727322E+01  0.26000000000E-02 0. -1.
         -2   -1    0    0    0  501 -0.00000000000E+00 -0.00000000000E+00 -0.24175329942E+02  0.24175330081E+02  0.26000000000E-02 0.  1.
       1023    2    1    2    0    0  0.00000000000E+00  0.00000000000E+00 -0.20038058026E+02  0.28312602813E+02  0.20001992616E+02 0.  0.
        -13    1    3    3    0    0 -0.94580427003E+01 -0.32487020027E+01 -0.10003637350E+02  0.14145408059E+02  0.10570000000E+00 0. -1.
         13    1    3    3    0    0  0.94580427003E+01  0.32487020027E+01 -0.10034420676E+02  0.14167194755E+02  0.10570000000E+00 0.  1.
<mgrwt>
<rscale>  0 0.20001993E+02</rscale>
<asrwt>0</asrwt>
<pdfrwt beam="1">  1        2 0.63650346E-03 0.20001993E+02</pdfrwt>
<pdfrwt beam="2">  1       -2 0.37192815E-02 0.20001993E+02</pdfrwt>
<totfact> 0.36813955E+06</totfact>
</mgrwt>
</event>
<event>
 4    1  0.1607476E-006  0.2001534E+02  0.7818608E-02  0.1745023E+00
          2   -1    0    0  501    0  0.00000000000E+00  0.00000000000E+00  0.10322870770E+03  0.10322870773E+03  0.26000000000E-02 0. -1.
         -2   -1    0    0    0  501 -0.00000000000E+00 -0.00000000000E+00 -0.97020748380E+00  0.97021096758E+00  0.26000000000E-02 0.  1.
        -13    1    1    2    0    0 -0.75324965854E+01 -0.65869172793E+01  0.50464773436E+02  0.51447356730E+02  0.10570000000E+00 0.  1.
         13    1    1    2    0    0  0.75324965854E+01  0.65869172793E+01  0.51793726781E+02  0.52751561971E+02  0.10570000000E+00 0. -1.
<mgrwt>
<rscale>  0 0.20015339E+02</rscale>
<asrwt>0</asrwt>
<pdfrwt beam="1">  1        2 0.15881333E-01 0.20015339E+02</pdfrwt>
<pdfrwt beam="2">  1       -2 0.14926303E-03 0.20015339E+02</pdfrwt>
<totfact> 0.53053198E+06</totfact>
</mgrwt>
</event>
<event>
 5    1  0.1607476E-006  0.2000170E+02  0.7818608E-02  0.1745294E+00
          2   -1    0    0  501    0  0.00000000000E+00  0.00000000000E+00  0.75285997800E+01  0.75286002289E+01  0.26000000000E-02 0. -1.
         -2   -1    0    0    0  501 -0.00000000000E+00 -0.00000000000E+00 -0.13284942516E+02  0.13284942770E+02  0.26000000000E-02 0.  1.
       1023    2    1    2    0    0  0.00000000000E+00  0.00000000000E+00 -0.57563427361E+01  0.20813542999E+02  0.20001702190E+02 0.  0.
        -13    1    3    3    0    0  0.99186676710E+01 -0.12732245900E+01 -0.29501219404E+01  0.10426670666E+02  0.10570000000E+00 0. -1.
         13    1    3    3    0    0 -0.99186676710E+01  0.12732245900E+01 -0.28062207957E+01  0.10386872333E+02  0.10570000000E+00 0.  1.
<mgrwt>
<rscale>  0 0.20001702E+02</rscale>
<asrwt>0</asrwt>
<pdfrwt beam="1">  1        2 0.11582462E-02 0.20001702E+02</pdfrwt>
<pdfrwt beam="2">  1       -2 0.20438374E-02 0.20001702E+02</pdfrwt>
<totfact> 0.38641424E+06</totfact>
</mgrwt>
</event>
<event>
 4    1  0.1607476E-006  0.2006181E+02  0.7818608E-02  0.1744102E+00
         -2   -1    0    0    0  501 -0.00000000000E+00  0.00000000000E+00  0.82758595731E+01  0.82758599816E+01  0.26000000000E-02 0.  1.
          2   -1    0    0  501    0  0.00000000000E+00 -0.00000000000E+00 -0.12158139257E+02  0.12158139535E+02  0.26000000000E-02 0. -1.
        -13    1    1    2    0    0  0.42280596510E+01  0.90918609378E+01 -0.22095896116E+01  0.10268002847E+02  0.10570000000E+00 0.  1.
         13    1    1    2    0    0 -0.42280596510E+01 -0.90918609378E+01 -0.16726900726E+01  0.10165996670E+02  0.10570000000E+00 0. -1.
<mgrwt>
<rscale>  0 0.20061811E+02</rscale>
<asrwt>0</asrwt>
<pdfrwt beam="2">  1        2 0.18704830E-02 0.20061811E+02</pdfrwt>
<pdfrwt beam="1">  1       -2 0.12732092E-02 0.20061811E+02</pdfrwt>
<totfact> 0.39757972E+06</totfact>
</mgrwt>
</event>
<event>
 5    1  0.1607476E-006  0.2000245E+02  0.7818608E-02  0.1745279E+00
         -2   -1    0    0    0  501 -0.00000000000E+00  0.00000000000E+00  0.59545935773E+02  0.59545935830E+02  0.26000000000E-02 0.  1.
          2   -1    0    0  501    0  0.00000000000E+00 -0.00000000000E+00 -0.16797865122E+01  0.16797885244E+01  0.26000000000E-02 0. -1.
       1023    2    1    2    0    0  0.00000000000E+00  0.00000000000E+00  0.57866149261E+02  0.61225724354E+02  0.20002452160E+02 0.  0.
        -13    1    3    3    0    0 -0.98355095762E+01 -0.18096457245E+01  0.29042770711E+02  0.30716539019E+02  0.10570000000E+00 0. -1.
         13    1    3    3    0    0  0.98355095762E+01  0.18096457245E+01  0.28823378550E+02  0.30509185335E+02  0.10570000000E+00 0.  1.
<mgrwt>
<rscale>  0 0.20002452E+02</rscale>
<asrwt>0</asrwt>
<pdfrwt beam="2">  1        2 0.25842889E-03 0.20002452E+02</pdfrwt>
<pdfrwt beam="1">  1       -2 0.91609120E-02 0.20002452E+02</pdfrwt>
<totfact> 0.32992347E+06</totfact>
</mgrwt>
</event>
<event>
 5    1  0.1607476E-006  0.2000457E+02  0.7818608E-02  0.1745237E+00
         -2   -1    0    0    0  501 -0.00000000000E+00  0.00000000000E+00  0.47389268534E+01  0.47389275666E+01  0.26000000000E-02 0. -1.
          2   -1    0    0  501    0  0.00000000000E+00 -0.00000000000E+00 -0.21111476169E+02  0.21111476329E+02  0.26000000000E-02 0.  1.
       1023    2    1    2    0    0  0.00000000000E+00  0.00000000000E+00 -0.16372549315E+02  0.25850403895E+02  0.20004574739E+02 0.  0.
        -13    1    3    3    0    0 -0.98527232266E+01  0.17164773003E+01 -0.80439489960E+01  0.12835058911E+02  0.10570000000E+00 0. -1.
         13    1    3    3    0    0  0.98527232266E+01 -0.17164773003E+01 -0.83286003194E+01  0.13015344985E+02  0.10570000000E+00 0.  1.
<mgrwt>
<rscale>  0 0.20004575E+02</rscale>
<asrwt>0</asrwt>
<pdfrwt beam="2">  1        2 0.32479194E-02 0.20004575E+02</pdfrwt>
<pdfrwt beam="1">  1       -2 0.72906575E-03 0.20004575E+02</pdfrwt>
<totfact> 0.41858803E+06</totfact>
</mgrwt>
</event>
<event>
 5    1  0.1607476E-006  0.2000122E+02  0.7818608E-02  0.1745304E+00
          2   -1    0    0  501    0  0.00000000000E+00  0.00000000000E+00  0.24871013448E+02  0.24871013584E+02  0.26000000000E-02 0.  1.
         -2   -1    0    0    0  501 -0.00000000000E+00 -0.00000000000E+00 -0.40212343049E+01  0.40212351455E+01  0.26000000000E-02 0. -1.
       1023    2    1    2    0    0  0.00000000000E+00  0.00000000000E+00  0.20849779143E+02  0.28892248729E+02  0.20001218621E+02 0.  0.
        -13    1    3    3    0    0  0.10000032961E+02  0.17941706951E-01  0.10416595691E+02  0.14440139176E+02  0.10570000000E+00 0.  1.
         13    1    3    3    0    0 -0.10000032961E+02 -0.17941706951E-01  0.10433183452E+02  0.14452109554E+02  0.10570000000E+00 0. -1.
<mgrwt>
<rscale>  0 0.20001219E+02</rscale>
<asrwt>0</asrwt>
<pdfrwt beam="1">  1        2 0.38263099E-02 0.20001219E+02</pdfrwt>
<pdfrwt beam="2">  1       -2 0.61865150E-03 0.20001219E+02</pdfrwt>
<totfact> 0.42529059E+06</totfact>
</mgrwt>
</event>
<event>
 4    1  0.1607476E-006  0.2004846E+02  0.7818608E-02  0.1744366E+00
         -2   -1    0    0    0  501 -0.00000000000E+00  0.00000000000E+00  0.25494537674E+02  0.25494537806E+02  0.26000000000E-02 0. -1.
          2   -1    0    0  501    0  0.00000000000E+00 -0.00000000000E+00 -0.39414409534E+01  0.39414418109E+01  0.26000000000E-02 0.  1.
        -13    1    1    2    0    0 -0.34848241503E+01 -0.93747804660E+01  0.97987076945E+01  0.14002012467E+02  0.10570000000E+00 0.  1.
         13    1    1    2    0    0  0.34848241503E+01  0.93747804660E+01  0.11754389026E+02  0.15433967150E+02  0.10570000000E+00 0. -1.
<mgrwt>
<rscale>  0 0.20048464E+02</rscale>
<asrwt>0</asrwt>
<pdfrwt beam="2">  1        2 0.60637559E-03 0.20048464E+02</pdfrwt>
<pdfrwt beam="1">  1       -2 0.39222368E-02 0.20048464E+02</pdfrwt>
<totfact> 0.36449695E+06</totfact>
</mgrwt>
</event>
<event>
 5    1  0.1607476E-006  0.2000341E+02  0.7818608E-02  0.1745260E+00
         -2   -1    0    0    0  501 -0.00000000000E+00  0.00000000000E+00  0.15714921064E+01  0.15714942572E+01  0.26000000000E-02 0. -1.
          2   -1    0    0  501    0  0.00000000000E+00 -0.00000000000E+00 -0.63655435255E+02  0.63655435308E+02  0.26000000000E-02 0.  1.
       1023    2    1    2    0    0  0.00000000000E+00  0.00000000000E+00 -0.62083943148E+02  0.65226929565E+02  0.20003408301E+02 0.  0.
        -13    1    3    3    0    0 -0.17699521794E+01 -0.98432351316E+01 -0.30943884740E+02  0.32520104303E+02  0.10570000000E+00 0. -1.
         13    1    3    3    0    0  0.17699521794E+01  0.98432351316E+01 -0.31140058408E+02  0.32706825262E+02  0.10570000000E+00 0.  1.
<mgrwt>
<rscale>  0 0.20003408E+02</rscale>
<asrwt>0</asrwt>
<pdfrwt beam="2">  1        2 0.97931421E-02 0.20003408E+02</pdfrwt>
<pdfrwt beam="1">  1       -2 0.24176823E-03 0.20003408E+02</pdfrwt>
<totfact> 0.48167994E+06</totfact>
</mgrwt>
</event>
<event>
 4    1  0.1607476E-006  0.2200915E+02  0.7818608E-02  0.1708094E+00
         -2   -1    0    0    0  501 -0.00000000000E+00  0.00000000000E+00  0.19366620455E+02  0.19366620629E+02  0.26000000000E-02 0. -1.
          2   -1    0    0  501    0  0.00000000000E+00 -0.00000000000E+00 -0.62530631711E+01  0.62530637116E+01  0.26000000000E-02 0.  1.
        -13    1    1    2    0    0 -0.53421953231E+01 -0.96063161273E+01  0.59528443182E+01  0.12500715514E+02  0.10570000000E+00 0.  1.
         13    1    1    2    0    0  0.53421953231E+01  0.96063161273E+01  0.71607129657E+01  0.13118968827E+02  0.10570000000E+00 0. -1.
<mgrwt>
<rscale>  0 0.22009154E+02</rscale>
<asrwt>0</asrwt>
<pdfrwt beam="2">  1        2 0.96200980E-03 0.22009154E+02</pdfrwt>
<pdfrwt beam="1">  1       -2 0.29794801E-02 0.22009154E+02</pdfrwt>
<totfact> 0.30448971E+06</totfact>
</mgrwt>
</event>
<event>
 5    1  0.1607476E-006  0.2000300E+02  0.7818608E-02  0.1745268E+00
         -2   -1    0    0    0  501 -0.00000000000E+00  0.00000000000E+00  0.68040414181E+01  0.68040419149E+01  0.26000000000E-02 0. -1.
          2   -1    0    0  501    0  0.00000000000E+00 -0.00000000000E+00 -0.14701550544E+02  0.14701550774E+02  0.26000000000E-02 0.  1.
       1023    2    1    2    0    0  0.00000000000E+00  0.00000000000E+00 -0.78975091260E+01  0.21505592689E+02  0.20002996438E+02 0.  0.
        -13    1    3    3    0    0  0.66533191369E+01  0.74662533524E+01 -0.38575310395E+01  0.10719296286E+02  0.10570000000E+00 0. -1.
         13    1    3    3    0    0 -0.66533191369E+01 -0.74662533524E+01 -0.40399780865E+01  0.10786296403E+02  0.10570000000E+00 0.  1.
<mgrwt>
<rscale>  0 0.20002996E+02</rscale>
<asrwt>0</asrwt>
<pdfrwt beam="2">  1        2 0.22617771E-02 0.20002996E+02</pdfrwt>
<pdfrwt beam="1">  1       -2 0.10467757E-02 0.20002996E+02</pdfrwt>
<totfact> 0.40611380E+06</totfact>
</mgrwt>
</event>
<event>
 5    1  0.1607476E-006  0.2000125E+02  0.7818608E-02  0.1745303E+00
         -2   -1    0    0    0  501 -0.00000000000E+00  0.00000000000E+00  0.39379019222E+02  0.39379019308E+02  0.26000000000E-02 0.  1.
          2   -1    0    0  501    0  0.00000000000E+00 -0.00000000000E+00 -0.25397404709E+01  0.25397418017E+01  0.26000000000E-02 0. -1.
       1023    2    1    2    0    0  0.00000000000E+00  0.00000000000E+00  0.36839278751E+02  0.41918761109E+02  0.20001251812E+02 0.  0.
        -13    1    3    3    0    0  0.50897158797E+01 -0.86079110570E+01  0.18424564250E+02  0.20963708660E+02  0.10570000000E+00 0.  1.
         13    1    3    3    0    0 -0.50897158797E+01  0.86079110570E+01  0.18414714501E+02  0.20955052449E+02  0.10570000000E+00 0. -1.
<mgrwt>
<rscale>  0 0.20001252E+02</rscale>
<asrwt>0</asrwt>
<pdfrwt beam="2">  1        2 0.39072945E-03 0.20001252E+02</pdfrwt>
<pdfrwt beam="1">  1       -2 0.60583102E-02 0.20001252E+02</pdfrwt>
<totfact> 0.34982586E+06</totfact>
</mgrwt>
</event>
<event>
 5    1  0.1607476E-006  0.2000132E+02  0.7818608E-02  0.1745302E+00
         -2   -1    0    0    0  501 -0.00000000000E+00  0.00000000000E+00  0.26904009658E+02  0.26904009784E+02  0.26000000000E-02 0.  1.
          2   -1    0    0  501    0  0.00000000000E+00 -0.00000000000E+00 -0.37174078863E+01  0.37174087955E+01  0.26000000000E-02 0. -1.
       1023    2    1    2    0    0  0.00000000000E+00  0.00000000000E+00  0.23186601772E+02  0.30621418580E+02  0.20001319309E+02 0.  0.
        -13    1    3    3    0    0 -0.44443612777E+01 -0.89581529066E+01  0.11540925447E+02  0.15271050499E+02  0.10570000000E+00 0. -1.
         13    1    3    3    0    0  0.44443612777E+01  0.89581529066E+01  0.11645676325E+02  0.15350368081E+02  0.10570000000E+00 0.  1.
<mgrwt>
<rscale>  0 0.20001319E+02</rscale>
<asrwt>0</asrwt>
<pdfrwt beam="2">  1        2 0.57190903E-03 0.20001319E+02</pdfrwt>
<pdfrwt beam="1">  1       -2 0.41390782E-02 0.20001319E+02</pdfrwt>
<totfact> 0.36450772E+06</totfact>
</mgrwt>
</event>
<event>
 5    1  0.1607476E-006  0.2000139E+02  0.7818608E-02  0.1745301E+00
          2   -1    0    0  501    0  0.00000000000E+00  0.00000000000E+00  0.45635631963E+02  0.45635632037E+02  0.26000000000E-02 0. -1.
         -2   -1    0    0    0  501 -0.00000000000E+00 -0.00000000000E+00 -0.21915732662E+01  0.21915748085E+01  0.26000000000E-02 0.  1.
       1023    2    1    2    0    0  0.00000000000E+00  0.00000000000E+00  0.43444058697E+02  0.47827206846E+02  0.20001386917E+02 0.  0.
        -13    1    3    3    0    0  0.89288640665E+01 -0.45030784717E+01  0.21676163389E+02  0.23871940872E+02  0.10570000000E+00 0.  1.
         13    1    3    3    0    0 -0.89288640665E+01  0.45030784717E+01  0.21767895308E+02  0.23955265974E+02  0.10570000000E+00 0. -1.
<mgrwt>
<rscale>  0 0.20001387E+02</rscale>
<asrwt>0</asrwt>
<pdfrwt beam="1">  1        2 0.70208662E-02 0.20001387E+02</pdfrwt>
<pdfrwt beam="2">  1       -2 0.33716526E-03 0.20001387E+02</pdfrwt>
<totfact> 0.45705042E+06</totfact>
</mgrwt>
</event>
<event>
 4    1  0.1607476E-006  0.2004903E+02  0.7818608E-02  0.1744355E+00
          2   -1    0    0  501    0  0.00000000000E+00  0.00000000000E+00  0.30265578064E+02  0.30265578176E+02  0.26000000000E-02 0.  1.
         -2   -1    0    0    0  501 -0.00000000000E+00 -0.00000000000E+00 -0.33203037474E+01  0.33203047654E+01  0.26000000000E-02 0. -1.
        -13    1    1    2    0    0 -0.25982942932E+01 -0.96813244583E+01  0.13513058962E+02  0.16825371066E+02  0.10570000000E+00 0.  1.
         13    1    1    2    0    0  0.25982942932E+01  0.96813244583E+01  0.13432215355E+02  0.16760511876E+02  0.10570000000E+00 0. -1.
<mgrwt>
<rscale>  0 0.20049033E+02</rscale>
<asrwt>0</asrwt>
<pdfrwt beam="1">  1        2 0.46562428E-02 0.20049033E+02</pdfrwt>
<pdfrwt beam="2">  1       -2 0.51081606E-03 0.20049033E+02</pdfrwt>
<totfact> 0.43177661E+06</totfact>
</mgrwt>
</event>
<event>
 4    1  0.1607476E-006  0.2001675E+02  0.7818608E-02  0.1744995E+00
          2   -1    0    0  501    0  0.00000000000E+00  0.00000000000E+00  0.18024167314E+01  0.18024186066E+01  0.26000000000E-02 0. -1.
         -2   -1    0    0    0  501 -0.00000000000E+00 -0.00000000000E+00 -0.55574004900E+02  0.55574004961E+02  0.26000000000E-02 0.  1.
        -13    1    1    2    0    0  0.24375384442E+01  0.97062450721E+01 -0.26713516545E+02  0.28526758066E+02  0.10570000000E+00 0. -1.
         13    1    1    2    0    0 -0.24375384442E+01 -0.97062450721E+01 -0.27058071623E+02  0.28849665501E+02  0.10570000000E+00 0.  1.
<mgrwt>
<rscale>  0 0.20016750E+02</rscale>
<asrwt>0</asrwt>
<pdfrwt beam="1">  1        2 0.27729507E-03 0.20016750E+02</pdfrwt>
<pdfrwt beam="2">  1       -2 0.85498457E-02 0.20016750E+02</pdfrwt>
<totfact> 0.33305957E+06</totfact>
</mgrwt>
</event>
<event>
 5    1  0.1607476E-006  0.2000880E+02  0.7818608E-02  0.1745153E+00
         -2   -1    0    0    0  501 -0.00000000000E+00  0.00000000000E+00  0.23375250242E+01  0.23375264702E+01  0.26000000000E-02 0. -1.
          2   -1    0    0  501    0  0.00000000000E+00 -0.00000000000E+00 -0.42817912458E+02  0.42817912537E+02  0.26000000000E-02 0.  1.
       1023    2    1    2    0    0  0.00000000000E+00  0.00000000000E+00 -0.40480387434E+02  0.45155439007E+02  0.20008795694E+02 0.  0.
        -13    1    3    3    0    0 -0.26728067035E+01 -0.96367400224E+01 -0.20820628717E+02  0.23098060667E+02  0.10570000000E+00 0.  1.
         13    1    3    3    0    0  0.26728067035E+01  0.96367400224E+01 -0.19659758717E+02  0.22057378340E+02  0.10570000000E+00 0. -1.
<mgrwt>
<rscale>  0 0.20008796E+02</rscale>
<asrwt>0</asrwt>
<pdfrwt beam="2">  1        2 0.65873707E-02 0.20008796E+02</pdfrwt>
<pdfrwt beam="1">  1       -2 0.35961938E-03 0.20008796E+02</pdfrwt>
<totfact> 0.45262918E+06</totfact>
</mgrwt>
</event>
<event>
 5    1  0.1607476E-006  0.2000369E+02  0.7818608E-02  0.1745255E+00
         -2   -1    0    0    0  501 -0.00000000000E+00  0.00000000000E+00  0.22647995610E+02  0.22647995759E+02  0.26000000000E-02 0.  1.
          2   -1    0    0  501    0  0.00000000000E+00 -0.00000000000E+00 -0.44170285627E+01  0.44170293280E+01  0.26000000000E-02 0. -1.
       1023    2    1    2    0    0  0.00000000000E+00  0.00000000000E+00  0.18230967047E+02  0.27065025087E+02  0.20003685248E+02 0.  0.
        -13    1    3    3    0    0 -0.74590817212E+01  0.66616629331E+01  0.89799789980E+01  0.13441236865E+02  0.10570000000E+00 0. -1.
         13    1    3    3    0    0  0.74590817212E+01 -0.66616629331E+01  0.92509880495E+01  0.13623788223E+02  0.10570000000E+00 0.  1.
<mgrwt>
<rscale>  0 0.20003685E+02</rscale>
<asrwt>0</asrwt>
<pdfrwt beam="2">  1        2 0.67954292E-03 0.20003685E+02</pdfrwt>
<pdfrwt beam="1">  1       -2 0.34843071E-02 0.20003685E+02</pdfrwt>
<totfact> 0.37022597E+06</totfact>
</mgrwt>
</event>
<event>
 4    1  0.1607476E-006  0.2002156E+02  0.7818608E-02  0.1744900E+00
         -2   -1    0    0    0  501 -0.00000000000E+00  0.00000000000E+00  0.19219878944E+01  0.19219896530E+01  0.26000000000E-02 0. -1.
          2   -1    0    0  501    0  0.00000000000E+00 -0.00000000000E+00 -0.52141666869E+02  0.52141666934E+02  0.26000000000E-02 0.  1.
        -13    1    1    2    0    0 -0.83783302822E+01 -0.54689455464E+01 -0.24261310986E+02  0.26243630979E+02  0.10570000000E+00 0. -1.
         13    1    1    2    0    0  0.83783302822E+01  0.54689455464E+01 -0.25958367988E+02  0.27820025607E+02  0.10570000000E+00 0.  1.
<mgrwt>
<rscale>  0 0.20021559E+02</rscale>
<asrwt>0</asrwt>
<pdfrwt beam="2">  1        2 0.80217940E-02 0.20021559E+02</pdfrwt>
<pdfrwt beam="1">  1       -2 0.29569062E-03 0.20021559E+02</pdfrwt>
<totfact> 0.46514311E+06</totfact>
</mgrwt>
</event>
<event>
 5    1  0.1607476E-006  0.2000529E+02  0.7818608E-02  0.1745223E+00
          2   -1    0    0  501    0  0.00000000000E+00  0.00000000000E+00  0.49156144961E+02  0.49156145030E+02  0.26000000000E-02 0.  1.
         -2   -1    0    0    0  501 -0.00000000000E+00 -0.00000000000E+00 -0.20354091821E+01  0.20354108427E+01  0.26000000000E-02 0. -1.
       1023    2    1    2    0    0  0.00000000000E+00  0.00000000000E+00  0.47120735779E+02  0.51191555872E+02  0.20005290608E+02 0.  0.
        -13    1    3    3    0    0 -0.48105340580E+01  0.87685180988E+01  0.23262027982E+02  0.25321162412E+02  0.10570000000E+00 0. -1.
         13    1    3    3    0    0  0.48105340580E+01 -0.87685180988E+01  0.23858707797E+02  0.25870393461E+02  0.10570000000E+00 0.  1.
<mgrwt>
<rscale>  0 0.20005291E+02</rscale>
<asrwt>0</asrwt>
<pdfrwt beam="1">  1        2 0.75624841E-02 0.20005291E+02</pdfrwt>
<pdfrwt beam="2">  1       -2 0.31314000E-03 0.20005291E+02</pdfrwt>
<totfact> 0.46182751E+06</totfact>
</mgrwt>
</event>
<event>
 4    1  0.1607476E-006  0.2015912E+02  0.7818608E-02  0.1742182E+00
         -2   -1    0    0    0  501 -0.00000000000E+00  0.00000000000E+00  0.42995870124E+02  0.42995870203E+02  0.26000000000E-02 0.  1.
          2   -1    0    0  501    0  0.00000000000E+00 -0.00000000000E+00 -0.23629592808E+01  0.23629607112E+01  0.26000000000E-02 0. -1.
        -13    1    1    2    0    0 -0.46714784669E+01  0.88497307743E+01  0.17610875554E+02  0.20255728970E+02  0.10570000000E+00 0.  1.
         13    1    1    2    0    0  0.46714784669E+01 -0.88497307743E+01  0.23022035289E+02  0.25103101944E+02  0.10570000000E+00 0. -1.
<mgrwt>
<rscale>  0 0.20159119E+02</rscale>
<asrwt>0</asrwt>
<pdfrwt beam="2">  1        2 0.36353234E-03 0.20159119E+02</pdfrwt>
<pdfrwt beam="1">  1       -2 0.66147489E-02 0.20159119E+02</pdfrwt>
<totfact> 0.34009733E+06</totfact>
</mgrwt>
</event>
<event>
 5    1  0.1607476E-006  0.2000248E+02  0.7818608E-02  0.1745279E+00
          2   -1    0    0  501    0  0.00000000000E+00  0.00000000000E+00  0.17408122598E+01  0.17408142015E+01  0.26000000000E-02 0.  1.
         -2   -1    0    0    0  501 -0.00000000000E+00 -0.00000000000E+00 -0.57458643168E+02  0.57458643227E+02  0.26000000000E-02 0. -1.
       1023    2    1    2    0    0  0.00000000000E+00  0.00000000000E+00 -0.55717830908E+02  0.59199457429E+02  0.20002476814E+02 0.  0.
        -13    1    3    3    0    0 -0.85114097723E+01 -0.52506310682E+01 -0.27801659657E+02  0.29545840233E+02  0.10570000000E+00 0.  1.
         13    1    3    3    0    0  0.85114097723E+01  0.52506310682E+01 -0.27916171251E+02  0.29653617195E+02  0.10570000000E+00 0. -1.
<mgrwt>
<rscale>  0 0.20002477E+02</rscale>
<asrwt>0</asrwt>
<pdfrwt beam="1">  1        2 0.26781747E-03 0.20002477E+02</pdfrwt>
<pdfrwt beam="2">  1       -2 0.88397899E-02 0.20002477E+02</pdfrwt>
<totfact> 0.33183260E+06</totfact>
</mgrwt>
</event>
<event>
 5    1  0.1607476E-006  0.2000147E+02  0.7818608E-02  0.1745299E+00
          2   -1    0    0  501    0  0.00000000000E+00  0.00000000000E+00  0.49757048132E+02  0.49757048200E+02  0.26000000000E-02 0. -1.
         -2   -1    0    0    0  501 -0.00000000000E+00 -0.00000000000E+00 -0.20100593148E+01  0.20100609964E+01  0.26000000000E-02 0.  1.
       1023    2    1    2    0    0  0.00000000000E+00  0.00000000000E+00  0.47746988818E+02  0.51767109197E+02  0.20001466282E+02 0.  0.
        -13    1    3    3    0    0 -0.72365564759E+01 -0.69018512676E+01  0.23837788854E+02  0.25850621859E+02  0.10570000000E+00 0. -1.
         13    1    3    3    0    0  0.72365564759E+01  0.69018512676E+01  0.23909199964E+02  0.25916487338E+02  0.10570000000E+00 0.  1.
<mgrwt>
<rscale>  0 0.20001466E+02</rscale>
<asrwt>0</asrwt>
<pdfrwt beam="1">  1        2 0.76549299E-02 0.20001466E+02</pdfrwt>
<pdfrwt beam="2">  1       -2 0.30924006E-03 0.20001466E+02</pdfrwt>
<totfact> 0.46286584E+06</totfact>
</mgrwt>
</event>
<event>
 4    1  0.1607476E-006  0.2001760E+02  0.7818608E-02  0.1744978E+00
          2   -1    0    0  501    0  0.00000000000E+00  0.00000000000E+00  0.10302652034E+03  0.10302652037E+03  0.26000000000E-02 0.  1.
         -2   -1    0    0    0  501 -0.00000000000E+00 -0.00000000000E+00 -0.97233153510E+00  0.97233501127E+00  0.26000000000E-02 0. -1.
        -13    1    1    2    0    0 -0.37548971593E+01 -0.92720549256E+01  0.49428393506E+02  0.50430620781E+02  0.10570000000E+00 0.  1.
         13    1    1    2    0    0  0.37548971593E+01  0.92720549256E+01  0.52625795297E+02  0.53568234602E+02  0.10570000000E+00 0. -1.
<mgrwt>
<rscale>  0 0.20017604E+02</rscale>
<asrwt>0</asrwt>
<pdfrwt beam="1">  1        2 0.15850231E-01 0.20017604E+02</pdfrwt>
<pdfrwt beam="2">  1       -2 0.14958977E-03 0.20017604E+02</pdfrwt>
<totfact> 0.53015982E+06</totfact>
</mgrwt>
</event>
<event>
 5    1  0.1607476E-006  0.2000880E+02  0.7818608E-02  0.1745153E+00
          2   -1    0    0  501    0  0.00000000000E+00  0.00000000000E+00  0.45449617093E+02  0.45449617167E+02  0.26000000000E-02 0. -1.
         -2   -1    0    0    0  501 -0.00000000000E+00 -0.00000000000E+00 -0.22021752828E+01  0.22021768176E+01  0.26000000000E-02 0.  1.
       1023    2    1    2    0    0  0.00000000000E+00  0.00000000000E+00  0.43247441810E+02  0.47651793985E+02  0.20008804233E+02 0.  0.
        -13    1    3    3    0    0  0.87002069878E+01  0.49345803157E+01  0.21189752711E+02  0.23432039539E+02  0.10570000000E+00 0. -1.
         13    1    3    3    0    0 -0.87002069878E+01 -0.49345803157E+01  0.22057689099E+02  0.24219754445E+02  0.10570000000E+00 0.  1.
<mgrwt>
<rscale>  0 0.20008804E+02</rscale>
<asrwt>0</asrwt>
<pdfrwt beam="1">  1        2 0.69922487E-02 0.20008804E+02</pdfrwt>
<pdfrwt beam="2">  1       -2 0.33879633E-03 0.20008804E+02</pdfrwt>
<totfact> 0.45640753E+06</totfact>
</mgrwt>
</event>
<event>
 5    1  0.1607476E-006  0.2000225E+02  0.7818608E-02  0.1745283E+00
          2   -1    0    0  501    0  0.00000000000E+00  0.00000000000E+00  0.42663949551E+01  0.42663957473E+01  0.26000000000E-02 0.  1.
         -2   -1    0    0    0  501 -0.00000000000E+00 -0.00000000000E+00 -0.23444271961E+02  0.23444272105E+02  0.26000000000E-02 0. -1.
       1023    2    1    2    0    0  0.00000000000E+00  0.00000000000E+00 -0.19177877006E+02  0.27710667853E+02  0.20002253533E+02 0.  0.
        -13    1    3    3    0    0 -0.80706199726E+01  0.59053732793E+01 -0.95127579344E+01  0.13802611214E+02  0.10570000000E+00 0. -1.
         13    1    3    3    0    0  0.80706199726E+01 -0.59053732793E+01 -0.96651190718E+01  0.13908056639E+02  0.10570000000E+00 0.  1.
<mgrwt>
<rscale>  0 0.20002254E+02</rscale>
<asrwt>0</asrwt>
<pdfrwt beam="1">  1        2 0.65636854E-03 0.20002254E+02</pdfrwt>
<pdfrwt beam="2">  1       -2 0.36068111E-02 0.20002254E+02</pdfrwt>
<totfact> 0.36914970E+06</totfact>
</mgrwt>
</event>
<event>
 4    1  0.1607476E-006  0.2003459E+02  0.7818608E-02  0.1744641E+00
         -2   -1    0    0    0  501 -0.00000000000E+00  0.00000000000E+00  0.11564163730E+02  0.11564164022E+02  0.26000000000E-02 0.  1.
          2   -1    0    0  501    0  0.00000000000E+00 -0.00000000000E+00 -0.86773439877E+01  0.86773443772E+01  0.26000000000E-02 0. -1.
        -13    1    1    2    0    0 -0.94372824893E+01 -0.33396247079E+01  0.17929118433E+01  0.10170599753E+02  0.10570000000E+00 0.  1.
         13    1    1    2    0    0  0.94372824893E+01  0.33396247079E+01  0.10939078987E+01  0.10070908646E+02  0.10570000000E+00 0. -1.
<mgrwt>
<rscale>  0 0.20034593E+02</rscale>
<asrwt>0</asrwt>
<pdfrwt beam="2">  1        2 0.13349761E-02 0.20034593E+02</pdfrwt>
<pdfrwt beam="1">  1       -2 0.17791022E-02 0.20034593E+02</pdfrwt>
<totfact> 0.38901131E+06</totfact>
</mgrwt>
</event>
<event>
 5    1  0.1607476E-006  0.2000433E+02  0.7818608E-02  0.1745242E+00
         -2   -1    0    0    0  501 -0.00000000000E+00  0.00000000000E+00  0.89309794344E+01  0.89309798129E+01  0.26000000000E-02 0. -1.
          2   -1    0    0  501    0  0.00000000000E+00 -0.00000000000E+00 -0.11201827338E+02  0.11201827639E+02  0.26000000000E-02 0.  1.
       1023    2    1    2    0    0  0.00000000000E+00  0.00000000000E+00 -0.22708479033E+01  0.20132807452E+02  0.20004329174E+02 0.  0.
        -13    1    3    3    0    0 -0.82857933970E+01  0.56002767627E+01 -0.12572464084E+01  0.10080144496E+02  0.10570000000E+00 0.  1.
         13    1    3    3    0    0  0.82857933970E+01 -0.56002767627E+01 -0.10136014949E+01  0.10052662956E+02  0.10570000000E+00 0. -1.
<mgrwt>
<rscale>  0 0.20004329E+02</rscale>
<asrwt>0</asrwt>
<pdfrwt beam="2">  1        2 0.17233581E-02 0.20004329E+02</pdfrwt>
<pdfrwt beam="1">  1       -2 0.13739969E-02 0.20004329E+02</pdfrwt>
<totfact> 0.39774709E+06</totfact>
</mgrwt>
</event>
<event>
 5    1  0.1607476E-006  0.2000257E+02  0.7818608E-02  0.1745277E+00
          2   -1    0    0  501    0  0.00000000000E+00  0.00000000000E+00  0.97462792911E+01  0.97462796379E+01  0.26000000000E-02 0. -1.
         -2   -1    0    0    0  501 -0.00000000000E+00 -0.00000000000E+00 -0.10262958311E+02  0.10262958641E+02  0.26000000000E-02 0.  1.
       1023    2    1    2    0    0  0.00000000000E+00  0.00000000000E+00 -0.51667902026E+00  0.20009238279E+02  0.20002566317E+02 0.  0.
        -13    1    3    3    0    0 -0.59560232578E+01 -0.80335292572E+01 -0.20648635833E+00  0.10003280186E+02  0.10570000000E+00 0.  1.
         13    1    3    3    0    0  0.59560232578E+01  0.80335292572E+01 -0.31019266194E+00  0.10005958093E+02  0.10570000000E+00 0. -1.
<mgrwt>
<rscale>  0 0.20002566E+02</rscale>
<asrwt>0</asrwt>
<pdfrwt beam="1">  1        2 0.14994276E-02 0.20002566E+02</pdfrwt>
<pdfrwt beam="2">  1       -2 0.15789167E-02 0.20002566E+02</pdfrwt>
<totfact> 0.39377410E+06</totfact>
</mgrwt>
</event>
<event>
 5    1  0.1607476E-006  0.2000158E+02  0.7818608E-02  0.1745297E+00
          2   -1    0    0  501    0  0.00000000000E+00  0.00000000000E+00  0.24807080763E+02  0.24807080899E+02  0.26000000000E-02 0.  1.
         -2   -1    0    0    0  501 -0.00000000000E+00 -0.00000000000E+00 -0.40317438046E+01  0.40317446429E+01  0.26000000000E-02 0. -1.
       1023    2    1    2    0    0  0.00000000000E+00  0.00000000000E+00  0.20775336958E+02  0.28838825542E+02  0.20001580760E+02 0.  0.
        -13    1    3    3    0    0 -0.99948314404E+01  0.32723604491E+00  0.10430846039E+02  0.14450517656E+02  0.10570000000E+00 0. -1.
         13    1    3    3    0    0  0.99948314404E+01 -0.32723604491E+00  0.10344490919E+02  0.14388307886E+02  0.10570000000E+00 0.  1.
<mgrwt>
<rscale>  0 0.20001581E+02</rscale>
<asrwt>0</asrwt>
<pdfrwt beam="1">  1        2 0.38164741E-02 0.20001581E+02</pdfrwt>
<pdfrwt beam="2">  1       -2 0.62026834E-03 0.20001581E+02</pdfrwt>
<totfact> 0.42516525E+06</totfact>
</mgrwt>
</event>
<event>
 5    1  0.1607476E-006  0.2000254E+02  0.7818608E-02  0.1745278E+00
         -2   -1    0    0    0  501 -0.00000000000E+00  0.00000000000E+00  0.33564421189E+02  0.33564421290E+02  0.26000000000E-02 0.  1.
          2   -1    0    0  501    0  0.00000000000E+00 -0.00000000000E+00 -0.29801003551E+01  0.29801014893E+01  0.26000000000E-02 0. -1.
       1023    2    1    2    0    0  0.00000000000E+00  0.00000000000E+00  0.30584320834E+02  0.36544522779E+02  0.20002536446E+02 0.  0.
        -13    1    3    3    0    0 -0.74912635997E+01 -0.66253423016E+01  0.15289189692E+02  0.18269775172E+02  0.10570000000E+00 0.  1.
         13    1    3    3    0    0  0.74912635997E+01  0.66253423016E+01  0.15295131142E+02  0.18274747606E+02  0.10570000000E+00 0. -1.
<mgrwt>
<rscale>  0 0.20002536E+02</rscale>
<asrwt>0</asrwt>
<pdfrwt beam="2">  1        2 0.45847707E-03 0.20002536E+02</pdfrwt>
<pdfrwt beam="1">  1       -2 0.51637572E-02 0.20002536E+02</pdfrwt>
<totfact> 0.35628360E+06</totfact>
</mgrwt>
</event>
<event>
 5    1  0.1607476E-006  0.2000422E+02  0.7818608E-02  0.1745244E+00
          2   -1    0    0  501    0  0.00000000000E+00  0.00000000000E+00  0.54048440176E+01  0.54048446430E+01  0.26000000000E-02 0. -1.
         -2   -1    0    0    0  501 -0.00000000000E+00 -0.00000000000E+00 -0.18509732967E+02  0.18509733150E+02  0.26000000000E-02 0.  1.
       1023    2    1    2    0    0  0.00000000000E+00  0.00000000000E+00 -0.13104888950E+02  0.23914577793E+02  0.20004222470E+02 0.  0.
        -13    1    3    3    0    0  0.73713680904E+01 -0.67596909120E+01 -0.65809339161E+01  0.11972900753E+02  0.10570000000E+00 0. -1.
         13    1    3    3    0    0 -0.73713680904E+01  0.67596909120E+01 -0.65239550336E+01  0.11941677040E+02  0.10570000000E+00 0.  1.
<mgrwt>
<rscale>  0 0.20004222E+02</rscale>
<asrwt>0</asrwt>
<pdfrwt beam="1">  1        2 0.83151454E-03 0.20004222E+02</pdfrwt>
<pdfrwt beam="2">  1       -2 0.28476513E-02 0.20004222E+02</pdfrwt>
<totfact> 0.37655505E+06</totfact>
</mgrwt>
</event>
<event>
 5    1  0.1607476E-006  0.2001034E+02  0.7818608E-02  0.1745123E+00
          2   -1    0    0  501    0  0.00000000000E+00  0.00000000000E+00  0.12372710102E+02  0.12372710375E+02  0.26000000000E-02 0. -1.
         -2   -1    0    0    0  501 -0.00000000000E+00 -0.00000000000E+00 -0.80906596780E+01  0.80906600958E+01  0.26000000000E-02 0.  1.
       1023    2    1    2    0    0  0.00000000000E+00  0.00000000000E+00  0.42820504239E+01  0.20463370471E+02  0.20010336709E+02 0.  0.
        -13    1    3    3    0    0  0.52511736728E+01 -0.85126885397E+01  0.23731671781E+01  0.10280261965E+02  0.10570000000E+00 0. -1.
         13    1    3    3    0    0 -0.52511736728E+01  0.85126885397E+01  0.19088832458E+01  0.10183108506E+02  0.10570000000E+00 0.  1.
<mgrwt>
<rscale>  0 0.20010337E+02</rscale>
<asrwt>0</asrwt>
<pdfrwt beam="1">  1        2 0.19034939E-02 0.20010337E+02</pdfrwt>
<pdfrwt beam="2">  1       -2 0.12447169E-02 0.20010337E+02</pdfrwt>
<totfact> 0.40043630E+06</totfact>
</mgrwt>
</event>
<event>
 5    1  0.1607476E-006  0.2000888E+02  0.7818608E-02  0.1745151E+00
          2   -1    0    0  501    0  0.00000000000E+00  0.00000000000E+00  0.19891738472E+02  0.19891738642E+02  0.26000000000E-02 0. -1.
         -2   -1    0    0    0  501 -0.00000000000E+00 -0.00000000000E+00 -0.50316795514E+01  0.50316802232E+01  0.26000000000E-02 0.  1.
       1023    2    1    2    0    0  0.00000000000E+00  0.00000000000E+00  0.14860058921E+02  0.24923418865E+02  0.20008884447E+02 0.  0.
        -13    1    3    3    0    0  0.50794803849E+01 -0.86182382284E+01  0.73672452598E+01  0.12424275687E+02  0.10570000000E+00 0.  1.
         13    1    3    3    0    0 -0.50794803849E+01  0.86182382284E+01  0.74928136611E+01  0.12499143178E+02  0.10570000000E+00 0. -1.
<mgrwt>
<rscale>  0 0.20008884E+02</rscale>
<asrwt>0</asrwt>
<pdfrwt beam="1">  1        2 0.30602675E-02 0.20008884E+02</pdfrwt>
<pdfrwt beam="2">  1       -2 0.77410462E-03 0.20008884E+02</pdfrwt>
<totfact> 0.41616327E+06</totfact>
</mgrwt>
</event>
<event>
 5    1  0.1607476E-006  0.2000181E+02  0.7818608E-02  0.1745292E+00
          2   -1    0    0  501    0  0.00000000000E+00  0.00000000000E+00  0.30631531739E+02  0.30631531849E+02  0.26000000000E-02 0. -1.
         -2   -1    0    0    0  501 -0.00000000000E+00 -0.00000000000E+00 -0.32652016218E+01  0.32652026570E+01  0.26000000000E-02 0.  1.
       1023    2    1    2    0    0  0.00000000000E+00  0.00000000000E+00  0.27366330117E+02  0.33896734506E+02  0.20001814571E+02 0.  0.
        -13    1    3    3    0    0  0.40248960665E+01  0.91545487316E+01  0.13747097825E+02  0.16999982998E+02  0.10570000000E+00 0. -1.
         13    1    3    3    0    0 -0.40248960665E+01 -0.91545487316E+01  0.13619232292E+02  0.16896751509E+02  0.10570000000E+00 0.  1.
<mgrwt>
<rscale>  0 0.20001815E+02</rscale>
<asrwt>0</asrwt>
<pdfrwt beam="1">  1        2 0.47125435E-02 0.20001815E+02</pdfrwt>
<pdfrwt beam="2">  1       -2 0.50233879E-03 0.20001815E+02</pdfrwt>
<totfact> 0.43464297E+06</totfact>
</mgrwt>
</event>
<event>
 4    1  0.1607476E-006  0.2009701E+02  0.7818608E-02  0.1743406E+00
         -2   -1    0    0    0  501 -0.00000000000E+00  0.00000000000E+00  0.15374511335E+02  0.15374511555E+02  0.26000000000E-02 0. -1.
          2   -1    0    0  501    0  0.00000000000E+00 -0.00000000000E+00 -0.65675212243E+01  0.65675217390E+01  0.26000000000E-02 0.  1.
        -13    1    1    2    0    0 -0.77636953538E+01  0.63755527484E+01  0.46180750082E+01  0.11057143739E+02  0.10570000000E+00 0.  1.
         13    1    1    2    0    0  0.77636953538E+01 -0.63755527484E+01  0.41889151026E+01  0.10884889555E+02  0.10570000000E+00 0. -1.
<mgrwt>
<rscale>  0 0.20097008E+02</rscale>
<asrwt>0</asrwt>
<pdfrwt beam="2">  1        2 0.10103879E-02 0.20097008E+02</pdfrwt>
<pdfrwt beam="1">  1       -2 0.23653095E-02 0.20097008E+02</pdfrwt>
<totfact> 0.37828141E+06</totfact>
</mgrwt>
</event>
<event>
 5    1  0.1607476E-006  0.2001140E+02  0.7818608E-02  0.1745102E+00
         -2   -1    0    0    0  501 -0.00000000000E+00  0.00000000000E+00  0.93100897348E+02  0.93100897385E+02  0.26000000000E-02 0.  1.
          2   -1    0    0  501    0  0.00000000000E+00 -0.00000000000E+00 -0.10753263919E+01  0.10753295351E+01  0.26000000000E-02 0. -1.
       1023    2    1    2    0    0  0.00000000000E+00  0.00000000000E+00  0.92025570956E+02  0.94176226920E+02  0.20011396927E+02 0.  0.
        -13    1    3    3    0    0  0.17396898900E+01 -0.98479063843E+01  0.47463679867E+02  0.48505874490E+02  0.10570000000E+00 0.  1.
         13    1    3    3    0    0 -0.17396898900E+01  0.98479063843E+01  0.44561891090E+02  0.45670352429E+02  0.10570000000E+00 0. -1.
<mgrwt>
<rscale>  0 0.20011397E+02</rscale>
<asrwt>0</asrwt>
<pdfrwt beam="2">  1        2 0.16543501E-03 0.20011397E+02</pdfrwt>
<pdfrwt beam="1">  1       -2 0.14323220E-01 0.20011397E+02</pdfrwt>
<totfact> 0.30202911E+06</totfact>
</mgrwt>
</event>
<event>
 5    1  0.1607476E-006  0.2000436E+02  0.7818608E-02  0.1745241E+00
          2   -1    0    0  501    0  0.00000000000E+00  0.00000000000E+00  0.18735083553E+02  0.18735083733E+02  0.26000000000E-02 0.  1.
         -2   -1    0    0    0  501 -0.00000000000E+00 -0.00000000000E+00 -0.53399057579E+01  0.53399063908E+01  0.26000000000E-02 0. -1.
       1023    2    1    2    0    0  0.00000000000E+00  0.00000000000E+00  0.13395177795E+02  0.24074990124E+02  0.20004358558E+02 0.  0.
        -13    1    3    3    0    0 -0.97857027778E+01  0.20643707060E+01  0.68227317344E+01  0.12107123774E+02  0.10570000000E+00 0.  1.
         13    1    3    3    0    0  0.97857027778E+01 -0.20643707060E+01  0.65724460606E+01  0.11967866350E+02  0.10570000000E+00 0. -1.
<mgrwt>
<rscale>  0 0.20004359E+02</rscale>
<asrwt>0</asrwt>
<pdfrwt beam="1">  1        2 0.28823206E-02 0.20004359E+02</pdfrwt>
<pdfrwt beam="2">  1       -2 0.82152403E-03 0.20004359E+02</pdfrwt>
<totfact> 0.41420958E+06</totfact>
</mgrwt>
</event>
<event>
 5    1  0.1607476E-006  0.2000135E+02  0.7818608E-02  0.1745301E+00
         -2   -1    0    0    0  501 -0.00000000000E+00  0.00000000000E+00  0.10483741263E+02  0.10483741585E+02  0.26000000000E-02 0.  1.
          2   -1    0    0  501    0  0.00000000000E+00 -0.00000000000E+00 -0.95398672561E+01  0.95398676104E+01  0.26000000000E-02 0. -1.
       1023    2    1    2    0    0  0.00000000000E+00  0.00000000000E+00  0.94387400694E+00  0.20023609196E+02  0.20001350632E+02 0.  0.
        -13    1    3    3    0    0  0.81368626881E+01 -0.58132419037E+01  0.47623653135E+00  0.10012007269E+02  0.10570000000E+00 0.  1.
         13    1    3    3    0    0 -0.81368626881E+01  0.58132419037E+01  0.46763747559E+00  0.10011601927E+02  0.10570000000E+00 0. -1.
<mgrwt>
<rscale>  0 0.20001351E+02</rscale>
<asrwt>0</asrwt>
<pdfrwt beam="2">  1        2 0.14676720E-02 0.20001351E+02</pdfrwt>
<pdfrwt beam="1">  1       -2 0.16128833E-02 0.20001351E+02</pdfrwt>
<totfact> 0.39321246E+06</totfact>
</mgrwt>
</event>
<event>
 5    1  0.1607476E-006  0.2000592E+02  0.7818608E-02  0.1745210E+00
          2   -1    0    0  501    0  0.00000000000E+00  0.00000000000E+00  0.41183532036E+01  0.41183540243E+01  0.26000000000E-02 0. -1.
         -2   -1    0    0    0  501 -0.00000000000E+00 -0.00000000000E+00 -0.24295916291E+02  0.24295916431E+02  0.26000000000E-02 0.  1.
       1023    2    1    2    0    0  0.00000000000E+00  0.00000000000E+00 -0.20177563088E+02  0.28414270455E+02  0.20005916958E+02 0.  0.
        -13    1    3    3    0    0  0.88591407132E+01  0.46432793303E+01 -0.10173865566E+02  0.14267555157E+02  0.10570000000E+00 0.  1.
         13    1    3    3    0    0 -0.88591407132E+01 -0.46432793303E+01 -0.10003697522E+02  0.14146715297E+02  0.10570000000E+00 0. -1.
<mgrwt>
<rscale>  0 0.20005917E+02</rscale>
<asrwt>0</asrwt>
<pdfrwt beam="1">  1        2 0.63359289E-03 0.20005917E+02</pdfrwt>
<pdfrwt beam="2">  1       -2 0.37378333E-02 0.20005917E+02</pdfrwt>
<totfact> 0.36781597E+06</totfact>
</mgrwt>
</event>
<event>
 5    1  0.1607476E-006  0.2000514E+02  0.7818608E-02  0.1745226E+00
         -2   -1    0    0    0  501 -0.00000000000E+00  0.00000000000E+00  0.35753718707E+02  0.35753718801E+02  0.26000000000E-02 0. -1.
          2   -1    0    0  501    0  0.00000000000E+00 -0.00000000000E+00 -0.27983497527E+01  0.27983509605E+01  0.26000000000E-02 0.  1.
       1023    2    1    2    0    0  0.00000000000E+00  0.00000000000E+00  0.32955368954E+02  0.38552069762E+02  0.20005142839E+02 0.  0.
        -13    1    3    3    0    0 -0.30347259768E+01  0.95295164278E+01  0.16743439682E+02  0.19503209735E+02  0.10570000000E+00 0.  1.
         13    1    3    3    0    0  0.30347259768E+01 -0.95295164278E+01  0.16211929272E+02  0.19048860027E+02  0.10570000000E+00 0. -1.
<mgrwt>
<rscale>  0 0.20005143E+02</rscale>
<asrwt>0</asrwt>
<pdfrwt beam="2">  1        2 0.43051543E-03 0.20005143E+02</pdfrwt>
<pdfrwt beam="1">  1       -2 0.55005724E-02 0.20005143E+02</pdfrwt>
<totfact> 0.35367578E+06</totfact>
</mgrwt>
</event>
<event>
 5    1  0.1607476E-006  0.2000186E+02  0.7818608E-02  0.1745291E+00
          2   -1    0    0  501    0  0.00000000000E+00  0.00000000000E+00  0.11779982130E+01  0.11780010823E+01  0.26000000000E-02 0. -1.
         -2   -1    0    0    0  501 -0.00000000000E+00 -0.00000000000E+00 -0.84905416192E+02  0.84905416231E+02  0.26000000000E-02 0.  1.
       1023    2    1    2    0    0  0.00000000000E+00  0.00000000000E+00 -0.83727417979E+02  0.86083417314E+02  0.20001855290E+02 0.  0.
        -13    1    3    3    0    0  0.54226849913E+01 -0.84024712864E+01 -0.41943652081E+02  0.43119463803E+02  0.10570000000E+00 0.  1.
         13    1    3    3    0    0 -0.54226849913E+01  0.84024712864E+01 -0.41783765897E+02  0.42963953511E+02  0.10570000000E+00 0. -1.
<mgrwt>
<rscale>  0 0.20001855E+02</rscale>
<asrwt>0</asrwt>
<pdfrwt beam="1">  1        2 0.18123078E-03 0.20001855E+02</pdfrwt>
<pdfrwt beam="2">  1       -2 0.13062367E-01 0.20001855E+02</pdfrwt>
<totfact> 0.30862990E+06</totfact>
</mgrwt>
</event>
<event>
 4    1  0.1607476E-006  0.2739768E+02  0.7818608E-02  0.1628774E+00
         -2   -1    0    0    0  501 -0.00000000000E+00  0.00000000000E+00  0.16986570739E+01  0.16986590637E+01  0.26000000000E-02 0.  1.
          2   -1    0    0  501    0  0.00000000000E+00 -0.00000000000E+00 -0.11047436436E+03  0.11047436439E+03  0.26000000000E-02 0. -1.
        -13    1    1    2    0    0  0.13680842944E+02  0.43805642751E+00 -0.52184383664E+02  0.53949776904E+02  0.10570000000E+00 0.  1.
         13    1    1    2    0    0 -0.13680842944E+02 -0.43805642751E+00 -0.56591323624E+02  0.58223246552E+02  0.10570000000E+00 0. -1.
<mgrwt>
<rscale>  0 0.27397677E+02</rscale>
<asrwt>0</asrwt>
<pdfrwt beam="2">  1        2 0.16996051E-01 0.27397677E+02</pdfrwt>
<pdfrwt beam="1">  1       -2 0.26133210E-03 0.27397677E+02</pdfrwt>
<totfact> 0.26477306E+06</totfact>
</mgrwt>
</event>
<event>
 4    1  0.1607476E-006  0.2017936E+02  0.7818608E-02  0.1741785E+00
          2   -1    0    0  501    0  0.00000000000E+00  0.00000000000E+00  0.16028395237E+02  0.16028395448E+02  0.26000000000E-02 0. -1.
         -2   -1    0    0    0  501 -0.00000000000E+00 -0.00000000000E+00 -0.63513318092E+01  0.63513323414E+01  0.26000000000E-02 0.  1.
        -13    1    1    2    0    0  0.81812686843E+01 -0.58962678746E+01  0.45033148102E+01  0.11044915070E+02  0.10570000000E+00 0. -1.
         13    1    1    2    0    0 -0.81812686843E+01  0.58962678746E+01  0.51737486174E+01  0.11334812719E+02  0.10570000000E+00 0.  1.
<mgrwt>
<rscale>  0 0.20179362E+02</rscale>
<asrwt>0</asrwt>
<pdfrwt beam="1">  1        2 0.24659070E-02 0.20179362E+02</pdfrwt>
<pdfrwt beam="2">  1       -2 0.97712802E-03 0.20179362E+02</pdfrwt>
<totfact> 0.40087465E+06</totfact>
</mgrwt>
</event>
<event>
 5    1  0.1607476E-006  0.2000380E+02  0.7818608E-02  0.1745252E+00
          2   -1    0    0  501    0  0.00000000000E+00  0.00000000000E+00  0.12120722894E+02  0.12120723173E+02  0.26000000000E-02 0. -1.
         -2   -1    0    0    0  501 -0.00000000000E+00 -0.00000000000E+00 -0.82534711176E+01  0.82534715272E+01  0.26000000000E-02 0.  1.
       1023    2    1    2    0    0  0.00000000000E+00  0.00000000000E+00  0.38672517767E+01  0.20374194700E+02  0.20003803973E+02 0.  0.
        -13    1    3    3    0    0 -0.64860831818E+01 -0.76129101922E+01  0.19688232540E+01  0.10193778207E+02  0.10570000000E+00 0. -1.
         13    1    3    3    0    0  0.64860831818E+01  0.76129101922E+01  0.18984285227E+01  0.10180416493E+02  0.10570000000E+00 0.  1.
<mgrwt>
<rscale>  0 0.20003804E+02</rscale>
<asrwt>0</asrwt>
<pdfrwt beam="1">  1        2 0.18647266E-02 0.20003804E+02</pdfrwt>
<pdfrwt beam="2">  1       -2 0.12697648E-02 0.20003804E+02</pdfrwt>
<totfact> 0.40011434E+06</totfact>
</mgrwt>
</event>
<event>
 4    1  0.1607476E-006  0.2009644E+02  0.7818608E-02  0.1743417E+00
         -2   -1    0    0    0  501 -0.00000000000E+00  0.00000000000E+00  0.43186171591E+01  0.43186179417E+01  0.26000000000E-02 0.  1.
          2   -1    0    0  501    0  0.00000000000E+00 -0.00000000000E+00 -0.23379398223E+02  0.23379398367E+02  0.26000000000E-02 0. -1.
        -13    1    1    2    0    0  0.36741468020E+01 -0.93347930140E+01 -0.10307359000E+02  0.14383689978E+02  0.10570000000E+00 0. -1.
         13    1    1    2    0    0 -0.36741468020E+01  0.93347930140E+01 -0.87534220640E+01  0.13314326331E+02  0.10570000000E+00 0.  1.
<mgrwt>
<rscale>  0 0.20096436E+02</rscale>
<asrwt>0</asrwt>
<pdfrwt beam="2">  1        2 0.35968305E-02 0.20096436E+02</pdfrwt>
<pdfrwt beam="1">  1       -2 0.66440273E-03 0.20096436E+02</pdfrwt>
<totfact> 0.41824989E+06</totfact>
</mgrwt>
</event>
<event>
 5    1  0.1607476E-006  0.2000507E+02  0.7818608E-02  0.1745227E+00
          2   -1    0    0  501    0  0.00000000000E+00  0.00000000000E+00  0.14010320394E+02  0.14010320635E+02  0.26000000000E-02 0.  1.
         -2   -1    0    0    0  501 -0.00000000000E+00 -0.00000000000E+00 -0.71412151718E+01  0.71412156451E+01  0.26000000000E-02 0. -1.
       1023    2    1    2    0    0  0.00000000000E+00  0.00000000000E+00  0.68691052222E+01  0.21151536280E+02  0.20005071369E+02 0.  0.
        -13    1    3    3    0    0  0.39239263638E+01  0.92001276014E+01  0.34332002569E+01  0.10575328954E+02  0.10570000000E+00 0.  1.
         13    1    3    3    0    0 -0.39239263638E+01 -0.92001276014E+01  0.34359049654E+01  0.10576207326E+02  0.10570000000E+00 0. -1.
<mgrwt>
<rscale>  0 0.20005071E+02</rscale>
<asrwt>0</asrwt>
<pdfrwt beam="1">  1        2 0.21554339E-02 0.20005071E+02</pdfrwt>
<pdfrwt beam="2">  1       -2 0.10986486E-02 0.20005071E+02</pdfrwt>
<totfact> 0.40449549E+06</totfact>
</mgrwt>
</event>
<event>
 5    1  0.1607476E-006  0.2000119E+02  0.7818608E-02  0.1745304E+00
          2   -1    0    0  501    0  0.00000000000E+00  0.00000000000E+00  0.14378408789E+02  0.14378409024E+02  0.26000000000E-02 0. -1.
         -2   -1    0    0    0  501 -0.00000000000E+00 -0.00000000000E+00 -0.69556973805E+01  0.69556978664E+01  0.26000000000E-02 0.  1.
       1023    2    1    2    0    0  0.00000000000E+00  0.00000000000E+00  0.74227114088E+01  0.21334106891E+02  0.20001186769E+02 0.  0.
        -13    1    3    3    0    0  0.13597900690E+01  0.99071395324E+01  0.37283151182E+01  0.10672954083E+02  0.10570000000E+00 0.  1.
         13    1    3    3    0    0 -0.13597900690E+01 -0.99071395324E+01  0.36943962906E+01  0.10661152808E+02  0.10570000000E+00 0. -1.
<mgrwt>
<rscale>  0 0.20001187E+02</rscale>
<asrwt>0</asrwt>
<pdfrwt beam="1">  1        2 0.22120629E-02 0.20001187E+02</pdfrwt>
<pdfrwt beam="2">  1       -2 0.10701074E-02 0.20001187E+02</pdfrwt>
<totfact> 0.40549059E+06</totfact>
</mgrwt>
</event>
<event>
 5    1  0.1607476E-006  0.2000857E+02  0.7818608E-02  0.1745158E+00
         -2   -1    0    0    0  501 -0.00000000000E+00  0.00000000000E+00  0.13327513346E+01  0.13327538707E+01  0.26000000000E-02 0.  1.
          2   -1    0    0  501    0  0.00000000000E+00 -0.00000000000E+00 -0.75096970909E+02  0.75096970954E+02  0.26000000000E-02 0. -1.
       1023    2    1    2    0    0  0.00000000000E+00  0.00000000000E+00 -0.73764219574E+02  0.76429724825E+02  0.20008566849E+02 0.  0.
        -13    1    3    3    0    0 -0.60008614358E+01  0.80008343127E+01 -0.37743286303E+02  0.39046005188E+02  0.10570000000E+00 0.  1.
         13    1    3    3    0    0  0.60008614358E+01 -0.80008343127E+01 -0.36020933271E+02  0.37383719637E+02  0.10570000000E+00 0. -1.
<mgrwt>
<rscale>  0 0.20008567E+02</rscale>
<asrwt>0</asrwt>
<pdfrwt beam="2">  1        2 0.11553377E-01 0.20008567E+02</pdfrwt>
<pdfrwt beam="1">  1       -2 0.20503892E-03 0.20008567E+02</pdfrwt>
<totfact> 0.49629882E+06</totfact>
</mgrwt>
</event>
<event>
 5    1  0.1607476E-006  0.2000223E+02  0.7818608E-02  0.1745284E+00
         -2   -1    0    0    0  501 -0.00000000000E+00  0.00000000000E+00  0.55439782614E+01  0.55439788711E+01  0.26000000000E-02 0. -1.
          2   -1    0    0  501    0  0.00000000000E+00 -0.00000000000E+00 -0.18041609769E+02  0.18041609956E+02  0.26000000000E-02 0.  1.
       1023    2    1    2    0    0  0.00000000000E+00  0.00000000000E+00 -0.12497631507E+02  0.23585588827E+02  0.20002230051E+02 0.  0.
        -13    1    3    3    0    0 -0.41011436822E+01 -0.91208531977E+01 -0.62986577779E+01  0.11819204916E+02  0.10570000000E+00 0. -1.
         13    1    3    3    0    0  0.41011436822E+01  0.91208531977E+01 -0.61989737295E+01  0.11766383911E+02  0.10570000000E+00 0.  1.
<mgrwt>
<rscale>  0 0.20002230E+02</rscale>
<asrwt>0</asrwt>
<pdfrwt beam="2">  1        2 0.27756323E-02 0.20002230E+02</pdfrwt>
<pdfrwt beam="1">  1       -2 0.85291980E-03 0.20002230E+02</pdfrwt>
<totfact> 0.41297752E+06</totfact>
</mgrwt>
</event>
<event>
 4    1  0.1607476E-006  0.2003920E+02  0.7818608E-02  0.1744550E+00
         -2   -1    0    0    0  501 -0.00000000000E+00  0.00000000000E+00  0.36816811442E+01  0.36816820623E+01  0.26000000000E-02 0. -1.
          2   -1    0    0  501    0  0.00000000000E+00 -0.00000000000E+00 -0.27268089692E+02  0.27268089816E+02  0.26000000000E-02 0.  1.
        -13    1    1    2    0    0 -0.99588478532E+01 -0.93738118968E+00 -0.10914188460E+02  0.14804999706E+02  0.10570000000E+00 0.  1.
         13    1    1    2    0    0  0.99588478532E+01  0.93738118968E+00 -0.12672220088E+02  0.16144772173E+02  0.10570000000E+00 0. -1.
<mgrwt>
<rscale>  0 0.20039204E+02</rscale>
<asrwt>0</asrwt>
<pdfrwt beam="2">  1        2 0.41950907E-02 0.20039204E+02</pdfrwt>
<pdfrwt beam="1">  1       -2 0.56641258E-03 0.20039204E+02</pdfrwt>
<totfact> 0.42745029E+06</totfact>
</mgrwt>
</event>
<event>
 5    1  0.1607476E-006  0.2000238E+02  0.7818608E-02  0.1745281E+00
          2   -1    0    0  501    0  0.00000000000E+00  0.00000000000E+00  0.38818504297E+01  0.38818513004E+01  0.26000000000E-02 0. -1.
         -2   -1    0    0    0  501 -0.00000000000E+00 -0.00000000000E+00 -0.25767035235E+02  0.25767035366E+02  0.26000000000E-02 0.  1.
       1023    2    1    2    0    0  0.00000000000E+00  0.00000000000E+00 -0.21885184805E+02  0.29648886667E+02  0.20002379024E+02 0.  0.
        -13    1    3    3    0    0 -0.91689883289E+01 -0.39916214185E+01 -0.10800181702E+02  0.14719323551E+02  0.10570000000E+00 0.  1.
         13    1    3    3    0    0  0.91689883289E+01  0.39916214185E+01 -0.11085003104E+02  0.14929563116E+02  0.10570000000E+00 0. -1.
<mgrwt>
<rscale>  0 0.20002379E+02</rscale>
<asrwt>0</asrwt>
<pdfrwt beam="1">  1        2 0.59720785E-03 0.20002379E+02</pdfrwt>
<pdfrwt beam="2">  1       -2 0.39641592E-02 0.20002379E+02</pdfrwt>
<totfact> 0.36596312E+06</totfact>
</mgrwt>
</event>
<event>
 5    1  0.1607476E-006  0.2000245E+02  0.7818608E-02  0.1745279E+00
         -2   -1    0    0    0  501 -0.00000000000E+00  0.00000000000E+00  0.11081670911E+02  0.11081671216E+02  0.26000000000E-02 0. -1.
          2   -1    0    0  501    0  0.00000000000E+00 -0.00000000000E+00 -0.90261189422E+01  0.90261193167E+01  0.26000000000E-02 0.  1.
       1023    2    1    2    0    0  0.00000000000E+00  0.00000000000E+00  0.20555519683E+01  0.20107790532E+02  0.20002448505E+02 0.  0.
        -13    1    3    3    0    0 -0.81215566290E+01 -0.58345648431E+01  0.92004315888E+00  0.10042882101E+02  0.10570000000E+00 0. -1.
         13    1    3    3    0    0  0.81215566290E+01  0.58345648431E+01  0.11355088095E+01  0.10064908431E+02  0.10570000000E+00 0.  1.
<mgrwt>
<rscale>  0 0.20002449E+02</rscale>
<asrwt>0</asrwt>
<pdfrwt beam="2">  1        2 0.13886338E-02 0.20002449E+02</pdfrwt>
<pdfrwt beam="1">  1       -2 0.17048725E-02 0.20002449E+02</pdfrwt>
<totfact> 0.39157478E+06</totfact>
</mgrwt>
</event>
<event>
 4    1  0.1607476E-006  0.2002635E+02  0.7818608E-02  0.1744805E+00
         -2   -1    0    0    0  501 -0.00000000000E+00  0.00000000000E+00  0.27328030773E+02  0.27328030897E+02  0.26000000000E-02 0.  1.
          2   -1    0    0  501    0  0.00000000000E+00 -0.00000000000E+00 -0.36688953156E+01  0.36688962368E+01  0.26000000000E-02 0. -1.
        -13    1    1    2    0    0 -0.18067395485E+01  0.98420585064E+01  0.11288710855E+02  0.15085641806E+02  0.10570000000E+00 0. -1.
         13    1    1    2    0    0  0.18067395485E+01 -0.98420585064E+01  0.12370424603E+02  0.15911285328E+02  0.10570000000E+00 0.  1.
<mgrwt>
<rscale>  0 0.20026353E+02</rscale>
<asrwt>0</asrwt>
<pdfrwt beam="2">  1        2 0.56444551E-03 0.20026353E+02</pdfrwt>
<pdfrwt beam="1">  1       -2 0.42043126E-02 0.20026353E+02</pdfrwt>
<totfact> 0.36296794E+06</totfact>
</mgrwt>
</event>
<event>
 4    1  0.1607476E-006  0.2009085E+02  0.7818608E-02  0.1743527E+00
          2   -1    0    0  501    0  0.00000000000E+00  0.00000000000E+00  0.89218784243E+01  0.89218788032E+01  0.26000000000E-02 0.  1.
         -2   -1    0    0    0  501 -0.00000000000E+00 -0.00000000000E+00 -0.11310456499E+02  0.11310456798E+02  0.26000000000E-02 0. -1.
        -13    1    1    2    0    0 -0.11686457792E+01  0.99762437247E+01 -0.11032067137E+01  0.10105414853E+02  0.10570000000E+00 0.  1.
         13    1    1    2    0    0  0.11686457792E+01 -0.99762437247E+01 -0.12853713614E+01  0.10126920748E+02  0.10570000000E+00 0. -1.
<mgrwt>
<rscale>  0 0.20090846E+02</rscale>
<asrwt>0</asrwt>
<pdfrwt beam="1">  1        2 0.13725967E-02 0.20090846E+02</pdfrwt>
<pdfrwt beam="2">  1       -2 0.17400703E-02 0.20090846E+02</pdfrwt>
<totfact> 0.38730803E+06</totfact>
</mgrwt>
</event>
<event>
 5    1  0.1607476E-006  0.2001218E+02  0.7818608E-02  0.1745086E+00
          2   -1    0    0  501    0  0.00000000000E+00  0.00000000000E+00  0.11872778383E+01  0.11872806851E+01  0.26000000000E-02 0. -1.
         -2   -1    0    0    0  501 -0.00000000000E+00 -0.00000000000E+00 -0.84328811027E+02  0.84328811067E+02  0.26000000000E-02 0.  1.
       1023    2    1    2    0    0  0.00000000000E+00  0.00000000000E+00 -0.83141533189E+02  0.85516091753E+02  0.20012181480E+02 0.  0.
        -13    1    3    3    0    0 -0.98895205363E+01  0.15072478288E+01 -0.42384550230E+02  0.43549232865E+02  0.10570000000E+00 0.  1.
         13    1    3    3    0    0  0.98895205363E+01 -0.15072478288E+01 -0.40756982959E+02  0.41966858888E+02  0.10570000000E+00 0. -1.
<mgrwt>
<rscale>  0 0.20012181E+02</rscale>
<asrwt>0</asrwt>
<pdfrwt beam="1">  1        2 0.18265842E-03 0.20012181E+02</pdfrwt>
<pdfrwt beam="2">  1       -2 0.12973659E-01 0.20012181E+02</pdfrwt>
<totfact> 0.30873425E+06</totfact>
</mgrwt>
</event>
<event>
 5    1  0.1607476E-006  0.2000207E+02  0.7818608E-02  0.1745287E+00
         -2   -1    0    0    0  501 -0.00000000000E+00  0.00000000000E+00  0.90468892799E+01  0.90468896535E+01  0.26000000000E-02 0. -1.
          2   -1    0    0  501    0  0.00000000000E+00 -0.00000000000E+00 -0.11055808555E+02  0.11055808860E+02  0.26000000000E-02 0.  1.
       1023    2    1    2    0    0  0.00000000000E+00  0.00000000000E+00 -0.20089192747E+01  0.20102698514E+02  0.20002068165E+02 0.  0.
        -13    1    3    3    0    0  0.99639898356E+01  0.84979352904E+00 -0.10840270273E+01  0.10059300650E+02  0.10570000000E+00 0.  1.
         13    1    3    3    0    0 -0.99639898356E+01 -0.84979352904E+00 -0.92489224741E+00  0.10043397864E+02  0.10570000000E+00 0. -1.
<mgrwt>
<rscale>  0 0.20002068E+02</rscale>
<asrwt>0</asrwt>
<pdfrwt beam="2">  1        2 0.17008937E-02 0.20002068E+02</pdfrwt>
<pdfrwt beam="1">  1       -2 0.13918292E-02 0.20002068E+02</pdfrwt>
<totfact> 0.39746337E+06</totfact>
</mgrwt>
</event>
<event>
 4    1  0.1607476E-006  0.2003261E+02  0.7818608E-02  0.1744680E+00
          2   -1    0    0  501    0  0.00000000000E+00  0.00000000000E+00  0.45395638237E+01  0.45395645683E+01  0.26000000000E-02 0. -1.
         -2   -1    0    0    0  501 -0.00000000000E+00 -0.00000000000E+00 -0.22100448702E+02  0.22100448855E+02  0.26000000000E-02 0.  1.
        -13    1    1    2    0    0  0.96195986872E+01  0.27322348125E+01 -0.80359135153E+01  0.12829219169E+02  0.10570000000E+00 0. -1.
         13    1    1    2    0    0 -0.96195986872E+01 -0.27322348125E+01 -0.95249713629E+01  0.13810794254E+02  0.10570000000E+00 0.  1.
<mgrwt>
<rscale>  0 0.20032614E+02</rscale>
<asrwt>0</asrwt>
<pdfrwt beam="1">  1        2 0.69839452E-03 0.20032614E+02</pdfrwt>
<pdfrwt beam="2">  1       -2 0.34000690E-02 0.20032614E+02</pdfrwt>
<totfact> 0.36985667E+06</totfact>
</mgrwt>
</event>
<event>
 5    1  0.1607476E-006  0.2000173E+02  0.7818608E-02  0.1745294E+00
         -2   -1    0    0    0  501 -0.00000000000E+00  0.00000000000E+00  0.50119878121E+01  0.50119884865E+01  0.26000000000E-02 0. -1.
          2   -1    0    0  501    0  0.00000000000E+00 -0.00000000000E+00 -0.19955618461E+02  0.19955618631E+02  0.26000000000E-02 0.  1.
       1023    2    1    2    0    0  0.00000000000E+00  0.00000000000E+00 -0.14943630649E+02  0.24967607117E+02  0.20001732629E+02 0.  0.
        -13    1    3    3    0    0  0.31207963472E+01  0.95008352437E+01 -0.74340690474E+01  0.12461211629E+02  0.10570000000E+00 0. -1.
         13    1    3    3    0    0 -0.31207963472E+01 -0.95008352437E+01 -0.75095616019E+01  0.12506395488E+02  0.10570000000E+00 0.  1.
<mgrwt>
<rscale>  0 0.20001733E+02</rscale>
<asrwt>0</asrwt>
<pdfrwt beam="2">  1        2 0.30700952E-02 0.20001733E+02</pdfrwt>
<pdfrwt beam="1">  1       -2 0.77107512E-03 0.20001733E+02</pdfrwt>
<totfact> 0.41661668E+06</totfact>
</mgrwt>
</event>
<event>
 4    1  0.1607476E-006  0.2053229E+02  0.7818608E-02  0.1734945E+00
          2   -1    0    0  501    0  0.00000000000E+00  0.00000000000E+00  0.95678176533E+01  0.95678180065E+01  0.26000000000E-02 0.  1.
         -2   -1    0    0    0  501 -0.00000000000E+00 -0.00000000000E+00 -0.11015441949E+02  0.11015442256E+02  0.26000000000E-02 0. -1.
        -13    1    1    2    0    0 -0.44669478569E+01  0.91015067607E+01 -0.23376299940E+01  0.10405130223E+02  0.10570000000E+00 0.  1.
         13    1    1    2    0    0  0.44669478569E+01 -0.91015067607E+01  0.89000569836E+00  0.10178130040E+02  0.10570000000E+00 0. -1.
<mgrwt>
<rscale>  0 0.20532291E+02</rscale>
<asrwt>0</asrwt>
<pdfrwt beam="1">  1        2 0.14719720E-02 0.20532291E+02</pdfrwt>
<pdfrwt beam="2">  1       -2 0.16946834E-02 0.20532291E+02</pdfrwt>
<totfact> 0.37034104E+06</totfact>
</mgrwt>
</event>
<event>
 4    1  0.1607476E-006  0.2001684E+02  0.7818608E-02  0.1744993E+00
          2   -1    0    0  501    0  0.00000000000E+00  0.00000000000E+00  0.30309061491E+01  0.30309072643E+01  0.26000000000E-02 0.  1.
         -2   -1    0    0    0  501 -0.00000000000E+00 -0.00000000000E+00 -0.33049014876E+02  0.33049014978E+02  0.26000000000E-02 0. -1.
        -13    1    1    2    0    0  0.86272961105E+01  0.50717484447E+01 -0.14888930064E+02  0.17940018991E+02  0.10570000000E+00 0.  1.
         13    1    1    2    0    0 -0.86272961105E+01 -0.50717484447E+01 -0.15129178662E+02  0.18139903251E+02  0.10570000000E+00 0. -1.
<mgrwt>
<rscale>  0 0.20016841E+02</rscale>
<asrwt>0</asrwt>
<pdfrwt beam="1">  1        2 0.46629337E-03 0.20016841E+02</pdfrwt>
<pdfrwt beam="2">  1       -2 0.50844637E-02 0.20016841E+02</pdfrwt>
<totfact> 0.35632914E+06</totfact>
</mgrwt>
</event>
<event>
 5    1  0.1607476E-006  0.2000308E+02  0.7818608E-02  0.1745267E+00
          2   -1    0    0  501    0  0.00000000000E+00  0.00000000000E+00  0.50749843787E+02  0.50749843853E+02  0.26000000000E-02 0.  1.
         -2   -1    0    0    0  501 -0.00000000000E+00 -0.00000000000E+00 -0.19710562061E+01  0.19710579209E+01  0.26000000000E-02 0. -1.
       1023    2    1    2    0    0  0.00000000000E+00  0.00000000000E+00  0.48778787581E+02  0.52720901774E+02  0.20003083914E+02 0.  0.
        -13    1    3    3    0    0  0.87249165563E+01  0.48881949236E+01  0.24474818440E+02  0.26439488057E+02  0.10570000000E+00 0.  1.
         13    1    3    3    0    0 -0.87249165563E+01 -0.48881949236E+01  0.24303969140E+02  0.26281413717E+02  0.10570000000E+00 0. -1.
<mgrwt>
<rscale>  0 0.20003084E+02</rscale>
<asrwt>0</asrwt>
<pdfrwt beam="1">  1        2 0.78076685E-02 0.20003084E+02</pdfrwt>
<pdfrwt beam="2">  1       -2 0.30323955E-03 0.20003084E+02</pdfrwt>
<totfact> 0.46416783E+06</totfact>
</mgrwt>
</event>
<event>
 5    1  0.1607476E-006  0.2000263E+02  0.7818608E-02  0.1745276E+00
         -2   -1    0    0    0  501 -0.00000000000E+00  0.00000000000E+00  0.15914712358E+02  0.15914712570E+02  0.26000000000E-02 0. -1.
          2   -1    0    0  501    0  0.00000000000E+00 -0.00000000000E+00 -0.62851470033E+01  0.62851475411E+01  0.26000000000E-02 0.  1.
       1023    2    1    2    0    0  0.00000000000E+00  0.00000000000E+00  0.96295653547E+01  0.22199860111E+02  0.20002631328E+02 0.  0.
        -13    1    3    3    0    0  0.93675586879E+01 -0.35016581729E+01  0.47606750461E+01  0.11076459954E+02  0.10570000000E+00 0.  1.
         13    1    3    3    0    0 -0.93675586879E+01  0.35016581729E+01  0.48688903086E+01  0.11123400157E+02  0.10570000000E+00 0. -1.
<mgrwt>
<rscale>  0 0.20002631E+02</rscale>
<asrwt>0</asrwt>
<pdfrwt beam="2">  1        2 0.96694576E-03 0.20002631E+02</pdfrwt>
<pdfrwt beam="1">  1       -2 0.24484173E-02 0.20002631E+02</pdfrwt>
<totfact> 0.38113644E+06</totfact>
</mgrwt>
</event>
<event>
 5    1  0.1607476E-006  0.2000342E+02  0.7818608E-02  0.1745260E+00
         -2   -1    0    0    0  501 -0.00000000000E+00  0.00000000000E+00  0.24183329830E+01  0.24183343806E+01  0.26000000000E-02 0.  1.
          2   -1    0    0  501    0  0.00000000000E+00 -0.00000000000E+00 -0.41364911379E+02  0.41364911461E+02  0.26000000000E-02 0. -1.
       1023    2    1    2    0    0  0.00000000000E+00  0.00000000000E+00 -0.38946578396E+02  0.43783245841E+02  0.20003415899E+02 0.  0.
        -13    1    3    3    0    0 -0.76131900821E+01 -0.64848931298E+01 -0.19271643814E+02  0.21712252990E+02  0.10570000000E+00 0.  1.
         13    1    3    3    0    0  0.76131900821E+01  0.64848931298E+01 -0.19674934582E+02  0.22070992851E+02  0.10570000000E+00 0. -1.
<mgrwt>
<rscale>  0 0.20003416E+02</rscale>
<asrwt>0</asrwt>
<pdfrwt beam="2">  1        2 0.63638321E-02 0.20003416E+02</pdfrwt>
<pdfrwt beam="1">  1       -2 0.37205137E-03 0.20003416E+02</pdfrwt>
<totfact> 0.45079044E+06</totfact>
</mgrwt>
</event>
<event>
 5    1  0.1607476E-006  0.2000387E+02  0.7818608E-02  0.1745251E+00
          2   -1    0    0  501    0  0.00000000000E+00  0.00000000000E+00  0.47233473910E+02  0.47233473981E+02  0.26000000000E-02 0.  1.
         -2   -1    0    0    0  501 -0.00000000000E+00 -0.00000000000E+00 -0.21179604170E+01  0.21179620129E+01  0.26000000000E-02 0. -1.
       1023    2    1    2    0    0  0.00000000000E+00  0.00000000000E+00  0.45115513493E+02  0.49351435994E+02  0.20003866551E+02 0.  0.
        -13    1    3    3    0    0  0.72358959746E+00 -0.99751637929E+01  0.22546144838E+02  0.24665102760E+02  0.10570000000E+00 0.  1.
         13    1    3    3    0    0 -0.72358959746E+00  0.99751637929E+01  0.22569368655E+02  0.24686333235E+02  0.10570000000E+00 0. -1.
<mgrwt>
<rscale>  0 0.20003867E+02</rscale>
<asrwt>0</asrwt>
<pdfrwt beam="1">  1        2 0.72666888E-02 0.20003867E+02</pdfrwt>
<pdfrwt beam="2">  1       -2 0.32584017E-03 0.20003867E+02</pdfrwt>
<totfact> 0.45919311E+06</totfact>
</mgrwt>
</event>
<event>
 5    1  0.1607476E-006  0.2000662E+02  0.7818608E-02  0.1745196E+00
         -2   -1    0    0    0  501 -0.00000000000E+00  0.00000000000E+00  0.18927301180E+02  0.18927301359E+02  0.26000000000E-02 0.  1.
          2   -1    0    0  501    0  0.00000000000E+00 -0.00000000000E+00 -0.52868703533E+01  0.52868709926E+01  0.26000000000E-02 0. -1.
       1023    2    1    2    0    0  0.00000000000E+00  0.00000000000E+00  0.13640430827E+02  0.24214172351E+02  0.20006618643E+02 0.  0.
        -13    1    3    3    0    0  0.52478710900E+01  0.85152531834E+01  0.69086353131E+01  0.12156895251E+02  0.10570000000E+00 0.  1.
         13    1    3    3    0    0 -0.52478710900E+01 -0.85152531834E+01  0.67317955137E+01  0.12057277101E+02  0.10570000000E+00 0. -1.
<mgrwt>
<rscale>  0 0.20006619E+02</rscale>
<asrwt>0</asrwt>
<pdfrwt beam="2">  1        2 0.81336475E-03 0.20006619E+02</pdfrwt>
<pdfrwt beam="1">  1       -2 0.29118925E-02 0.20006619E+02</pdfrwt>
<totfact> 0.37577581E+06</totfact>
</mgrwt>
</event>
<event>
 5    1  0.1607476E-006  0.2000207E+02  0.7818608E-02  0.1745287E+00
          2   -1    0    0  501    0  0.00000000000E+00  0.00000000000E+00  0.29368261300E+02  0.29368261415E+02  0.26000000000E-02 0.  1.
         -2   -1    0    0    0  501 -0.00000000000E+00 -0.00000000000E+00 -0.34057402969E+01  0.34057412893E+01  0.26000000000E-02 0. -1.
       1023    2    1    2    0    0  0.00000000000E+00  0.00000000000E+00  0.25962521003E+02  0.32774002704E+02  0.20002068804E+02 0.  0.
        -13    1    3    3    0    0  0.37760820993E+01 -0.92599770412E+01  0.13078829365E+02  0.16464292298E+02  0.10570000000E+00 0.  1.
         13    1    3    3    0    0 -0.37760820993E+01  0.92599770412E+01  0.12883691638E+02  0.16309710406E+02  0.10570000000E+00 0. -1.
<mgrwt>
<rscale>  0 0.20002069E+02</rscale>
<asrwt>0</asrwt>
<pdfrwt beam="1">  1        2 0.45181939E-02 0.20002069E+02</pdfrwt>
<pdfrwt beam="2">  1       -2 0.52396015E-03 0.20002069E+02</pdfrwt>
<totfact> 0.43262627E+06</totfact>
</mgrwt>
</event>
<event>
 5    1  0.1607476E-006  0.2000225E+02  0.7818608E-02  0.1745283E+00
         -2   -1    0    0    0  501 -0.00000000000E+00  0.00000000000E+00  0.10990307409E+01  0.10990338163E+01  0.26000000000E-02 0.  1.
          2   -1    0    0  501    0  0.00000000000E+00 -0.00000000000E+00 -0.91009585932E+02  0.91009585970E+02  0.26000000000E-02 0. -1.
       1023    2    1    2    0    0  0.00000000000E+00  0.00000000000E+00 -0.89910555192E+02  0.92108619786E+02  0.20002247474E+02 0.  0.
        -13    1    3    3    0    0  0.13135342505E+01  0.99138459606E+01 -0.45138871956E+02  0.46233522988E+02  0.10570000000E+00 0. -1.
         13    1    3    3    0    0 -0.13135342505E+01 -0.99138459606E+01 -0.44771683236E+02  0.45875096798E+02  0.10570000000E+00 0.  1.
<mgrwt>
<rscale>  0 0.20002247E+02</rscale>
<asrwt>0</asrwt>
<pdfrwt beam="2">  1        2 0.14001469E-01 0.20002247E+02</pdfrwt>
<pdfrwt beam="1">  1       -2 0.16908196E-03 0.20002247E+02</pdfrwt>
<totfact> 0.51655834E+06</totfact>
</mgrwt>
</event>
<event>
 4    1  0.1607476E-006  0.2002825E+02  0.7818608E-02  0.1744767E+00
          2   -1    0    0  501    0  0.00000000000E+00  0.00000000000E+00  0.45203092911E+02  0.45203092986E+02  0.26000000000E-02 0.  1.
         -2   -1    0    0    0  501 -0.00000000000E+00 -0.00000000000E+00 -0.22184903796E+01  0.22184919031E+01  0.26000000000E-02 0. -1.
        -13    1    1    2    0    0  0.99219286800E+01  0.12539355969E+01  0.20297899239E+02  0.22628144184E+02  0.10570000000E+00 0. -1.
         13    1    1    2    0    0 -0.99219286800E+01 -0.12539355969E+01  0.22686703293E+02  0.24793440705E+02  0.10570000000E+00 0.  1.
<mgrwt>
<rscale>  0 0.20028247E+02</rscale>
<asrwt>0</asrwt>
<pdfrwt beam="1">  1        2 0.69543217E-02 0.20028247E+02</pdfrwt>
<pdfrwt beam="2">  1       -2 0.34130635E-03 0.20028247E+02</pdfrwt>
<totfact> 0.45506888E+06</totfact>
</mgrwt>
</event>
<event>
 5    1  0.1607476E-006  0.2000875E+02  0.7818608E-02  0.1745154E+00
         -2   -1    0    0    0  501 -0.00000000000E+00  0.00000000000E+00  0.36609443029E+01  0.36609452262E+01  0.26000000000E-02 0. -1.
          2   -1    0    0  501    0  0.00000000000E+00 -0.00000000000E+00 -0.27339256074E+02  0.27339256198E+02  0.26000000000E-02 0.  1.
       1023    2    1    2    0    0  0.00000000000E+00  0.00000000000E+00 -0.23678311771E+02  0.31000201424E+02  0.20008749086E+02 0.  0.
        -13    1    3    3    0    0 -0.99254125341E+01  0.12224254003E+01 -0.11434546704E+02  0.15191055547E+02  0.10570000000E+00 0.  1.
         13    1    3    3    0    0  0.99254125341E+01 -0.12224254003E+01 -0.12243765067E+02  0.15809145877E+02  0.10570000000E+00 0. -1.
<mgrwt>
<rscale>  0 0.20008749E+02</rscale>
<asrwt>0</asrwt>
<pdfrwt beam="2">  1        2 0.42060393E-02 0.20008749E+02</pdfrwt>
<pdfrwt beam="1">  1       -2 0.56322230E-03 0.20008749E+02</pdfrwt>
<totfact> 0.42902846E+06</totfact>
</mgrwt>
</event>
<event>
 4    1  0.1607476E-006  0.2003081E+02  0.7818608E-02  0.1744716E+00
          2   -1    0    0  501    0  0.00000000000E+00  0.00000000000E+00  0.24160614537E+01  0.24160628527E+01  0.26000000000E-02 0. -1.
         -2   -1    0    0    0  501 -0.00000000000E+00 -0.00000000000E+00 -0.41517273528E+02  0.41517273609E+02  0.26000000000E-02 0.  1.
        -13    1    1    2    0    0  0.35275105357E+01 -0.93685080724E+01 -0.20189565471E+02  0.22535350019E+02  0.10570000000E+00 0. -1.
         13    1    1    2    0    0 -0.35275105357E+01  0.93685080724E+01 -0.18911646603E+02  0.21397986443E+02  0.10570000000E+00 0.  1.
<mgrwt>
<rscale>  0 0.20030808E+02</rscale>
<asrwt>0</asrwt>
<pdfrwt beam="1">  1        2 0.37170191E-03 0.20030808E+02</pdfrwt>
<pdfrwt beam="2">  1       -2 0.63872724E-02 0.20030808E+02</pdfrwt>
<totfact> 0.34642222E+06</totfact>
</mgrwt>
</event>
<event>
 5    1  0.1607476E-006  0.2000637E+02  0.7818608E-02  0.1745201E+00
         -2   -1    0    0    0  501 -0.00000000000E+00  0.00000000000E+00  0.21338038406E+02  0.21338038564E+02  0.26000000000E-02 0. -1.
          2   -1    0    0  501    0  0.00000000000E+00 -0.00000000000E+00 -0.46894535799E+01  0.46894543006E+01  0.26000000000E-02 0.  1.
       1023    2    1    2    0    0  0.00000000000E+00  0.00000000000E+00  0.16648584826E+02  0.26027492865E+02  0.20006374187E+02 0.  0.
        -13    1    3    3    0    0  0.99986409285E+01 -0.23900958698E+00  0.81285701553E+01  0.12888551946E+02  0.10570000000E+00 0.  1.
         13    1    3    3    0    0 -0.99986409285E+01  0.23900958698E+00  0.85200146708E+01  0.13138940919E+02  0.10570000000E+00 0. -1.
<mgrwt>
<rscale>  0 0.20006374E+02</rscale>
<asrwt>0</asrwt>
<pdfrwt beam="2">  1        2 0.72145446E-03 0.20006374E+02</pdfrwt>
<pdfrwt beam="1">  1       -2 0.32827752E-02 0.20006374E+02</pdfrwt>
<totfact> 0.37203802E+06</totfact>
</mgrwt>
</event>
<event>
 5    1  0.1607476E-006  0.2000149E+02  0.7818608E-02  0.1745298E+00
          2   -1    0    0  501    0  0.00000000000E+00  0.00000000000E+00  0.40056567603E+02  0.40056567688E+02  0.26000000000E-02 0.  1.
         -2   -1    0    0    0  501 -0.00000000000E+00 -0.00000000000E+00 -0.24968413716E+01  0.24968427253E+01  0.26000000000E-02 0. -1.
       1023    2    1    2    0    0  0.00000000000E+00  0.00000000000E+00  0.37559726232E+02  0.42553410413E+02  0.20001492524E+02 0.  0.
        -13    1    3    3    0    0 -0.99734773206E+01  0.73041064535E+00  0.18775754809E+02  0.21273079013E+02  0.10570000000E+00 0.  1.
         13    1    3    3    0    0  0.99734773206E+01 -0.73041064535E+00  0.18783971423E+02  0.21280331399E+02  0.10570000000E+00 0. -1.
<mgrwt>
<rscale>  0 0.20001493E+02</rscale>
<asrwt>0</asrwt>
<pdfrwt beam="1">  1        2 0.61625486E-02 0.20001493E+02</pdfrwt>
<pdfrwt beam="2">  1       -2 0.38412958E-03 0.20001493E+02</pdfrwt>
<totfact> 0.44897147E+06</totfact>
</mgrwt>
</event>
<event>
 5    1  0.1607476E-006  0.2000949E+02  0.7818608E-02  0.1745139E+00
         -2   -1    0    0    0  501 -0.00000000000E+00  0.00000000000E+00  0.70122766425E+02  0.70122766473E+02  0.26000000000E-02 0.  1.
          2   -1    0    0  501    0  0.00000000000E+00 -0.00000000000E+00 -0.14274229331E+01  0.14274253010E+01  0.26000000000E-02 0. -1.
       1023    2    1    2    0    0  0.00000000000E+00  0.00000000000E+00  0.68695343492E+02  0.71550191774E+02  0.20009490884E+02 0.  0.
        -13    1    3    3    0    0 -0.75416945839E+01  0.65699591109E+01  0.33612766510E+02  0.35069513326E+02  0.10570000000E+00 0.  1.
         13    1    3    3    0    0  0.75416945839E+01 -0.65699591109E+01  0.35082576981E+02  0.36480678448E+02  0.10570000000E+00 0. -1.
<mgrwt>
<rscale>  0 0.20009491E+02</rscale>
<asrwt>0</asrwt>
<pdfrwt beam="2">  1        2 0.21960370E-03 0.20009491E+02</pdfrwt>
<pdfrwt beam="1">  1       -2 0.10788119E-01 0.20009491E+02</pdfrwt>
<totfact> 0.32039587E+06</totfact>
</mgrwt>
</event>
<event>
 5    1  0.1607476E-006  0.2000784E+02  0.7818608E-02  0.1745172E+00
         -2   -1    0    0    0  501 -0.00000000000E+00  0.00000000000E+00  0.14985834034E+02  0.14985834260E+02  0.26000000000E-02 0. -1.
          2   -1    0    0  501    0  0.00000000000E+00 -0.00000000000E+00 -0.66782006073E+01  0.66782011134E+01  0.26000000000E-02 0.  1.
       1023    2    1    2    0    0  0.00000000000E+00  0.00000000000E+00  0.83076334268E+01  0.21664035373E+02  0.20007839851E+02 0.  0.
        -13    1    3    3    0    0  0.68698665348E+01 -0.72710163012E+01  0.40812050196E+01  0.10804172859E+02  0.10570000000E+00 0. -1.
         13    1    3    3    0    0 -0.68698665348E+01  0.72710163012E+01  0.42264284071E+01  0.10859862514E+02  0.10570000000E+00 0.  1.
<mgrwt>
<rscale>  0 0.20007840E+02</rscale>
<asrwt>0</asrwt>
<pdfrwt beam="2">  1        2 0.10274155E-02 0.20007840E+02</pdfrwt>
<pdfrwt beam="1">  1       -2 0.23055130E-02 0.20007840E+02</pdfrwt>
<totfact> 0.38267993E+06</totfact>
</mgrwt>
</event>
<event>
 5    1  0.1607476E-006  0.2000269E+02  0.7818608E-02  0.1745275E+00
          2   -1    0    0  501    0  0.00000000000E+00  0.00000000000E+00  0.46528837750E+01  0.46528845015E+01  0.26000000000E-02 0.  1.
         -2   -1    0    0    0  501 -0.00000000000E+00 -0.00000000000E+00 -0.21497831137E+02  0.21497831294E+02  0.26000000000E-02 0. -1.
       1023    2    1    2    0    0  0.00000000000E+00  0.00000000000E+00 -0.16844947362E+02  0.26150715796E+02  0.20002691944E+02 0.  0.
        -13    1    3    3    0    0 -0.69295997711E+01 -0.72106789819E+01 -0.83570482729E+01  0.13033214212E+02  0.10570000000E+00 0. -1.
         13    1    3    3    0    0  0.69295997711E+01  0.72106789819E+01 -0.84878990893E+01  0.13117501584E+02  0.10570000000E+00 0.  1.
<mgrwt>
<rscale>  0 0.20002692E+02</rscale>
<asrwt>0</asrwt>
<pdfrwt beam="1">  1        2 0.71582835E-03 0.20002692E+02</pdfrwt>
<pdfrwt beam="2">  1       -2 0.33073586E-02 0.20002692E+02</pdfrwt>
<totfact> 0.37194850E+06</totfact>
</mgrwt>
</event>
<event>
 5    1  0.1607476E-006  0.2000902E+02  0.7818608E-02  0.1745149E+00
         -2   -1    0    0    0  501 -0.00000000000E+00  0.00000000000E+00  0.13515617579E+02  0.13515617829E+02  0.26000000000E-02 0.  1.
          2   -1    0    0  501    0  0.00000000000E+00 -0.00000000000E+00 -0.74055193768E+01  0.74055198332E+01  0.26000000000E-02 0. -1.
       1023    2    1    2    0    0  0.00000000000E+00  0.00000000000E+00  0.61100982019E+01  0.20921137662E+02  0.20009015494E+02 0.  0.
        -13    1    3    3    0    0  0.94155074108E+01  0.33736433412E+01  0.32787007362E+01  0.10525887146E+02  0.10570000000E+00 0.  1.
         13    1    3    3    0    0 -0.94155074108E+01 -0.33736433412E+01  0.28313974657E+01  0.10395250516E+02  0.10570000000E+00 0. -1.
<mgrwt>
<rscale>  0 0.20009015E+02</rscale>
<asrwt>0</asrwt>
<pdfrwt beam="2">  1        2 0.11393107E-02 0.20009015E+02</pdfrwt>
<pdfrwt beam="1">  1       -2 0.20793258E-02 0.20009015E+02</pdfrwt>
<totfact> 0.38561561E+06</totfact>
</mgrwt>
</event>
<event>
 5    1  0.1607476E-006  0.2000227E+02  0.7818608E-02  0.1745283E+00
         -2   -1    0    0    0  501 -0.00000000000E+00  0.00000000000E+00  0.84594049502E+01  0.84594053497E+01  0.26000000000E-02 0.  1.
          2   -1    0    0  501    0  0.00000000000E+00 -0.00000000000E+00 -0.11823841757E+02  0.11823842043E+02  0.26000000000E-02 0. -1.
       1023    2    1    2    0    0  0.00000000000E+00  0.00000000000E+00 -0.33644368071E+01  0.20283247393E+02  0.20002267116E+02 0.  0.
        -13    1    3    3    0    0  0.50350420875E+01  0.86402688887E+01 -0.17581343441E+01  0.10154216078E+02  0.10570000000E+00 0.  1.
         13    1    3    3    0    0 -0.50350420875E+01 -0.86402688887E+01 -0.16063024631E+01  0.10129031315E+02  0.10570000000E+00 0. -1.
<mgrwt>
<rscale>  0 0.20002267E+02</rscale>
<asrwt>0</asrwt>
<pdfrwt beam="2">  1        2 0.18190526E-02 0.20002267E+02</pdfrwt>
<pdfrwt beam="1">  1       -2 0.13014470E-02 0.20002267E+02</pdfrwt>
<totfact> 0.39944224E+06</totfact>
</mgrwt>
</event>
<event>
 5    1  0.1607476E-006  0.2001002E+02  0.7818608E-02  0.1745129E+00
          2   -1    0    0  501    0  0.00000000000E+00  0.00000000000E+00  0.26119108230E+02  0.26119108359E+02  0.26000000000E-02 0.  1.
         -2   -1    0    0    0  501 -0.00000000000E+00 -0.00000000000E+00 -0.38324503598E+01  0.38324512417E+01  0.26000000000E-02 0. -1.
       1023    2    1    2    0    0  0.00000000000E+00  0.00000000000E+00  0.22286657870E+02  0.29951559601E+02  0.20010017579E+02 0.  0.
        -13    1    3    3    0    0  0.37782783450E+01  0.92635523228E+01  0.11166493498E+02  0.14993016322E+02  0.10570000000E+00 0. -1.
         13    1    3    3    0    0 -0.37782783450E+01 -0.92635523228E+01  0.11120164372E+02  0.14958543279E+02  0.10570000000E+00 0.  1.
<mgrwt>
<rscale>  0 0.20010018E+02</rscale>
<asrwt>0</asrwt>
<pdfrwt beam="1">  1        2 0.40183245E-02 0.20010018E+02</pdfrwt>
<pdfrwt beam="2">  1       -2 0.58960782E-03 0.20010018E+02</pdfrwt>
<totfact> 0.42695868E+06</totfact>
</mgrwt>
</event>
<event>
 5    1  0.1607476E-006  0.2000341E+02  0.7818608E-02  0.1745260E+00
         -2   -1    0    0    0  501 -0.00000000000E+00  0.00000000000E+00  0.93000262180E+00  0.93000625619E+00  0.26000000000E-02 0.  1.
          2   -1    0    0  501    0  0.00000000000E+00 -0.00000000000E+00 -0.10756304098E+03  0.10756304101E+03  0.26000000000E-02 0. -1.
       1023    2    1    2    0    0  0.00000000000E+00  0.00000000000E+00 -0.10663303836E+03  0.10849304727E+03  0.20003410607E+02 0.  0.
        -13    1    3    3    0    0 -0.45369500923E+01  0.89127579744E+01 -0.53088616916E+02  0.54022528535E+02  0.10570000000E+00 0.  1.
         13    1    3    3    0    0  0.45369500923E+01 -0.89127579744E+01 -0.53544421443E+02  0.54470518733E+02  0.10570000000E+00 0. -1.
<mgrwt>
<rscale>  0 0.20003411E+02</rscale>
<asrwt>0</asrwt>
<pdfrwt beam="2">  1        2 0.16548151E-01 0.20003411E+02</pdfrwt>
<pdfrwt beam="1">  1       -2 0.14307769E-03 0.20003411E+02</pdfrwt>
<totfact> 0.53634278E+06</totfact>
</mgrwt>
</event>
<event>
 4    1  0.1607476E-006  0.2001268E+02  0.7818608E-02  0.1745076E+00
          2   -1    0    0  501    0  0.00000000000E+00  0.00000000000E+00  0.16602494649E+02  0.16602494852E+02  0.26000000000E-02 0. -1.
         -2   -1    0    0    0  501 -0.00000000000E+00 -0.00000000000E+00 -0.60308280147E+01  0.60308285751E+01  0.26000000000E-02 0.  1.
        -13    1    1    2    0    0  0.44798721084E+01 -0.89453184607E+01  0.54738892417E+01  0.11404499655E+02  0.10570000000E+00 0.  1.
         13    1    1    2    0    0 -0.44798721084E+01  0.89453184607E+01  0.50977773923E+01  0.11228823772E+02  0.10570000000E+00 0. -1.
<mgrwt>
<rscale>  0 0.20012676E+02</rscale>
<asrwt>0</asrwt>
<pdfrwt beam="1">  1        2 0.25542300E-02 0.20012676E+02</pdfrwt>
<pdfrwt beam="2">  1       -2 0.92781975E-03 0.20012676E+02</pdfrwt>
<totfact> 0.40964520E+06</totfact>
</mgrwt>
</event>
<event>
 5    1  0.1607476E-006  0.2000487E+02  0.7818608E-02  0.1745231E+00
          2   -1    0    0  501    0  0.00000000000E+00  0.00000000000E+00  0.12468784884E+01  0.12468811992E+01  0.26000000000E-02 0.  1.
         -2   -1    0    0    0  501 -0.00000000000E+00 -0.00000000000E+00 -0.80239270600E+02  0.80239270642E+02  0.26000000000E-02 0. -1.
       1023    2    1    2    0    0  0.00000000000E+00  0.00000000000E+00 -0.78992392111E+02  0.81486151841E+02  0.20004872666E+02 0.  0.
        -13    1    3    3    0    0 -0.93770971587E+01 -0.34790506428E+01 -0.39244584852E+02  0.40499164895E+02  0.10570000000E+00 0.  1.
         13    1    3    3    0    0  0.93770971587E+01  0.34790506428E+01 -0.39747807259E+02  0.40986986946E+02  0.10570000000E+00 0. -1.
<mgrwt>
<rscale>  0 0.20004873E+02</rscale>
<asrwt>0</asrwt>
<pdfrwt beam="1">  1        2 0.19182773E-03 0.20004873E+02</pdfrwt>
<pdfrwt beam="2">  1       -2 0.12344499E-01 0.20004873E+02</pdfrwt>
<totfact> 0.31222040E+06</totfact>
</mgrwt>
</event>
<event>
 4    1  0.1607476E-006  0.2004615E+02  0.7818608E-02  0.1744412E+00
         -2   -1    0    0    0  501 -0.00000000000E+00  0.00000000000E+00  0.48161525131E+01  0.48161532149E+01  0.26000000000E-02 0. -1.
          2   -1    0    0  501    0  0.00000000000E+00 -0.00000000000E+00 -0.20859390282E+02  0.20859390444E+02  0.26000000000E-02 0.  1.
        -13    1    1    2    0    0 -0.10276972737E+01  0.99636341665E+01 -0.84665566064E+01  0.13115788987E+02  0.10570000000E+00 0.  1.
         13    1    1    2    0    0  0.10276972737E+01 -0.99636341665E+01 -0.75766811624E+01  0.12559754672E+02  0.10570000000E+00 0. -1.
<mgrwt>
<rscale>  0 0.20046148E+02</rscale>
<asrwt>0</asrwt>
<pdfrwt beam="2">  1        2 0.32091370E-02 0.20046148E+02</pdfrwt>
<pdfrwt beam="1">  1       -2 0.74094662E-03 0.20046148E+02</pdfrwt>
<totfact> 0.41618217E+06</totfact>
</mgrwt>
</event>
<event>
 4    1  0.1607476E-006  0.2091311E+02  0.7818608E-02  0.1727757E+00
          2   -1    0    0  501    0  0.00000000000E+00  0.00000000000E+00  0.23383047785E+02  0.23383047929E+02  0.26000000000E-02 0.  1.
         -2   -1    0    0    0  501 -0.00000000000E+00 -0.00000000000E+00 -0.46760176462E+01  0.46760183691E+01  0.26000000000E-02 0. -1.
        -13    1    1    2    0    0 -0.21807751517E+01  0.10054191487E+02  0.11858517233E+02  0.15699622613E+02  0.10570000000E+00 0.  1.
         13    1    1    2    0    0  0.21807751517E+01 -0.10054191487E+02  0.68485129053E+01  0.12359443686E+02  0.10570000000E+00 0. -1.
<mgrwt>
<rscale>  0 0.20913111E+02</rscale>
<asrwt>0</asrwt>
<pdfrwt beam="1">  1        2 0.35973920E-02 0.20913111E+02</pdfrwt>
<pdfrwt beam="2">  1       -2 0.71938740E-03 0.20913111E+02</pdfrwt>
<totfact> 0.38221219E+06</totfact>
</mgrwt>
</event>
<event>
 4    1  0.1607476E-006  0.2001248E+02  0.7818608E-02  0.1745080E+00
          2   -1    0    0  501    0  0.00000000000E+00  0.00000000000E+00  0.83469350856E+00  0.83469755794E+00  0.26000000000E-02 0.  1.
         -2   -1    0    0    0  501 -0.00000000000E+00 -0.00000000000E+00 -0.11995370189E+03  0.11995370192E+03  0.26000000000E-02 0. -1.
        -13    1    1    2    0    0 -0.80469800603E+01  0.59446512999E+01 -0.58687296827E+02  0.59534046969E+02  0.10570000000E+00 0. -1.
         13    1    1    2    0    0  0.80469800603E+01 -0.59446512999E+01 -0.60431711556E+02  0.61254352509E+02  0.10570000000E+00 0.  1.
<mgrwt>
<rscale>  0 0.20012478E+02</rscale>
<asrwt>0</asrwt>
<pdfrwt beam="1">  1        2 0.12841479E-03 0.20012478E+02</pdfrwt>
<pdfrwt beam="2">  1       -2 0.18454402E-01 0.20012478E+02</pdfrwt>
<totfact> 0.28305689E+06</totfact>
</mgrwt>
</event>
<event>
 4    1  0.1607476E-006  0.2024962E+02  0.7818608E-02  0.1740409E+00
         -2   -1    0    0    0  501 -0.00000000000E+00  0.00000000000E+00  0.39376867789E+01  0.39376876373E+01  0.26000000000E-02 0.  1.
          2   -1    0    0  501    0  0.00000000000E+00 -0.00000000000E+00 -0.26033495977E+02  0.26033496107E+02  0.26000000000E-02 0. -1.
        -13    1    1    2    0    0  0.10021785543E+02  0.57238554455E+00 -0.90973414541E+01  0.13547568221E+02  0.10570000000E+00 0. -1.
         13    1    1    2    0    0 -0.10021785543E+02 -0.57238554455E+00 -0.12998467744E+02  0.16423615524E+02  0.10570000000E+00 0.  1.
<mgrwt>
<rscale>  0 0.20249619E+02</rscale>
<asrwt>0</asrwt>
<pdfrwt beam="2">  1        2 0.40051532E-02 0.20249619E+02</pdfrwt>
<pdfrwt beam="1">  1       -2 0.60579806E-03 0.20249619E+02</pdfrwt>
<totfact> 0.41554578E+06</totfact>
</mgrwt>
</event>
<event>
 5    1  0.1607476E-006  0.2000586E+02  0.7818608E-02  0.1745212E+00
         -2   -1    0    0    0  501 -0.00000000000E+00  0.00000000000E+00  0.94520078061E+02  0.94520078097E+02  0.26000000000E-02 0.  1.
          2   -1    0    0  501    0  0.00000000000E+00 -0.00000000000E+00 -0.10585949297E+01  0.10585981227E+01  0.26000000000E-02 0. -1.
       1023    2    1    2    0    0  0.00000000000E+00  0.00000000000E+00  0.93461483132E+02  0.95578676220E+02  0.20005862110E+02 0.  0.
        -13    1    3    3    0    0  0.21594672244E+00  0.99992622360E+01  0.47327052569E+02  0.48372440042E+02  0.10570000000E+00 0. -1.
         13    1    3    3    0    0 -0.21594672244E+00 -0.99992622360E+01  0.46134430563E+02  0.47206236178E+02  0.10570000000E+00 0.  1.
<mgrwt>
<rscale>  0 0.20005862E+02</rscale>
<asrwt>0</asrwt>
<pdfrwt beam="2">  1        2 0.16286098E-03 0.20005862E+02</pdfrwt>
<pdfrwt beam="1">  1       -2 0.14541553E-01 0.20005862E+02</pdfrwt>
<totfact> 0.30114954E+06</totfact>
</mgrwt>
</event>
<event>
 5    1  0.1607476E-006  0.2000153E+02  0.7818608E-02  0.1745298E+00
         -2   -1    0    0    0  501 -0.00000000000E+00  0.00000000000E+00  0.53875079179E+02  0.53875079241E+02  0.26000000000E-02 0. -1.
          2   -1    0    0  501    0  0.00000000000E+00 -0.00000000000E+00 -0.18564283650E+01  0.18564301857E+01  0.26000000000E-02 0.  1.
       1023    2    1    2    0    0  0.00000000000E+00  0.00000000000E+00  0.52018650814E+02  0.55731509427E+02  0.20001527705E+02 0.  0.
        -13    1    3    3    0    0  0.13771365706E+01 -0.99049191522E+01  0.26046353952E+02  0.27900316400E+02  0.10570000000E+00 0.  1.
         13    1    3    3    0    0 -0.13771365706E+01  0.99049191522E+01  0.25972296861E+02  0.27831193027E+02  0.10570000000E+00 0. -1.
<mgrwt>
<rscale>  0 0.20001528E+02</rscale>
<asrwt>0</asrwt>
<pdfrwt beam="2">  1        2 0.28560454E-03 0.20001528E+02</pdfrwt>
<pdfrwt beam="1">  1       -2 0.82884729E-02 0.20001528E+02</pdfrwt>
<totfact> 0.33520946E+06</totfact>
</mgrwt>
</event>
<event>
 5    1  0.1607476E-006  0.2000148E+02  0.7818608E-02  0.1745299E+00
         -2   -1    0    0    0  501 -0.00000000000E+00  0.00000000000E+00  0.56025139617E+01  0.56025145650E+01  0.26000000000E-02 0.  1.
          2   -1    0    0  501    0  0.00000000000E+00 -0.00000000000E+00 -0.17851761598E+02  0.17851761787E+02  0.26000000000E-02 0. -1.
       1023    2    1    2    0    0  0.00000000000E+00  0.00000000000E+00 -0.12249247636E+02  0.23454276352E+02  0.20001475235E+02 0.  0.
        -13    1    3    3    0    0  0.86944384846E+01  0.49405925354E+01 -0.60901311302E+01  0.11709124000E+02  0.10570000000E+00 0.  1.
         13    1    3    3    0    0 -0.86944384846E+01 -0.49405925354E+01 -0.61591165061E+01  0.11745152353E+02  0.10570000000E+00 0. -1.
<mgrwt>
<rscale>  0 0.20001475E+02</rscale>
<asrwt>0</asrwt>
<pdfrwt beam="2">  1        2 0.27464249E-02 0.20001475E+02</pdfrwt>
<pdfrwt beam="1">  1       -2 0.86192529E-03 0.20001475E+02</pdfrwt>
<totfact> 0.41264377E+06</totfact>
</mgrwt>
</event>
<event>
 5    1  0.1607476E-006  0.2000169E+02  0.7818608E-02  0.1745295E+00
         -2   -1    0    0    0  501 -0.00000000000E+00  0.00000000000E+00  0.53307547607E+02  0.53307547670E+02  0.26000000000E-02 0. -1.
          2   -1    0    0  501    0  0.00000000000E+00 -0.00000000000E+00 -0.18762224359E+01  0.18762242374E+01  0.26000000000E-02 0.  1.
       1023    2    1    2    0    0  0.00000000000E+00  0.00000000000E+00  0.51431325171E+02  0.55183771908E+02  0.20001686757E+02 0.  0.
        -13    1    3    3    0    0 -0.61328940368E+01 -0.78987573088E+01  0.25566079903E+02  0.27452474759E+02  0.10570000000E+00 0.  1.
         13    1    3    3    0    0  0.61328940368E+01  0.78987573088E+01  0.25865245268E+02  0.27731297149E+02  0.10570000000E+00 0. -1.
<mgrwt>
<rscale>  0 0.20001687E+02</rscale>
<asrwt>0</asrwt>
<pdfrwt beam="2">  1        2 0.28864977E-03 0.20001687E+02</pdfrwt>
<pdfrwt beam="1">  1       -2 0.82011606E-02 0.20001687E+02</pdfrwt>
<totfact> 0.33574137E+06</totfact>
</mgrwt>
</event>
<event>
 5    1  0.1607476E-006  0.2000220E+02  0.7818608E-02  0.1745284E+00
          2   -1    0    0  501    0  0.00000000000E+00  0.00000000000E+00  0.47603530436E+01  0.47603537536E+01  0.26000000000E-02 0.  1.
         -2   -1    0    0    0  501 -0.00000000000E+00 -0.00000000000E+00 -0.21011468057E+02  0.21011468218E+02  0.26000000000E-02 0. -1.
       1023    2    1    2    0    0  0.00000000000E+00  0.00000000000E+00 -0.16251115014E+02  0.25771821972E+02  0.20002201593E+02 0.  0.
        -13    1    3    3    0    0 -0.91461859819E+01 -0.40445180552E+01 -0.81263018634E+01  0.12886380360E+02  0.10570000000E+00 0.  1.
         13    1    3    3    0    0  0.91461859819E+01  0.40445180552E+01 -0.81248131502E+01  0.12885441612E+02  0.10570000000E+00 0. -1.
<mgrwt>
<rscale>  0 0.20002202E+02</rscale>
<asrwt>0</asrwt>
<pdfrwt beam="1">  1        2 0.73236208E-03 0.20002202E+02</pdfrwt>
<pdfrwt beam="2">  1       -2 0.32325336E-02 0.20002202E+02</pdfrwt>
<totfact> 0.37269722E+06</totfact>
</mgrwt>
</event>
<event>
 5    1  0.1640059E-006  0.2000162E+02  0.7818608E-02  0.1745296E+00
         -2   -1    0    0    0  501 -0.00000000000E+00  0.00000000000E+00  0.25773139288E+01  0.25773152402E+01  0.26000000000E-02 0. -1.
          2   -1    0    0  501    0  0.00000000000E+00 -0.00000000000E+00 -0.38806351065E+02  0.38806351152E+02  0.26000000000E-02 0.  1.
       1023    2    1    2    0    0  0.00000000000E+00  0.00000000000E+00 -0.36229037136E+02  0.41383666392E+02  0.20001617741E+02 0.  0.
        -13    1    3    3    0    0 -0.66856990272E+01 -0.74368293627E+01 -0.18110863322E+02  0.20688633236E+02  0.10570000000E+00 0.  1.
         13    1    3    3    0    0  0.66856990272E+01  0.74368293627E+01 -0.18118173815E+02  0.20695033156E+02  0.10570000000E+00 0. -1.
<mgrwt>
<rscale>  0 0.20001618E+02</rscale>
<asrwt>0</asrwt>
<pdfrwt beam="2">  1        2 0.59702075E-02 0.20001618E+02</pdfrwt>
<pdfrwt beam="1">  1       -2 0.39650997E-03 0.20001618E+02</pdfrwt>
<totfact> 0.44712067E+06</totfact>
</mgrwt>
</event>
<event>
 5    1  0.1607476E-006  0.2000114E+02  0.7818608E-02  0.1745305E+00
          2   -1    0    0  501    0  0.00000000000E+00  0.00000000000E+00  0.56353141289E+01  0.56353147287E+01  0.26000000000E-02 0. -1.
         -2   -1    0    0    0  501 -0.00000000000E+00 -0.00000000000E+00 -0.17747258421E+02  0.17747258612E+02  0.26000000000E-02 0.  1.
       1023    2    1    2    0    0  0.00000000000E+00  0.00000000000E+00 -0.12111944292E+02  0.23382573340E+02  0.20001138505E+02 0.  0.
        -13    1    3    3    0    0  0.56392038073E-01  0.99998481805E+01 -0.60462482850E+01  0.11686249805E+02  0.10570000000E+00 0. -1.
         13    1    3    3    0    0 -0.56392038073E-01 -0.99998481805E+01 -0.60656960074E+01  0.11696323535E+02  0.10570000000E+00 0.  1.
<mgrwt>
<rscale>  0 0.20001139E+02</rscale>
<asrwt>0</asrwt>
<pdfrwt beam="1">  1        2 0.86697147E-03 0.20001139E+02</pdfrwt>
<pdfrwt beam="2">  1       -2 0.27303475E-02 0.20001139E+02</pdfrwt>
<totfact> 0.37795531E+06</totfact>
</mgrwt>
</event>
<event>
 5    1  0.1607476E-006  0.2000316E+02  0.7818608E-02  0.1745265E+00
         -2   -1    0    0    0  501 -0.00000000000E+00  0.00000000000E+00  0.11550018463E+01  0.11550047727E+01  0.26000000000E-02 0.  1.
          2   -1    0    0  501    0  0.00000000000E+00 -0.00000000000E+00 -0.86607156016E+02  0.86607156055E+02  0.26000000000E-02 0. -1.
       1023    2    1    2    0    0  0.00000000000E+00  0.00000000000E+00 -0.85452154170E+02  0.87762160828E+02  0.20003155274E+02 0.  0.
        -13    1    3    3    0    0  0.45578265359E+01  0.89018797309E+01 -0.42971821816E+02  0.44120356845E+02  0.10570000000E+00 0. -1.
         13    1    3    3    0    0 -0.45578265359E+01 -0.89018797309E+01 -0.42480332354E+02  0.43641803983E+02  0.10570000000E+00 0.  1.
<mgrwt>
<rscale>  0 0.20003155E+02</rscale>
<asrwt>0</asrwt>
<pdfrwt beam="2">  1        2 0.13324173E-01 0.20003155E+02</pdfrwt>
<pdfrwt beam="1">  1       -2 0.17769289E-03 0.20003155E+02</pdfrwt>
<totfact> 0.51107888E+06</totfact>
</mgrwt>
</event>
<event>
 4    1  0.1607476E-006  0.2001677E+02  0.7818608E-02  0.1744995E+00
          2   -1    0    0  501    0  0.00000000000E+00  0.00000000000E+00  0.10163723689E+02  0.10163724021E+02  0.26000000000E-02 0.  1.
         -2   -1    0    0    0  501 -0.00000000000E+00 -0.00000000000E+00 -0.98554245441E+01  0.98554248871E+01  0.26000000000E-02 0. -1.
        -13    1    1    2    0    0  0.77004012632E+01  0.63853534611E+01  0.45037338460E+00  0.10014136364E+02  0.10570000000E+00 0. -1.
         13    1    1    2    0    0 -0.77004012632E+01 -0.63853534611E+01 -0.14207423993E+00  0.10005012545E+02  0.10570000000E+00 0.  1.
<mgrwt>
<rscale>  0 0.20016775E+02</rscale>
<asrwt>0</asrwt>
<pdfrwt beam="1">  1        2 0.15636499E-02 0.20016775E+02</pdfrwt>
<pdfrwt beam="2">  1       -2 0.15162192E-02 0.20016775E+02</pdfrwt>
<totfact> 0.39434616E+06</totfact>
</mgrwt>
</event>
<event>
 4    1  0.1607476E-006  0.2002817E+02  0.7818608E-02  0.1744769E+00
         -2   -1    0    0    0  501 -0.00000000000E+00  0.00000000000E+00  0.12244874110E+01  0.12244901713E+01  0.26000000000E-02 0. -1.
          2   -1    0    0  501    0  0.00000000000E+00 -0.00000000000E+00 -0.81896926772E+02  0.81896926813E+02  0.26000000000E-02 0.  1.
        -13    1    1    2    0    0 -0.48033103997E+00 -0.10000123896E+02 -0.41139949561E+02  0.42340758357E+02  0.10570000000E+00 0.  1.
         13    1    1    2    0    0  0.48033103997E+00  0.10000123896E+02 -0.39532489800E+02  0.40780658628E+02  0.10570000000E+00 0. -1.
<mgrwt>
<rscale>  0 0.20028167E+02</rscale>
<asrwt>0</asrwt>
<pdfrwt beam="2">  1        2 0.12599523E-01 0.20028167E+02</pdfrwt>
<pdfrwt beam="1">  1       -2 0.18838296E-03 0.20028167E+02</pdfrwt>
<totfact> 0.50380981E+06</totfact>
</mgrwt>
</event>
<event>
 5    1  0.1607476E-006  0.2000241E+02  0.7818608E-02  0.1745280E+00
         -2   -1    0    0    0  501 -0.00000000000E+00  0.00000000000E+00  0.19803743975E+02  0.19803744146E+02  0.26000000000E-02 0. -1.
          2   -1    0    0  501    0  0.00000000000E+00 -0.00000000000E+00 -0.50507685736E+01  0.50507692428E+01  0.26000000000E-02 0.  1.
       1023    2    1    2    0    0  0.00000000000E+00  0.00000000000E+00  0.14752975402E+02  0.24854513389E+02  0.20002413669E+02 0.  0.
        -13    1    3    3    0    0  0.95933490854E+01 -0.28249652211E+01  0.73593381887E+01  0.12417077202E+02  0.10570000000E+00 0. -1.
         13    1    3    3    0    0 -0.95933490854E+01  0.28249652211E+01  0.73936372130E+01  0.12437436187E+02  0.10570000000E+00 0.  1.
<mgrwt>
<rscale>  0 0.20002414E+02</rscale>
<asrwt>0</asrwt>
<pdfrwt beam="2">  1        2 0.77704139E-03 0.20002414E+02</pdfrwt>
<pdfrwt beam="1">  1       -2 0.30467299E-02 0.20002414E+02</pdfrwt>
<totfact> 0.37454837E+06</totfact>
</mgrwt>
</event>
<event>
 4    1  0.1607476E-006  0.2048629E+02  0.7818608E-02  0.1735827E+00
          2   -1    0    0  501    0  0.00000000000E+00  0.00000000000E+00  0.51476588982E+02  0.51476589047E+02  0.26000000000E-02 0.  1.
         -2   -1    0    0    0  501 -0.00000000000E+00 -0.00000000000E+00 -0.20382464596E+01  0.20382481179E+01  0.26000000000E-02 0. -1.
        -13    1    1    2    0    0  0.11170812635E+01  0.10112266098E+02  0.27815572234E+02  0.29617951100E+02  0.10570000000E+00 0.  1.
         13    1    1    2    0    0 -0.11170812635E+01 -0.10112266098E+02  0.21622770288E+02  0.23896886065E+02  0.10570000000E+00 0. -1.
<mgrwt>
<rscale>  0 0.20486290E+02</rscale>
<asrwt>0</asrwt>
<pdfrwt beam="1">  1        2 0.79194751E-02 0.20486290E+02</pdfrwt>
<pdfrwt beam="2">  1       -2 0.31357652E-03 0.20486290E+02</pdfrwt>
<totfact> 0.44103975E+06</totfact>
</mgrwt>
</event>
<event>
 4    1  0.1607476E-006  0.2075363E+02  0.7818608E-02  0.1730744E+00
          2   -1    0    0  501    0  0.00000000000E+00  0.00000000000E+00  0.21138353319E+02  0.21138353479E+02  0.26000000000E-02 0. -1.
         -2   -1    0    0    0  501 -0.00000000000E+00 -0.00000000000E+00 -0.50939783305E+01  0.50939789941E+01  0.26000000000E-02 0.  1.
        -13    1    1    2    0    0 -0.10069284018E+02  0.24144179705E+01  0.71768668377E+01  0.12599146196E+02  0.10570000000E+00 0.  1.
         13    1    1    2    0    0  0.10069284018E+02 -0.24144179705E+01  0.88675081510E+01  0.13633186277E+02  0.10570000000E+00 0. -1.
<mgrwt>
<rscale>  0 0.20753633E+02</rscale>
<asrwt>0</asrwt>
<pdfrwt beam="1">  1        2 0.32520544E-02 0.20753633E+02</pdfrwt>
<pdfrwt beam="2">  1       -2 0.78368903E-03 0.20753633E+02</pdfrwt>
<totfact> 0.38522382E+06</totfact>
</mgrwt>
</event>
<event>
 5    1  0.1607476E-006  0.2000216E+02  0.7818608E-02  0.1745285E+00
          2   -1    0    0  501    0  0.00000000000E+00  0.00000000000E+00  0.14533406672E+02  0.14533406904E+02  0.26000000000E-02 0.  1.
         -2   -1    0    0    0  501 -0.00000000000E+00 -0.00000000000E+00 -0.68821852933E+01  0.68821857844E+01  0.26000000000E-02 0. -1.
       1023    2    1    2    0    0  0.00000000000E+00  0.00000000000E+00  0.76512213786E+01  0.21415592689E+02  0.20002160424E+02 0.  0.
        -13    1    3    3    0    0 -0.93455066017E+01  0.35592631037E+01  0.37615009402E+01  0.10684891637E+02  0.10570000000E+00 0.  1.
         13    1    3    3    0    0  0.93455066017E+01 -0.35592631037E+01  0.38897204384E+01  0.10730701052E+02  0.10570000000E+00 0. -1.
<mgrwt>
<rscale>  0 0.20002160E+02</rscale>
<asrwt>0</asrwt>
<pdfrwt beam="1">  1        2 0.22359088E-02 0.20002160E+02</pdfrwt>
<pdfrwt beam="2">  1       -2 0.10587978E-02 0.20002160E+02</pdfrwt>
<totfact> 0.40578590E+06</totfact>
</mgrwt>
</event>
<event>
 5    1  0.1626116E-006  0.2000164E+02  0.7818608E-02  0.1745295E+00
          2   -1    0    0  501    0  0.00000000000E+00  0.00000000000E+00  0.80838214282E+02  0.80838214324E+02  0.26000000000E-02 0.  1.
         -2   -1    0    0    0  501 -0.00000000000E+00 -0.00000000000E+00 -0.12372402797E+01  0.12372430116E+01  0.26000000000E-02 0. -1.
       1023    2    1    2    0    0  0.00000000000E+00  0.00000000000E+00  0.79600974002E+02  0.82075457335E+02  0.20001640800E+02 0.  0.
        -13    1    3    3    0    0  0.99978047643E+01 -0.21115016010E+00  0.39523643690E+02  0.40769231873E+02  0.10570000000E+00 0. -1.
         13    1    3    3    0    0 -0.99978047643E+01  0.21115016010E+00  0.40077330313E+02  0.41306225463E+02  0.10570000000E+00 0.  1.
<mgrwt>
<rscale>  0 0.20001641E+02</rscale>
<asrwt>0</asrwt>
<pdfrwt beam="1">  1        2 0.12436650E-01 0.20001641E+02</pdfrwt>
<pdfrwt beam="2">  1       -2 0.19034485E-03 0.20001641E+02</pdfrwt>
<totfact> 0.50396004E+06</totfact>
</mgrwt>
</event>
<event>
 5    1  0.1607476E-006  0.2000205E+02  0.7818608E-02  0.1745287E+00
          2   -1    0    0  501    0  0.00000000000E+00  0.00000000000E+00  0.28300031159E+01  0.28300043102E+01  0.26000000000E-02 0.  1.
         -2   -1    0    0    0  501 -0.00000000000E+00 -0.00000000000E+00 -0.35342885902E+02  0.35342885997E+02  0.26000000000E-02 0. -1.
       1023    2    1    2    0    0  0.00000000000E+00  0.00000000000E+00 -0.32512882786E+02  0.38172890308E+02  0.20002050080E+02 0.  0.
        -13    1    3    3    0    0 -0.70524648973E+01 -0.70899005921E+01 -0.16116487905E+02  0.18967242984E+02  0.10570000000E+00 0.  1.
         13    1    3    3    0    0  0.70524648973E+01  0.70899005921E+01 -0.16396394881E+02  0.19205647323E+02  0.10570000000E+00 0. -1.
<mgrwt>
<rscale>  0 0.20002050E+02</rscale>
<asrwt>0</asrwt>
<pdfrwt beam="1">  1        2 0.43538522E-03 0.20002050E+02</pdfrwt>
<pdfrwt beam="2">  1       -2 0.54373668E-02 0.20002050E+02</pdfrwt>
<totfact> 0.35425998E+06</totfact>
</mgrwt>
</event>
<event>
 5    1  0.1607476E-006  0.2000670E+02  0.7818608E-02  0.1745195E+00
          2   -1    0    0  501    0  0.00000000000E+00  0.00000000000E+00  0.11663625778E+02  0.11663626067E+02  0.26000000000E-02 0. -1.
         -2   -1    0    0    0  501 -0.00000000000E+00 -0.00000000000E+00 -0.85794043348E+01  0.85794047287E+01  0.26000000000E-02 0.  1.
       1023    2    1    2    0    0  0.00000000000E+00  0.00000000000E+00  0.30842214428E+01  0.20243030796E+02  0.20006695727E+02 0.  0.
        -13    1    3    3    0    0 -0.15290327224E+00 -0.10000455775E+02  0.13876613003E+01  0.10097983536E+02  0.10570000000E+00 0. -1.
         13    1    3    3    0    0  0.15290327224E+00  0.10000455775E+02  0.16965601426E+01  0.10145047261E+02  0.10570000000E+00 0.  1.
<mgrwt>
<rscale>  0 0.20006696E+02</rscale>
<asrwt>0</asrwt>
<pdfrwt beam="1">  1        2 0.17944040E-02 0.20006696E+02</pdfrwt>
<pdfrwt beam="2">  1       -2 0.13199084E-02 0.20006696E+02</pdfrwt>
<totfact> 0.39883497E+06</totfact>
</mgrwt>
</event>
<event>
 4    1  0.1607476E-006  0.2002630E+02  0.7818608E-02  0.1744806E+00
         -2   -1    0    0    0  501 -0.00000000000E+00  0.00000000000E+00  0.15472699285E+01  0.15472721130E+01  0.26000000000E-02 0. -1.
          2   -1    0    0  501    0  0.00000000000E+00 -0.00000000000E+00 -0.64800000690E+02  0.64800000742E+02  0.26000000000E-02 0.  1.
        -13    1    1    2    0    0 -0.86657982818E+01 -0.50139864859E+01 -0.31208955421E+02  0.32775695131E+02  0.10570000000E+00 0. -1.
         13    1    1    2    0    0  0.86657982818E+01  0.50139864859E+01 -0.32043775340E+02  0.33571577724E+02  0.10570000000E+00 0.  1.
<mgrwt>
<rscale>  0 0.20026299E+02</rscale>
<asrwt>0</asrwt>
<pdfrwt beam="2">  1        2 0.99692289E-02 0.20026299E+02</pdfrwt>
<pdfrwt beam="1">  1       -2 0.23804175E-03 0.20026299E+02</pdfrwt>
<totfact> 0.48197099E+06</totfact>
</mgrwt>
</event>
<event>
 4    1  0.1607476E-006  0.2001243E+02  0.7818608E-02  0.1745081E+00
         -2   -1    0    0    0  501 -0.00000000000E+00  0.00000000000E+00  0.20296385715E+02  0.20296385882E+02  0.26000000000E-02 0. -1.
          2   -1    0    0  501    0  0.00000000000E+00 -0.00000000000E+00 -0.49331101168E+01  0.49331108020E+01  0.26000000000E-02 0.  1.
        -13    1    1    2    0    0  0.72428200103E+00 -0.99741399792E+01  0.72729496704E+01  0.12365881373E+02  0.10570000000E+00 0. -1.
         13    1    1    2    0    0 -0.72428200103E+00  0.99741399792E+01  0.80903259283E+01  0.12863615311E+02  0.10570000000E+00 0.  1.
<mgrwt>
<rscale>  0 0.20012428E+02</rscale>
<asrwt>0</asrwt>
<pdfrwt beam="2">  1        2 0.75894009E-03 0.20012428E+02</pdfrwt>
<pdfrwt beam="1">  1       -2 0.31225209E-02 0.20012428E+02</pdfrwt>
<totfact> 0.37337498E+06</totfact>
</mgrwt>
</event>
<event>
 4    1  0.1607476E-006  0.2011531E+02  0.7818608E-02  0.1743045E+00
          2   -1    0    0  501    0  0.00000000000E+00  0.00000000000E+00  0.11928842227E+01  0.11928870562E+01  0.26000000000E-02 0.  1.
         -2   -1    0    0    0  501 -0.00000000000E+00 -0.00000000000E+00 -0.84799749319E+02  0.84799749358E+02  0.26000000000E-02 0. -1.
        -13    1    1    2    0    0 -0.77045894145E+00  0.10014094706E+02 -0.44022863454E+02  0.45154173439E+02  0.10570000000E+00 0. -1.
         13    1    1    2    0    0  0.77045894145E+00 -0.10014094706E+02 -0.39584001642E+02  0.40838462976E+02  0.10570000000E+00 0.  1.
<mgrwt>
<rscale>  0 0.20115308E+02</rscale>
<asrwt>0</asrwt>
<pdfrwt beam="1">  1        2 0.18352094E-03 0.20115308E+02</pdfrwt>
<pdfrwt beam="2">  1       -2 0.13046111E-01 0.20115308E+02</pdfrwt>
<totfact> 0.30492323E+06</totfact>
</mgrwt>
</event>
<event>
 4    1  0.1607476E-006  0.2003612E+02  0.7818608E-02  0.1744611E+00
          2   -1    0    0  501    0  0.00000000000E+00  0.00000000000E+00  0.26774768322E+01  0.26774780946E+01  0.26000000000E-02 0. -1.
         -2   -1    0    0    0  501 -0.00000000000E+00 -0.00000000000E+00 -0.37483617935E+02  0.37483618025E+02  0.26000000000E-02 0.  1.
        -13    1    1    2    0    0  0.69551340885E+01 -0.72093628689E+01 -0.17323645567E+02  0.20011713355E+02  0.10570000000E+00 0. -1.
         13    1    1    2    0    0 -0.69551340885E+01  0.72093628689E+01 -0.17482495535E+02  0.20149382765E+02  0.10570000000E+00 0.  1.
<mgrwt>
<rscale>  0 0.20036122E+02</rscale>
<asrwt>0</asrwt>
<pdfrwt beam="1">  1        2 0.41191964E-03 0.20036122E+02</pdfrwt>
<pdfrwt beam="2">  1       -2 0.57667102E-02 0.20036122E+02</pdfrwt>
<totfact> 0.35055951E+06</totfact>
</mgrwt>
</event>
<event>
 5    1  0.1607476E-006  0.2000177E+02  0.7818608E-02  0.1745293E+00
         -2   -1    0    0    0  501 -0.00000000000E+00  0.00000000000E+00  0.97593267967E+02  0.97593268002E+02  0.26000000000E-02 0.  1.
          2   -1    0    0  501    0  0.00000000000E+00 -0.00000000000E+00 -0.10248404579E+01  0.10248437560E+01  0.26000000000E-02 0. -1.
       1023    2    1    2    0    0  0.00000000000E+00  0.00000000000E+00  0.96568427509E+02  0.98618111758E+02  0.20001769298E+02 0.  0.
        -13    1    3    3    0    0 -0.98278100755E+01  0.18477843328E+01  0.48677523561E+02  0.49694191113E+02  0.10570000000E+00 0.  1.
         13    1    3    3    0    0  0.98278100755E+01 -0.18477843328E+01  0.47890903948E+02  0.48923920645E+02  0.10570000000E+00 0. -1.
<mgrwt>
<rscale>  0 0.20001769E+02</rscale>
<asrwt>0</asrwt>
<pdfrwt beam="2">  1        2 0.15766800E-03 0.20001769E+02</pdfrwt>
<pdfrwt beam="1">  1       -2 0.15014351E-01 0.20001769E+02</pdfrwt>
<totfact> 0.29900857E+06</totfact>
</mgrwt>
</event>
<event>
 4    1  0.1607476E-006  0.2012750E+02  0.7818608E-02  0.1742804E+00
          2   -1    0    0  501    0  0.00000000000E+00  0.00000000000E+00  0.91769518087E+02  0.91769518124E+02  0.26000000000E-02 0. -1.
         -2   -1    0    0    0  501 -0.00000000000E+00 -0.00000000000E+00 -0.11036225051E+01  0.11036255677E+01  0.26000000000E-02 0.  1.
        -13    1    1    2    0    0  0.74565838005E+01 -0.67363280523E+01  0.42851878635E+02  0.44014468446E+02  0.10570000000E+00 0.  1.
         13    1    1    2    0    0 -0.74565838005E+01  0.67363280523E+01  0.47814016948E+02  0.48858675246E+02  0.10570000000E+00 0. -1.
<mgrwt>
<rscale>  0 0.20127499E+02</rscale>
<asrwt>0</asrwt>
<pdfrwt beam="1">  1        2 0.14118382E-01 0.20127499E+02</pdfrwt>
<pdfrwt beam="2">  1       -2 0.16978838E-03 0.20127499E+02</pdfrwt>
<totfact> 0.51039745E+06</totfact>
</mgrwt>
</event>
<event>
 5    1  0.1607476E-006  0.2000550E+02  0.7818608E-02  0.1745219E+00
          2   -1    0    0  501    0  0.00000000000E+00  0.00000000000E+00  0.97784227219E+00  0.97784572878E+00  0.26000000000E-02 0. -1.
         -2   -1    0    0    0  501 -0.00000000000E+00 -0.00000000000E+00 -0.10232201716E+03  0.10232201719E+03  0.26000000000E-02 0.  1.
       1023    2    1    2    0    0  0.00000000000E+00  0.00000000000E+00 -0.10134417489E+03  0.10329986292E+03  0.20005496644E+02 0.  0.
        -13    1    3    3    0    0 -0.97808990446E+01  0.20918239737E+01 -0.50908026422E+02  0.51881403608E+02  0.10570000000E+00 0.  1.
         13    1    3    3    0    0  0.97808990446E+01 -0.20918239737E+01 -0.50436148468E+02  0.51418459316E+02  0.10570000000E+00 0. -1.
<mgrwt>
<rscale>  0 0.20005497E+02</rscale>
<asrwt>0</asrwt>
<pdfrwt beam="1">  1        2 0.15043762E-03 0.20005497E+02</pdfrwt>
<pdfrwt beam="2">  1       -2 0.15741841E-01 0.20005497E+02</pdfrwt>
<totfact> 0.29545239E+06</totfact>
</mgrwt>
</event>
<event>
 4    1  0.1607476E-006  0.2003645E+02  0.7818608E-02  0.1744604E+00
          2   -1    0    0  501    0  0.00000000000E+00  0.00000000000E+00  0.17904274702E+01  0.17904293581E+01  0.26000000000E-02 0.  1.
         -2   -1    0    0    0  501 -0.00000000000E+00 -0.00000000000E+00 -0.56056339908E+02  0.56056339968E+02  0.26000000000E-02 0. -1.
        -13    1    1    2    0    0  0.80287539397E+01  0.59617401499E+01 -0.28842093827E+02  0.30526722462E+02  0.10570000000E+00 0.  1.
         13    1    1    2    0    0 -0.80287539397E+01 -0.59617401499E+01 -0.25423818610E+02  0.27320046864E+02  0.10570000000E+00 0. -1.
<mgrwt>
<rscale>  0 0.20036453E+02</rscale>
<asrwt>0</asrwt>
<pdfrwt beam="1">  1        2 0.27545057E-03 0.20036453E+02</pdfrwt>
<pdfrwt beam="2">  1       -2 0.86240511E-02 0.20036453E+02</pdfrwt>
<totfact> 0.33189664E+06</totfact>
</mgrwt>
</event>
<event>
 5    1  0.1607476E-006  0.2000191E+02  0.7818608E-02  0.1745290E+00
         -2   -1    0    0    0  501 -0.00000000000E+00  0.00000000000E+00  0.43115089065E+02  0.43115089144E+02  0.26000000000E-02 0. -1.
          2   -1    0    0  501    0  0.00000000000E+00 -0.00000000000E+00 -0.23198154112E+01  0.23198168682E+01  0.26000000000E-02 0.  1.
       1023    2    1    2    0    0  0.00000000000E+00  0.00000000000E+00  0.40795273654E+02  0.45434906012E+02  0.20001908204E+02 0.  0.
        -13    1    3    3    0    0  0.91838736538E+01 -0.39577174624E+01  0.20331502286E+02  0.22658071862E+02  0.10570000000E+00 0.  1.
         13    1    3    3    0    0 -0.91838736538E+01  0.39577174624E+01  0.20463771368E+02  0.22776834150E+02  0.10570000000E+00 0. -1.
<mgrwt>
<rscale>  0 0.20001908E+02</rscale>
<asrwt>0</asrwt>
<pdfrwt beam="2">  1        2 0.35689482E-03 0.20001908E+02</pdfrwt>
<pdfrwt beam="1">  1       -2 0.66330904E-02 0.20001908E+02</pdfrwt>
<totfact> 0.34584229E+06</totfact>
</mgrwt>
</event>
<event>
 4    1  0.1607476E-006  0.2031529E+02  0.7818608E-02  0.1739130E+00
          2   -1    0    0  501    0  0.00000000000E+00  0.00000000000E+00  0.27518664046E+02  0.27518664169E+02  0.26000000000E-02 0. -1.
         -2   -1    0    0    0  501 -0.00000000000E+00 -0.00000000000E+00 -0.37493714835E+01  0.37493723850E+01  0.26000000000E-02 0.  1.
        -13    1    1    2    0    0  0.99496731144E+01 -0.12344806324E+01  0.14388574341E+02  0.17537450828E+02  0.10570000000E+00 0. -1.
         13    1    1    2    0    0 -0.99496731144E+01  0.12344806324E+01  0.93807182220E+01  0.13730585726E+02  0.10570000000E+00 0.  1.
<mgrwt>
<rscale>  0 0.20315286E+02</rscale>
<asrwt>0</asrwt>
<pdfrwt beam="1">  1        2 0.42336407E-02 0.20315286E+02</pdfrwt>
<pdfrwt beam="2">  1       -2 0.57682646E-03 0.20315286E+02</pdfrwt>
<totfact> 0.41489461E+06</totfact>
</mgrwt>
</event>
<event>
 5    1  0.1607476E-006  0.2000579E+02  0.7818608E-02  0.1745213E+00
          2   -1    0    0  501    0  0.00000000000E+00  0.00000000000E+00  0.37896192502E+01  0.37896201421E+01  0.26000000000E-02 0. -1.
         -2   -1    0    0    0  501 -0.00000000000E+00 -0.00000000000E+00 -0.26403153482E+02  0.26403153610E+02  0.26000000000E-02 0.  1.
       1023    2    1    2    0    0  0.00000000000E+00  0.00000000000E+00 -0.22613534232E+02  0.30192773752E+02  0.20005790571E+02 0.  0.
        -13    1    3    3    0    0 -0.53271547751E+01  0.84631494836E+01 -0.10992851605E+02  0.14861273031E+02  0.10570000000E+00 0. -1.
         13    1    3    3    0    0  0.53271547751E+01 -0.84631494836E+01 -0.11620682626E+02  0.15331500722E+02  0.10570000000E+00 0.  1.
<mgrwt>
<rscale>  0 0.20005791E+02</rscale>
<asrwt>0</asrwt>
<pdfrwt beam="1">  1        2 0.58301844E-03 0.20005791E+02</pdfrwt>
<pdfrwt beam="2">  1       -2 0.40620236E-02 0.20005791E+02</pdfrwt>
<totfact> 0.36498533E+06</totfact>
</mgrwt>
</event>
<event>
 4    1  0.1607476E-006  0.2069280E+02  0.7818608E-02  0.1731892E+00
          2   -1    0    0  501    0  0.00000000000E+00  0.00000000000E+00  0.23690148177E+01  0.23690162444E+01  0.26000000000E-02 0. -1.
         -2   -1    0    0    0  501 -0.00000000000E+00 -0.00000000000E+00 -0.45186703756E+02  0.45186703831E+02  0.26000000000E-02 0.  1.
        -13    1    1    2    0    0 -0.34199045939E+01 -0.97621353358E+01 -0.20938979776E+02  0.23354808505E+02  0.10570000000E+00 0. -1.
         13    1    1    2    0    0  0.34199045939E+01  0.97621353358E+01 -0.21878709163E+02  0.24200911571E+02  0.10570000000E+00 0.  1.
<mgrwt>
<rscale>  0 0.20692801E+02</rscale>
<asrwt>0</asrwt>
<pdfrwt beam="1">  1        2 0.36446397E-03 0.20692801E+02</pdfrwt>
<pdfrwt beam="2">  1       -2 0.69518001E-02 0.20692801E+02</pdfrwt>
<totfact> 0.31905393E+06</totfact>
</mgrwt>
</event>
<event>
 5    1  0.1607476E-006  0.2000159E+02  0.7818608E-02  0.1745296E+00
          2   -1    0    0  501    0  0.00000000000E+00  0.00000000000E+00  0.13078967481E+01  0.13078993324E+01  0.26000000000E-02 0. -1.
         -2   -1    0    0    0  501 -0.00000000000E+00 -0.00000000000E+00 -0.76470709332E+02  0.76470709376E+02  0.26000000000E-02 0.  1.
       1023    2    1    2    0    0  0.00000000000E+00  0.00000000000E+00 -0.75162812584E+02  0.77778608709E+02  0.20001589365E+02 0.  0.
        -13    1    3    3    0    0  0.40102618304E+01  0.91607361158E+01 -0.37809335800E+02  0.39109568295E+02  0.10570000000E+00 0.  1.
         13    1    3    3    0    0 -0.40102618304E+01 -0.91607361158E+01 -0.37353476784E+02  0.38669040414E+02  0.10570000000E+00 0. -1.
<mgrwt>
<rscale>  0 0.20001589E+02</rscale>
<asrwt>0</asrwt>
<pdfrwt beam="1">  1        2 0.20121515E-03 0.20001589E+02</pdfrwt>
<pdfrwt beam="2">  1       -2 0.11764721E-01 0.20001589E+02</pdfrwt>
<totfact> 0.31538307E+06</totfact>
</mgrwt>
</event>
<event>
 5    1  0.1607476E-006  0.2000125E+02  0.7818608E-02  0.1745303E+00
         -2   -1    0    0    0  501 -0.00000000000E+00  0.00000000000E+00  0.39837431127E+01  0.39837439611E+01  0.26000000000E-02 0.  1.
          2   -1    0    0  501    0  0.00000000000E+00 -0.00000000000E+00 -0.25105143603E+02  0.25105143737E+02  0.26000000000E-02 0. -1.
       1023    2    1    2    0    0  0.00000000000E+00  0.00000000000E+00 -0.21121400490E+02  0.29088887698E+02  0.20001245683E+02 0.  0.
        -13    1    3    3    0    0  0.38319514587E+01 -0.92367435829E+01 -0.10561941813E+02  0.14545345350E+02  0.10570000000E+00 0.  1.
         13    1    3    3    0    0 -0.38319514587E+01  0.92367435829E+01 -0.10559458677E+02  0.14543542348E+02  0.10570000000E+00 0. -1.
<mgrwt>
<rscale>  0 0.20001246E+02</rscale>
<asrwt>0</asrwt>
<pdfrwt beam="2">  1        2 0.38623298E-02 0.20001246E+02</pdfrwt>
<pdfrwt beam="1">  1       -2 0.61288364E-03 0.20001246E+02</pdfrwt>
<totfact> 0.42568411E+06</totfact>
</mgrwt>
</event>
<event>
 5    1  0.1607476E-006  0.2000148E+02  0.7818608E-02  0.1745299E+00
          2   -1    0    0  501    0  0.00000000000E+00  0.00000000000E+00  0.85430065305E+02  0.85430065345E+02  0.26000000000E-02 0. -1.
         -2   -1    0    0    0  501 -0.00000000000E+00 -0.00000000000E+00 -0.11707196429E+01  0.11707225300E+01  0.26000000000E-02 0.  1.
       1023    2    1    2    0    0  0.00000000000E+00  0.00000000000E+00  0.84259345662E+02  0.86600787875E+02  0.20001478173E+02 0.  0.
        -13    1    3    3    0    0  0.90085286282E+01 -0.43416213090E+01  0.42049118494E+02  0.43222017563E+02  0.10570000000E+00 0. -1.
         13    1    3    3    0    0 -0.90085286282E+01  0.43416213090E+01  0.42210227169E+02  0.43378770312E+02  0.10570000000E+00 0.  1.
<mgrwt>
<rscale>  0 0.20001478E+02</rscale>
<asrwt>0</asrwt>
<pdfrwt beam="1">  1        2 0.13143090E-01 0.20001478E+02</pdfrwt>
<pdfrwt beam="2">  1       -2 0.18011091E-03 0.20001478E+02</pdfrwt>
<totfact> 0.50971124E+06</totfact>
</mgrwt>
</event>
<event>
 5    1  0.1607476E-006  0.2000129E+02  0.7818608E-02  0.1745302E+00
         -2   -1    0    0    0  501 -0.00000000000E+00  0.00000000000E+00  0.48654060251E+02  0.48654060320E+02  0.26000000000E-02 0.  1.
          2   -1    0    0  501    0  0.00000000000E+00 -0.00000000000E+00 -0.20555914096E+01  0.20555930539E+01  0.26000000000E-02 0. -1.
       1023    2    1    2    0    0  0.00000000000E+00  0.00000000000E+00  0.46598468841E+02  0.50709653374E+02  0.20001291133E+02 0.  0.
        -13    1    3    3    0    0  0.69703706480E+01 -0.71704235333E+01  0.23232221441E+02  0.25293246652E+02  0.10570000000E+00 0.  1.
         13    1    3    3    0    0 -0.69703706480E+01  0.71704235333E+01  0.23366247400E+02  0.25416406723E+02  0.10570000000E+00 0. -1.
<mgrwt>
<rscale>  0 0.20001291E+02</rscale>
<asrwt>0</asrwt>
<pdfrwt beam="2">  1        2 0.31624500E-03 0.20001291E+02</pdfrwt>
<pdfrwt beam="1">  1       -2 0.74852394E-02 0.20001291E+02</pdfrwt>
<totfact> 0.34025944E+06</totfact>
</mgrwt>
</event>
<event>
 4    1  0.1607476E-006  0.2147286E+02  0.7818608E-02  0.1717531E+00
         -2   -1    0    0    0  501 -0.00000000000E+00  0.00000000000E+00  0.80284586787E+01  0.80284590997E+01  0.26000000000E-02 0. -1.
          2   -1    0    0  501    0  0.00000000000E+00 -0.00000000000E+00 -0.14357787527E+02  0.14357787762E+02  0.26000000000E-02 0.  1.
        -13    1    1    2    0    0  0.67924038005E-01  0.10679396470E+02 -0.20199531850E+01  0.10869475885E+02  0.10570000000E+00 0. -1.
         13    1    1    2    0    0 -0.67924038005E-01 -0.10679396470E+02 -0.43093756630E+01  0.11516770977E+02  0.10570000000E+00 0.  1.
<mgrwt>
<rscale>  0 0.21472858E+02</rscale>
<asrwt>0</asrwt>
<pdfrwt beam="2">  1        2 0.22088904E-02 0.21472858E+02</pdfrwt>
<pdfrwt beam="1">  1       -2 0.12351475E-02 0.21472858E+02</pdfrwt>
<totfact> 0.34471621E+06</totfact>
</mgrwt>
</event>
<event>
 4    1  0.1607476E-006  0.2003389E+02  0.7818608E-02  0.1744655E+00
         -2   -1    0    0    0  501 -0.00000000000E+00  0.00000000000E+00  0.33157991617E+02  0.33157991719E+02  0.26000000000E-02 0. -1.
          2   -1    0    0  501    0  0.00000000000E+00 -0.00000000000E+00 -0.30260939094E+01  0.30260950263E+01  0.26000000000E-02 0.  1.
        -13    1    1    2    0    0  0.96079618421E+01 -0.27863652968E+01  0.14160561479E+02  0.17338092058E+02  0.10570000000E+00 0. -1.
         13    1    1    2    0    0 -0.96079618421E+01  0.27863652968E+01  0.15971336228E+02  0.18845994686E+02  0.10570000000E+00 0.  1.
<mgrwt>
<rscale>  0 0.20033893E+02</rscale>
<asrwt>0</asrwt>
<pdfrwt beam="2">  1        2 0.46555304E-03 0.20033893E+02</pdfrwt>
<pdfrwt beam="1">  1       -2 0.51012292E-02 0.20033893E+02</pdfrwt>
<totfact> 0.35554061E+06</totfact>
</mgrwt>
</event>
<event>
 4    1  0.1607476E-006  0.2001592E+02  0.7818608E-02  0.1745012E+00
          2   -1    0    0  501    0  0.00000000000E+00  0.00000000000E+00  0.89877258319E+02  0.89877258356E+02  0.26000000000E-02 0. -1.
         -2   -1    0    0    0  501 -0.00000000000E+00 -0.00000000000E+00 -0.11143993696E+01  0.11144024026E+01  0.26000000000E-02 0.  1.
        -13    1    1    2    0    0 -0.88826221307E+01  0.46002386607E+01  0.45706447826E+02  0.46788392973E+02  0.10570000000E+00 0. -1.
         13    1    1    2    0    0  0.88826221307E+01 -0.46002386607E+01  0.43056411123E+02  0.44203267786E+02  0.10570000000E+00 0.  1.
<mgrwt>
<rscale>  0 0.20015924E+02</rscale>
<asrwt>0</asrwt>
<pdfrwt beam="1">  1        2 0.13827274E-01 0.20015924E+02</pdfrwt>
<pdfrwt beam="2">  1       -2 0.17144625E-03 0.20015924E+02</pdfrwt>
<totfact> 0.51439081E+06</totfact>
</mgrwt>
</event>
<event>
 5    1  0.1607476E-006  0.2000564E+02  0.7818608E-02  0.1745216E+00
         -2   -1    0    0    0  501 -0.00000000000E+00  0.00000000000E+00  0.24507570143E+02  0.24507570281E+02  0.26000000000E-02 0.  1.
          2   -1    0    0  501    0  0.00000000000E+00 -0.00000000000E+00 -0.40826713760E+01  0.40826722039E+01  0.26000000000E-02 0. -1.
       1023    2    1    2    0    0  0.00000000000E+00  0.00000000000E+00  0.20424898767E+02  0.28590242485E+02  0.20005636098E+02 0.  0.
        -13    1    3    3    0    0 -0.52474170737E+01  0.85144436476E+01  0.10381905005E+02  0.14416180514E+02  0.10570000000E+00 0.  1.
         13    1    3    3    0    0  0.52474170737E+01 -0.85144436476E+01  0.10042993761E+02  0.14174061971E+02  0.10570000000E+00 0. -1.
<mgrwt>
<rscale>  0 0.20005636E+02</rscale>
<asrwt>0</asrwt>
<pdfrwt beam="2">  1        2 0.62810336E-03 0.20005636E+02</pdfrwt>
<pdfrwt beam="1">  1       -2 0.37703955E-02 0.20005636E+02</pdfrwt>
<totfact> 0.36753612E+06</totfact>
</mgrwt>
</event>
<event>
 5    1  0.1607476E-006  0.2000597E+02  0.7818608E-02  0.1745209E+00
          2   -1    0    0  501    0  0.00000000000E+00  0.00000000000E+00  0.46394805416E+02  0.46394805489E+02  0.26000000000E-02 0. -1.
         -2   -1    0    0    0  501 -0.00000000000E+00 -0.00000000000E+00 -0.21567001977E+01  0.21567017649E+01  0.26000000000E-02 0.  1.
       1023    2    1    2    0    0  0.00000000000E+00  0.00000000000E+00  0.44238105218E+02  0.48551507254E+02  0.20005971691E+02 0.  0.
        -13    1    3    3    0    0 -0.89132644604E+01 -0.45371711026E+01  0.22429351658E+02  0.24558485158E+02  0.10570000000E+00 0. -1.
         13    1    3    3    0    0  0.89132644604E+01  0.45371711026E+01  0.21808753560E+02  0.23993022096E+02  0.10570000000E+00 0.  1.
<mgrwt>
<rscale>  0 0.20005972E+02</rscale>
<asrwt>0</asrwt>
<pdfrwt beam="1">  1        2 0.71376627E-02 0.20005972E+02</pdfrwt>
<pdfrwt beam="2">  1       -2 0.33180015E-03 0.20005972E+02</pdfrwt>
<totfact> 0.45789692E+06</totfact>
</mgrwt>
</event>
<event>
 5    1  0.1607476E-006  0.2000372E+02  0.7818608E-02  0.1745254E+00
          2   -1    0    0  501    0  0.00000000000E+00  0.00000000000E+00  0.34027022896E+01  0.34027032829E+01  0.26000000000E-02 0.  1.
         -2   -1    0    0    0  501 -0.00000000000E+00 -0.00000000000E+00 -0.29399344912E+02  0.29399345027E+02  0.26000000000E-02 0. -1.
       1023    2    1    2    0    0  0.00000000000E+00  0.00000000000E+00 -0.25996642623E+02  0.32802048310E+02  0.20003723296E+02 0.  0.
        -13    1    3    3    0    0 -0.96642541776E+01 -0.25745268057E+01 -0.13011728450E+02  0.16411649729E+02  0.10570000000E+00 0.  1.
         13    1    3    3    0    0  0.96642541776E+01  0.25745268057E+01 -0.12984914173E+02  0.16390398581E+02  0.10570000000E+00 0. -1.
<mgrwt>
<rscale>  0 0.20003723E+02</rscale>
<asrwt>0</asrwt>
<pdfrwt beam="1">  1        2 0.52349276E-03 0.20003723E+02</pdfrwt>
<pdfrwt beam="2">  1       -2 0.45229761E-02 0.20003723E+02</pdfrwt>
<totfact> 0.36123962E+06</totfact>
</mgrwt>
</event>
<event>
 5    1  0.1607476E-006  0.2000286E+02  0.7818608E-02  0.1745271E+00
          2   -1    0    0  501    0  0.00000000000E+00  0.00000000000E+00  0.41610787079E+01  0.41610795202E+01  0.26000000000E-02 0.  1.
         -2   -1    0    0    0  501 -0.00000000000E+00 -0.00000000000E+00 -0.24039093037E+02  0.24039093178E+02  0.26000000000E-02 0. -1.
       1023    2    1    2    0    0  0.00000000000E+00  0.00000000000E+00 -0.19878014329E+02  0.28200172698E+02  0.20002856959E+02 0.  0.
        -13    1    3    3    0    0 -0.75383909819E+01  0.65715746077E+01 -0.10033240110E+02  0.14166510192E+02  0.10570000000E+00 0.  1.
         13    1    3    3    0    0  0.75383909819E+01 -0.65715746077E+01 -0.98447742197E+01  0.14033662506E+02  0.10570000000E+00 0. -1.
<mgrwt>
<rscale>  0 0.20002857E+02</rscale>
<asrwt>0</asrwt>
<pdfrwt beam="1">  1        2 0.64016604E-03 0.20002857E+02</pdfrwt>
<pdfrwt beam="2">  1       -2 0.36983220E-02 0.20002857E+02</pdfrwt>
<totfact> 0.36829372E+06</totfact>
</mgrwt>
</event>
<event>
 5    1  0.1607476E-006  0.2000250E+02  0.7818608E-02  0.1745278E+00
          2   -1    0    0  501    0  0.00000000000E+00  0.00000000000E+00  0.23978621006E+01  0.23978635102E+01  0.26000000000E-02 0.  1.
         -2   -1    0    0    0  501 -0.00000000000E+00 -0.00000000000E+00 -0.41714243334E+02  0.41714243416E+02  0.26000000000E-02 0. -1.
       1023    2    1    2    0    0  0.00000000000E+00  0.00000000000E+00 -0.39316381234E+02  0.44112106926E+02  0.20002503446E+02 0.  0.
        -13    1    3    3    0    0  0.50126229195E+01 -0.86536701715E+01 -0.19573707176E+02  0.21980754788E+02  0.10570000000E+00 0.  1.
         13    1    3    3    0    0 -0.50126229195E+01  0.86536701715E+01 -0.19742674058E+02  0.22131352138E+02  0.10570000000E+00 0. -1.
<mgrwt>
<rscale>  0 0.20002503E+02</rscale>
<asrwt>0</asrwt>
<pdfrwt beam="1">  1        2 0.36890201E-03 0.20002503E+02</pdfrwt>
<pdfrwt beam="2">  1       -2 0.64175755E-02 0.20002503E+02</pdfrwt>
<totfact> 0.34728592E+06</totfact>
</mgrwt>
</event>
<event>
 5    1  0.1607476E-006  0.2000707E+02  0.7818608E-02  0.1745187E+00
         -2   -1    0    0    0  501 -0.00000000000E+00  0.00000000000E+00  0.15522847128E+01  0.15522868902E+01  0.26000000000E-02 0.  1.
          2   -1    0    0  501    0  0.00000000000E+00 -0.00000000000E+00 -0.64466690482E+02  0.64466690535E+02  0.26000000000E-02 0. -1.
       1023    2    1    2    0    0  0.00000000000E+00  0.00000000000E+00 -0.62914405770E+02  0.66018977425E+02  0.20007071922E+02 0.  0.
        -13    1    3    3    0    0 -0.24212993247E+01 -0.97055071385E+01 -0.31457227398E+02  0.33009512073E+02  0.10570000000E+00 0.  1.
         13    1    3    3    0    0  0.24212993247E+01  0.97055071385E+01 -0.31457178371E+02  0.33009465352E+02  0.10570000000E+00 0. -1.
<mgrwt>
<rscale>  0 0.20007072E+02</rscale>
<asrwt>0</asrwt>
<pdfrwt beam="2">  1        2 0.99179505E-02 0.20007072E+02</pdfrwt>
<pdfrwt beam="1">  1       -2 0.23881325E-03 0.20007072E+02</pdfrwt>
<totfact> 0.48255908E+06</totfact>
</mgrwt>
</event>
<event>
 5    1  0.1607476E-006  0.2000553E+02  0.7818608E-02  0.1745218E+00
         -2   -1    0    0    0  501 -0.00000000000E+00  0.00000000000E+00  0.91038117008E+01  0.91038120720E+01  0.26000000000E-02 0. -1.
          2   -1    0    0  501    0  0.00000000000E+00 -0.00000000000E+00 -0.10990487896E+02  0.10990488204E+02  0.26000000000E-02 0.  1.
       1023    2    1    2    0    0  0.00000000000E+00  0.00000000000E+00 -0.18866761957E+01  0.20094300276E+02  0.20005533147E+02 0.  0.
        -13    1    3    3    0    0  0.59070346607E+01  0.80715977495E+01 -0.96387205838E+00  0.10049078094E+02  0.10570000000E+00 0. -1.
         13    1    3    3    0    0 -0.59070346607E+01 -0.80715977495E+01 -0.92280413729E+00  0.10045222182E+02  0.10570000000E+00 0.  1.
<mgrwt>
<rscale>  0 0.20005533E+02</rscale>
<asrwt>0</asrwt>
<pdfrwt beam="2">  1        2 0.16908443E-02 0.20005533E+02</pdfrwt>
<pdfrwt beam="1">  1       -2 0.14005865E-02 0.20005533E+02</pdfrwt>
<totfact> 0.39713244E+06</totfact>
</mgrwt>
</event>
<event>
 5    1  0.1607476E-006  0.2000646E+02  0.7818608E-02  0.1745200E+00
          2   -1    0    0  501    0  0.00000000000E+00  0.00000000000E+00  0.10403521055E+03  0.10403521058E+03  0.26000000000E-02 0. -1.
         -2   -1    0    0    0  501 -0.00000000000E+00 -0.00000000000E+00 -0.96183186984E+00  0.96183538397E+00  0.26000000000E-02 0.  1.
       1023    2    1    2    0    0  0.00000000000E+00  0.00000000000E+00  0.10307337868E+03  0.10499704597E+03  0.20006455687E+02 0.  0.
        -13    1    3    3    0    0  0.85252025293E+01  0.52294009257E+01  0.50663496289E+02  0.51641327839E+02  0.10570000000E+00 0. -1.
         13    1    3    3    0    0 -0.85252025293E+01 -0.52294009257E+01  0.52409882391E+02  0.53355718128E+02  0.10570000000E+00 0.  1.
<mgrwt>
<rscale>  0 0.20006456E+02</rscale>
<asrwt>0</asrwt>
<pdfrwt beam="1">  1        2 0.16005411E-01 0.20006456E+02</pdfrwt>
<pdfrwt beam="2">  1       -2 0.14797446E-03 0.20006456E+02</pdfrwt>
<totfact> 0.53200753E+06</totfact>
</mgrwt>
</event>
<event>
 5    1  0.1607476E-006  0.2000306E+02  0.7818608E-02  0.1745267E+00
         -2   -1    0    0    0  501 -0.00000000000E+00  0.00000000000E+00  0.37640071314E+02  0.37640071404E+02  0.26000000000E-02 0.  1.
          2   -1    0    0  501    0  0.00000000000E+00 -0.00000000000E+00 -0.26575555553E+01  0.26575568272E+01  0.26000000000E-02 0. -1.
       1023    2    1    2    0    0  0.00000000000E+00  0.00000000000E+00  0.34982515759E+02  0.40297628231E+02  0.20003060572E+02 0.  0.
        -13    1    3    3    0    0 -0.84637547117E+01 -0.53270001176E+01  0.17664106584E+02  0.20298864696E+02  0.10570000000E+00 0. -1.
         13    1    3    3    0    0  0.84637547117E+01  0.53270001176E+01  0.17318409175E+02  0.19998763535E+02  0.10570000000E+00 0.  1.
<mgrwt>
<rscale>  0 0.20003061E+02</rscale>
<asrwt>0</asrwt>
<pdfrwt beam="2">  1        2 0.40885480E-03 0.20003061E+02</pdfrwt>
<pdfrwt beam="1">  1       -2 0.57907803E-02 0.20003061E+02</pdfrwt>
<totfact> 0.35165319E+06</totfact>
</mgrwt>
</event>
<event>
 5    1  0.1607476E-006  0.2000125E+02  0.7818608E-02  0.1745303E+00
         -2   -1    0    0    0  501 -0.00000000000E+00  0.00000000000E+00  0.15971813242E+02  0.15971813454E+02  0.26000000000E-02 0.  1.
          2   -1    0    0  501    0  0.00000000000E+00 -0.00000000000E+00 -0.62618147501E+01  0.62618152899E+01  0.26000000000E-02 0. -1.
       1023    2    1    2    0    0  0.00000000000E+00  0.00000000000E+00  0.97099984922E+01  0.22233628744E+02  0.20001254371E+02 0.  0.
        -13    1    3    3    0    0 -0.50100697998E+01 -0.86545110317E+01  0.48513104274E+01  0.11115203370E+02  0.10570000000E+00 0.  1.
         13    1    3    3    0    0  0.50100697998E+01  0.86545110317E+01  0.48586880647E+01  0.11118425374E+02  0.10570000000E+00 0. -1.
<mgrwt>
<rscale>  0 0.20001254E+02</rscale>
<asrwt>0</asrwt>
<pdfrwt beam="2">  1        2 0.96335618E-03 0.20001254E+02</pdfrwt>
<pdfrwt beam="1">  1       -2 0.24572021E-02 0.20001254E+02</pdfrwt>
<totfact> 0.38108783E+06</totfact>
</mgrwt>
</event>
<event>
 5    1  0.1607476E-006  0.2000241E+02  0.7818608E-02  0.1745280E+00
          2   -1    0    0  501    0  0.00000000000E+00  0.00000000000E+00  0.94119057906E+02  0.94119057942E+02  0.26000000000E-02 0. -1.
         -2   -1    0    0    0  501 -0.00000000000E+00 -0.00000000000E+00 -0.10627383394E+01  0.10627415198E+01  0.26000000000E-02 0.  1.
       1023    2    1    2    0    0  0.00000000000E+00  0.00000000000E+00  0.93056319566E+02  0.95181799462E+02  0.20002408292E+02 0.  0.
        -13    1    3    3    0    0 -0.68065707261E+00 -0.99770305908E+01  0.46966316127E+02  0.48019271720E+02  0.10570000000E+00 0.  1.
         13    1    3    3    0    0  0.68065707261E+00  0.99770305908E+01  0.46090003439E+02  0.47162527742E+02  0.10570000000E+00 0. -1.
<mgrwt>
<rscale>  0 0.20002408E+02</rscale>
<asrwt>0</asrwt>
<pdfrwt beam="1">  1        2 0.14479856E-01 0.20002408E+02</pdfrwt>
<pdfrwt beam="2">  1       -2 0.16349845E-03 0.20002408E+02</pdfrwt>
<totfact> 0.52034483E+06</totfact>
</mgrwt>
</event>
<event>
 4    1  0.1607476E-006  0.2003750E+02  0.7818608E-02  0.1744583E+00
          2   -1    0    0  501    0  0.00000000000E+00  0.00000000000E+00  0.11329431841E+01  0.11329461675E+01  0.26000000000E-02 0. -1.
         -2   -1    0    0    0  501 -0.00000000000E+00 -0.00000000000E+00 -0.88596895756E+02  0.88596895795E+02  0.26000000000E-02 0.  1.
        -13    1    1    2    0    0  0.78968558665E+01 -0.61575701245E+01 -0.42401975783E+02  0.43568506116E+02  0.10570000000E+00 0.  1.
         13    1    1    2    0    0 -0.78968558665E+01  0.61575701245E+01 -0.45061976790E+02  0.46161335846E+02  0.10570000000E+00 0. -1.
<mgrwt>
<rscale>  0 0.20037503E+02</rscale>
<asrwt>0</asrwt>
<pdfrwt beam="1">  1        2 0.17429925E-03 0.20037503E+02</pdfrwt>
<pdfrwt beam="2">  1       -2 0.13630286E-01 0.20037503E+02</pdfrwt>
<totfact> 0.30457972E+06</totfact>
</mgrwt>
</event>
<event>
 5    1  0.1607476E-006  0.2000810E+02  0.7818608E-02  0.1745167E+00
         -2   -1    0    0    0  501 -0.00000000000E+00  0.00000000000E+00  0.19671347780E+02  0.19671347952E+02  0.26000000000E-02 0.  1.
          2   -1    0    0  501    0  0.00000000000E+00 -0.00000000000E+00 -0.50876540299E+01  0.50876546942E+01  0.26000000000E-02 0. -1.
       1023    2    1    2    0    0  0.00000000000E+00  0.00000000000E+00  0.14583693750E+02  0.24759002646E+02  0.20008100575E+02 0.  0.
        -13    1    3    3    0    0 -0.98605082885E+01  0.16654182860E+01  0.76112139420E+01  0.12567616796E+02  0.10570000000E+00 0.  1.
         13    1    3    3    0    0  0.98605082885E+01 -0.16654182860E+01  0.69724798080E+01  0.12191385850E+02  0.10570000000E+00 0. -1.
<mgrwt>
<rscale>  0 0.20008101E+02</rscale>
<asrwt>0</asrwt>
<pdfrwt beam="2">  1        2 0.78271607E-03 0.20008101E+02</pdfrwt>
<pdfrwt beam="1">  1       -2 0.30263612E-02 0.20008101E+02</pdfrwt>
<totfact> 0.37452584E+06</totfact>
</mgrwt>
</event>
<event>
 4    1  0.1607476E-006  0.2015322E+02  0.7818608E-02  0.1742298E+00
         -2   -1    0    0    0  501 -0.00000000000E+00  0.00000000000E+00  0.32305539122E+02  0.32305539226E+02  0.26000000000E-02 0.  1.
          2   -1    0    0  501    0  0.00000000000E+00 -0.00000000000E+00 -0.31430549957E+01  0.31430560711E+01  0.26000000000E-02 0. -1.
        -13    1    1    2    0    0 -0.54728028795E+01  0.84092850985E+01  0.16211752962E+02  0.19065669509E+02  0.10570000000E+00 0.  1.
         13    1    1    2    0    0  0.54728028795E+01 -0.84092850985E+01  0.12950731164E+02  0.16382925789E+02  0.10570000000E+00 0. -1.
<mgrwt>
<rscale>  0 0.20153224E+02</rscale>
<asrwt>0</asrwt>
<pdfrwt beam="2">  1        2 0.48354697E-03 0.20153224E+02</pdfrwt>
<pdfrwt beam="1">  1       -2 0.49700834E-02 0.20153224E+02</pdfrwt>
<totfact> 0.35194993E+06</totfact>
</mgrwt>
</event>
<event>
 5    1  0.1607476E-006  0.2000978E+02  0.7818608E-02  0.1745134E+00
         -2   -1    0    0    0  501 -0.00000000000E+00  0.00000000000E+00  0.53970142072E+02  0.53970142135E+02  0.26000000000E-02 0. -1.
          2   -1    0    0  501    0  0.00000000000E+00 -0.00000000000E+00 -0.18546880297E+01  0.18546898521E+01  0.26000000000E-02 0.  1.
       1023    2    1    2    0    0  0.00000000000E+00  0.00000000000E+00  0.52115454043E+02  0.55824831987E+02  0.20009780516E+02 0.  0.
        -13    1    3    3    0    0 -0.97951882899E+01  0.20138685861E+01  0.26872429798E+02  0.28672984428E+02  0.10570000000E+00 0. -1.
         13    1    3    3    0    0  0.97951882899E+01 -0.20138685861E+01  0.25243024245E+02  0.27151847559E+02  0.10570000000E+00 0.  1.
<mgrwt>
<rscale>  0 0.20009781E+02</rscale>
<asrwt>0</asrwt>
<pdfrwt beam="2">  1        2 0.28533676E-03 0.20009781E+02</pdfrwt>
<pdfrwt beam="1">  1       -2 0.83030990E-02 0.20009781E+02</pdfrwt>
<totfact> 0.33481769E+06</totfact>
</mgrwt>
</event>
<event>
 5    1  0.1607476E-006  0.2000152E+02  0.7818608E-02  0.1745298E+00
          2   -1    0    0  501    0  0.00000000000E+00  0.00000000000E+00  0.11732891494E+02  0.11732891782E+02  0.26000000000E-02 0. -1.
         -2   -1    0    0    0  501 -0.00000000000E+00 -0.00000000000E+00 -0.85243393488E+01  0.85243397453E+01  0.26000000000E-02 0.  1.
       1023    2    1    2    0    0  0.00000000000E+00  0.00000000000E+00  0.32085521453E+01  0.20257231528E+02  0.20001515500E+02 0.  0.
        -13    1    3    3    0    0 -0.27155651598E+01 -0.96243759644E+01  0.15710505178E+01  0.10123353153E+02  0.10570000000E+00 0.  1.
         13    1    3    3    0    0  0.27155651598E+01  0.96243759644E+01  0.16375016276E+01  0.10133878375E+02  0.10570000000E+00 0. -1.
<mgrwt>
<rscale>  0 0.20001515E+02</rscale>
<asrwt>0</asrwt>
<pdfrwt beam="1">  1        2 0.18050603E-02 0.20001515E+02</pdfrwt>
<pdfrwt beam="2">  1       -2 0.13114369E-02 0.20001515E+02</pdfrwt>
<totfact> 0.39924627E+06</totfact>
</mgrwt>
</event>
<event>
 4    1  0.1607476E-006  0.2011859E+02  0.7818608E-02  0.1742980E+00
         -2   -1    0    0    0  501 -0.00000000000E+00  0.00000000000E+00  0.20638037696E+02  0.20638037860E+02  0.26000000000E-02 0.  1.
          2   -1    0    0  501    0  0.00000000000E+00 -0.00000000000E+00 -0.49030514743E+01  0.49030521636E+01  0.26000000000E-02 0. -1.
        -13    1    1    2    0    0 -0.90044324136E+01 -0.44417928601E+01  0.86385389749E+01  0.13245559823E+02  0.10570000000E+00 0. -1.
         13    1    1    2    0    0  0.90044324136E+01  0.44417928601E+01  0.70964472470E+01  0.12295530201E+02  0.10570000000E+00 0.  1.
<mgrwt>
<rscale>  0 0.20118586E+02</rscale>
<asrwt>0</asrwt>
<pdfrwt beam="2">  1        2 0.75431569E-03 0.20118586E+02</pdfrwt>
<pdfrwt beam="1">  1       -2 0.31750828E-02 0.20118586E+02</pdfrwt>
<totfact> 0.36859129E+06</totfact>
</mgrwt>
</event>
<event>
 4    1  0.1607476E-006  0.2003227E+02  0.7818608E-02  0.1744687E+00
          2   -1    0    0  501    0  0.00000000000E+00  0.00000000000E+00  0.23545522767E+02  0.23545522911E+02  0.26000000000E-02 0. -1.
         -2   -1    0    0    0  501 -0.00000000000E+00 -0.00000000000E+00 -0.42608061773E+01  0.42608069706E+01  0.26000000000E-02 0.  1.
        -13    1    1    2    0    0 -0.70613053937E+01 -0.70948242468E+01  0.91753689870E+01  0.13579290611E+02  0.10570000000E+00 0.  1.
         13    1    1    2    0    0  0.70613053937E+01  0.70948242468E+01  0.10109347603E+02  0.14227039270E+02  0.10570000000E+00 0. -1.
<mgrwt>
<rscale>  0 0.20032266E+02</rscale>
<asrwt>0</asrwt>
<pdfrwt beam="1">  1        2 0.36223881E-02 0.20032266E+02</pdfrwt>
<pdfrwt beam="2">  1       -2 0.65550874E-03 0.20032266E+02</pdfrwt>
<totfact> 0.42155634E+06</totfact>
</mgrwt>
</event>
<event>
 4    1  0.1607476E-006  0.2049471E+02  0.7818608E-02  0.1735665E+00
         -2   -1    0    0    0  501 -0.00000000000E+00  0.00000000000E+00  0.10713182423E+01  0.10713213973E+01  0.26000000000E-02 0. -1.
          2   -1    0    0  501    0  0.00000000000E+00 -0.00000000000E+00 -0.98017708012E+02  0.98017708046E+02  0.26000000000E-02 0.  1.
        -13    1    1    2    0    0 -0.28337659621E+01  0.98354949103E+01 -0.50791682179E+02  0.51812868486E+02  0.10570000000E+00 0.  1.
         13    1    1    2    0    0  0.28337659621E+01 -0.98354949103E+01 -0.46154707590E+02  0.47276160957E+02  0.10570000000E+00 0. -1.
<mgrwt>
<rscale>  0 0.20494713E+02</rscale>
<asrwt>0</asrwt>
<pdfrwt beam="2">  1        2 0.15079641E-01 0.20494713E+02</pdfrwt>
<pdfrwt beam="1">  1       -2 0.16481851E-03 0.20494713E+02</pdfrwt>
<totfact> 0.49756550E+06</totfact>
</mgrwt>
</event>
<event>
 5    1  0.1607476E-006  0.2000541E+02  0.7818608E-02  0.1745220E+00
          2   -1    0    0  501    0  0.00000000000E+00  0.00000000000E+00  0.65599973150E+02  0.65599973202E+02  0.26000000000E-02 0.  1.
         -2   -1    0    0    0  501 -0.00000000000E+00 -0.00000000000E+00 -0.15252151304E+01  0.15252173465E+01  0.26000000000E-02 0. -1.
       1023    2    1    2    0    0  0.00000000000E+00  0.00000000000E+00  0.64074758020E+02  0.67125190548E+02  0.20005414038E+02 0.  0.
        -13    1    3    3    0    0 -0.45933413939E+01 -0.88841969621E+01  0.31623235700E+02  0.33167272264E+02  0.10570000000E+00 0. -1.
         13    1    3    3    0    0  0.45933413939E+01  0.88841969621E+01  0.32451522320E+02  0.33957918284E+02  0.10570000000E+00 0.  1.
<mgrwt>
<rscale>  0 0.20005414E+02</rscale>
<asrwt>0</asrwt>
<pdfrwt beam="1">  1        2 0.10092298E-01 0.20005414E+02</pdfrwt>
<pdfrwt beam="2">  1       -2 0.23464878E-03 0.20005414E+02</pdfrwt>
<totfact> 0.48414482E+06</totfact>
</mgrwt>
</event>
<event>
 5    1  0.1760078E-006  0.2000136E+02  0.7818608E-02  0.1745301E+00
          2   -1    0    0  501    0  0.00000000000E+00  0.00000000000E+00  0.58343783757E+02  0.58343783815E+02  0.26000000000E-02 0.  1.
         -2   -1    0    0    0  501 -0.00000000000E+00 -0.00000000000E+00 -0.17142112498E+01  0.17142132216E+01  0.26000000000E-02 0. -1.
       1023    2    1    2    0    0  0.00000000000E+00  0.00000000000E+00  0.56629572507E+02  0.60057997037E+02  0.20001363096E+02 0.  0.
        -13    1    3    3    0    0 -0.87514591198E+01 -0.48388435586E+01  0.28303070273E+02  0.30017951347E+02  0.10570000000E+00 0. -1.
         13    1    3    3    0    0  0.87514591198E+01  0.48388435586E+01  0.28326502234E+02  0.30040045690E+02  0.10570000000E+00 0.  1.
<mgrwt>
<rscale>  0 0.20001363E+02</rscale>
<asrwt>0</asrwt>
<pdfrwt beam="1">  1        2 0.89759656E-02 0.20001363E+02</pdfrwt>
<pdfrwt beam="2">  1       -2 0.26372500E-03 0.20001363E+02</pdfrwt>
<totfact> 0.47467108E+06</totfact>
</mgrwt>
</event>
<event>
 5    1  0.1607476E-006  0.2000419E+02  0.7818608E-02  0.1745245E+00
         -2   -1    0    0    0  501 -0.00000000000E+00  0.00000000000E+00  0.40970459282E+01  0.40970467532E+01  0.26000000000E-02 0.  1.
          2   -1    0    0  501    0  0.00000000000E+00 -0.00000000000E+00 -0.24418065408E+02  0.24418065546E+02  0.26000000000E-02 0. -1.
       1023    2    1    2    0    0  0.00000000000E+00  0.00000000000E+00 -0.20321019480E+02  0.28515112299E+02  0.20004194479E+02 0.  0.
        -13    1    3    3    0    0  0.38806117224E+01 -0.92172317058E+01 -0.10330784953E+02  0.14378901137E+02  0.10570000000E+00 0.  1.
         13    1    3    3    0    0 -0.38806117224E+01  0.92172317058E+01 -0.99902345261E+01  0.14136211163E+02  0.10570000000E+00 0. -1.
<mgrwt>
<rscale>  0 0.20004194E+02</rscale>
<asrwt>0</asrwt>
<pdfrwt beam="2">  1        2 0.37566254E-02 0.20004194E+02</pdfrwt>
<pdfrwt beam="1">  1       -2 0.63031485E-03 0.20004194E+02</pdfrwt>
<totfact> 0.42438105E+06</totfact>
</mgrwt>
</event>
<event>
 5    1  0.1607476E-006  0.2000833E+02  0.7818608E-02  0.1745162E+00
         -2   -1    0    0    0  501 -0.00000000000E+00  0.00000000000E+00  0.14988959065E+02  0.14988959290E+02  0.26000000000E-02 0. -1.
          2   -1    0    0  501    0  0.00000000000E+00 -0.00000000000E+00 -0.66771364792E+01  0.66771369854E+01  0.26000000000E-02 0.  1.
       1023    2    1    2    0    0  0.00000000000E+00  0.00000000000E+00  0.83118225858E+01  0.21666096276E+02  0.20008331593E+02 0.  0.
        -13    1    3    3    0    0  0.10000171549E+02 -0.13652257296E+00  0.39135567010E+01  0.10740072996E+02  0.10570000000E+00 0.  1.
         13    1    3    3    0    0 -0.10000171549E+02  0.13652257296E+00  0.43982658848E+01  0.10926023280E+02  0.10570000000E+00 0. -1.
<mgrwt>
<rscale>  0 0.20008332E+02</rscale>
<asrwt>0</asrwt>
<pdfrwt beam="2">  1        2 0.10272518E-02 0.20008332E+02</pdfrwt>
<pdfrwt beam="1">  1       -2 0.23059938E-02 0.20008332E+02</pdfrwt>
<totfact> 0.38265356E+06</totfact>
</mgrwt>
</event>
<event>
 5    1  0.1607476E-006  0.2000194E+02  0.7818608E-02  0.1745290E+00
          2   -1    0    0  501    0  0.00000000000E+00  0.00000000000E+00  0.70823353728E+01  0.70823358501E+01  0.26000000000E-02 0. -1.
         -2   -1    0    0    0  501 -0.00000000000E+00 -0.00000000000E+00 -0.14122370268E+02  0.14122370507E+02  0.26000000000E-02 0.  1.
       1023    2    1    2    0    0  0.00000000000E+00  0.00000000000E+00 -0.70400348953E+01  0.21204706358E+02  0.20001936916E+02 0.  0.
        -13    1    3    3    0    0 -0.69496254302E+01 -0.71910026630E+01 -0.35408102736E+01  0.10609256468E+02  0.10570000000E+00 0. -1.
         13    1    3    3    0    0  0.69496254302E+01  0.71910026630E+01 -0.34992246217E+01  0.10595449890E+02  0.10570000000E+00 0.  1.
<mgrwt>
<rscale>  0 0.20001937E+02</rscale>
<asrwt>0</asrwt>
<pdfrwt beam="1">  1        2 0.10895901E-02 0.20001937E+02</pdfrwt>
<pdfrwt beam="2">  1       -2 0.21726724E-02 0.20001937E+02</pdfrwt>
<totfact> 0.38464408E+06</totfact>
</mgrwt>
</event>
<event>
 5    1  0.1607476E-006  0.2001095E+02  0.7818608E-02  0.1745110E+00
         -2   -1    0    0    0  501 -0.00000000000E+00  0.00000000000E+00  0.10994374261E+03  0.10994374264E+03  0.26000000000E-02 0.  1.
          2   -1    0    0  501    0  0.00000000000E+00 -0.00000000000E+00 -0.91055070652E+00  0.91055441855E+00  0.26000000000E-02 0. -1.
       1023    2    1    2    0    0  0.00000000000E+00  0.00000000000E+00  0.10903319190E+03  0.11085429706E+03  0.20010952997E+02 0.  0.
        -13    1    3    3    0    0 -0.97355139300E+01  0.23042782274E+01  0.54007130733E+02  0.54926052763E+02  0.10570000000E+00 0.  1.
         13    1    3    3    0    0  0.97355139300E+01 -0.23042782274E+01  0.55026061170E+02  0.55928244296E+02  0.10570000000E+00 0. -1.
<mgrwt>
<rscale>  0 0.20010953E+02</rscale>
<asrwt>0</asrwt>
<pdfrwt beam="2">  1        2 0.14008504E-03 0.20010953E+02</pdfrwt>
<pdfrwt beam="1">  1       -2 0.16914419E-01 0.20010953E+02</pdfrwt>
<totfact> 0.28989649E+06</totfact>
</mgrwt>
</event>
<event>
 5    1  0.1607476E-006  0.2000399E+02  0.7818608E-02  0.1745249E+00
          2   -1    0    0  501    0  0.00000000000E+00  0.00000000000E+00  0.21747242355E+02  0.21747242510E+02  0.26000000000E-02 0.  1.
         -2   -1    0    0    0  501 -0.00000000000E+00 -0.00000000000E+00 -0.46001182283E+01  0.46001189631E+01  0.26000000000E-02 0. -1.
       1023    2    1    2    0    0  0.00000000000E+00  0.00000000000E+00  0.17147124126E+02  0.26347361473E+02  0.20003989372E+02 0.  0.
        -13    1    3    3    0    0  0.96828220937E+01 -0.25041735432E+01  0.85363931980E+01  0.13149490871E+02  0.10570000000E+00 0.  1.
         13    1    3    3    0    0 -0.96828220937E+01  0.25041735432E+01  0.86107309283E+01  0.13197870603E+02  0.10570000000E+00 0. -1.
<mgrwt>
<rscale>  0 0.20003989E+02</rscale>
<asrwt>0</asrwt>
<pdfrwt beam="1">  1        2 0.33457296E-02 0.20003989E+02</pdfrwt>
<pdfrwt beam="2">  1       -2 0.70771058E-03 0.20003989E+02</pdfrwt>
<totfact> 0.41975241E+06</totfact>
</mgrwt>
</event>
<event>
 4    1  0.1607476E-006  0.2007913E+02  0.7818608E-02  0.1743759E+00
         -2   -1    0    0    0  501 -0.00000000000E+00  0.00000000000E+00  0.46794699892E+01  0.46794707115E+01  0.26000000000E-02 0. -1.
          2   -1    0    0  501    0  0.00000000000E+00 -0.00000000000E+00 -0.21539380718E+02  0.21539380875E+02  0.26000000000E-02 0.  1.
        -13    1    1    2    0    0 -0.32136564040E+01 -0.94938025105E+01 -0.91707472311E+01  0.13585788562E+02  0.10570000000E+00 0.  1.
         13    1    1    2    0    0  0.32136564040E+01  0.94938025105E+01 -0.76891634978E+01  0.12633063024E+02  0.10570000000E+00 0. -1.
<mgrwt>
<rscale>  0 0.20079133E+02</rscale>
<asrwt>0</asrwt>
<pdfrwt beam="2">  1        2 0.33137509E-02 0.20079133E+02</pdfrwt>
<pdfrwt beam="1">  1       -2 0.71991854E-03 0.20079133E+02</pdfrwt>
<totfact> 0.41585569E+06</totfact>
</mgrwt>
</event>
<event>
 5    1  0.1607476E-006  0.2000411E+02  0.7818608E-02  0.1745246E+00
          2   -1    0    0  501    0  0.00000000000E+00  0.00000000000E+00  0.75346573000E+02  0.75346573045E+02  0.26000000000E-02 0.  1.
         -2   -1    0    0    0  501 -0.00000000000E+00 -0.00000000000E+00 -0.13277439880E+01  0.13277465337E+01  0.26000000000E-02 0. -1.
       1023    2    1    2    0    0  0.00000000000E+00  0.00000000000E+00  0.74018829012E+02  0.76674319579E+02  0.20004105442E+02 0.  0.
        -13    1    3    3    0    0  0.81787959530E+01 -0.57541253849E+01  0.36376993325E+02  0.37726641489E+02  0.10570000000E+00 0.  1.
         13    1    3    3    0    0 -0.81787959530E+01  0.57541253849E+01  0.37641835688E+02  0.38947678090E+02  0.10570000000E+00 0. -1.
<mgrwt>
<rscale>  0 0.20004105E+02</rscale>
<asrwt>0</asrwt>
<pdfrwt beam="1">  1        2 0.11591788E-01 0.20004105E+02</pdfrwt>
<pdfrwt beam="2">  1       -2 0.20426838E-03 0.20004105E+02</pdfrwt>
<totfact> 0.49686312E+06</totfact>
</mgrwt>
</event>
<event>
 5    1  0.1607476E-006  0.2000253E+02  0.7818608E-02  0.1745278E+00
          2   -1    0    0  501    0  0.00000000000E+00  0.00000000000E+00  0.36392665143E+02  0.36392665236E+02  0.26000000000E-02 0.  1.
         -2   -1    0    0    0  501 -0.00000000000E+00 -0.00000000000E+00 -0.27485004089E+01  0.27485016386E+01  0.26000000000E-02 0. -1.
       1023    2    1    2    0    0  0.00000000000E+00  0.00000000000E+00  0.33644164734E+02  0.39141166875E+02  0.20002527931E+02 0.  0.
        -13    1    3    3    0    0 -0.37934148668E+01 -0.92531343371E+01  0.16704396667E+02  0.19469425567E+02  0.10570000000E+00 0.  1.
         13    1    3    3    0    0  0.37934148668E+01  0.92531343371E+01  0.16939768068E+02  0.19671741308E+02  0.10570000000E+00 0. -1.
<mgrwt>
<rscale>  0 0.20002528E+02</rscale>
<asrwt>0</asrwt>
<pdfrwt beam="1">  1        2 0.55988720E-02 0.20002528E+02</pdfrwt>
<pdfrwt beam="2">  1       -2 0.42284629E-03 0.20002528E+02</pdfrwt>
<totfact> 0.44347238E+06</totfact>
</mgrwt>
</event>
<event>
 5    1  0.1607476E-006  0.2000255E+02  0.7818608E-02  0.1745277E+00
         -2   -1    0    0    0  501 -0.00000000000E+00  0.00000000000E+00  0.32917481703E+02  0.32917481806E+02  0.26000000000E-02 0.  1.
          2   -1    0    0  501    0  0.00000000000E+00 -0.00000000000E+00 -0.30386744273E+01  0.30386755396E+01  0.26000000000E-02 0. -1.
       1023    2    1    2    0    0  0.00000000000E+00  0.00000000000E+00  0.29878807276E+02  0.35956157345E+02  0.20002553008E+02 0.  0.
        -13    1    3    3    0    0  0.60376891698E+00 -0.99824727895E+01  0.14953247990E+02  0.17989583037E+02  0.10570000000E+00 0.  1.
         13    1    3    3    0    0 -0.60376891698E+00  0.99824727895E+01  0.14925559286E+02  0.17966574308E+02  0.10570000000E+00 0. -1.
<mgrwt>
<rscale>  0 0.20002553E+02</rscale>
<asrwt>0</asrwt>
<pdfrwt beam="2">  1        2 0.46748846E-03 0.20002553E+02</pdfrwt>
<pdfrwt beam="1">  1       -2 0.50642282E-02 0.20002553E+02</pdfrwt>
<totfact> 0.35703890E+06</totfact>
</mgrwt>
</event>
<event>
 5    1  0.1607476E-006  0.2000240E+02  0.7818608E-02  0.1745280E+00
         -2   -1    0    0    0  501 -0.00000000000E+00  0.00000000000E+00  0.14682642248E+02  0.14682642478E+02  0.26000000000E-02 0. -1.
          2   -1    0    0  501    0  0.00000000000E+00 -0.00000000000E+00 -0.68123958238E+01  0.68123963200E+01  0.26000000000E-02 0.  1.
       1023    2    1    2    0    0  0.00000000000E+00  0.00000000000E+00  0.78702464242E+01  0.21495038798E+02  0.20002397710E+02 0.  0.
        -13    1    3    3    0    0  0.34939019849E+01 -0.93704448849E+01  0.39509763232E+01  0.10753323896E+02  0.10570000000E+00 0. -1.
         13    1    3    3    0    0 -0.34939019849E+01  0.93704448849E+01  0.39192701010E+01  0.10741714902E+02  0.10570000000E+00 0.  1.
<mgrwt>
<rscale>  0 0.20002398E+02</rscale>
<asrwt>0</asrwt>
<pdfrwt beam="2">  1        2 0.10480610E-02 0.20002398E+02</pdfrwt>
<pdfrwt beam="1">  1       -2 0.22588681E-02 0.20002398E+02</pdfrwt>
<totfact> 0.38349874E+06</totfact>
</mgrwt>
</event>
<event>
 5    1  0.1607476E-006  0.2000838E+02  0.7818608E-02  0.1745161E+00
         -2   -1    0    0    0  501 -0.00000000000E+00  0.00000000000E+00  0.58641372639E+01  0.58641378403E+01  0.26000000000E-02 0.  1.
          2   -1    0    0  501    0  0.00000000000E+00 -0.00000000000E+00 -0.17067098041E+02  0.17067098239E+02  0.26000000000E-02 0. -1.
       1023    2    1    2    0    0  0.00000000000E+00  0.00000000000E+00 -0.11202960777E+02  0.22931236080E+02  0.20008379693E+02 0.  0.
        -13    1    3    3    0    0  0.99382990483E+01  0.11373033297E+01 -0.54903922489E+01  0.11411346387E+02  0.10570000000E+00 0.  1.
         13    1    3    3    0    0 -0.99382990483E+01 -0.11373033297E+01 -0.57125685284E+01  0.11519889692E+02  0.10570000000E+00 0. -1.
<mgrwt>
<rscale>  0 0.20008380E+02</rscale>
<asrwt>0</asrwt>
<pdfrwt beam="2">  1        2 0.26257074E-02 0.20008380E+02</pdfrwt>
<pdfrwt beam="1">  1       -2 0.90217503E-03 0.20008380E+02</pdfrwt>
<totfact> 0.41077679E+06</totfact>
</mgrwt>
</event>
<event>
 5    1  0.1708082E-006  0.2000159E+02  0.7818608E-02  0.1745296E+00
          2   -1    0    0  501    0  0.00000000000E+00  0.00000000000E+00  0.10665529791E+03  0.10665529794E+03  0.26000000000E-02 0. -1.
         -2   -1    0    0    0  501 -0.00000000000E+00 -0.00000000000E+00 -0.93774710351E+00  0.93775070789E+00  0.26000000000E-02 0.  1.
       1023    2    1    2    0    0  0.00000000000E+00  0.00000000000E+00  0.10571755080E+03  0.10759304865E+03  0.20001589166E+02 0.  0.
        -13    1    3    3    0    0  0.37328117532E+01 -0.92773862953E+01  0.53023677255E+02  0.53958551705E+02  0.10570000000E+00 0.  1.
         13    1    3    3    0    0 -0.37328117532E+01  0.92773862953E+01  0.52693873550E+02  0.53634496942E+02  0.10570000000E+00 0. -1.
<mgrwt>
<rscale>  0 0.20001589E+02</rscale>
<asrwt>0</asrwt>
<pdfrwt beam="1">  1        2 0.16408503E-01 0.20001589E+02</pdfrwt>
<pdfrwt beam="2">  1       -2 0.14426911E-03 0.20001589E+02</pdfrwt>
<totfact> 0.53538420E+06</totfact>
</mgrwt>
</event>
<event>
 5    1  0.1607476E-006  0.2000627E+02  0.7818608E-02  0.1745203E+00
         -2   -1    0    0    0  501 -0.00000000000E+00  0.00000000000E+00  0.56039305048E+02  0.56039305108E+02  0.26000000000E-02 0. -1.
          2   -1    0    0  501    0  0.00000000000E+00 -0.00000000000E+00 -0.17855795752E+01  0.17855814681E+01  0.26000000000E-02 0.  1.
       1023    2    1    2    0    0  0.00000000000E+00  0.00000000000E+00  0.54253725472E+02  0.57824886576E+02  0.20006268515E+02 0.  0.
        -13    1    3    3    0    0 -0.48147973656E+01  0.87674140746E+01  0.27007717132E+02  0.28800655902E+02  0.10570000000E+00 0. -1.
         13    1    3    3    0    0  0.48147973656E+01 -0.87674140746E+01  0.27246008341E+02  0.29024230674E+02  0.10570000000E+00 0.  1.
<mgrwt>
<rscale>  0 0.20006269E+02</rscale>
<asrwt>0</asrwt>
<pdfrwt beam="2">  1        2 0.27470471E-03 0.20006269E+02</pdfrwt>
<pdfrwt beam="1">  1       -2 0.86214315E-02 0.20006269E+02</pdfrwt>
<totfact> 0.33300769E+06</totfact>
</mgrwt>
</event>
<event>
 5    1  0.1607476E-006  0.2000275E+02  0.7818608E-02  0.1745273E+00
          2   -1    0    0  501    0  0.00000000000E+00  0.00000000000E+00  0.86108135308E+01  0.86108139233E+01  0.26000000000E-02 0.  1.
         -2   -1    0    0    0  501 -0.00000000000E+00 -0.00000000000E+00 -0.11616498910E+02  0.11616499201E+02  0.26000000000E-02 0. -1.
       1023    2    1    2    0    0  0.00000000000E+00  0.00000000000E+00 -0.30056853788E+01  0.20227313124E+02  0.20002751101E+02 0.  0.
        -13    1    3    3    0    0 -0.47699034759E+01  0.87894337137E+01 -0.14006325560E+01  0.10098468608E+02  0.10570000000E+00 0. -1.
         13    1    3    3    0    0  0.47699034759E+01 -0.87894337137E+01 -0.16050528229E+01  0.10128844516E+02  0.10570000000E+00 0.  1.
<mgrwt>
<rscale>  0 0.20002751E+02</rscale>
<asrwt>0</asrwt>
<pdfrwt beam="1">  1        2 0.13247406E-02 0.20002751E+02</pdfrwt>
<pdfrwt beam="2">  1       -2 0.17871537E-02 0.20002751E+02</pdfrwt>
<totfact> 0.39021245E+06</totfact>
</mgrwt>
</event>
<event>
 4    1  0.1607476E-006  0.2008362E+02  0.7818608E-02  0.1743670E+00
         -2   -1    0    0    0  501 -0.00000000000E+00  0.00000000000E+00  0.31734043018E+01  0.31734053669E+01  0.26000000000E-02 0.  1.
          2   -1    0    0  501    0  0.00000000000E+00 -0.00000000000E+00 -0.31775939697E+02  0.31775939804E+02  0.26000000000E-02 0. -1.
        -13    1    1    2    0    0 -0.97482816664E+01  0.23638496952E+01 -0.15098668436E+02  0.18127265152E+02  0.10570000000E+00 0. -1.
         13    1    1    2    0    0  0.97482816664E+01 -0.23638496952E+01 -0.13503866959E+02  0.16822080019E+02  0.10570000000E+00 0.  1.
<mgrwt>
<rscale>  0 0.20083618E+02</rscale>
<asrwt>0</asrwt>
<pdfrwt beam="2">  1        2 0.48886060E-02 0.20083618E+02</pdfrwt>
<pdfrwt beam="1">  1       -2 0.48821616E-03 0.20083618E+02</pdfrwt>
<totfact> 0.43246485E+06</totfact>
</mgrwt>
</event>
<event>
 5    1  0.1607476E-006  0.2000181E+02  0.7818608E-02  0.1745292E+00
         -2   -1    0    0    0  501 -0.00000000000E+00  0.00000000000E+00  0.16495313224E+02  0.16495313429E+02  0.26000000000E-02 0. -1.
          2   -1    0    0  501    0  0.00000000000E+00 -0.00000000000E+00 -0.60634237780E+01  0.60634243354E+01  0.26000000000E-02 0.  1.
       1023    2    1    2    0    0  0.00000000000E+00  0.00000000000E+00  0.10431889446E+02  0.22558737764E+02  0.20001808221E+02 0.  0.
        -13    1    3    3    0    0  0.59785110231E+01 -0.80164979587E+01  0.52060506508E+01  0.11274793543E+02  0.10570000000E+00 0.  1.
         13    1    3    3    0    0 -0.59785110231E+01  0.80164979587E+01  0.52258387948E+01  0.11283944221E+02  0.10570000000E+00 0. -1.
<mgrwt>
<rscale>  0 0.20001808E+02</rscale>
<asrwt>0</asrwt>
<pdfrwt beam="2">  1        2 0.93283451E-03 0.20001808E+02</pdfrwt>
<pdfrwt beam="1">  1       -2 0.25377405E-02 0.20001808E+02</pdfrwt>
<totfact> 0.38011286E+06</totfact>
</mgrwt>
</event>
<event>
 5    1  0.1607476E-006  0.2000636E+02  0.7818608E-02  0.1745202E+00
         -2   -1    0    0    0  501 -0.00000000000E+00  0.00000000000E+00  0.66923718311E+02  0.66923718361E+02  0.26000000000E-02 0. -1.
          2   -1    0    0  501    0  0.00000000000E+00 -0.00000000000E+00 -0.14951871719E+01  0.14951894325E+01  0.26000000000E-02 0.  1.
       1023    2    1    2    0    0  0.00000000000E+00  0.00000000000E+00  0.65428531139E+02  0.68418907794E+02  0.20006355408E+02 0.  0.
        -13    1    3    3    0    0  0.41457866779E+01 -0.91027889865E+01  0.32495898130E+02  0.34000630616E+02  0.10570000000E+00 0. -1.
         13    1    3    3    0    0 -0.41457866779E+01  0.91027889865E+01  0.32932633009E+02  0.34418277178E+02  0.10570000000E+00 0.  1.
<mgrwt>
<rscale>  0 0.20006355E+02</rscale>
<asrwt>0</asrwt>
<pdfrwt beam="2">  1        2 0.23002899E-03 0.20006355E+02</pdfrwt>
<pdfrwt beam="1">  1       -2 0.10295956E-01 0.20006355E+02</pdfrwt>
<totfact> 0.32324529E+06</totfact>
</mgrwt>
</event>
<event>
 5    1  0.1607476E-006  0.2000200E+02  0.7818608E-02  0.1745288E+00
         -2   -1    0    0    0  501 -0.00000000000E+00  0.00000000000E+00  0.21034780574E+02  0.21034780735E+02  0.26000000000E-02 0. -1.
          2   -1    0    0  501    0  0.00000000000E+00 -0.00000000000E+00 -0.47549795374E+01  0.47549802483E+01  0.26000000000E-02 0.  1.
       1023    2    1    2    0    0  0.00000000000E+00  0.00000000000E+00  0.16279801037E+02  0.25789760983E+02  0.20001996145E+02 0.  0.
        -13    1    3    3    0    0 -0.55634284672E+01  0.83099351966E+01  0.81980028906E+01  0.12931557647E+02  0.10570000000E+00 0. -1.
         13    1    3    3    0    0  0.55634284672E+01 -0.83099351966E+01  0.80817981463E+01  0.12858203337E+02  0.10570000000E+00 0.  1.
<mgrwt>
<rscale>  0 0.20001996E+02</rscale>
<asrwt>0</asrwt>
<pdfrwt beam="2">  1        2 0.73153539E-03 0.20001996E+02</pdfrwt>
<pdfrwt beam="1">  1       -2 0.32361201E-02 0.20001996E+02</pdfrwt>
<totfact> 0.37267035E+06</totfact>
</mgrwt>
</event>
<event>
 4    1  0.1607476E-006  0.2002684E+02  0.7818608E-02  0.1744795E+00
          2   -1    0    0  501    0  0.00000000000E+00  0.00000000000E+00  0.82289078121E+01  0.82289082228E+01  0.26000000000E-02 0. -1.
         -2   -1    0    0    0  501 -0.00000000000E+00 -0.00000000000E+00 -0.12184923843E+02  0.12184924120E+02  0.26000000000E-02 0.  1.
        -13    1    1    2    0    0  0.31428981326E+01  0.95036868907E+01 -0.17292088354E+01  0.10158701141E+02  0.10570000000E+00 0. -1.
         13    1    1    2    0    0 -0.31428981326E+01 -0.95036868907E+01 -0.22268071950E+01  0.10255131202E+02  0.10570000000E+00 0.  1.
<mgrwt>
<rscale>  0 0.20026844E+02</rscale>
<asrwt>0</asrwt>
<pdfrwt beam="1">  1        2 0.12659859E-02 0.20026844E+02</pdfrwt>
<pdfrwt beam="2">  1       -2 0.18746037E-02 0.20026844E+02</pdfrwt>
<totfact> 0.38784139E+06</totfact>
</mgrwt>
</event>
<event>
 5    1  0.1607476E-006  0.2000119E+02  0.7818608E-02  0.1745304E+00
         -2   -1    0    0    0  501 -0.00000000000E+00  0.00000000000E+00  0.22278046611E+01  0.22278061783E+01  0.26000000000E-02 0. -1.
          2   -1    0    0  501    0  0.00000000000E+00 -0.00000000000E+00 -0.44892563284E+02  0.44892563360E+02  0.26000000000E-02 0.  1.
       1023    2    1    2    0    0  0.00000000000E+00  0.00000000000E+00 -0.42664758623E+02  0.47120369538E+02  0.20001189890E+02 0.  0.
        -13    1    3    3    0    0 -0.37222800082E+01 -0.92814519557E+01 -0.21339000036E+02  0.23566179451E+02  0.10570000000E+00 0.  1.
         13    1    3    3    0    0  0.37222800082E+01  0.92814519557E+01 -0.21325758587E+02  0.23554190087E+02  0.10570000000E+00 0. -1.
<mgrwt>
<rscale>  0 0.20001190E+02</rscale>
<asrwt>0</asrwt>
<pdfrwt beam="2">  1        2 0.69065476E-02 0.20001190E+02</pdfrwt>
<pdfrwt beam="1">  1       -2 0.34273933E-03 0.20001190E+02</pdfrwt>
<totfact> 0.45599889E+06</totfact>
</mgrwt>
</event>
<event>
 5    1  0.1607476E-006  0.2000247E+02  0.7818608E-02  0.1745279E+00
         -2   -1    0    0    0  501 -0.00000000000E+00  0.00000000000E+00  0.10528424619E+01  0.10528456723E+01  0.26000000000E-02 0.  1.
          2   -1    0    0  501    0  0.00000000000E+00 -0.00000000000E+00 -0.95004280009E+02  0.95004280044E+02  0.26000000000E-02 0. -1.
       1023    2    1    2    0    0  0.00000000000E+00  0.00000000000E+00 -0.93951437547E+02  0.96057125717E+02  0.20002469443E+02 0.  0.
        -13    1    3    3    0    0  0.59313427894E+01 -0.80518746034E+01 -0.46959397391E+02  0.48012599260E+02  0.10570000000E+00 0.  1.
         13    1    3    3    0    0 -0.59313427894E+01  0.80518746034E+01 -0.46992040156E+02  0.48044526457E+02  0.10570000000E+00 0. -1.
<mgrwt>
<rscale>  0 0.20002469E+02</rscale>
<asrwt>0</asrwt>
<pdfrwt beam="2">  1        2 0.14616037E-01 0.20002469E+02</pdfrwt>
<pdfrwt beam="1">  1       -2 0.16197609E-03 0.20002469E+02</pdfrwt>
<totfact> 0.52141613E+06</totfact>
</mgrwt>
</event>
<event>
 5    1  0.1607476E-006  0.2000138E+02  0.7818608E-02  0.1745301E+00
         -2   -1    0    0    0  501 -0.00000000000E+00  0.00000000000E+00  0.11188419543E+02  0.11188419845E+02  0.26000000000E-02 0.  1.
          2   -1    0    0  501    0  0.00000000000E+00 -0.00000000000E+00 -0.89390482627E+01  0.89390486408E+01  0.26000000000E-02 0. -1.
       1023    2    1    2    0    0  0.00000000000E+00  0.00000000000E+00  0.22493712801E+01  0.20127468486E+02  0.20001382864E+02 0.  0.
        -13    1    3    3    0    0 -0.49457919550E+01 -0.86914600335E+01  0.11066546576E+01  0.10061719167E+02  0.10570000000E+00 0. -1.
         13    1    3    3    0    0  0.49457919550E+01  0.86914600335E+01  0.11427166225E+01  0.10065749319E+02  0.10570000000E+00 0.  1.
<mgrwt>
<rscale>  0 0.20001383E+02</rscale>
<asrwt>0</asrwt>
<pdfrwt beam="2">  1        2 0.13752383E-02 0.20001383E+02</pdfrwt>
<pdfrwt beam="1">  1       -2 0.17212954E-02 0.20001383E+02</pdfrwt>
<totfact> 0.39134480E+06</totfact>
</mgrwt>
</event>
<event>
 5    1  0.1607476E-006  0.2000227E+02  0.7818608E-02  0.1745283E+00
          2   -1    0    0  501    0  0.00000000000E+00  0.00000000000E+00  0.56243172815E+01  0.56243178825E+01  0.26000000000E-02 0. -1.
         -2   -1    0    0    0  501 -0.00000000000E+00 -0.00000000000E+00 -0.17783973591E+02  0.17783973781E+02  0.26000000000E-02 0.  1.
       1023    2    1    2    0    0  0.00000000000E+00  0.00000000000E+00 -0.12159656309E+02  0.23408291664E+02  0.20002271797E+02 0.  0.
        -13    1    3    3    0    0 -0.47581621103E+01 -0.87957895078E+01 -0.59928246821E+01  0.11658951063E+02  0.10570000000E+00 0.  1.
         13    1    3    3    0    0  0.47581621103E+01  0.87957895078E+01 -0.61668316273E+01  0.11749340600E+02  0.10570000000E+00 0. -1.
<mgrwt>
<rscale>  0 0.20002272E+02</rscale>
<asrwt>0</asrwt>
<pdfrwt beam="1">  1        2 0.86527965E-03 0.20002272E+02</pdfrwt>
<pdfrwt beam="2">  1       -2 0.27359960E-02 0.20002272E+02</pdfrwt>
<totfact> 0.37784665E+06</totfact>
</mgrwt>
</event>
<event>
 5    1  0.1607476E-006  0.2000490E+02  0.7818608E-02  0.1745231E+00
          2   -1    0    0  501    0  0.00000000000E+00  0.00000000000E+00  0.58952816373E+02  0.58952816431E+02  0.26000000000E-02 0. -1.
         -2   -1    0    0    0  501 -0.00000000000E+00 -0.00000000000E+00 -0.16971027174E+01  0.16971047090E+01  0.26000000000E-02 0.  1.
       1023    2    1    2    0    0  0.00000000000E+00  0.00000000000E+00  0.57255713656E+02  0.60649921140E+02  0.20004904099E+02 0.  0.
        -13    1    3    3    0    0  0.10000795018E+02 -0.17684853240E-02  0.28178477945E+02  0.29900730692E+02  0.10570000000E+00 0. -1.
         13    1    3    3    0    0 -0.10000795018E+02  0.17684853240E-02  0.29077235710E+02  0.30749190447E+02  0.10570000000E+00 0.  1.
<mgrwt>
<rscale>  0 0.20004904E+02</rscale>
<asrwt>0</asrwt>
<pdfrwt beam="1">  1        2 0.90696652E-02 0.20004904E+02</pdfrwt>
<pdfrwt beam="2">  1       -2 0.26109285E-03 0.20004904E+02</pdfrwt>
<totfact> 0.47530712E+06</totfact>
</mgrwt>
</event>
<event>
 5    1  0.1607476E-006  0.2001194E+02  0.7818608E-02  0.1745091E+00
         -2   -1    0    0    0  501 -0.00000000000E+00  0.00000000000E+00  0.50144774989E+02  0.50144775056E+02  0.26000000000E-02 0. -1.
          2   -1    0    0  501    0  0.00000000000E+00 -0.00000000000E+00 -0.19966067222E+01  0.19966084151E+01  0.26000000000E-02 0.  1.
       1023    2    1    2    0    0  0.00000000000E+00  0.00000000000E+00  0.48148168266E+02  0.52141383471E+02  0.20011940507E+02 0.  0.
        -13    1    3    3    0    0  0.48690611568E+00 -0.99934542715E+01  0.23955758710E+02  0.25961428191E+02  0.10570000000E+00 0.  1.
         13    1    3    3    0    0 -0.48690611568E+00  0.99934542715E+01  0.24192409557E+02  0.26179955280E+02  0.10570000000E+00 0. -1.
<mgrwt>
<rscale>  0 0.20011941E+02</rscale>
<asrwt>0</asrwt>
<pdfrwt beam="2">  1        2 0.30717044E-03 0.20011941E+02</pdfrwt>
<pdfrwt beam="1">  1       -2 0.77145798E-02 0.20011941E+02</pdfrwt>
<totfact> 0.33840401E+06</totfact>
</mgrwt>
</event>
<event>
 5    1  0.1607476E-006  0.2000693E+02  0.7818608E-02  0.1745190E+00
         -2   -1    0    0    0  501 -0.00000000000E+00  0.00000000000E+00  0.16829635038E+01  0.16829655122E+01  0.26000000000E-02 0. -1.
          2   -1    0    0  501    0  0.00000000000E+00 -0.00000000000E+00 -0.59460118492E+02  0.59460118549E+02  0.26000000000E-02 0.  1.
       1023    2    1    2    0    0  0.00000000000E+00  0.00000000000E+00 -0.57777154988E+02  0.61143084061E+02  0.20006926050E+02 0.  0.
        -13    1    3    3    0    0  0.80019051892E+01  0.60022338990E+01 -0.28802053438E+02  0.30489781127E+02  0.10570000000E+00 0. -1.
         13    1    3    3    0    0 -0.80019051892E+01 -0.60022338990E+01 -0.28975101550E+02  0.30653302934E+02  0.10570000000E+00 0.  1.
<mgrwt>
<rscale>  0 0.20006926E+02</rscale>
<asrwt>0</asrwt>
<pdfrwt beam="2">  1        2 0.91477091E-02 0.20006926E+02</pdfrwt>
<pdfrwt beam="1">  1       -2 0.25891767E-03 0.20006926E+02</pdfrwt>
<totfact> 0.47588414E+06</totfact>
</mgrwt>
</event>
<event>
 5    1  0.1607476E-006  0.2001153E+02  0.7818608E-02  0.1745099E+00
         -2   -1    0    0    0  501 -0.00000000000E+00  0.00000000000E+00  0.60830637840E+01  0.60830643396E+01  0.26000000000E-02 0.  1.
          2   -1    0    0  501    0  0.00000000000E+00 -0.00000000000E+00 -0.16458041125E+02  0.16458041330E+02  0.26000000000E-02 0. -1.
       1023    2    1    2    0    0  0.00000000000E+00  0.00000000000E+00 -0.10374977341E+02  0.22541105670E+02  0.20011528927E+02 0.  0.
        -13    1    3    3    0    0  0.62603374225E+01  0.78036205688E+01 -0.53292162519E+01  0.11335785680E+02  0.10570000000E+00 0.  1.
         13    1    3    3    0    0 -0.62603374225E+01 -0.78036205688E+01 -0.50457610890E+01  0.11205319990E+02  0.10570000000E+00 0. -1.
<mgrwt>
<rscale>  0 0.20011529E+02</rscale>
<asrwt>0</asrwt>
<pdfrwt beam="2">  1        2 0.25320064E-02 0.20011529E+02</pdfrwt>
<pdfrwt beam="1">  1       -2 0.93585603E-03 0.20011529E+02</pdfrwt>
<totfact> 0.40940551E+06</totfact>
</mgrwt>
</event>
<event>
 4    1  0.1607476E-006  0.2011641E+02  0.7818608E-02  0.1743023E+00
          2   -1    0    0  501    0  0.00000000000E+00  0.00000000000E+00  0.52083722633E+02  0.52083722698E+02  0.26000000000E-02 0. -1.
         -2   -1    0    0    0  501 -0.00000000000E+00 -0.00000000000E+00 -0.19424012555E+01  0.19424029956E+01  0.26000000000E-02 0.  1.
        -13    1    1    2    0    0  0.75636629956E+01 -0.65562603598E+01  0.22435391139E+02  0.24567285073E+02  0.10570000000E+00 0. -1.
         13    1    1    2    0    0 -0.75636629956E+01  0.65562603598E+01  0.27705930238E+02  0.29458840620E+02  0.10570000000E+00 0.  1.
<mgrwt>
<rscale>  0 0.20116415E+02</rscale>
<asrwt>0</asrwt>
<pdfrwt beam="1">  1        2 0.80128803E-02 0.20116415E+02</pdfrwt>
<pdfrwt beam="2">  1       -2 0.29883111E-03 0.20116415E+02</pdfrwt>
<totfact> 0.46019273E+06</totfact>
</mgrwt>
</event>
<event>
 5    1  0.1607476E-006  0.2000948E+02  0.7818608E-02  0.1745140E+00
          2   -1    0    0  501    0  0.00000000000E+00  0.00000000000E+00  0.21752153652E+02  0.21752153808E+02  0.26000000000E-02 0.  1.
         -2   -1    0    0    0  501 -0.00000000000E+00 -0.00000000000E+00 -0.46016030168E+01  0.46016037514E+01  0.26000000000E-02 0. -1.
       1023    2    1    2    0    0  0.00000000000E+00  0.00000000000E+00  0.17150550635E+02  0.26353757559E+02  0.20009476514E+02 0.  0.
        -13    1    3    3    0    0 -0.89423253282E+01 -0.44806346174E+01  0.88463034187E+01  0.13353258985E+02  0.10570000000E+00 0.  1.
         13    1    3    3    0    0  0.89423253282E+01  0.44806346174E+01  0.83042472166E+01  0.13000498574E+02  0.10570000000E+00 0. -1.
<mgrwt>
<rscale>  0 0.20009477E+02</rscale>
<asrwt>0</asrwt>
<pdfrwt beam="1">  1        2 0.33464852E-02 0.20009477E+02</pdfrwt>
<pdfrwt beam="2">  1       -2 0.70793901E-03 0.20009477E+02</pdfrwt>
<totfact> 0.41950204E+06</totfact>
</mgrwt>
</event>
<event>
 5    1  0.1607476E-006  0.2000324E+02  0.7818608E-02  0.1745264E+00
         -2   -1    0    0    0  501 -0.00000000000E+00  0.00000000000E+00  0.11506778111E+01  0.11506807485E+01  0.26000000000E-02 0.  1.
          2   -1    0    0  501    0  0.00000000000E+00 -0.00000000000E+00 -0.86933380626E+02  0.86933380665E+02  0.26000000000E-02 0. -1.
       1023    2    1    2    0    0  0.00000000000E+00  0.00000000000E+00 -0.85782702815E+02  0.88084061414E+02  0.20003244058E+02 0.  0.
        -13    1    3    3    0    0 -0.66980176028E+01  0.74268317480E+01 -0.42886731982E+02  0.44037531972E+02  0.10570000000E+00 0. -1.
         13    1    3    3    0    0  0.66980176028E+01 -0.74268317480E+01 -0.42895970833E+02  0.44046529442E+02  0.10570000000E+00 0.  1.
<mgrwt>
<rscale>  0 0.20003244E+02</rscale>
<asrwt>0</asrwt>
<pdfrwt beam="2">  1        2 0.13374361E-01 0.20003244E+02</pdfrwt>
<pdfrwt beam="1">  1       -2 0.17702765E-03 0.20003244E+02</pdfrwt>
<totfact> 0.51147828E+06</totfact>
</mgrwt>
</event>
<event>
 4    1  0.1607476E-006  0.2005178E+02  0.7818608E-02  0.1744300E+00
          2   -1    0    0  501    0  0.00000000000E+00  0.00000000000E+00  0.22753742066E+01  0.22753756921E+01  0.26000000000E-02 0.  1.
         -2   -1    0    0    0  501 -0.00000000000E+00 -0.00000000000E+00 -0.44176651836E+02  0.44176651913E+02  0.26000000000E-02 0. -1.
        -13    1    1    2    0    0 -0.43901271035E+00 -0.10002248819E+02 -0.19747867724E+02  0.22141074177E+02  0.10570000000E+00 0.  1.
         13    1    1    2    0    0  0.43901271035E+00  0.10002248819E+02 -0.22153409906E+02  0.24310953427E+02  0.10570000000E+00 0. -1.
<mgrwt>
<rscale>  0 0.20051778E+02</rscale>
<asrwt>0</asrwt>
<pdfrwt beam="1">  1        2 0.35005772E-03 0.20051778E+02</pdfrwt>
<pdfrwt beam="2">  1       -2 0.67964074E-02 0.20051778E+02</pdfrwt>
<totfact> 0.34287457E+06</totfact>
</mgrwt>
</event>
<event>
 5    1  0.1607476E-006  0.2000123E+02  0.7818608E-02  0.1745304E+00
         -2   -1    0    0    0  501 -0.00000000000E+00  0.00000000000E+00  0.84039427910E+01  0.84039431932E+01  0.26000000000E-02 0.  1.
          2   -1    0    0  501    0  0.00000000000E+00 -0.00000000000E+00 -0.11900638914E+02  0.11900639198E+02  0.26000000000E-02 0. -1.
       1023    2    1    2    0    0  0.00000000000E+00  0.00000000000E+00 -0.34966961230E+01  0.20304582391E+02  0.20001229520E+02 0.  0.
        -13    1    3    3    0    0 -0.26119874776E+01  0.96529008033E+01 -0.17608054679E+01  0.10154436513E+02  0.10570000000E+00 0.  1.
         13    1    3    3    0    0  0.26119874776E+01 -0.96529008033E+01 -0.17358906550E+01  0.10150145879E+02  0.10570000000E+00 0. -1.
<mgrwt>
<rscale>  0 0.20001230E+02</rscale>
<asrwt>0</asrwt>
<pdfrwt beam="2">  1        2 0.18308676E-02 0.20001230E+02</pdfrwt>
<pdfrwt beam="1">  1       -2 0.12929143E-02 0.20001230E+02</pdfrwt>
<totfact> 0.39968267E+06</totfact>
</mgrwt>
</event>
<event>
 5    1  0.1607476E-006  0.2000257E+02  0.7818608E-02  0.1745277E+00
          2   -1    0    0  501    0  0.00000000000E+00  0.00000000000E+00  0.11128452099E+01  0.11128482472E+01  0.26000000000E-02 0. -1.
         -2   -1    0    0    0  501 -0.00000000000E+00 -0.00000000000E+00 -0.89882724605E+02  0.89882724642E+02  0.26000000000E-02 0.  1.
       1023    2    1    2    0    0  0.00000000000E+00  0.00000000000E+00 -0.88769879395E+02  0.90995572890E+02  0.20002569778E+02 0.  0.
        -13    1    3    3    0    0  0.51527359908E+01  0.85710914440E+01 -0.44453962793E+02  0.45565121280E+02  0.10570000000E+00 0.  1.
         13    1    3    3    0    0 -0.51527359908E+01 -0.85710914440E+01 -0.44315916602E+02  0.45430451610E+02  0.10570000000E+00 0. -1.
<mgrwt>
<rscale>  0 0.20002570E+02</rscale>
<asrwt>0</asrwt>
<pdfrwt beam="1">  1        2 0.17120726E-03 0.20002570E+02</pdfrwt>
<pdfrwt beam="2">  1       -2 0.13828106E-01 0.20002570E+02</pdfrwt>
<totfact> 0.30475710E+06</totfact>
</mgrwt>
</event>
<event>
 5    1  0.1607476E-006  0.2000199E+02  0.7818608E-02  0.1745289E+00
          2   -1    0    0  501    0  0.00000000000E+00  0.00000000000E+00  0.34500561211E+01  0.34500571008E+01  0.26000000000E-02 0.  1.
         -2   -1    0    0    0  501 -0.00000000000E+00 -0.00000000000E+00 -0.28990792178E+02  0.28990792295E+02  0.26000000000E-02 0. -1.
       1023    2    1    2    0    0  0.00000000000E+00  0.00000000000E+00 -0.25540736057E+02  0.32440849396E+02  0.20001987680E+02 0.  0.
        -13    1    3    3    0    0 -0.10661241911E+01 -0.99432805027E+01 -0.12862934047E+02  0.16293302082E+02  0.10570000000E+00 0. -1.
         13    1    3    3    0    0  0.10661241911E+01  0.99432805027E+01 -0.12677802010E+02  0.16147547313E+02  0.10570000000E+00 0.  1.
<mgrwt>
<rscale>  0 0.20001988E+02</rscale>
<asrwt>0</asrwt>
<pdfrwt beam="1">  1        2 0.53077797E-03 0.20001988E+02</pdfrwt>
<pdfrwt beam="2">  1       -2 0.44601218E-02 0.20001988E+02</pdfrwt>
<totfact> 0.36181757E+06</totfact>
</mgrwt>
</event>
<event>
 4    1  0.1607476E-006  0.2005947E+02  0.7818608E-02  0.1744148E+00
         -2   -1    0    0    0  501 -0.00000000000E+00  0.00000000000E+00  0.12378251228E+02  0.12378251501E+02  0.26000000000E-02 0. -1.
          2   -1    0    0  501    0  0.00000000000E+00 -0.00000000000E+00 -0.81267989449E+01  0.81267993608E+01  0.26000000000E-02 0.  1.
        -13    1    1    2    0    0  0.99358934279E+01 -0.13646308015E+01  0.21401155377E+01  0.10255508883E+02  0.10570000000E+00 0.  1.
         13    1    1    2    0    0 -0.99358934279E+01  0.13646308015E+01  0.21113367449E+01  0.10249541979E+02  0.10570000000E+00 0. -1.
<mgrwt>
<rscale>  0 0.20059468E+02</rscale>
<asrwt>0</asrwt>
<pdfrwt beam="2">  1        2 0.12502768E-02 0.20059468E+02</pdfrwt>
<pdfrwt beam="1">  1       -2 0.19043464E-02 0.20059468E+02</pdfrwt>
<totfact> 0.38603843E+06</totfact>
</mgrwt>
</event>
<event>
 4    1  0.1607476E-006  0.2003924E+02  0.7818608E-02  0.1744549E+00
          2   -1    0    0  501    0  0.00000000000E+00  0.00000000000E+00  0.40223027835E+02  0.40223027919E+02  0.26000000000E-02 0. -1.
         -2   -1    0    0    0  501 -0.00000000000E+00 -0.00000000000E+00 -0.24959013817E+01  0.24959027359E+01  0.26000000000E-02 0.  1.
        -13    1    1    2    0    0 -0.75910092159E+01 -0.65361751812E+01  0.19271182368E+02  0.21719453245E+02  0.10570000000E+00 0. -1.
         13    1    1    2    0    0  0.75910092159E+01  0.65361751812E+01  0.18455944085E+02  0.20999477410E+02  0.10570000000E+00 0.  1.
<mgrwt>
<rscale>  0 0.20039236E+02</rscale>
<asrwt>0</asrwt>
<pdfrwt beam="1">  1        2 0.61881581E-02 0.20039236E+02</pdfrwt>
<pdfrwt beam="2">  1       -2 0.38398495E-03 0.20039236E+02</pdfrwt>
<totfact> 0.44732833E+06</totfact>
</mgrwt>
</event>
<event>
 5    1  0.1607476E-006  0.2000223E+02  0.7818608E-02  0.1745284E+00
         -2   -1    0    0    0  501 -0.00000000000E+00  0.00000000000E+00  0.75569504634E+01  0.75569509107E+01  0.26000000000E-02 0. -1.
          2   -1    0    0  501    0  0.00000000000E+00 -0.00000000000E+00 -0.13235795477E+02  0.13235795733E+02  0.26000000000E-02 0.  1.
       1023    2    1    2    0    0  0.00000000000E+00  0.00000000000E+00 -0.56788450138E+01  0.20792746643E+02  0.20002225683E+02 0.  0.
        -13    1    3    3    0    0  0.67373070706E+01 -0.73902588541E+01 -0.29039489783E+01  0.10413996574E+02  0.10570000000E+00 0. -1.
         13    1    3    3    0    0 -0.67373070706E+01  0.73902588541E+01 -0.27748960355E+01  0.10378750069E+02  0.10570000000E+00 0.  1.
<mgrwt>
<rscale>  0 0.20002226E+02</rscale>
<asrwt>0</asrwt>
<pdfrwt beam="2">  1        2 0.20362763E-02 0.20002226E+02</pdfrwt>
<pdfrwt beam="1">  1       -2 0.11626078E-02 0.20002226E+02</pdfrwt>
<totfact> 0.40286049E+06</totfact>
</mgrwt>
</event>
<event>
 5    1  0.1607476E-006  0.2000133E+02  0.7818608E-02  0.1745302E+00
          2   -1    0    0  501    0  0.00000000000E+00  0.00000000000E+00  0.58341627269E+01  0.58341633063E+01  0.26000000000E-02 0.  1.
         -2   -1    0    0    0  501 -0.00000000000E+00 -0.00000000000E+00 -0.17142704184E+02  0.17142704381E+02  0.26000000000E-02 0. -1.
       1023    2    1    2    0    0  0.00000000000E+00  0.00000000000E+00 -0.11308541457E+02  0.22976867687E+02  0.20001333426E+02 0.  0.
        -13    1    3    3    0    0 -0.93196252112E+01 -0.36258003847E+01 -0.56748112127E+01  0.11498543268E+02  0.10570000000E+00 0.  1.
         13    1    3    3    0    0  0.93196252112E+01  0.36258003847E+01 -0.56337302440E+01  0.11478324419E+02  0.10570000000E+00 0. -1.
<mgrwt>
<rscale>  0 0.20001333E+02</rscale>
<asrwt>0</asrwt>
<pdfrwt beam="1">  1        2 0.89756356E-03 0.20001333E+02</pdfrwt>
<pdfrwt beam="2">  1       -2 0.26373391E-02 0.20001333E+02</pdfrwt>
<totfact> 0.37898714E+06</totfact>
</mgrwt>
</event>
<event>
 5    1  0.1607476E-006  0.2000549E+02  0.7818608E-02  0.1745219E+00
          2   -1    0    0  501    0  0.00000000000E+00  0.00000000000E+00  0.39947057987E+02  0.39947058072E+02  0.26000000000E-02 0. -1.
         -2   -1    0    0    0  501 -0.00000000000E+00 -0.00000000000E+00 -0.25046867159E+01  0.25046880653E+01  0.26000000000E-02 0.  1.
       1023    2    1    2    0    0  0.00000000000E+00  0.00000000000E+00  0.37442371272E+02  0.42451746137E+02  0.20005488839E+02 0.  0.
        -13    1    3    3    0    0  0.96673746186E-01  0.10001691459E+02  0.18671620434E+02  0.21182156641E+02  0.10570000000E+00 0.  1.
         13    1    3    3    0    0 -0.96673746186E-01 -0.10001691459E+02  0.18770750837E+02  0.21269589496E+02  0.10570000000E+00 0. -1.
<mgrwt>
<rscale>  0 0.20005489E+02</rscale>
<asrwt>0</asrwt>
<pdfrwt beam="1">  1        2 0.61457011E-02 0.20005489E+02</pdfrwt>
<pdfrwt beam="2">  1       -2 0.38533654E-03 0.20005489E+02</pdfrwt>
<totfact> 0.44861023E+06</totfact>
</mgrwt>
</event>
<event>
 5    1  0.1607476E-006  0.2000363E+02  0.7818608E-02  0.1745256E+00
          2   -1    0    0  501    0  0.00000000000E+00  0.00000000000E+00  0.12605388262E+01  0.12605415076E+01  0.26000000000E-02 0.  1.
         -2   -1    0    0    0  501 -0.00000000000E+00 -0.00000000000E+00 -0.79359848264E+02  0.79359848306E+02  0.26000000000E-02 0. -1.
       1023    2    1    2    0    0  0.00000000000E+00  0.00000000000E+00 -0.78099309438E+02  0.80620389814E+02  0.20003627649E+02 0.  0.
        -13    1    3    3    0    0  0.99100714725E+01 -0.13466758312E+01 -0.39232352047E+02  0.40487179107E+02  0.10570000000E+00 0.  1.
         13    1    3    3    0    0 -0.99100714725E+01  0.13466758312E+01 -0.38866957391E+02  0.40133210707E+02  0.10570000000E+00 0. -1.
<mgrwt>
<rscale>  0 0.20003628E+02</rscale>
<asrwt>0</asrwt>
<pdfrwt beam="1">  1        2 0.19392932E-03 0.20003628E+02</pdfrwt>
<pdfrwt beam="2">  1       -2 0.12209204E-01 0.20003628E+02</pdfrwt>
<totfact> 0.31296888E+06</totfact>
</mgrwt>
</event>
<event>
 4    1  0.1607476E-006  0.2013818E+02  0.7818608E-02  0.1742594E+00
         -2   -1    0    0    0  501 -0.00000000000E+00  0.00000000000E+00  0.92646118672E+00  0.92646483500E+00  0.26000000000E-02 0.  1.
          2   -1    0    0  501    0  0.00000000000E+00 -0.00000000000E+00 -0.10943401139E+03  0.10943401142E+03  0.26000000000E-02 0. -1.
        -13    1    1    2    0    0  0.25368348766E+01 -0.97297150640E+01 -0.51393003911E+02  0.52367498603E+02  0.10570000000E+00 0.  1.
         13    1    1    2    0    0 -0.25368348766E+01  0.97297150640E+01 -0.57114546290E+02  0.57992977651E+02  0.10570000000E+00 0. -1.
<mgrwt>
<rscale>  0 0.20138179E+02</rscale>
<asrwt>0</asrwt>
<pdfrwt beam="2">  1        2 0.16835992E-01 0.20138179E+02</pdfrwt>
<pdfrwt beam="1">  1       -2 0.14253286E-03 0.20138179E+02</pdfrwt>
<totfact> 0.53061761E+06</totfact>
</mgrwt>
</event>
<event>
 5    1  0.1607476E-006  0.2000517E+02  0.7818608E-02  0.1745225E+00
         -2   -1    0    0    0  501 -0.00000000000E+00  0.00000000000E+00  0.32023775899E+01  0.32023786453E+01  0.26000000000E-02 0. -1.
          2   -1    0    0  501    0  0.00000000000E+00 -0.00000000000E+00 -0.31242925235E+02  0.31242925343E+02  0.26000000000E-02 0.  1.
       1023    2    1    2    0    0  0.00000000000E+00  0.00000000000E+00 -0.28040547645E+02  0.34445303988E+02  0.20005165698E+02 0.  0.
        -13    1    3    3    0    0 -0.49863227054E+01  0.86703573121E+01 -0.14096911716E+02  0.17285039846E+02  0.10570000000E+00 0. -1.
         13    1    3    3    0    0  0.49863227054E+01 -0.86703573121E+01 -0.13943635929E+02  0.17160264142E+02  0.10570000000E+00 0.  1.
<mgrwt>
<rscale>  0 0.20005166E+02</rscale>
<asrwt>0</asrwt>
<pdfrwt beam="2">  1        2 0.48066038E-02 0.20005166E+02</pdfrwt>
<pdfrwt beam="1">  1       -2 0.49267359E-03 0.20005166E+02</pdfrwt>
<totfact> 0.43544079E+06</totfact>
</mgrwt>
</event>
<event>
 5    1  0.1607476E-006  0.2000382E+02  0.7818608E-02  0.1745252E+00
         -2   -1    0    0    0  501 -0.00000000000E+00  0.00000000000E+00  0.10881488633E+01  0.10881519695E+01  0.26000000000E-02 0.  1.
          2   -1    0    0  501    0  0.00000000000E+00 -0.00000000000E+00 -0.91934123911E+02  0.91934123948E+02  0.26000000000E-02 0. -1.
       1023    2    1    2    0    0  0.00000000000E+00  0.00000000000E+00 -0.90845975048E+02  0.93022275917E+02  0.20003815497E+02 0.  0.
        -13    1    3    3    0    0 -0.48132084590E+01  0.87667270911E+01 -0.45735161564E+02  0.46816008537E+02  0.10570000000E+00 0.  1.
         13    1    3    3    0    0  0.48132084590E+01 -0.87667270911E+01 -0.45110813483E+02  0.46206267380E+02  0.10570000000E+00 0. -1.
<mgrwt>
<rscale>  0 0.20003815E+02</rscale>
<asrwt>0</asrwt>
<pdfrwt beam="2">  1        2 0.14143705E-01 0.20003815E+02</pdfrwt>
<pdfrwt beam="1">  1       -2 0.16740783E-03 0.20003815E+02</pdfrwt>
<totfact> 0.51760053E+06</totfact>
</mgrwt>
</event>
<event>
 5    1  0.1607476E-006  0.2000285E+02  0.7818608E-02  0.1745271E+00
         -2   -1    0    0    0  501 -0.00000000000E+00  0.00000000000E+00  0.43293780338E+02  0.43293780416E+02  0.26000000000E-02 0.  1.
          2   -1    0    0  501    0  0.00000000000E+00 -0.00000000000E+00 -0.23104579204E+01  0.23104593833E+01  0.26000000000E-02 0. -1.
       1023    2    1    2    0    0  0.00000000000E+00  0.00000000000E+00  0.40983322418E+02  0.45604239799E+02  0.20002849080E+02 0.  0.
        -13    1    3    3    0    0 -0.15859903231E+00  0.99991916990E+01  0.20699769446E+02  0.22989141260E+02  0.10570000000E+00 0. -1.
         13    1    3    3    0    0  0.15859903231E+00 -0.99991916990E+01  0.20283552972E+02  0.22615098539E+02  0.10570000000E+00 0.  1.
<mgrwt>
<rscale>  0 0.20002849E+02</rscale>
<asrwt>0</asrwt>
<pdfrwt beam="2">  1        2 0.35545521E-03 0.20002849E+02</pdfrwt>
<pdfrwt beam="1">  1       -2 0.66605812E-02 0.20002849E+02</pdfrwt>
<totfact> 0.34562126E+06</totfact>
</mgrwt>
</event>
<event>
 5    1  0.1607476E-006  0.2000248E+02  0.7818608E-02  0.1745279E+00
          2   -1    0    0  501    0  0.00000000000E+00  0.00000000000E+00  0.11423341066E+01  0.11423370655E+01  0.26000000000E-02 0.  1.
         -2   -1    0    0    0  501 -0.00000000000E+00 -0.00000000000E+00 -0.87561687087E+02  0.87561687126E+02  0.26000000000E-02 0. -1.
       1023    2    1    2    0    0  0.00000000000E+00  0.00000000000E+00 -0.86419352981E+02  0.88704024192E+02  0.20002483300E+02 0.  0.
        -13    1    3    3    0    0 -0.80061261514E+01  0.59926664751E+01 -0.42945280080E+02  0.44094425510E+02  0.10570000000E+00 0. -1.
         13    1    3    3    0    0  0.80061261514E+01 -0.59926664751E+01 -0.43474072901E+02  0.44609598681E+02  0.10570000000E+00 0.  1.
<mgrwt>
<rscale>  0 0.20002483E+02</rscale>
<asrwt>0</asrwt>
<pdfrwt beam="1">  1        2 0.17574401E-03 0.20002483E+02</pdfrwt>
<pdfrwt beam="2">  1       -2 0.13471024E-01 0.20002483E+02</pdfrwt>
<totfact> 0.30654247E+06</totfact>
</mgrwt>
</event>
<event>
 5    1  0.1607476E-006  0.2000333E+02  0.7818608E-02  0.1745262E+00
         -2   -1    0    0    0  501 -0.00000000000E+00  0.00000000000E+00  0.30720147614E+01  0.30720158617E+01  0.26000000000E-02 0. -1.
          2   -1    0    0  501    0  0.00000000000E+00 -0.00000000000E+00 -0.32562750026E+02  0.32562750130E+02  0.26000000000E-02 0.  1.
       1023    2    1    2    0    0  0.00000000000E+00  0.00000000000E+00 -0.29490735264E+02  0.35634765991E+02  0.20003326744E+02 0.  0.
        -13    1    3    3    0    0 -0.33026508733E+01 -0.94397667484E+01 -0.14876260103E+02  0.17925707412E+02  0.10570000000E+00 0. -1.
         13    1    3    3    0    0  0.33026508733E+01  0.94397667484E+01 -0.14614475161E+02  0.17709058580E+02  0.10570000000E+00 0.  1.
<mgrwt>
<rscale>  0 0.20003327E+02</rscale>
<asrwt>0</asrwt>
<pdfrwt beam="2">  1        2 0.50096537E-02 0.20003327E+02</pdfrwt>
<pdfrwt beam="1">  1       -2 0.47261777E-03 0.20003327E+02</pdfrwt>
<totfact> 0.43758718E+06</totfact>
</mgrwt>
</event>
<event>
 5    1  0.1607476E-006  0.2000488E+02  0.7818608E-02  0.1745231E+00
         -2   -1    0    0    0  501 -0.00000000000E+00  0.00000000000E+00  0.85011682690E+01  0.85011686666E+01  0.26000000000E-02 0. -1.
          2   -1    0    0  501    0  0.00000000000E+00 -0.00000000000E+00 -0.11768835126E+02  0.11768835413E+02  0.26000000000E-02 0.  1.
       1023    2    1    2    0    0  0.00000000000E+00  0.00000000000E+00 -0.32676668572E+01  0.20270004080E+02  0.20004884871E+02 0.  0.
        -13    1    3    3    0    0  0.78344439558E+01  0.62167658417E+01 -0.17400683391E+01  0.10152127853E+02  0.10570000000E+00 0.  1.
         13    1    3    3    0    0 -0.78344439558E+01 -0.62167658417E+01 -0.15275985181E+01  0.10117876227E+02  0.10570000000E+00 0. -1.
<mgrwt>
<rscale>  0 0.20004885E+02</rscale>
<asrwt>0</asrwt>
<pdfrwt beam="2">  1        2 0.18105901E-02 0.20004885E+02</pdfrwt>
<pdfrwt beam="1">  1       -2 0.13078721E-02 0.20004885E+02</pdfrwt>
<totfact> 0.39918434E+06</totfact>
</mgrwt>
</event>
<event>
 5    1  0.1607476E-006  0.2001051E+02  0.7818608E-02  0.1745119E+00
         -2   -1    0    0    0  501 -0.00000000000E+00  0.00000000000E+00  0.34739655468E+02  0.34739655565E+02  0.26000000000E-02 0. -1.
          2   -1    0    0  501    0  0.00000000000E+00 -0.00000000000E+00 -0.28815804548E+01  0.28815816278E+01  0.26000000000E-02 0.  1.
       1023    2    1    2    0    0  0.00000000000E+00  0.00000000000E+00  0.31858075013E+02  0.37621237193E+02  0.20010510848E+02 0.  0.
        -13    1    3    3    0    0 -0.67335255783E+01 -0.73945801739E+01  0.16439715344E+02  0.19243066174E+02  0.10570000000E+00 0. -1.
         13    1    3    3    0    0  0.67335255783E+01  0.73945801739E+01  0.15418359669E+02  0.18378171019E+02  0.10570000000E+00 0.  1.
<mgrwt>
<rscale>  0 0.20010511E+02</rscale>
<asrwt>0</asrwt>
<pdfrwt beam="2">  1        2 0.44332012E-03 0.20010511E+02</pdfrwt>
<pdfrwt beam="1">  1       -2 0.53445631E-02 0.20010511E+02</pdfrwt>
<totfact> 0.35461973E+06</totfact>
</mgrwt>
</event>
<event>
 5    1  0.1607476E-006  0.2001231E+02  0.7818608E-02  0.1745083E+00
         -2   -1    0    0    0  501 -0.00000000000E+00  0.00000000000E+00  0.93030467518E+00  0.93030830839E+00  0.26000000000E-02 0.  1.
          2   -1    0    0  501    0  0.00000000000E+00 -0.00000000000E+00 -0.10762378070E+03  0.10762378073E+03  0.26000000000E-02 0. -1.
       1023    2    1    2    0    0  0.00000000000E+00  0.00000000000E+00 -0.10669347602E+03  0.10855408904E+03  0.20012306738E+02 0.  0.
        -13    1    3    3    0    0  0.89514658346E+01 -0.44690209123E+01 -0.52776682315E+02  0.53716759556E+02  0.10570000000E+00 0.  1.
         13    1    3    3    0    0 -0.89514658346E+01  0.44690209123E+01 -0.53916793708E+02  0.54837329482E+02  0.10570000000E+00 0. -1.
<mgrwt>
<rscale>  0 0.20012307E+02</rscale>
<asrwt>0</asrwt>
<pdfrwt beam="2">  1        2 0.16557495E-01 0.20012307E+02</pdfrwt>
<pdfrwt beam="1">  1       -2 0.14312416E-03 0.20012307E+02</pdfrwt>
<totfact> 0.53588854E+06</totfact>
</mgrwt>
</event>
<event>
 5    1  0.1626650E-006  0.2000236E+02  0.7818608E-02  0.1745281E+00
          2   -1    0    0  501    0  0.00000000000E+00  0.00000000000E+00  0.58912319711E+02  0.58912319769E+02  0.26000000000E-02 0.  1.
         -2   -1    0    0    0  501 -0.00000000000E+00 -0.00000000000E+00 -0.16978378731E+01  0.16978398639E+01  0.26000000000E-02 0. -1.
       1023    2    1    2    0    0  0.00000000000E+00  0.00000000000E+00  0.57214481838E+02  0.60610159633E+02  0.20002362827E+02 0.  0.
        -13    1    3    3    0    0 -0.68914297123E+01 -0.72470130604E+01  0.28491641521E+02  0.30195956862E+02  0.10570000000E+00 0.  1.
         13    1    3    3    0    0  0.68914297123E+01  0.72470130604E+01  0.28722840317E+02  0.30414202770E+02  0.10570000000E+00 0. -1.
<mgrwt>
<rscale>  0 0.20002363E+02</rscale>
<asrwt>0</asrwt>
<pdfrwt beam="1">  1        2 0.90634341E-02 0.20002363E+02</pdfrwt>
<pdfrwt beam="2">  1       -2 0.26120598E-03 0.20002363E+02</pdfrwt>
<totfact> 0.47538667E+06</totfact>
</mgrwt>
</event>
<event>
 5    1  0.1607476E-006  0.2000233E+02  0.7818608E-02  0.1745282E+00
          2   -1    0    0  501    0  0.00000000000E+00  0.00000000000E+00  0.17103809725E+01  0.17103829486E+01  0.26000000000E-02 0. -1.
         -2   -1    0    0    0  501 -0.00000000000E+00 -0.00000000000E+00 -0.58480107878E+02  0.58480107936E+02  0.26000000000E-02 0.  1.
       1023    2    1    2    0    0  0.00000000000E+00  0.00000000000E+00 -0.56769726905E+02  0.60190490884E+02  0.20002332363E+02 0.  0.
        -13    1    3    3    0    0 -0.46189370286E+01  0.88697003817E+01 -0.28617727030E+02  0.30314874847E+02  0.10570000000E+00 0. -1.
         13    1    3    3    0    0  0.46189370286E+01 -0.88697003817E+01 -0.28151999875E+02  0.29875616037E+02  0.10570000000E+00 0.  1.
<mgrwt>
<rscale>  0 0.20002332E+02</rscale>
<asrwt>0</asrwt>
<pdfrwt beam="1">  1        2 0.26313574E-03 0.20002332E+02</pdfrwt>
<pdfrwt beam="2">  1       -2 0.89969383E-02 0.20002332E+02</pdfrwt>
<totfact> 0.33089998E+06</totfact>
</mgrwt>
</event>
<event>
 4    1  0.1607476E-006  0.2004932E+02  0.7818608E-02  0.1744349E+00
         -2   -1    0    0    0  501 -0.00000000000E+00  0.00000000000E+00  0.15637885117E+01  0.15637906731E+01  0.26000000000E-02 0. -1.
          2   -1    0    0  501    0  0.00000000000E+00 -0.00000000000E+00 -0.64262999327E+02  0.64262999380E+02  0.26000000000E-02 0.  1.
        -13    1    1    2    0    0 -0.53226747362E+01 -0.84939502449E+01 -0.31127328474E+02  0.32701678971E+02  0.10570000000E+00 0. -1.
         13    1    1    2    0    0  0.53226747362E+01  0.84939502449E+01 -0.31571882341E+02  0.33125111082E+02  0.10570000000E+00 0.  1.
<mgrwt>
<rscale>  0 0.20049320E+02</rscale>
<asrwt>0</asrwt>
<pdfrwt beam="2">  1        2 0.98866134E-02 0.20049320E+02</pdfrwt>
<pdfrwt beam="1">  1       -2 0.24058307E-03 0.20049320E+02</pdfrwt>
<totfact> 0.48003569E+06</totfact>
</mgrwt>
</event>
<event>
 5    1  0.1607476E-006  0.2000326E+02  0.7818608E-02  0.1745263E+00
          2   -1    0    0  501    0  0.00000000000E+00  0.00000000000E+00  0.45731259198E+01  0.45731266589E+01  0.26000000000E-02 0. -1.
         -2   -1    0    0    0  501 -0.00000000000E+00 -0.00000000000E+00 -0.21874000943E+02  0.21874001097E+02  0.26000000000E-02 0.  1.
       1023    2    1    2    0    0  0.00000000000E+00  0.00000000000E+00 -0.17300875023E+02  0.26447127756E+02  0.20003256985E+02 0.  0.
        -13    1    3    3    0    0 -0.95885975281E+01  0.28422514848E+01 -0.87065927092E+01  0.13260298833E+02  0.10570000000E+00 0. -1.
         13    1    3    3    0    0  0.95885975281E+01 -0.28422514848E+01 -0.85942823137E+01  0.13186828923E+02  0.10570000000E+00 0.  1.
<mgrwt>
<rscale>  0 0.20003257E+02</rscale>
<asrwt>0</asrwt>
<pdfrwt beam="1">  1        2 0.70355791E-03 0.20003257E+02</pdfrwt>
<pdfrwt beam="2">  1       -2 0.33652309E-02 0.20003257E+02</pdfrwt>
<totfact> 0.37136925E+06</totfact>
</mgrwt>
</event>
<event>
 5    1  0.1607476E-006  0.2000126E+02  0.7818608E-02  0.1745303E+00
         -2   -1    0    0    0  501 -0.00000000000E+00  0.00000000000E+00  0.64706039340E+02  0.64706039393E+02  0.26000000000E-02 0.  1.
          2   -1    0    0  501    0  0.00000000000E+00 -0.00000000000E+00 -0.15456445301E+01  0.15456467169E+01  0.26000000000E-02 0. -1.
       1023    2    1    2    0    0  0.00000000000E+00  0.00000000000E+00  0.63160394810E+02  0.66251686109E+02  0.20001260954E+02 0.  0.
        -13    1    3    3    0    0  0.73236849300E+01 -0.68091076595E+01  0.31468880963E+02  0.33019720617E+02  0.10570000000E+00 0.  1.
         13    1    3    3    0    0 -0.73236849300E+01  0.68091076595E+01  0.31691513847E+02  0.33231965492E+02  0.10570000000E+00 0. -1.
<mgrwt>
<rscale>  0 0.20001261E+02</rscale>
<asrwt>0</asrwt>
<pdfrwt beam="2">  1        2 0.23779155E-03 0.20001261E+02</pdfrwt>
<pdfrwt beam="1">  1       -2 0.99547791E-02 0.20001261E+02</pdfrwt>
<totfact> 0.32535807E+06</totfact>
</mgrwt>
</event>
<event>
 4    1  0.1607476E-006  0.2011224E+02  0.7818608E-02  0.1743105E+00
         -2   -1    0    0    0  501 -0.00000000000E+00  0.00000000000E+00  0.89654014627E+02  0.89654014664E+02  0.26000000000E-02 0. -1.
          2   -1    0    0  501    0  0.00000000000E+00 -0.00000000000E+00 -0.11279515495E+01  0.11279545461E+01  0.26000000000E-02 0.  1.
        -13    1    1    2    0    0 -0.21232230472E+01 -0.98279584692E+01  0.43665810866E+02  0.44808604697E+02  0.10570000000E+00 0. -1.
         13    1    1    2    0    0  0.21232230472E+01  0.98279584692E+01  0.44860252211E+02  0.45973364513E+02  0.10570000000E+00 0.  1.
<mgrwt>
<rscale>  0 0.20112237E+02</rscale>
<asrwt>0</asrwt>
<pdfrwt beam="2">  1        2 0.17353118E-03 0.20112237E+02</pdfrwt>
<pdfrwt beam="1">  1       -2 0.13792930E-01 0.20112237E+02</pdfrwt>
<totfact> 0.30131333E+06</totfact>
</mgrwt>
</event>
<event>
 5    1  0.1607476E-006  0.2000266E+02  0.7818608E-02  0.1745275E+00
          2   -1    0    0  501    0  0.00000000000E+00  0.00000000000E+00  0.61447033711E+02  0.61447033766E+02  0.26000000000E-02 0.  1.
         -2   -1    0    0    0  501 -0.00000000000E+00 -0.00000000000E+00 -0.16278503267E+01  0.16278524030E+01  0.26000000000E-02 0. -1.
       1023    2    1    2    0    0  0.00000000000E+00  0.00000000000E+00  0.59819183384E+02  0.63074886169E+02  0.20002663934E+02 0.  0.
        -13    1    3    3    0    0  0.90004405751E+01  0.43596026420E+01  0.29791483606E+02  0.31425431320E+02  0.10570000000E+00 0.  1.
         13    1    3    3    0    0 -0.90004405751E+01 -0.43596026420E+01  0.30027699779E+02  0.31649454849E+02  0.10570000000E+00 0. -1.
<mgrwt>
<rscale>  0 0.20002664E+02</rscale>
<asrwt>0</asrwt>
<pdfrwt beam="1">  1        2 0.94533895E-02 0.20002664E+02</pdfrwt>
<pdfrwt beam="2">  1       -2 0.25043869E-03 0.20002664E+02</pdfrwt>
<totfact> 0.47877688E+06</totfact>
</mgrwt>
</event>
<event>
 4    1  0.1607476E-006  0.2001734E+02  0.7818608E-02  0.1744983E+00
          2   -1    0    0  501    0  0.00000000000E+00  0.00000000000E+00  0.13570915371E+01  0.13570940278E+01  0.26000000000E-02 0. -1.
         -2   -1    0    0    0  501 -0.00000000000E+00 -0.00000000000E+00 -0.73814754525E+02  0.73814754570E+02  0.26000000000E-02 0.  1.
        -13    1    1    2    0    0 -0.95376445989E+01  0.30243539100E+01 -0.37059435691E+02  0.38386538361E+02  0.10570000000E+00 0.  1.
         13    1    1    2    0    0  0.95376445989E+01 -0.30243539100E+01 -0.35398227296E+02  0.36785310237E+02  0.10570000000E+00 0. -1.
<mgrwt>
<rscale>  0 0.20017340E+02</rscale>
<asrwt>0</asrwt>
<pdfrwt beam="1">  1        2 0.20878357E-03 0.20017340E+02</pdfrwt>
<pdfrwt beam="2">  1       -2 0.11356113E-01 0.20017340E+02</pdfrwt>
<totfact> 0.31702716E+06</totfact>
</mgrwt>
</event>
<event>
 5    1  0.1607476E-006  0.2000279E+02  0.7818608E-02  0.1745273E+00
         -2   -1    0    0    0  501 -0.00000000000E+00  0.00000000000E+00  0.17301352475E+01  0.17301372011E+01  0.26000000000E-02 0.  1.
          2   -1    0    0  501    0  0.00000000000E+00 -0.00000000000E+00 -0.57815059264E+02  0.57815059322E+02  0.26000000000E-02 0. -1.
       1023    2    1    2    0    0  0.00000000000E+00  0.00000000000E+00 -0.56084924016E+02  0.59545196523E+02  0.20002792982E+02 0.  0.
        -13    1    3    3    0    0  0.66233412985E+01  0.74921524184E+01 -0.28416188956E+02  0.30124607302E+02  0.10570000000E+00 0. -1.
         13    1    3    3    0    0 -0.66233412985E+01 -0.74921524184E+01 -0.27668735060E+02  0.29420589221E+02  0.10570000000E+00 0.  1.
<mgrwt>
<rscale>  0 0.20002793E+02</rscale>
<asrwt>0</asrwt>
<pdfrwt beam="2">  1        2 0.88946232E-02 0.20002793E+02</pdfrwt>
<pdfrwt beam="1">  1       -2 0.26617485E-03 0.20002793E+02</pdfrwt>
<totfact> 0.47387981E+06</totfact>
</mgrwt>
</event>
<event>
 4    1  0.1607476E-006  0.2036896E+02  0.7818608E-02  0.1738089E+00
         -2   -1    0    0    0  501 -0.00000000000E+00  0.00000000000E+00  0.50957254632E+01  0.50957261265E+01  0.26000000000E-02 0.  1.
          2   -1    0    0  501    0  0.00000000000E+00 -0.00000000000E+00 -0.20355024049E+02  0.20355024215E+02  0.26000000000E-02 0. -1.
        -13    1    1    2    0    0 -0.47223570089E+01  0.89977329675E+01 -0.67890517156E+01  0.12221384944E+02  0.10570000000E+00 0. -1.
         13    1    1    2    0    0  0.47223570089E+01 -0.89977329675E+01 -0.84702468701E+01  0.13229365397E+02  0.10570000000E+00 0.  1.
<mgrwt>
<rscale>  0 0.20368959E+02</rscale>
<asrwt>0</asrwt>
<pdfrwt beam="2">  1        2 0.31315422E-02 0.20368959E+02</pdfrwt>
<pdfrwt beam="1">  1       -2 0.78395784E-03 0.20368959E+02</pdfrwt>
<totfact> 0.40054756E+06</totfact>
</mgrwt>
</event>
<event>
 5    1  0.1607476E-006  0.2000371E+02  0.7818608E-02  0.1745254E+00
         -2   -1    0    0    0  501 -0.00000000000E+00  0.00000000000E+00  0.51375749084E+01  0.51375755662E+01  0.26000000000E-02 0. -1.
          2   -1    0    0  501    0  0.00000000000E+00 -0.00000000000E+00 -0.19471653497E+02  0.19471653671E+02  0.26000000000E-02 0.  1.
       1023    2    1    2    0    0  0.00000000000E+00  0.00000000000E+00 -0.14334078589E+02  0.24609229237E+02  0.20003708522E+02 0.  0.
        -13    1    3    3    0    0  0.89227342445E+01 -0.45164882280E+01 -0.70319158727E+01  0.12225909604E+02  0.10570000000E+00 0.  1.
         13    1    3    3    0    0 -0.89227342445E+01  0.45164882280E+01 -0.73021627159E+01  0.12383319633E+02  0.10570000000E+00 0. -1.
<mgrwt>
<rscale>  0 0.20003709E+02</rscale>
<asrwt>0</asrwt>
<pdfrwt beam="2">  1        2 0.29956390E-02 0.20003709E+02</pdfrwt>
<pdfrwt beam="1">  1       -2 0.79039621E-03 0.20003709E+02</pdfrwt>
<totfact> 0.41562655E+06</totfact>
</mgrwt>
</event>
<event>
 4    1  0.1607476E-006  0.2044891E+02  0.7818608E-02  0.1736546E+00
         -2   -1    0    0    0  501 -0.00000000000E+00  0.00000000000E+00  0.10719575831E+02  0.10719576146E+02  0.26000000000E-02 0. -1.
          2   -1    0    0  501    0  0.00000000000E+00 -0.00000000000E+00 -0.97522012150E+01  0.97522015616E+01  0.26000000000E-02 0.  1.
        -13    1    1    2    0    0  0.78032085037E+00 -0.10177946071E+02 -0.90371683562E-01  0.10208762236E+02  0.10570000000E+00 0.  1.
         13    1    1    2    0    0 -0.78032085037E+00  0.10177946071E+02  0.10577462997E+01  0.10263015472E+02  0.10570000000E+00 0. -1.
<mgrwt>
<rscale>  0 0.20448909E+02</rscale>
<asrwt>0</asrwt>
<pdfrwt beam="2">  1        2 0.15003387E-02 0.20448909E+02</pdfrwt>
<pdfrwt beam="1">  1       -2 0.16491656E-02 0.20448909E+02</pdfrwt>
<totfact> 0.37435959E+06</totfact>
</mgrwt>
</event>
<event>
 5    1  0.1607476E-006  0.2000223E+02  0.7818608E-02  0.1745284E+00
         -2   -1    0    0    0  501 -0.00000000000E+00  0.00000000000E+00  0.44109425945E+01  0.44109433607E+01  0.26000000000E-02 0. -1.
          2   -1    0    0  501    0  0.00000000000E+00 -0.00000000000E+00 -0.22675948215E+02  0.22675948364E+02  0.26000000000E-02 0.  1.
       1023    2    1    2    0    0  0.00000000000E+00  0.00000000000E+00 -0.18265005621E+02  0.27086891725E+02  0.20002231700E+02 0.  0.
        -13    1    3    3    0    0 -0.69685862878E+01  0.71728526356E+01 -0.91482938358E+01  0.13554093934E+02  0.10570000000E+00 0.  1.
         13    1    3    3    0    0  0.69685862878E+01 -0.71728526356E+01 -0.91167117847E+01  0.13532797790E+02  0.10570000000E+00 0. -1.
<mgrwt>
<rscale>  0 0.20002232E+02</rscale>
<asrwt>0</asrwt>
<pdfrwt beam="2">  1        2 0.34886074E-02 0.20002232E+02</pdfrwt>
<pdfrwt beam="1">  1       -2 0.67860664E-03 0.20002232E+02</pdfrwt>
<totfact> 0.42147227E+06</totfact>
</mgrwt>
</event>
<event>
 4    1  0.1607476E-006  0.2547468E+02  0.7818608E-02  0.1654276E+00
          2   -1    0    0  501    0  0.00000000000E+00  0.00000000000E+00  0.21198434413E+01  0.21198450357E+01  0.26000000000E-02 0. -1.
         -2   -1    0    0    0  501 -0.00000000000E+00 -0.00000000000E+00 -0.76533834739E+02  0.76533834783E+02  0.26000000000E-02 0.  1.
        -13    1    1    2    0    0  0.46495112456E+01 -0.11749991207E+02 -0.42135820626E+02  0.43989985230E+02  0.10570000000E+00 0. -1.
         13    1    1    2    0    0 -0.46495112456E+01  0.11749991207E+02 -0.32278170672E+02  0.34663694589E+02  0.10570000000E+00 0.  1.
<mgrwt>
<rscale>  0 0.25474679E+02</rscale>
<asrwt>0</asrwt>
<pdfrwt beam="1">  1        2 0.32612995E-03 0.25474679E+02</pdfrwt>
<pdfrwt beam="2">  1       -2 0.11774434E-01 0.25474679E+02</pdfrwt>
<totfact> 0.18401327E+06</totfact>
</mgrwt>
</event>
<event>
 4    1  0.1607476E-006  0.2008026E+02  0.7818608E-02  0.1743737E+00
         -2   -1    0    0    0  501 -0.00000000000E+00  0.00000000000E+00  0.60233232336E+02  0.60233232392E+02  0.26000000000E-02 0. -1.
          2   -1    0    0  501    0  0.00000000000E+00 -0.00000000000E+00 -0.16735637588E+01  0.16735657784E+01  0.26000000000E-02 0.  1.
        -13    1    1    2    0    0 -0.52444462637E+01 -0.85442414349E+01  0.27634649408E+02  0.29397164807E+02  0.10570000000E+00 0.  1.
         13    1    1    2    0    0  0.52444462637E+01  0.85442414349E+01  0.30925019170E+02  0.32509633364E+02  0.10570000000E+00 0. -1.
<mgrwt>
<rscale>  0 0.20080261E+02</rscale>
<asrwt>0</asrwt>
<pdfrwt beam="2">  1        2 0.25747151E-03 0.20080261E+02</pdfrwt>
<pdfrwt beam="1">  1       -2 0.92666513E-02 0.20080261E+02</pdfrwt>
<totfact> 0.32651817E+06</totfact>
</mgrwt>
</event>
<event>
 5    1  0.1693804E-006  0.2000182E+02  0.7818608E-02  0.1745292E+00
         -2   -1    0    0    0  501 -0.00000000000E+00  0.00000000000E+00  0.11565531100E+01  0.11565560325E+01  0.26000000000E-02 0. -1.
          2   -1    0    0  501    0  0.00000000000E+00 -0.00000000000E+00 -0.86479478899E+02  0.86479478938E+02  0.26000000000E-02 0.  1.
       1023    2    1    2    0    0  0.00000000000E+00  0.00000000000E+00 -0.85322925789E+02  0.87636034970E+02  0.20001823921E+02 0.  0.
        -13    1    3    3    0    0 -0.65100777471E+01 -0.75910539759E+01 -0.42472766618E+02  0.43634301752E+02  0.10570000000E+00 0.  1.
         13    1    3    3    0    0  0.65100777471E+01  0.75910539759E+01 -0.42850159171E+02  0.44001733218E+02  0.10570000000E+00 0. -1.
<mgrwt>
<rscale>  0 0.20001824E+02</rscale>
<asrwt>0</asrwt>
<pdfrwt beam="2">  1        2 0.13304530E-01 0.20001824E+02</pdfrwt>
<pdfrwt beam="1">  1       -2 0.17793154E-03 0.20001824E+02</pdfrwt>
<totfact> 0.51099570E+06</totfact>
</mgrwt>
</event>
<event>
 5    1  0.1607476E-006  0.2000127E+02  0.7818608E-02  0.1745303E+00
         -2   -1    0    0    0  501 -0.00000000000E+00  0.00000000000E+00  0.13766628891E+01  0.13766653443E+01  0.26000000000E-02 0. -1.
          2   -1    0    0  501    0  0.00000000000E+00 -0.00000000000E+00 -0.72648561090E+02  0.72648561137E+02  0.26000000000E-02 0.  1.
       1023    2    1    2    0    0  0.00000000000E+00  0.00000000000E+00 -0.71271898201E+02  0.74025226481E+02  0.20001267020E+02 0.  0.
        -13    1    3    3    0    0  0.48234442172E+01  0.87598830414E+01 -0.35703495811E+02  0.37077647587E+02  0.10570000000E+00 0.  1.
         13    1    3    3    0    0 -0.48234442172E+01 -0.87598830414E+01 -0.35568402391E+02  0.36947578894E+02  0.10570000000E+00 0. -1.
<mgrwt>
<rscale>  0 0.20001267E+02</rscale>
<asrwt>0</asrwt>
<pdfrwt beam="2">  1        2 0.11176699E-01 0.20001267E+02</pdfrwt>
<pdfrwt beam="1">  1       -2 0.21179454E-03 0.20001267E+02</pdfrwt>
<totfact> 0.49355732E+06</totfact>
</mgrwt>
</event>
<event>
 5    1  0.1607476E-006  0.2000215E+02  0.7818608E-02  0.1745285E+00
          2   -1    0    0  501    0  0.00000000000E+00  0.00000000000E+00  0.13681785402E+01  0.13681810107E+01  0.26000000000E-02 0.  1.
         -2   -1    0    0    0  501 -0.00000000000E+00 -0.00000000000E+00 -0.73105549980E+02  0.73105550026E+02  0.26000000000E-02 0. -1.
       1023    2    1    2    0    0  0.00000000000E+00  0.00000000000E+00 -0.71737371440E+02  0.74473731037E+02  0.20002153721E+02 0.  0.
        -13    1    3    3    0    0  0.52636062475E+01 -0.85030056181E+01 -0.35641882648E+02  0.37018395784E+02  0.10570000000E+00 0.  1.
         13    1    3    3    0    0 -0.52636062475E+01  0.85030056181E+01 -0.36095488792E+02  0.37455335253E+02  0.10570000000E+00 0. -1.
<mgrwt>
<rscale>  0 0.20002154E+02</rscale>
<asrwt>0</asrwt>
<pdfrwt beam="1">  1        2 0.21048926E-03 0.20002154E+02</pdfrwt>
<pdfrwt beam="2">  1       -2 0.11247005E-01 0.20002154E+02</pdfrwt>
<totfact> 0.31814335E+06</totfact>
</mgrwt>
</event>
<event>
 5    1  0.1607476E-006  0.2000179E+02  0.7818608E-02  0.1745292E+00
         -2   -1    0    0    0  501 -0.00000000000E+00  0.00000000000E+00  0.15185503670E+01  0.15185525929E+01  0.26000000000E-02 0.  1.
          2   -1    0    0  501    0  0.00000000000E+00 -0.00000000000E+00 -0.65864045276E+02  0.65864045327E+02  0.26000000000E-02 0. -1.
       1023    2    1    2    0    0  0.00000000000E+00  0.00000000000E+00 -0.64345494909E+02  0.67382597920E+02  0.20001794604E+02 0.  0.
        -13    1    3    3    0    0  0.95190352227E+01 -0.30641951072E+01 -0.32421474018E+02  0.33928814792E+02  0.10570000000E+00 0.  1.
         13    1    3    3    0    0 -0.95190352227E+01  0.30641951072E+01 -0.31924020891E+02  0.33453783128E+02  0.10570000000E+00 0. -1.
<mgrwt>
<rscale>  0 0.20001795E+02</rscale>
<asrwt>0</asrwt>
<pdfrwt beam="2">  1        2 0.10132928E-01 0.20001795E+02</pdfrwt>
<pdfrwt beam="1">  1       -2 0.23362336E-03 0.20001795E+02</pdfrwt>
<totfact> 0.48468744E+06</totfact>
</mgrwt>
</event>
<event>
 5    1  0.1607476E-006  0.2000300E+02  0.7818608E-02  0.1745268E+00
         -2   -1    0    0    0  501 -0.00000000000E+00  0.00000000000E+00  0.45981707028E+02  0.45981707101E+02  0.26000000000E-02 0. -1.
          2   -1    0    0  501    0  0.00000000000E+00 -0.00000000000E+00 -0.21754296779E+01  0.21754312316E+01  0.26000000000E-02 0.  1.
       1023    2    1    2    0    0  0.00000000000E+00  0.00000000000E+00  0.43806277350E+02  0.48157138333E+02  0.20003000704E+02 0.  0.
        -13    1    3    3    0    0  0.98240467288E+01 -0.18726224606E+01  0.21939474355E+02  0.24111622021E+02  0.10570000000E+00 0.  1.
         13    1    3    3    0    0 -0.98240467288E+01  0.18726224606E+01  0.21866802994E+02  0.24045516312E+02  0.10570000000E+00 0. -1.
<mgrwt>
<rscale>  0 0.20003001E+02</rscale>
<asrwt>0</asrwt>
<pdfrwt beam="2">  1        2 0.33468163E-03 0.20003001E+02</pdfrwt>
<pdfrwt beam="1">  1       -2 0.70741085E-02 0.20003001E+02</pdfrwt>
<totfact> 0.34286397E+06</totfact>
</mgrwt>
</event>
<event>
 4    1  0.1607476E-006  0.2008304E+02  0.7818608E-02  0.1743682E+00
         -2   -1    0    0    0  501 -0.00000000000E+00  0.00000000000E+00  0.34491712313E+02  0.34491712411E+02  0.26000000000E-02 0.  1.
          2   -1    0    0  501    0  0.00000000000E+00 -0.00000000000E+00 -0.29233706227E+01  0.29233717789E+01  0.26000000000E-02 0. -1.
        -13    1    1    2    0    0 -0.41029898858E+01  0.91547914592E+01  0.15002197889E+02  0.18047765697E+02  0.10570000000E+00 0. -1.
         13    1    1    2    0    0  0.41029898858E+01 -0.91547914592E+01  0.16566143801E+02  0.19367318492E+02  0.10570000000E+00 0.  1.
<mgrwt>
<rscale>  0 0.20083036E+02</rscale>
<asrwt>0</asrwt>
<pdfrwt beam="2">  1        2 0.44974943E-03 0.20083036E+02</pdfrwt>
<pdfrwt beam="1">  1       -2 0.53064173E-02 0.20083036E+02</pdfrwt>
<totfact> 0.35211215E+06</totfact>
</mgrwt>
</event>
<event>
 5    1  0.1607476E-006  0.2000353E+02  0.7818608E-02  0.1745258E+00
         -2   -1    0    0    0  501 -0.00000000000E+00  0.00000000000E+00  0.14796049743E+01  0.14796072587E+01  0.26000000000E-02 0.  1.
          2   -1    0    0  501    0  0.00000000000E+00 -0.00000000000E+00 -0.67609427377E+02  0.67609427427E+02  0.26000000000E-02 0. -1.
       1023    2    1    2    0    0  0.00000000000E+00  0.00000000000E+00 -0.66129822403E+02  0.69089034686E+02  0.20003532258E+02 0.  0.
        -13    1    3    3    0    0 -0.52618464013E+01 -0.85051232860E+01 -0.33058407216E+02  0.34538291935E+02  0.10570000000E+00 0. -1.
         13    1    3    3    0    0  0.52618464013E+01  0.85051232860E+01 -0.33071415187E+02  0.34550742750E+02  0.10570000000E+00 0.  1.
<mgrwt>
<rscale>  0 0.20003532E+02</rscale>
<asrwt>0</asrwt>
<pdfrwt beam="2">  1        2 0.10401448E-01 0.20003532E+02</pdfrwt>
<pdfrwt beam="1">  1       -2 0.22763177E-03 0.20003532E+02</pdfrwt>
<totfact> 0.48688691E+06</totfact>
</mgrwt>
</event>
<event>
 5    1  0.1652169E-006  0.2000213E+02  0.7818608E-02  0.1745286E+00
         -2   -1    0    0    0  501 -0.00000000000E+00  0.00000000000E+00  0.10560931737E+01  0.10560963741E+01  0.26000000000E-02 0. -1.
          2   -1    0    0  501    0  0.00000000000E+00 -0.00000000000E+00 -0.94708649359E+02  0.94708649395E+02  0.26000000000E-02 0.  1.
       1023    2    1    2    0    0  0.00000000000E+00  0.00000000000E+00 -0.93652556185E+02  0.95764745769E+02  0.20002131190E+02 0.  0.
        -13    1    3    3    0    0 -0.40701396133E+01  0.91346986424E+01 -0.46648114052E+02  0.47708138434E+02  0.10570000000E+00 0. -1.
         13    1    3    3    0    0  0.40701396133E+01 -0.91346986424E+01 -0.47004442133E+02  0.48056607335E+02  0.10570000000E+00 0.  1.
<mgrwt>
<rscale>  0 0.20002131E+02</rscale>
<asrwt>0</asrwt>
<pdfrwt beam="2">  1        2 0.14570555E-01 0.20002131E+02</pdfrwt>
<pdfrwt beam="1">  1       -2 0.16247620E-03 0.20002131E+02</pdfrwt>
<totfact> 0.52107690E+06</totfact>
</mgrwt>
</event>
<event>
 5    1  0.1607476E-006  0.2000743E+02  0.7818608E-02  0.1745180E+00
          2   -1    0    0  501    0  0.00000000000E+00  0.00000000000E+00  0.15041765314E+02  0.15041765539E+02  0.26000000000E-02 0.  1.
         -2   -1    0    0    0  501 -0.00000000000E+00 -0.00000000000E+00 -0.66530975923E+01  0.66530981004E+01  0.26000000000E-02 0. -1.
       1023    2    1    2    0    0  0.00000000000E+00  0.00000000000E+00  0.83886677219E+01  0.21694863639E+02  0.20007432673E+02 0.  0.
        -13    1    3    3    0    0 -0.13161083425E+01  0.99143917102E+01  0.39889840385E+01  0.10768030010E+02  0.10570000000E+00 0.  1.
         13    1    3    3    0    0  0.13161083425E+01 -0.99143917102E+01  0.43996836834E+01  0.10926833629E+02  0.10570000000E+00 0. -1.
<mgrwt>
<rscale>  0 0.20007433E+02</rscale>
<asrwt>0</asrwt>
<pdfrwt beam="1">  1        2 0.23141177E-02 0.20007433E+02</pdfrwt>
<pdfrwt beam="2">  1       -2 0.10235536E-02 0.20007433E+02</pdfrwt>
<totfact> 0.40664300E+06</totfact>
</mgrwt>
</event>
<event>
 4    1  0.1607476E-006  0.2002050E+02  0.7818608E-02  0.1744921E+00
         -2   -1    0    0    0  501 -0.00000000000E+00  0.00000000000E+00  0.14472295491E+02  0.14472295724E+02  0.26000000000E-02 0.  1.
          2   -1    0    0  501    0  0.00000000000E+00 -0.00000000000E+00 -0.69239289555E+01  0.69239294437E+01  0.26000000000E-02 0. -1.
        -13    1    1    2    0    0  0.82666121111E+01  0.56426628077E+01  0.36329603817E+01  0.10648290613E+02  0.10570000000E+00 0.  1.
         13    1    1    2    0    0 -0.82666121111E+01 -0.56426628077E+01  0.39154061535E+01  0.10747934555E+02  0.10570000000E+00 0. -1.
<mgrwt>
<rscale>  0 0.20020505E+02</rscale>
<asrwt>0</asrwt>
<pdfrwt beam="2">  1        2 0.10652199E-02 0.20020505E+02</pdfrwt>
<pdfrwt beam="1">  1       -2 0.22265070E-02 0.20020505E+02</pdfrwt>
<totfact> 0.38316829E+06</totfact>
</mgrwt>
</event>
<event>
 5    1  0.1607476E-006  0.2000747E+02  0.7818608E-02  0.1745180E+00
         -2   -1    0    0    0  501 -0.00000000000E+00  0.00000000000E+00  0.93566793333E+01  0.93566796946E+01  0.26000000000E-02 0. -1.
          2   -1    0    0  501    0  0.00000000000E+00 -0.00000000000E+00 -0.10695535045E+02  0.10695535361E+02  0.26000000000E-02 0.  1.
       1023    2    1    2    0    0  0.00000000000E+00  0.00000000000E+00 -0.13388557120E+01  0.20052215056E+02  0.20007468456E+02 0.  0.
        -13    1    3    3    0    0 -0.37833011805E+00 -0.99956814576E+01 -0.58711905535E+00  0.10020611895E+02  0.10570000000E+00 0.  1.
         13    1    3    3    0    0  0.37833011805E+00  0.99956814576E+01 -0.75173665665E+00  0.10031603161E+02  0.10570000000E+00 0. -1.
<mgrwt>
<rscale>  0 0.20007468E+02</rscale>
<asrwt>0</asrwt>
<pdfrwt beam="2">  1        2 0.16454670E-02 0.20007468E+02</pdfrwt>
<pdfrwt beam="1">  1       -2 0.14394892E-02 0.20007468E+02</pdfrwt>
<totfact> 0.39624838E+06</totfact>
</mgrwt>
</event>
<event>
 5    1  0.1607476E-006  0.2000170E+02  0.7818608E-02  0.1745294E+00
          2   -1    0    0  501    0  0.00000000000E+00  0.00000000000E+00  0.27203804840E+01  0.27203817265E+01  0.26000000000E-02 0. -1.
         -2   -1    0    0    0  501 -0.00000000000E+00 -0.00000000000E+00 -0.36765791153E+02  0.36765791245E+02  0.26000000000E-02 0.  1.
       1023    2    1    2    0    0  0.00000000000E+00  0.00000000000E+00 -0.34045410669E+02  0.39486172971E+02  0.20001696636E+02 0.  0.
        -13    1    3    3    0    0  0.59863154951E+01  0.80105572092E+01 -0.17078352977E+02  0.19791066492E+02  0.10570000000E+00 0.  1.
         13    1    3    3    0    0 -0.59863154951E+01 -0.80105572092E+01 -0.16967057692E+02  0.19695106479E+02  0.10570000000E+00 0. -1.
<mgrwt>
<rscale>  0 0.20001697E+02</rscale>
<asrwt>0</asrwt>
<pdfrwt beam="1">  1        2 0.41852020E-03 0.20001697E+02</pdfrwt>
<pdfrwt beam="2">  1       -2 0.56562753E-02 0.20001697E+02</pdfrwt>
<totfact> 0.35267415E+06</totfact>
</mgrwt>
</event>
<event>
 5    1  0.1607476E-006  0.2000305E+02  0.7818608E-02  0.1745267E+00
          2   -1    0    0  501    0  0.00000000000E+00  0.00000000000E+00  0.27594065029E+02  0.27594065152E+02  0.26000000000E-02 0.  1.
         -2   -1    0    0    0  501 -0.00000000000E+00 -0.00000000000E+00 -0.36250725202E+01  0.36250734526E+01  0.26000000000E-02 0. -1.
       1023    2    1    2    0    0  0.00000000000E+00  0.00000000000E+00  0.23968992509E+02  0.31219138604E+02  0.20003050100E+02 0.  0.
        -13    1    3    3    0    0 -0.91555453732E+01 -0.40241450032E+01  0.12046469728E+02  0.15657150427E+02  0.10570000000E+00 0.  1.
         13    1    3    3    0    0  0.91555453732E+01  0.40241450032E+01  0.11922522781E+02  0.15561988177E+02  0.10570000000E+00 0. -1.
<mgrwt>
<rscale>  0 0.20003050E+02</rscale>
<asrwt>0</asrwt>
<pdfrwt beam="1">  1        2 0.42452410E-02 0.20003050E+02</pdfrwt>
<pdfrwt beam="2">  1       -2 0.55770353E-03 0.20003050E+02</pdfrwt>
<totfact> 0.42971864E+06</totfact>
</mgrwt>
</event>
<event>
 4    1  0.1620085E-006  0.2122043E+02  0.7818608E-02  0.1722094E+00
         -2   -1    0    0    0  501 -0.00000000000E+00  0.00000000000E+00  0.11769918023E+02  0.11769918310E+02  0.26000000000E-02 0. -1.
          2   -1    0    0  501    0  0.00000000000E+00 -0.00000000000E+00 -0.95647754697E+01  0.95647758231E+01  0.26000000000E-02 0.  1.
        -13    1    1    2    0    0 -0.10217812017E+02  0.43693422190E+00 -0.17359031893E+01  0.10373963867E+02  0.10570000000E+00 0.  1.
         13    1    1    2    0    0  0.10217812017E+02 -0.43693422190E+00  0.39410457424E+01  0.10960730266E+02  0.10570000000E+00 0. -1.
<mgrwt>
<rscale>  0 0.21220427E+02</rscale>
<asrwt>0</asrwt>
<pdfrwt beam="2">  1        2 0.14715040E-02 0.21220427E+02</pdfrwt>
<pdfrwt beam="1">  1       -2 0.18107567E-02 0.21220427E+02</pdfrwt>
<totfact> 0.34316667E+06</totfact>
</mgrwt>
</event>
<event>
 4    1  0.1607476E-006  0.2009594E+02  0.7818608E-02  0.1743427E+00
         -2   -1    0    0    0  501 -0.00000000000E+00  0.00000000000E+00  0.94111914715E+00  0.94112273862E+00  0.26000000000E-02 0. -1.
          2   -1    0    0  501    0  0.00000000000E+00 -0.00000000000E+00 -0.10727817232E+03  0.10727817235E+03  0.26000000000E-02 0.  1.
        -13    1    1    2    0    0  0.10217724503E+01  0.99601692483E+01 -0.57679117152E+02  0.58541786088E+02  0.10570000000E+00 0. -1.
         13    1    1    2    0    0 -0.10217724503E+01 -0.99601692483E+01 -0.48657936016E+02  0.49677508997E+02  0.10570000000E+00 0.  1.
<mgrwt>
<rscale>  0 0.20095944E+02</rscale>
<asrwt>0</asrwt>
<pdfrwt beam="2">  1        2 0.16504325E-01 0.20095944E+02</pdfrwt>
<pdfrwt beam="1">  1       -2 0.14478792E-03 0.20095944E+02</pdfrwt>
<totfact> 0.53058096E+06</totfact>
</mgrwt>
</event>
<event>
 5    1  0.1641821E-006  0.2000137E+02  0.7818608E-02  0.1745301E+00
          2   -1    0    0  501    0  0.00000000000E+00  0.00000000000E+00  0.92383328233E+02  0.92383328270E+02  0.26000000000E-02 0.  1.
         -2   -1    0    0    0  501 -0.00000000000E+00 -0.00000000000E+00 -0.10825925745E+01  0.10825956966E+01  0.26000000000E-02 0. -1.
       1023    2    1    2    0    0  0.00000000000E+00  0.00000000000E+00  0.91300735659E+02  0.93465923967E+02  0.20001365230E+02 0.  0.
        -13    1    3    3    0    0 -0.89186816266E+01  0.45230915095E+01  0.45815021177E+02  0.46893801048E+02  0.10570000000E+00 0.  1.
         13    1    3    3    0    0  0.89186816266E+01 -0.45230915095E+01  0.45485714482E+02  0.46572122919E+02  0.10570000000E+00 0. -1.
<mgrwt>
<rscale>  0 0.20001365E+02</rscale>
<asrwt>0</asrwt>
<pdfrwt beam="1">  1        2 0.14212818E-01 0.20001365E+02</pdfrwt>
<pdfrwt beam="2">  1       -2 0.16655297E-03 0.20001365E+02</pdfrwt>
<totfact> 0.51828963E+06</totfact>
</mgrwt>
</event>
<event>
 5    1  0.1607476E-006  0.2000289E+02  0.7818608E-02  0.1745271E+00
          2   -1    0    0  501    0  0.00000000000E+00  0.00000000000E+00  0.48950733776E+02  0.48950733845E+02  0.26000000000E-02 0.  1.
         -2   -1    0    0    0  501 -0.00000000000E+00 -0.00000000000E+00 -0.20434594395E+01  0.20434610936E+01  0.26000000000E-02 0. -1.
       1023    2    1    2    0    0  0.00000000000E+00  0.00000000000E+00  0.46907274336E+02  0.50994194938E+02  0.20002888086E+02 0.  0.
        -13    1    3    3    0    0 -0.45787531750E+01  0.88911367197E+01  0.23401537907E+02  0.25449173694E+02  0.10570000000E+00 0. -1.
         13    1    3    3    0    0  0.45787531750E+01 -0.88911367197E+01  0.23505736429E+02  0.25545021244E+02  0.10570000000E+00 0.  1.
<mgrwt>
<rscale>  0 0.20002888E+02</rscale>
<asrwt>0</asrwt>
<pdfrwt beam="1">  1        2 0.75308815E-02 0.20002888E+02</pdfrwt>
<pdfrwt beam="2">  1       -2 0.31437854E-03 0.20002888E+02</pdfrwt>
<totfact> 0.46166292E+06</totfact>
</mgrwt>
</event>
<event>
 5    1  0.1630912E-006  0.2000175E+02  0.7818608E-02  0.1745293E+00
          2   -1    0    0  501    0  0.00000000000E+00  0.00000000000E+00  0.10364090548E+03  0.10364090552E+03  0.26000000000E-02 0.  1.
         -2   -1    0    0    0  501 -0.00000000000E+00 -0.00000000000E+00 -0.96503749184E+00  0.96504099429E+00  0.26000000000E-02 0. -1.
       1023    2    1    2    0    0  0.00000000000E+00  0.00000000000E+00  0.10267586799E+03  0.10460594651E+03  0.20001754361E+02 0.  0.
        -13    1    3    3    0    0 -0.41257722026E+01 -0.91095744045E+01  0.51366477203E+02  0.52330989813E+02  0.10570000000E+00 0. -1.
         13    1    3    3    0    0  0.41257722026E+01  0.91095744045E+01  0.51309390789E+02  0.52274956698E+02  0.10570000000E+00 0.  1.
<mgrwt>
<rscale>  0 0.20001754E+02</rscale>
<asrwt>0</asrwt>
<pdfrwt beam="1">  1        2 0.15944748E-01 0.20001754E+02</pdfrwt>
<pdfrwt beam="2">  1       -2 0.14846764E-03 0.20001754E+02</pdfrwt>
<totfact> 0.53181635E+06</totfact>
</mgrwt>
</event>
<event>
 5    1  0.1696100E-006  0.2000130E+02  0.7818608E-02  0.1745302E+00
         -2   -1    0    0    0  501 -0.00000000000E+00  0.00000000000E+00  0.16447721559E+01  0.16447742109E+01  0.26000000000E-02 0. -1.
          2   -1    0    0  501    0  0.00000000000E+00 -0.00000000000E+00 -0.60806584919E+02  0.60806584975E+02  0.26000000000E-02 0.  1.
       1023    2    1    2    0    0  0.00000000000E+00  0.00000000000E+00 -0.59161812763E+02  0.62451359186E+02  0.20001304325E+02 0.  0.
        -13    1    3    3    0    0  0.97984790029E+01  0.19977184318E+01 -0.29669301944E+02  0.31309419031E+02  0.10570000000E+00 0. -1.
         13    1    3    3    0    0 -0.97984790029E+01 -0.19977184318E+01 -0.29492510819E+02  0.31141940155E+02  0.10570000000E+00 0.  1.
<mgrwt>
<rscale>  0 0.20001304E+02</rscale>
<asrwt>0</asrwt>
<pdfrwt beam="2">  1        2 0.93548576E-02 0.20001304E+02</pdfrwt>
<pdfrwt beam="1">  1       -2 0.25304208E-03 0.20001304E+02</pdfrwt>
<totfact> 0.47799133E+06</totfact>
</mgrwt>
</event>
<event>
 4    1  0.1607476E-006  0.2070094E+02  0.7818608E-02  0.1731738E+00
         -2   -1    0    0    0  501 -0.00000000000E+00  0.00000000000E+00  0.41742815515E+01  0.41742823613E+01  0.26000000000E-02 0.  1.
          2   -1    0    0  501    0  0.00000000000E+00 -0.00000000000E+00 -0.25664832787E+02  0.25664832919E+02  0.26000000000E-02 0. -1.
        -13    1    1    2    0    0 -0.13393181113E+01 -0.10256324872E+02 -0.11275102853E+02  0.15301146680E+02  0.10570000000E+00 0. -1.
         13    1    1    2    0    0  0.13393181113E+01  0.10256324872E+02 -0.10215448382E+02  0.14537968600E+02  0.10570000000E+00 0.  1.
<mgrwt>
<rscale>  0 0.20700942E+02</rscale>
<asrwt>0</asrwt>
<pdfrwt beam="2">  1        2 0.39484358E-02 0.20700942E+02</pdfrwt>
<pdfrwt beam="1">  1       -2 0.64219725E-03 0.20700942E+02</pdfrwt>
<totfact> 0.39478393E+06</totfact>
</mgrwt>
</event>
<event>
 5    1  0.1607476E-006  0.2000371E+02  0.7818608E-02  0.1745254E+00
         -2   -1    0    0    0  501 -0.00000000000E+00  0.00000000000E+00  0.69034258154E+02  0.69034258203E+02  0.26000000000E-02 0.  1.
          2   -1    0    0  501    0  0.00000000000E+00 -0.00000000000E+00 -0.14490930014E+01  0.14490953339E+01  0.26000000000E-02 0. -1.
       1023    2    1    2    0    0  0.00000000000E+00  0.00000000000E+00  0.67585165153E+02  0.70483353537E+02  0.20003714083E+02 0.  0.
        -13    1    3    3    0    0 -0.72457054555E+01 -0.68938180768E+01  0.33681351009E+02  0.35135018906E+02  0.10570000000E+00 0.  1.
         13    1    3    3    0    0  0.72457054555E+01  0.68938180768E+01  0.33903814144E+02  0.35348334631E+02  0.10570000000E+00 0. -1.
<mgrwt>
<rscale>  0 0.20003714E+02</rscale>
<asrwt>0</asrwt>
<pdfrwt beam="2">  1        2 0.22293757E-03 0.20003714E+02</pdfrwt>
<pdfrwt beam="1">  1       -2 0.10620655E-01 0.20003714E+02</pdfrwt>
<totfact> 0.32152444E+06</totfact>
</mgrwt>
</event>
<event>
 5    1  0.1607476E-006  0.2000120E+02  0.7818608E-02  0.1745304E+00
          2   -1    0    0  501    0  0.00000000000E+00  0.00000000000E+00  0.60779331101E+01  0.60779336662E+01  0.26000000000E-02 0. -1.
         -2   -1    0    0    0  501 -0.00000000000E+00 -0.00000000000E+00 -0.16454932120E+02  0.16454932325E+02  0.26000000000E-02 0.  1.
       1023    2    1    2    0    0  0.00000000000E+00  0.00000000000E+00 -0.10376999010E+02  0.22532865991E+02  0.20001198498E+02 0.  0.
        -13    1    3    3    0    0  0.89527729148E+00  0.99598795181E+01 -0.51777290484E+01  0.11261472907E+02  0.10570000000E+00 0.  1.
         13    1    3    3    0    0 -0.89527729148E+00 -0.99598795181E+01 -0.51992699613E+01  0.11271393085E+02  0.10570000000E+00 0. -1.
<mgrwt>
<rscale>  0 0.20001198E+02</rscale>
<asrwt>0</asrwt>
<pdfrwt beam="1">  1        2 0.93506670E-03 0.20001198E+02</pdfrwt>
<pdfrwt beam="2">  1       -2 0.25315281E-02 0.20001198E+02</pdfrwt>
<totfact> 0.38021052E+06</totfact>
</mgrwt>
</event>
<event>
 5    1  0.1609710E-006  0.2000191E+02  0.7818608E-02  0.1745290E+00
          2   -1    0    0  501    0  0.00000000000E+00  0.00000000000E+00  0.82933647819E+02  0.82933647860E+02  0.26000000000E-02 0.  1.
         -2   -1    0    0    0  501 -0.00000000000E+00 -0.00000000000E+00 -0.12060120337E+01  0.12060148363E+01  0.26000000000E-02 0. -1.
       1023    2    1    2    0    0  0.00000000000E+00  0.00000000000E+00  0.81727635785E+02  0.84139662696E+02  0.20001909597E+02 0.  0.
        -13    1    3    3    0    0 -0.46766888998E+01 -0.88390804613E+01  0.40507822575E+02  0.41724041328E+02  0.10570000000E+00 0. -1.
         13    1    3    3    0    0  0.46766888998E+01  0.88390804613E+01  0.41219813210E+02  0.42415621368E+02  0.10570000000E+00 0.  1.
<mgrwt>
<rscale>  0 0.20001910E+02</rscale>
<asrwt>0</asrwt>
<pdfrwt beam="1">  1        2 0.12759025E-01 0.20001910E+02</pdfrwt>
<pdfrwt beam="2">  1       -2 0.18554050E-03 0.20001910E+02</pdfrwt>
<totfact> 0.50657255E+06</totfact>
</mgrwt>
</event>
<event>
 5    1  0.1607476E-006  0.2000366E+02  0.7818608E-02  0.1745255E+00
          2   -1    0    0  501    0  0.00000000000E+00  0.00000000000E+00  0.38877867083E+02  0.38877867170E+02  0.26000000000E-02 0. -1.
         -2   -1    0    0    0  501 -0.00000000000E+00 -0.00000000000E+00 -0.25730971505E+01  0.25730984641E+01  0.26000000000E-02 0.  1.
       1023    2    1    2    0    0  0.00000000000E+00  0.00000000000E+00  0.36304769933E+02  0.41450965634E+02  0.20003655469E+02 0.  0.
        -13    1    3    3    0    0  0.71757253189E+01 -0.69665768423E+01  0.18081846194E+02  0.20663701532E+02  0.10570000000E+00 0. -1.
         13    1    3    3    0    0 -0.71757253189E+01  0.69665768423E+01  0.18222923739E+02  0.20787264101E+02  0.10570000000E+00 0.  1.
<mgrwt>
<rscale>  0 0.20003655E+02</rscale>
<asrwt>0</asrwt>
<pdfrwt beam="1">  1        2 0.59812099E-02 0.20003655E+02</pdfrwt>
<pdfrwt beam="2">  1       -2 0.39586124E-03 0.20003655E+02</pdfrwt>
<totfact> 0.44712478E+06</totfact>
</mgrwt>
</event>
<event>
 5    1  0.1607476E-006  0.2000318E+02  0.7818608E-02  0.1745265E+00
         -2   -1    0    0    0  501 -0.00000000000E+00  0.00000000000E+00  0.36650224651E+02  0.36650224743E+02  0.26000000000E-02 0. -1.
          2   -1    0    0  501    0  0.00000000000E+00 -0.00000000000E+00 -0.27293626501E+01  0.27293638885E+01  0.26000000000E-02 0.  1.
       1023    2    1    2    0    0  0.00000000000E+00  0.00000000000E+00  0.33920862001E+02  0.39379588632E+02  0.20003177796E+02 0.  0.
        -13    1    3    3    0    0  0.99988466507E+01 -0.20876439654E+00  0.16979218442E+02  0.19705977476E+02  0.10570000000E+00 0. -1.
         13    1    3    3    0    0 -0.99988466507E+01  0.20876439654E+00  0.16941643559E+02  0.19673611155E+02  0.10570000000E+00 0.  1.
<mgrwt>
<rscale>  0 0.20003178E+02</rscale>
<asrwt>0</asrwt>
<pdfrwt beam="2">  1        2 0.41990205E-03 0.20003178E+02</pdfrwt>
<pdfrwt beam="1">  1       -2 0.56384962E-02 0.20003178E+02</pdfrwt>
<totfact> 0.35274595E+06</totfact>
</mgrwt>
</event>
<event>
 4    1  0.1607476E-006  0.2002779E+02  0.7818608E-02  0.1744776E+00
          2   -1    0    0  501    0  0.00000000000E+00  0.00000000000E+00  0.10971549895E+02  0.10971550203E+02  0.26000000000E-02 0. -1.
         -2   -1    0    0    0  501 -0.00000000000E+00 -0.00000000000E+00 -0.91398322949E+01  0.91398326647E+01  0.26000000000E-02 0.  1.
        -13    1    1    2    0    0  0.89925968024E+01 -0.44044911610E+01  0.89084007610E+00  0.10053412762E+02  0.10570000000E+00 0. -1.
         13    1    1    2    0    0 -0.89925968024E+01  0.44044911610E+01  0.94087752397E+00  0.10057970105E+02  0.10570000000E+00 0.  1.
<mgrwt>
<rscale>  0 0.20027794E+02</rscale>
<asrwt>0</asrwt>
<pdfrwt beam="1">  1        2 0.16879308E-02 0.20027794E+02</pdfrwt>
<pdfrwt beam="2">  1       -2 0.14061281E-02 0.20027794E+02</pdfrwt>
<totfact> 0.39607648E+06</totfact>
</mgrwt>
</event>
<event>
 5    1  0.1607476E-006  0.2000269E+02  0.7818608E-02  0.1745275E+00
          2   -1    0    0  501    0  0.00000000000E+00  0.00000000000E+00  0.17096155263E+02  0.17096155460E+02  0.26000000000E-02 0.  1.
         -2   -1    0    0    0  501 -0.00000000000E+00 -0.00000000000E+00 -0.58508437054E+01  0.58508442831E+01  0.26000000000E-02 0. -1.
       1023    2    1    2    0    0  0.00000000000E+00  0.00000000000E+00  0.11245311557E+02  0.22946999743E+02  0.20002693949E+02 0.  0.
        -13    1    3    3    0    0  0.99649192529E+01  0.84500143849E+00  0.55697644241E+01  0.11447580154E+02  0.10570000000E+00 0.  1.
         13    1    3    3    0    0 -0.99649192529E+01 -0.84500143849E+00  0.56755471331E+01  0.11499419590E+02  0.10570000000E+00 0. -1.
<mgrwt>
<rscale>  0 0.20002694E+02</rscale>
<asrwt>0</asrwt>
<pdfrwt beam="1">  1        2 0.26301778E-02 0.20002694E+02</pdfrwt>
<pdfrwt beam="2">  1       -2 0.90012987E-03 0.20002694E+02</pdfrwt>
<totfact> 0.41109860E+06</totfact>
</mgrwt>
</event>
<event>
 5    1  0.1607476E-006  0.2000795E+02  0.7818608E-02  0.1745170E+00
         -2   -1    0    0    0  501 -0.00000000000E+00  0.00000000000E+00  0.16128950317E+01  0.16128971273E+01  0.26000000000E-02 0. -1.
          2   -1    0    0  501    0  0.00000000000E+00 -0.00000000000E+00 -0.62049593479E+02  0.62049593533E+02  0.26000000000E-02 0.  1.
       1023    2    1    2    0    0  0.00000000000E+00  0.00000000000E+00 -0.60436698447E+02  0.63662490661E+02  0.20007953367E+02 0.  0.
        -13    1    3    3    0    0  0.99760979342E+01 -0.73584196729E+00 -0.30429016086E+02  0.32031237657E+02  0.10570000000E+00 0.  1.
         13    1    3    3    0    0 -0.99760979342E+01  0.73584196729E+00 -0.30007682361E+02  0.31631253004E+02  0.10570000000E+00 0. -1.
<mgrwt>
<rscale>  0 0.20007953E+02</rscale>
<asrwt>0</asrwt>
<pdfrwt beam="2">  1        2 0.95460896E-02 0.20007953E+02</pdfrwt>
<pdfrwt beam="1">  1       -2 0.24813791E-03 0.20007953E+02</pdfrwt>
<totfact> 0.47930052E+06</totfact>
</mgrwt>
</event>
<event>
 5    1  0.1607476E-006  0.2000120E+02  0.7818608E-02  0.1745304E+00
         -2   -1    0    0    0  501 -0.00000000000E+00  0.00000000000E+00  0.17975801844E+01  0.17975820647E+01  0.26000000000E-02 0.  1.
          2   -1    0    0  501    0  0.00000000000E+00 -0.00000000000E+00 -0.55637011911E+02  0.55637011972E+02  0.26000000000E-02 0. -1.
       1023    2    1    2    0    0  0.00000000000E+00  0.00000000000E+00 -0.53839431727E+02  0.57434594037E+02  0.20001204551E+02 0.  0.
        -13    1    3    3    0    0  0.97078145360E+01  0.23997062837E+01 -0.26991221194E+02  0.28784326419E+02  0.10570000000E+00 0. -1.
         13    1    3    3    0    0 -0.97078145360E+01 -0.23997062837E+01 -0.26848210533E+02  0.28650267618E+02  0.10570000000E+00 0.  1.
<mgrwt>
<rscale>  0 0.20001205E+02</rscale>
<asrwt>0</asrwt>
<pdfrwt beam="2">  1        2 0.85595391E-02 0.20001205E+02</pdfrwt>
<pdfrwt beam="1">  1       -2 0.27655099E-03 0.20001205E+02</pdfrwt>
<totfact> 0.47100244E+06</totfact>
</mgrwt>
</event>
<event>
 4    1  0.1607476E-006  0.2002346E+02  0.7818608E-02  0.1744862E+00
         -2   -1    0    0    0  501 -0.00000000000E+00  0.00000000000E+00  0.10427758141E+01  0.10427790555E+01  0.26000000000E-02 0.  1.
          2   -1    0    0  501    0  0.00000000000E+00 -0.00000000000E+00 -0.96122877441E+02  0.96122877477E+02  0.26000000000E-02 0. -1.
        -13    1    1    2    0    0  0.98024078967E+01 -0.20183482098E+01 -0.48754831597E+02  0.49771535104E+02  0.10570000000E+00 0. -1.
         13    1    1    2    0    0 -0.98024078967E+01  0.20183482098E+01 -0.46325270030E+02  0.47394121428E+02  0.10570000000E+00 0.  1.
<mgrwt>
<rscale>  0 0.20023463E+02</rscale>
<asrwt>0</asrwt>
<pdfrwt beam="2">  1        2 0.14788128E-01 0.20023463E+02</pdfrwt>
<pdfrwt beam="1">  1       -2 0.16042738E-03 0.20023463E+02</pdfrwt>
<totfact> 0.52156128E+06</totfact>
</mgrwt>
</event>
<event>
 4    1  0.1607476E-006  0.2006287E+02  0.7818608E-02  0.1744081E+00
         -2   -1    0    0    0  501 -0.00000000000E+00  0.00000000000E+00  0.94386402941E+00  0.94386761043E+00  0.26000000000E-02 0.  1.
          2   -1    0    0  501    0  0.00000000000E+00 -0.00000000000E+00 -0.10661437604E+03  0.10661437607E+03  0.26000000000E-02 0. -1.
        -13    1    1    2    0    0  0.90408493811E+01  0.42999161723E+01 -0.49477589529E+02  0.50480385049E+02  0.10570000000E+00 0.  1.
         13    1    1    2    0    0 -0.90408493811E+01 -0.42999161723E+01 -0.56192922484E+02  0.57077858636E+02  0.10570000000E+00 0. -1.
<mgrwt>
<rscale>  0 0.20062868E+02</rscale>
<asrwt>0</asrwt>
<pdfrwt beam="2">  1        2 0.16402202E-01 0.20062868E+02</pdfrwt>
<pdfrwt beam="1">  1       -2 0.14521021E-03 0.20062868E+02</pdfrwt>
<totfact> 0.53173723E+06</totfact>
</mgrwt>
</event>
<event>
 5    1  0.1607476E-006  0.2000780E+02  0.7818608E-02  0.1745173E+00
         -2   -1    0    0    0  501 -0.00000000000E+00  0.00000000000E+00  0.52572944270E+02  0.52572944334E+02  0.26000000000E-02 0.  1.
          2   -1    0    0  501    0  0.00000000000E+00 -0.00000000000E+00 -0.19036019159E+01  0.19036036914E+01  0.26000000000E-02 0. -1.
       1023    2    1    2    0    0  0.00000000000E+00  0.00000000000E+00  0.50669342354E+02  0.54476548026E+02  0.20007799234E+02 0.  0.
        -13    1    3    3    0    0  0.91282428838E+01 -0.40887353461E+01  0.25758760462E+02  0.27632724945E+02  0.10570000000E+00 0.  1.
         13    1    3    3    0    0 -0.91282428838E+01  0.40887353461E+01  0.24910581893E+02  0.26843823081E+02  0.10570000000E+00 0. -1.
<mgrwt>
<rscale>  0 0.20007799E+02</rscale>
<asrwt>0</asrwt>
<pdfrwt beam="2">  1        2 0.29286199E-03 0.20007799E+02</pdfrwt>
<pdfrwt beam="1">  1       -2 0.80881449E-02 0.20007799E+02</pdfrwt>
<totfact> 0.33621643E+06</totfact>
</mgrwt>
</event>
<event>
 5    1  0.1607476E-006  0.2000136E+02  0.7818608E-02  0.1745301E+00
         -2   -1    0    0    0  501 -0.00000000000E+00  0.00000000000E+00  0.90309547922E+01  0.90309551665E+01  0.26000000000E-02 0.  1.
          2   -1    0    0  501    0  0.00000000000E+00 -0.00000000000E+00 -0.11074536717E+02  0.11074537022E+02  0.26000000000E-02 0. -1.
       1023    2    1    2    0    0  0.00000000000E+00  0.00000000000E+00 -0.20435819247E+01  0.20105492189E+02  0.20001364680E+02 0.  0.
        -13    1    3    3    0    0 -0.99933661108E+01 -0.36585749268E+00 -0.98615438941E+00  0.10049123887E+02  0.10570000000E+00 0. -1.
         13    1    3    3    0    0  0.99933661108E+01  0.36585749268E+00 -0.10574275353E+01  0.10056368301E+02  0.10570000000E+00 0.  1.
<mgrwt>
<rscale>  0 0.20001365E+02</rscale>
<asrwt>0</asrwt>
<pdfrwt beam="2">  1        2 0.17037749E-02 0.20001365E+02</pdfrwt>
<pdfrwt beam="1">  1       -2 0.13893777E-02 0.20001365E+02</pdfrwt>
<totfact> 0.39754501E+06</totfact>
</mgrwt>
</event>
<event>
 5    1  0.2469293E-006  0.2001169E+02  0.7818608E-02  0.1745096E+00
         -2   -1    0    0    0  501 -0.00000000000E+00  0.00000000000E+00  0.90300316314E+00  0.90300690620E+00  0.26000000000E-02 0. -1.
          2   -1    0    0  501    0  0.00000000000E+00 -0.00000000000E+00 -0.11087085074E+03  0.11087085077E+03  0.26000000000E-02 0.  1.
       1023    2    1    2    0    0  0.00000000000E+00  0.00000000000E+00 -0.10996784758E+03  0.11177385768E+03  0.20011690565E+02 0.  0.
        -13    1    3    3    0    0 -0.81348870860E+01  0.58226196853E+01 -0.55892812497E+02  0.56781131982E+02  0.10570000000E+00 0. -1.
         13    1    3    3    0    0  0.81348870860E+01 -0.58226196853E+01 -0.54075035084E+02  0.54992725698E+02  0.10570000000E+00 0.  1.
<mgrwt>
<rscale>  0 0.20011691E+02</rscale>
<asrwt>0</asrwt>
<pdfrwt beam="2">  1        2 0.17057043E-01 0.20011691E+02</pdfrwt>
<pdfrwt beam="1">  1       -2 0.13892394E-03 0.20011691E+02</pdfrwt>
<totfact> 0.53971509E+06</totfact>
</mgrwt>
</event>
<event>
 4    1  0.2112917E-006  0.2001683E+02  0.7818608E-02  0.1744994E+00
          2   -1    0    0  501    0  0.00000000000E+00  0.00000000000E+00  0.10977450427E+03  0.10977450430E+03  0.26000000000E-02 0. -1.
         -2   -1    0    0    0  501 -0.00000000000E+00 -0.00000000000E+00 -0.91249059328E+00  0.91249429742E+00  0.26000000000E-02 0.  1.
        -13    1    1    2    0    0  0.18523457238E+00  0.10005661947E+02  0.54974323074E+02  0.55877857446E+02  0.10570000000E+00 0.  1.
         13    1    1    2    0    0 -0.18523457238E+00 -0.10005661947E+02  0.53887690599E+02  0.54809141148E+02  0.10570000000E+00 0. -1.
<mgrwt>
<rscale>  0 0.20016834E+02</rscale>
<asrwt>0</asrwt>
<pdfrwt beam="1">  1        2 0.16888376E-01 0.20016834E+02</pdfrwt>
<pdfrwt beam="2">  1       -2 0.14038353E-03 0.20016834E+02</pdfrwt>
<totfact> 0.53813387E+06</totfact>
</mgrwt>
</event>
<event>
 4    1  0.1607476E-006  0.2003148E+02  0.7818608E-02  0.1744703E+00
         -2   -1    0    0    0  501 -0.00000000000E+00  0.00000000000E+00  0.51227251352E+01  0.51227257950E+01  0.26000000000E-02 0. -1.
          2   -1    0    0  501    0  0.00000000000E+00 -0.00000000000E+00 -0.19582361138E+02  0.19582361311E+02  0.26000000000E-02 0.  1.
        -13    1    1    2    0    0 -0.99884030592E+01 -0.71885718301E+00 -0.73995501917E+01  0.12451886076E+02  0.10570000000E+00 0. -1.
         13    1    1    2    0    0  0.99884030592E+01  0.71885718301E+00 -0.70600858114E+01  0.12253201030E+02  0.10570000000E+00 0.  1.
<mgrwt>
<rscale>  0 0.20031482E+02</rscale>
<asrwt>0</asrwt>
<pdfrwt beam="2">  1        2 0.30126710E-02 0.20031482E+02</pdfrwt>
<pdfrwt beam="1">  1       -2 0.78811163E-03 0.20031482E+02</pdfrwt>
<totfact> 0.41453377E+06</totfact>
</mgrwt>
</event>
<event>
 4    1  0.1607476E-006  0.2004253E+02  0.7818608E-02  0.1744484E+00
         -2   -1    0    0    0  501 -0.00000000000E+00  0.00000000000E+00  0.14541189193E+02  0.14541189426E+02  0.26000000000E-02 0. -1.
          2   -1    0    0  501    0  0.00000000000E+00 -0.00000000000E+00 -0.69062952616E+01  0.69062957510E+01  0.26000000000E-02 0.  1.
        -13    1    1    2    0    0  0.39458444128E+01  0.92082904793E+01  0.35727717821E+01  0.10636642909E+02  0.10570000000E+00 0. -1.
         13    1    1    2    0    0 -0.39458444128E+01 -0.92082904793E+01  0.40621221494E+01  0.10810842267E+02  0.10570000000E+00 0.  1.
<mgrwt>
<rscale>  0 0.20042530E+02</rscale>
<asrwt>0</asrwt>
<pdfrwt beam="2">  1        2 0.10625070E-02 0.20042530E+02</pdfrwt>
<pdfrwt beam="1">  1       -2 0.22371061E-02 0.20042530E+02</pdfrwt>
<totfact> 0.38212309E+06</totfact>
</mgrwt>
</event>
<event>
 5    1  0.1607476E-006  0.2000747E+02  0.7818608E-02  0.1745179E+00
          2   -1    0    0  501    0  0.00000000000E+00  0.00000000000E+00  0.24247195158E+02  0.24247195297E+02  0.26000000000E-02 0. -1.
         -2   -1    0    0    0  501 -0.00000000000E+00 -0.00000000000E+00 -0.41272708311E+01  0.41272716500E+01  0.26000000000E-02 0.  1.
       1023    2    1    2    0    0  0.00000000000E+00  0.00000000000E+00  0.20119924327E+02  0.28374466947E+02  0.20007474094E+02 0.  0.
        -13    1    3    3    0    0  0.96525872410E+01 -0.26225133018E+01  0.98947809709E+01  0.14070105878E+02  0.10570000000E+00 0.  1.
         13    1    3    3    0    0 -0.96525872410E+01  0.26225133018E+01  0.10225143356E+02  0.14304361069E+02  0.10570000000E+00 0. -1.
<mgrwt>
<rscale>  0 0.20007474E+02</rscale>
<asrwt>0</asrwt>
<pdfrwt beam="1">  1        2 0.37303377E-02 0.20007474E+02</pdfrwt>
<pdfrwt beam="2">  1       -2 0.63496483E-03 0.20007474E+02</pdfrwt>
<totfact> 0.42393397E+06</totfact>
</mgrwt>
</event>
<event>
 4    1  0.1607476E-006  0.2007917E+02  0.7818608E-02  0.1743758E+00
         -2   -1    0    0    0  501 -0.00000000000E+00  0.00000000000E+00  0.82080969004E+01  0.82080973122E+01  0.26000000000E-02 0. -1.
          2   -1    0    0  501    0  0.00000000000E+00 -0.00000000000E+00 -0.12279730239E+02  0.12279730514E+02  0.26000000000E-02 0.  1.
        -13    1    1    2    0    0  0.82538535614E+01 -0.56668145766E+01 -0.27878131774E+01  0.10393361384E+02  0.10570000000E+00 0.  1.
         13    1    1    2    0    0 -0.82538535614E+01  0.56668145766E+01 -0.12838201613E+01  0.10094466442E+02  0.10570000000E+00 0. -1.
<mgrwt>
<rscale>  0 0.20079166E+02</rscale>
<asrwt>0</asrwt>
<pdfrwt beam="2">  1        2 0.18891893E-02 0.20079166E+02</pdfrwt>
<pdfrwt beam="1">  1       -2 0.12627842E-02 0.20079166E+02</pdfrwt>
<totfact> 0.39709573E+06</totfact>
</mgrwt>
</event>
<event>
 5    1  0.1607476E-006  0.2000182E+02  0.7818608E-02  0.1745292E+00
         -2   -1    0    0    0  501 -0.00000000000E+00  0.00000000000E+00  0.24391231736E+01  0.24391245594E+01  0.26000000000E-02 0. -1.
          2   -1    0    0  501    0  0.00000000000E+00 -0.00000000000E+00 -0.41005774452E+02  0.41005774534E+02  0.26000000000E-02 0.  1.
       1023    2    1    2    0    0  0.00000000000E+00  0.00000000000E+00 -0.38566651278E+02  0.43444899094E+02  0.20001816579E+02 0.  0.
        -13    1    3    3    0    0  0.13832647045E+01  0.99041169418E+01 -0.19185210591E+02  0.21635351431E+02  0.10570000000E+00 0.  1.
         13    1    3    3    0    0 -0.13832647045E+01 -0.99041169418E+01 -0.19381440688E+02  0.21809547663E+02  0.10570000000E+00 0. -1.
<mgrwt>
<rscale>  0 0.20001817E+02</rscale>
<asrwt>0</asrwt>
<pdfrwt beam="2">  1        2 0.63085803E-02 0.20001817E+02</pdfrwt>
<pdfrwt beam="1">  1       -2 0.37524986E-03 0.20001817E+02</pdfrwt>
<totfact> 0.45034652E+06</totfact>
</mgrwt>
</event>
<event>
 5    1  0.1607476E-006  0.2000202E+02  0.7818608E-02  0.1745288E+00
          2   -1    0    0  501    0  0.00000000000E+00  0.00000000000E+00  0.82878410684E+00  0.82878818510E+00  0.26000000000E-02 0. -1.
         -2   -1    0    0    0  501 -0.00000000000E+00 -0.00000000000E+00 -0.12068273864E+03  0.12068273867E+03  0.26000000000E-02 0.  1.
       1023    2    1    2    0    0  0.00000000000E+00  0.00000000000E+00 -0.11985395453E+03  0.12151152685E+03  0.20002018421E+02 0.  0.
        -13    1    3    3    0    0  0.77881466125E+01  0.62731172715E+01 -0.60183624237E+02  0.61008909405E+02  0.10570000000E+00 0. -1.
         13    1    3    3    0    0 -0.77881466125E+01 -0.62731172715E+01 -0.59670330293E+02  0.60502617445E+02  0.10570000000E+00 0.  1.
<mgrwt>
<rscale>  0 0.20002018E+02</rscale>
<asrwt>0</asrwt>
<pdfrwt beam="1">  1        2 0.12750566E-03 0.20002018E+02</pdfrwt>
<pdfrwt beam="2">  1       -2 0.18566562E-01 0.20002018E+02</pdfrwt>
<totfact> 0.28289592E+06</totfact>
</mgrwt>
</event>
<event>
 4    1  0.1607476E-006  0.2536479E+02  0.7818608E-02  0.1655817E+00
          2   -1    0    0  501    0  0.00000000000E+00  0.00000000000E+00  0.15355382786E+02  0.15355383006E+02  0.26000000000E-02 0.  1.
         -2   -1    0    0    0  501 -0.00000000000E+00 -0.00000000000E+00 -0.10474703828E+02  0.10474704151E+02  0.26000000000E-02 0. -1.
        -13    1    1    2    0    0  0.51556255383E+01 -0.11574593603E+02  0.19012613909E+01  0.12813183021E+02  0.10570000000E+00 0. -1.
         13    1    1    2    0    0 -0.51556255383E+01  0.11574593603E+02  0.29794175671E+01  0.13016904136E+02  0.10570000000E+00 0.  1.
<mgrwt>
<rscale>  0 0.25364786E+02</rscale>
<asrwt>0</asrwt>
<pdfrwt beam="1">  1        2 0.23623666E-02 0.25364786E+02</pdfrwt>
<pdfrwt beam="2">  1       -2 0.16114929E-02 0.25364786E+02</pdfrwt>
<totfact> 0.23502346E+06</totfact>
</mgrwt>
</event>
<event>
 4    1  0.1607476E-006  0.2003346E+02  0.7818608E-02  0.1744664E+00
          2   -1    0    0  501    0  0.00000000000E+00  0.00000000000E+00  0.30622748703E+01  0.30622759741E+01  0.26000000000E-02 0. -1.
         -2   -1    0    0    0  501 -0.00000000000E+00 -0.00000000000E+00 -0.32764807328E+02  0.32764807431E+02  0.26000000000E-02 0.  1.
        -13    1    1    2    0    0  0.61969942928E+01  0.78562286797E+01 -0.15652300672E+02  0.18577641297E+02  0.10570000000E+00 0.  1.
         13    1    1    2    0    0 -0.61969942928E+01 -0.78562286797E+01 -0.14050231786E+02  0.17249442108E+02  0.10570000000E+00 0. -1.
<mgrwt>
<rscale>  0 0.20033459E+02</rscale>
<asrwt>0</asrwt>
<pdfrwt beam="1">  1        2 0.47111933E-03 0.20033459E+02</pdfrwt>
<pdfrwt beam="2">  1       -2 0.50407394E-02 0.20033459E+02</pdfrwt>
<totfact> 0.35601729E+06</totfact>
</mgrwt>
</event>
<event>
 4    1  0.1607476E-006  0.2016589E+02  0.7818608E-02  0.1742049E+00
         -2   -1    0    0    0  501 -0.00000000000E+00  0.00000000000E+00  0.18160359623E+01  0.18160378235E+01  0.26000000000E-02 0. -1.
          2   -1    0    0  501    0  0.00000000000E+00 -0.00000000000E+00 -0.55982221528E+02  0.55982221588E+02  0.26000000000E-02 0.  1.
        -13    1    1    2    0    0  0.93749808933E+01  0.34939082808E+01 -0.23506788035E+02  0.25547561880E+02  0.10570000000E+00 0. -1.
         13    1    1    2    0    0 -0.93749808933E+01 -0.34939082808E+01 -0.30659397531E+02  0.32250697532E+02  0.10570000000E+00 0.  1.
<mgrwt>
<rscale>  0 0.20165890E+02</rscale>
<asrwt>0</asrwt>
<pdfrwt beam="2">  1        2 0.86126483E-02 0.20165890E+02</pdfrwt>
<pdfrwt beam="1">  1       -2 0.27939034E-03 0.20165890E+02</pdfrwt>
<totfact> 0.46294716E+06</totfact>
</mgrwt>
</event>
<event>
 5    1  0.1607476E-006  0.2000920E+02  0.7818608E-02  0.1745145E+00
         -2   -1    0    0    0  501 -0.00000000000E+00  0.00000000000E+00  0.11937978401E+01  0.11938006714E+01  0.26000000000E-02 0. -1.
          2   -1    0    0  501    0  0.00000000000E+00 -0.00000000000E+00 -0.83843245334E+02  0.83843245374E+02  0.26000000000E-02 0.  1.
       1023    2    1    2    0    0  0.00000000000E+00  0.00000000000E+00 -0.82649447494E+02  0.85037046045E+02  0.20009198613E+02 0.  0.
        -13    1    3    3    0    0  0.90795272291E+01  0.41988874163E+01 -0.40852152010E+02  0.42059219757E+02  0.10570000000E+00 0.  1.
         13    1    3    3    0    0 -0.90795272291E+01 -0.41988874163E+01 -0.41797295484E+02  0.42977826289E+02  0.10570000000E+00 0. -1.
<mgrwt>
<rscale>  0 0.20009199E+02</rscale>
<asrwt>0</asrwt>
<pdfrwt beam="2">  1        2 0.12898956E-01 0.20009199E+02</pdfrwt>
<pdfrwt beam="1">  1       -2 0.18366149E-03 0.20009199E+02</pdfrwt>
<totfact> 0.50729929E+06</totfact>
</mgrwt>
</event>
<event>
 5    1  0.1607476E-006  0.2000194E+02  0.7818608E-02  0.1745290E+00
         -2   -1    0    0    0  501 -0.00000000000E+00  0.00000000000E+00  0.21908803233E+02  0.21908803387E+02  0.26000000000E-02 0.  1.
          2   -1    0    0  501    0  0.00000000000E+00 -0.00000000000E+00 -0.45652580179E+01  0.45652587583E+01  0.26000000000E-02 0. -1.
       1023    2    1    2    0    0  0.00000000000E+00  0.00000000000E+00  0.17343545215E+02  0.26474062145E+02  0.20001935053E+02 0.  0.
        -13    1    3    3    0    0 -0.98015620724E+01 -0.19822744243E+01  0.85522982582E+01  0.13158761680E+02  0.10570000000E+00 0. -1.
         13    1    3    3    0    0  0.98015620724E+01  0.19822744243E+01  0.87912469568E+01  0.13315300466E+02  0.10570000000E+00 0.  1.
<mgrwt>
<rscale>  0 0.20001935E+02</rscale>
<asrwt>0</asrwt>
<pdfrwt beam="2">  1        2 0.70234746E-03 0.20001935E+02</pdfrwt>
<pdfrwt beam="1">  1       -2 0.33705852E-02 0.20001935E+02</pdfrwt>
<totfact> 0.37137140E+06</totfact>
</mgrwt>
</event>
<event>
 4    1  0.1607476E-006  0.2001549E+02  0.7818608E-02  0.1745020E+00
          2   -1    0    0  501    0  0.00000000000E+00  0.00000000000E+00  0.32883624657E+02  0.32883624760E+02  0.26000000000E-02 0.  1.
         -2   -1    0    0    0  501 -0.00000000000E+00 -0.00000000000E+00 -0.30457376771E+01  0.30457387868E+01  0.26000000000E-02 0. -1.
        -13    1    1    2    0    0  0.99953972098E+01 -0.43438840715E+00  0.15308459756E+02  0.18288159319E+02  0.10570000000E+00 0. -1.
         13    1    1    2    0    0 -0.99953972098E+01  0.43438840715E+00  0.14529427224E+02  0.17641204228E+02  0.10570000000E+00 0.  1.
<mgrwt>
<rscale>  0 0.20015486E+02</rscale>
<asrwt>0</asrwt>
<pdfrwt beam="1">  1        2 0.50590195E-02 0.20015486E+02</pdfrwt>
<pdfrwt beam="2">  1       -2 0.46857510E-03 0.20015486E+02</pdfrwt>
<totfact> 0.43748802E+06</totfact>
</mgrwt>
</event>
<event>
 4    1  0.1607476E-006  0.2002983E+02  0.7818608E-02  0.1744736E+00
         -2   -1    0    0    0  501 -0.00000000000E+00  0.00000000000E+00  0.60604052286E+01  0.60604057863E+01  0.26000000000E-02 0. -1.
          2   -1    0    0  501    0  0.00000000000E+00 -0.00000000000E+00 -0.16549803081E+02  0.16549803285E+02  0.26000000000E-02 0.  1.
        -13    1    1    2    0    0 -0.95745466337E+01  0.28959282859E+01 -0.57848934145E+01  0.11555713227E+02  0.10570000000E+00 0.  1.
         13    1    1    2    0    0  0.95745466337E+01 -0.28959282859E+01 -0.47045044377E+01  0.11054495844E+02  0.10570000000E+00 0. -1.
<mgrwt>
<rscale>  0 0.20029830E+02</rscale>
<asrwt>0</asrwt>
<pdfrwt beam="2">  1        2 0.25461236E-02 0.20029830E+02</pdfrwt>
<pdfrwt beam="1">  1       -2 0.93237010E-03 0.20029830E+02</pdfrwt>
<totfact> 0.40874595E+06</totfact>
</mgrwt>
</event>
<event>
 5    1  0.1607476E-006  0.2000999E+02  0.7818608E-02  0.1745129E+00
          2   -1    0    0  501    0  0.00000000000E+00  0.00000000000E+00  0.13050544879E+01  0.13050570778E+01  0.26000000000E-02 0.  1.
         -2   -1    0    0    0  501 -0.00000000000E+00 -0.00000000000E+00 -0.76701667795E+02  0.76701667839E+02  0.26000000000E-02 0. -1.
       1023    2    1    2    0    0  0.00000000000E+00  0.00000000000E+00 -0.75396613307E+02  0.78006724917E+02  0.20009993355E+02 0.  0.
        -13    1    3    3    0    0 -0.96958549490E+01  0.24619980244E+01 -0.37178948749E+02  0.38501382313E+02  0.10570000000E+00 0. -1.
         13    1    3    3    0    0  0.96958549490E+01 -0.24619980244E+01 -0.38217664558E+02  0.39505342603E+02  0.10570000000E+00 0.  1.
<mgrwt>
<rscale>  0 0.20009993E+02</rscale>
<asrwt>0</asrwt>
<pdfrwt beam="1">  1        2 0.20077788E-03 0.20009993E+02</pdfrwt>
<pdfrwt beam="2">  1       -2 0.11800253E-01 0.20009993E+02</pdfrwt>
<totfact> 0.31490528E+06</totfact>
</mgrwt>
</event>
<event>
 5    1  0.1607476E-006  0.2000305E+02  0.7818608E-02  0.1745267E+00
          2   -1    0    0  501    0  0.00000000000E+00  0.00000000000E+00  0.22126487140E+02  0.22126487293E+02  0.26000000000E-02 0. -1.
         -2   -1    0    0    0  501 -0.00000000000E+00 -0.00000000000E+00 -0.45208498410E+01  0.45208505887E+01  0.26000000000E-02 0.  1.
       1023    2    1    2    0    0  0.00000000000E+00  0.00000000000E+00  0.17605637299E+02  0.26647337882E+02  0.20003053554E+02 0.  0.
        -13    1    3    3    0    0  0.28464572006E+01  0.95869311599E+01  0.86851823708E+01  0.13245947794E+02  0.10570000000E+00 0. -1.
         13    1    3    3    0    0 -0.28464572006E+01 -0.95869311599E+01  0.89204549283E+01  0.13401390087E+02  0.10570000000E+00 0.  1.
<mgrwt>
<rscale>  0 0.20003054E+02</rscale>
<asrwt>0</asrwt>
<pdfrwt beam="1">  1        2 0.34040750E-02 0.20003054E+02</pdfrwt>
<pdfrwt beam="2">  1       -2 0.69551542E-03 0.20003054E+02</pdfrwt>
<totfact> 0.42046830E+06</totfact>
</mgrwt>
</event>
<event>
 5    1  0.1607476E-006  0.2000725E+02  0.7818608E-02  0.1745184E+00
          2   -1    0    0  501    0  0.00000000000E+00  0.00000000000E+00  0.35755622018E+02  0.35755622112E+02  0.26000000000E-02 0.  1.
         -2   -1    0    0    0  501 -0.00000000000E+00 -0.00000000000E+00 -0.27987890254E+01  0.27987902331E+01  0.26000000000E-02 0. -1.
       1023    2    1    2    0    0  0.00000000000E+00  0.00000000000E+00  0.32956832992E+02  0.38554412345E+02  0.20007245448E+02 0.  0.
        -13    1    3    3    0    0  0.55563254162E+01 -0.83170858489E+01  0.16245366533E+02  0.19077991913E+02  0.10570000000E+00 0.  1.
         13    1    3    3    0    0 -0.55563254162E+01  0.83170858489E+01  0.16711466459E+02  0.19476420432E+02  0.10570000000E+00 0. -1.
<mgrwt>
<rscale>  0 0.20007245E+02</rscale>
<asrwt>0</asrwt>
<pdfrwt beam="1">  1        2 0.55008650E-02 0.20007245E+02</pdfrwt>
<pdfrwt beam="2">  1       -2 0.43058303E-03 0.20007245E+02</pdfrwt>
<totfact> 0.44227818E+06</totfact>
</mgrwt>
</event>
<event>
 5    1  0.1607476E-006  0.2000267E+02  0.7818608E-02  0.1745275E+00
          2   -1    0    0  501    0  0.00000000000E+00  0.00000000000E+00  0.10295873811E+03  0.10295873814E+03  0.26000000000E-02 0. -1.
         -2   -1    0    0    0  501 -0.00000000000E+00 -0.00000000000E+00 -0.97151997208E+00  0.97152345115E+00  0.26000000000E-02 0.  1.
       1023    2    1    2    0    0  0.00000000000E+00  0.00000000000E+00  0.10198721814E+03  0.10393026159E+03  0.20002665109E+02 0.  0.
        -13    1    3    3    0    0  0.33002082151E+01  0.94402418721E+01  0.50593176375E+02  0.51572184451E+02  0.10570000000E+00 0.  1.
         13    1    3    3    0    0 -0.33002082151E+01 -0.94402418721E+01  0.51394041761E+02  0.52358077141E+02  0.10570000000E+00 0. -1.
<mgrwt>
<rscale>  0 0.20002665E+02</rscale>
<asrwt>0</asrwt>
<pdfrwt beam="1">  1        2 0.15839801E-01 0.20002665E+02</pdfrwt>
<pdfrwt beam="2">  1       -2 0.14946493E-03 0.20002665E+02</pdfrwt>
<totfact> 0.53095316E+06</totfact>
</mgrwt>
</event>
<event>
 5    1  0.1607476E-006  0.2000334E+02  0.7818608E-02  0.1745262E+00
         -2   -1    0    0    0  501 -0.00000000000E+00  0.00000000000E+00  0.10371105317E+03  0.10371105320E+03  0.26000000000E-02 0.  1.
          2   -1    0    0  501    0  0.00000000000E+00 -0.00000000000E+00 -0.96453745454E+00  0.96454095880E+00  0.26000000000E-02 0. -1.
       1023    2    1    2    0    0  0.00000000000E+00  0.00000000000E+00  0.10274651572E+03  0.10467559416E+03  0.20003337756E+02 0.  0.
        -13    1    3    3    0    0 -0.90573247044E+01  0.42408005496E+01  0.51101965561E+02  0.52071504460E+02  0.10570000000E+00 0.  1.
         13    1    3    3    0    0  0.90573247044E+01 -0.42408005496E+01  0.51644550156E+02  0.52604089702E+02  0.10570000000E+00 0. -1.
<mgrwt>
<rscale>  0 0.20003338E+02</rscale>
<asrwt>0</asrwt>
<pdfrwt beam="2">  1        2 0.14839053E-03 0.20003338E+02</pdfrwt>
<pdfrwt beam="1">  1       -2 0.15955559E-01 0.20003338E+02</pdfrwt>
<totfact> 0.29452713E+06</totfact>
</mgrwt>
</event>
<event>
 4    1  0.1607476E-006  0.2003104E+02  0.7818608E-02  0.1744711E+00
         -2   -1    0    0    0  501 -0.00000000000E+00  0.00000000000E+00  0.11183516945E+01  0.11183547168E+01  0.26000000000E-02 0.  1.
          2   -1    0    0  501    0  0.00000000000E+00 -0.00000000000E+00 -0.89694995232E+02  0.89694995270E+02  0.26000000000E-02 0. -1.
        -13    1    1    2    0    0  0.93204265319E+01 -0.36323663601E+01 -0.42090187748E+02  0.43262680375E+02  0.10570000000E+00 0.  1.
         13    1    1    2    0    0 -0.93204265319E+01  0.36323663601E+01 -0.46486455790E+02  0.47550669611E+02  0.10570000000E+00 0. -1.
<mgrwt>
<rscale>  0 0.20031045E+02</rscale>
<asrwt>0</asrwt>
<pdfrwt beam="2">  1        2 0.13799225E-01 0.20031045E+02</pdfrwt>
<pdfrwt beam="1">  1       -2 0.17205441E-03 0.20031045E+02</pdfrwt>
<totfact> 0.51330941E+06</totfact>
</mgrwt>
</event>
<event>
 5    1  0.1607476E-006  0.2000856E+02  0.7818608E-02  0.1745158E+00
          2   -1    0    0  501    0  0.00000000000E+00  0.00000000000E+00  0.44101740175E+01  0.44101747839E+01  0.26000000000E-02 0. -1.
         -2   -1    0    0    0  501 -0.00000000000E+00 -0.00000000000E+00 -0.22694257772E+02  0.22694257921E+02  0.26000000000E-02 0.  1.
       1023    2    1    2    0    0  0.00000000000E+00  0.00000000000E+00 -0.18284083754E+02  0.27104432705E+02  0.20008562005E+02 0.  0.
        -13    1    3    3    0    0 -0.76901714942E+01 -0.63960086446E+01 -0.93638132942E+01  0.13701818715E+02  0.10570000000E+00 0.  1.
         13    1    3    3    0    0  0.76901714942E+01  0.63960086446E+01 -0.89202704599E+01  0.13402613990E+02  0.10570000000E+00 0. -1.
<mgrwt>
<rscale>  0 0.20008562E+02</rscale>
<asrwt>0</asrwt>
<pdfrwt beam="1">  1        2 0.67848839E-03 0.20008562E+02</pdfrwt>
<pdfrwt beam="2">  1       -2 0.34914243E-02 0.20008562E+02</pdfrwt>
<totfact> 0.36996336E+06</totfact>
</mgrwt>
</event>
<event>
 4    1  0.1607476E-006  0.2016237E+02  0.7818608E-02  0.1742118E+00
          2   -1    0    0  501    0  0.00000000000E+00  0.00000000000E+00  0.10396573954E+02  0.10396574279E+02  0.26000000000E-02 0.  1.
         -2   -1    0    0    0  501 -0.00000000000E+00 -0.00000000000E+00 -0.97753608677E+01  0.97753612135E+01  0.26000000000E-02 0. -1.
        -13    1    1    2    0    0  0.84256173453E+01  0.55321128383E+01  0.15627266028E+00  0.10081214894E+02  0.10570000000E+00 0. -1.
         13    1    1    2    0    0 -0.84256173453E+01 -0.55321128383E+01  0.46494042577E+00  0.10090720598E+02  0.10570000000E+00 0.  1.
<mgrwt>
<rscale>  0 0.20162368E+02</rscale>
<asrwt>0</asrwt>
<pdfrwt beam="1">  1        2 0.15994730E-02 0.20162368E+02</pdfrwt>
<pdfrwt beam="2">  1       -2 0.15039017E-02 0.20162368E+02</pdfrwt>
<totfact> 0.38851882E+06</totfact>
</mgrwt>
</event>
<event>
 5    1  0.1607476E-006  0.2000347E+02  0.7818608E-02  0.1745259E+00
          2   -1    0    0  501    0  0.00000000000E+00  0.00000000000E+00  0.72072656326E+01  0.72072661015E+01  0.26000000000E-02 0.  1.
         -2   -1    0    0    0  501 -0.00000000000E+00 -0.00000000000E+00 -0.13879706840E+02  0.13879707084E+02  0.26000000000E-02 0. -1.
       1023    2    1    2    0    0  0.00000000000E+00  0.00000000000E+00 -0.66724412077E+01  0.21086973185E+02  0.20003473860E+02 0.  0.
        -13    1    3    3    0    0 -0.65714750618E+01 -0.75391005124E+01 -0.32989785963E+01  0.10531702298E+02  0.10570000000E+00 0. -1.
         13    1    3    3    0    0  0.65714750618E+01  0.75391005124E+01 -0.33734626114E+01  0.10555270887E+02  0.10570000000E+00 0.  1.
<mgrwt>
<rscale>  0 0.20003474E+02</rscale>
<asrwt>0</asrwt>
<pdfrwt beam="1">  1        2 0.11088102E-02 0.20003474E+02</pdfrwt>
<pdfrwt beam="2">  1       -2 0.21353396E-02 0.20003474E+02</pdfrwt>
<totfact> 0.38508044E+06</totfact>
</mgrwt>
</event>
<event>
 5    1  0.1607476E-006  0.2000474E+02  0.7818608E-02  0.1745234E+00
          2   -1    0    0  501    0  0.00000000000E+00  0.00000000000E+00  0.24823169229E+01  0.24823182845E+01  0.26000000000E-02 0.  1.
         -2   -1    0    0    0  501 -0.00000000000E+00 -0.00000000000E+00 -0.40304045733E+02  0.40304045817E+02  0.26000000000E-02 0. -1.
       1023    2    1    2    0    0  0.00000000000E+00  0.00000000000E+00 -0.37821728810E+02  0.42786364102E+02  0.20004744008E+02 0.  0.
        -13    1    3    3    0    0 -0.99663791958E+01  0.84116382132E+00 -0.18914156946E+02  0.21396092547E+02  0.10570000000E+00 0. -1.
         13    1    3    3    0    0  0.99663791958E+01 -0.84116382132E+00 -0.18907571865E+02  0.21390271554E+02  0.10570000000E+00 0.  1.
<mgrwt>
<rscale>  0 0.20004744E+02</rscale>
<asrwt>0</asrwt>
<pdfrwt beam="1">  1        2 0.38189505E-03 0.20004744E+02</pdfrwt>
<pdfrwt beam="2">  1       -2 0.62006220E-02 0.20004744E+02</pdfrwt>
<totfact> 0.34869850E+06</totfact>
</mgrwt>
</event>
<event>
 4    1  0.1607476E-006  0.2016977E+02  0.7818608E-02  0.1741973E+00
         -2   -1    0    0    0  501 -0.00000000000E+00  0.00000000000E+00  0.11752324433E+01  0.11752353193E+01  0.26000000000E-02 0.  1.
          2   -1    0    0  501    0  0.00000000000E+00 -0.00000000000E+00 -0.86540171873E+02  0.86540171912E+02  0.26000000000E-02 0. -1.
        -13    1    1    2    0    0 -0.10073182586E+02 -0.37149291289E+00 -0.41401522850E+02  0.42611081671E+02  0.10570000000E+00 0.  1.
         13    1    1    2    0    0  0.10073182586E+02  0.37149291289E+00 -0.43963416580E+02  0.45104325561E+02  0.10570000000E+00 0. -1.
<mgrwt>
<rscale>  0 0.20169774E+02</rscale>
<asrwt>0</asrwt>
<pdfrwt beam="2">  1        2 0.13313868E-01 0.20169774E+02</pdfrwt>
<pdfrwt beam="1">  1       -2 0.18080528E-03 0.20169774E+02</pdfrwt>
<totfact> 0.50170288E+06</totfact>
</mgrwt>
</event>
<event>
 5    1  0.1607476E-006  0.2000233E+02  0.7818608E-02  0.1745282E+00
         -2   -1    0    0    0  501 -0.00000000000E+00  0.00000000000E+00  0.17012924411E+01  0.17012944278E+01  0.26000000000E-02 0.  1.
          2   -1    0    0  501    0  0.00000000000E+00 -0.00000000000E+00 -0.58792499135E+02  0.58792499192E+02  0.26000000000E-02 0. -1.
       1023    2    1    2    0    0  0.00000000000E+00  0.00000000000E+00 -0.57091206694E+02  0.60493793620E+02  0.20002329484E+02 0.  0.
        -13    1    3    3    0    0 -0.49284305397E+00 -0.99883631969E+01 -0.28674982850E+02  0.30368999120E+02  0.10570000000E+00 0.  1.
         13    1    3    3    0    0  0.49284305397E+00  0.99883631969E+01 -0.28416223844E+02  0.30124794500E+02  0.10570000000E+00 0. -1.
<mgrwt>
<rscale>  0 0.20002329E+02</rscale>
<asrwt>0</asrwt>
<pdfrwt beam="2">  1        2 0.90449985E-02 0.20002329E+02</pdfrwt>
<pdfrwt beam="1">  1       -2 0.26173750E-03 0.20002329E+02</pdfrwt>
<totfact> 0.47522662E+06</totfact>
</mgrwt>
</event>
<event>
 5    1  0.1607476E-006  0.2000959E+02  0.7818608E-02  0.1745138E+00
         -2   -1    0    0    0  501 -0.00000000000E+00  0.00000000000E+00  0.13573580522E+01  0.13573605423E+01  0.26000000000E-02 0.  1.
          2   -1    0    0  501    0  0.00000000000E+00 -0.00000000000E+00 -0.73743101852E+02  0.73743101897E+02  0.26000000000E-02 0. -1.
       1023    2    1    2    0    0  0.00000000000E+00  0.00000000000E+00 -0.72385743799E+02  0.75100462440E+02  0.20009586534E+02 0.  0.
        -13    1    3    3    0    0  0.76598129505E+01  0.64305074106E+01 -0.37116468834E+02  0.38440442130E+02  0.10570000000E+00 0. -1.
         13    1    3    3    0    0 -0.76598129505E+01 -0.64305074106E+01 -0.35269274966E+02  0.36660020309E+02  0.10570000000E+00 0.  1.
<mgrwt>
<rscale>  0 0.20009587E+02</rscale>
<asrwt>0</asrwt>
<pdfrwt beam="2">  1        2 0.11345090E-01 0.20009587E+02</pdfrwt>
<pdfrwt beam="1">  1       -2 0.20882457E-03 0.20009587E+02</pdfrwt>
<totfact> 0.49450933E+06</totfact>
</mgrwt>
</event>
<event>
 5    1  0.1607476E-006  0.2000356E+02  0.7818608E-02  0.1745257E+00
         -2   -1    0    0    0  501 -0.00000000000E+00  0.00000000000E+00  0.10393070734E+02  0.10393071059E+02  0.26000000000E-02 0.  1.
          2   -1    0    0  501    0  0.00000000000E+00 -0.00000000000E+00 -0.96252159818E+01  0.96252163330E+01  0.26000000000E-02 0. -1.
       1023    2    1    2    0    0  0.00000000000E+00  0.00000000000E+00  0.76785475198E+00  0.20018287392E+02  0.20003555414E+02 0.  0.
        -13    1    3    3    0    0  0.64395880352E+01 -0.76521896979E+01  0.37477887426E+00  0.10008792781E+02  0.10570000000E+00 0.  1.
         13    1    3    3    0    0 -0.64395880352E+01  0.76521896979E+01  0.39307587772E+00  0.10009494611E+02  0.10570000000E+00 0. -1.
<mgrwt>
<rscale>  0 0.20003555E+02</rscale>
<asrwt>0</asrwt>
<pdfrwt beam="2">  1        2 0.14808025E-02 0.20003555E+02</pdfrwt>
<pdfrwt beam="1">  1       -2 0.15989340E-02 0.20003555E+02</pdfrwt>
<totfact> 0.39336960E+06</totfact>
</mgrwt>
</event>
<event>
 4    1  0.1607476E-006  0.2004560E+02  0.7818608E-02  0.1744423E+00
          2   -1    0    0  501    0  0.00000000000E+00  0.00000000000E+00  0.76581729360E+02  0.76581729404E+02  0.26000000000E-02 0. -1.
         -2   -1    0    0    0  501 -0.00000000000E+00 -0.00000000000E+00 -0.13117547700E+01  0.13117573467E+01  0.26000000000E-02 0.  1.
        -13    1    1    2    0    0 -0.96951025082E+01 -0.25265948044E+01  0.36631540891E+02  0.37977093813E+02  0.10570000000E+00 0.  1.
         13    1    1    2    0    0  0.96951025082E+01  0.25265948044E+01  0.38638433699E+02  0.39916392938E+02  0.10570000000E+00 0. -1.
<mgrwt>
<rscale>  0 0.20045603E+02</rscale>
<asrwt>0</asrwt>
<pdfrwt beam="1">  1        2 0.11781806E-01 0.20045603E+02</pdfrwt>
<pdfrwt beam="2">  1       -2 0.20180860E-03 0.20045603E+02</pdfrwt>
<totfact> 0.49615554E+06</totfact>
</mgrwt>
</event>
<event>
 5    1  0.1607476E-006  0.2000119E+02  0.7818608E-02  0.1745304E+00
          2   -1    0    0  501    0  0.00000000000E+00  0.00000000000E+00  0.34313269261E+02  0.34313269360E+02  0.26000000000E-02 0. -1.
         -2   -1    0    0    0  501 -0.00000000000E+00 -0.00000000000E+00 -0.29146708220E+01  0.29146719817E+01  0.26000000000E-02 0.  1.
       1023    2    1    2    0    0  0.00000000000E+00  0.00000000000E+00  0.31398598439E+02  0.37227941342E+02  0.20001190779E+02 0.  0.
        -13    1    3    3    0    0 -0.85864235693E+00 -0.99631037382E+01  0.15688629888E+02  0.18604971998E+02  0.10570000000E+00 0.  1.
         13    1    3    3    0    0  0.85864235693E+00  0.99631037382E+01  0.15709968552E+02  0.18622969344E+02  0.10570000000E+00 0. -1.
<mgrwt>
<rscale>  0 0.20001191E+02</rscale>
<asrwt>0</asrwt>
<pdfrwt beam="1">  1        2 0.52789647E-02 0.20001191E+02</pdfrwt>
<pdfrwt beam="2">  1       -2 0.44841098E-03 0.20001191E+02</pdfrwt>
<totfact> 0.44038529E+06</totfact>
</mgrwt>
</event>
<event>
 5    1  0.1607476E-006  0.2000664E+02  0.7818608E-02  0.1745196E+00
          2   -1    0    0  501    0  0.00000000000E+00  0.00000000000E+00  0.93249613442E+02  0.93249613479E+02  0.26000000000E-02 0. -1.
         -2   -1    0    0    0  501 -0.00000000000E+00 -0.00000000000E+00 -0.10731005714E+01  0.10731037211E+01  0.26000000000E-02 0.  1.
       1023    2    1    2    0    0  0.00000000000E+00  0.00000000000E+00  0.92176512871E+02  0.94322717200E+02  0.20006635271E+02 0.  0.
        -13    1    3    3    0    0  0.98116986159E+01 -0.19346888095E+01  0.45113574050E+02  0.46208853984E+02  0.10570000000E+00 0.  1.
         13    1    3    3    0    0 -0.98116986159E+01  0.19346888095E+01  0.47062938821E+02  0.48113863215E+02  0.10570000000E+00 0. -1.
<mgrwt>
<rscale>  0 0.20006635E+02</rscale>
<asrwt>0</asrwt>
<pdfrwt beam="1">  1        2 0.14346090E-01 0.20006635E+02</pdfrwt>
<pdfrwt beam="2">  1       -2 0.16509269E-03 0.20006635E+02</pdfrwt>
<totfact> 0.51904433E+06</totfact>
</mgrwt>
</event>
<event>
 5    1  0.1607476E-006  0.2000771E+02  0.7818608E-02  0.1745175E+00
         -2   -1    0    0    0  501 -0.00000000000E+00  0.00000000000E+00  0.11128283857E+03  0.11128283860E+03  0.26000000000E-02 0. -1.
          2   -1    0    0  501    0  0.00000000000E+00 -0.00000000000E+00 -0.89930179630E+00  0.89930555477E+00  0.26000000000E-02 0.  1.
       1023    2    1    2    0    0  0.00000000000E+00  0.00000000000E+00  0.11038353678E+03  0.11218214416E+03  0.20007705430E+02 0.  0.
        -13    1    3    3    0    0 -0.45959353242E+01 -0.88842145334E+01  0.55855363700E+02  0.56744028020E+02  0.10570000000E+00 0. -1.
         13    1    3    3    0    0  0.45959353242E+01  0.88842145334E+01  0.54528173076E+02  0.55438116138E+02  0.10570000000E+00 0.  1.
<mgrwt>
<rscale>  0 0.20007705E+02</rscale>
<asrwt>0</asrwt>
<pdfrwt beam="2">  1        2 0.13835430E-03 0.20007705E+02</pdfrwt>
<pdfrwt beam="1">  1       -2 0.17120452E-01 0.20007705E+02</pdfrwt>
<totfact> 0.28907242E+06</totfact>
</mgrwt>
</event>
<event>
 5    1  0.1607476E-006  0.2000243E+02  0.7818608E-02  0.1745280E+00
         -2   -1    0    0    0  501 -0.00000000000E+00  0.00000000000E+00  0.14413896630E+02  0.14413896864E+02  0.26000000000E-02 0.  1.
          2   -1    0    0  501    0  0.00000000000E+00 -0.00000000000E+00 -0.69394330045E+01  0.69394334916E+01  0.26000000000E-02 0. -1.
       1023    2    1    2    0    0  0.00000000000E+00  0.00000000000E+00  0.74744636253E+01  0.21353330356E+02  0.20002427623E+02 0.  0.
        -13    1    3    3    0    0  0.62575424720E+01  0.78010355321E+01  0.37259316354E+01  0.10672709694E+02  0.10570000000E+00 0. -1.
         13    1    3    3    0    0 -0.62575424720E+01 -0.78010355321E+01  0.37485319899E+01  0.10680620662E+02  0.10570000000E+00 0.  1.
<mgrwt>
<rscale>  0 0.20002428E+02</rscale>
<asrwt>0</asrwt>
<pdfrwt beam="2">  1        2 0.10676051E-02 0.20002428E+02</pdfrwt>
<pdfrwt beam="1">  1       -2 0.22175226E-02 0.20002428E+02</pdfrwt>
<totfact> 0.38403292E+06</totfact>
</mgrwt>
</event>
<event>
 5    1  0.1650550E-006  0.2000127E+02  0.7818608E-02  0.1745303E+00
         -2   -1    0    0    0  501 -0.00000000000E+00  0.00000000000E+00  0.99334258902E+00  0.99334599167E+00  0.26000000000E-02 0.  1.
          2   -1    0    0  501    0  0.00000000000E+00 -0.00000000000E+00 -0.10068281134E+03  0.10068281137E+03  0.26000000000E-02 0. -1.
       1023    2    1    2    0    0  0.00000000000E+00  0.00000000000E+00 -0.99689468748E+02  0.10167615736E+03  0.20001269877E+02 0.  0.
        -13    1    3    3    0    0 -0.97918804989E+01 -0.20299092512E+01 -0.49887692678E+02  0.50880197607E+02  0.10570000000E+00 0.  1.
         13    1    3    3    0    0  0.97918804989E+01  0.20299092512E+01 -0.49801776070E+02  0.50795959756E+02  0.10570000000E+00 0. -1.
<mgrwt>
<rscale>  0 0.20001270E+02</rscale>
<asrwt>0</asrwt>
<pdfrwt beam="2">  1        2 0.15489655E-01 0.20001270E+02</pdfrwt>
<pdfrwt beam="1">  1       -2 0.15282228E-03 0.20001270E+02</pdfrwt>
<totfact> 0.52832244E+06</totfact>
</mgrwt>
</event>
<event>
 5    1  0.1607476E-006  0.2000179E+02  0.7818608E-02  0.1745292E+00
         -2   -1    0    0    0  501 -0.00000000000E+00  0.00000000000E+00  0.12011326509E+03  0.12011326511E+03  0.26000000000E-02 0. -1.
          2   -1    0    0  501    0  0.00000000000E+00 -0.00000000000E+00 -0.83269474699E+00  0.83269880609E+00  0.26000000000E-02 0.  1.
       1023    2    1    2    0    0  0.00000000000E+00  0.00000000000E+00  0.11928057034E+03  0.12094596392E+03  0.20001793125E+02 0.  0.
        -13    1    3    3    0    0  0.84903981087E+01  0.52833974008E+01  0.60093244110E+02  0.60919703778E+02  0.10570000000E+00 0.  1.
         13    1    3    3    0    0 -0.84903981087E+01 -0.52833974008E+01  0.59187326229E+02  0.60026260143E+02  0.10570000000E+00 0. -1.
<mgrwt>
<rscale>  0 0.20001793E+02</rscale>
<asrwt>0</asrwt>
<pdfrwt beam="2">  1        2 0.12810712E-03 0.20001793E+02</pdfrwt>
<pdfrwt beam="1">  1       -2 0.18478975E-01 0.20001793E+02</pdfrwt>
<totfact> 0.28328047E+06</totfact>
</mgrwt>
</event>
<event>
 4    1  0.1607476E-006  0.2006549E+02  0.7818608E-02  0.1744029E+00
          2   -1    0    0  501    0  0.00000000000E+00  0.00000000000E+00  0.59323162249E+02  0.59323162306E+02  0.26000000000E-02 0.  1.
         -2   -1    0    0    0  501 -0.00000000000E+00 -0.00000000000E+00 -0.16967385578E+01  0.16967405499E+01  0.26000000000E-02 0. -1.
        -13    1    1    2    0    0  0.86349701139E+01  0.50538204141E+01  0.31049929814E+02  0.32622279558E+02  0.10570000000E+00 0. -1.
         13    1    1    2    0    0 -0.86349701139E+01 -0.50538204141E+01  0.26576493878E+02  0.28397623298E+02  0.10570000000E+00 0.  1.
<mgrwt>
<rscale>  0 0.20065489E+02</rscale>
<asrwt>0</asrwt>
<pdfrwt beam="1">  1        2 0.91266391E-02 0.20065489E+02</pdfrwt>
<pdfrwt beam="2">  1       -2 0.26103690E-03 0.20065489E+02</pdfrwt>
<totfact> 0.47261886E+06</totfact>
</mgrwt>
</event>
<event>
 4    1  0.1607476E-006  0.2004549E+02  0.7818608E-02  0.1744425E+00
         -2   -1    0    0    0  501 -0.00000000000E+00  0.00000000000E+00  0.17072951448E+01  0.17072971245E+01  0.26000000000E-02 0. -1.
          2   -1    0    0  501    0  0.00000000000E+00 -0.00000000000E+00 -0.58838879627E+02  0.58838879684E+02  0.26000000000E-02 0.  1.
        -13    1    1    2    0    0  0.37801221662E+01 -0.92750607280E+01 -0.29647040253E+02  0.31293357815E+02  0.10570000000E+00 0.  1.
         13    1    1    2    0    0 -0.37801221662E+01  0.92750607280E+01 -0.27484544229E+02  0.29252818994E+02  0.10570000000E+00 0. -1.
<mgrwt>
<rscale>  0 0.20045488E+02</rscale>
<asrwt>0</asrwt>
<pdfrwt beam="2">  1        2 0.90521339E-02 0.20045488E+02</pdfrwt>
<pdfrwt beam="1">  1       -2 0.26266099E-03 0.20045488E+02</pdfrwt>
<totfact> 0.47301746E+06</totfact>
</mgrwt>
</event>
<event>
 5    1  0.1607476E-006  0.2000198E+02  0.7818608E-02  0.1745289E+00
         -2   -1    0    0    0  501 -0.00000000000E+00  0.00000000000E+00  0.11116455749E+03  0.11116455752E+03  0.26000000000E-02 0.  1.
          2   -1    0    0  501    0  0.00000000000E+00 -0.00000000000E+00 -0.89974345736E+00  0.89974721398E+00  0.26000000000E-02 0. -1.
       1023    2    1    2    0    0  0.00000000000E+00  0.00000000000E+00  0.11026481403E+03  0.11206430473E+03  0.20001979451E+02 0.  0.
        -13    1    3    3    0    0  0.86207379576E+01  0.50683346575E+01  0.55463099832E+02  0.56357535030E+02  0.10570000000E+00 0.  1.
         13    1    3    3    0    0 -0.86207379576E+01 -0.50683346575E+01  0.54801714200E+02  0.55706769704E+02  0.10570000000E+00 0. -1.
<mgrwt>
<rscale>  0 0.20001979E+02</rscale>
<asrwt>0</asrwt>
<pdfrwt beam="2">  1        2 0.13842243E-03 0.20001979E+02</pdfrwt>
<pdfrwt beam="1">  1       -2 0.17102232E-01 0.20001979E+02</pdfrwt>
<totfact> 0.28933463E+06</totfact>
</mgrwt>
</event>
<event>
 4    1  0.1607476E-006  0.2053811E+02  0.7818608E-02  0.1734834E+00
         -2   -1    0    0    0  501 -0.00000000000E+00  0.00000000000E+00  0.25660870916E+01  0.25660884088E+01  0.26000000000E-02 0.  1.
          2   -1    0    0  501    0  0.00000000000E+00 -0.00000000000E+00 -0.41095051724E+02  0.41095051806E+02  0.26000000000E-02 0. -1.
        -13    1    1    2    0    0  0.12462102750E+01 -0.10075417163E+02 -0.22540837160E+02  0.24721803806E+02  0.10570000000E+00 0. -1.
         13    1    1    2    0    0 -0.12462102750E+01  0.10075417163E+02 -0.15988127472E+02  0.18939336409E+02  0.10570000000E+00 0.  1.
<mgrwt>
<rscale>  0 0.20538112E+02</rscale>
<asrwt>0</asrwt>
<pdfrwt beam="2">  1        2 0.63223153E-02 0.20538112E+02</pdfrwt>
<pdfrwt beam="1">  1       -2 0.39478277E-03 0.20538112E+02</pdfrwt>
<totfact> 0.42455699E+06</totfact>
</mgrwt>
</event>
<event>
 4    1  0.1607476E-006  0.2001301E+02  0.7818608E-02  0.1745069E+00
         -2   -1    0    0    0  501 -0.00000000000E+00  0.00000000000E+00  0.92659954745E+00  0.92660319519E+00  0.26000000000E-02 0.  1.
          2   -1    0    0  501    0  0.00000000000E+00 -0.00000000000E+00 -0.10806173809E+03  0.10806173812E+03  0.26000000000E-02 0. -1.
        -13    1    1    2    0    0 -0.52172202323E+01 -0.85351618105E+01 -0.52342410709E+02  0.53289844299E+02  0.10570000000E+00 0.  1.
         13    1    1    2    0    0  0.52172202323E+01  0.85351618105E+01 -0.54792727835E+02  0.55698497019E+02  0.10570000000E+00 0. -1.
<mgrwt>
<rscale>  0 0.20013012E+02</rscale>
<asrwt>0</asrwt>
<pdfrwt beam="2">  1        2 0.16624873E-01 0.20013012E+02</pdfrwt>
<pdfrwt beam="1">  1       -2 0.14255415E-03 0.20013012E+02</pdfrwt>
<totfact> 0.53635984E+06</totfact>
</mgrwt>
</event>
<event>
 5    1  0.1607476E-006  0.2000425E+02  0.7818608E-02  0.1745244E+00
         -2   -1    0    0    0  501 -0.00000000000E+00  0.00000000000E+00  0.13219825031E+01  0.13219850599E+01  0.26000000000E-02 0.  1.
          2   -1    0    0  501    0  0.00000000000E+00 -0.00000000000E+00 -0.75676049356E+02  0.75676049401E+02  0.26000000000E-02 0. -1.
       1023    2    1    2    0    0  0.00000000000E+00  0.00000000000E+00 -0.74354066853E+02  0.76998034461E+02  0.20004250879E+02 0.  0.
        -13    1    3    3    0    0 -0.99983550882E+01 -0.24908767165E+00 -0.36996837124E+02  0.38325008529E+02  0.10570000000E+00 0. -1.
         13    1    3    3    0    0  0.99983550882E+01  0.24908767165E+00 -0.37357229729E+02  0.38673025931E+02  0.10570000000E+00 0.  1.
<mgrwt>
<rscale>  0 0.20004251E+02</rscale>
<asrwt>0</asrwt>
<pdfrwt beam="2">  1        2 0.11642466E-01 0.20004251E+02</pdfrwt>
<pdfrwt beam="1">  1       -2 0.20338218E-03 0.20004251E+02</pdfrwt>
<totfact> 0.49727573E+06</totfact>
</mgrwt>
</event>
<event>
 4    1  0.1607476E-006  0.2003348E+02  0.7818608E-02  0.1744663E+00
          2   -1    0    0  501    0  0.00000000000E+00  0.00000000000E+00  0.29643166088E+02  0.29643166202E+02  0.26000000000E-02 0.  1.
         -2   -1    0    0    0  501 -0.00000000000E+00 -0.00000000000E+00 -0.33847607044E+01  0.33847617030E+01  0.26000000000E-02 0. -1.
        -13    1    1    2    0    0  0.73664217709E+01  0.67832263063E+01  0.13488668986E+02  0.16799752746E+02  0.10570000000E+00 0. -1.
         13    1    1    2    0    0 -0.73664217709E+01 -0.67832263063E+01  0.12769736397E+02  0.16228175159E+02  0.10570000000E+00 0.  1.
<mgrwt>
<rscale>  0 0.20033476E+02</rscale>
<asrwt>0</asrwt>
<pdfrwt beam="1">  1        2 0.45604871E-02 0.20033476E+02</pdfrwt>
<pdfrwt beam="2">  1       -2 0.52073251E-03 0.20033476E+02</pdfrwt>
<totfact> 0.43154382E+06</totfact>
</mgrwt>
</event>
<event>
 4    1  0.1607476E-006  0.2018141E+02  0.7818608E-02  0.1741744E+00
          2   -1    0    0  501    0  0.00000000000E+00  0.00000000000E+00  0.50298365416E+02  0.50298365483E+02  0.26000000000E-02 0. -1.
         -2   -1    0    0    0  501 -0.00000000000E+00 -0.00000000000E+00 -0.20243658030E+01  0.20243674727E+01  0.26000000000E-02 0.  1.
        -13    1    1    2    0    0 -0.89503819345E+01  0.45744517817E+01  0.26421181996E+02  0.28268798638E+02  0.10570000000E+00 0.  1.
         13    1    1    2    0    0  0.89503819345E+01 -0.45744517817E+01  0.21852817616E+02  0.24053934317E+02  0.10570000000E+00 0. -1.
<mgrwt>
<rscale>  0 0.20181411E+02</rscale>
<asrwt>0</asrwt>
<pdfrwt beam="1">  1        2 0.77382108E-02 0.20181411E+02</pdfrwt>
<pdfrwt beam="2">  1       -2 0.31144100E-03 0.20181411E+02</pdfrwt>
<totfact> 0.45445922E+06</totfact>
</mgrwt>
</event>
<event>
 5    1  0.1607476E-006  0.2000282E+02  0.7818608E-02  0.1745272E+00
         -2   -1    0    0    0  501 -0.00000000000E+00  0.00000000000E+00  0.61193486948E+01  0.61193492471E+01  0.26000000000E-02 0. -1.
          2   -1    0    0  501    0  0.00000000000E+00 -0.00000000000E+00 -0.16346208912E+02  0.16346209119E+02  0.26000000000E-02 0.  1.
       1023    2    1    2    0    0  0.00000000000E+00  0.00000000000E+00 -0.10226860217E+02  0.22465558366E+02  0.20002815871E+02 0.  0.
        -13    1    3    3    0    0 -0.70438971046E+01  0.70993202432E+01 -0.50994984416E+01  0.11226437154E+02  0.10570000000E+00 0. -1.
         13    1    3    3    0    0  0.70438971046E+01 -0.70993202432E+01 -0.51273617754E+01  0.11239121211E+02  0.10570000000E+00 0.  1.
<mgrwt>
<rscale>  0 0.20002816E+02</rscale>
<asrwt>0</asrwt>
<pdfrwt beam="2">  1        2 0.25148014E-02 0.20002816E+02</pdfrwt>
<pdfrwt beam="1">  1       -2 0.94143832E-03 0.20002816E+02</pdfrwt>
<totfact> 0.40958104E+06</totfact>
</mgrwt>
</event>
<event>
 4    1  0.1607476E-006  0.2001627E+02  0.7818608E-02  0.1745005E+00
          2   -1    0    0  501    0  0.00000000000E+00  0.00000000000E+00  0.11603703070E+02  0.11603703362E+02  0.26000000000E-02 0. -1.
         -2   -1    0    0    0  501 -0.00000000000E+00 -0.00000000000E+00 -0.86319640471E+01  0.86319644387E+01  0.26000000000E-02 0.  1.
        -13    1    1    2    0    0  0.82111067678E+01 -0.57206702617E+01  0.14283286754E+01  0.10109383655E+02  0.10570000000E+00 0.  1.
         13    1    1    2    0    0 -0.82111067678E+01  0.57206702617E+01  0.15434103480E+01  0.10126284145E+02  0.10570000000E+00 0. -1.
<mgrwt>
<rscale>  0 0.20016269E+02</rscale>
<asrwt>0</asrwt>
<pdfrwt beam="1">  1        2 0.17851851E-02 0.20016269E+02</pdfrwt>
<pdfrwt beam="2">  1       -2 0.13279945E-02 0.20016269E+02</pdfrwt>
<totfact> 0.39824806E+06</totfact>
</mgrwt>
</event>
<event>
 5    1  0.1607476E-006  0.2000117E+02  0.7818608E-02  0.1745305E+00
          2   -1    0    0  501    0  0.00000000000E+00  0.00000000000E+00  0.24120570030E+01  0.24120584043E+01  0.26000000000E-02 0.  1.
         -2   -1    0    0    0  501 -0.00000000000E+00 -0.00000000000E+00 -0.41463236249E+02  0.41463236330E+02  0.26000000000E-02 0. -1.
       1023    2    1    2    0    0  0.00000000000E+00  0.00000000000E+00 -0.39051179246E+02  0.43875294735E+02  0.20001172155E+02 0.  0.
        -13    1    3    3    0    0 -0.99181235996E+01 -0.12772222591E+01 -0.19506345116E+02  0.21920518806E+02  0.10570000000E+00 0.  1.
         13    1    3    3    0    0  0.99181235996E+01  0.12772222591E+01 -0.19544834130E+02  0.21954775929E+02  0.10570000000E+00 0. -1.
<mgrwt>
<rscale>  0 0.20001172E+02</rscale>
<asrwt>0</asrwt>
<pdfrwt beam="1">  1        2 0.37108584E-03 0.20001172E+02</pdfrwt>
<pdfrwt beam="2">  1       -2 0.63789590E-02 0.20001172E+02</pdfrwt>
<totfact> 0.34760141E+06</totfact>
</mgrwt>
</event>
<event>
 5    1  0.1607476E-006  0.2000924E+02  0.7818608E-02  0.1745144E+00
         -2   -1    0    0    0  501 -0.00000000000E+00  0.00000000000E+00  0.11702912497E+03  0.11702912500E+03  0.26000000000E-02 0. -1.
          2   -1    0    0  501    0  0.00000000000E+00 -0.00000000000E+00 -0.85527556109E+00  0.85527951302E+00  0.26000000000E-02 0.  1.
       1023    2    1    2    0    0  0.00000000000E+00  0.00000000000E+00  0.11617384941E+03  0.11788440451E+03  0.20009236383E+02 0.  0.
        -13    1    3    3    0    0  0.22573424390E+01 -0.97434191917E+01  0.59422623091E+02  0.60258519066E+02  0.10570000000E+00 0.  1.
         13    1    3    3    0    0 -0.22573424390E+01  0.97434191917E+01  0.56751226316E+02  0.57625885445E+02  0.10570000000E+00 0. -1.
<mgrwt>
<rscale>  0 0.20009236E+02</rscale>
<asrwt>0</asrwt>
<pdfrwt beam="2">  1        2 0.13158115E-03 0.20009236E+02</pdfrwt>
<pdfrwt beam="1">  1       -2 0.18004483E-01 0.20009236E+02</pdfrwt>
<totfact> 0.28511098E+06</totfact>
</mgrwt>
</event>
<event>
 5    1  0.1607476E-006  0.2000202E+02  0.7818608E-02  0.1745288E+00
          2   -1    0    0  501    0  0.00000000000E+00  0.00000000000E+00  0.29825005372E+01  0.29825016705E+01  0.26000000000E-02 0.  1.
         -2   -1    0    0    0  501 -0.00000000000E+00 -0.00000000000E+00 -0.33535681229E+02  0.33535681330E+02  0.26000000000E-02 0. -1.
       1023    2    1    2    0    0  0.00000000000E+00  0.00000000000E+00 -0.30553180692E+02  0.36518183000E+02  0.20002020879E+02 0.  0.
        -13    1    3    3    0    0 -0.96851838579E+01  0.24906150844E+01 -0.15175144029E+02  0.18174215764E+02  0.10570000000E+00 0.  1.
         13    1    3    3    0    0  0.96851838579E+01 -0.24906150844E+01 -0.15378036663E+02  0.18343967236E+02  0.10570000000E+00 0. -1.
<mgrwt>
<rscale>  0 0.20002021E+02</rscale>
<asrwt>0</asrwt>
<pdfrwt beam="1">  1        2 0.45884635E-03 0.20002021E+02</pdfrwt>
<pdfrwt beam="2">  1       -2 0.51593354E-02 0.20002021E+02</pdfrwt>
<totfact> 0.35633707E+06</totfact>
</mgrwt>
</event>
<event>
 5    1  0.1607476E-006  0.2000273E+02  0.7818608E-02  0.1745274E+00
         -2   -1    0    0    0  501 -0.00000000000E+00  0.00000000000E+00  0.10293624419E+02  0.10293624747E+02  0.26000000000E-02 0.  1.
          2   -1    0    0  501    0  0.00000000000E+00 -0.00000000000E+00 -0.97173982458E+01  0.97173985936E+01  0.26000000000E-02 0. -1.
       1023    2    1    2    0    0  0.00000000000E+00  0.00000000000E+00  0.57622617289E+00  0.20011023341E+02  0.20002725278E+02 0.  0.
        -13    1    3    3    0    0 -0.87775778264E+01  0.47921950397E+01  0.21683502753E+00  0.10003459187E+02  0.10570000000E+00 0.  1.
         13    1    3    3    0    0  0.87775778264E+01 -0.47921950397E+01  0.35939114536E+00  0.10007564153E+02  0.10570000000E+00 0. -1.
<mgrwt>
<rscale>  0 0.20002725E+02</rscale>
<asrwt>0</asrwt>
<pdfrwt beam="2">  1        2 0.14949844E-02 0.20002725E+02</pdfrwt>
<pdfrwt beam="1">  1       -2 0.15836346E-02 0.20002725E+02</pdfrwt>
<totfact> 0.39368143E+06</totfact>
</mgrwt>
</event>
<event>
 4    1  0.1607476E-006  0.2001498E+02  0.7818608E-02  0.1745030E+00
         -2   -1    0    0    0  501 -0.00000000000E+00  0.00000000000E+00  0.72574395889E+02  0.72574395936E+02  0.26000000000E-02 0.  1.
          2   -1    0    0  501    0  0.00000000000E+00 -0.00000000000E+00 -0.13799594486E+01  0.13799618980E+01  0.26000000000E-02 0. -1.
        -13    1    1    2    0    0  0.63984753957E+01  0.76934142914E+01  0.35957969027E+02  0.37324466773E+02  0.10570000000E+00 0.  1.
         13    1    1    2    0    0 -0.63984753957E+01 -0.76934142914E+01  0.35236467414E+02  0.36629891061E+02  0.10570000000E+00 0. -1.
<mgrwt>
<rscale>  0 0.20014976E+02</rscale>
<asrwt>0</asrwt>
<pdfrwt beam="2">  1        2 0.21230162E-03 0.20014976E+02</pdfrwt>
<pdfrwt beam="1">  1       -2 0.11165293E-01 0.20014976E+02</pdfrwt>
<totfact> 0.31814153E+06</totfact>
</mgrwt>
</event>
<event>
 5    1  0.1607476E-006  0.2000342E+02  0.7818608E-02  0.1745260E+00
          2   -1    0    0  501    0  0.00000000000E+00  0.00000000000E+00  0.17052123261E+02  0.17052123460E+02  0.26000000000E-02 0. -1.
         -2   -1    0    0    0  501 -0.00000000000E+00 -0.00000000000E+00 -0.58663797588E+01  0.58663803349E+01  0.26000000000E-02 0.  1.
       1023    2    1    2    0    0  0.00000000000E+00  0.00000000000E+00  0.11185743503E+02  0.22918503794E+02  0.20003423669E+02 0.  0.
        -13    1    3    3    0    0 -0.55375818182E+01  0.83280880154E+01  0.55531041998E+01  0.11439842706E+02  0.10570000000E+00 0.  1.
         13    1    3    3    0    0  0.55375818182E+01 -0.83280880154E+01  0.56326393027E+01  0.11478661089E+02  0.10570000000E+00 0. -1.
<mgrwt>
<rscale>  0 0.20003424E+02</rscale>
<asrwt>0</asrwt>
<pdfrwt beam="1">  1        2 0.26234036E-02 0.20003424E+02</pdfrwt>
<pdfrwt beam="2">  1       -2 0.90252002E-03 0.20003424E+02</pdfrwt>
<totfact> 0.41097694E+06</totfact>
</mgrwt>
</event>
<event>
 5    1  0.1607476E-006  0.2000470E+02  0.7818608E-02  0.1745235E+00
          2   -1    0    0  501    0  0.00000000000E+00  0.00000000000E+00  0.23646350725E+01  0.23646365019E+01  0.26000000000E-02 0. -1.
         -2   -1    0    0    0  501 -0.00000000000E+00 -0.00000000000E+00 -0.42309679996E+02  0.42309680076E+02  0.26000000000E-02 0.  1.
       1023    2    1    2    0    0  0.00000000000E+00  0.00000000000E+00 -0.39945044924E+02  0.44674316578E+02  0.20004698142E+02 0.  0.
        -13    1    3    3    0    0 -0.99696674612E+01  0.79288654061E+00 -0.20225929121E+02  0.22563739044E+02  0.10570000000E+00 0. -1.
         13    1    3    3    0    0  0.99696674612E+01 -0.79288654061E+00 -0.19719115803E+02  0.22110577534E+02  0.10570000000E+00 0.  1.
<mgrwt>
<rscale>  0 0.20004698E+02</rscale>
<asrwt>0</asrwt>
<pdfrwt beam="1">  1        2 0.36379016E-03 0.20004698E+02</pdfrwt>
<pdfrwt beam="2">  1       -2 0.65091811E-02 0.20004698E+02</pdfrwt>
<totfact> 0.34657710E+06</totfact>
</mgrwt>
</event>
<event>
 5    1  0.1607476E-006  0.2000298E+02  0.7818608E-02  0.1745269E+00
         -2   -1    0    0    0  501 -0.00000000000E+00  0.00000000000E+00  0.14578750417E+02  0.14578750649E+02  0.26000000000E-02 0. -1.
          2   -1    0    0  501    0  0.00000000000E+00 -0.00000000000E+00 -0.68613453185E+01  0.68613458112E+01  0.26000000000E-02 0.  1.
       1023    2    1    2    0    0  0.00000000000E+00  0.00000000000E+00  0.77174050986E+01  0.21440096460E+02  0.20002984646E+02 0.  0.
        -13    1    3    3    0    0 -0.79257707614E+01 -0.60992077287E+01  0.38347564258E+01  0.10711428776E+02  0.10570000000E+00 0. -1.
         13    1    3    3    0    0  0.79257707614E+01  0.60992077287E+01  0.38826486728E+01  0.10728667685E+02  0.10570000000E+00 0.  1.
<mgrwt>
<rscale>  0 0.20002985E+02</rscale>
<asrwt>0</asrwt>
<pdfrwt beam="2">  1        2 0.10555917E-02 0.20002985E+02</pdfrwt>
<pdfrwt beam="1">  1       -2 0.22428847E-02 0.20002985E+02</pdfrwt>
<totfact> 0.38368041E+06</totfact>
</mgrwt>
</event>
<event>
 5    1  0.1607476E-006  0.2000290E+02  0.7818608E-02  0.1745270E+00
         -2   -1    0    0    0  501 -0.00000000000E+00  0.00000000000E+00  0.11240682576E+02  0.11240682876E+02  0.26000000000E-02 0.  1.
          2   -1    0    0  501    0  0.00000000000E+00 -0.00000000000E+00 -0.88988349972E+01  0.88988353770E+01  0.26000000000E-02 0. -1.
       1023    2    1    2    0    0  0.00000000000E+00  0.00000000000E+00  0.23418475785E+01  0.20139518253E+02  0.20002898425E+02 0.  0.
        -13    1    3    3    0    0 -0.44181130489E+00 -0.99910616364E+01  0.12072814702E+01  0.10073986842E+02  0.10570000000E+00 0.  1.
         13    1    3    3    0    0  0.44181130489E+00  0.99910616364E+01  0.11345661082E+01  0.10065531412E+02  0.10570000000E+00 0. -1.
<mgrwt>
<rscale>  0 0.20002898E+02</rscale>
<asrwt>0</asrwt>
<pdfrwt beam="2">  1        2 0.13690516E-02 0.20002898E+02</pdfrwt>
<pdfrwt beam="1">  1       -2 0.17293358E-02 0.20002898E+02</pdfrwt>
<totfact> 0.39114772E+06</totfact>
</mgrwt>
</event>
<event>
 5    1  0.1607476E-006  0.2000265E+02  0.7818608E-02  0.1745275E+00
         -2   -1    0    0    0  501 -0.00000000000E+00  0.00000000000E+00  0.14748534840E+01  0.14748557758E+01  0.26000000000E-02 0.  1.
          2   -1    0    0  501    0  0.00000000000E+00 -0.00000000000E+00 -0.67821291491E+02  0.67821291541E+02  0.26000000000E-02 0. -1.
       1023    2    1    2    0    0  0.00000000000E+00  0.00000000000E+00 -0.66346438007E+02  0.69296147317E+02  0.20002654742E+02 0.  0.
        -13    1    3    3    0    0 -0.82407161037E+01 -0.56657514621E+01 -0.32922558239E+02  0.34408082699E+02  0.10570000000E+00 0.  1.
         13    1    3    3    0    0  0.82407161037E+01  0.56657514621E+01 -0.33423879768E+02  0.34888064617E+02  0.10570000000E+00 0. -1.
<mgrwt>
<rscale>  0 0.20002655E+02</rscale>
<asrwt>0</asrwt>
<pdfrwt beam="2">  1        2 0.10434043E-01 0.20002655E+02</pdfrwt>
<pdfrwt beam="1">  1       -2 0.22690077E-03 0.20002655E+02</pdfrwt>
<totfact> 0.48721175E+06</totfact>
</mgrwt>
</event>
<event>
 5    1  0.1607476E-006  0.2000175E+02  0.7818608E-02  0.1745293E+00
          2   -1    0    0  501    0  0.00000000000E+00  0.00000000000E+00  0.15752579971E+01  0.15752601428E+01  0.26000000000E-02 0. -1.
         -2   -1    0    0    0  501 -0.00000000000E+00 -0.00000000000E+00 -0.63492718173E+02  0.63492718226E+02  0.26000000000E-02 0.  1.
       1023    2    1    2    0    0  0.00000000000E+00  0.00000000000E+00 -0.61917460176E+02  0.65067978369E+02  0.20001748283E+02 0.  0.
        -13    1    3    3    0    0 -0.79372396784E+01  0.60832279557E+01 -0.31054960491E+02  0.32625560220E+02  0.10570000000E+00 0.  1.
         13    1    3    3    0    0  0.79372396784E+01 -0.60832279557E+01 -0.30862499684E+02  0.32442418149E+02  0.10570000000E+00 0. -1.
<mgrwt>
<rscale>  0 0.20001748E+02</rscale>
<asrwt>0</asrwt>
<pdfrwt beam="1">  1        2 0.24234760E-03 0.20001748E+02</pdfrwt>
<pdfrwt beam="2">  1       -2 0.97681087E-02 0.20001748E+02</pdfrwt>
<totfact> 0.32641005E+06</totfact>
</mgrwt>
</event>
<event>
 5    1  0.1672595E-006  0.2000214E+02  0.7818608E-02  0.1745285E+00
          2   -1    0    0  501    0  0.00000000000E+00  0.00000000000E+00  0.10379365369E+03  0.10379365372E+03  0.26000000000E-02 0. -1.
         -2   -1    0    0    0  501 -0.00000000000E+00 -0.00000000000E+00 -0.96365473881E+00  0.96365824628E+00  0.26000000000E-02 0.  1.
       1023    2    1    2    0    0  0.00000000000E+00  0.00000000000E+00  0.10282999895E+03  0.10475731197E+03  0.20002143051E+02 0.  0.
        -13    1    3    3    0    0  0.16135554980E+01 -0.98693013414E+01  0.51101247901E+02  0.52070676776E+02  0.10570000000E+00 0.  1.
         13    1    3    3    0    0 -0.16135554980E+01  0.98693013414E+01  0.51728751051E+02  0.52686635194E+02  0.10570000000E+00 0. -1.
<mgrwt>
<rscale>  0 0.20002143E+02</rscale>
<asrwt>0</asrwt>
<pdfrwt beam="1">  1        2 0.15968243E-01 0.20002143E+02</pdfrwt>
<pdfrwt beam="2">  1       -2 0.14825496E-03 0.20002143E+02</pdfrwt>
<totfact> 0.53197446E+06</totfact>
</mgrwt>
</event>
<event>
 5    1  0.1607476E-006  0.2000532E+02  0.7818608E-02  0.1745222E+00
          2   -1    0    0  501    0  0.00000000000E+00  0.00000000000E+00  0.12854095814E+01  0.12854122109E+01  0.26000000000E-02 0. -1.
         -2   -1    0    0    0  501 -0.00000000000E+00 -0.00000000000E+00 -0.77837544456E+02  0.77837544499E+02  0.26000000000E-02 0.  1.
       1023    2    1    2    0    0  0.00000000000E+00  0.00000000000E+00 -0.76552134874E+02  0.79122956710E+02  0.20005322410E+02 0.  0.
        -13    1    3    3    0    0 -0.81217986026E+01 -0.58374708769E+01 -0.38469014257E+02  0.39748156048E+02  0.10570000000E+00 0.  1.
         13    1    3    3    0    0  0.81217986026E+01  0.58374708769E+01 -0.38083120617E+02  0.39374800663E+02  0.10570000000E+00 0. -1.
<mgrwt>
<rscale>  0 0.20005322E+02</rscale>
<asrwt>0</asrwt>
<pdfrwt beam="1">  1        2 0.19775559E-03 0.20005322E+02</pdfrwt>
<pdfrwt beam="2">  1       -2 0.11975003E-01 0.20005322E+02</pdfrwt>
<totfact> 0.31414113E+06</totfact>
</mgrwt>
</event>
<event>
 5    1  0.2951825E-006  0.2000211E+02  0.7818608E-02  0.1745286E+00
          2   -1    0    0  501    0  0.00000000000E+00  0.00000000000E+00  0.11189447629E+03  0.11189447632E+03  0.26000000000E-02 0.  1.
         -2   -1    0    0    0  501 -0.00000000000E+00 -0.00000000000E+00 -0.89388543478E+00  0.89388921601E+00  0.26000000000E-02 0. -1.
       1023    2    1    2    0    0  0.00000000000E+00  0.00000000000E+00  0.11100059086E+03  0.11278836554E+03  0.20002105642E+02 0.  0.
        -13    1    3    3    0    0 -0.74591673529E+01 -0.66611306069E+01  0.55461851205E+02  0.56356347914E+02  0.10570000000E+00 0.  1.
         13    1    3    3    0    0  0.74591673529E+01  0.66611306069E+01  0.55538739652E+02  0.56432017624E+02  0.10570000000E+00 0. -1.
<mgrwt>
<rscale>  0 0.20002106E+02</rscale>
<asrwt>0</asrwt>
<pdfrwt beam="1">  1        2 0.17214536E-01 0.20002106E+02</pdfrwt>
<pdfrwt beam="2">  1       -2 0.13752113E-03 0.20002106E+02</pdfrwt>
<totfact> 0.54147507E+06</totfact>
</mgrwt>
</event>
<event>
 4    1  0.1607476E-006  0.2026146E+02  0.7818608E-02  0.1740178E+00
         -2   -1    0    0    0  501 -0.00000000000E+00  0.00000000000E+00  0.89318261130E+02  0.89318261168E+02  0.26000000000E-02 0. -1.
          2   -1    0    0  501    0  0.00000000000E+00 -0.00000000000E+00 -0.11490542131E+01  0.11490571547E+01  0.26000000000E-02 0.  1.
        -13    1    1    2    0    0  0.28761135822E+01  0.95963420382E+01  0.50794998402E+02  0.51773592159E+02  0.10570000000E+00 0. -1.
         13    1    1    2    0    0 -0.28761135822E+01 -0.95963420382E+01  0.37374208515E+02  0.38693726164E+02  0.10570000000E+00 0.  1.
<mgrwt>
<rscale>  0 0.20261457E+02</rscale>
<asrwt>0</asrwt>
<pdfrwt beam="2">  1        2 0.17677779E-03 0.20261457E+02</pdfrwt>
<pdfrwt beam="1">  1       -2 0.13741272E-01 0.20261457E+02</pdfrwt>
<totfact> 0.29673386E+06</totfact>
</mgrwt>
</event>
<event>
 5    1  0.1607476E-006  0.2000188E+02  0.7818608E-02  0.1745291E+00
         -2   -1    0    0    0  501 -0.00000000000E+00  0.00000000000E+00  0.64876814443E+01  0.64876819653E+01  0.26000000000E-02 0.  1.
          2   -1    0    0  501    0  0.00000000000E+00 -0.00000000000E+00 -0.15416720140E+02  0.15416720360E+02  0.26000000000E-02 0. -1.
       1023    2    1    2    0    0  0.00000000000E+00  0.00000000000E+00 -0.89290386960E+01  0.21904402325E+02  0.20001877641E+02 0.  0.
        -13    1    3    3    0    0 -0.12952847652E+01  0.99160527715E+01 -0.45101952324E+01  0.10970820330E+02  0.10570000000E+00 0.  1.
         13    1    3    3    0    0  0.12952847652E+01 -0.99160527715E+01 -0.44188434636E+01  0.10933581995E+02  0.10570000000E+00 0. -1.
<mgrwt>
<rscale>  0 0.20001878E+02</rscale>
<asrwt>0</asrwt>
<pdfrwt beam="2">  1        2 0.23718031E-02 0.20001878E+02</pdfrwt>
<pdfrwt beam="1">  1       -2 0.99810490E-03 0.20001878E+02</pdfrwt>
<totfact> 0.40769584E+06</totfact>
</mgrwt>
</event>
<event>
 4    1  0.1607476E-006  0.2223296E+02  0.7818608E-02  0.1704254E+00
          2   -1    0    0  501    0  0.00000000000E+00  0.00000000000E+00  0.53146596206E+02  0.53146596270E+02  0.26000000000E-02 0.  1.
         -2   -1    0    0    0  501 -0.00000000000E+00 -0.00000000000E+00 -0.23251930713E+01  0.23251945249E+01  0.26000000000E-02 0. -1.
        -13    1    1    2    0    0  0.10562309078E+02 -0.33545947378E+01  0.27570430528E+02  0.29714566982E+02  0.10570000000E+00 0. -1.
         13    1    1    2    0    0 -0.10562309078E+02  0.33545947378E+01  0.23250972607E+02  0.25757223813E+02  0.10570000000E+00 0.  1.
<mgrwt>
<rscale>  0 0.22232961E+02</rscale>
<asrwt>0</asrwt>
<pdfrwt beam="1">  1        2 0.81763986E-02 0.22232961E+02</pdfrwt>
<pdfrwt beam="2">  1       -2 0.35772217E-03 0.22232961E+02</pdfrwt>
<totfact> 0.36862344E+06</totfact>
</mgrwt>
</event>
<event>
 4    1  0.1607476E-006  0.2001410E+02  0.7818608E-02  0.1745048E+00
         -2   -1    0    0    0  501 -0.00000000000E+00  0.00000000000E+00  0.79802982794E+01  0.79802987029E+01  0.26000000000E-02 0. -1.
          2   -1    0    0  501    0  0.00000000000E+00 -0.00000000000E+00 -0.12548531899E+02  0.12548532168E+02  0.26000000000E-02 0.  1.
        -13    1    1    2    0    0 -0.97746299604E+01  0.21309635813E+01 -0.25028270635E+01  0.10313084526E+02  0.10570000000E+00 0.  1.
         13    1    1    2    0    0  0.97746299604E+01 -0.21309635813E+01 -0.20654065556E+01  0.10215746345E+02  0.10570000000E+00 0. -1.
<mgrwt>
<rscale>  0 0.20014098E+02</rscale>
<asrwt>0</asrwt>
<pdfrwt beam="2">  1        2 0.19305434E-02 0.20014098E+02</pdfrwt>
<pdfrwt beam="1">  1       -2 0.12277383E-02 0.20014098E+02</pdfrwt>
<totfact> 0.40069158E+06</totfact>
</mgrwt>
</event>
<event>
 5    1  0.1607476E-006  0.2000268E+02  0.7818608E-02  0.1745275E+00
          2   -1    0    0  501    0  0.00000000000E+00  0.00000000000E+00  0.92850513953E+00  0.92850877979E+00  0.26000000000E-02 0.  1.
         -2   -1    0    0    0  501 -0.00000000000E+00 -0.00000000000E+00 -0.10772865836E+03  0.10772865839E+03  0.26000000000E-02 0. -1.
       1023    2    1    2    0    0  0.00000000000E+00  0.00000000000E+00 -0.10680015322E+03  0.10865716717E+03  0.20002681064E+02 0.  0.
        -13    1    3    3    0    0 -0.48532365162E+01 -0.87437958773E+01 -0.53878872623E+02  0.54799196697E+02  0.10570000000E+00 0. -1.
         13    1    3    3    0    0  0.48532365162E+01  0.87437958773E+01 -0.52921280599E+02  0.53857970476E+02  0.10570000000E+00 0.  1.
<mgrwt>
<rscale>  0 0.20002681E+02</rscale>
<asrwt>0</asrwt>
<pdfrwt beam="1">  1        2 0.14284731E-03 0.20002681E+02</pdfrwt>
<pdfrwt beam="2">  1       -2 0.16573630E-01 0.20002681E+02</pdfrwt>
<totfact> 0.29170391E+06</totfact>
</mgrwt>
</event>
<event>
 5    1  0.1607476E-006  0.2000431E+02  0.7818608E-02  0.1745242E+00
         -2   -1    0    0    0  501 -0.00000000000E+00  0.00000000000E+00  0.63985560562E+01  0.63985565845E+01  0.26000000000E-02 0. -1.
          2   -1    0    0  501    0  0.00000000000E+00 -0.00000000000E+00 -0.15635261819E+02  0.15635262035E+02  0.26000000000E-02 0.  1.
       1023    2    1    2    0    0  0.00000000000E+00  0.00000000000E+00 -0.92367057624E+01  0.22033818619E+02  0.20004310276E+02 0.  0.
        -13    1    3    3    0    0 -0.38815474501E+01 -0.92168632488E+01 -0.44836502176E+01  0.10960441164E+02  0.10570000000E+00 0.  1.
         13    1    3    3    0    0  0.38815474501E+01  0.92168632488E+01 -0.47530555448E+01  0.11073377455E+02  0.10570000000E+00 0. -1.
<mgrwt>
<rscale>  0 0.20004310E+02</rscale>
<asrwt>0</asrwt>
<pdfrwt beam="2">  1        2 0.24054249E-02 0.20004310E+02</pdfrwt>
<pdfrwt beam="1">  1       -2 0.98439330E-03 0.20004310E+02</pdfrwt>
<totfact> 0.40804285E+06</totfact>
</mgrwt>
</event>
<event>
 5    1  0.1607476E-006  0.2000212E+02  0.7818608E-02  0.1745286E+00
         -2   -1    0    0    0  501 -0.00000000000E+00  0.00000000000E+00  0.10278782495E+03  0.10278782498E+03  0.26000000000E-02 0.  1.
          2   -1    0    0  501    0  0.00000000000E+00 -0.00000000000E+00 -0.97308225976E+00  0.97308573325E+00  0.26000000000E-02 0. -1.
       1023    2    1    2    0    0  0.00000000000E+00  0.00000000000E+00  0.10181474269E+03  0.10376091071E+03  0.20002118976E+02 0.  0.
        -13    1    3    3    0    0  0.81115234030E+01  0.58486026215E+01  0.50471687882E+02  0.51452943693E+02  0.10570000000E+00 0. -1.
         13    1    3    3    0    0 -0.81115234030E+01 -0.58486026215E+01  0.51343054805E+02  0.52307967020E+02  0.10570000000E+00 0.  1.
<mgrwt>
<rscale>  0 0.20002119E+02</rscale>
<asrwt>0</asrwt>
<pdfrwt beam="2">  1        2 0.14970519E-03 0.20002119E+02</pdfrwt>
<pdfrwt beam="1">  1       -2 0.15813517E-01 0.20002119E+02</pdfrwt>
<totfact> 0.29522684E+06</totfact>
</mgrwt>
</event>
<event>
 4    1  0.1607476E-006  0.2043686E+02  0.7818608E-02  0.1736777E+00
          2   -1    0    0  501    0  0.00000000000E+00  0.00000000000E+00  0.25663006724E+01  0.25663019895E+01  0.26000000000E-02 0.  1.
         -2   -1    0    0    0  501 -0.00000000000E+00 -0.00000000000E+00 -0.40687488014E+02  0.40687488097E+02  0.26000000000E-02 0. -1.
        -13    1    1    2    0    0  0.85510489551E+01  0.55706774969E+01 -0.20123679213E+02  0.22563832200E+02  0.10570000000E+00 0.  1.
         13    1    1    2    0    0 -0.85510489551E+01 -0.55706774969E+01 -0.17997508129E+02  0.20689957887E+02  0.10570000000E+00 0. -1.
<mgrwt>
<rscale>  0 0.20436865E+02</rscale>
<asrwt>0</asrwt>
<pdfrwt beam="1">  1        2 0.39481562E-03 0.20436865E+02</pdfrwt>
<pdfrwt beam="2">  1       -2 0.62596132E-02 0.20436865E+02</pdfrwt>
<totfact> 0.33237195E+06</totfact>
</mgrwt>
</event>
<event>
 5    1  0.1607476E-006  0.2000664E+02  0.7818608E-02  0.1745196E+00
          2   -1    0    0  501    0  0.00000000000E+00  0.00000000000E+00  0.40920264237E+01  0.40920272497E+01  0.26000000000E-02 0. -1.
         -2   -1    0    0    0  501 -0.00000000000E+00 -0.00000000000E+00 -0.24453998298E+02  0.24453998437E+02  0.26000000000E-02 0.  1.
       1023    2    1    2    0    0  0.00000000000E+00  0.00000000000E+00 -0.20361971875E+02  0.28546025686E+02  0.20006640994E+02 0.  0.
        -13    1    3    3    0    0  0.85557851174E+00  0.99642451774E+01 -0.10455634217E+02  0.14468920344E+02  0.10570000000E+00 0. -1.
         13    1    3    3    0    0 -0.85557851174E+00 -0.99642451774E+01 -0.99063376580E+01  0.14077105343E+02  0.10570000000E+00 0.  1.
<mgrwt>
<rscale>  0 0.20006641E+02</rscale>
<asrwt>0</asrwt>
<pdfrwt beam="1">  1        2 0.62954262E-03 0.20006641E+02</pdfrwt>
<pdfrwt beam="2">  1       -2 0.37621536E-02 0.20006641E+02</pdfrwt>
<totfact> 0.36756949E+06</totfact>
</mgrwt>
</event>
<event>
 5    1  0.1607476E-006  0.2000932E+02  0.7818608E-02  0.1745143E+00
          2   -1    0    0  501    0  0.00000000000E+00  0.00000000000E+00  0.28821659555E+01  0.28821671282E+01  0.26000000000E-02 0.  1.
         -2   -1    0    0    0  501 -0.00000000000E+00 -0.00000000000E+00 -0.34728447360E+02  0.34728447458E+02  0.26000000000E-02 0. -1.
       1023    2    1    2    0    0  0.00000000000E+00  0.00000000000E+00 -0.31846281405E+02  0.37610614586E+02  0.20009315086E+02 0.  0.
        -13    1    3    3    0    0  0.49521253103E+01 -0.86924329825E+01 -0.15908124746E+02  0.18792592734E+02  0.10570000000E+00 0.  1.
         13    1    3    3    0    0 -0.49521253103E+01  0.86924329825E+01 -0.15938156659E+02  0.18818021852E+02  0.10570000000E+00 0. -1.
<mgrwt>
<rscale>  0 0.20009315E+02</rscale>
<asrwt>0</asrwt>
<pdfrwt beam="1">  1        2 0.44341027E-03 0.20009315E+02</pdfrwt>
<pdfrwt beam="2">  1       -2 0.53428379E-02 0.20009315E+02</pdfrwt>
<totfact> 0.35467879E+06</totfact>
</mgrwt>
</event>
<event>
 5    1  0.1607476E-006  0.2000374E+02  0.7818608E-02  0.1745254E+00
         -2   -1    0    0    0  501 -0.00000000000E+00  0.00000000000E+00  0.23973215051E+01  0.23973229150E+01  0.26000000000E-02 0. -1.
          2   -1    0    0  501    0  0.00000000000E+00 -0.00000000000E+00 -0.41728827607E+02  0.41728827688E+02  0.26000000000E-02 0.  1.
       1023    2    1    2    0    0  0.00000000000E+00  0.00000000000E+00 -0.39331506102E+02  0.44126150603E+02  0.20003744519E+02 0.  0.
        -13    1    3    3    0    0  0.96434427879E+01 -0.26513591188E+01 -0.19718979950E+02  0.22110518690E+02  0.10570000000E+00 0.  1.
         13    1    3    3    0    0 -0.96434427879E+01  0.26513591188E+01 -0.19612526151E+02  0.22015631913E+02  0.10570000000E+00 0. -1.
<mgrwt>
<rscale>  0 0.20003745E+02</rscale>
<asrwt>0</asrwt>
<pdfrwt beam="2">  1        2 0.64198192E-02 0.20003745E+02</pdfrwt>
<pdfrwt beam="1">  1       -2 0.36881884E-03 0.20003745E+02</pdfrwt>
<totfact> 0.45130408E+06</totfact>
</mgrwt>
</event>
<event>
 5    1  0.1607476E-006  0.2000264E+02  0.7818608E-02  0.1745276E+00
         -2   -1    0    0    0  501 -0.00000000000E+00  0.00000000000E+00  0.10418263991E+03  0.10418263994E+03  0.26000000000E-02 0. -1.
          2   -1    0    0  501    0  0.00000000000E+00 -0.00000000000E+00 -0.96010441373E+00  0.96010793418E+00  0.26000000000E-02 0.  1.
       1023    2    1    2    0    0  0.00000000000E+00  0.00000000000E+00  0.10322253549E+03  0.10514274787E+03  0.20002639745E+02 0.  0.
        -13    1    3    3    0    0 -0.95115772376E+01  0.30894682118E+01  0.51704013784E+02  0.52662426162E+02  0.10570000000E+00 0.  1.
         13    1    3    3    0    0  0.95115772376E+01 -0.30894682118E+01  0.51518521709E+02  0.52480321712E+02  0.10570000000E+00 0. -1.
<mgrwt>
<rscale>  0 0.20002640E+02</rscale>
<asrwt>0</asrwt>
<pdfrwt beam="2">  1        2 0.14770872E-03 0.20002640E+02</pdfrwt>
<pdfrwt beam="1">  1       -2 0.16028091E-01 0.20002640E+02</pdfrwt>
<totfact> 0.29421301E+06</totfact>
</mgrwt>
</event>
<event>
 5    1  0.1607476E-006  0.2000150E+02  0.7818608E-02  0.1745298E+00
         -2   -1    0    0    0  501 -0.00000000000E+00  0.00000000000E+00  0.90135050850E+01  0.90135054600E+01  0.26000000000E-02 0.  1.
          2   -1    0    0  501    0  0.00000000000E+00 -0.00000000000E+00 -0.11096121623E+02  0.11096121927E+02  0.26000000000E-02 0. -1.
       1023    2    1    2    0    0  0.00000000000E+00  0.00000000000E+00 -0.20826165378E+01  0.20109627387E+02  0.20001495495E+02 0.  0.
        -13    1    3    3    0    0 -0.29574672172E+01 -0.95527277795E+01 -0.99041201548E+00  0.10049542717E+02  0.10570000000E+00 0.  1.
         13    1    3    3    0    0  0.29574672172E+01  0.95527277795E+01 -0.10922045224E+01  0.10060084670E+02  0.10570000000E+00 0. -1.
<mgrwt>
<rscale>  0 0.20001495E+02</rscale>
<asrwt>0</asrwt>
<pdfrwt beam="2">  1        2 0.17070957E-02 0.20001495E+02</pdfrwt>
<pdfrwt beam="1">  1       -2 0.13866931E-02 0.20001495E+02</pdfrwt>
<totfact> 0.39759636E+06</totfact>
</mgrwt>
</event>
<event>
 5    1  0.1607476E-006  0.2000627E+02  0.7818608E-02  0.1745203E+00
         -2   -1    0    0    0  501 -0.00000000000E+00  0.00000000000E+00  0.48184204687E+02  0.48184204757E+02  0.26000000000E-02 0.  1.
          2   -1    0    0  501    0  0.00000000000E+00 -0.00000000000E+00 -0.20766689942E+01  0.20766706219E+01  0.26000000000E-02 0. -1.
       1023    2    1    2    0    0  0.00000000000E+00  0.00000000000E+00  0.46107535693E+02  0.50260875379E+02  0.20006267673E+02 0.  0.
        -13    1    3    3    0    0  0.31217991031E-01 -0.10002428285E+02  0.22942321612E+02  0.25028200886E+02  0.10570000000E+00 0. -1.
         13    1    3    3    0    0 -0.31217991031E-01  0.10002428285E+02  0.23165214081E+02  0.25232674493E+02  0.10570000000E+00 0.  1.
<mgrwt>
<rscale>  0 0.20006268E+02</rscale>
<asrwt>0</asrwt>
<pdfrwt beam="2">  1        2 0.31948768E-03 0.20006268E+02</pdfrwt>
<pdfrwt beam="1">  1       -2 0.74129543E-02 0.20006268E+02</pdfrwt>
<totfact> 0.34053888E+06</totfact>
</mgrwt>
</event>
<event>
 5    1  0.1607476E-006  0.2000780E+02  0.7818608E-02  0.1745173E+00
         -2   -1    0    0    0  501 -0.00000000000E+00  0.00000000000E+00  0.95478662823E+00  0.95479016828E+00  0.26000000000E-02 0. -1.
          2   -1    0    0  501    0  0.00000000000E+00 -0.00000000000E+00 -0.10481700464E+03  0.10481700467E+03  0.26000000000E-02 0.  1.
       1023    2    1    2    0    0  0.00000000000E+00  0.00000000000E+00 -0.10386221801E+03  0.10577179484E+03  0.20007804813E+02 0.  0.
        -13    1    3    3    0    0 -0.90122433795E+01 -0.43411545899E+01 -0.51787594952E+02  0.52744974332E+02  0.10570000000E+00 0. -1.
         13    1    3    3    0    0  0.90122433795E+01  0.43411545899E+01 -0.52074623055E+02  0.53026820504E+02  0.10570000000E+00 0.  1.
<mgrwt>
<rscale>  0 0.20007805E+02</rscale>
<asrwt>0</asrwt>
<pdfrwt beam="2">  1        2 0.16125684E-01 0.20007805E+02</pdfrwt>
<pdfrwt beam="1">  1       -2 0.14689061E-03 0.20007805E+02</pdfrwt>
<totfact> 0.53285228E+06</totfact>
</mgrwt>
</event>
<event>
 4    1  0.1607476E-006  0.2003156E+02  0.7818608E-02  0.1744701E+00
          2   -1    0    0  501    0  0.00000000000E+00  0.00000000000E+00  0.12008579007E+02  0.12008579288E+02  0.26000000000E-02 0.  1.
         -2   -1    0    0    0  501 -0.00000000000E+00 -0.00000000000E+00 -0.83536845400E+01  0.83536849446E+01  0.26000000000E-02 0. -1.
        -13    1    1    2    0    0  0.79656030255E+01  0.60543738999E+01  0.13746265325E+01  0.10099853735E+02  0.10570000000E+00 0.  1.
         13    1    1    2    0    0 -0.79656030255E+01 -0.60543738999E+01  0.22802679344E+01  0.10262410498E+02  0.10570000000E+00 0. -1.
<mgrwt>
<rscale>  0 0.20031564E+02</rscale>
<asrwt>0</asrwt>
<pdfrwt beam="1">  1        2 0.18474737E-02 0.20031564E+02</pdfrwt>
<pdfrwt beam="2">  1       -2 0.12851823E-02 0.20031564E+02</pdfrwt>
<totfact> 0.39857632E+06</totfact>
</mgrwt>
</event>
<event>
 5    1  0.1607476E-006  0.2000258E+02  0.7818608E-02  0.1745277E+00
         -2   -1    0    0    0  501 -0.00000000000E+00  0.00000000000E+00  0.83613110131E+01  0.83613114174E+01  0.26000000000E-02 0.  1.
          2   -1    0    0  501    0  0.00000000000E+00 -0.00000000000E+00 -0.11962936885E+02  0.11962937167E+02  0.26000000000E-02 0. -1.
       1023    2    1    2    0    0  0.00000000000E+00  0.00000000000E+00 -0.36016258715E+01  0.20324248585E+02  0.20002584123E+02 0.  0.
        -13    1    3    3    0    0 -0.59732771890E+01 -0.80205774740E+01 -0.18724233756E+01  0.10174814258E+02  0.10570000000E+00 0. -1.
         13    1    3    3    0    0  0.59732771890E+01  0.80205774740E+01 -0.17292024958E+01  0.10149434327E+02  0.10570000000E+00 0.  1.
<mgrwt>
<rscale>  0 0.20002584E+02</rscale>
<asrwt>0</asrwt>
<pdfrwt beam="2">  1        2 0.18404519E-02 0.20002584E+02</pdfrwt>
<pdfrwt beam="1">  1       -2 0.12863556E-02 0.20002584E+02</pdfrwt>
<totfact> 0.39977718E+06</totfact>
</mgrwt>
</event>
<event>
 4    1  0.1607476E-006  0.2001586E+02  0.7818608E-02  0.1745013E+00
         -2   -1    0    0    0  501 -0.00000000000E+00  0.00000000000E+00  0.78358627368E+02  0.78358627411E+02  0.26000000000E-02 0.  1.
          2   -1    0    0  501    0  0.00000000000E+00 -0.00000000000E+00 -0.12782067077E+01  0.12782093520E+01  0.26000000000E-02 0. -1.
        -13    1    1    2    0    0  0.35659611874E+01  0.93503398319E+01  0.38340344501E+02  0.39624968430E+02  0.10570000000E+00 0. -1.
         13    1    1    2    0    0 -0.35659611874E+01 -0.93503398319E+01  0.38740076159E+02  0.40011868333E+02  0.10570000000E+00 0.  1.
<mgrwt>
<rscale>  0 0.20015857E+02</rscale>
<asrwt>0</asrwt>
<pdfrwt beam="2">  1        2 0.19664736E-03 0.20015857E+02</pdfrwt>
<pdfrwt beam="1">  1       -2 0.12055175E-01 0.20015857E+02</pdfrwt>
<totfact> 0.31335847E+06</totfact>
</mgrwt>
</event>
<event>
 4    1  0.1607476E-006  0.2001877E+02  0.7818608E-02  0.1744955E+00
          2   -1    0    0  501    0  0.00000000000E+00  0.00000000000E+00  0.17493354286E+02  0.17493354479E+02  0.26000000000E-02 0.  1.
         -2   -1    0    0    0  501 -0.00000000000E+00 -0.00000000000E+00 -0.57271923554E+01  0.57271929456E+01  0.26000000000E-02 0. -1.
        -13    1    1    2    0    0  0.95868184166E+01  0.28730794551E+01  0.57411666841E+01  0.11538363848E+02  0.10570000000E+00 0.  1.
         13    1    1    2    0    0 -0.95868184166E+01 -0.28730794551E+01  0.60249952464E+01  0.11682183577E+02  0.10570000000E+00 0. -1.
<mgrwt>
<rscale>  0 0.20018773E+02</rscale>
<asrwt>0</asrwt>
<pdfrwt beam="1">  1        2 0.26912853E-02 0.20018773E+02</pdfrwt>
<pdfrwt beam="2">  1       -2 0.88110658E-03 0.20018773E+02</pdfrwt>
<totfact> 0.41113825E+06</totfact>
</mgrwt>
</event>
<event>
 5    1  0.2522288E-006  0.2000310E+02  0.7818608E-02  0.1745266E+00
          2   -1    0    0  501    0  0.00000000000E+00  0.00000000000E+00  0.10906214764E+03  0.10906214767E+03  0.26000000000E-02 0. -1.
         -2   -1    0    0    0  501 -0.00000000000E+00 -0.00000000000E+00 -0.91719084268E+00  0.91719452784E+00  0.26000000000E-02 0.  1.
       1023    2    1    2    0    0  0.00000000000E+00  0.00000000000E+00  0.10814495679E+03  0.10997934220E+03  0.20003100504E+02 0.  0.
        -13    1    3    3    0    0 -0.99979206961E+01  0.24066033375E+00  0.54397719354E+02  0.55309487242E+02  0.10570000000E+00 0. -1.
         13    1    3    3    0    0  0.99979206961E+01 -0.24066033375E+00  0.53747237440E+02  0.54669854953E+02  0.10570000000E+00 0.  1.
<mgrwt>
<rscale>  0 0.20003101E+02</rscale>
<asrwt>0</asrwt>
<pdfrwt beam="1">  1        2 0.16778782E-01 0.20003101E+02</pdfrwt>
<pdfrwt beam="2">  1       -2 0.14110666E-03 0.20003101E+02</pdfrwt>
<totfact> 0.53811652E+06</totfact>
</mgrwt>
</event>
<event>
 5    1  0.1607476E-006  0.2000153E+02  0.7818608E-02  0.1745298E+00
          2   -1    0    0  501    0  0.00000000000E+00  0.00000000000E+00  0.85704026616E+02  0.85704026656E+02  0.26000000000E-02 0.  1.
         -2   -1    0    0    0  501 -0.00000000000E+00 -0.00000000000E+00 -0.11669834755E+01  0.11669863719E+01  0.26000000000E-02 0. -1.
       1023    2    1    2    0    0  0.00000000000E+00  0.00000000000E+00  0.84537043141E+02  0.86871013027E+02  0.20001530978E+02 0.  0.
        -13    1    3    3    0    0  0.96245164049E+01  0.27151700638E+01  0.42155817675E+02  0.43325830642E+02  0.10570000000E+00 0.  1.
         13    1    3    3    0    0 -0.96245164049E+01 -0.27151700638E+01  0.42381225466E+02  0.43545182385E+02  0.10570000000E+00 0. -1.
<mgrwt>
<rscale>  0 0.20001531E+02</rscale>
<asrwt>0</asrwt>
<pdfrwt beam="1">  1        2 0.13185231E-01 0.20001531E+02</pdfrwt>
<pdfrwt beam="2">  1       -2 0.17953620E-03 0.20001531E+02</pdfrwt>
<totfact> 0.51004901E+06</totfact>
</mgrwt>
</event>
<event>
 5    1  0.1607476E-006  0.2000549E+02  0.7818608E-02  0.1745219E+00
         -2   -1    0    0    0  501 -0.00000000000E+00  0.00000000000E+00  0.29851660331E+01  0.29851671653E+01  0.26000000000E-02 0. -1.
          2   -1    0    0  501    0  0.00000000000E+00 -0.00000000000E+00 -0.33517349075E+02  0.33517349176E+02  0.26000000000E-02 0.  1.
       1023    2    1    2    0    0  0.00000000000E+00  0.00000000000E+00 -0.30532183042E+02  0.36502516341E+02  0.20005486696E+02 0.  0.
        -13    1    3    3    0    0 -0.41420564903E+01  0.91034853332E+01 -0.15479071594E+02  0.18429403330E+02  0.10570000000E+00 0. -1.
         13    1    3    3    0    0  0.41420564903E+01 -0.91034853332E+01 -0.15053111448E+02  0.18073113012E+02  0.10570000000E+00 0.  1.
<mgrwt>
<rscale>  0 0.20005487E+02</rscale>
<asrwt>0</asrwt>
<pdfrwt beam="2">  1        2 0.51565151E-02 0.20005487E+02</pdfrwt>
<pdfrwt beam="1">  1       -2 0.45925643E-03 0.20005487E+02</pdfrwt>
<totfact> 0.43895419E+06</totfact>
</mgrwt>
</event>
<event>
 5    1  0.1607476E-006  0.2000261E+02  0.7818608E-02  0.1745276E+00
         -2   -1    0    0    0  501 -0.00000000000E+00  0.00000000000E+00  0.21225097663E+02  0.21225097822E+02  0.26000000000E-02 0. -1.
          2   -1    0    0  501    0  0.00000000000E+00 -0.00000000000E+00 -0.47126316895E+01  0.47126324068E+01  0.26000000000E-02 0.  1.
       1023    2    1    2    0    0  0.00000000000E+00  0.00000000000E+00  0.16512465973E+02  0.25937730229E+02  0.20002607753E+02 0.  0.
        -13    1    3    3    0    0 -0.58216728095E+01 -0.81312867029E+01  0.81626445579E+01  0.12909284892E+02  0.10570000000E+00 0. -1.
         13    1    3    3    0    0  0.58216728095E+01  0.81312867029E+01  0.83498214156E+01  0.13028445337E+02  0.10570000000E+00 0.  1.
<mgrwt>
<rscale>  0 0.20002608E+02</rscale>
<asrwt>0</asrwt>
<pdfrwt beam="2">  1        2 0.72502033E-03 0.20002608E+02</pdfrwt>
<pdfrwt beam="1">  1       -2 0.32653997E-02 0.20002608E+02</pdfrwt>
<totfact> 0.37235930E+06</totfact>
</mgrwt>
</event>
<event>
 5    1  0.1607476E-006  0.2000246E+02  0.7818608E-02  0.1745279E+00
         -2   -1    0    0    0  501 -0.00000000000E+00  0.00000000000E+00  0.27230386462E+02  0.27230386587E+02  0.26000000000E-02 0.  1.
          2   -1    0    0  501    0  0.00000000000E+00 -0.00000000000E+00 -0.36732721239E+01  0.36732730441E+01  0.26000000000E-02 0. -1.
       1023    2    1    2    0    0  0.00000000000E+00  0.00000000000E+00  0.23557114338E+02  0.30903659631E+02  0.20002463413E+02 0.  0.
        -13    1    3    3    0    0 -0.99790659352E+01 -0.65593840583E+00  0.11837409637E+02  0.15496691632E+02  0.10570000000E+00 0. -1.
         13    1    3    3    0    0  0.99790659352E+01  0.65593840583E+00  0.11719704702E+02  0.15406967999E+02  0.10570000000E+00 0.  1.
<mgrwt>
<rscale>  0 0.20002463E+02</rscale>
<asrwt>0</asrwt>
<pdfrwt beam="2">  1        2 0.56511889E-03 0.20002463E+02</pdfrwt>
<pdfrwt beam="1">  1       -2 0.41892901E-02 0.20002463E+02</pdfrwt>
<totfact> 0.36403896E+06</totfact>
</mgrwt>
</event>
<event>
 5    1  0.1607476E-006  0.2000148E+02  0.7818608E-02  0.1745299E+00
         -2   -1    0    0    0  501 -0.00000000000E+00  0.00000000000E+00  0.11506649537E+01  0.11506678911E+01  0.26000000000E-02 0.  1.
          2   -1    0    0  501    0  0.00000000000E+00 -0.00000000000E+00 -0.86918996525E+02  0.86918996564E+02  0.26000000000E-02 0. -1.
       1023    2    1    2    0    0  0.00000000000E+00  0.00000000000E+00 -0.85768331571E+02  0.88069664455E+02  0.20001477363E+02 0.  0.
        -13    1    3    3    0    0  0.50716444591E+01  0.86186149372E+01 -0.42713590879E+02  0.43868714584E+02  0.10570000000E+00 0. -1.
         13    1    3    3    0    0 -0.50716444591E+01 -0.86186149372E+01 -0.43054740692E+02  0.44200949871E+02  0.10570000000E+00 0.  1.
<mgrwt>
<rscale>  0 0.20001477E+02</rscale>
<asrwt>0</asrwt>
<pdfrwt beam="2">  1        2 0.13372148E-01 0.20001477E+02</pdfrwt>
<pdfrwt beam="1">  1       -2 0.17702567E-03 0.20001477E+02</pdfrwt>
<totfact> 0.51156033E+06</totfact>
</mgrwt>
</event>
<event>
 5    1  0.1607476E-006  0.2000656E+02  0.7818608E-02  0.1745198E+00
          2   -1    0    0  501    0  0.00000000000E+00  0.00000000000E+00  0.50665011233E+02  0.50665011300E+02  0.26000000000E-02 0.  1.
         -2   -1    0    0    0  501 -0.00000000000E+00 -0.00000000000E+00 -0.19750437292E+01  0.19750454406E+01  0.26000000000E-02 0. -1.
       1023    2    1    2    0    0  0.00000000000E+00  0.00000000000E+00  0.48689967504E+02  0.52640056741E+02  0.20006564875E+02 0.  0.
        -13    1    3    3    0    0 -0.79302838254E+01 -0.60950941268E+01  0.24666296059E+02  0.26617229528E+02  0.10570000000E+00 0.  1.
         13    1    3    3    0    0  0.79302838254E+01  0.60950941268E+01  0.24023671445E+02  0.26022827213E+02  0.10570000000E+00 0. -1.
<mgrwt>
<rscale>  0 0.20006565E+02</rscale>
<asrwt>0</asrwt>
<pdfrwt beam="1">  1        2 0.77946174E-02 0.20006565E+02</pdfrwt>
<pdfrwt beam="2">  1       -2 0.30385301E-03 0.20006565E+02</pdfrwt>
<totfact> 0.46386991E+06</totfact>
</mgrwt>
</event>
<event>
 4    1  0.1607476E-006  0.2003441E+02  0.7818608E-02  0.1744645E+00
          2   -1    0    0  501    0  0.00000000000E+00  0.00000000000E+00  0.81236180202E+01  0.81236184363E+01  0.26000000000E-02 0.  1.
         -2   -1    0    0    0  501 -0.00000000000E+00 -0.00000000000E+00 -0.12352177982E+02  0.12352178256E+02  0.26000000000E-02 0. -1.
        -13    1    1    2    0    0 -0.33972204017E+01 -0.94217452922E+01 -0.22686690228E+01  0.10269782005E+02  0.10570000000E+00 0.  1.
         13    1    1    2    0    0  0.33972204017E+01  0.94217452922E+01 -0.19598909393E+01  0.10206014687E+02  0.10570000000E+00 0. -1.
<mgrwt>
<rscale>  0 0.20034409E+02</rscale>
<asrwt>0</asrwt>
<pdfrwt beam="1">  1        2 0.12497874E-02 0.20034409E+02</pdfrwt>
<pdfrwt beam="2">  1       -2 0.19003351E-02 0.20034409E+02</pdfrwt>
<totfact> 0.38713767E+06</totfact>
</mgrwt>
</event>
<event>
 5    1  0.1607476E-006  0.2000688E+02  0.7818608E-02  0.1745191E+00
         -2   -1    0    0    0  501 -0.00000000000E+00  0.00000000000E+00  0.98455459352E+01  0.98455462785E+01  0.26000000000E-02 0. -1.
          2   -1    0    0  501    0  0.00000000000E+00 -0.00000000000E+00 -0.10163868411E+02  0.10163868744E+02  0.26000000000E-02 0.  1.
       1023    2    1    2    0    0  0.00000000000E+00  0.00000000000E+00 -0.31832247591E+00  0.20009415022E+02  0.20006882824E+02 0.  0.
        -13    1    3    3    0    0 -0.39892552423E+01  0.91717811549E+01 -0.30730375237E+00  0.10007064256E+02  0.10570000000E+00 0. -1.
         13    1    3    3    0    0  0.39892552423E+01 -0.91717811549E+01 -0.11018723540E-01  0.10002350766E+02  0.10570000000E+00 0.  1.
<mgrwt>
<rscale>  0 0.20006883E+02</rscale>
<asrwt>0</asrwt>
<pdfrwt beam="2">  1        2 0.15636721E-02 0.20006883E+02</pdfrwt>
<pdfrwt beam="1">  1       -2 0.15146994E-02 0.20006883E+02</pdfrwt>
<totfact> 0.39479194E+06</totfact>
</mgrwt>
</event>
<event>
 4    1  0.1607476E-006  0.2032558E+02  0.7818608E-02  0.1738930E+00
         -2   -1    0    0    0  501 -0.00000000000E+00  0.00000000000E+00  0.63624580912E+01  0.63624586225E+01  0.26000000000E-02 0.  1.
          2   -1    0    0  501    0  0.00000000000E+00 -0.00000000000E+00 -0.16233083600E+02  0.16233083808E+02  0.26000000000E-02 0. -1.
        -13    1    1    2    0    0  0.82683606088E+01 -0.59067563243E+01 -0.50741282659E+01  0.11358411314E+02  0.10570000000E+00 0. -1.
         13    1    1    2    0    0 -0.82683606088E+01  0.59067563243E+01 -0.47964972424E+01  0.11237131116E+02  0.10570000000E+00 0.  1.
<mgrwt>
<rscale>  0 0.20325582E+02</rscale>
<asrwt>0</asrwt>
<pdfrwt beam="2">  1        2 0.24973975E-02 0.20325582E+02</pdfrwt>
<pdfrwt beam="1">  1       -2 0.97883977E-03 0.20325582E+02</pdfrwt>
<totfact> 0.39476660E+06</totfact>
</mgrwt>
</event>
<event>
 4    1  0.1607476E-006  0.2073688E+02  0.7818608E-02  0.1731059E+00
         -2   -1    0    0    0  501 -0.00000000000E+00  0.00000000000E+00  0.39673718100E+01  0.39673726620E+01  0.26000000000E-02 0. -1.
          2   -1    0    0  501    0  0.00000000000E+00 -0.00000000000E+00 -0.27097171968E+02  0.27097172093E+02  0.26000000000E-02 0.  1.
        -13    1    1    2    0    0  0.10085001980E+02  0.20650856375E+01 -0.13412744462E+02  0.16908126156E+02  0.10570000000E+00 0. -1.
         13    1    1    2    0    0 -0.10085001980E+02 -0.20650856375E+01 -0.97170556965E+01  0.14156418598E+02  0.10570000000E+00 0.  1.
<mgrwt>
<rscale>  0 0.20736882E+02</rscale>
<asrwt>0</asrwt>
<pdfrwt beam="2">  1        2 0.41687956E-02 0.20736882E+02</pdfrwt>
<pdfrwt beam="1">  1       -2 0.61036499E-03 0.20736882E+02</pdfrwt>
<totfact> 0.39544587E+06</totfact>
</mgrwt>
</event>
<event>
 4    1  0.1607476E-006  0.2003712E+02  0.7818608E-02  0.1744591E+00
          2   -1    0    0  501    0  0.00000000000E+00  0.00000000000E+00  0.61329694427E+01  0.61329699938E+01  0.26000000000E-02 0. -1.
         -2   -1    0    0    0  501 -0.00000000000E+00 -0.00000000000E+00 -0.16365902111E+02  0.16365902318E+02  0.26000000000E-02 0.  1.
        -13    1    1    2    0    0 -0.98461428751E+01 -0.18243254026E+01 -0.54452185572E+01  0.11398959177E+02  0.10570000000E+00 0. -1.
         13    1    1    2    0    0  0.98461428751E+01  0.18243254026E+01 -0.47877141112E+01  0.11099913134E+02  0.10570000000E+00 0.  1.
<mgrwt>
<rscale>  0 0.20037124E+02</rscale>
<asrwt>0</asrwt>
<pdfrwt beam="1">  1        2 0.94353382E-03 0.20037124E+02</pdfrwt>
<pdfrwt beam="2">  1       -2 0.25178311E-02 0.20037124E+02</pdfrwt>
<totfact> 0.37889758E+06</totfact>
</mgrwt>
</event>
<event>
 5    1  0.1607476E-006  0.2000690E+02  0.7818608E-02  0.1745191E+00
          2   -1    0    0  501    0  0.00000000000E+00  0.00000000000E+00  0.15870542377E+01  0.15870563674E+01  0.26000000000E-02 0. -1.
         -2   -1    0    0    0  501 -0.00000000000E+00 -0.00000000000E+00 -0.63053286162E+02  0.63053286215E+02  0.26000000000E-02 0.  1.
       1023    2    1    2    0    0  0.00000000000E+00  0.00000000000E+00 -0.61466231924E+02  0.64640342583E+02  0.20006904365E+02 0.  0.
        -13    1    3    3    0    0 -0.13545336456E-01  0.10002823798E+02 -0.30620465927E+02  0.32213052843E+02  0.10570000000E+00 0. -1.
         13    1    3    3    0    0  0.13545336456E-01 -0.10002823798E+02 -0.30845765997E+02  0.32427289739E+02  0.10570000000E+00 0.  1.
<mgrwt>
<rscale>  0 0.20006904E+02</rscale>
<asrwt>0</asrwt>
<pdfrwt beam="1">  1        2 0.24416241E-03 0.20006904E+02</pdfrwt>
<pdfrwt beam="2">  1       -2 0.97005038E-02 0.20006904E+02</pdfrwt>
<totfact> 0.32661545E+06</totfact>
</mgrwt>
</event>
<event>
 5    1  0.1607476E-006  0.2000144E+02  0.7818608E-02  0.1745300E+00
          2   -1    0    0  501    0  0.00000000000E+00  0.00000000000E+00  0.73334875674E+02  0.73334875720E+02  0.26000000000E-02 0. -1.
         -2   -1    0    0    0  501 -0.00000000000E+00 -0.00000000000E+00 -0.13638022978E+01  0.13638047761E+01  0.26000000000E-02 0.  1.
       1023    2    1    2    0    0  0.00000000000E+00  0.00000000000E+00  0.71971073376E+02  0.74698680496E+02  0.20001436572E+02 0.  0.
        -13    1    3    3    0    0 -0.99787333550E+01 -0.65243745700E+00  0.35802586005E+02  0.37173069972E+02  0.10570000000E+00 0. -1.
         13    1    3    3    0    0  0.99787333550E+01  0.65243745700E+00  0.36168487372E+02  0.37525610525E+02  0.10570000000E+00 0.  1.
<mgrwt>
<rscale>  0 0.20001437E+02</rscale>
<asrwt>0</asrwt>
<pdfrwt beam="1">  1        2 0.11282287E-01 0.20001437E+02</pdfrwt>
<pdfrwt beam="2">  1       -2 0.20981596E-03 0.20001437E+02</pdfrwt>
<totfact> 0.49443138E+06</totfact>
</mgrwt>
</event>
<event>
 5    1  0.1607476E-006  0.2000630E+02  0.7818608E-02  0.1745203E+00
         -2   -1    0    0    0  501 -0.00000000000E+00  0.00000000000E+00  0.34483295657E+01  0.34483305459E+01  0.26000000000E-02 0. -1.
          2   -1    0    0  501    0  0.00000000000E+00 -0.00000000000E+00 -0.29017803859E+02  0.29017803975E+02  0.26000000000E-02 0.  1.
       1023    2    1    2    0    0  0.00000000000E+00  0.00000000000E+00 -0.25569474293E+02  0.32466134521E+02  0.20006295887E+02 0.  0.
        -13    1    3    3    0    0 -0.21140258811E+00  0.99989860760E+01 -0.12516201511E+02  0.16021575651E+02  0.10570000000E+00 0.  1.
         13    1    3    3    0    0  0.21140258811E+00 -0.99989860760E+01 -0.13053272782E+02  0.16444558870E+02  0.10570000000E+00 0. -1.
<mgrwt>
<rscale>  0 0.20006296E+02</rscale>
<asrwt>0</asrwt>
<pdfrwt beam="2">  1        2 0.44642774E-02 0.20006296E+02</pdfrwt>
<pdfrwt beam="1">  1       -2 0.53051234E-03 0.20006296E+02</pdfrwt>
<totfact> 0.43186096E+06</totfact>
</mgrwt>
</event>
<event>
 5    1  0.1607476E-006  0.2000522E+02  0.7818608E-02  0.1745224E+00
         -2   -1    0    0    0  501 -0.00000000000E+00  0.00000000000E+00  0.20750376026E+01  0.20750392314E+01  0.26000000000E-02 0.  1.
          2   -1    0    0  501    0  0.00000000000E+00 -0.00000000000E+00 -0.48217021867E+02  0.48217021937E+02  0.26000000000E-02 0. -1.
       1023    2    1    2    0    0  0.00000000000E+00  0.00000000000E+00 -0.46141984265E+02  0.50292061169E+02  0.20005216938E+02 0.  0.
        -13    1    3    3    0    0  0.94733947550E+01 -0.32064570355E+01 -0.22769017071E+02  0.24868974361E+02  0.10570000000E+00 0.  1.
         13    1    3    3    0    0 -0.94733947550E+01  0.32064570355E+01 -0.23372967194E+02  0.25423086808E+02  0.10570000000E+00 0. -1.
<mgrwt>
<rscale>  0 0.20005217E+02</rscale>
<asrwt>0</asrwt>
<pdfrwt beam="2">  1        2 0.74180027E-02 0.20005217E+02</pdfrwt>
<pdfrwt beam="1">  1       -2 0.31923672E-03 0.20005217E+02</pdfrwt>
<totfact> 0.46051193E+06</totfact>
</mgrwt>
</event>
<event>
 5    1  0.1607476E-006  0.2000223E+02  0.7818608E-02  0.1745284E+00
         -2   -1    0    0    0  501 -0.00000000000E+00  0.00000000000E+00  0.24384338750E+02  0.24384338889E+02  0.26000000000E-02 0. -1.
          2   -1    0    0  501    0  0.00000000000E+00 -0.00000000000E+00 -0.41019053453E+01  0.41019061693E+01  0.26000000000E-02 0.  1.
       1023    2    1    2    0    0  0.00000000000E+00  0.00000000000E+00  0.20282433405E+02  0.28486245058E+02  0.20002226193E+02 0.  0.
        -13    1    3    3    0    0 -0.63315082269E+01  0.77409008235E+01  0.10197262109E+02  0.14283027305E+02  0.10570000000E+00 0.  1.
         13    1    3    3    0    0  0.63315082269E+01 -0.77409008235E+01  0.10085171296E+02  0.14203217753E+02  0.10570000000E+00 0. -1.
<mgrwt>
<rscale>  0 0.20002226E+02</rscale>
<asrwt>0</asrwt>
<pdfrwt beam="2">  1        2 0.63106244E-03 0.20002226E+02</pdfrwt>
<pdfrwt beam="1">  1       -2 0.37514368E-02 0.20002226E+02</pdfrwt>
<totfact> 0.36784180E+06</totfact>
</mgrwt>
</event>
<event>
 5    1  0.1607476E-006  0.2000236E+02  0.7818608E-02  0.1745281E+00
          2   -1    0    0  501    0  0.00000000000E+00  0.00000000000E+00  0.42465435612E+02  0.42465435692E+02  0.26000000000E-02 0. -1.
         -2   -1    0    0    0  501 -0.00000000000E+00 -0.00000000000E+00 -0.23554121749E+01  0.23554136098E+01  0.26000000000E-02 0.  1.
       1023    2    1    2    0    0  0.00000000000E+00  0.00000000000E+00  0.40110023437E+02  0.44820849302E+02  0.20002363660E+02 0.  0.
        -13    1    3    3    0    0  0.27572875876E+01  0.96129166885E+01  0.20146401510E+02  0.22492209060E+02  0.10570000000E+00 0. -1.
         13    1    3    3    0    0 -0.27572875876E+01 -0.96129166885E+01  0.19963621927E+02  0.22328640242E+02  0.10570000000E+00 0.  1.
<mgrwt>
<rscale>  0 0.20002364E+02</rscale>
<asrwt>0</asrwt>
<pdfrwt beam="1">  1        2 0.65331439E-02 0.20002364E+02</pdfrwt>
<pdfrwt beam="2">  1       -2 0.36237123E-03 0.20002364E+02</pdfrwt>
<totfact> 0.45244361E+06</totfact>
</mgrwt>
</event>
<event>
 5    1  0.1607476E-006  0.2000487E+02  0.7818608E-02  0.1745231E+00
         -2   -1    0    0    0  501 -0.00000000000E+00  0.00000000000E+00  0.18086612143E+02  0.18086612330E+02  0.26000000000E-02 0.  1.
          2   -1    0    0  501    0  0.00000000000E+00 -0.00000000000E+00 -0.55316443174E+01  0.55316449285E+01  0.26000000000E-02 0. -1.
       1023    2    1    2    0    0  0.00000000000E+00  0.00000000000E+00  0.12554967826E+02  0.23618257258E+02  0.20004870877E+02 0.  0.
        -13    1    3    3    0    0 -0.69681695201E+01  0.71750224859E+01  0.62364483444E+01  0.11787314986E+02  0.10570000000E+00 0. -1.
         13    1    3    3    0    0  0.69681695201E+01 -0.71750224859E+01  0.63185194813E+01  0.11830942273E+02  0.10570000000E+00 0.  1.
<mgrwt>
<rscale>  0 0.20004871E+02</rscale>
<asrwt>0</asrwt>
<pdfrwt beam="2">  1        2 0.85102226E-03 0.20004871E+02</pdfrwt>
<pdfrwt beam="1">  1       -2 0.27825558E-02 0.20004871E+02</pdfrwt>
<totfact> 0.37723071E+06</totfact>
</mgrwt>
</event>
<event>
 5    1  0.1607476E-006  0.2000112E+02  0.7818608E-02  0.1745306E+00
          2   -1    0    0  501    0  0.00000000000E+00  0.00000000000E+00  0.56237012714E+01  0.56237018725E+01  0.26000000000E-02 0.  1.
         -2   -1    0    0    0  501 -0.00000000000E+00 -0.00000000000E+00 -0.17783878912E+02  0.17783879102E+02  0.26000000000E-02 0. -1.
       1023    2    1    2    0    0  0.00000000000E+00  0.00000000000E+00 -0.12160177641E+02  0.23407580974E+02  0.20001123139E+02 0.  0.
        -13    1    3    3    0    0 -0.78196320447E+01  0.62332493361E+01 -0.60848593906E+01  0.11706268786E+02  0.10570000000E+00 0.  1.
         13    1    3    3    0    0  0.78196320447E+01 -0.62332493361E+01 -0.60753182499E+01  0.11701312188E+02  0.10570000000E+00 0. -1.
<mgrwt>
<rscale>  0 0.20001123E+02</rscale>
<asrwt>0</asrwt>
<pdfrwt beam="1">  1        2 0.86518488E-03 0.20001123E+02</pdfrwt>
<pdfrwt beam="2">  1       -2 0.27359814E-02 0.20001123E+02</pdfrwt>
<totfact> 0.37789381E+06</totfact>
</mgrwt>
</event>
<event>
 5    1  0.1607476E-006  0.2000522E+02  0.7818608E-02  0.1745224E+00
         -2   -1    0    0    0  501 -0.00000000000E+00  0.00000000000E+00  0.69970849367E+01  0.69970854197E+01  0.26000000000E-02 0.  1.
          2   -1    0    0  501    0  0.00000000000E+00 -0.00000000000E+00 -0.14299132832E+02  0.14299133069E+02  0.26000000000E-02 0. -1.
       1023    2    1    2    0    0  0.00000000000E+00  0.00000000000E+00 -0.73020478958E+01  0.21296218489E+02  0.20005224779E+02 0.  0.
        -13    1    3    3    0    0  0.92897581645E+01 -0.37065536042E+01 -0.37087030115E+01  0.10667886243E+02  0.10570000000E+00 0.  1.
         13    1    3    3    0    0 -0.92897581645E+01  0.37065536042E+01 -0.35933448843E+01  0.10628332246E+02  0.10570000000E+00 0. -1.
<mgrwt>
<rscale>  0 0.20005225E+02</rscale>
<asrwt>0</asrwt>
<pdfrwt beam="2">  1        2 0.21998666E-02 0.20005225E+02</pdfrwt>
<pdfrwt beam="1">  1       -2 0.10764747E-02 0.20005225E+02</pdfrwt>
<totfact> 0.40513036E+06</totfact>
</mgrwt>
</event>
<event>
 5    1  0.1607476E-006  0.2000611E+02  0.7818608E-02  0.1745207E+00
         -2   -1    0    0    0  501 -0.00000000000E+00  0.00000000000E+00  0.10775426695E+02  0.10775427009E+02  0.26000000000E-02 0.  1.
          2   -1    0    0  501    0  0.00000000000E+00 -0.00000000000E+00 -0.92860414124E+01  0.92860417764E+01  0.26000000000E-02 0. -1.
       1023    2    1    2    0    0  0.00000000000E+00  0.00000000000E+00  0.14893852830E+01  0.20061468785E+02  0.20006105601E+02 0.  0.
        -13    1    3    3    0    0 -0.91593520503E+01 -0.40154839883E+01  0.92421654823E+00  0.10044062443E+02  0.10570000000E+00 0.  1.
         13    1    3    3    0    0  0.91593520503E+01  0.40154839883E+01  0.56516873482E+00  0.10017406342E+02  0.10570000000E+00 0. -1.
<mgrwt>
<rscale>  0 0.20006106E+02</rscale>
<asrwt>0</asrwt>
<pdfrwt beam="2">  1        2 0.14286218E-02 0.20006106E+02</pdfrwt>
<pdfrwt beam="1">  1       -2 0.16577580E-02 0.20006106E+02</pdfrwt>
<totfact> 0.39222437E+06</totfact>
</mgrwt>
</event>
<event>
 4    1  0.1607476E-006  0.2003816E+02  0.7818608E-02  0.1744570E+00
         -2   -1    0    0    0  501 -0.00000000000E+00  0.00000000000E+00  0.58644912394E+01  0.58644918158E+01  0.26000000000E-02 0.  1.
          2   -1    0    0  501    0  0.00000000000E+00 -0.00000000000E+00 -0.17116908238E+02  0.17116908436E+02  0.26000000000E-02 0. -1.
        -13    1    1    2    0    0 -0.27761024818E+01  0.96138516453E+01 -0.61856074788E+01  0.11764599475E+02  0.10570000000E+00 0. -1.
         13    1    1    2    0    0  0.27761024818E+01 -0.96138516453E+01 -0.50668095200E+01  0.11216800776E+02  0.10570000000E+00 0.  1.
<mgrwt>
<rscale>  0 0.20038160E+02</rscale>
<asrwt>0</asrwt>
<pdfrwt beam="2">  1        2 0.26333705E-02 0.20038160E+02</pdfrwt>
<pdfrwt beam="1">  1       -2 0.90222949E-03 0.20038160E+02</pdfrwt>
<totfact> 0.40949730E+06</totfact>
</mgrwt>
</event>
<event>
 4    1  0.1764203E-006  0.2229140E+02  0.7818608E-02  0.1703261E+00
          2   -1    0    0  501    0  0.00000000000E+00  0.00000000000E+00  0.25216534688E+01  0.25216548092E+01  0.26000000000E-02 0.  1.
         -2   -1    0    0    0  501 -0.00000000000E+00 -0.00000000000E+00 -0.49263938225E+02  0.49263938294E+02  0.26000000000E-02 0. -1.
        -13    1    1    2    0    0 -0.80101477657E+01  0.74820484762E+01 -0.28058970485E+02  0.30124085277E+02  0.10570000000E+00 0. -1.
         13    1    1    2    0    0  0.80101477657E+01 -0.74820484762E+01 -0.18683314271E+02  0.21661507826E+02  0.10570000000E+00 0.  1.
<mgrwt>
<rscale>  0 0.22291399E+02</rscale>
<asrwt>0</asrwt>
<pdfrwt beam="1">  1        2 0.38794683E-03 0.22291399E+02</pdfrwt>
<pdfrwt beam="2">  1       -2 0.75790668E-02 0.22291399E+02</pdfrwt>
<totfact> 0.26744090E+06</totfact>
</mgrwt>
</event>
<event>
 5    1  0.1607476E-006  0.2000414E+02  0.7818608E-02  0.1745246E+00
          2   -1    0    0  501    0  0.00000000000E+00  0.00000000000E+00  0.21295635090E+02  0.21295635248E+02  0.26000000000E-02 0.  1.
         -2   -1    0    0    0  501 -0.00000000000E+00 -0.00000000000E+00 -0.46977432833E+01  0.46977440028E+01  0.26000000000E-02 0. -1.
       1023    2    1    2    0    0  0.00000000000E+00  0.00000000000E+00  0.16597891806E+02  0.25993379251E+02  0.20004143383E+02 0.  0.
        -13    1    3    3    0    0 -0.86969549751E+01  0.49386984975E+01  0.82340156587E+01  0.12955228869E+02  0.10570000000E+00 0. -1.
         13    1    3    3    0    0  0.86969549751E+01 -0.49386984975E+01  0.83638761477E+01  0.13038150382E+02  0.10570000000E+00 0.  1.
<mgrwt>
<rscale>  0 0.20004143E+02</rscale>
<asrwt>0</asrwt>
<pdfrwt beam="1">  1        2 0.32762517E-02 0.20004143E+02</pdfrwt>
<pdfrwt beam="2">  1       -2 0.72272979E-03 0.20004143E+02</pdfrwt>
<totfact> 0.41893909E+06</totfact>
</mgrwt>
</event>
<event>
 5    1  0.1607476E-006  0.2000225E+02  0.7818608E-02  0.1745283E+00
          2   -1    0    0  501    0  0.00000000000E+00  0.00000000000E+00  0.21929039743E+01  0.21929055156E+01  0.26000000000E-02 0. -1.
         -2   -1    0    0    0  501 -0.00000000000E+00 -0.00000000000E+00 -0.45611870861E+02  0.45611870935E+02  0.26000000000E-02 0.  1.
       1023    2    1    2    0    0  0.00000000000E+00  0.00000000000E+00 -0.43418966887E+02  0.47804776451E+02  0.20002249023E+02 0.  0.
        -13    1    3    3    0    0  0.99992616141E+01  0.15913935514E+00 -0.21643559766E+02  0.23842512661E+02  0.10570000000E+00 0.  1.
         13    1    3    3    0    0 -0.99992616141E+01 -0.15913935514E+00 -0.21775407121E+02  0.23962263790E+02  0.10570000000E+00 0. -1.
<mgrwt>
<rscale>  0 0.20002249E+02</rscale>
<asrwt>0</asrwt>
<pdfrwt beam="1">  1        2 0.33737000E-03 0.20002249E+02</pdfrwt>
<pdfrwt beam="2">  1       -2 0.70172103E-02 0.20002249E+02</pdfrwt>
<totfact> 0.34326656E+06</totfact>
</mgrwt>
</event>
<event>
 4    1  0.1607476E-006  0.2065547E+02  0.7818608E-02  0.1732599E+00
         -2   -1    0    0    0  501 -0.00000000000E+00  0.00000000000E+00  0.18259935463E+01  0.18259953973E+01  0.26000000000E-02 0. -1.
          2   -1    0    0  501    0  0.00000000000E+00 -0.00000000000E+00 -0.58413175483E+02  0.58413175541E+02  0.26000000000E-02 0.  1.
        -13    1    1    2    0    0 -0.20680139746E+01  0.10117987860E+02 -0.28221779481E+02  0.30052127540E+02  0.10570000000E+00 0.  1.
         13    1    1    2    0    0  0.20680139746E+01 -0.10117987860E+02 -0.28365402456E+02  0.30187043398E+02  0.10570000000E+00 0. -1.
<mgrwt>
<rscale>  0 0.20655473E+02</rscale>
<asrwt>0</asrwt>
<pdfrwt beam="2">  1        2 0.89866411E-02 0.20655473E+02</pdfrwt>
<pdfrwt beam="1">  1       -2 0.28092228E-03 0.20655473E+02</pdfrwt>
<totfact> 0.44188352E+06</totfact>
</mgrwt>
</event>
<event>
 5    1  0.1607476E-006  0.2000361E+02  0.7818608E-02  0.1745256E+00
          2   -1    0    0  501    0  0.00000000000E+00  0.00000000000E+00  0.99610259805E+01  0.99610263198E+01  0.26000000000E-02 0.  1.
         -2   -1    0    0    0  501 -0.00000000000E+00 -0.00000000000E+00 -0.10042745560E+02  0.10042745897E+02  0.26000000000E-02 0. -1.
       1023    2    1    2    0    0  0.00000000000E+00  0.00000000000E+00 -0.81719579581E-01  0.20003772216E+02  0.20003605295E+02 0.  0.
        -13    1    3    3    0    0 -0.26632441801E+01  0.96398448900E+01 -0.11437668541E+00  0.10002186440E+02  0.10570000000E+00 0.  1.
         13    1    3    3    0    0  0.26632441801E+01 -0.96398448900E+01  0.32657105833E-01  0.10001585776E+02  0.10570000000E+00 0. -1.
<mgrwt>
<rscale>  0 0.20003605E+02</rscale>
<asrwt>0</asrwt>
<pdfrwt beam="1">  1        2 0.15324656E-02 0.20003605E+02</pdfrwt>
<pdfrwt beam="2">  1       -2 0.15450378E-02 0.20003605E+02</pdfrwt>
<totfact> 0.39435632E+06</totfact>
</mgrwt>
</event>
<event>
 5    1  0.1607476E-006  0.2000158E+02  0.7818608E-02  0.1745297E+00
          2   -1    0    0  501    0  0.00000000000E+00  0.00000000000E+00  0.69809832821E+01  0.69809837663E+01  0.26000000000E-02 0. -1.
         -2   -1    0    0    0  501 -0.00000000000E+00 -0.00000000000E+00 -0.14326890157E+02  0.14326890393E+02  0.26000000000E-02 0.  1.
       1023    2    1    2    0    0  0.00000000000E+00  0.00000000000E+00 -0.73459068753E+01  0.21307874160E+02  0.20001578772E+02 0.  0.
        -13    1    3    3    0    0 -0.30194665317E+01  0.95333782848E+01 -0.37221910033E+01  0.10670911770E+02  0.10570000000E+00 0. -1.
         13    1    3    3    0    0  0.30194665317E+01 -0.95333782848E+01 -0.36237158721E+01  0.10636962389E+02  0.10570000000E+00 0.  1.
<mgrwt>
<rscale>  0 0.20001579E+02</rscale>
<asrwt>0</asrwt>
<pdfrwt beam="1">  1        2 0.10739975E-02 0.20001579E+02</pdfrwt>
<pdfrwt beam="2">  1       -2 0.22041370E-02 0.20001579E+02</pdfrwt>
<totfact> 0.38424331E+06</totfact>
</mgrwt>
</event>
<event>
 4    1  0.1607476E-006  0.2001974E+02  0.7818608E-02  0.1744936E+00
         -2   -1    0    0    0  501 -0.00000000000E+00  0.00000000000E+00  0.21578797687E+02  0.21578797844E+02  0.26000000000E-02 0. -1.
          2   -1    0    0  501    0  0.00000000000E+00 -0.00000000000E+00 -0.46433292790E+01  0.46433300069E+01  0.26000000000E-02 0.  1.
        -13    1    1    2    0    0  0.99867306079E+01  0.61616743071E+00  0.81166364967E+01  0.12884308714E+02  0.10570000000E+00 0. -1.
         13    1    1    2    0    0 -0.99867306079E+01 -0.61616743071E+00  0.88188319113E+01  0.13337819136E+02  0.10570000000E+00 0.  1.
<mgrwt>
<rscale>  0 0.20019738E+02</rscale>
<asrwt>0</asrwt>
<pdfrwt beam="2">  1        2 0.71435842E-03 0.20019738E+02</pdfrwt>
<pdfrwt beam="1">  1       -2 0.33198151E-02 0.20019738E+02</pdfrwt>
<totfact> 0.37114083E+06</totfact>
</mgrwt>
</event>
<event>
 5    1  0.1607476E-006  0.2000356E+02  0.7818608E-02  0.1745257E+00
         -2   -1    0    0    0  501 -0.00000000000E+00  0.00000000000E+00  0.22701892924E+01  0.22701907813E+01  0.26000000000E-02 0.  1.
          2   -1    0    0  501    0  0.00000000000E+00 -0.00000000000E+00 -0.44064837676E+02  0.44064837753E+02  0.26000000000E-02 0. -1.
       1023    2    1    2    0    0  0.00000000000E+00  0.00000000000E+00 -0.41794648384E+02  0.46335028534E+02  0.20003555577E+02 0.  0.
        -13    1    3    3    0    0 -0.56814571979E+00  0.99848259623E+01 -0.20736053241E+02  0.23022046294E+02  0.10570000000E+00 0.  1.
         13    1    3    3    0    0  0.56814571979E+00 -0.99848259623E+01 -0.21058595143E+02  0.23312982240E+02  0.10570000000E+00 0. -1.
<mgrwt>
<rscale>  0 0.20003556E+02</rscale>
<asrwt>0</asrwt>
<pdfrwt beam="2">  1        2 0.67792052E-02 0.20003556E+02</pdfrwt>
<pdfrwt beam="1">  1       -2 0.34926005E-03 0.20003556E+02</pdfrwt>
<totfact> 0.45469167E+06</totfact>
</mgrwt>
</event>
<event>
 4    1  0.1607476E-006  0.2001828E+02  0.7818608E-02  0.1744965E+00
          2   -1    0    0  501    0  0.00000000000E+00  0.00000000000E+00  0.27958599201E+01  0.27958611290E+01  0.26000000000E-02 0.  1.
         -2   -1    0    0    0  501 -0.00000000000E+00 -0.00000000000E+00 -0.35832559425E+02  0.35832559520E+02  0.26000000000E-02 0. -1.
        -13    1    1    2    0    0  0.99999741983E+01 -0.42189798116E-01 -0.15721783238E+02  0.18632952118E+02  0.10570000000E+00 0.  1.
         13    1    1    2    0    0 -0.99999741983E+01  0.42189798116E-01 -0.17314916267E+02  0.19995468531E+02  0.10570000000E+00 0. -1.
<mgrwt>
<rscale>  0 0.20018276E+02</rscale>
<asrwt>0</asrwt>
<pdfrwt beam="1">  1        2 0.43013242E-03 0.20018276E+02</pdfrwt>
<pdfrwt beam="2">  1       -2 0.55127012E-02 0.20018276E+02</pdfrwt>
<totfact> 0.35308079E+06</totfact>
</mgrwt>
</event>
<event>
 5    1  0.1607476E-006  0.2000241E+02  0.7818608E-02  0.1745280E+00
         -2   -1    0    0    0  501 -0.00000000000E+00  0.00000000000E+00  0.83908848465E+02  0.83908848505E+02  0.26000000000E-02 0. -1.
          2   -1    0    0  501    0  0.00000000000E+00 -0.00000000000E+00 -0.11920546969E+01  0.11920575323E+01  0.26000000000E-02 0.  1.
       1023    2    1    2    0    0  0.00000000000E+00  0.00000000000E+00  0.82716793768E+02  0.85100906037E+02  0.20002405784E+02 0.  0.
        -13    1    3    3    0    0 -0.72392154742E+01  0.68993829917E+01  0.41052767123E+02  0.42253385512E+02  0.10570000000E+00 0.  1.
         13    1    3    3    0    0  0.72392154742E+01 -0.68993829917E+01  0.41664026645E+02  0.42847520525E+02  0.10570000000E+00 0. -1.
<mgrwt>
<rscale>  0 0.20002406E+02</rscale>
<asrwt>0</asrwt>
<pdfrwt beam="2">  1        2 0.18339326E-03 0.20002406E+02</pdfrwt>
<pdfrwt beam="1">  1       -2 0.12909053E-01 0.20002406E+02</pdfrwt>
<totfact> 0.30939391E+06</totfact>
</mgrwt>
</event>
<event>
 5    1  0.1618855E-006  0.2000172E+02  0.7818608E-02  0.1745294E+00
          2   -1    0    0  501    0  0.00000000000E+00  0.00000000000E+00  0.94544561839E+02  0.94544561875E+02  0.26000000000E-02 0. -1.
         -2   -1    0    0    0  501 -0.00000000000E+00 -0.00000000000E+00 -0.10578822069E+01  0.10578854020E+01  0.26000000000E-02 0.  1.
       1023    2    1    2    0    0  0.00000000000E+00  0.00000000000E+00  0.93486679632E+02  0.95602447277E+02  0.20001716343E+02 0.  0.
        -13    1    3    3    0    0 -0.52926090784E+00  0.99862840043E+01  0.46755388916E+02  0.47813006081E+02  0.10570000000E+00 0.  1.
         13    1    3    3    0    0  0.52926090784E+00 -0.99862840043E+01  0.46731290716E+02  0.47789441196E+02  0.10570000000E+00 0. -1.
<mgrwt>
<rscale>  0 0.20001716E+02</rscale>
<asrwt>0</asrwt>
<pdfrwt beam="1">  1        2 0.14545322E-01 0.20001716E+02</pdfrwt>
<pdfrwt beam="2">  1       -2 0.16275131E-03 0.20001716E+02</pdfrwt>
<totfact> 0.52090163E+06</totfact>
</mgrwt>
</event>
<event>
 4    1  0.1607476E-006  0.2003943E+02  0.7818608E-02  0.1744545E+00
          2   -1    0    0  501    0  0.00000000000E+00  0.00000000000E+00  0.11770606425E+02  0.11770606712E+02  0.26000000000E-02 0. -1.
         -2   -1    0    0    0  501 -0.00000000000E+00 -0.00000000000E+00 -0.85292734110E+01  0.85292738073E+01  0.26000000000E-02 0.  1.
        -13    1    1    2    0    0 -0.61419262983E+01  0.79135556168E+01  0.14286409444E+01  0.10119279055E+02  0.10570000000E+00 0.  1.
         13    1    1    2    0    0  0.61419262983E+01 -0.79135556168E+01  0.18126920700E+01  0.10180601465E+02  0.10570000000E+00 0. -1.
<mgrwt>
<rscale>  0 0.20039434E+02</rscale>
<asrwt>0</asrwt>
<pdfrwt beam="1">  1        2 0.18108626E-02 0.20039434E+02</pdfrwt>
<pdfrwt beam="2">  1       -2 0.13121960E-02 0.20039434E+02</pdfrwt>
<totfact> 0.39762421E+06</totfact>
</mgrwt>
</event>
<event>
 5    1  0.1607476E-006  0.2000127E+02  0.7818608E-02  0.1745303E+00
         -2   -1    0    0    0  501 -0.00000000000E+00  0.00000000000E+00  0.11792007405E+02  0.11792007691E+02  0.26000000000E-02 0.  1.
          2   -1    0    0  501    0  0.00000000000E+00 -0.00000000000E+00 -0.84813947791E+01  0.84813951777E+01  0.26000000000E-02 0. -1.
       1023    2    1    2    0    0  0.00000000000E+00  0.00000000000E+00  0.33106126254E+01  0.20273402869E+02  0.20001267658E+02 0.  0.
        -13    1    3    3    0    0  0.98948515041E+01  0.14468646021E+01  0.16542787163E+01  0.10136533630E+02  0.10570000000E+00 0.  1.
         13    1    3    3    0    0 -0.98948515041E+01 -0.14468646021E+01  0.16563339091E+01  0.10136869239E+02  0.10570000000E+00 0. -1.
<mgrwt>
<rscale>  0 0.20001268E+02</rscale>
<asrwt>0</asrwt>
<pdfrwt beam="2">  1        2 0.13048300E-02 0.20001268E+02</pdfrwt>
<pdfrwt beam="1">  1       -2 0.18141550E-02 0.20001268E+02</pdfrwt>
<totfact> 0.38984555E+06</totfact>
</mgrwt>
</event>
<event>
 4    1  0.1607476E-006  0.2001711E+02  0.7818608E-02  0.1744988E+00
          2   -1    0    0  501    0  0.00000000000E+00  0.00000000000E+00  0.93909601966E+01  0.93909605565E+01  0.26000000000E-02 0. -1.
         -2   -1    0    0    0  501 -0.00000000000E+00 -0.00000000000E+00 -0.10666760358E+02  0.10666760675E+02  0.26000000000E-02 0.  1.
        -13    1    1    2    0    0 -0.65842917065E+01  0.75362764609E+01 -0.52999649140E+00  0.10021997253E+02  0.10570000000E+00 0.  1.
         13    1    1    2    0    0  0.65842917065E+01 -0.75362764609E+01 -0.74580367043E+00  0.10035723979E+02  0.10570000000E+00 0. -1.
<mgrwt>
<rscale>  0 0.20017106E+02</rscale>
<asrwt>0</asrwt>
<pdfrwt beam="1">  1        2 0.14447632E-02 0.20017106E+02</pdfrwt>
<pdfrwt beam="2">  1       -2 0.16410401E-02 0.20017106E+02</pdfrwt>
<totfact> 0.39205341E+06</totfact>
</mgrwt>
</event>
<event>
 5    1  0.1607476E-006  0.2000116E+02  0.7818608E-02  0.1745305E+00
         -2   -1    0    0    0  501 -0.00000000000E+00  0.00000000000E+00  0.12319797504E+02  0.12319797779E+02  0.26000000000E-02 0.  1.
          2   -1    0    0  501    0  0.00000000000E+00 -0.00000000000E+00 -0.81179547863E+01  0.81179552027E+01  0.26000000000E-02 0. -1.
       1023    2    1    2    0    0  0.00000000000E+00  0.00000000000E+00  0.42018427182E+01  0.20437752982E+02  0.20001156584E+02 0.  0.
        -13    1    3    3    0    0 -0.97235710246E+01 -0.23350351732E+01  0.20875609441E+01  0.10216129694E+02  0.10570000000E+00 0. -1.
         13    1    3    3    0    0  0.97235710246E+01  0.23350351732E+01  0.21142817741E+01  0.10221623288E+02  0.10570000000E+00 0.  1.
<mgrwt>
<rscale>  0 0.20001157E+02</rscale>
<asrwt>0</asrwt>
<pdfrwt beam="2">  1        2 0.12489162E-02 0.20001157E+02</pdfrwt>
<pdfrwt beam="1">  1       -2 0.18953535E-02 0.20001157E+02</pdfrwt>
<totfact> 0.38859779E+06</totfact>
</mgrwt>
</event>
<event>
 5    1  0.1607476E-006  0.2000946E+02  0.7818608E-02  0.1745140E+00
          2   -1    0    0  501    0  0.00000000000E+00  0.00000000000E+00  0.30926659535E+02  0.30926659644E+02  0.26000000000E-02 0. -1.
         -2   -1    0    0    0  501 -0.00000000000E+00 -0.00000000000E+00 -0.32365136436E+01  0.32365146879E+01  0.26000000000E-02 0.  1.
       1023    2    1    2    0    0  0.00000000000E+00  0.00000000000E+00  0.27690145891E+02  0.34163174332E+02  0.20009455289E+02 0.  0.
        -13    1    3    3    0    0 -0.86438771459E+01  0.50360965664E+01  0.13730260546E+02  0.16988528714E+02  0.10570000000E+00 0. -1.
         13    1    3    3    0    0  0.86438771459E+01 -0.50360965664E+01  0.13959885346E+02  0.17174645618E+02  0.10570000000E+00 0.  1.
<mgrwt>
<rscale>  0 0.20009455E+02</rscale>
<asrwt>0</asrwt>
<pdfrwt beam="1">  1        2 0.47579479E-02 0.20009455E+02</pdfrwt>
<pdfrwt beam="2">  1       -2 0.49792525E-03 0.20009455E+02</pdfrwt>
<totfact> 0.43473548E+06</totfact>
</mgrwt>
</event>
<event>
 5    1  0.1607476E-006  0.2000694E+02  0.7818608E-02  0.1745190E+00
         -2   -1    0    0    0  501 -0.00000000000E+00  0.00000000000E+00  0.28482681990E+01  0.28482693857E+01  0.26000000000E-02 0.  1.
          2   -1    0    0  501    0  0.00000000000E+00 -0.00000000000E+00 -0.35133406626E+02  0.35133406722E+02  0.26000000000E-02 0. -1.
       1023    2    1    2    0    0  0.00000000000E+00  0.00000000000E+00 -0.32285138427E+02  0.37981676108E+02  0.20006937715E+02 0.  0.
        -13    1    3    3    0    0 -0.91752711711E+01  0.39822152875E+01 -0.15913362141E+02  0.18796007735E+02  0.10570000000E+00 0. -1.
         13    1    3    3    0    0  0.91752711711E+01 -0.39822152875E+01 -0.16371776286E+02  0.19185668372E+02  0.10570000000E+00 0.  1.
<mgrwt>
<rscale>  0 0.20006938E+02</rscale>
<asrwt>0</asrwt>
<pdfrwt beam="2">  1        2 0.54051393E-02 0.20006938E+02</pdfrwt>
<pdfrwt beam="1">  1       -2 0.43819523E-03 0.20006938E+02</pdfrwt>
<totfact> 0.44135105E+06</totfact>
</mgrwt>
</event>
<event>
 4    1  0.1607476E-006  0.2004186E+02  0.7818608E-02  0.1744497E+00
         -2   -1    0    0    0  501 -0.00000000000E+00  0.00000000000E+00  0.39246918528E+02  0.39246918614E+02  0.26000000000E-02 0.  1.
          2   -1    0    0  501    0  0.00000000000E+00 -0.00000000000E+00 -0.25586468397E+01  0.25586481607E+01  0.26000000000E-02 0. -1.
        -13    1    1    2    0    0 -0.81233110371E+01 -0.58524679156E+01  0.17488407976E+02  0.20151802623E+02  0.10570000000E+00 0. -1.
         13    1    1    2    0    0  0.81233110371E+01  0.58524679156E+01  0.19199863712E+02  0.21653764152E+02  0.10570000000E+00 0.  1.
<mgrwt>
<rscale>  0 0.20041860E+02</rscale>
<asrwt>0</asrwt>
<pdfrwt beam="2">  1        2 0.39363812E-03 0.20041860E+02</pdfrwt>
<pdfrwt beam="1">  1       -2 0.60379870E-02 0.20041860E+02</pdfrwt>
<totfact> 0.34842201E+06</totfact>
</mgrwt>
</event>
<event>
 5    1  0.1607476E-006  0.2000485E+02  0.7818608E-02  0.1745232E+00
         -2   -1    0    0    0  501 -0.00000000000E+00  0.00000000000E+00  0.13705553448E+01  0.13705578110E+01  0.26000000000E-02 0.  1.
          2   -1    0    0  501    0  0.00000000000E+00 -0.00000000000E+00 -0.72998430227E+02  0.72998430273E+02  0.26000000000E-02 0. -1.
       1023    2    1    2    0    0  0.00000000000E+00  0.00000000000E+00 -0.71627874882E+02  0.74368988084E+02  0.20004847626E+02 0.  0.
        -13    1    3    3    0    0  0.96770089115E+01  0.25282427719E+01 -0.35918865848E+02  0.37285554968E+02  0.10570000000E+00 0.  1.
         13    1    3    3    0    0 -0.96770089115E+01 -0.25282427719E+01 -0.35709009034E+02  0.37083433116E+02  0.10570000000E+00 0. -1.
<mgrwt>
<rscale>  0 0.20004848E+02</rscale>
<asrwt>0</asrwt>
<pdfrwt beam="2">  1        2 0.11230525E-01 0.20004848E+02</pdfrwt>
<pdfrwt beam="1">  1       -2 0.21085492E-03 0.20004848E+02</pdfrwt>
<totfact> 0.49381195E+06</totfact>
</mgrwt>
</event>
<event>
 5    1  0.1607476E-006  0.2000267E+02  0.7818608E-02  0.1745275E+00
          2   -1    0    0  501    0  0.00000000000E+00  0.00000000000E+00  0.37992793232E+01  0.37992802128E+01  0.26000000000E-02 0. -1.
         -2   -1    0    0    0  501 -0.00000000000E+00 -0.00000000000E+00 -0.26327815755E+02  0.26327815883E+02  0.26000000000E-02 0.  1.
       1023    2    1    2    0    0  0.00000000000E+00  0.00000000000E+00 -0.22528536432E+02  0.30127096096E+02  0.20002673957E+02 0.  0.
        -13    1    3    3    0    0  0.47714514132E+01 -0.87886533288E+01 -0.11402251474E+02  0.15166729611E+02  0.10570000000E+00 0.  1.
         13    1    3    3    0    0 -0.47714514132E+01  0.87886533288E+01 -0.11126284957E+02  0.14960366485E+02  0.10570000000E+00 0. -1.
<mgrwt>
<rscale>  0 0.20002674E+02</rscale>
<asrwt>0</asrwt>
<pdfrwt beam="1">  1        2 0.58450461E-03 0.20002674E+02</pdfrwt>
<pdfrwt beam="2">  1       -2 0.40504332E-02 0.20002674E+02</pdfrwt>
<totfact> 0.36520831E+06</totfact>
</mgrwt>
</event>
<event>
 4    1  0.1607476E-006  0.2011238E+02  0.7818608E-02  0.1743102E+00
         -2   -1    0    0    0  501 -0.00000000000E+00  0.00000000000E+00  0.93003409989E+00  0.93003773416E+00  0.26000000000E-02 0.  1.
          2   -1    0    0  501    0  0.00000000000E+00 -0.00000000000E+00 -0.10873450653E+03  0.10873450656E+03  0.26000000000E-02 0. -1.
        -13    1    1    2    0    0 -0.56867675217E+01 -0.82916509822E+01 -0.53039648840E+02  0.53984315522E+02  0.10570000000E+00 0.  1.
         13    1    1    2    0    0  0.56867675217E+01  0.82916509822E+01 -0.54764823590E+02  0.55680228773E+02  0.10570000000E+00 0. -1.
<mgrwt>
<rscale>  0 0.20112384E+02</rscale>
<asrwt>0</asrwt>
<pdfrwt beam="2">  1        2 0.16728376E-01 0.20112384E+02</pdfrwt>
<pdfrwt beam="1">  1       -2 0.14308254E-03 0.20112384E+02</pdfrwt>
<totfact> 0.53131184E+06</totfact>
</mgrwt>
</event>
<event>
 5    1  0.1607476E-006  0.2000874E+02  0.7818608E-02  0.1745154E+00
         -2   -1    0    0    0  501 -0.00000000000E+00  0.00000000000E+00  0.95734052171E+01  0.95734055702E+01  0.26000000000E-02 0.  1.
          2   -1    0    0  501    0  0.00000000000E+00 -0.00000000000E+00 -0.10454729552E+02  0.10454729875E+02  0.26000000000E-02 0. -1.
       1023    2    1    2    0    0  0.00000000000E+00  0.00000000000E+00 -0.88132433505E+00  0.20028135446E+02  0.20008735014E+02 0.  0.
        -13    1    3    3    0    0 -0.28388985091E+01  0.95912163050E+01 -0.28106552135E+00  0.10007044782E+02  0.10570000000E+00 0.  1.
         13    1    3    3    0    0  0.28388985091E+01 -0.95912163050E+01 -0.60025881370E+00  0.10021090664E+02  0.10570000000E+00 0. -1.
<mgrwt>
<rscale>  0 0.20008735E+02</rscale>
<asrwt>0</asrwt>
<pdfrwt beam="2">  1        2 0.16084200E-02 0.20008735E+02</pdfrwt>
<pdfrwt beam="1">  1       -2 0.14728316E-02 0.20008735E+02</pdfrwt>
<totfact> 0.39552748E+06</totfact>
</mgrwt>
</event>
<event>
 4    1  0.1607476E-006  0.2001322E+02  0.7818608E-02  0.1745065E+00
          2   -1    0    0  501    0  0.00000000000E+00  0.00000000000E+00  0.53121660594E+02  0.53121660658E+02  0.26000000000E-02 0.  1.
         -2   -1    0    0    0  501 -0.00000000000E+00 -0.00000000000E+00 -0.18849595556E+01  0.18849613487E+01  0.26000000000E-02 0. -1.
        -13    1    1    2    0    0  0.30935380734E+01  0.95096711755E+01  0.26559437397E+02  0.28379899771E+02  0.10570000000E+00 0. -1.
         13    1    1    2    0    0 -0.30935380734E+01 -0.95096711755E+01  0.24677263641E+02  0.26626722235E+02  0.10570000000E+00 0.  1.
<mgrwt>
<rscale>  0 0.20013219E+02</rscale>
<asrwt>0</asrwt>
<pdfrwt beam="1">  1        2 0.81725630E-02 0.20013219E+02</pdfrwt>
<pdfrwt beam="2">  1       -2 0.28999393E-03 0.20013219E+02</pdfrwt>
<totfact> 0.46692710E+06</totfact>
</mgrwt>
</event>
<event>
 5    1  0.1607476E-006  0.2000314E+02  0.7818608E-02  0.1745266E+00
         -2   -1    0    0    0  501 -0.00000000000E+00  0.00000000000E+00  0.26122673733E+01  0.26122686672E+01  0.26000000000E-02 0.  1.
          2   -1    0    0  501    0  0.00000000000E+00 -0.00000000000E+00 -0.38292945102E+02  0.38292945190E+02  0.26000000000E-02 0. -1.
       1023    2    1    2    0    0  0.00000000000E+00  0.00000000000E+00 -0.35680677728E+02  0.40905213857E+02  0.20003143692E+02 0.  0.
        -13    1    3    3    0    0 -0.78498203526E+01 -0.61953864231E+01 -0.17567706235E+02  0.20214795754E+02  0.10570000000E+00 0. -1.
         13    1    3    3    0    0  0.78498203526E+01  0.61953864231E+01 -0.18112971493E+02  0.20690418104E+02  0.10570000000E+00 0.  1.
<mgrwt>
<rscale>  0 0.20003144E+02</rscale>
<asrwt>0</asrwt>
<pdfrwt beam="2">  1        2 0.58912220E-02 0.20003144E+02</pdfrwt>
<pdfrwt beam="1">  1       -2 0.40188742E-03 0.20003144E+02</pdfrwt>
<totfact> 0.44628294E+06</totfact>
</mgrwt>
</event>
<event>
 5    1  0.1607476E-006  0.2000415E+02  0.7818608E-02  0.1745246E+00
          2   -1    0    0  501    0  0.00000000000E+00  0.00000000000E+00  0.27950664210E+02  0.27950664331E+02  0.26000000000E-02 0.  1.
         -2   -1    0    0    0  501 -0.00000000000E+00 -0.00000000000E+00 -0.35792174414E+01  0.35792183857E+01  0.26000000000E-02 0. -1.
       1023    2    1    2    0    0  0.00000000000E+00  0.00000000000E+00  0.24371446768E+02  0.31529882716E+02  0.20004151732E+02 0.  0.
        -13    1    3    3    0    0 -0.85182222646E+01 -0.52408695445E+01  0.12092143518E+02  0.15692607543E+02  0.10570000000E+00 0. -1.
         13    1    3    3    0    0  0.85182222646E+01  0.52408695445E+01  0.12279303250E+02  0.15837275174E+02  0.10570000000E+00 0.  1.
<mgrwt>
<rscale>  0 0.20004152E+02</rscale>
<asrwt>0</asrwt>
<pdfrwt beam="1">  1        2 0.43001024E-02 0.20004152E+02</pdfrwt>
<pdfrwt beam="2">  1       -2 0.55064890E-03 0.20004152E+02</pdfrwt>
<totfact> 0.43024489E+06</totfact>
</mgrwt>
</event>
<event>
 5    1  0.1607476E-006  0.2000544E+02  0.7818608E-02  0.1745220E+00
          2   -1    0    0  501    0  0.00000000000E+00  0.00000000000E+00  0.89315456197E+02  0.89315456235E+02  0.26000000000E-02 0.  1.
         -2   -1    0    0    0  501 -0.00000000000E+00 -0.00000000000E+00 -0.11202343371E+01  0.11202373543E+01  0.26000000000E-02 0. -1.
       1023    2    1    2    0    0  0.00000000000E+00  0.00000000000E+00  0.88195221860E+02  0.90435693589E+02  0.20005437162E+02 0.  0.
        -13    1    3    3    0    0 -0.93289201941E+01  0.36029439957E+01  0.44921904148E+02  0.46021718810E+02  0.10570000000E+00 0.  1.
         13    1    3    3    0    0  0.93289201941E+01 -0.36029439957E+01  0.43273317712E+02  0.44413974780E+02  0.10570000000E+00 0. -1.
<mgrwt>
<rscale>  0 0.20005437E+02</rscale>
<asrwt>0</asrwt>
<pdfrwt beam="1">  1        2 0.13740839E-01 0.20005437E+02</pdfrwt>
<pdfrwt beam="2">  1       -2 0.17234398E-03 0.20005437E+02</pdfrwt>
<totfact> 0.51429586E+06</totfact>
</mgrwt>
</event>
<event>
 5    1  0.1607476E-006  0.2000621E+02  0.7818608E-02  0.1745205E+00
          2   -1    0    0  501    0  0.00000000000E+00  0.00000000000E+00  0.49254186948E+02  0.49254187017E+02  0.26000000000E-02 0.  1.
         -2   -1    0    0    0  501 -0.00000000000E+00 -0.00000000000E+00 -0.20315433381E+01  0.20315450019E+01  0.26000000000E-02 0. -1.
       1023    2    1    2    0    0  0.00000000000E+00  0.00000000000E+00  0.47222643610E+02  0.51285732019E+02  0.20006205017E+02 0.  0.
        -13    1    3    3    0    0 -0.52910359234E+01 -0.84871889363E+01  0.23218763305E+02  0.25281407775E+02  0.10570000000E+00 0.  1.
         13    1    3    3    0    0  0.52910359234E+01  0.84871889363E+01  0.24003880305E+02  0.26004324244E+02  0.10570000000E+00 0. -1.
<mgrwt>
<rscale>  0 0.20006205E+02</rscale>
<asrwt>0</asrwt>
<pdfrwt beam="1">  1        2 0.75775675E-02 0.20006205E+02</pdfrwt>
<pdfrwt beam="2">  1       -2 0.31254526E-03 0.20006205E+02</pdfrwt>
<totfact> 0.46191789E+06</totfact>
</mgrwt>
</event>
<event>
 5    1  0.1607476E-006  0.2000577E+02  0.7818608E-02  0.1745213E+00
         -2   -1    0    0    0  501 -0.00000000000E+00  0.00000000000E+00  0.52253312529E+01  0.52253318998E+01  0.26000000000E-02 0. -1.
          2   -1    0    0  501    0  0.00000000000E+00 -0.00000000000E+00 -0.19148577398E+02  0.19148577574E+02  0.26000000000E-02 0.  1.
       1023    2    1    2    0    0  0.00000000000E+00  0.00000000000E+00 -0.13923246145E+02  0.24373909474E+02  0.20005766165E+02 0.  0.
        -13    1    3    3    0    0  0.91143325189E+01  0.41200784617E+01 -0.69857964978E+01  0.12200763460E+02  0.10570000000E+00 0.  1.
         13    1    3    3    0    0 -0.91143325189E+01 -0.41200784617E+01 -0.69374496469E+01  0.12173146014E+02  0.10570000000E+00 0. -1.
<mgrwt>
<rscale>  0 0.20005766E+02</rscale>
<asrwt>0</asrwt>
<pdfrwt beam="2">  1        2 0.29459350E-02 0.20005766E+02</pdfrwt>
<pdfrwt beam="1">  1       -2 0.80389719E-03 0.20005766E+02</pdfrwt>
<totfact> 0.41492550E+06</totfact>
</mgrwt>
</event>
<event>
 4    1  0.1607476E-006  0.2002621E+02  0.7818608E-02  0.1744807E+00
          2   -1    0    0  501    0  0.00000000000E+00  0.00000000000E+00  0.15836172406E+01  0.15836193750E+01  0.26000000000E-02 0.  1.
         -2   -1    0    0    0  501 -0.00000000000E+00 -0.00000000000E+00 -0.63312151359E+02  0.63312151413E+02  0.26000000000E-02 0. -1.
        -13    1    1    2    0    0 -0.98486621093E+01  0.17696994715E+01 -0.29727158430E+02  0.31366273327E+02  0.10570000000E+00 0. -1.
         13    1    1    2    0    0  0.98486621093E+01 -0.17696994715E+01 -0.32001375688E+02  0.33529497461E+02  0.10570000000E+00 0.  1.
<mgrwt>
<rscale>  0 0.20026211E+02</rscale>
<asrwt>0</asrwt>
<pdfrwt beam="1">  1        2 0.24363364E-03 0.20026211E+02</pdfrwt>
<pdfrwt beam="2">  1       -2 0.97403292E-02 0.20026211E+02</pdfrwt>
<totfact> 0.32569896E+06</totfact>
</mgrwt>
</event>
<event>
 5    1  0.1607476E-006  0.2000203E+02  0.7818608E-02  0.1745288E+00
         -2   -1    0    0    0  501 -0.00000000000E+00  0.00000000000E+00  0.40232629392E+01  0.40232637793E+01  0.26000000000E-02 0.  1.
          2   -1    0    0  501    0  0.00000000000E+00 -0.00000000000E+00 -0.24860499709E+02  0.24860499845E+02  0.26000000000E-02 0. -1.
       1023    2    1    2    0    0  0.00000000000E+00  0.00000000000E+00 -0.20837236770E+02  0.28883763625E+02  0.20002034019E+02 0.  0.
        -13    1    3    3    0    0  0.63790512651E+01 -0.77017352887E+01 -0.10436140558E+02  0.14454522605E+02  0.10570000000E+00 0. -1.
         13    1    3    3    0    0 -0.63790512651E+01  0.77017352887E+01 -0.10401096212E+02  0.14429241020E+02  0.10570000000E+00 0.  1.
<mgrwt>
<rscale>  0 0.20002034E+02</rscale>
<asrwt>0</asrwt>
<pdfrwt beam="2">  1        2 0.38246922E-02 0.20002034E+02</pdfrwt>
<pdfrwt beam="1">  1       -2 0.61896362E-03 0.20002034E+02</pdfrwt>
<totfact> 0.42523387E+06</totfact>
</mgrwt>
</event>
<event>
 5    1  0.1607476E-006  0.2000139E+02  0.7818608E-02  0.1745300E+00
         -2   -1    0    0    0  501 -0.00000000000E+00  0.00000000000E+00  0.32341014262E+02  0.32341014367E+02  0.26000000000E-02 0. -1.
          2   -1    0    0  501    0  0.00000000000E+00 -0.00000000000E+00 -0.30924775553E+01  0.30924786482E+01  0.26000000000E-02 0.  1.
       1023    2    1    2    0    0  0.00000000000E+00  0.00000000000E+00  0.29248536707E+02  0.35433493015E+02  0.20001388145E+02 0.  0.
        -13    1    3    3    0    0 -0.28357731590E+01  0.95896350281E+01  0.14624717366E+02  0.17717117145E+02  0.10570000000E+00 0.  1.
         13    1    3    3    0    0  0.28357731590E+01 -0.95896350281E+01  0.14623819340E+02  0.17716375870E+02  0.10570000000E+00 0. -1.
<mgrwt>
<rscale>  0 0.20001388E+02</rscale>
<asrwt>0</asrwt>
<pdfrwt beam="2">  1        2 0.47576589E-03 0.20001388E+02</pdfrwt>
<pdfrwt beam="1">  1       -2 0.49755406E-02 0.20001388E+02</pdfrwt>
<totfact> 0.35776408E+06</totfact>
</mgrwt>
</event>
<event>
 4    1  0.1607476E-006  0.2009568E+02  0.7818608E-02  0.1743432E+00
          2   -1    0    0  501    0  0.00000000000E+00  0.00000000000E+00  0.12530700859E+02  0.12530701129E+02  0.26000000000E-02 0. -1.
         -2   -1    0    0    0  501 -0.00000000000E+00 -0.00000000000E+00 -0.80569371275E+01  0.80569375470E+01  0.26000000000E-02 0.  1.
        -13    1    1    2    0    0  0.47718344898E+00 -0.99934650551E+01  0.31818819004E+01  0.10499171052E+02  0.10570000000E+00 0.  1.
         13    1    1    2    0    0 -0.47718344898E+00  0.99934650551E+01  0.12918818314E+01  0.10088467624E+02  0.10570000000E+00 0. -1.
<mgrwt>
<rscale>  0 0.20095679E+02</rscale>
<asrwt>0</asrwt>
<pdfrwt beam="1">  1        2 0.19278002E-02 0.20095679E+02</pdfrwt>
<pdfrwt beam="2">  1       -2 0.12395288E-02 0.20095679E+02</pdfrwt>
<totfact> 0.39696018E+06</totfact>
</mgrwt>
</event>
<event>
 5    1  0.1607476E-006  0.2000590E+02  0.7818608E-02  0.1745211E+00
          2   -1    0    0  501    0  0.00000000000E+00  0.00000000000E+00  0.58254669528E+01  0.58254675330E+01  0.26000000000E-02 0.  1.
         -2   -1    0    0    0  501 -0.00000000000E+00 -0.00000000000E+00 -0.17176133719E+02  0.17176133916E+02  0.26000000000E-02 0. -1.
       1023    2    1    2    0    0  0.00000000000E+00  0.00000000000E+00 -0.11350666767E+02  0.23001601449E+02  0.20005899959E+02 0.  0.
        -13    1    3    3    0    0  0.83641151040E+01  0.54853623222E+01 -0.56584934655E+01  0.11492490682E+02  0.10570000000E+00 0.  1.
         13    1    3    3    0    0 -0.83641151040E+01 -0.54853623222E+01 -0.56921733011E+01  0.11509110767E+02  0.10570000000E+00 0. -1.
<mgrwt>
<rscale>  0 0.20005900E+02</rscale>
<asrwt>0</asrwt>
<pdfrwt beam="1">  1        2 0.89622575E-03 0.20005900E+02</pdfrwt>
<pdfrwt beam="2">  1       -2 0.26424821E-02 0.20005900E+02</pdfrwt>
<totfact> 0.37874172E+06</totfact>
</mgrwt>
</event>
<event>
 5    1  0.1607476E-006  0.2000512E+02  0.7818608E-02  0.1745226E+00
          2   -1    0    0  501    0  0.00000000000E+00  0.00000000000E+00  0.47646753405E+01  0.47646760499E+01  0.26000000000E-02 0. -1.
         -2   -1    0    0    0  501 -0.00000000000E+00 -0.00000000000E+00 -0.20998539347E+02  0.20998539508E+02  0.26000000000E-02 0.  1.
       1023    2    1    2    0    0  0.00000000000E+00  0.00000000000E+00 -0.16233864007E+02  0.25763215558E+02  0.20005122727E+02 0.  0.
        -13    1    3    3    0    0  0.23702774765E+01  0.97163742992E+01 -0.79650088961E+01  0.12785878305E+02  0.10570000000E+00 0. -1.
         13    1    3    3    0    0 -0.23702774765E+01 -0.97163742992E+01 -0.82688551108E+01  0.12977337253E+02  0.10570000000E+00 0.  1.
<mgrwt>
<rscale>  0 0.20005123E+02</rscale>
<asrwt>0</asrwt>
<pdfrwt beam="1">  1        2 0.73302705E-03 0.20005123E+02</pdfrwt>
<pdfrwt beam="2">  1       -2 0.32305445E-02 0.20005123E+02</pdfrwt>
<totfact> 0.37259859E+06</totfact>
</mgrwt>
</event>
<event>
 5    1  0.1607476E-006  0.2000130E+02  0.7818608E-02  0.1745302E+00
         -2   -1    0    0    0  501 -0.00000000000E+00  0.00000000000E+00  0.43260393419E+02  0.43260393497E+02  0.26000000000E-02 0.  1.
          2   -1    0    0  501    0  0.00000000000E+00 -0.00000000000E+00 -0.23118834512E+01  0.23118849132E+01  0.26000000000E-02 0. -1.
       1023    2    1    2    0    0  0.00000000000E+00  0.00000000000E+00  0.40948509967E+02  0.45572278410E+02  0.20001302231E+02 0.  0.
        -13    1    3    3    0    0 -0.49735639380E+01  0.86754877134E+01  0.20388246884E+02  0.22708857497E+02  0.10570000000E+00 0. -1.
         13    1    3    3    0    0  0.49735639380E+01 -0.86754877134E+01  0.20560263083E+02  0.22863420913E+02  0.10570000000E+00 0.  1.
<mgrwt>
<rscale>  0 0.20001302E+02</rscale>
<asrwt>0</asrwt>
<pdfrwt beam="2">  1        2 0.35567450E-03 0.20001302E+02</pdfrwt>
<pdfrwt beam="1">  1       -2 0.66554451E-02 0.20001302E+02</pdfrwt>
<totfact> 0.34571428E+06</totfact>
</mgrwt>
</event>
<event>
 4    1  0.1607476E-006  0.2002758E+02  0.7818608E-02  0.1744780E+00
          2   -1    0    0  501    0  0.00000000000E+00  0.00000000000E+00  0.38248122079E+02  0.38248122167E+02  0.26000000000E-02 0.  1.
         -2   -1    0    0    0  501 -0.00000000000E+00 -0.00000000000E+00 -0.26217231846E+01  0.26217244738E+01  0.26000000000E-02 0. -1.
        -13    1    1    2    0    0 -0.81434912622E+01 -0.58262366256E+01  0.17694894204E+02  0.20331796195E+02  0.10570000000E+00 0.  1.
         13    1    1    2    0    0  0.81434912622E+01  0.58262366256E+01  0.17931504690E+02  0.20538050446E+02  0.10570000000E+00 0. -1.
<mgrwt>
<rscale>  0 0.20027583E+02</rscale>
<asrwt>0</asrwt>
<pdfrwt beam="1">  1        2 0.58843266E-02 0.20027583E+02</pdfrwt>
<pdfrwt beam="2">  1       -2 0.40334213E-03 0.20027583E+02</pdfrwt>
<totfact> 0.44500029E+06</totfact>
</mgrwt>
</event>
<event>
 4    1  0.1607476E-006  0.2001242E+02  0.7818608E-02  0.1745081E+00
         -2   -1    0    0    0  501 -0.00000000000E+00  0.00000000000E+00  0.81563979436E+01  0.81563983580E+01  0.26000000000E-02 0.  1.
          2   -1    0    0  501    0  0.00000000000E+00 -0.00000000000E+00 -0.12275547249E+02  0.12275547524E+02  0.26000000000E-02 0. -1.
        -13    1    1    2    0    0 -0.80675796476E+01  0.59167051131E+01 -0.22033896466E+01  0.10244966530E+02  0.10570000000E+00 0. -1.
         13    1    1    2    0    0  0.80675796476E+01 -0.59167051131E+01 -0.19157596583E+01  0.10186979352E+02  0.10570000000E+00 0.  1.
<mgrwt>
<rscale>  0 0.20012422E+02</rscale>
<asrwt>0</asrwt>
<pdfrwt beam="2">  1        2 0.18885458E-02 0.20012422E+02</pdfrwt>
<pdfrwt beam="1">  1       -2 0.12548305E-02 0.20012422E+02</pdfrwt>
<totfact> 0.40010394E+06</totfact>
</mgrwt>
</event>
<event>
 5    1  0.1607476E-006  0.2000279E+02  0.7818608E-02  0.1745273E+00
         -2   -1    0    0    0  501 -0.00000000000E+00  0.00000000000E+00  0.15690326032E+02  0.15690326248E+02  0.26000000000E-02 0.  1.
          2   -1    0    0  501    0  0.00000000000E+00 -0.00000000000E+00 -0.63751307509E+01  0.63751312811E+01  0.26000000000E-02 0. -1.
       1023    2    1    2    0    0  0.00000000000E+00  0.00000000000E+00  0.93151952815E+01  0.22065457529E+02  0.20002788626E+02 0.  0.
        -13    1    3    3    0    0 -0.72149992752E+01  0.69253456143E+01  0.46680218421E+01  0.11037129465E+02  0.10570000000E+00 0.  1.
         13    1    3    3    0    0  0.72149992752E+01 -0.69253456143E+01  0.46471734394E+01  0.11028328064E+02  0.10570000000E+00 0. -1.
<mgrwt>
<rscale>  0 0.20002789E+02</rscale>
<asrwt>0</asrwt>
<pdfrwt beam="2">  1        2 0.98078942E-03 0.20002789E+02</pdfrwt>
<pdfrwt beam="1">  1       -2 0.24138963E-02 0.20002789E+02</pdfrwt>
<totfact> 0.38154683E+06</totfact>
</mgrwt>
</event>
<event>
 4    1  0.1607476E-006  0.2001484E+02  0.7818608E-02  0.1745033E+00
          2   -1    0    0  501    0  0.00000000000E+00  0.00000000000E+00  0.68702619596E+02  0.68702619645E+02  0.26000000000E-02 0. -1.
         -2   -1    0    0    0  501 -0.00000000000E+00 -0.00000000000E+00 -0.14577085741E+01  0.14577108928E+01  0.26000000000E-02 0.  1.
        -13    1    1    2    0    0 -0.67032592475E+01 -0.74256454806E+01  0.32739724904E+02  0.34234115362E+02  0.10570000000E+00 0. -1.
         13    1    1    2    0    0  0.67032592475E+01  0.74256454806E+01  0.34505186118E+02  0.35926215176E+02  0.10570000000E+00 0.  1.
<mgrwt>
<rscale>  0 0.20014843E+02</rscale>
<asrwt>0</asrwt>
<pdfrwt beam="1">  1        2 0.10569633E-01 0.20014843E+02</pdfrwt>
<pdfrwt beam="2">  1       -2 0.22426306E-03 0.20014843E+02</pdfrwt>
<totfact> 0.48770450E+06</totfact>
</mgrwt>
</event>
<event>
 5    1  0.1607476E-006  0.2000301E+02  0.7818608E-02  0.1745268E+00
          2   -1    0    0  501    0  0.00000000000E+00  0.00000000000E+00  0.17758064920E+01  0.17758083954E+01  0.26000000000E-02 0. -1.
         -2   -1    0    0    0  501 -0.00000000000E+00 -0.00000000000E+00 -0.56329335411E+02  0.56329335471E+02  0.26000000000E-02 0.  1.
       1023    2    1    2    0    0  0.00000000000E+00  0.00000000000E+00 -0.54553528919E+02  0.58105143866E+02  0.20003005430E+02 0.  0.
        -13    1    3    3    0    0 -0.86373688803E+01 -0.50406907884E+01 -0.27048421433E+02  0.28838186131E+02  0.10570000000E+00 0. -1.
         13    1    3    3    0    0  0.86373688803E+01  0.50406907884E+01 -0.27505107486E+02  0.29266957736E+02  0.10570000000E+00 0.  1.
<mgrwt>
<rscale>  0 0.20003005E+02</rscale>
<asrwt>0</asrwt>
<pdfrwt beam="1">  1        2 0.27320119E-03 0.20003005E+02</pdfrwt>
<pdfrwt beam="2">  1       -2 0.86660504E-02 0.20003005E+02</pdfrwt>
<totfact> 0.33285700E+06</totfact>
</mgrwt>
</event>
<event>
 5    1  0.1607476E-006  0.2000468E+02  0.7818608E-02  0.1745235E+00
         -2   -1    0    0    0  501 -0.00000000000E+00  0.00000000000E+00  0.89759255266E+01  0.89759259032E+01  0.26000000000E-02 0.  1.
          2   -1    0    0  501    0  0.00000000000E+00 -0.00000000000E+00 -0.11146130691E+02  0.11146130994E+02  0.26000000000E-02 0. -1.
       1023    2    1    2    0    0  0.00000000000E+00  0.00000000000E+00 -0.21702051645E+01  0.20122056898E+02  0.20004684035E+02 0.  0.
        -13    1    3    3    0    0  0.99942096822E+01  0.38246592178E+00 -0.11573991145E+01  0.10068825778E+02  0.10570000000E+00 0.  1.
         13    1    3    3    0    0 -0.99942096822E+01 -0.38246592178E+00 -0.10128060500E+01  0.10053231119E+02  0.10570000000E+00 0. -1.
<mgrwt>
<rscale>  0 0.20004684E+02</rscale>
<asrwt>0</asrwt>
<pdfrwt beam="2">  1        2 0.17147894E-02 0.20004684E+02</pdfrwt>
<pdfrwt beam="1">  1       -2 0.13809117E-02 0.20004684E+02</pdfrwt>
<totfact> 0.39758427E+06</totfact>
</mgrwt>
</event>
<event>
 5    1  0.1607476E-006  0.2000356E+02  0.7818608E-02  0.1745257E+00
          2   -1    0    0  501    0  0.00000000000E+00  0.00000000000E+00  0.57552352145E+02  0.57552352203E+02  0.26000000000E-02 0. -1.
         -2   -1    0    0    0  501 -0.00000000000E+00 -0.00000000000E+00 -0.17381664302E+01  0.17381683747E+01  0.26000000000E-02 0.  1.
       1023    2    1    2    0    0  0.00000000000E+00  0.00000000000E+00  0.55814185715E+02  0.59290520578E+02  0.20003562269E+02 0.  0.
        -13    1    3    3    0    0  0.35835147943E+01  0.93358997973E+01  0.28364836919E+02  0.30076165800E+02  0.10570000000E+00 0.  1.
         13    1    3    3    0    0 -0.35835147943E+01 -0.93358997973E+01  0.27449348795E+02  0.29214354778E+02  0.10570000000E+00 0. -1.
<mgrwt>
<rscale>  0 0.20003562E+02</rscale>
<asrwt>0</asrwt>
<pdfrwt beam="1">  1        2 0.88542085E-02 0.20003562E+02</pdfrwt>
<pdfrwt beam="2">  1       -2 0.26741036E-03 0.20003562E+02</pdfrwt>
<totfact> 0.47348354E+06</totfact>
</mgrwt>
</event>
<event>
 5    1  0.1607476E-006  0.2000521E+02  0.7818608E-02  0.1745225E+00
          2   -1    0    0  501    0  0.00000000000E+00  0.00000000000E+00  0.17512339136E+02  0.17512339329E+02  0.26000000000E-02 0. -1.
         -2   -1    0    0    0  501 -0.00000000000E+00 -0.00000000000E+00 -0.57132325878E+01  0.57132331794E+01  0.26000000000E-02 0.  1.
       1023    2    1    2    0    0  0.00000000000E+00  0.00000000000E+00  0.11799106548E+02  0.23225572508E+02  0.20005206897E+02 0.  0.
        -13    1    3    3    0    0 -0.26179240894E+01  0.96530692133E+01  0.59866766841E+01  0.11657046881E+02  0.10570000000E+00 0. -1.
         13    1    3    3    0    0  0.26179240894E+01 -0.96530692133E+01  0.58124298636E+01  0.11568525627E+02  0.10570000000E+00 0.  1.
<mgrwt>
<rscale>  0 0.20005207E+02</rscale>
<asrwt>0</asrwt>
<pdfrwt beam="1">  1        2 0.26942061E-02 0.20005207E+02</pdfrwt>
<pdfrwt beam="2">  1       -2 0.87895893E-03 0.20005207E+02</pdfrwt>
<totfact> 0.41180563E+06</totfact>
</mgrwt>
</event>
<event>
 5    1  0.1607476E-006  0.2000280E+02  0.7818608E-02  0.1745272E+00
         -2   -1    0    0    0  501 -0.00000000000E+00  0.00000000000E+00  0.82003454665E+01  0.82003458787E+01  0.26000000000E-02 0.  1.
          2   -1    0    0  501    0  0.00000000000E+00 -0.00000000000E+00 -0.12198023772E+02  0.12198024049E+02  0.26000000000E-02 0. -1.
       1023    2    1    2    0    0  0.00000000000E+00  0.00000000000E+00 -0.39976783056E+01  0.20398369928E+02  0.20002801401E+02 0.  0.
        -13    1    3    3    0    0  0.82093154415E+01  0.57116463099E+01 -0.19653275702E+01  0.10192617355E+02  0.10570000000E+00 0.  1.
         13    1    3    3    0    0 -0.82093154415E+01 -0.57116463099E+01 -0.20323507355E+01  0.10205752573E+02  0.10570000000E+00 0. -1.
<mgrwt>
<rscale>  0 0.20002801E+02</rscale>
<asrwt>0</asrwt>
<pdfrwt beam="2">  1        2 0.18766191E-02 0.20002801E+02</pdfrwt>
<pdfrwt beam="1">  1       -2 0.12615917E-02 0.20002801E+02</pdfrwt>
<totfact> 0.40035093E+06</totfact>
</mgrwt>
</event>
<event>
 4    1  0.1607476E-006  0.2009230E+02  0.7818608E-02  0.1743499E+00
         -2   -1    0    0    0  501 -0.00000000000E+00  0.00000000000E+00  0.41068179433E+02  0.41068179516E+02  0.26000000000E-02 0.  1.
          2   -1    0    0  501    0  0.00000000000E+00 -0.00000000000E+00 -0.24575022985E+01  0.24575036738E+01  0.26000000000E-02 0. -1.
        -13    1    1    2    0    0 -0.42510161858E+01  0.91015926312E+01  0.19170444018E+02  0.21643179604E+02  0.10570000000E+00 0.  1.
         13    1    1    2    0    0  0.42510161858E+01 -0.91015926312E+01  0.19440233117E+02  0.21882503585E+02  0.10570000000E+00 0. -1.
<mgrwt>
<rscale>  0 0.20092305E+02</rscale>
<asrwt>0</asrwt>
<pdfrwt beam="2">  1        2 0.37807741E-03 0.20092305E+02</pdfrwt>
<pdfrwt beam="1">  1       -2 0.63181812E-02 0.20092305E+02</pdfrwt>
<totfact> 0.34458092E+06</totfact>
</mgrwt>
</event>
<event>
 5    1  0.1607476E-006  0.2000250E+02  0.7818608E-02  0.1745278E+00
         -2   -1    0    0    0  501 -0.00000000000E+00  0.00000000000E+00  0.17739128612E+01  0.17739147666E+01  0.26000000000E-02 0. -1.
          2   -1    0    0  501    0  0.00000000000E+00 -0.00000000000E+00 -0.56386625082E+02  0.56386625142E+02  0.26000000000E-02 0.  1.
       1023    2    1    2    0    0  0.00000000000E+00  0.00000000000E+00 -0.54612712221E+02  0.58160539908E+02  0.20002501502E+02 0.  0.
        -13    1    3    3    0    0 -0.95787057414E+00 -0.99545004274E+01 -0.27116815286E+02  0.28902291234E+02  0.10570000000E+00 0. -1.
         13    1    3    3    0    0  0.95787057414E+00  0.99545004274E+01 -0.27495896935E+02  0.29258248675E+02  0.10570000000E+00 0.  1.
<mgrwt>
<rscale>  0 0.20002502E+02</rscale>
<asrwt>0</asrwt>
<pdfrwt beam="2">  1        2 0.86748642E-02 0.20002502E+02</pdfrwt>
<pdfrwt beam="1">  1       -2 0.27290987E-03 0.20002502E+02</pdfrwt>
<totfact> 0.47195624E+06</totfact>
</mgrwt>
</event>
<event>
 4    1  0.1607476E-006  0.2002762E+02  0.7818608E-02  0.1744779E+00
         -2   -1    0    0    0  501 -0.00000000000E+00  0.00000000000E+00  0.81056632123E+01  0.81056636293E+01  0.26000000000E-02 0.  1.
          2   -1    0    0  501    0  0.00000000000E+00 -0.00000000000E+00 -0.12371151716E+02  0.12371151989E+02  0.26000000000E-02 0. -1.
        -13    1    1    2    0    0  0.30709609581E+00  0.10008316898E+02 -0.22013978341E+01  0.10252708913E+02  0.10570000000E+00 0.  1.
         13    1    1    2    0    0 -0.30709609581E+00 -0.10008316898E+02 -0.20640906698E+01  0.10224106706E+02  0.10570000000E+00 0. -1.
<mgrwt>
<rscale>  0 0.20027621E+02</rscale>
<asrwt>0</asrwt>
<pdfrwt beam="2">  1        2 0.19032542E-02 0.20027621E+02</pdfrwt>
<pdfrwt beam="1">  1       -2 0.12470252E-02 0.20027621E+02</pdfrwt>
<totfact> 0.39964729E+06</totfact>
</mgrwt>
</event>
<event>
 5    1  0.1607476E-006  0.2000181E+02  0.7818608E-02  0.1745292E+00
         -2   -1    0    0    0  501 -0.00000000000E+00  0.00000000000E+00  0.11059835273E+02  0.11059835578E+02  0.26000000000E-02 0. -1.
          2   -1    0    0  501    0  0.00000000000E+00 -0.00000000000E+00 -0.90433606028E+01  0.90433609765E+01  0.26000000000E-02 0.  1.
       1023    2    1    2    0    0  0.00000000000E+00  0.00000000000E+00  0.20164746698E+01  0.20103196555E+02  0.20001808459E+02 0.  0.
        -13    1    3    3    0    0  0.95707857494E+01  0.28992995471E+01  0.10405747973E+01  0.10054841924E+02  0.10570000000E+00 0. -1.
         13    1    3    3    0    0 -0.95707857494E+01 -0.28992995471E+01  0.97589987249E+00  0.10048354630E+02  0.10570000000E+00 0.  1.
<mgrwt>
<rscale>  0 0.20001808E+02</rscale>
<asrwt>0</asrwt>
<pdfrwt beam="2">  1        2 0.13912863E-02 0.20001808E+02</pdfrwt>
<pdfrwt beam="1">  1       -2 0.17015132E-02 0.20001808E+02</pdfrwt>
<totfact> 0.39165813E+06</totfact>
</mgrwt>
</event>
<event>
 4    1  0.1607476E-006  0.2005214E+02  0.7818608E-02  0.1744293E+00
          2   -1    0    0  501    0  0.00000000000E+00  0.00000000000E+00  0.65511997780E+01  0.65512002939E+01  0.26000000000E-02 0.  1.
         -2   -1    0    0    0  501 -0.00000000000E+00 -0.00000000000E+00 -0.15344067824E+02  0.15344068044E+02  0.26000000000E-02 0. -1.
        -13    1    1    2    0    0  0.19650834849E+01 -0.98303074342E+01 -0.45274273543E+01  0.11000239465E+02  0.10570000000E+00 0.  1.
         13    1    1    2    0    0 -0.19650834849E+01  0.98303074342E+01 -0.42654406913E+01  0.10895028873E+02  0.10570000000E+00 0. -1.
<mgrwt>
<rscale>  0 0.20052138E+02</rscale>
<asrwt>0</asrwt>
<pdfrwt beam="1">  1        2 0.10078769E-02 0.20052138E+02</pdfrwt>
<pdfrwt beam="2">  1       -2 0.23606259E-02 0.20052138E+02</pdfrwt>
<totfact> 0.38017069E+06</totfact>
</mgrwt>
</event>
<event>
 5    1  0.1607476E-006  0.2000385E+02  0.7818608E-02  0.1745251E+00
         -2   -1    0    0    0  501 -0.00000000000E+00  0.00000000000E+00  0.91853720571E+01  0.91853724250E+01  0.26000000000E-02 0. -1.
          2   -1    0    0  501    0  0.00000000000E+00 -0.00000000000E+00 -0.10891071479E+02  0.10891071789E+02  0.26000000000E-02 0.  1.
       1023    2    1    2    0    0  0.00000000000E+00  0.00000000000E+00 -0.17056994219E+01  0.20076444214E+02  0.20003854673E+02 0.  0.
        -13    1    3    3    0    0  0.61503993353E+01 -0.78861764450E+01 -0.94366036426E+00  0.10045937402E+02  0.10570000000E+00 0.  1.
         13    1    3    3    0    0 -0.61503993353E+01  0.78861764450E+01 -0.76203905763E+00  0.10030506813E+02  0.10570000000E+00 0. -1.
<mgrwt>
<rscale>  0 0.20003855E+02</rscale>
<asrwt>0</asrwt>
<pdfrwt beam="2">  1        2 0.16755495E-02 0.20003855E+02</pdfrwt>
<pdfrwt beam="1">  1       -2 0.14131342E-02 0.20003855E+02</pdfrwt>
<totfact> 0.39694180E+06</totfact>
</mgrwt>
</event>
<event>
 5    1  0.1607476E-006  0.2000218E+02  0.7818608E-02  0.1745285E+00
         -2   -1    0    0    0  501 -0.00000000000E+00  0.00000000000E+00  0.27859963644E+02  0.27859963765E+02  0.26000000000E-02 0. -1.
          2   -1    0    0  501    0  0.00000000000E+00 -0.00000000000E+00 -0.35901615895E+01  0.35901625310E+01  0.26000000000E-02 0.  1.
       1023    2    1    2    0    0  0.00000000000E+00  0.00000000000E+00  0.24269802054E+02  0.31450126296E+02  0.20002178688E+02 0.  0.
        -13    1    3    3    0    0 -0.88946352485E+01 -0.45711520512E+01  0.12094866599E+02  0.15694168911E+02  0.10570000000E+00 0. -1.
         13    1    3    3    0    0  0.88946352485E+01  0.45711520512E+01  0.12174935455E+02  0.15755957385E+02  0.10570000000E+00 0.  1.
<mgrwt>
<rscale>  0 0.20002179E+02</rscale>
<asrwt>0</asrwt>
<pdfrwt beam="2">  1        2 0.55233264E-03 0.20002179E+02</pdfrwt>
<pdfrwt beam="1">  1       -2 0.42861483E-02 0.20002179E+02</pdfrwt>
<totfact> 0.36324069E+06</totfact>
</mgrwt>
</event>
<event>
 5    1  0.1607476E-006  0.2000661E+02  0.7818608E-02  0.1745197E+00
          2   -1    0    0  501    0  0.00000000000E+00  0.00000000000E+00  0.67650041358E+01  0.67650046354E+01  0.26000000000E-02 0. -1.
         -2   -1    0    0    0  501 -0.00000000000E+00 -0.00000000000E+00 -0.14791734415E+02  0.14791734644E+02  0.26000000000E-02 0.  1.
       1023    2    1    2    0    0  0.00000000000E+00  0.00000000000E+00 -0.80267302796E+01  0.21556739279E+02  0.20006614141E+02 0.  0.
        -13    1    3    3    0    0 -0.88527867368E+01 -0.46536443129E+01 -0.38371667271E+01  0.10712761520E+02  0.10570000000E+00 0.  1.
         13    1    3    3    0    0  0.88527867368E+01  0.46536443129E+01 -0.41895635525E+01  0.10843977760E+02  0.10570000000E+00 0. -1.
<mgrwt>
<rscale>  0 0.20006614E+02</rscale>
<asrwt>0</asrwt>
<pdfrwt beam="1">  1        2 0.10407699E-02 0.20006614E+02</pdfrwt>
<pdfrwt beam="2">  1       -2 0.22756515E-02 0.20006614E+02</pdfrwt>
<totfact> 0.38310948E+06</totfact>
</mgrwt>
</event>
<event>
 4    1  0.1607476E-006  0.2020538E+02  0.7818608E-02  0.1741274E+00
         -2   -1    0    0    0  501 -0.00000000000E+00  0.00000000000E+00  0.59668080634E+01  0.59668086299E+01  0.26000000000E-02 0.  1.
          2   -1    0    0  501    0  0.00000000000E+00 -0.00000000000E+00 -0.17105345745E+02  0.17105345943E+02  0.26000000000E-02 0. -1.
        -13    1    1    2    0    0 -0.68484155225E+01  0.74098247162E+01 -0.50019319264E+01  0.11262184201E+02  0.10570000000E+00 0.  1.
         13    1    1    2    0    0  0.68484155225E+01 -0.74098247162E+01 -0.61366057557E+01  0.11809970372E+02  0.10570000000E+00 0. -1.
<mgrwt>
<rscale>  0 0.20205378E+02</rscale>
<asrwt>0</asrwt>
<pdfrwt beam="2">  1        2 0.26315917E-02 0.20205378E+02</pdfrwt>
<pdfrwt beam="1">  1       -2 0.91797054E-03 0.20205378E+02</pdfrwt>
<totfact> 0.40184956E+06</totfact>
</mgrwt>
</event>
<event>
 5    1  0.1607476E-006  0.2000618E+02  0.7818608E-02  0.1745205E+00
          2   -1    0    0  501    0  0.00000000000E+00  0.00000000000E+00  0.72192130721E+01  0.72192135402E+01  0.26000000000E-02 0. -1.
         -2   -1    0    0    0  501 -0.00000000000E+00 -0.00000000000E+00 -0.13860486081E+02  0.13860486324E+02  0.26000000000E-02 0.  1.
       1023    2    1    2    0    0  0.00000000000E+00  0.00000000000E+00 -0.66412730085E+01  0.21079699865E+02  0.20006180025E+02 0.  0.
        -13    1    3    3    0    0 -0.23885543341E+01 -0.97131086256E+01 -0.32878825542E+01  0.10529530624E+02  0.10570000000E+00 0. -1.
         13    1    3    3    0    0  0.23885543341E+01  0.97131086256E+01 -0.33533904543E+01  0.10550169241E+02  0.10570000000E+00 0.  1.
<mgrwt>
<rscale>  0 0.20006180E+02</rscale>
<asrwt>0</asrwt>
<pdfrwt beam="1">  1        2 0.11106482E-02 0.20006180E+02</pdfrwt>
<pdfrwt beam="2">  1       -2 0.21323825E-02 0.20006180E+02</pdfrwt>
<totfact> 0.38500810E+06</totfact>
</mgrwt>
</event>
<event>
 5    1  0.1607476E-006  0.2000618E+02  0.7818608E-02  0.1745205E+00
         -2   -1    0    0    0  501 -0.00000000000E+00  0.00000000000E+00  0.40528468502E+02  0.40528468586E+02  0.26000000000E-02 0. -1.
          2   -1    0    0  501    0  0.00000000000E+00 -0.00000000000E+00 -0.24689269369E+01  0.24689283060E+01  0.26000000000E-02 0.  1.
       1023    2    1    2    0    0  0.00000000000E+00  0.00000000000E+00  0.38059541565E+02  0.42997396892E+02  0.20006184926E+02 0.  0.
        -13    1    3    3    0    0  0.34427411492E+01 -0.93913841480E+01  0.19005886869E+02  0.21477557380E+02  0.10570000000E+00 0. -1.
         13    1    3    3    0    0 -0.34427411492E+01  0.93913841480E+01  0.19053654696E+02  0.21519839512E+02  0.10570000000E+00 0.  1.
<mgrwt>
<rscale>  0 0.20006185E+02</rscale>
<asrwt>0</asrwt>
<pdfrwt beam="2">  1        2 0.37983504E-03 0.20006185E+02</pdfrwt>
<pdfrwt beam="1">  1       -2 0.62351489E-02 0.20006185E+02</pdfrwt>
<totfact> 0.34840384E+06</totfact>
</mgrwt>
</event>
<event>
 5    1  0.1607476E-006  0.2000676E+02  0.7818608E-02  0.1745194E+00
          2   -1    0    0  501    0  0.00000000000E+00  0.00000000000E+00  0.29903743137E+02  0.29903743250E+02  0.26000000000E-02 0. -1.
         -2   -1    0    0    0  501 -0.00000000000E+00 -0.00000000000E+00 -0.33463236740E+01  0.33463246841E+01  0.26000000000E-02 0.  1.
       1023    2    1    2    0    0  0.00000000000E+00  0.00000000000E+00  0.26557419463E+02  0.33250067934E+02  0.20006761084E+02 0.  0.
        -13    1    3    3    0    0  0.92707206446E+01 -0.37500728539E+01  0.12917865125E+02  0.16336820975E+02  0.10570000000E+00 0. -1.
         13    1    3    3    0    0 -0.92707206446E+01  0.37500728539E+01  0.13639554338E+02  0.16913246959E+02  0.10570000000E+00 0.  1.
<mgrwt>
<rscale>  0 0.20006761E+02</rscale>
<asrwt>0</asrwt>
<pdfrwt beam="1">  1        2 0.46005756E-02 0.20006761E+02</pdfrwt>
<pdfrwt beam="2">  1       -2 0.51481915E-03 0.20006761E+02</pdfrwt>
<totfact> 0.43325109E+06</totfact>
</mgrwt>
</event>
<event>
 4    1  0.1607476E-006  0.2002147E+02  0.7818608E-02  0.1744901E+00
         -2   -1    0    0    0  501 -0.00000000000E+00  0.00000000000E+00  0.35864741300E+02  0.35864741394E+02  0.26000000000E-02 0.  1.
          2   -1    0    0  501    0  0.00000000000E+00 -0.00000000000E+00 -0.27942421832E+01  0.27942433928E+01  0.26000000000E-02 0. -1.
        -13    1    1    2    0    0  0.13578215701E+01  0.99109817418E+01  0.17237800118E+02  0.19930483283E+02  0.10570000000E+00 0.  1.
         13    1    1    2    0    0 -0.13578215701E+01 -0.99109817418E+01  0.15832698999E+02  0.18728501504E+02  0.10570000000E+00 0. -1.
<mgrwt>
<rscale>  0 0.20021468E+02</rscale>
<asrwt>0</asrwt>
<pdfrwt beam="2">  1        2 0.42988353E-03 0.20021468E+02</pdfrwt>
<pdfrwt beam="1">  1       -2 0.55176524E-02 0.20021468E+02</pdfrwt>
<totfact> 0.35292172E+06</totfact>
</mgrwt>
</event>
<event>
 5    1  0.1607476E-006  0.2000268E+02  0.7818608E-02  0.1745275E+00
         -2   -1    0    0    0  501 -0.00000000000E+00  0.00000000000E+00  0.97930806000E+00  0.97931151141E+00  0.26000000000E-02 0. -1.
          2   -1    0    0  501    0  0.00000000000E+00 -0.00000000000E+00 -0.10214012277E+03  0.10214012281E+03  0.26000000000E-02 0.  1.
       1023    2    1    2    0    0  0.00000000000E+00  0.00000000000E+00 -0.10116081471E+03  0.10311943432E+03  0.20002682334E+02 0.  0.
        -13    1    3    3    0    0 -0.14731784794E+01 -0.98910504547E+01 -0.50003598041E+02  0.50993863587E+02  0.10570000000E+00 0.  1.
         13    1    3    3    0    0  0.14731784794E+01  0.98910504547E+01 -0.51157216671E+02  0.52125570730E+02  0.10570000000E+00 0. -1.
<mgrwt>
<rscale>  0 0.20002682E+02</rscale>
<asrwt>0</asrwt>
<pdfrwt beam="2">  1        2 0.15713857E-01 0.20002682E+02</pdfrwt>
<pdfrwt beam="1">  1       -2 0.15066313E-03 0.20002682E+02</pdfrwt>
<totfact> 0.52997847E+06</totfact>
</mgrwt>
</event>
<event>
 5    1  0.1607476E-006  0.2001034E+02  0.7818608E-02  0.1745123E+00
         -2   -1    0    0    0  501 -0.00000000000E+00  0.00000000000E+00  0.43112965047E+01  0.43112972887E+01  0.26000000000E-02 0. -1.
          2   -1    0    0  501    0  0.00000000000E+00 -0.00000000000E+00 -0.23218859450E+02  0.23218859596E+02  0.26000000000E-02 0.  1.
       1023    2    1    2    0    0  0.00000000000E+00  0.00000000000E+00 -0.18907562946E+02  0.27530156885E+02  0.20010337367E+02 0.  0.
        -13    1    3    3    0    0 -0.53727102112E+01  0.84361712412E+01 -0.91246591652E+01  0.13539039020E+02  0.10570000000E+00 0. -1.
         13    1    3    3    0    0  0.53727102112E+01 -0.84361712412E+01 -0.97829037805E+01  0.13991117864E+02  0.10570000000E+00 0.  1.
<mgrwt>
<rscale>  0 0.20010337E+02</rscale>
<asrwt>0</asrwt>
<pdfrwt beam="2">  1        2 0.35721322E-02 0.20010337E+02</pdfrwt>
<pdfrwt beam="1">  1       -2 0.66327647E-03 0.20010337E+02</pdfrwt>
<totfact> 0.42203215E+06</totfact>
</mgrwt>
</event>
<event>
 5    1  0.1607476E-006  0.2000208E+02  0.7818608E-02  0.1745287E+00
          2   -1    0    0  501    0  0.00000000000E+00  0.00000000000E+00  0.46456539617E+01  0.46456546893E+01  0.26000000000E-02 0.  1.
         -2   -1    0    0    0  501 -0.00000000000E+00 -0.00000000000E+00 -0.21529974184E+02  0.21529974341E+02  0.26000000000E-02 0. -1.
       1023    2    1    2    0    0  0.00000000000E+00  0.00000000000E+00 -0.16884320222E+02  0.26175629030E+02  0.20002082036E+02 0.  0.
        -13    1    3    3    0    0  0.33698161202E+00  0.99943769258E+01 -0.83213514690E+01  0.13009888143E+02  0.10570000000E+00 0. -1.
         13    1    3    3    0    0 -0.33698161202E+00 -0.99943769258E+01 -0.85629687532E+01  0.13165740887E+02  0.10570000000E+00 0.  1.
<mgrwt>
<rscale>  0 0.20002082E+02</rscale>
<asrwt>0</asrwt>
<pdfrwt beam="1">  1        2 0.71471607E-03 0.20002082E+02</pdfrwt>
<pdfrwt beam="2">  1       -2 0.33123037E-02 0.20002082E+02</pdfrwt>
<totfact> 0.37192534E+06</totfact>
</mgrwt>
</event>
<event>
 5    1  0.1607476E-006  0.2001204E+02  0.7818608E-02  0.1745089E+00
          2   -1    0    0  501    0  0.00000000000E+00  0.00000000000E+00  0.74780928116E+02  0.74780928162E+02  0.26000000000E-02 0.  1.
         -2   -1    0    0    0  501 -0.00000000000E+00 -0.00000000000E+00 -0.13388484134E+01  0.13388509380E+01  0.26000000000E-02 0. -1.
       1023    2    1    2    0    0  0.00000000000E+00  0.00000000000E+00  0.73442079703E+02  0.76119779100E+02  0.20012038853E+02 0.  0.
        -13    1    3    3    0    0  0.96607573409E+01  0.26034850100E+01  0.36834239291E+02  0.38169106922E+02  0.10570000000E+00 0. -1.
         13    1    3    3    0    0 -0.96607573409E+01 -0.26034850100E+01  0.36607840412E+02  0.37950672177E+02  0.10570000000E+00 0.  1.
<mgrwt>
<rscale>  0 0.20012039E+02</rscale>
<asrwt>0</asrwt>
<pdfrwt beam="1">  1        2 0.11504760E-01 0.20012039E+02</pdfrwt>
<pdfrwt beam="2">  1       -2 0.20597685E-03 0.20012039E+02</pdfrwt>
<totfact> 0.49570422E+06</totfact>
</mgrwt>
</event>
<event>
 4    1  0.1607476E-006  0.2001803E+02  0.7818608E-02  0.1744970E+00
         -2   -1    0    0    0  501 -0.00000000000E+00  0.00000000000E+00  0.75087504330E+01  0.75087508832E+01  0.26000000000E-02 0.  1.
          2   -1    0    0  501    0  0.00000000000E+00 -0.00000000000E+00 -0.13341817946E+02  0.13341818199E+02  0.26000000000E-02 0. -1.
        -13    1    1    2    0    0 -0.84896903888E+01  0.52984167768E+01 -0.30680228444E+01  0.10467664491E+02  0.10570000000E+00 0.  1.
         13    1    1    2    0    0  0.84896903888E+01 -0.52984167768E+01 -0.27650446684E+01  0.10382904591E+02  0.10570000000E+00 0. -1.
<mgrwt>
<rscale>  0 0.20018031E+02</rscale>
<asrwt>0</asrwt>
<pdfrwt beam="2">  1        2 0.20525874E-02 0.20018031E+02</pdfrwt>
<pdfrwt beam="1">  1       -2 0.11551924E-02 0.20018031E+02</pdfrwt>
<totfact> 0.40238411E+06</totfact>
</mgrwt>
</event>
<event>
 4    1  0.1607476E-006  0.2002013E+02  0.7818608E-02  0.1744928E+00
          2   -1    0    0  501    0  0.00000000000E+00  0.00000000000E+00  0.78273799662E+01  0.78273803980E+01  0.26000000000E-02 0. -1.
         -2   -1    0    0    0  501 -0.00000000000E+00 -0.00000000000E+00 -0.12801394176E+02  0.12801394440E+02  0.26000000000E-02 0.  1.
        -13    1    1    2    0    0  0.74721038924E+01 -0.66572430303E+01 -0.26904681579E+01  0.10363445988E+02  0.10570000000E+00 0. -1.
         13    1    1    2    0    0 -0.74721038924E+01  0.66572430303E+01 -0.22835460519E+01  0.10265328850E+02  0.10570000000E+00 0.  1.
<mgrwt>
<rscale>  0 0.20020128E+02</rscale>
<asrwt>0</asrwt>
<pdfrwt beam="1">  1        2 0.12042124E-02 0.20020128E+02</pdfrwt>
<pdfrwt beam="2">  1       -2 0.19694453E-02 0.20020128E+02</pdfrwt>
<totfact> 0.38671063E+06</totfact>
</mgrwt>
</event>
<event>
 5    1  0.1607476E-006  0.2000255E+02  0.7818608E-02  0.1745277E+00
         -2   -1    0    0    0  501 -0.00000000000E+00  0.00000000000E+00  0.22615257881E+01  0.22615272827E+01  0.26000000000E-02 0.  1.
          2   -1    0    0  501    0  0.00000000000E+00 -0.00000000000E+00 -0.44229179096E+02  0.44229179172E+02  0.26000000000E-02 0. -1.
       1023    2    1    2    0    0  0.00000000000E+00  0.00000000000E+00 -0.41967653308E+02  0.46490706455E+02  0.20002546401E+02 0.  0.
        -13    1    3    3    0    0 -0.12354436064E+01  0.99240024499E+01 -0.21091537314E+02  0.23342584782E+02  0.10570000000E+00 0.  1.
         13    1    3    3    0    0  0.12354436064E+01 -0.99240024499E+01 -0.20876115994E+02  0.23148121673E+02  0.10570000000E+00 0. -1.
<mgrwt>
<rscale>  0 0.20002546E+02</rscale>
<asrwt>0</asrwt>
<pdfrwt beam="2">  1        2 0.68044886E-02 0.20002546E+02</pdfrwt>
<pdfrwt beam="1">  1       -2 0.34792720E-03 0.20002546E+02</pdfrwt>
<totfact> 0.45497894E+06</totfact>
</mgrwt>
</event>
<event>
 4    1  0.1607476E-006  0.2001284E+02  0.7818608E-02  0.1745073E+00
         -2   -1    0    0    0  501 -0.00000000000E+00  0.00000000000E+00  0.55102531151E+01  0.55102537285E+01  0.26000000000E-02 0.  1.
          2   -1    0    0  501    0  0.00000000000E+00 -0.00000000000E+00 -0.18171296599E+02  0.18171296785E+02  0.26000000000E-02 0. -1.
        -13    1    1    2    0    0 -0.77308555387E+01  0.63471286849E+01 -0.66324666993E+01  0.12002206335E+02  0.10570000000E+00 0. -1.
         13    1    1    2    0    0  0.77308555387E+01 -0.63471286849E+01 -0.60285767848E+01  0.11679344179E+02  0.10570000000E+00 0.  1.
<mgrwt>
<rscale>  0 0.20012841E+02</rscale>
<asrwt>0</asrwt>
<pdfrwt beam="2">  1        2 0.27955841E-02 0.20012841E+02</pdfrwt>
<pdfrwt beam="1">  1       -2 0.84773132E-03 0.20012841E+02</pdfrwt>
<totfact> 0.41273399E+06</totfact>
</mgrwt>
</event>
<event>
 5    1  0.1607476E-006  0.2000193E+02  0.7818608E-02  0.1745290E+00
          2   -1    0    0  501    0  0.00000000000E+00  0.00000000000E+00  0.25382119687E+01  0.25382133004E+01  0.26000000000E-02 0.  1.
         -2   -1    0    0    0  501 -0.00000000000E+00 -0.00000000000E+00 -0.39405424237E+02  0.39405424322E+02  0.26000000000E-02 0. -1.
       1023    2    1    2    0    0  0.00000000000E+00  0.00000000000E+00 -0.36867212268E+02  0.41943637623E+02  0.20001934822E+02 0.  0.
        -13    1    3    3    0    0 -0.21013593438E+01 -0.97770933744E+01 -0.18496889141E+02  0.21027442696E+02  0.10570000000E+00 0. -1.
         13    1    3    3    0    0  0.21013593438E+01  0.97770933744E+01 -0.18370323127E+02  0.20916194927E+02  0.10570000000E+00 0.  1.
<mgrwt>
<rscale>  0 0.20001935E+02</rscale>
<asrwt>0</asrwt>
<pdfrwt beam="1">  1        2 0.39049429E-03 0.20001935E+02</pdfrwt>
<pdfrwt beam="2">  1       -2 0.60623726E-02 0.20001935E+02</pdfrwt>
<totfact> 0.34977127E+06</totfact>
</mgrwt>
</event>
<event>
 4    1  0.1607476E-006  0.2038853E+02  0.7818608E-02  0.1737710E+00
         -2   -1    0    0    0  501 -0.00000000000E+00  0.00000000000E+00  0.13296882218E+02  0.13296882473E+02  0.26000000000E-02 0.  1.
          2   -1    0    0  501    0  0.00000000000E+00 -0.00000000000E+00 -0.78155964625E+01  0.78155968950E+01  0.26000000000E-02 0. -1.
        -13    1    1    2    0    0  0.14451339658E+01  0.10076600784E+02  0.21872468530E+01  0.10412565334E+02  0.10570000000E+00 0. -1.
         13    1    1    2    0    0 -0.14451339658E+01 -0.10076600784E+02  0.32940389029E+01  0.10699914034E+02  0.10570000000E+00 0.  1.
<mgrwt>
<rscale>  0 0.20388533E+02</rscale>
<asrwt>0</asrwt>
<pdfrwt beam="2">  1        2 0.12023995E-02 0.20388533E+02</pdfrwt>
<pdfrwt beam="1">  1       -2 0.20456742E-02 0.20388533E+02</pdfrwt>
<totfact> 0.37074341E+06</totfact>
</mgrwt>
</event>
<event>
 5    1  0.1607476E-006  0.2000114E+02  0.7818608E-02  0.1745306E+00
         -2   -1    0    0    0  501 -0.00000000000E+00  0.00000000000E+00  0.19792737585E+01  0.19792754662E+01  0.26000000000E-02 0.  1.
          2   -1    0    0  501    0  0.00000000000E+00 -0.00000000000E+00 -0.50529293383E+02  0.50529293450E+02  0.26000000000E-02 0. -1.
       1023    2    1    2    0    0  0.00000000000E+00  0.00000000000E+00 -0.48550019624E+02  0.52508568916E+02  0.20001135070E+02 0.  0.
        -13    1    3    3    0    0 -0.69757685587E+01 -0.71651118253E+01 -0.24280309802E+02  0.26259184889E+02  0.10570000000E+00 0. -1.
         13    1    3    3    0    0  0.69757685587E+01  0.71651118253E+01 -0.24269709822E+02  0.26249384027E+02  0.10570000000E+00 0.  1.
<mgrwt>
<rscale>  0 0.20001135E+02</rscale>
<asrwt>0</asrwt>
<pdfrwt beam="2">  1        2 0.77737366E-02 0.20001135E+02</pdfrwt>
<pdfrwt beam="1">  1       -2 0.30450383E-03 0.20001135E+02</pdfrwt>
<totfact> 0.46396124E+06</totfact>
</mgrwt>
</event>
<event>
 5    1  0.1607476E-006  0.2000331E+02  0.7818608E-02  0.1745262E+00
         -2   -1    0    0    0  501 -0.00000000000E+00  0.00000000000E+00  0.87803646918E+02  0.87803646956E+02  0.26000000000E-02 0. -1.
          2   -1    0    0  501    0  0.00000000000E+00 -0.00000000000E+00 -0.11392808179E+01  0.11392837847E+01  0.26000000000E-02 0.  1.
       1023    2    1    2    0    0  0.00000000000E+00  0.00000000000E+00  0.86664366100E+02  0.88942930741E+02  0.20003314158E+02 0.  0.
        -13    1    3    3    0    0 -0.94163342568E+01  0.33671355399E+01  0.42752113945E+02  0.43906256637E+02  0.10570000000E+00 0.  1.
         13    1    3    3    0    0  0.94163342568E+01 -0.33671355399E+01  0.43912252155E+02  0.45036674104E+02  0.10570000000E+00 0. -1.
<mgrwt>
<rscale>  0 0.20003314E+02</rscale>
<asrwt>0</asrwt>
<pdfrwt beam="2">  1        2 0.17527420E-03 0.20003314E+02</pdfrwt>
<pdfrwt beam="1">  1       -2 0.13508254E-01 0.20003314E+02</pdfrwt>
<totfact> 0.30632786E+06</totfact>
</mgrwt>
</event>
<event>
 5    1  0.1607476E-006  0.2000793E+02  0.7818608E-02  0.1745170E+00
         -2   -1    0    0    0  501 -0.00000000000E+00  0.00000000000E+00  0.29663454808E+02  0.29663454922E+02  0.26000000000E-02 0.  1.
          2   -1    0    0  501    0  0.00000000000E+00 -0.00000000000E+00 -0.33738250081E+01  0.33738260099E+01  0.26000000000E-02 0. -1.
       1023    2    1    2    0    0  0.00000000000E+00  0.00000000000E+00  0.26289629800E+02  0.33037280932E+02  0.20007930836E+02 0.  0.
        -13    1    3    3    0    0 -0.98545687148E+01 -0.17025217208E+01  0.12750432174E+02  0.16204807863E+02  0.10570000000E+00 0. -1.
         13    1    3    3    0    0  0.98545687148E+01  0.17025217208E+01  0.13539197626E+02  0.16832473069E+02  0.10570000000E+00 0.  1.
<mgrwt>
<rscale>  0 0.20007931E+02</rscale>
<asrwt>0</asrwt>
<pdfrwt beam="2">  1        2 0.51905008E-03 0.20007931E+02</pdfrwt>
<pdfrwt beam="1">  1       -2 0.45636086E-02 0.20007931E+02</pdfrwt>
<totfact> 0.36074676E+06</totfact>
</mgrwt>
</event>
<event>
 5    1  0.1607476E-006  0.2000291E+02  0.7818608E-02  0.1745270E+00
          2   -1    0    0  501    0  0.00000000000E+00  0.00000000000E+00  0.69636621969E+01  0.69636626822E+01  0.26000000000E-02 0. -1.
         -2   -1    0    0    0  501 -0.00000000000E+00 -0.00000000000E+00 -0.14364432507E+02  0.14364432742E+02  0.26000000000E-02 0.  1.
       1023    2    1    2    0    0  0.00000000000E+00  0.00000000000E+00 -0.74007703099E+01  0.21328095424E+02  0.20002906120E+02 0.  0.
        -13    1    3    3    0    0 -0.82437219087E+01 -0.56620551624E+01 -0.36913848389E+01  0.10660924636E+02  0.10570000000E+00 0.  1.
         13    1    3    3    0    0  0.82437219087E+01  0.56620551624E+01 -0.37093854710E+01  0.10667170789E+02  0.10570000000E+00 0. -1.
<mgrwt>
<rscale>  0 0.20002906E+02</rscale>
<asrwt>0</asrwt>
<pdfrwt beam="1">  1        2 0.10713327E-02 0.20002906E+02</pdfrwt>
<pdfrwt beam="2">  1       -2 0.22099128E-02 0.20002906E+02</pdfrwt>
<totfact> 0.38411260E+06</totfact>
</mgrwt>
</event>
<event>
 5    1  0.1607476E-006  0.2000141E+02  0.7818608E-02  0.1745300E+00
         -2   -1    0    0    0  501 -0.00000000000E+00  0.00000000000E+00  0.11335488271E+01  0.11335518088E+01  0.26000000000E-02 0.  1.
          2   -1    0    0  501    0  0.00000000000E+00 -0.00000000000E+00 -0.88230822035E+02  0.88230822073E+02  0.26000000000E-02 0. -1.
       1023    2    1    2    0    0  0.00000000000E+00  0.00000000000E+00 -0.87097273207E+02  0.89364373882E+02  0.20001407928E+02 0.  0.
        -13    1    3    3    0    0  0.55371967180E+01 -0.83272039694E+01 -0.43522645467E+02  0.44656855178E+02  0.10570000000E+00 0. -1.
         13    1    3    3    0    0 -0.55371967180E+01  0.83272039694E+01 -0.43574627740E+02  0.44707518703E+02  0.10570000000E+00 0.  1.
<mgrwt>
<rscale>  0 0.20001408E+02</rscale>
<asrwt>0</asrwt>
<pdfrwt beam="2">  1        2 0.13573967E-01 0.20001408E+02</pdfrwt>
<pdfrwt beam="1">  1       -2 0.17439243E-03 0.20001408E+02</pdfrwt>
<totfact> 0.51318724E+06</totfact>
</mgrwt>
</event>
<event>
 4    1  0.2012309E-006  0.2004834E+02  0.7818608E-02  0.1744368E+00
         -2   -1    0    0    0  501 -0.00000000000E+00  0.00000000000E+00  0.90895412248E+00  0.90895784103E+00  0.26000000000E-02 0.  1.
          2   -1    0    0  501    0  0.00000000000E+00 -0.00000000000E+00 -0.11054881230E+03  0.11054881233E+03  0.26000000000E-02 0. -1.
        -13    1    1    2    0    0  0.59948906605E+01  0.80286226740E+01 -0.53293973372E+02  0.54227818196E+02  0.10570000000E+00 0. -1.
         13    1    1    2    0    0 -0.59948906605E+01 -0.80286226740E+01 -0.56345884801E+02  0.57229951971E+02  0.10570000000E+00 0.  1.
<mgrwt>
<rscale>  0 0.20048342E+02</rscale>
<asrwt>0</asrwt>
<pdfrwt beam="2">  1        2 0.17007499E-01 0.20048342E+02</pdfrwt>
<pdfrwt beam="1">  1       -2 0.13983947E-03 0.20048342E+02</pdfrwt>
<totfact> 0.53716975E+06</totfact>
</mgrwt>
</event>
<event>
 5    1  0.1607476E-006  0.2000126E+02  0.7818608E-02  0.1745303E+00
          2   -1    0    0  501    0  0.00000000000E+00  0.00000000000E+00  0.34542122081E+02  0.34542122179E+02  0.26000000000E-02 0. -1.
         -2   -1    0    0    0  501 -0.00000000000E+00 -0.00000000000E+00 -0.28953788777E+01  0.28953800451E+01  0.26000000000E-02 0.  1.
       1023    2    1    2    0    0  0.00000000000E+00  0.00000000000E+00  0.31646743203E+02  0.37437502224E+02  0.20001255395E+02 0.  0.
        -13    1    3    3    0    0 -0.13069644143E+01  0.99142603790E+01  0.15871712775E+02  0.18759614968E+02  0.10570000000E+00 0.  1.
         13    1    3    3    0    0  0.13069644143E+01 -0.99142603790E+01  0.15775030428E+02  0.18677887256E+02  0.10570000000E+00 0. -1.
<mgrwt>
<rscale>  0 0.20001255E+02</rscale>
<asrwt>0</asrwt>
<pdfrwt beam="1">  1        2 0.53141729E-02 0.20001255E+02</pdfrwt>
<pdfrwt beam="2">  1       -2 0.44544299E-03 0.20001255E+02</pdfrwt>
<totfact> 0.44073156E+06</totfact>
</mgrwt>
</event>
<event>
 5    1  0.1607476E-006  0.2000540E+02  0.7818608E-02  0.1745221E+00
         -2   -1    0    0    0  501 -0.00000000000E+00  0.00000000000E+00  0.16525949490E+01  0.16525969943E+01  0.26000000000E-02 0. -1.
          2   -1    0    0  501    0  0.00000000000E+00 -0.00000000000E+00 -0.60543516675E+02  0.60543516731E+02  0.26000000000E-02 0.  1.
       1023    2    1    2    0    0  0.00000000000E+00  0.00000000000E+00 -0.58890921726E+02  0.62196113725E+02  0.20005396791E+02 0.  0.
        -13    1    3    3    0    0  0.84694323949E+01  0.53193213919E+01 -0.29842844011E+02  0.31474322492E+02  0.10570000000E+00 0. -1.
         13    1    3    3    0    0 -0.84694323949E+01 -0.53193213919E+01 -0.29048077715E+02  0.30721791234E+02  0.10570000000E+00 0.  1.
<mgrwt>
<rscale>  0 0.20005397E+02</rscale>
<asrwt>0</asrwt>
<pdfrwt beam="2">  1        2 0.93143856E-02 0.20005397E+02</pdfrwt>
<pdfrwt beam="1">  1       -2 0.25424559E-03 0.20005397E+02</pdfrwt>
<totfact> 0.47742134E+06</totfact>
</mgrwt>
</event>
<event>
 4    1  0.1607476E-006  0.2018800E+02  0.7818608E-02  0.1741615E+00
         -2   -1    0    0    0  501 -0.00000000000E+00  0.00000000000E+00  0.79208483011E+02  0.79208483054E+02  0.26000000000E-02 0. -1.
          2   -1    0    0  501    0  0.00000000000E+00 -0.00000000000E+00 -0.12863361667E+01  0.12863387943E+01  0.26000000000E-02 0.  1.
        -13    1    1    2    0    0  0.27459909372E+01  0.96762050108E+01  0.42316683768E+02  0.43495773441E+02  0.10570000000E+00 0.  1.
         13    1    1    2    0    0 -0.27459909372E+01 -0.96762050108E+01  0.35605463076E+02  0.36999048407E+02  0.10570000000E+00 0. -1.
<mgrwt>
<rscale>  0 0.20188001E+02</rscale>
<asrwt>0</asrwt>
<pdfrwt beam="2">  1        2 0.19789808E-03 0.20188001E+02</pdfrwt>
<pdfrwt beam="1">  1       -2 0.12185921E-01 0.20188001E+02</pdfrwt>
<totfact> 0.30687737E+06</totfact>
</mgrwt>
</event>
<event>
 5    1  0.1607476E-006  0.2000667E+02  0.7818608E-02  0.1745195E+00
         -2   -1    0    0    0  501 -0.00000000000E+00  0.00000000000E+00  0.68984943171E+01  0.68984948071E+01  0.26000000000E-02 0. -1.
          2   -1    0    0  501    0  0.00000000000E+00 -0.00000000000E+00 -0.14505585712E+02  0.14505585945E+02  0.26000000000E-02 0.  1.
       1023    2    1    2    0    0  0.00000000000E+00  0.00000000000E+00 -0.76070913953E+01  0.21404080753E+02  0.20006669722E+02 0.  0.
        -13    1    3    3    0    0  0.55034814001E+01 -0.83512266447E+01 -0.36369726472E+01  0.10642839683E+02  0.10570000000E+00 0. -1.
         13    1    3    3    0    0 -0.55034814001E+01  0.83512266447E+01 -0.39701187481E+01  0.10761241070E+02  0.10570000000E+00 0.  1.
<mgrwt>
<rscale>  0 0.20006670E+02</rscale>
<asrwt>0</asrwt>
<pdfrwt beam="2">  1        2 0.22316286E-02 0.20006670E+02</pdfrwt>
<pdfrwt beam="1">  1       -2 0.10613069E-02 0.20006670E+02</pdfrwt>
<totfact> 0.40551784E+06</totfact>
</mgrwt>
</event>
<event>
 5    1  0.1607476E-006  0.2000585E+02  0.7818608E-02  0.1745212E+00
         -2   -1    0    0    0  501 -0.00000000000E+00  0.00000000000E+00  0.91581056438E+01  0.91581060129E+01  0.26000000000E-02 0.  1.
          2   -1    0    0  501    0  0.00000000000E+00 -0.00000000000E+00 -0.10925675769E+02  0.10925676079E+02  0.26000000000E-02 0. -1.
       1023    2    1    2    0    0  0.00000000000E+00  0.00000000000E+00 -0.17675701254E+01  0.20083782091E+02  0.20005849118E+02 0.  0.
        -13    1    3    3    0    0  0.38624406423E+01 -0.92257859139E+01 -0.76605160293E+00  0.10031529345E+02  0.10570000000E+00 0.  1.
         13    1    3    3    0    0 -0.38624406423E+01  0.92257859139E+01 -0.10015185225E+01  0.10052252747E+02  0.10570000000E+00 0. -1.
<mgrwt>
<rscale>  0 0.20005849E+02</rscale>
<asrwt>0</asrwt>
<pdfrwt beam="2">  1        2 0.16808732E-02 0.20005849E+02</pdfrwt>
<pdfrwt beam="1">  1       -2 0.14089394E-02 0.20005849E+02</pdfrwt>
<totfact> 0.39694460E+06</totfact>
</mgrwt>
</event>
<event>
 5    1  0.1607476E-006  0.2001116E+02  0.7818608E-02  0.1745106E+00
         -2   -1    0    0    0  501 -0.00000000000E+00  0.00000000000E+00  0.51848052642E+01  0.51848059161E+01  0.26000000000E-02 0. -1.
          2   -1    0    0  501    0  0.00000000000E+00 -0.00000000000E+00 -0.19308655164E+02  0.19308655339E+02  0.26000000000E-02 0.  1.
       1023    2    1    2    0    0  0.00000000000E+00  0.00000000000E+00 -0.14123849899E+02  0.24493461255E+02  0.20011159593E+02 0.  0.
        -13    1    3    3    0    0 -0.56877602739E+01 -0.82309292889E+01 -0.70123467929E+01  0.12218142000E+02  0.10570000000E+00 0.  1.
         13    1    3    3    0    0  0.56877602739E+01  0.82309292889E+01 -0.71115031066E+01  0.12275319255E+02  0.10570000000E+00 0. -1.
<mgrwt>
<rscale>  0 0.20011160E+02</rscale>
<asrwt>0</asrwt>
<pdfrwt beam="2">  1        2 0.29705624E-02 0.20011160E+02</pdfrwt>
<pdfrwt beam="1">  1       -2 0.79766242E-03 0.20011160E+02</pdfrwt>
<totfact> 0.41497334E+06</totfact>
</mgrwt>
</event>
<event>
 4    1  0.1607476E-006  0.2001395E+02  0.7818608E-02  0.1745051E+00
          2   -1    0    0  501    0  0.00000000000E+00  0.00000000000E+00  0.23995558933E+02  0.23995559074E+02  0.26000000000E-02 0. -1.
         -2   -1    0    0    0  501 -0.00000000000E+00 -0.00000000000E+00 -0.41732526489E+01  0.41732534588E+01  0.26000000000E-02 0.  1.
        -13    1    1    2    0    0 -0.59932807491E+01  0.80117235754E+01  0.10116285136E+02  0.14228757016E+02  0.10570000000E+00 0. -1.
         13    1    1    2    0    0  0.59932807491E+01 -0.80117235754E+01  0.97060211481E+01  0.13940055516E+02  0.10570000000E+00 0.  1.
<mgrwt>
<rscale>  0 0.20013949E+02</rscale>
<asrwt>0</asrwt>
<pdfrwt beam="1">  1        2 0.36916244E-02 0.20013949E+02</pdfrwt>
<pdfrwt beam="2">  1       -2 0.64203897E-03 0.20013949E+02</pdfrwt>
<totfact> 0.42319644E+06</totfact>
</mgrwt>
</event>
<event>
 4    1  0.1607476E-006  0.2003476E+02  0.7818608E-02  0.1744638E+00
          2   -1    0    0  501    0  0.00000000000E+00  0.00000000000E+00  0.56777529925E+01  0.56777535878E+01  0.26000000000E-02 0. -1.
         -2   -1    0    0    0  501 -0.00000000000E+00 -0.00000000000E+00 -0.17673870565E+02  0.17673870756E+02  0.26000000000E-02 0.  1.
        -13    1    1    2    0    0 -0.89059954591E+01 -0.45718586020E+01 -0.63985454381E+01  0.11881548822E+02  0.10570000000E+00 0. -1.
         13    1    1    2    0    0  0.89059954591E+01  0.45718586020E+01 -0.55975721345E+01  0.11470075522E+02  0.10570000000E+00 0.  1.
<mgrwt>
<rscale>  0 0.20034758E+02</rscale>
<asrwt>0</asrwt>
<pdfrwt beam="1">  1        2 0.87350054E-03 0.20034758E+02</pdfrwt>
<pdfrwt beam="2">  1       -2 0.27190570E-02 0.20034758E+02</pdfrwt>
<totfact> 0.37670738E+06</totfact>
</mgrwt>
</event>
<event>
 5    1  0.1607476E-006  0.2000566E+02  0.7818608E-02  0.1745215E+00
         -2   -1    0    0    0  501 -0.00000000000E+00  0.00000000000E+00  0.97292355020E+01  0.97292358494E+01  0.26000000000E-02 0.  1.
          2   -1    0    0  501    0  0.00000000000E+00 -0.00000000000E+00 -0.10284121812E+02  0.10284122141E+02  0.26000000000E-02 0. -1.
       1023    2    1    2    0    0  0.00000000000E+00  0.00000000000E+00 -0.55488631029E+00  0.20013357990E+02  0.20005664179E+02 0.  0.
        -13    1    3    3    0    0 -0.99815739368E+01  0.63826565500E+00 -0.35669492924E+00  0.10008876314E+02  0.10570000000E+00 0. -1.
         13    1    3    3    0    0  0.99815739368E+01 -0.63826565500E+00 -0.19819138105E+00  0.10004481677E+02  0.10570000000E+00 0.  1.
<mgrwt>
<rscale>  0 0.20005664E+02</rscale>
<asrwt>0</asrwt>
<pdfrwt beam="2">  1        2 0.15821726E-02 0.20005664E+02</pdfrwt>
<pdfrwt beam="1">  1       -2 0.14968055E-02 0.20005664E+02</pdfrwt>
<totfact> 0.39518791E+06</totfact>
</mgrwt>
</event>
<event>
 5    1  0.1607476E-006  0.2000575E+02  0.7818608E-02  0.1745214E+00
         -2   -1    0    0    0  501 -0.00000000000E+00  0.00000000000E+00  0.45214798067E+02  0.45214798142E+02  0.26000000000E-02 0. -1.
          2   -1    0    0  501    0  0.00000000000E+00 -0.00000000000E+00 -0.22129372062E+01  0.22129387336E+01  0.26000000000E-02 0.  1.
       1023    2    1    2    0    0  0.00000000000E+00  0.00000000000E+00  0.43001860861E+02  0.47427736876E+02  0.20005753863E+02 0.  0.
        -13    1    3    3    0    0 -0.23690486746E+01 -0.97174054717E+01  0.21317086978E+02  0.23547180945E+02  0.10570000000E+00 0. -1.
         13    1    3    3    0    0  0.23690486746E+01  0.97174054717E+01  0.21684773883E+02  0.23880555931E+02  0.10570000000E+00 0.  1.
<mgrwt>
<rscale>  0 0.20005754E+02</rscale>
<asrwt>0</asrwt>
<pdfrwt beam="2">  1        2 0.34045205E-03 0.20005754E+02</pdfrwt>
<pdfrwt beam="1">  1       -2 0.69561219E-02 0.20005754E+02</pdfrwt>
<totfact> 0.34353851E+06</totfact>
</mgrwt>
</event>
<event>
 4    1  0.1607476E-006  0.2001754E+02  0.7818608E-02  0.1744980E+00
         -2   -1    0    0    0  501 -0.00000000000E+00  0.00000000000E+00  0.41365247135E+01  0.41365255307E+01  0.26000000000E-02 0.  1.
          2   -1    0    0  501    0  0.00000000000E+00 -0.00000000000E+00 -0.24217290829E+02  0.24217290969E+02  0.26000000000E-02 0. -1.
        -13    1    1    2    0    0 -0.52227804449E+01  0.85319696284E+01 -0.96100021809E+01  0.13872103507E+02  0.10570000000E+00 0.  1.
         13    1    1    2    0    0  0.52227804449E+01 -0.85319696284E+01 -0.10470763935E+02  0.14481712992E+02  0.10570000000E+00 0. -1.
<mgrwt>
<rscale>  0 0.20017536E+02</rscale>
<asrwt>0</asrwt>
<pdfrwt beam="2">  1        2 0.37257370E-02 0.20017536E+02</pdfrwt>
<pdfrwt beam="1">  1       -2 0.63638851E-03 0.20017536E+02</pdfrwt>
<totfact> 0.42340419E+06</totfact>
</mgrwt>
</event>
<event>
 5    1  0.1607476E-006  0.2000138E+02  0.7818608E-02  0.1745301E+00
         -2   -1    0    0    0  501 -0.00000000000E+00  0.00000000000E+00  0.11761006558E+03  0.11761006561E+03  0.26000000000E-02 0. -1.
          2   -1    0    0  501    0  0.00000000000E+00 -0.00000000000E+00 -0.85038242832E+00  0.85038640300E+00  0.26000000000E-02 0.  1.
       1023    2    1    2    0    0  0.00000000000E+00  0.00000000000E+00  0.11675968315E+03  0.11846045201E+03  0.20001376981E+02 0.  0.
        -13    1    3    3    0    0 -0.22065820418E+01  0.97536332056E+01  0.58289479566E+02  0.59141161348E+02  0.10570000000E+00 0. -1.
         13    1    3    3    0    0  0.22065820418E+01 -0.97536332056E+01  0.58470203585E+02  0.59319290663E+02  0.10570000000E+00 0.  1.
<mgrwt>
<rscale>  0 0.20001377E+02</rscale>
<asrwt>0</asrwt>
<pdfrwt beam="2">  1        2 0.13082841E-03 0.20001377E+02</pdfrwt>
<pdfrwt beam="1">  1       -2 0.18093851E-01 0.20001377E+02</pdfrwt>
<totfact> 0.28496477E+06</totfact>
</mgrwt>
</event>
<event>
 5    1  0.1607476E-006  0.2000121E+02  0.7818608E-02  0.1745304E+00
         -2   -1    0    0    0  501 -0.00000000000E+00  0.00000000000E+00  0.17895432537E+01  0.17895451425E+01  0.26000000000E-02 0.  1.
          2   -1    0    0  501    0  0.00000000000E+00 -0.00000000000E+00 -0.55886894952E+02  0.55886895013E+02  0.26000000000E-02 0. -1.
       1023    2    1    2    0    0  0.00000000000E+00  0.00000000000E+00 -0.54097351699E+02  0.57676440155E+02  0.20001207168E+02 0.  0.
        -13    1    3    3    0    0  0.91753071725E+01  0.39767057318E+01 -0.26987547389E+02  0.28780884920E+02  0.10570000000E+00 0.  1.
         13    1    3    3    0    0 -0.91753071725E+01 -0.39767057318E+01 -0.27109804310E+02  0.28895555236E+02  0.10570000000E+00 0. -1.
<mgrwt>
<rscale>  0 0.20001207E+02</rscale>
<asrwt>0</asrwt>
<pdfrwt beam="2">  1        2 0.85979827E-02 0.20001207E+02</pdfrwt>
<pdfrwt beam="1">  1       -2 0.27531454E-03 0.20001207E+02</pdfrwt>
<totfact> 0.47134326E+06</totfact>
</mgrwt>
</event>
<event>
 4    1  0.1607476E-006  0.2001808E+02  0.7818608E-02  0.1744969E+00
         -2   -1    0    0    0  501 -0.00000000000E+00  0.00000000000E+00  0.62263570396E+01  0.62263575825E+01  0.26000000000E-02 0.  1.
          2   -1    0    0  501    0  0.00000000000E+00 -0.00000000000E+00 -0.16089805946E+02  0.16089806156E+02  0.26000000000E-02 0. -1.
        -13    1    1    2    0    0  0.98751372422E+01 -0.16275155317E+01 -0.49882402188E+01  0.11183061089E+02  0.10570000000E+00 0. -1.
         13    1    1    2    0    0 -0.98751372422E+01  0.16275155317E+01 -0.48752086874E+01  0.11133102649E+02  0.10570000000E+00 0.  1.
<mgrwt>
<rscale>  0 0.20018080E+02</rscale>
<asrwt>0</asrwt>
<pdfrwt beam="2">  1        2 0.24753548E-02 0.20018080E+02</pdfrwt>
<pdfrwt beam="1">  1       -2 0.95790115E-03 0.20018080E+02</pdfrwt>
<totfact> 0.40835025E+06</totfact>
</mgrwt>
</event>
<event>
 5    1  0.1607476E-006  0.2000202E+02  0.7818608E-02  0.1745288E+00
         -2   -1    0    0    0  501 -0.00000000000E+00  0.00000000000E+00  0.10256674945E+03  0.10256674948E+03  0.26000000000E-02 0.  1.
          2   -1    0    0  501    0  0.00000000000E+00 -0.00000000000E+00 -0.97516955084E+00  0.97517301690E+00  0.26000000000E-02 0. -1.
       1023    2    1    2    0    0  0.00000000000E+00  0.00000000000E+00  0.10159157990E+03  0.10354192250E+03  0.20002015112E+02 0.  0.
        -13    1    3    3    0    0 -0.90949963299E+01 -0.41581224929E+01  0.50763568515E+02  0.51739346747E+02  0.10570000000E+00 0.  1.
         13    1    3    3    0    0  0.90949963299E+01  0.41581224929E+01  0.50828011385E+02  0.51802575754E+02  0.10570000000E+00 0. -1.
<mgrwt>
<rscale>  0 0.20002015E+02</rscale>
<asrwt>0</asrwt>
<pdfrwt beam="2">  1        2 0.15002633E-03 0.20002015E+02</pdfrwt>
<pdfrwt beam="1">  1       -2 0.15779502E-01 0.20002015E+02</pdfrwt>
<totfact> 0.29538878E+06</totfact>
</mgrwt>
</event>
<event>
 5    1  0.1607476E-006  0.2000694E+02  0.7818608E-02  0.1745190E+00
         -2   -1    0    0    0  501 -0.00000000000E+00  0.00000000000E+00  0.41685999112E+01  0.41686007220E+01  0.26000000000E-02 0. -1.
          2   -1    0    0  501    0  0.00000000000E+00 -0.00000000000E+00 -0.24005518413E+02  0.24005518554E+02  0.26000000000E-02 0.  1.
       1023    2    1    2    0    0  0.00000000000E+00  0.00000000000E+00 -0.19836918502E+02  0.28174119276E+02  0.20006940329E+02 0.  0.
        -13    1    3    3    0    0  0.90996123360E+01  0.41539248188E+01 -0.98982095433E+01  0.14072802163E+02  0.10570000000E+00 0.  1.
         13    1    3    3    0    0 -0.90996123360E+01 -0.41539248188E+01 -0.99387089588E+01  0.14101317113E+02  0.10570000000E+00 0. -1.
<mgrwt>
<rscale>  0 0.20006940E+02</rscale>
<asrwt>0</asrwt>
<pdfrwt beam="2">  1        2 0.36931567E-02 0.20006940E+02</pdfrwt>
<pdfrwt beam="1">  1       -2 0.64132315E-03 0.20006940E+02</pdfrwt>
<totfact> 0.42354688E+06</totfact>
</mgrwt>
</event>
<event>
 4    1  0.1607476E-006  0.2001865E+02  0.7818608E-02  0.1744958E+00
          2   -1    0    0  501    0  0.00000000000E+00  0.00000000000E+00  0.17964757672E+01  0.17964776486E+01  0.26000000000E-02 0.  1.
         -2   -1    0    0    0  501 -0.00000000000E+00 -0.00000000000E+00 -0.55768353251E+02  0.55768353312E+02  0.26000000000E-02 0. -1.
        -13    1    1    2    0    0 -0.98179738543E+01 -0.19069683613E+01 -0.28085590357E+02  0.29813431488E+02  0.10570000000E+00 0. -1.
         13    1    1    2    0    0  0.98179738543E+01  0.19069683613E+01 -0.25886287127E+02  0.27751399472E+02  0.10570000000E+00 0.  1.
<mgrwt>
<rscale>  0 0.20018646E+02</rscale>
<asrwt>0</asrwt>
<pdfrwt beam="1">  1        2 0.27638108E-03 0.20018646E+02</pdfrwt>
<pdfrwt beam="2">  1       -2 0.85797455E-02 0.20018646E+02</pdfrwt>
<totfact> 0.33280973E+06</totfact>
</mgrwt>
</event>
<event>
 5    1  0.1607476E-006  0.2000430E+02  0.7818608E-02  0.1745243E+00
          2   -1    0    0  501    0  0.00000000000E+00  0.00000000000E+00  0.62309612031E+01  0.62309617456E+01  0.26000000000E-02 0. -1.
         -2   -1    0    0    0  501 -0.00000000000E+00 -0.00000000000E+00 -0.16055785683E+02  0.16055785893E+02  0.26000000000E-02 0.  1.
       1023    2    1    2    0    0  0.00000000000E+00  0.00000000000E+00 -0.98248244796E+01  0.22286747639E+02  0.20004298145E+02 0.  0.
        -13    1    3    3    0    0 -0.92173845805E+01  0.38811056126E+01 -0.50160550587E+01  0.11189063416E+02  0.10570000000E+00 0.  1.
         13    1    3    3    0    0  0.92173845805E+01 -0.38811056126E+01 -0.48087694208E+01  0.11097684223E+02  0.10570000000E+00 0. -1.
<mgrwt>
<rscale>  0 0.20004298E+02</rscale>
<asrwt>0</asrwt>
<pdfrwt beam="1">  1        2 0.95860948E-03 0.20004298E+02</pdfrwt>
<pdfrwt beam="2">  1       -2 0.24701209E-02 0.20004298E+02</pdfrwt>
<totfact> 0.38080818E+06</totfact>
</mgrwt>
</event>
<event>
 5    1  0.1607476E-006  0.2000550E+02  0.7818608E-02  0.1745219E+00
         -2   -1    0    0    0  501 -0.00000000000E+00  0.00000000000E+00  0.97954670945E+01  0.97954674395E+01  0.26000000000E-02 0.  1.
          2   -1    0    0  501    0  0.00000000000E+00 -0.00000000000E+00 -0.10214420164E+02  0.10214420495E+02  0.26000000000E-02 0. -1.
       1023    2    1    2    0    0  0.00000000000E+00  0.00000000000E+00 -0.41895306951E+00  0.20009887934E+02  0.20005501580E+02 0.  0.
        -13    1    3    3    0    0 -0.46243538128E+01  0.88688989113E+01 -0.25232042227E+00  0.10005841003E+02  0.10570000000E+00 0.  1.
         13    1    3    3    0    0  0.46243538128E+01 -0.88688989113E+01 -0.16663264724E+00  0.10004046932E+02  0.10570000000E+00 0. -1.
<mgrwt>
<rscale>  0 0.20005502E+02</rscale>
<asrwt>0</asrwt>
<pdfrwt beam="2">  1        2 0.15714493E-02 0.20005502E+02</pdfrwt>
<pdfrwt beam="1">  1       -2 0.15069950E-02 0.20005502E+02</pdfrwt>
<totfact> 0.39499797E+06</totfact>
</mgrwt>
</event>
<event>
 5    1  0.1607476E-006  0.2000250E+02  0.7818608E-02  0.1745278E+00
          2   -1    0    0  501    0  0.00000000000E+00  0.00000000000E+00  0.50224965665E+02  0.50224965733E+02  0.26000000000E-02 0.  1.
         -2   -1    0    0    0  501 -0.00000000000E+00 -0.00000000000E+00 -0.19915382323E+01  0.19915399295E+01  0.26000000000E-02 0. -1.
       1023    2    1    2    0    0  0.00000000000E+00  0.00000000000E+00  0.48233427433E+02  0.52216505662E+02  0.20002498385E+02 0.  0.
        -13    1    3    3    0    0  0.72697852733E+01  0.68669136760E+01  0.24371576036E+02  0.26343674238E+02  0.10570000000E+00 0. -1.
         13    1    3    3    0    0 -0.72697852733E+01 -0.68669136760E+01  0.23861851397E+02  0.25872831425E+02  0.10570000000E+00 0.  1.
<mgrwt>
<rscale>  0 0.20002498E+02</rscale>
<asrwt>0</asrwt>
<pdfrwt beam="1">  1        2 0.77269179E-02 0.20002498E+02</pdfrwt>
<pdfrwt beam="2">  1       -2 0.30639063E-03 0.20002498E+02</pdfrwt>
<totfact> 0.46346638E+06</totfact>
</mgrwt>
</event>
<event>
 4    1  0.1607476E-006  0.2018657E+02  0.7818608E-02  0.1741643E+00
         -2   -1    0    0    0  501 -0.00000000000E+00  0.00000000000E+00  0.66982762230E+01  0.66982767276E+01  0.26000000000E-02 0.  1.
          2   -1    0    0  501    0  0.00000000000E+00 -0.00000000000E+00 -0.15209051138E+02  0.15209051360E+02  0.26000000000E-02 0. -1.
        -13    1    1    2    0    0 -0.55034712579E+01 -0.84585658717E+01 -0.40746739117E+01  0.10883458663E+02  0.10570000000E+00 0. -1.
         13    1    1    2    0    0  0.55034712579E+01  0.84585658717E+01 -0.44361010031E+01  0.11023869425E+02  0.10570000000E+00 0.  1.
<mgrwt>
<rscale>  0 0.20186573E+02</rscale>
<asrwt>0</asrwt>
<pdfrwt beam="2">  1        2 0.23398541E-02 0.20186573E+02</pdfrwt>
<pdfrwt beam="1">  1       -2 0.10305041E-02 0.20186573E+02</pdfrwt>
<totfact> 0.39886153E+06</totfact>
</mgrwt>
</event>
<event>
 5    1  0.1607476E-006  0.2000204E+02  0.7818608E-02  0.1745287E+00
          2   -1    0    0  501    0  0.00000000000E+00  0.00000000000E+00  0.11940203703E+01  0.11940232011E+01  0.26000000000E-02 0.  1.
         -2   -1    0    0    0  501 -0.00000000000E+00 -0.00000000000E+00 -0.83767689492E+02  0.83767689533E+02  0.26000000000E-02 0. -1.
       1023    2    1    2    0    0  0.00000000000E+00  0.00000000000E+00 -0.82573669122E+02  0.84961712734E+02  0.20002044855E+02 0.  0.
        -13    1    3    3    0    0  0.11490056807E+01  0.99337794390E+01 -0.40881877024E+02  0.42087281089E+02  0.10570000000E+00 0. -1.
         13    1    3    3    0    0 -0.11490056807E+01 -0.99337794390E+01 -0.41691792098E+02  0.42874431645E+02  0.10570000000E+00 0.  1.
<mgrwt>
<rscale>  0 0.20002045E+02</rscale>
<asrwt>0</asrwt>
<pdfrwt beam="1">  1        2 0.18369573E-03 0.20002045E+02</pdfrwt>
<pdfrwt beam="2">  1       -2 0.12887332E-01 0.20002045E+02</pdfrwt>
<totfact> 0.30951703E+06</totfact>
</mgrwt>
</event>
<event>
 5    1  0.1607476E-006  0.2000193E+02  0.7818608E-02  0.1745290E+00
          2   -1    0    0  501    0  0.00000000000E+00  0.00000000000E+00  0.11620996367E+02  0.11620996658E+02  0.26000000000E-02 0. -1.
         -2   -1    0    0    0  501 -0.00000000000E+00 -0.00000000000E+00 -0.86067702539E+01  0.86067706467E+01  0.26000000000E-02 0.  1.
       1023    2    1    2    0    0  0.00000000000E+00  0.00000000000E+00  0.30142261135E+01  0.20227767305E+02  0.20001925184E+02 0.  0.
        -13    1    3    3    0    0 -0.67543466862E+01 -0.73744393179E+01  0.15751472411E+01  0.10124021717E+02  0.10570000000E+00 0.  1.
         13    1    3    3    0    0  0.67543466862E+01  0.73744393179E+01  0.14390788724E+01  0.10103745588E+02  0.10570000000E+00 0. -1.
<mgrwt>
<rscale>  0 0.20001925E+02</rscale>
<asrwt>0</asrwt>
<pdfrwt beam="1">  1        2 0.17878456E-02 0.20001925E+02</pdfrwt>
<pdfrwt beam="2">  1       -2 0.13241186E-02 0.20001925E+02</pdfrwt>
<totfact> 0.39894269E+06</totfact>
</mgrwt>
</event>
<event>
 5    1  0.1607476E-006  0.2000414E+02  0.7818608E-02  0.1745246E+00
         -2   -1    0    0    0  501 -0.00000000000E+00  0.00000000000E+00  0.94188591135E+01  0.94188594723E+01  0.26000000000E-02 0.  1.
          2   -1    0    0  501    0  0.00000000000E+00 -0.00000000000E+00 -0.10621392374E+02  0.10621392692E+02  0.26000000000E-02 0. -1.
       1023    2    1    2    0    0  0.00000000000E+00  0.00000000000E+00 -0.12025332602E+01  0.20040252164E+02  0.20004140086E+02 0.  0.
        -13    1    3    3    0    0 -0.35887609010E+01  0.93339798606E+01 -0.76844450404E+00  0.10030157740E+02  0.10570000000E+00 0. -1.
         13    1    3    3    0    0  0.35887609010E+01 -0.93339798606E+01 -0.43408875612E+00  0.10010094424E+02  0.10570000000E+00 0.  1.
<mgrwt>
<rscale>  0 0.20004140E+02</rscale>
<asrwt>0</asrwt>
<pdfrwt beam="2">  1        2 0.16340604E-02 0.20004140E+02</pdfrwt>
<pdfrwt beam="1">  1       -2 0.14490553E-02 0.20004140E+02</pdfrwt>
<totfact> 0.39619566E+06</totfact>
</mgrwt>
</event>
<event>
 5    1  0.1607476E-006  0.2000376E+02  0.7818608E-02  0.1745253E+00
         -2   -1    0    0    0  501 -0.00000000000E+00  0.00000000000E+00  0.26180957491E+01  0.26180970401E+01  0.26000000000E-02 0. -1.
          2   -1    0    0  501    0  0.00000000000E+00 -0.00000000000E+00 -0.38210059008E+02  0.38210059096E+02  0.26000000000E-02 0.  1.
       1023    2    1    2    0    0  0.00000000000E+00  0.00000000000E+00 -0.35591963259E+02  0.40828156136E+02  0.20003761768E+02 0.  0.
        -13    1    3    3    0    0 -0.94838628020E+01 -0.31749606253E+01 -0.17695574226E+02  0.20326547869E+02  0.10570000000E+00 0.  1.
         13    1    3    3    0    0  0.94838628020E+01  0.31749606253E+01 -0.17896389033E+02  0.20501608267E+02  0.10570000000E+00 0. -1.
<mgrwt>
<rscale>  0 0.20003762E+02</rscale>
<asrwt>0</asrwt>
<pdfrwt beam="2">  1        2 0.58784703E-02 0.20003762E+02</pdfrwt>
<pdfrwt beam="1">  1       -2 0.40278410E-03 0.20003762E+02</pdfrwt>
<totfact> 0.44612896E+06</totfact>
</mgrwt>
</event>
<event>
 4    1  0.1607476E-006  0.2001924E+02  0.7818608E-02  0.1744946E+00
          2   -1    0    0  501    0  0.00000000000E+00  0.00000000000E+00  0.13748933724E+02  0.13748933970E+02  0.26000000000E-02 0. -1.
         -2   -1    0    0    0  501 -0.00000000000E+00 -0.00000000000E+00 -0.72872888602E+01  0.72872893241E+01  0.26000000000E-02 0.  1.
        -13    1    1    2    0    0  0.39359115720E+01 -0.91995651467E+01  0.34836436962E+01  0.10595770132E+02  0.10570000000E+00 0. -1.
         13    1    1    2    0    0 -0.39359115720E+01  0.91995651467E+01  0.29780011678E+01  0.10440453162E+02  0.10570000000E+00 0.  1.
<mgrwt>
<rscale>  0 0.20019237E+02</rscale>
<asrwt>0</asrwt>
<pdfrwt beam="1">  1        2 0.21152206E-02 0.20019237E+02</pdfrwt>
<pdfrwt beam="2">  1       -2 0.11211214E-02 0.20019237E+02</pdfrwt>
<totfact> 0.40325912E+06</totfact>
</mgrwt>
</event>
<event>
 5    1  0.1607476E-006  0.2000229E+02  0.7818608E-02  0.1745283E+00
         -2   -1    0    0    0  501 -0.00000000000E+00  0.00000000000E+00  0.29303367311E+01  0.29303378845E+01  0.26000000000E-02 0.  1.
          2   -1    0    0  501    0  0.00000000000E+00 -0.00000000000E+00 -0.34133583001E+02  0.34133583100E+02  0.26000000000E-02 0. -1.
       1023    2    1    2    0    0  0.00000000000E+00  0.00000000000E+00 -0.31203246270E+02  0.37063920984E+02  0.20002291393E+02 0.  0.
        -13    1    3    3    0    0 -0.43881912659E+01  0.89862880467E+01 -0.15687488623E+02  0.18604248633E+02  0.10570000000E+00 0.  1.
         13    1    3    3    0    0  0.43881912659E+01 -0.89862880467E+01 -0.15515757647E+02  0.18459672351E+02  0.10570000000E+00 0. -1.
<mgrwt>
<rscale>  0 0.20002291E+02</rscale>
<asrwt>0</asrwt>
<pdfrwt beam="2">  1        2 0.52513203E-02 0.20002291E+02</pdfrwt>
<pdfrwt beam="1">  1       -2 0.45082116E-03 0.20002291E+02</pdfrwt>
<totfact> 0.44005627E+06</totfact>
</mgrwt>
</event>
<event>
 5    1  0.1607476E-006  0.2000676E+02  0.7818608E-02  0.1745194E+00
         -2   -1    0    0    0  501 -0.00000000000E+00  0.00000000000E+00  0.37028611841E+02  0.37028611932E+02  0.26000000000E-02 0. -1.
          2   -1    0    0  501    0  0.00000000000E+00 -0.00000000000E+00 -0.27024408596E+01  0.27024421103E+01  0.26000000000E-02 0.  1.
       1023    2    1    2    0    0  0.00000000000E+00  0.00000000000E+00  0.34326170981E+02  0.39731054042E+02  0.20006764883E+02 0.  0.
        -13    1    3    3    0    0 -0.55224283154E+01  0.83396416002E+01  0.17358180104E+02  0.20034081599E+02  0.10570000000E+00 0.  1.
         13    1    3    3    0    0  0.55224283154E+01 -0.83396416002E+01  0.16967990877E+02  0.19696972443E+02  0.10570000000E+00 0. -1.
<mgrwt>
<rscale>  0 0.20006765E+02</rscale>
<asrwt>0</asrwt>
<pdfrwt beam="2">  1        2 0.41576024E-03 0.20006765E+02</pdfrwt>
<pdfrwt beam="1">  1       -2 0.56967096E-02 0.20006765E+02</pdfrwt>
<totfact> 0.35218704E+06</totfact>
</mgrwt>
</event>
<event>
 5    1  0.1607476E-006  0.2000262E+02  0.7818608E-02  0.1745276E+00
         -2   -1    0    0    0  501 -0.00000000000E+00  0.00000000000E+00  0.33189582753E+01  0.33189592937E+01  0.26000000000E-02 0. -1.
          2   -1    0    0  501    0  0.00000000000E+00 -0.00000000000E+00 -0.30137839677E+02  0.30137839789E+02  0.26000000000E-02 0.  1.
       1023    2    1    2    0    0  0.00000000000E+00  0.00000000000E+00 -0.26818881402E+02  0.33456799083E+02  0.20002624959E+02 0.  0.
        -13    1    3    3    0    0  0.55998862768E+01 -0.82858917564E+01 -0.13440746272E+02  0.16753494005E+02  0.10570000000E+00 0.  1.
         13    1    3    3    0    0 -0.55998862768E+01  0.82858917564E+01 -0.13378135130E+02  0.16703305079E+02  0.10570000000E+00 0. -1.
<mgrwt>
<rscale>  0 0.20002625E+02</rscale>
<asrwt>0</asrwt>
<pdfrwt beam="2">  1        2 0.46365906E-02 0.20002625E+02</pdfrwt>
<pdfrwt beam="1">  1       -2 0.51060907E-03 0.20002625E+02</pdfrwt>
<totfact> 0.43382325E+06</totfact>
</mgrwt>
</event>
<event>
 4    1  0.1607476E-006  0.2047400E+02  0.7818608E-02  0.1736063E+00
          2   -1    0    0  501    0  0.00000000000E+00  0.00000000000E+00  0.56920114802E+01  0.56920120740E+01  0.26000000000E-02 0. -1.
         -2   -1    0    0    0  501 -0.00000000000E+00 -0.00000000000E+00 -0.18411091314E+02  0.18411091497E+02  0.26000000000E-02 0.  1.
        -13    1    1    2    0    0 -0.10192378885E+02 -0.34650990370E+00 -0.73994784187E+01  0.12600321814E+02  0.10570000000E+00 0.  1.
         13    1    1    2    0    0  0.10192378885E+02  0.34650990370E+00 -0.53196014148E+01  0.11502781757E+02  0.10570000000E+00 0. -1.
<mgrwt>
<rscale>  0 0.20473998E+02</rscale>
<asrwt>0</asrwt>
<pdfrwt beam="1">  1        2 0.87569414E-03 0.20473998E+02</pdfrwt>
<pdfrwt beam="2">  1       -2 0.28324756E-02 0.20473998E+02</pdfrwt>
<totfact> 0.35818992E+06</totfact>
</mgrwt>
</event>
<event>
 5    1  0.1607476E-006  0.2000760E+02  0.7818608E-02  0.1745177E+00
         -2   -1    0    0    0  501 -0.00000000000E+00  0.00000000000E+00  0.30419909269E+02  0.30419909380E+02  0.26000000000E-02 0. -1.
          2   -1    0    0  501    0  0.00000000000E+00 -0.00000000000E+00 -0.32898190648E+01  0.32898200922E+01  0.26000000000E-02 0.  1.
       1023    2    1    2    0    0  0.00000000000E+00  0.00000000000E+00  0.27130090204E+02  0.33709729472E+02  0.20007600221E+02 0.  0.
        -13    1    3    3    0    0  0.10001998710E+02 -0.15406803552E+00  0.13508433086E+02  0.16809302546E+02  0.10570000000E+00 0. -1.
         13    1    3    3    0    0 -0.10001998710E+02  0.15406803552E+00  0.13621657118E+02  0.16900426926E+02  0.10570000000E+00 0.  1.
<mgrwt>
<rscale>  0 0.20007600E+02</rscale>
<asrwt>0</asrwt>
<pdfrwt beam="2">  1        2 0.50612611E-03 0.20007600E+02</pdfrwt>
<pdfrwt beam="1">  1       -2 0.46799861E-02 0.20007600E+02</pdfrwt>
<totfact> 0.35983050E+06</totfact>
</mgrwt>
</event>
<event>
 5    1  0.1607476E-006  0.2000620E+02  0.7818608E-02  0.1745205E+00
         -2   -1    0    0    0  501 -0.00000000000E+00  0.00000000000E+00  0.12237894823E+01  0.12237922442E+01  0.26000000000E-02 0. -1.
          2   -1    0    0  501    0  0.00000000000E+00 -0.00000000000E+00 -0.81763988270E+02  0.81763988312E+02  0.26000000000E-02 0.  1.
       1023    2    1    2    0    0  0.00000000000E+00  0.00000000000E+00 -0.80540198788E+02  0.82987780556E+02  0.20006201558E+02 0.  0.
        -13    1    3    3    0    0  0.70177376920E+01  0.71243107895E+01 -0.39376511368E+02  0.40626657093E+02  0.10570000000E+00 0. -1.
         13    1    3    3    0    0 -0.70177376920E+01 -0.71243107895E+01 -0.41163687420E+02  0.42361123463E+02  0.10570000000E+00 0.  1.
<mgrwt>
<rscale>  0 0.20006202E+02</rscale>
<asrwt>0</asrwt>
<pdfrwt beam="2">  1        2 0.12579071E-01 0.20006202E+02</pdfrwt>
<pdfrwt beam="1">  1       -2 0.18827558E-03 0.20006202E+02</pdfrwt>
<totfact> 0.50486801E+06</totfact>
</mgrwt>
</event>
<event>
 4    1  0.1607476E-006  0.2050634E+02  0.7818608E-02  0.1735442E+00
          2   -1    0    0  501    0  0.00000000000E+00  0.00000000000E+00  0.98015873563E+02  0.98015873598E+02  0.26000000000E-02 0.  1.
         -2   -1    0    0    0  501 -0.00000000000E+00 -0.00000000000E+00 -0.10725538408E+01  0.10725569922E+01  0.26000000000E-02 0. -1.
        -13    1    1    2    0    0  0.22168510948E+01  0.99564836130E+01  0.43472626123E+02  0.44653402885E+02  0.10570000000E+00 0.  1.
         13    1    1    2    0    0 -0.22168510948E+01 -0.99564836130E+01  0.53470693600E+02  0.54435027705E+02  0.10570000000E+00 0. -1.
<mgrwt>
<rscale>  0 0.20506337E+02</rscale>
<asrwt>0</asrwt>
<pdfrwt beam="1">  1        2 0.15079365E-01 0.20506337E+02</pdfrwt>
<pdfrwt beam="2">  1       -2 0.16500853E-03 0.20506337E+02</pdfrwt>
<totfact> 0.49693840E+06</totfact>
</mgrwt>
</event>
<event>
 5    1  0.1607476E-006  0.2000253E+02  0.7818608E-02  0.1745278E+00
          2   -1    0    0  501    0  0.00000000000E+00  0.00000000000E+00  0.21677146475E+01  0.21677162067E+01  0.26000000000E-02 0. -1.
         -2   -1    0    0    0  501 -0.00000000000E+00 -0.00000000000E+00 -0.46143203654E+02  0.46143203727E+02  0.26000000000E-02 0.  1.
       1023    2    1    2    0    0  0.00000000000E+00  0.00000000000E+00 -0.43975489007E+02  0.48310919934E+02  0.20002533627E+02 0.  0.
        -13    1    3    3    0    0 -0.22323709713E+01  0.97483290170E+01 -0.22054616967E+02  0.24216331284E+02  0.10570000000E+00 0.  1.
         13    1    3    3    0    0  0.22323709713E+01 -0.97483290170E+01 -0.21920872039E+02  0.24094588650E+02  0.10570000000E+00 0. -1.
<mgrwt>
<rscale>  0 0.20002534E+02</rscale>
<asrwt>0</asrwt>
<pdfrwt beam="1">  1        2 0.33349472E-03 0.20002534E+02</pdfrwt>
<pdfrwt beam="2">  1       -2 0.70989538E-02 0.20002534E+02</pdfrwt>
<totfact> 0.34271837E+06</totfact>
</mgrwt>
</event>
<event>
 4    1  0.1607476E-006  0.2033153E+02  0.7818608E-02  0.1738814E+00
          2   -1    0    0  501    0  0.00000000000E+00  0.00000000000E+00  0.15202002844E+02  0.15202003066E+02  0.26000000000E-02 0. -1.
         -2   -1    0    0    0  501 -0.00000000000E+00 -0.00000000000E+00 -0.67979730175E+01  0.67979735147E+01  0.26000000000E-02 0.  1.
        -13    1    1    2    0    0 -0.91907705149E+01  0.43032826095E+01  0.48358637018E+01  0.11242119645E+02  0.10570000000E+00 0. -1.
         13    1    1    2    0    0  0.91907705149E+01 -0.43032826095E+01  0.35681661244E+01  0.10757856936E+02  0.10570000000E+00 0.  1.
<mgrwt>
<rscale>  0 0.20331533E+02</rscale>
<asrwt>0</asrwt>
<pdfrwt beam="1">  1        2 0.23387697E-02 0.20331533E+02</pdfrwt>
<pdfrwt beam="2">  1       -2 0.10458421E-02 0.20331533E+02</pdfrwt>
<totfact> 0.39241289E+06</totfact>
</mgrwt>
</event>
<event>
 4    1  0.1607476E-006  0.2010514E+02  0.7818608E-02  0.1743245E+00
          2   -1    0    0  501    0  0.00000000000E+00  0.00000000000E+00  0.69555904976E+02  0.69555905024E+02  0.26000000000E-02 0.  1.
         -2   -1    0    0    0  501 -0.00000000000E+00 -0.00000000000E+00 -0.14528469258E+01  0.14528492523E+01  0.26000000000E-02 0. -1.
        -13    1    1    2    0    0 -0.36985970633E+01 -0.93299390422E+01  0.36035710495E+02  0.37407365400E+02  0.10570000000E+00 0. -1.
         13    1    1    2    0    0  0.36985970633E+01  0.93299390422E+01  0.32067347554E+02  0.33601388877E+02  0.10570000000E+00 0.  1.
<mgrwt>
<rscale>  0 0.20105140E+02</rscale>
<asrwt>0</asrwt>
<pdfrwt beam="1">  1        2 0.10700907E-01 0.20105140E+02</pdfrwt>
<pdfrwt beam="2">  1       -2 0.22351512E-03 0.20105140E+02</pdfrwt>
<totfact> 0.48395772E+06</totfact>
</mgrwt>
</event>
<event>
 5    1  0.1607476E-006  0.2000209E+02  0.7818608E-02  0.1745287E+00
         -2   -1    0    0    0  501 -0.00000000000E+00  0.00000000000E+00  0.16023475438E+02  0.16023475649E+02  0.26000000000E-02 0. -1.
          2   -1    0    0  501    0  0.00000000000E+00 -0.00000000000E+00 -0.62421460937E+01  0.62421466352E+01  0.26000000000E-02 0.  1.
       1023    2    1    2    0    0  0.00000000000E+00  0.00000000000E+00  0.97813293448E+01  0.22265622285E+02  0.20002088190E+02 0.  0.
        -13    1    3    3    0    0  0.86061140200E+01 -0.50928405052E+01  0.49869876286E+01  0.11175125996E+02  0.10570000000E+00 0. -1.
         13    1    3    3    0    0 -0.86061140200E+01  0.50928405052E+01  0.47943417162E+01  0.11090496288E+02  0.10570000000E+00 0.  1.
<mgrwt>
<rscale>  0 0.20002088E+02</rscale>
<asrwt>0</asrwt>
<pdfrwt beam="2">  1        2 0.96033023E-03 0.20002088E+02</pdfrwt>
<pdfrwt beam="1">  1       -2 0.24651501E-02 0.20002088E+02</pdfrwt>
<totfact> 0.38095845E+06</totfact>
</mgrwt>
</event>
<event>
 5    1  0.1607476E-006  0.2000295E+02  0.7818608E-02  0.1745269E+00
         -2   -1    0    0    0  501 -0.00000000000E+00  0.00000000000E+00  0.14646264658E+01  0.14646287735E+01  0.26000000000E-02 0.  1.
          2   -1    0    0  501    0  0.00000000000E+00 -0.00000000000E+00 -0.68296878175E+02  0.68296878224E+02  0.26000000000E-02 0. -1.
       1023    2    1    2    0    0  0.00000000000E+00  0.00000000000E+00 -0.66832251709E+02  0.69761506998E+02  0.20002949535E+02 0.  0.
        -13    1    3    3    0    0  0.27550361553E+00 -0.99964441130E+01 -0.33821762165E+02  0.35269357317E+02  0.10570000000E+00 0. -1.
         13    1    3    3    0    0 -0.27550361553E+00  0.99964441130E+01 -0.33010489544E+02  0.34492149680E+02  0.10570000000E+00 0.  1.
<mgrwt>
<rscale>  0 0.20002950E+02</rscale>
<asrwt>0</asrwt>
<pdfrwt beam="2">  1        2 0.10507210E-01 0.20002950E+02</pdfrwt>
<pdfrwt beam="1">  1       -2 0.22532738E-03 0.20002950E+02</pdfrwt>
<totfact> 0.48781793E+06</totfact>
</mgrwt>
</event>
<event>
 5    1  0.1607476E-006  0.2000217E+02  0.7818608E-02  0.1745285E+00
         -2   -1    0    0    0  501 -0.00000000000E+00  0.00000000000E+00  0.52296792124E+01  0.52296798587E+01  0.26000000000E-02 0. -1.
          2   -1    0    0  501    0  0.00000000000E+00 -0.00000000000E+00 -0.19125775055E+02  0.19125775232E+02  0.26000000000E-02 0.  1.
       1023    2    1    2    0    0  0.00000000000E+00  0.00000000000E+00 -0.13896095843E+02  0.24355455091E+02  0.20002167708E+02 0.  0.
        -13    1    3    3    0    0  0.96007162840E+01 -0.27992081040E+01 -0.69899918138E+01  0.12201658790E+02  0.10570000000E+00 0.  1.
         13    1    3    3    0    0 -0.96007162840E+01  0.27992081040E+01 -0.69061040293E+01  0.12153796301E+02  0.10570000000E+00 0. -1.
<mgrwt>
<rscale>  0 0.20002168E+02</rscale>
<asrwt>0</asrwt>
<pdfrwt beam="2">  1        2 0.29424270E-02 0.20002168E+02</pdfrwt>
<pdfrwt beam="1">  1       -2 0.80456611E-03 0.20002168E+02</pdfrwt>
<totfact> 0.41505101E+06</totfact>
</mgrwt>
</event>
<event>
 5    1  0.1607476E-006  0.2000231E+02  0.7818608E-02  0.1745282E+00
          2   -1    0    0  501    0  0.00000000000E+00  0.00000000000E+00  0.88179351878E+02  0.88179351916E+02  0.26000000000E-02 0. -1.
         -2   -1    0    0    0  501 -0.00000000000E+00 -0.00000000000E+00 -0.11343129639E+01  0.11343159437E+01  0.26000000000E-02 0.  1.
       1023    2    1    2    0    0  0.00000000000E+00  0.00000000000E+00  0.87045038914E+02  0.89313667860E+02  0.20002311543E+02 0.  0.
        -13    1    3    3    0    0  0.77587681941E+01 -0.63094185125E+01  0.43216454481E+02  0.44358543216E+02  0.10570000000E+00 0.  1.
         13    1    3    3    0    0 -0.77587681941E+01  0.63094185125E+01  0.43828584433E+02  0.44955124644E+02  0.10570000000E+00 0. -1.
<mgrwt>
<rscale>  0 0.20002312E+02</rscale>
<asrwt>0</asrwt>
<pdfrwt beam="1">  1        2 0.13566056E-01 0.20002312E+02</pdfrwt>
<pdfrwt beam="2">  1       -2 0.17450990E-03 0.20002312E+02</pdfrwt>
<totfact> 0.51307249E+06</totfact>
</mgrwt>
</event>
<event>
 5    1  0.1607476E-006  0.2000501E+02  0.7818608E-02  0.1745228E+00
          2   -1    0    0  501    0  0.00000000000E+00  0.00000000000E+00  0.45896960090E+02  0.45896960164E+02  0.26000000000E-02 0. -1.
         -2   -1    0    0    0  501 -0.00000000000E+00 -0.00000000000E+00 -0.21798842399E+01  0.21798857904E+01  0.26000000000E-02 0.  1.
       1023    2    1    2    0    0  0.00000000000E+00  0.00000000000E+00  0.43717075850E+02  0.48076845954E+02  0.20005009273E+02 0.  0.
        -13    1    3    3    0    0 -0.50767433374E+01  0.86176649835E+01  0.21766904497E+02  0.23955099176E+02  0.10570000000E+00 0.  1.
         13    1    3    3    0    0  0.50767433374E+01 -0.86176649835E+01  0.21950171353E+02  0.24121746778E+02  0.10570000000E+00 0. -1.
<mgrwt>
<rscale>  0 0.20005009E+02</rscale>
<asrwt>0</asrwt>
<pdfrwt beam="1">  1        2 0.70610705E-02 0.20005009E+02</pdfrwt>
<pdfrwt beam="2">  1       -2 0.33536695E-03 0.20005009E+02</pdfrwt>
<totfact> 0.45723817E+06</totfact>
</mgrwt>
</event>
<event>
 5    1  0.1607476E-006  0.2000289E+02  0.7818608E-02  0.1745271E+00
          2   -1    0    0  501    0  0.00000000000E+00  0.00000000000E+00  0.12264895092E+02  0.12264895367E+02  0.26000000000E-02 0. -1.
         -2   -1    0    0    0  501 -0.00000000000E+00 -0.00000000000E+00 -0.81557084256E+01  0.81557088400E+01  0.26000000000E-02 0.  1.
       1023    2    1    2    0    0  0.00000000000E+00  0.00000000000E+00  0.41091866660E+01  0.20420604207E+02  0.20002891319E+02 0.  0.
        -13    1    3    3    0    0  0.51554793261E+01 -0.85693495815E+01  0.21269497988E+01  0.10224862213E+02  0.10570000000E+00 0.  1.
         13    1    3    3    0    0 -0.51554793261E+01  0.85693495815E+01  0.19822368671E+01  0.10195741995E+02  0.10570000000E+00 0. -1.
<mgrwt>
<rscale>  0 0.20002891E+02</rscale>
<asrwt>0</asrwt>
<pdfrwt beam="1">  1        2 0.18869070E-02 0.20002891E+02</pdfrwt>
<pdfrwt beam="2">  1       -2 0.12547244E-02 0.20002891E+02</pdfrwt>
<totfact> 0.40051134E+06</totfact>
</mgrwt>
</event>
<event>
 5    1  0.1607476E-006  0.2000411E+02  0.7818608E-02  0.1745246E+00
         -2   -1    0    0    0  501 -0.00000000000E+00  0.00000000000E+00  0.15728193850E+02  0.15728194064E+02  0.26000000000E-02 0. -1.
          2   -1    0    0  501    0  0.00000000000E+00 -0.00000000000E+00 -0.63606230283E+01  0.63606235597E+01  0.26000000000E-02 0.  1.
       1023    2    1    2    0    0  0.00000000000E+00  0.00000000000E+00  0.93675708212E+01  0.22088817624E+02  0.20004111601E+02 0.  0.
        -13    1    3    3    0    0  0.95121378273E+01 -0.30899873300E+01  0.46461772338E+01  0.11028459690E+02  0.10570000000E+00 0. -1.
         13    1    3    3    0    0 -0.95121378273E+01  0.30899873300E+01  0.47213935874E+01  0.11060357935E+02  0.10570000000E+00 0.  1.
<mgrwt>
<rscale>  0 0.20004112E+02</rscale>
<asrwt>0</asrwt>
<pdfrwt beam="2">  1        2 0.97855744E-03 0.20004112E+02</pdfrwt>
<pdfrwt beam="1">  1       -2 0.24197222E-02 0.20004112E+02</pdfrwt>
<totfact> 0.38142162E+06</totfact>
</mgrwt>
</event>
<event>
 5    1  0.1607476E-006  0.2000187E+02  0.7818608E-02  0.1745291E+00
          2   -1    0    0  501    0  0.00000000000E+00  0.00000000000E+00  0.49152559664E+02  0.49152559733E+02  0.26000000000E-02 0. -1.
         -2   -1    0    0    0  501 -0.00000000000E+00 -0.00000000000E+00 -0.20348613709E+01  0.20348630319E+01  0.26000000000E-02 0.  1.
       1023    2    1    2    0    0  0.00000000000E+00  0.00000000000E+00  0.47117698293E+02  0.51187422765E+02  0.20001868834E+02 0.  0.
        -13    1    3    3    0    0 -0.38796968209E+01 -0.92170778746E+01  0.23637508878E+02  0.25666117167E+02  0.10570000000E+00 0.  1.
         13    1    3    3    0    0  0.38796968209E+01  0.92170778746E+01  0.23480189415E+02  0.25521305598E+02  0.10570000000E+00 0. -1.
<mgrwt>
<rscale>  0 0.20001869E+02</rscale>
<asrwt>0</asrwt>
<pdfrwt beam="1">  1        2 0.75619318E-02 0.20001869E+02</pdfrwt>
<pdfrwt beam="2">  1       -2 0.31305575E-03 0.20001869E+02</pdfrwt>
<totfact> 0.46199850E+06</totfact>
</mgrwt>
</event>
<event>
 5    1  0.1607476E-006  0.2001158E+02  0.7818608E-02  0.1745098E+00
         -2   -1    0    0    0  501 -0.00000000000E+00  0.00000000000E+00  0.41267820023E+02  0.41267820105E+02  0.26000000000E-02 0.  1.
          2   -1    0    0  501    0  0.00000000000E+00 -0.00000000000E+00 -0.24260019669E+01  0.24260033602E+01  0.26000000000E-02 0. -1.
       1023    2    1    2    0    0  0.00000000000E+00  0.00000000000E+00  0.38841818056E+02  0.43693823465E+02  0.20011581124E+02 0.  0.
        -13    1    3    3    0    0 -0.94527007192E+01  0.32650065465E+01  0.18762781840E+02  0.21261866651E+02  0.10570000000E+00 0.  1.
         13    1    3    3    0    0  0.94527007192E+01 -0.32650065465E+01  0.20079036216E+02  0.22431956814E+02  0.10570000000E+00 0. -1.
<mgrwt>
<rscale>  0 0.20011581E+02</rscale>
<asrwt>0</asrwt>
<pdfrwt beam="2">  1        2 0.37323117E-03 0.20011581E+02</pdfrwt>
<pdfrwt beam="1">  1       -2 0.63488957E-02 0.20011581E+02</pdfrwt>
<totfact> 0.34741323E+06</totfact>
</mgrwt>
</event>
<event>
 5    1  0.1607476E-006  0.2000198E+02  0.7818608E-02  0.1745289E+00
          2   -1    0    0  501    0  0.00000000000E+00  0.00000000000E+00  0.68369306251E+02  0.68369306301E+02  0.26000000000E-02 0. -1.
         -2   -1    0    0    0  501 -0.00000000000E+00 -0.00000000000E+00 -0.14629334182E+01  0.14629357286E+01  0.26000000000E-02 0.  1.
       1023    2    1    2    0    0  0.00000000000E+00  0.00000000000E+00  0.66906372833E+02  0.69832242029E+02  0.20001982431E+02 0.  0.
        -13    1    3    3    0    0 -0.98407601823E+01 -0.17787493130E+01  0.33228474831E+02  0.34700824517E+02  0.10570000000E+00 0. -1.
         13    1    3    3    0    0  0.98407601823E+01  0.17787493130E+01  0.33677898002E+02  0.35131417512E+02  0.10570000000E+00 0.  1.
<mgrwt>
<rscale>  0 0.20001982E+02</rscale>
<asrwt>0</asrwt>
<pdfrwt beam="1">  1        2 0.10518353E-01 0.20001982E+02</pdfrwt>
<pdfrwt beam="2">  1       -2 0.22506691E-03 0.20001982E+02</pdfrwt>
<totfact> 0.48796492E+06</totfact>
</mgrwt>
</event>
<event>
 5    1  0.1607476E-006  0.2001226E+02  0.7818608E-02  0.1745084E+00
         -2   -1    0    0    0  501 -0.00000000000E+00  0.00000000000E+00  0.73287699620E+01  0.73287704232E+01  0.26000000000E-02 0.  1.
          2   -1    0    0  501    0  0.00000000000E+00 -0.00000000000E+00 -0.13661593220E+02  0.13661593468E+02  0.26000000000E-02 0. -1.
       1023    2    1    2    0    0  0.00000000000E+00  0.00000000000E+00 -0.63328232583E+01  0.20990363891E+02  0.20012264386E+02 0.  0.
        -13    1    3    3    0    0  0.97464393802E+01  0.22621464129E+01 -0.32015448282E+01  0.10505781683E+02  0.10570000000E+00 0. -1.
         13    1    3    3    0    0 -0.97464393802E+01 -0.22621464129E+01 -0.31312784302E+01  0.10484582208E+02  0.10570000000E+00 0.  1.
<mgrwt>
<rscale>  0 0.20012264E+02</rscale>
<asrwt>0</asrwt>
<pdfrwt beam="2">  1        2 0.21017836E-02 0.20012264E+02</pdfrwt>
<pdfrwt beam="1">  1       -2 0.11275031E-02 0.20012264E+02</pdfrwt>
<totfact> 0.40337983E+06</totfact>
</mgrwt>
</event>
<event>
 5    1  0.1607476E-006  0.2000938E+02  0.7818608E-02  0.1745142E+00
         -2   -1    0    0    0  501 -0.00000000000E+00  0.00000000000E+00  0.14137381541E+02  0.14137381780E+02  0.26000000000E-02 0.  1.
          2   -1    0    0  501    0  0.00000000000E+00 -0.00000000000E+00 -0.70800812508E+01  0.70800817282E+01  0.26000000000E-02 0. -1.
       1023    2    1    2    0    0  0.00000000000E+00  0.00000000000E+00  0.70573002897E+01  0.21217463508E+02  0.20009379559E+02 0.  0.
        -13    1    3    3    0    0 -0.60199859498E+00 -0.99840092421E+01  0.33170998770E+01  0.10538366426E+02  0.10570000000E+00 0. -1.
         13    1    3    3    0    0  0.60199859498E+00  0.99840092421E+01  0.37402004127E+01  0.10679097081E+02  0.10570000000E+00 0.  1.
<mgrwt>
<rscale>  0 0.20009380E+02</rscale>
<asrwt>0</asrwt>
<pdfrwt beam="2">  1        2 0.10892433E-02 0.20009380E+02</pdfrwt>
<pdfrwt beam="1">  1       -2 0.21749818E-02 0.20009380E+02</pdfrwt>
<totfact> 0.38430496E+06</totfact>
</mgrwt>
</event>
<event>
 4    1  0.1622039E-006  0.2118384E+02  0.7818608E-02  0.1722762E+00
         -2   -1    0    0    0  501 -0.00000000000E+00  0.00000000000E+00  0.19986174440E+02  0.19986174609E+02  0.26000000000E-02 0.  1.
          2   -1    0    0  501    0  0.00000000000E+00 -0.00000000000E+00 -0.56133192218E+01  0.56133198240E+01  0.26000000000E-02 0. -1.
        -13    1    1    2    0    0  0.97852778951E+01  0.28522619655E+01  0.37069150404E+01  0.10846172293E+02  0.10570000000E+00 0. -1.
         13    1    1    2    0    0 -0.97852778951E+01 -0.28522619655E+01  0.10665940178E+02  0.14753322140E+02  0.10570000000E+00 0.  1.
<mgrwt>
<rscale>  0 0.21183842E+02</rscale>
<asrwt>0</asrwt>
<pdfrwt beam="2">  1        2 0.86358762E-03 0.21183842E+02</pdfrwt>
<pdfrwt beam="1">  1       -2 0.30747962E-02 0.21183842E+02</pdfrwt>
<totfact> 0.33022726E+06</totfact>
</mgrwt>
</event>
<event>
 4    1  0.1607476E-006  0.2001675E+02  0.7818608E-02  0.1744995E+00
         -2   -1    0    0    0  501 -0.00000000000E+00  0.00000000000E+00  0.85679852119E+02  0.85679852159E+02  0.26000000000E-02 0.  1.
          2   -1    0    0  501    0  0.00000000000E+00 -0.00000000000E+00 -0.11690895747E+01  0.11690924659E+01  0.26000000000E-02 0. -1.
        -13    1    1    2    0    0 -0.22168350116E+01  0.97545752409E+01  0.43559056203E+02  0.44693049185E+02  0.10570000000E+00 0. -1.
         13    1    1    2    0    0  0.22168350116E+01 -0.97545752409E+01  0.40951706341E+02  0.42155895440E+02  0.10570000000E+00 0.  1.
<mgrwt>
<rscale>  0 0.20016748E+02</rscale>
<asrwt>0</asrwt>
<pdfrwt beam="2">  1        2 0.17986019E-03 0.20016748E+02</pdfrwt>
<pdfrwt beam="1">  1       -2 0.13181514E-01 0.20016748E+02</pdfrwt>
<totfact> 0.30752447E+06</totfact>
</mgrwt>
</event>
<event>
 5    1  0.1607476E-006  0.2000475E+02  0.7818608E-02  0.1745234E+00
          2   -1    0    0  501    0  0.00000000000E+00  0.00000000000E+00  0.80479270884E+02  0.80479270926E+02  0.26000000000E-02 0.  1.
         -2   -1    0    0    0  501 -0.00000000000E+00 -0.00000000000E+00 -0.12431454477E+01  0.12431481666E+01  0.26000000000E-02 0. -1.
       1023    2    1    2    0    0  0.00000000000E+00  0.00000000000E+00  0.79236125436E+02  0.81722419093E+02  0.20004754640E+02 0.  0.
        -13    1    3    3    0    0 -0.32761828054E+01  0.94484072773E+01  0.38903386720E+02  0.40168276595E+02  0.10570000000E+00 0.  1.
         13    1    3    3    0    0  0.32761828054E+01 -0.94484072773E+01  0.40332738716E+02  0.41554142498E+02  0.10570000000E+00 0. -1.
<mgrwt>
<rscale>  0 0.20004755E+02</rscale>
<asrwt>0</asrwt>
<pdfrwt beam="1">  1        2 0.12381425E-01 0.20004755E+02</pdfrwt>
<pdfrwt beam="2">  1       -2 0.19125339E-03 0.20004755E+02</pdfrwt>
<totfact> 0.50333493E+06</totfact>
</mgrwt>
</event>
<event>
 5    1  0.1607476E-006  0.2000266E+02  0.7818608E-02  0.1745275E+00
          2   -1    0    0  501    0  0.00000000000E+00  0.00000000000E+00  0.71886354880E+02  0.71886354927E+02  0.26000000000E-02 0. -1.
         -2   -1    0    0    0  501 -0.00000000000E+00 -0.00000000000E+00 -0.13914539325E+01  0.13914563617E+01  0.26000000000E-02 0.  1.
       1023    2    1    2    0    0  0.00000000000E+00  0.00000000000E+00  0.70494900948E+02  0.73277811289E+02  0.20002664014E+02 0.  0.
        -13    1    3    3    0    0 -0.24891600722E+01  0.96856041781E+01  0.35587639729E+02  0.36966175352E+02  0.10570000000E+00 0. -1.
         13    1    3    3    0    0  0.24891600722E+01 -0.96856041781E+01  0.34907261219E+02  0.36311635937E+02  0.10570000000E+00 0.  1.
<mgrwt>
<rscale>  0 0.20002664E+02</rscale>
<asrwt>0</asrwt>
<pdfrwt beam="1">  1        2 0.11059441E-01 0.20002664E+02</pdfrwt>
<pdfrwt beam="2">  1       -2 0.21407000E-03 0.20002664E+02</pdfrwt>
<totfact> 0.49249792E+06</totfact>
</mgrwt>
</event>
<event>
 5    1  0.1607476E-006  0.2000216E+02  0.7818608E-02  0.1745285E+00
          2   -1    0    0  501    0  0.00000000000E+00  0.00000000000E+00  0.43371002600E+01  0.43371010393E+01  0.26000000000E-02 0. -1.
         -2   -1    0    0    0  501 -0.00000000000E+00 -0.00000000000E+00 -0.23061866180E+02  0.23061866327E+02  0.26000000000E-02 0.  1.
       1023    2    1    2    0    0  0.00000000000E+00  0.00000000000E+00 -0.18724765920E+02  0.27398967366E+02  0.20002163732E+02 0.  0.
        -13    1    3    3    0    0 -0.91949625625E+01  0.39312405689E+01 -0.92362641221E+01  0.13613292635E+02  0.10570000000E+00 0.  1.
         13    1    3    3    0    0  0.91949625625E+01 -0.39312405689E+01 -0.94885017980E+01  0.13785674731E+02  0.10570000000E+00 0. -1.
<mgrwt>
<rscale>  0 0.20002164E+02</rscale>
<asrwt>0</asrwt>
<pdfrwt beam="1">  1        2 0.66724628E-03 0.20002164E+02</pdfrwt>
<pdfrwt beam="2">  1       -2 0.35479794E-02 0.20002164E+02</pdfrwt>
<totfact> 0.36969484E+06</totfact>
</mgrwt>
</event>
<event>
 5    1  0.1700012E-006  0.2000185E+02  0.7818608E-02  0.1745291E+00
         -2   -1    0    0    0  501 -0.00000000000E+00  0.00000000000E+00  0.56835485194E+01  0.56835491141E+01  0.26000000000E-02 0. -1.
          2   -1    0    0  501    0  0.00000000000E+00 -0.00000000000E+00 -0.17597891043E+02  0.17597891235E+02  0.26000000000E-02 0.  1.
       1023    2    1    2    0    0  0.00000000000E+00  0.00000000000E+00 -0.11914342523E+02  0.23281440349E+02  0.20001847588E+02 0.  0.
        -13    1    3    3    0    0 -0.78953100933E+01  0.61376109734E+01 -0.59183165014E+01  0.11620836142E+02  0.10570000000E+00 0. -1.
         13    1    3    3    0    0  0.78953100933E+01 -0.61376109734E+01 -0.59960260218E+01  0.11660604207E+02  0.10570000000E+00 0.  1.
<mgrwt>
<rscale>  0 0.20001848E+02</rscale>
<asrwt>0</asrwt>
<pdfrwt beam="2">  1        2 0.27073679E-02 0.20001848E+02</pdfrwt>
<pdfrwt beam="1">  1       -2 0.87439215E-03 0.20001848E+02</pdfrwt>
<totfact> 0.41212998E+06</totfact>
</mgrwt>
</event>
<event>
 5    1  0.1607476E-006  0.2000634E+02  0.7818608E-02  0.1745202E+00
          2   -1    0    0  501    0  0.00000000000E+00  0.00000000000E+00  0.69824675255E+02  0.69824675303E+02  0.26000000000E-02 0.  1.
         -2   -1    0    0    0  501 -0.00000000000E+00 -0.00000000000E+00 -0.14330648159E+01  0.14330671745E+01  0.26000000000E-02 0. -1.
       1023    2    1    2    0    0  0.00000000000E+00  0.00000000000E+00  0.68391610439E+02  0.71257742477E+02  0.20006336111E+02 0.  0.
        -13    1    3    3    0    0 -0.53781830584E+01  0.84325730056E+01  0.34687510575E+02  0.36100799200E+02  0.10570000000E+00 0.  1.
         13    1    3    3    0    0  0.53781830584E+01 -0.84325730056E+01  0.33704099864E+02  0.35156943278E+02  0.10570000000E+00 0. -1.
<mgrwt>
<rscale>  0 0.20006336E+02</rscale>
<asrwt>0</asrwt>
<pdfrwt beam="1">  1        2 0.10742255E-01 0.20006336E+02</pdfrwt>
<pdfrwt beam="2">  1       -2 0.22047175E-03 0.20006336E+02</pdfrwt>
<totfact> 0.48962611E+06</totfact>
</mgrwt>
</event>
<event>
 4    1  0.1607476E-006  0.2017694E+02  0.7818608E-02  0.1741832E+00
          2   -1    0    0  501    0  0.00000000000E+00  0.00000000000E+00  0.24292465116E+02  0.24292465256E+02  0.26000000000E-02 0.  1.
         -2   -1    0    0    0  501 -0.00000000000E+00 -0.00000000000E+00 -0.41896630585E+01  0.41896638652E+01  0.26000000000E-02 0. -1.
        -13    1    1    2    0    0  0.10081406784E+02 -0.34366580216E+00  0.10213680308E+02  0.14355601932E+02  0.10570000000E+00 0.  1.
         13    1    1    2    0    0 -0.10081406784E+02  0.34366580216E+00  0.98891217501E+01  0.14126527188E+02  0.10570000000E+00 0. -1.
<mgrwt>
<rscale>  0 0.20176943E+02</rscale>
<asrwt>0</asrwt>
<pdfrwt beam="1">  1        2 0.37373025E-02 0.20176943E+02</pdfrwt>
<pdfrwt beam="2">  1       -2 0.64456361E-03 0.20176943E+02</pdfrwt>
<totfact> 0.41604209E+06</totfact>
</mgrwt>
</event>
<event>
 5    1  0.1607476E-006  0.2000278E+02  0.7818608E-02  0.1745273E+00
         -2   -1    0    0    0  501 -0.00000000000E+00  0.00000000000E+00  0.10432424389E+02  0.10432424713E+02  0.26000000000E-02 0.  1.
          2   -1    0    0  501    0  0.00000000000E+00 -0.00000000000E+00 -0.95881610183E+01  0.95881613709E+01  0.26000000000E-02 0. -1.
       1023    2    1    2    0    0  0.00000000000E+00  0.00000000000E+00  0.84426337024E+00  0.20020586083E+02  0.20002776969E+02 0.  0.
        -13    1    3    3    0    0 -0.99511754035E+01  0.99405890096E+00  0.47271499476E+00  0.10012426128E+02  0.10570000000E+00 0. -1.
         13    1    3    3    0    0  0.99511754035E+01 -0.99405890096E+00  0.37154837548E+00  0.10008159956E+02  0.10570000000E+00 0.  1.
<mgrwt>
<rscale>  0 0.20002777E+02</rscale>
<asrwt>0</asrwt>
<pdfrwt beam="2">  1        2 0.14751017E-02 0.20002777E+02</pdfrwt>
<pdfrwt beam="1">  1       -2 0.16049884E-02 0.20002777E+02</pdfrwt>
<totfact> 0.39329360E+06</totfact>
</mgrwt>
</event>
<event>
 5    1  0.1607476E-006  0.2001140E+02  0.7818608E-02  0.1745101E+00
         -2   -1    0    0    0  501 -0.00000000000E+00  0.00000000000E+00  0.13046079954E+01  0.13046105862E+01  0.26000000000E-02 0.  1.
          2   -1    0    0  501    0  0.00000000000E+00 -0.00000000000E+00 -0.76738704099E+02  0.76738704143E+02  0.26000000000E-02 0. -1.
       1023    2    1    2    0    0  0.00000000000E+00  0.00000000000E+00 -0.75434096103E+02  0.78043314729E+02  0.20011399725E+02 0.  0.
        -13    1    3    3    0    0 -0.99092285149E+01  0.13749759338E+01 -0.37172608895E+02  0.38495420418E+02  0.10570000000E+00 0. -1.
         13    1    3    3    0    0  0.99092285149E+01 -0.13749759338E+01 -0.38261487209E+02  0.39547894312E+02  0.10570000000E+00 0.  1.
<mgrwt>
<rscale>  0 0.20011400E+02</rscale>
<asrwt>0</asrwt>
<pdfrwt beam="2">  1        2 0.11805951E-01 0.20011400E+02</pdfrwt>
<pdfrwt beam="1">  1       -2 0.20070919E-03 0.20011400E+02</pdfrwt>
<totfact> 0.49823543E+06</totfact>
</mgrwt>
</event>
<event>
 5    1  0.1607476E-006  0.2000870E+02  0.7818608E-02  0.1745155E+00
          2   -1    0    0  501    0  0.00000000000E+00  0.00000000000E+00  0.68826076712E+01  0.68826081623E+01  0.26000000000E-02 0.  1.
         -2   -1    0    0    0  501 -0.00000000000E+00 -0.00000000000E+00 -0.14542019656E+02  0.14542019889E+02  0.26000000000E-02 0. -1.
       1023    2    1    2    0    0  0.00000000000E+00  0.00000000000E+00 -0.76594119853E+01  0.21424628051E+02  0.20008700487E+02 0.  0.
        -13    1    3    3    0    0  0.57574854477E+01 -0.81793445835E+01 -0.36586017789E+01  0.10651143411E+02  0.10570000000E+00 0. -1.
         13    1    3    3    0    0 -0.57574854477E+01  0.81793445835E+01 -0.40008102064E+01  0.10773484640E+02  0.10570000000E+00 0.  1.
<mgrwt>
<rscale>  0 0.20008700E+02</rscale>
<asrwt>0</asrwt>
<pdfrwt beam="1">  1        2 0.10588628E-02 0.20008700E+02</pdfrwt>
<pdfrwt beam="2">  1       -2 0.22372338E-02 0.20008700E+02</pdfrwt>
<totfact> 0.38351702E+06</totfact>
</mgrwt>
</event>
<event>
 4    1  0.1607476E-006  0.2009924E+02  0.7818608E-02  0.1743362E+00
         -2   -1    0    0    0  501 -0.00000000000E+00  0.00000000000E+00  0.26291428024E+01  0.26291440879E+01  0.26000000000E-02 0. -1.
          2   -1    0    0  501    0  0.00000000000E+00 -0.00000000000E+00 -0.38413580426E+02  0.38413580514E+02  0.26000000000E-02 0.  1.
        -13    1    1    2    0    0 -0.79434473253E+01  0.60778048459E+01 -0.15906557827E+02  0.18790099030E+02  0.10570000000E+00 0.  1.
         13    1    1    2    0    0  0.79434473253E+01 -0.60778048459E+01 -0.19877879796E+02  0.22252625572E+02  0.10570000000E+00 0. -1.
<mgrwt>
<rscale>  0 0.20099235E+02</rscale>
<asrwt>0</asrwt>
<pdfrwt beam="2">  1        2 0.59097813E-02 0.20099235E+02</pdfrwt>
<pdfrwt beam="1">  1       -2 0.40448364E-03 0.20099235E+02</pdfrwt>
<totfact> 0.44170442E+06</totfact>
</mgrwt>
</event>
<event>
 5    1  0.2592780E-006  0.2000355E+02  0.7818608E-02  0.1745257E+00
         -2   -1    0    0    0  501 -0.00000000000E+00  0.00000000000E+00  0.85468978958E+00  0.85469374423E+00  0.26000000000E-02 0.  1.
          2   -1    0    0  501    0  0.00000000000E+00 -0.00000000000E+00 -0.11704282798E+03  0.11704282800E+03  0.26000000000E-02 0. -1.
       1023    2    1    2    0    0  0.00000000000E+00  0.00000000000E+00 -0.11618813819E+03  0.11789752175E+03  0.20003554168E+02 0.  0.
        -13    1    3    3    0    0  0.68270466321E+00 -0.99778843271E+01 -0.58031960678E+02  0.58887552963E+02  0.10570000000E+00 0. -1.
         13    1    3    3    0    0 -0.68270466321E+00  0.99778843271E+01 -0.58156177507E+02  0.59009968785E+02  0.10570000000E+00 0.  1.
<mgrwt>
<rscale>  0 0.20003554E+02</rscale>
<asrwt>0</asrwt>
<pdfrwt beam="2">  1        2 0.18006576E-01 0.20003554E+02</pdfrwt>
<pdfrwt beam="1">  1       -2 0.13149114E-03 0.20003554E+02</pdfrwt>
<totfact> 0.54732806E+06</totfact>
</mgrwt>
</event>
<event>
 5    1  0.1607476E-006  0.2000443E+02  0.7818608E-02  0.1745240E+00
          2   -1    0    0  501    0  0.00000000000E+00  0.00000000000E+00  0.35066810561E+01  0.35066820200E+01  0.26000000000E-02 0.  1.
         -2   -1    0    0    0  501 -0.00000000000E+00 -0.00000000000E+00 -0.28529636468E+02  0.28529636586E+02  0.26000000000E-02 0. -1.
       1023    2    1    2    0    0  0.00000000000E+00  0.00000000000E+00 -0.25022955412E+02  0.32036318606E+02  0.20004434816E+02 0.  0.
        -13    1    3    3    0    0  0.13180858438E+00 -0.10000790098E+02 -0.12508083547E+02  0.16015508190E+02  0.10570000000E+00 0. -1.
         13    1    3    3    0    0 -0.13180858438E+00  0.10000790098E+02 -0.12514871865E+02  0.16020810416E+02  0.10570000000E+00 0.  1.
<mgrwt>
<rscale>  0 0.20004435E+02</rscale>
<asrwt>0</asrwt>
<pdfrwt beam="1">  1        2 0.53948950E-03 0.20004435E+02</pdfrwt>
<pdfrwt beam="2">  1       -2 0.43891748E-02 0.20004435E+02</pdfrwt>
<totfact> 0.36230079E+06</totfact>
</mgrwt>
</event>
<event>
 5    1  0.1607476E-006  0.2000430E+02  0.7818608E-02  0.1745243E+00
          2   -1    0    0  501    0  0.00000000000E+00  0.00000000000E+00  0.20095004568E+02  0.20095004736E+02  0.26000000000E-02 0. -1.
         -2   -1    0    0    0  501 -0.00000000000E+00 -0.00000000000E+00 -0.49784997612E+01  0.49785004402E+01  0.26000000000E-02 0.  1.
       1023    2    1    2    0    0  0.00000000000E+00  0.00000000000E+00  0.15116504807E+02  0.25073505177E+02  0.20004298145E+02 0.  0.
        -13    1    3    3    0    0 -0.98545288232E+01  0.17004543878E+01  0.77699634648E+01  0.12664390557E+02  0.10570000000E+00 0. -1.
         13    1    3    3    0    0  0.98545288232E+01 -0.17004543878E+01  0.73465413422E+01  0.12409114619E+02  0.10570000000E+00 0.  1.
<mgrwt>
<rscale>  0 0.20004298E+02</rscale>
<asrwt>0</asrwt>
<pdfrwt beam="1">  1        2 0.30915393E-02 0.20004298E+02</pdfrwt>
<pdfrwt beam="2">  1       -2 0.76592310E-03 0.20004298E+02</pdfrwt>
<totfact> 0.41675286E+06</totfact>
</mgrwt>
</event>
<event>
 5    1  0.1607476E-006  0.2000114E+02  0.7818608E-02  0.1745305E+00
         -2   -1    0    0    0  501 -0.00000000000E+00  0.00000000000E+00  0.88865023594E+01  0.88865027397E+01  0.26000000000E-02 0. -1.
          2   -1    0    0  501    0  0.00000000000E+00 -0.00000000000E+00 -0.11254306858E+02  0.11254307159E+02  0.26000000000E-02 0.  1.
       1023    2    1    2    0    0  0.00000000000E+00  0.00000000000E+00 -0.23678044989E+01  0.20140809898E+02  0.20001143098E+02 0.  0.
        -13    1    3    3    0    0  0.19318512436E-01 -0.99999903754E+01 -0.11750031375E+01  0.10069358747E+02  0.10570000000E+00 0. -1.
         13    1    3    3    0    0 -0.19318512436E-01  0.99999903754E+01 -0.11928013613E+01  0.10071451151E+02  0.10570000000E+00 0.  1.
<mgrwt>
<rscale>  0 0.20001143E+02</rscale>
<asrwt>0</asrwt>
<pdfrwt beam="2">  1        2 0.17314319E-02 0.20001143E+02</pdfrwt>
<pdfrwt beam="1">  1       -2 0.13671543E-02 0.20001143E+02</pdfrwt>
<totfact> 0.39802921E+06</totfact>
</mgrwt>
</event>
<event>
 5    1  0.1607476E-006  0.2000368E+02  0.7818608E-02  0.1745255E+00
         -2   -1    0    0    0  501 -0.00000000000E+00  0.00000000000E+00  0.19604528876E+02  0.19604529048E+02  0.26000000000E-02 0. -1.
          2   -1    0    0  501    0  0.00000000000E+00 -0.00000000000E+00 -0.51027369224E+01  0.51027375848E+01  0.26000000000E-02 0.  1.
       1023    2    1    2    0    0  0.00000000000E+00  0.00000000000E+00  0.14501791953E+02  0.24707266633E+02  0.20003676027E+02 0.  0.
        -13    1    3    3    0    0  0.70726182704E+01  0.70708040103E+01  0.73570933634E+01  0.12415965279E+02  0.10570000000E+00 0.  1.
         13    1    3    3    0    0 -0.70726182704E+01 -0.70708040103E+01  0.71446985897E+01  0.12291301354E+02  0.10570000000E+00 0. -1.
<mgrwt>
<rscale>  0 0.20003676E+02</rscale>
<asrwt>0</asrwt>
<pdfrwt beam="2">  1        2 0.78503651E-03 0.20003676E+02</pdfrwt>
<pdfrwt beam="1">  1       -2 0.30160814E-02 0.20003676E+02</pdfrwt>
<totfact> 0.37481115E+06</totfact>
</mgrwt>
</event>
<event>
 4    1  0.1607476E-006  0.2001899E+02  0.7818608E-02  0.1744951E+00
         -2   -1    0    0    0  501 -0.00000000000E+00  0.00000000000E+00  0.66417102760E+01  0.66417107849E+01  0.26000000000E-02 0. -1.
          2   -1    0    0  501    0  0.00000000000E+00 -0.00000000000E+00 -0.15084963552E+02  0.15084963777E+02  0.26000000000E-02 0.  1.
        -13    1    1    2    0    0  0.95413637514E+01  0.30229105539E+01 -0.41604011145E+01  0.10839544288E+02  0.10570000000E+00 0.  1.
         13    1    1    2    0    0 -0.95413637514E+01 -0.30229105539E+01 -0.42828521620E+01  0.10887130273E+02  0.10570000000E+00 0. -1.
<mgrwt>
<rscale>  0 0.20018988E+02</rscale>
<asrwt>0</asrwt>
<pdfrwt beam="2">  1        2 0.23207637E-02 0.20018988E+02</pdfrwt>
<pdfrwt beam="1">  1       -2 0.10218016E-02 0.20018988E+02</pdfrwt>
<totfact> 0.40620392E+06</totfact>
</mgrwt>
</event>
<event>
 4    1  0.1607476E-006  0.2010593E+02  0.7818608E-02  0.1743230E+00
         -2   -1    0    0    0  501 -0.00000000000E+00  0.00000000000E+00  0.53973229102E+02  0.53973229165E+02  0.26000000000E-02 0. -1.
          2   -1    0    0  501    0  0.00000000000E+00 -0.00000000000E+00 -0.18724486361E+01  0.18724504412E+01  0.26000000000E-02 0.  1.
        -13    1    1    2    0    0 -0.78699159186E+01 -0.62204792454E+01  0.24248090023E+02  0.26241398226E+02  0.10570000000E+00 0. -1.
         13    1    1    2    0    0  0.78699159186E+01  0.62204792454E+01  0.27852690443E+02  0.29604281380E+02  0.10570000000E+00 0.  1.
<mgrwt>
<rscale>  0 0.20105935E+02</rscale>
<asrwt>0</asrwt>
<pdfrwt beam="2">  1        2 0.28806919E-03 0.20105935E+02</pdfrwt>
<pdfrwt beam="1">  1       -2 0.83035732E-02 0.20105935E+02</pdfrwt>
<totfact> 0.33132480E+06</totfact>
</mgrwt>
</event>
<event>
 5    1  0.1607476E-006  0.2000557E+02  0.7818608E-02  0.1745217E+00
         -2   -1    0    0    0  501 -0.00000000000E+00  0.00000000000E+00  0.83555248540E+02  0.83555248580E+02  0.26000000000E-02 0.  1.
          2   -1    0    0  501    0  0.00000000000E+00 -0.00000000000E+00 -0.11974787031E+01  0.11974815257E+01  0.26000000000E-02 0. -1.
       1023    2    1    2    0    0  0.00000000000E+00  0.00000000000E+00  0.82357769837E+02  0.84752730106E+02  0.20005574422E+02 0.  0.
        -13    1    3    3    0    0 -0.97070520206E+01 -0.24103681020E+01  0.41554144472E+02  0.42741020444E+02  0.10570000000E+00 0.  1.
         13    1    3    3    0    0  0.97070520206E+01  0.24103681020E+01  0.40803625365E+02  0.42011709662E+02  0.10570000000E+00 0. -1.
<mgrwt>
<rscale>  0 0.20005574E+02</rscale>
<asrwt>0</asrwt>
<pdfrwt beam="2">  1        2 0.18422769E-03 0.20005574E+02</pdfrwt>
<pdfrwt beam="1">  1       -2 0.12854656E-01 0.20005574E+02</pdfrwt>
<totfact> 0.30956482E+06</totfact>
</mgrwt>
</event>
<event>
 5    1  0.1607476E-006  0.2000269E+02  0.7818608E-02  0.1745275E+00
          2   -1    0    0  501    0  0.00000000000E+00  0.00000000000E+00  0.15938222069E+02  0.15938222281E+02  0.26000000000E-02 0. -1.
         -2   -1    0    0    0  501 -0.00000000000E+00 -0.00000000000E+00 -0.62759106515E+01  0.62759111900E+01  0.26000000000E-02 0.  1.
       1023    2    1    2    0    0  0.00000000000E+00  0.00000000000E+00  0.96623114173E+01  0.22214133471E+02  0.20002686418E+02 0.  0.
        -13    1    3    3    0    0  0.99720142199E+01  0.75391849816E+00  0.49188320260E+01  0.11145202631E+02  0.10570000000E+00 0. -1.
         13    1    3    3    0    0 -0.99720142199E+01 -0.75391849816E+00  0.47434793914E+01  0.11068930840E+02  0.10570000000E+00 0.  1.
<mgrwt>
<rscale>  0 0.20002686E+02</rscale>
<asrwt>0</asrwt>
<pdfrwt beam="1">  1        2 0.24520342E-02 0.20002686E+02</pdfrwt>
<pdfrwt beam="2">  1       -2 0.96552478E-03 0.20002686E+02</pdfrwt>
<totfact> 0.40874847E+06</totfact>
</mgrwt>
</event>
<event>
 5    1  0.1607476E-006  0.2000327E+02  0.7818608E-02  0.1745263E+00
         -2   -1    0    0    0  501 -0.00000000000E+00  0.00000000000E+00  0.47718726306E+02  0.47718726377E+02  0.26000000000E-02 0.  1.
          2   -1    0    0  501    0  0.00000000000E+00 -0.00000000000E+00 -0.20962981138E+01  0.20962997262E+01  0.26000000000E-02 0. -1.
       1023    2    1    2    0    0  0.00000000000E+00  0.00000000000E+00  0.45622428192E+02  0.49815026103E+02  0.20003271520E+02 0.  0.
        -13    1    3    3    0    0 -0.89360257468E+01  0.44906551964E+01  0.22947732741E+02  0.25032541834E+02  0.10570000000E+00 0. -1.
         13    1    3    3    0    0  0.89360257468E+01 -0.44906551964E+01  0.22674695451E+02  0.24782484269E+02  0.10570000000E+00 0.  1.
<mgrwt>
<rscale>  0 0.20003272E+02</rscale>
<asrwt>0</asrwt>
<pdfrwt beam="2">  1        2 0.32250754E-03 0.20003272E+02</pdfrwt>
<pdfrwt beam="1">  1       -2 0.73413424E-02 0.20003272E+02</pdfrwt>
<totfact> 0.34111238E+06</totfact>
</mgrwt>
</event>
<event>
 5    1  0.1607476E-006  0.2000320E+02  0.7818608E-02  0.1745264E+00
         -2   -1    0    0    0  501 -0.00000000000E+00  0.00000000000E+00  0.51177656503E+01  0.51177663107E+01  0.26000000000E-02 0. -1.
          2   -1    0    0  501    0  0.00000000000E+00 -0.00000000000E+00 -0.19546034847E+02  0.19546035020E+02  0.26000000000E-02 0.  1.
       1023    2    1    2    0    0  0.00000000000E+00  0.00000000000E+00 -0.14428269197E+02  0.24663801331E+02  0.20003203345E+02 0.  0.
        -13    1    3    3    0    0 -0.27083397396E+01  0.96266126250E+01 -0.70677832576E+01  0.12246285455E+02  0.10570000000E+00 0.  1.
         13    1    3    3    0    0  0.27083397396E+01 -0.96266126250E+01 -0.73604859393E+01  0.12417515876E+02  0.10570000000E+00 0. -1.
<mgrwt>
<rscale>  0 0.20003203E+02</rscale>
<asrwt>0</asrwt>
<pdfrwt beam="2">  1        2 0.30070823E-02 0.20003203E+02</pdfrwt>
<pdfrwt beam="1">  1       -2 0.78734864E-03 0.20003203E+02</pdfrwt>
<totfact> 0.41578880E+06</totfact>
</mgrwt>
</event>
<event>
 4    1  0.1607476E-006  0.2002719E+02  0.7818608E-02  0.1744788E+00
         -2   -1    0    0    0  501 -0.00000000000E+00  0.00000000000E+00  0.11486377290E+03  0.11486377293E+03  0.26000000000E-02 0.  1.
          2   -1    0    0  501    0  0.00000000000E+00 -0.00000000000E+00 -0.87296303994E+00  0.87296691181E+00  0.26000000000E-02 0. -1.
        -13    1    1    2    0    0  0.70730787830E+01  0.70812399296E+01  0.55276420450E+02  0.56175316934E+02  0.10570000000E+00 0.  1.
         13    1    1    2    0    0 -0.70730787830E+01 -0.70812399296E+01  0.58714389408E+02  0.59561422905E+02  0.10570000000E+00 0. -1.
<mgrwt>
<rscale>  0 0.20027187E+02</rscale>
<asrwt>0</asrwt>
<pdfrwt beam="2">  1        2 0.13430224E-03 0.20027187E+02</pdfrwt>
<pdfrwt beam="1">  1       -2 0.17671358E-01 0.20027187E+02</pdfrwt>
<totfact> 0.28601426E+06</totfact>
</mgrwt>
</event>
<event>
 4    1  0.1607476E-006  0.2005840E+02  0.7818608E-02  0.1744169E+00
          2   -1    0    0  501    0  0.00000000000E+00  0.00000000000E+00  0.27310742717E+02  0.27310742841E+02  0.26000000000E-02 0.  1.
         -2   -1    0    0    0  501 -0.00000000000E+00 -0.00000000000E+00 -0.36829772461E+01  0.36829781639E+01  0.26000000000E-02 0. -1.
        -13    1    1    2    0    0  0.20968545806E+01 -0.97912106220E+01  0.12672925983E+02  0.16151743869E+02  0.10570000000E+00 0.  1.
         13    1    1    2    0    0 -0.20968545806E+01  0.97912106220E+01  0.10954839488E+02  0.14841977135E+02  0.10570000000E+00 0. -1.
<mgrwt>
<rscale>  0 0.20058401E+02</rscale>
<asrwt>0</asrwt>
<pdfrwt beam="1">  1        2 0.42016529E-02 0.20058401E+02</pdfrwt>
<pdfrwt beam="2">  1       -2 0.56661195E-03 0.20058401E+02</pdfrwt>
<totfact> 0.42660180E+06</totfact>
</mgrwt>
</event>
<event>
 4    1  0.1607476E-006  0.2033690E+02  0.7818608E-02  0.1738710E+00
          2   -1    0    0  501    0  0.00000000000E+00  0.00000000000E+00  0.14652192771E+02  0.14652193001E+02  0.26000000000E-02 0. -1.
         -2   -1    0    0    0  501 -0.00000000000E+00 -0.00000000000E+00 -0.70567872304E+01  0.70567877093E+01  0.26000000000E-02 0.  1.
        -13    1    1    2    0    0 -0.39589436622E+01  0.93640773862E+01  0.39733063043E+01  0.10915929447E+02  0.10570000000E+00 0. -1.
         13    1    1    2    0    0  0.39589436622E+01 -0.93640773862E+01  0.36220992362E+01  0.10793051264E+02  0.10570000000E+00 0.  1.
<mgrwt>
<rscale>  0 0.20336904E+02</rscale>
<asrwt>0</asrwt>
<pdfrwt beam="1">  1        2 0.22541835E-02 0.20336904E+02</pdfrwt>
<pdfrwt beam="2">  1       -2 0.10856596E-02 0.20336904E+02</pdfrwt>
<totfact> 0.39102798E+06</totfact>
</mgrwt>
</event>
<event>
 4    1  0.1607476E-006  0.2015482E+02  0.7818608E-02  0.1742267E+00
          2   -1    0    0  501    0  0.00000000000E+00  0.00000000000E+00  0.19258305756E+02  0.19258305932E+02  0.26000000000E-02 0. -1.
         -2   -1    0    0    0  501 -0.00000000000E+00 -0.00000000000E+00 -0.52732684200E+01  0.52732690610E+01  0.26000000000E-02 0.  1.
        -13    1    1    2    0    0  0.35968359923E+00  0.10049375978E+02  0.77848148912E+01  0.12717462216E+02  0.10570000000E+00 0.  1.
         13    1    1    2    0    0 -0.35968359923E+00 -0.10049375978E+02  0.62002224452E+01  0.11814112777E+02  0.10570000000E+00 0. -1.
<mgrwt>
<rscale>  0 0.20154823E+02</rscale>
<asrwt>0</asrwt>
<pdfrwt beam="1">  1        2 0.29628164E-02 0.20154823E+02</pdfrwt>
<pdfrwt beam="2">  1       -2 0.81127212E-03 0.20154823E+02</pdfrwt>
<totfact> 0.40823504E+06</totfact>
</mgrwt>
</event>
<event>
 4    1  0.1607476E-006  0.2023319E+02  0.7818608E-02  0.1740730E+00
          2   -1    0    0  501    0  0.00000000000E+00  0.00000000000E+00  0.63304393934E+01  0.63304399273E+01  0.26000000000E-02 0. -1.
         -2   -1    0    0    0  501 -0.00000000000E+00 -0.00000000000E+00 -0.16167199153E+02  0.16167199362E+02  0.26000000000E-02 0.  1.
        -13    1    1    2    0    0  0.10032051075E+02 -0.12975704392E+01 -0.50213295155E+01  0.11293832849E+02  0.10570000000E+00 0.  1.
         13    1    1    2    0    0 -0.10032051075E+02  0.12975704392E+01 -0.48154302436E+01  0.11203806440E+02  0.10570000000E+00 0. -1.
<mgrwt>
<rscale>  0 0.20233189E+02</rscale>
<asrwt>0</asrwt>
<pdfrwt beam="1">  1        2 0.97391382E-03 0.20233189E+02</pdfrwt>
<pdfrwt beam="2">  1       -2 0.24872614E-02 0.20233189E+02</pdfrwt>
<totfact> 0.37134999E+06</totfact>
</mgrwt>
</event>
<event>
 5    1  0.1607476E-006  0.2000324E+02  0.7818608E-02  0.1745264E+00
          2   -1    0    0  501    0  0.00000000000E+00  0.00000000000E+00  0.31141916794E+02  0.31141916902E+02  0.26000000000E-02 0. -1.
         -2   -1    0    0    0  501 -0.00000000000E+00 -0.00000000000E+00 -0.32121458940E+01  0.32121469462E+01  0.26000000000E-02 0.  1.
       1023    2    1    2    0    0  0.00000000000E+00  0.00000000000E+00  0.27929770900E+02  0.34354063849E+02  0.20003239747E+02 0.  0.
        -13    1    3    3    0    0 -0.53995084981E+01  0.84180865359E+01  0.13881547643E+02  0.17109278489E+02  0.10570000000E+00 0. -1.
         13    1    3    3    0    0  0.53995084981E+01 -0.84180865359E+01  0.14048223257E+02  0.17244785360E+02  0.10570000000E+00 0.  1.
<mgrwt>
<rscale>  0 0.20003240E+02</rscale>
<asrwt>0</asrwt>
<pdfrwt beam="1">  1        2 0.47910640E-02 0.20003240E+02</pdfrwt>
<pdfrwt beam="2">  1       -2 0.49417640E-03 0.20003240E+02</pdfrwt>
<totfact> 0.43537631E+06</totfact>
</mgrwt>
</event>
<event>
 5    1  0.1607476E-006  0.2000205E+02  0.7818608E-02  0.1745287E+00
          2   -1    0    0  501    0  0.00000000000E+00  0.00000000000E+00  0.33678390945E+02  0.33678391046E+02  0.26000000000E-02 0.  1.
         -2   -1    0    0    0  501 -0.00000000000E+00 -0.00000000000E+00 -0.29698713176E+01  0.29698724557E+01  0.26000000000E-02 0. -1.
       1023    2    1    2    0    0  0.00000000000E+00  0.00000000000E+00  0.30708519628E+02  0.36648263502E+02  0.20002050893E+02 0.  0.
        -13    1    3    3    0    0  0.81333182429E+01  0.58181657816E+01  0.15196445840E+02  0.18191895376E+02  0.10570000000E+00 0. -1.
         13    1    3    3    0    0 -0.81333182429E+01 -0.58181657816E+01  0.15512073788E+02  0.18456368126E+02  0.10570000000E+00 0.  1.
<mgrwt>
<rscale>  0 0.20002051E+02</rscale>
<asrwt>0</asrwt>
<pdfrwt beam="1">  1        2 0.51812912E-02 0.20002051E+02</pdfrwt>
<pdfrwt beam="2">  1       -2 0.45690336E-03 0.20002051E+02</pdfrwt>
<totfact> 0.43937040E+06</totfact>
</mgrwt>
</event>
<event>
 4    1  0.1607476E-006  0.2071429E+02  0.7818608E-02  0.1731485E+00
         -2   -1    0    0    0  501 -0.00000000000E+00  0.00000000000E+00  0.16840276245E+01  0.16840296316E+01  0.26000000000E-02 0. -1.
          2   -1    0    0  501    0  0.00000000000E+00 -0.00000000000E+00 -0.63698733867E+02  0.63698733920E+02  0.26000000000E-02 0.  1.
        -13    1    1    2    0    0  0.93698989910E+01  0.43564094799E+01 -0.28806877875E+02  0.30604259443E+02  0.10570000000E+00 0.  1.
         13    1    1    2    0    0 -0.93698989910E+01 -0.43564094799E+01 -0.33207828368E+02  0.34778504109E+02  0.10570000000E+00 0. -1.
<mgrwt>
<rscale>  0 0.20714294E+02</rscale>
<asrwt>0</asrwt>
<pdfrwt beam="2">  1        2 0.97998035E-02 0.20714294E+02</pdfrwt>
<pdfrwt beam="1">  1       -2 0.25908138E-03 0.20714294E+02</pdfrwt>
<totfact> 0.44567228E+06</totfact>
</mgrwt>
</event>
<event>
 5    1  0.1607476E-006  0.2000287E+02  0.7818608E-02  0.1745271E+00
         -2   -1    0    0    0  501 -0.00000000000E+00  0.00000000000E+00  0.54572488944E+01  0.54572495138E+01  0.26000000000E-02 0.  1.
          2   -1    0    0  501    0  0.00000000000E+00 -0.00000000000E+00 -0.18329501537E+02  0.18329501721E+02  0.26000000000E-02 0. -1.
       1023    2    1    2    0    0  0.00000000000E+00  0.00000000000E+00 -0.12872252642E+02  0.23786751235E+02  0.20002865950E+02 0.  0.
        -13    1    3    3    0    0  0.84656323962E+00  0.99645389730E+01 -0.63246816050E+01  0.11833067065E+02  0.10570000000E+00 0. -1.
         13    1    3    3    0    0 -0.84656323962E+00 -0.99645389730E+01 -0.65475710374E+01  0.11953684170E+02  0.10570000000E+00 0.  1.
<mgrwt>
<rscale>  0 0.20002866E+02</rscale>
<asrwt>0</asrwt>
<pdfrwt beam="2">  1        2 0.28199234E-02 0.20002866E+02</pdfrwt>
<pdfrwt beam="1">  1       -2 0.83957682E-03 0.20002866E+02</pdfrwt>
<totfact> 0.41350361E+06</totfact>
</mgrwt>
</event>
<event>
 5    1  0.1607476E-006  0.2001060E+02  0.7818608E-02  0.1745117E+00
          2   -1    0    0  501    0  0.00000000000E+00  0.00000000000E+00  0.66392136238E+01  0.66392141328E+01  0.26000000000E-02 0. -1.
         -2   -1    0    0    0  501 -0.00000000000E+00 -0.00000000000E+00 -0.15078000117E+02  0.15078000341E+02  0.26000000000E-02 0.  1.
       1023    2    1    2    0    0  0.00000000000E+00  0.00000000000E+00 -0.84387864929E+01  0.21717214474E+02  0.20010604364E+02 0.  0.
        -13    1    3    3    0    0  0.99892854675E+01 -0.52807320516E+00 -0.44080388171E+01  0.10931910362E+02  0.10570000000E+00 0.  1.
         13    1    3    3    0    0 -0.99892854675E+01  0.52807320516E+00 -0.40307476757E+01  0.10785304112E+02  0.10570000000E+00 0. -1.
<mgrwt>
<rscale>  0 0.20010604E+02</rscale>
<asrwt>0</asrwt>
<pdfrwt beam="1">  1        2 0.10214175E-02 0.20010604E+02</pdfrwt>
<pdfrwt beam="2">  1       -2 0.23196924E-02 0.20010604E+02</pdfrwt>
<totfact> 0.38238738E+06</totfact>
</mgrwt>
</event>
<event>
 5    1  0.1607476E-006  0.2000201E+02  0.7818608E-02  0.1745288E+00
         -2   -1    0    0    0  501 -0.00000000000E+00  0.00000000000E+00  0.42820252172E+01  0.42820260065E+01  0.26000000000E-02 0.  1.
          2   -1    0    0  501    0  0.00000000000E+00 -0.00000000000E+00 -0.23358126022E+02  0.23358126167E+02  0.26000000000E-02 0. -1.
       1023    2    1    2    0    0  0.00000000000E+00  0.00000000000E+00 -0.19076100805E+02  0.27640152173E+02  0.20002009655E+02 0.  0.
        -13    1    3    3    0    0 -0.43572262294E+01  0.90010751263E+01 -0.96270842233E+01  0.13881523583E+02  0.10570000000E+00 0.  1.
         13    1    3    3    0    0  0.43572262294E+01 -0.90010751263E+01 -0.94490165814E+01  0.13758628590E+02  0.10570000000E+00 0. -1.
<mgrwt>
<rscale>  0 0.20002010E+02</rscale>
<asrwt>0</asrwt>
<pdfrwt beam="2">  1        2 0.35935578E-02 0.20002010E+02</pdfrwt>
<pdfrwt beam="1">  1       -2 0.65877320E-03 0.20002010E+02</pdfrwt>
<totfact> 0.42266841E+06</totfact>
</mgrwt>
</event>
<event>
 5    1  0.1607476E-006  0.2000636E+02  0.7818608E-02  0.1745202E+00
         -2   -1    0    0    0  501 -0.00000000000E+00  0.00000000000E+00  0.20430352185E+02  0.20430352351E+02  0.26000000000E-02 0. -1.
          2   -1    0    0  501    0  0.00000000000E+00 -0.00000000000E+00 -0.48977902868E+01  0.48977909769E+01  0.26000000000E-02 0.  1.
       1023    2    1    2    0    0  0.00000000000E+00  0.00000000000E+00  0.15532561899E+02  0.25328143328E+02  0.20006358122E+02 0.  0.
        -13    1    3    3    0    0 -0.70037382507E+01 -0.71406033561E+01  0.76284487948E+01  0.12579545671E+02  0.10570000000E+00 0.  1.
         13    1    3    3    0    0  0.70037382507E+01  0.71406033561E+01  0.79041131038E+01  0.12748597657E+02  0.10570000000E+00 0. -1.
<mgrwt>
<rscale>  0 0.20006358E+02</rscale>
<asrwt>0</asrwt>
<pdfrwt beam="2">  1        2 0.75350627E-03 0.20006358E+02</pdfrwt>
<pdfrwt beam="1">  1       -2 0.31431312E-02 0.20006358E+02</pdfrwt>
<totfact> 0.37341441E+06</totfact>
</mgrwt>
</event>
<event>
 5    1  0.1607476E-006  0.2000135E+02  0.7818608E-02  0.1745301E+00
         -2   -1    0    0    0  501 -0.00000000000E+00  0.00000000000E+00  0.51300942701E+02  0.51300942767E+02  0.26000000000E-02 0. -1.
          2   -1    0    0  501    0  0.00000000000E+00 -0.00000000000E+00 -0.19495442662E+01  0.19495459999E+01  0.26000000000E-02 0.  1.
       1023    2    1    2    0    0  0.00000000000E+00  0.00000000000E+00  0.49351398434E+02  0.53250488766E+02  0.20001350615E+02 0.  0.
        -13    1    3    3    0    0 -0.68576014948E+01  0.72782833805E+01  0.24801335060E+02  0.26741680959E+02  0.10570000000E+00 0. -1.
         13    1    3    3    0    0  0.68576014948E+01 -0.72782833805E+01  0.24550063374E+02  0.26508807808E+02  0.10570000000E+00 0.  1.
<mgrwt>
<rscale>  0 0.20001351E+02</rscale>
<asrwt>0</asrwt>
<pdfrwt beam="2">  1        2 0.29993005E-03 0.20001351E+02</pdfrwt>
<pdfrwt beam="1">  1       -2 0.78924523E-02 0.20001351E+02</pdfrwt>
<totfact> 0.33767451E+06</totfact>
</mgrwt>
</event>
<event>
 5    1  0.1607476E-006  0.2000180E+02  0.7818608E-02  0.1745292E+00
          2   -1    0    0  501    0  0.00000000000E+00  0.00000000000E+00  0.26928976768E+02  0.26928976893E+02  0.26000000000E-02 0.  1.
         -2   -1    0    0    0  501 -0.00000000000E+00 -0.00000000000E+00 -0.37141392915E+01  0.37141402016E+01  0.26000000000E-02 0. -1.
       1023    2    1    2    0    0  0.00000000000E+00  0.00000000000E+00  0.23214837476E+02  0.30643117095E+02  0.20001798575E+02 0.  0.
        -13    1    3    3    0    0  0.84379804429E+01  0.53669165199E+01  0.11698147141E+02  0.15390293236E+02  0.10570000000E+00 0.  1.
         13    1    3    3    0    0 -0.84379804429E+01 -0.53669165199E+01  0.11516690336E+02  0.15252823859E+02  0.10570000000E+00 0. -1.
<mgrwt>
<rscale>  0 0.20001799E+02</rscale>
<asrwt>0</asrwt>
<pdfrwt beam="1">  1        2 0.41429196E-02 0.20001799E+02</pdfrwt>
<pdfrwt beam="2">  1       -2 0.57140612E-03 0.20001799E+02</pdfrwt>
<totfact> 0.42869053E+06</totfact>
</mgrwt>
</event>
<event>
 4    1  0.1607476E-006  0.2002186E+02  0.7818608E-02  0.1744894E+00
         -2   -1    0    0    0  501 -0.00000000000E+00  0.00000000000E+00  0.49021667633E+01  0.49021674528E+01  0.26000000000E-02 0. -1.
          2   -1    0    0  501    0  0.00000000000E+00 -0.00000000000E+00 -0.20443755743E+02  0.20443755908E+02  0.26000000000E-02 0.  1.
        -13    1    1    2    0    0 -0.94144286807E+01  0.33821930380E+01 -0.82390814294E+01  0.12960105417E+02  0.10570000000E+00 0. -1.
         13    1    1    2    0    0  0.94144286807E+01 -0.33821930380E+01 -0.73025075504E+01  0.12385817944E+02  0.10570000000E+00 0.  1.
<mgrwt>
<rscale>  0 0.20021859E+02</rscale>
<asrwt>0</asrwt>
<pdfrwt beam="2">  1        2 0.31451932E-02 0.20021859E+02</pdfrwt>
<pdfrwt beam="1">  1       -2 0.75417958E-03 0.20021859E+02</pdfrwt>
<totfact> 0.41656697E+06</totfact>
</mgrwt>
</event>
<event>
 4    1  0.1607476E-006  0.2002184E+02  0.7818608E-02  0.1744894E+00
         -2   -1    0    0    0  501 -0.00000000000E+00  0.00000000000E+00  0.23455726430E+01  0.23455740840E+01  0.26000000000E-02 0.  1.
          2   -1    0    0  501    0  0.00000000000E+00 -0.00000000000E+00 -0.42726663485E+02  0.42726663565E+02  0.26000000000E-02 0. -1.
        -13    1    1    2    0    0 -0.80069374098E+01  0.59914753460E+01 -0.19187502391E+02  0.21637473143E+02  0.10570000000E+00 0. -1.
         13    1    1    2    0    0  0.80069374098E+01 -0.59914753460E+01 -0.21193588451E+02  0.23434764506E+02  0.10570000000E+00 0.  1.
<mgrwt>
<rscale>  0 0.20021841E+02</rscale>
<asrwt>0</asrwt>
<pdfrwt beam="2">  1        2 0.65733324E-02 0.20021841E+02</pdfrwt>
<pdfrwt beam="1">  1       -2 0.36085748E-03 0.20021841E+02</pdfrwt>
<totfact> 0.45183945E+06</totfact>
</mgrwt>
</event>
<event>
 5    1  0.1607476E-006  0.2000318E+02  0.7818608E-02  0.1745265E+00
         -2   -1    0    0    0  501 -0.00000000000E+00  0.00000000000E+00  0.36094568532E+02  0.36094568626E+02  0.26000000000E-02 0.  1.
          2   -1    0    0  501    0  0.00000000000E+00 -0.00000000000E+00 -0.27713813191E+01  0.27713825387E+01  0.26000000000E-02 0. -1.
       1023    2    1    2    0    0  0.00000000000E+00  0.00000000000E+00  0.33323187213E+02  0.38865951165E+02  0.20003183594E+02 0.  0.
        -13    1    3    3    0    0  0.66668616376E+01 -0.74547204244E+01  0.16607843275E+02  0.19386890711E+02  0.10570000000E+00 0. -1.
         13    1    3    3    0    0 -0.66668616376E+01  0.74547204244E+01  0.16715343938E+02  0.19479060454E+02  0.10570000000E+00 0.  1.
<mgrwt>
<rscale>  0 0.20003184E+02</rscale>
<asrwt>0</asrwt>
<pdfrwt beam="2">  1        2 0.42636647E-03 0.20003184E+02</pdfrwt>
<pdfrwt beam="1">  1       -2 0.55530105E-02 0.20003184E+02</pdfrwt>
<totfact> 0.35336767E+06</totfact>
</mgrwt>
</event>
<event>
 4    1  0.1607476E-006  0.2002034E+02  0.7818608E-02  0.1744924E+00
          2   -1    0    0  501    0  0.00000000000E+00  0.00000000000E+00  0.44746176920E+01  0.44746184474E+01  0.26000000000E-02 0.  1.
         -2   -1    0    0    0  501 -0.00000000000E+00 -0.00000000000E+00 -0.22393757272E+02  0.22393757423E+02  0.26000000000E-02 0. -1.
        -13    1    1    2    0    0  0.87260845150E+01 -0.49005458292E+01 -0.92012951904E+01  0.13595400180E+02  0.10570000000E+00 0. -1.
         13    1    1    2    0    0 -0.87260845150E+01  0.49005458292E+01 -0.87178443900E+01  0.13272975691E+02  0.10570000000E+00 0.  1.
<mgrwt>
<rscale>  0 0.20020341E+02</rscale>
<asrwt>0</asrwt>
<pdfrwt beam="1">  1        2 0.68840281E-03 0.20020341E+02</pdfrwt>
<pdfrwt beam="2">  1       -2 0.34451934E-02 0.20020341E+02</pdfrwt>
<totfact> 0.36992339E+06</totfact>
</mgrwt>
</event>
<event>
 5    1  0.1607476E-006  0.2001127E+02  0.7818608E-02  0.1745104E+00
          2   -1    0    0  501    0  0.00000000000E+00  0.00000000000E+00  0.59220030687E+01  0.59220036394E+01  0.26000000000E-02 0.  1.
         -2   -1    0    0    0  501 -0.00000000000E+00 -0.00000000000E+00 -0.16905209173E+02  0.16905209373E+02  0.26000000000E-02 0. -1.
       1023    2    1    2    0    0  0.00000000000E+00  0.00000000000E+00 -0.10983206105E+02  0.22827213013E+02  0.20011267766E+02 0.  0.
        -13    1    3    3    0    0 -0.91799688994E+01  0.39731358754E+01 -0.52525981908E+01  0.11298610442E+02  0.10570000000E+00 0. -1.
         13    1    3    3    0    0  0.91799688994E+01 -0.39731358754E+01 -0.57306079139E+01  0.11528602571E+02  0.10570000000E+00 0.  1.
<mgrwt>
<rscale>  0 0.20011268E+02</rscale>
<asrwt>0</asrwt>
<pdfrwt beam="1">  1        2 0.91107746E-03 0.20011268E+02</pdfrwt>
<pdfrwt beam="2">  1       -2 0.26008014E-02 0.20011268E+02</pdfrwt>
<totfact> 0.37899583E+06</totfact>
</mgrwt>
</event>
<event>
 5    1  0.1607476E-006  0.2000288E+02  0.7818608E-02  0.1745271E+00
          2   -1    0    0  501    0  0.00000000000E+00  0.00000000000E+00  0.45877866436E+02  0.45877866509E+02  0.26000000000E-02 0. -1.
         -2   -1    0    0    0  501 -0.00000000000E+00 -0.00000000000E+00 -0.21803280306E+01  0.21803295808E+01  0.26000000000E-02 0.  1.
       1023    2    1    2    0    0  0.00000000000E+00  0.00000000000E+00  0.43697538405E+02  0.48058196090E+02  0.20002883512E+02 0.  0.
        -13    1    3    3    0    0  0.77025842635E+01  0.63780532220E+01  0.22067619728E+02  0.24228090726E+02  0.10570000000E+00 0. -1.
         13    1    3    3    0    0 -0.77025842635E+01 -0.63780532220E+01  0.21629918677E+02  0.23830105365E+02  0.10570000000E+00 0.  1.
<mgrwt>
<rscale>  0 0.20002884E+02</rscale>
<asrwt>0</asrwt>
<pdfrwt beam="1">  1        2 0.70581323E-02 0.20002884E+02</pdfrwt>
<pdfrwt beam="2">  1       -2 0.33543526E-03 0.20002884E+02</pdfrwt>
<totfact> 0.45731932E+06</totfact>
</mgrwt>
</event>
<event>
 4    1  0.1607476E-006  0.2021195E+02  0.7818608E-02  0.1741146E+00
          2   -1    0    0  501    0  0.00000000000E+00  0.00000000000E+00  0.22384271006E+02  0.22384271157E+02  0.26000000000E-02 0. -1.
         -2   -1    0    0    0  501 -0.00000000000E+00 -0.00000000000E+00 -0.45626119466E+01  0.45626126874E+01  0.26000000000E-02 0.  1.
        -13    1    1    2    0    0 -0.95655617340E+01 -0.32586169406E+01  0.89535377956E+01  0.13501687569E+02  0.10570000000E+00 0. -1.
         13    1    1    2    0    0  0.95655617340E+01  0.32586169406E+01  0.88681212637E+01  0.13445196276E+02  0.10570000000E+00 0.  1.
<mgrwt>
<rscale>  0 0.20211952E+02</rscale>
<asrwt>0</asrwt>
<pdfrwt beam="1">  1        2 0.34437340E-02 0.20211952E+02</pdfrwt>
<pdfrwt beam="2">  1       -2 0.70194038E-03 0.20211952E+02</pdfrwt>
<totfact> 0.41118735E+06</totfact>
</mgrwt>
</event>
<event>
 5    1  0.1607476E-006  0.2000406E+02  0.7818608E-02  0.1745247E+00
          2   -1    0    0  501    0  0.00000000000E+00  0.00000000000E+00  0.44355883835E+02  0.44355883911E+02  0.26000000000E-02 0.  1.
         -2   -1    0    0    0  501 -0.00000000000E+00 -0.00000000000E+00 -0.22554061798E+01  0.22554076784E+01  0.26000000000E-02 0. -1.
       1023    2    1    2    0    0  0.00000000000E+00  0.00000000000E+00  0.42100477655E+02  0.46611291590E+02  0.20004056710E+02 0.  0.
        -13    1    3    3    0    0  0.96084417626E+01  0.27752185697E+01  0.20878893726E+02  0.23150882638E+02  0.10570000000E+00 0. -1.
         13    1    3    3    0    0 -0.96084417626E+01 -0.27752185697E+01  0.21221583929E+02  0.23460408952E+02  0.10570000000E+00 0.  1.
<mgrwt>
<rscale>  0 0.20004057E+02</rscale>
<asrwt>0</asrwt>
<pdfrwt beam="1">  1        2 0.68239819E-02 0.20004057E+02</pdfrwt>
<pdfrwt beam="2">  1       -2 0.34698570E-03 0.20004057E+02</pdfrwt>
<totfact> 0.45508417E+06</totfact>
</mgrwt>
</event>
<event>
 5    1  0.1607476E-006  0.2001111E+02  0.7818608E-02  0.1745107E+00
         -2   -1    0    0    0  501 -0.00000000000E+00  0.00000000000E+00  0.32805147487E+01  0.32805157790E+01  0.26000000000E-02 0. -1.
          2   -1    0    0  501    0  0.00000000000E+00 -0.00000000000E+00 -0.30516893652E+02  0.30516893763E+02  0.26000000000E-02 0.  1.
       1023    2    1    2    0    0  0.00000000000E+00  0.00000000000E+00 -0.27236378903E+02  0.33797409542E+02  0.20011110813E+02 0.  0.
        -13    1    3    3    0    0 -0.92157013276E+01 -0.38920079808E+01 -0.13874826133E+02  0.17105521032E+02  0.10570000000E+00 0.  1.
         13    1    3    3    0    0  0.92157013276E+01  0.38920079808E+01 -0.13361552771E+02  0.16691888509E+02  0.10570000000E+00 0. -1.
<mgrwt>
<rscale>  0 0.20011111E+02</rscale>
<asrwt>0</asrwt>
<pdfrwt beam="2">  1        2 0.46949066E-02 0.20011111E+02</pdfrwt>
<pdfrwt beam="1">  1       -2 0.50469469E-03 0.20011111E+02</pdfrwt>
<totfact> 0.43400991E+06</totfact>
</mgrwt>
</event>
<event>
 5    1  0.1607476E-006  0.2000138E+02  0.7818608E-02  0.1745301E+00
         -2   -1    0    0    0  501 -0.00000000000E+00  0.00000000000E+00  0.98387957037E+02  0.98387957071E+02  0.26000000000E-02 0.  1.
          2   -1    0    0  501    0  0.00000000000E+00 -0.00000000000E+00 -0.10165234111E+01  0.10165267362E+01  0.26000000000E-02 0. -1.
       1023    2    1    2    0    0  0.00000000000E+00  0.00000000000E+00  0.97371433626E+02  0.99404483807E+02  0.20001382819E+02 0.  0.
        -13    1    3    3    0    0  0.22693542033E+01 -0.97391317255E+01  0.48908027387E+02  0.49920005716E+02  0.10570000000E+00 0. -1.
         13    1    3    3    0    0 -0.22693542033E+01  0.97391317255E+01  0.48463406238E+02  0.49484478091E+02  0.10570000000E+00 0.  1.
<mgrwt>
<rscale>  0 0.20001383E+02</rscale>
<asrwt>0</asrwt>
<pdfrwt beam="2">  1        2 0.15638845E-03 0.20001383E+02</pdfrwt>
<pdfrwt beam="1">  1       -2 0.15136611E-01 0.20001383E+02</pdfrwt>
<totfact> 0.29843825E+06</totfact>
</mgrwt>
</event>
<event>
 4    1  0.1607476E-006  0.2003304E+02  0.7818608E-02  0.1744672E+00
          2   -1    0    0  501    0  0.00000000000E+00  0.00000000000E+00  0.42566445182E+01  0.42566453123E+01  0.26000000000E-02 0.  1.
         -2   -1    0    0    0  501 -0.00000000000E+00 -0.00000000000E+00 -0.23570353041E+02  0.23570353185E+02  0.26000000000E-02 0. -1.
        -13    1    1    2    0    0 -0.92715642838E+01  0.37770092727E+01 -0.92361027056E+01  0.13621470882E+02  0.10570000000E+00 0.  1.
         13    1    1    2    0    0  0.92715642838E+01 -0.37770092727E+01 -0.10077605818E+02  0.14205527615E+02  0.10570000000E+00 0. -1.
<mgrwt>
<rscale>  0 0.20033035E+02</rscale>
<asrwt>0</asrwt>
<pdfrwt beam="1">  1        2 0.65486848E-03 0.20033035E+02</pdfrwt>
<pdfrwt beam="2">  1       -2 0.36262081E-02 0.20033035E+02</pdfrwt>
<totfact> 0.36774047E+06</totfact>
</mgrwt>
</event>
<event>
 5    1  0.1607476E-006  0.2000128E+02  0.7818608E-02  0.1745303E+00
         -2   -1    0    0    0  501 -0.00000000000E+00  0.00000000000E+00  0.41787401677E+02  0.41787401758E+02  0.26000000000E-02 0.  1.
          2   -1    0    0  501    0  0.00000000000E+00 -0.00000000000E+00 -0.23933716297E+01  0.23933730419E+01  0.26000000000E-02 0. -1.
       1023    2    1    2    0    0  0.00000000000E+00  0.00000000000E+00  0.39394030048E+02  0.44180774800E+02  0.20001281423E+02 0.  0.
        -13    1    3    3    0    0 -0.27522506279E+01  0.96138835635E+01  0.19699680369E+02  0.22092763970E+02  0.10570000000E+00 0.  1.
         13    1    3    3    0    0  0.27522506279E+01 -0.96138835635E+01  0.19694349679E+02  0.22088010831E+02  0.10570000000E+00 0. -1.
<mgrwt>
<rscale>  0 0.20001281E+02</rscale>
<asrwt>0</asrwt>
<pdfrwt beam="2">  1        2 0.36821111E-03 0.20001281E+02</pdfrwt>
<pdfrwt beam="1">  1       -2 0.64288315E-02 0.20001281E+02</pdfrwt>
<totfact> 0.34725515E+06</totfact>
</mgrwt>
</event>
<event>
 5    1  0.1607476E-006  0.2000371E+02  0.7818608E-02  0.1745254E+00
         -2   -1    0    0    0  501 -0.00000000000E+00  0.00000000000E+00  0.35490710402E+02  0.35490710497E+02  0.26000000000E-02 0.  1.
          2   -1    0    0  501    0  0.00000000000E+00 -0.00000000000E+00 -0.28186824932E+01  0.28186836924E+01  0.26000000000E-02 0. -1.
       1023    2    1    2    0    0  0.00000000000E+00  0.00000000000E+00  0.32672027909E+02  0.38309394190E+02  0.20003706544E+02 0.  0.
        -13    1    3    3    0    0 -0.86125966751E+01 -0.50823875842E+01  0.16595872825E+02  0.19376316790E+02  0.10570000000E+00 0. -1.
         13    1    3    3    0    0  0.86125966751E+01  0.50823875842E+01  0.16076155084E+02  0.18933077399E+02  0.10570000000E+00 0.  1.
<mgrwt>
<rscale>  0 0.20003707E+02</rscale>
<asrwt>0</asrwt>
<pdfrwt beam="2">  1        2 0.43364357E-03 0.20003707E+02</pdfrwt>
<pdfrwt beam="1">  1       -2 0.54601093E-02 0.20003707E+02</pdfrwt>
<totfact> 0.35402845E+06</totfact>
</mgrwt>
</event>
<event>
 5    1  0.1607476E-006  0.2000640E+02  0.7818608E-02  0.1745201E+00
         -2   -1    0    0    0  501 -0.00000000000E+00  0.00000000000E+00  0.88943777284E+01  0.88943781084E+01  0.26000000000E-02 0.  1.
          2   -1    0    0  501    0  0.00000000000E+00 -0.00000000000E+00 -0.11250252638E+02  0.11250252938E+02  0.26000000000E-02 0. -1.
       1023    2    1    2    0    0  0.00000000000E+00  0.00000000000E+00 -0.23558749093E+01  0.20144631047E+02  0.20006399312E+02 0.  0.
        -13    1    3    3    0    0 -0.43951313019E+01 -0.89833822296E+01 -0.99092475321E+00  0.10050444756E+02  0.10570000000E+00 0.  1.
         13    1    3    3    0    0  0.43951313019E+01  0.89833822296E+01 -0.13649501561E+01  0.10094186290E+02  0.10570000000E+00 0. -1.
<mgrwt>
<rscale>  0 0.20006399E+02</rscale>
<asrwt>0</asrwt>
<pdfrwt beam="2">  1        2 0.17308082E-02 0.20006399E+02</pdfrwt>
<pdfrwt beam="1">  1       -2 0.13683659E-02 0.20006399E+02</pdfrwt>
<totfact> 0.39778044E+06</totfact>
</mgrwt>
</event>
<event>
 5    1  0.1607476E-006  0.2000461E+02  0.7818608E-02  0.1745236E+00
         -2   -1    0    0    0  501 -0.00000000000E+00  0.00000000000E+00  0.64613953193E+01  0.64613958424E+01  0.26000000000E-02 0.  1.
          2   -1    0    0  501    0  0.00000000000E+00 -0.00000000000E+00 -0.15483668408E+02  0.15483668626E+02  0.26000000000E-02 0. -1.
       1023    2    1    2    0    0  0.00000000000E+00  0.00000000000E+00 -0.90222730885E+01  0.21945064469E+02  0.20004610540E+02 0.  0.
        -13    1    3    3    0    0  0.82861801065E+01  0.55988323060E+01 -0.46921724222E+01  0.11046961504E+02  0.10570000000E+00 0.  1.
         13    1    3    3    0    0 -0.82861801065E+01 -0.55988323060E+01 -0.43301006664E+01  0.10898102964E+02  0.10570000000E+00 0. -1.
<mgrwt>
<rscale>  0 0.20004611E+02</rscale>
<asrwt>0</asrwt>
<pdfrwt beam="2">  1        2 0.23821029E-02 0.20004611E+02</pdfrwt>
<pdfrwt beam="1">  1       -2 0.99406088E-03 0.20004611E+02</pdfrwt>
<totfact> 0.40771085E+06</totfact>
</mgrwt>
</event>
<event>
 4    1  0.1607476E-006  0.2015529E+02  0.7818608E-02  0.1742257E+00
          2   -1    0    0  501    0  0.00000000000E+00  0.00000000000E+00  0.25863363479E+02  0.25863363609E+02  0.26000000000E-02 0.  1.
         -2   -1    0    0    0  501 -0.00000000000E+00 -0.00000000000E+00 -0.39267487426E+01  0.39267496034E+01  0.26000000000E-02 0. -1.
        -13    1    1    2    0    0 -0.10003584681E+02  0.12290668081E+00  0.12754803982E+02  0.16210583260E+02  0.10570000000E+00 0.  1.
         13    1    1    2    0    0  0.10003584681E+02 -0.12290668081E+00  0.91818107543E+01  0.13579529953E+02  0.10570000000E+00 0. -1.
<mgrwt>
<rscale>  0 0.20155292E+02</rscale>
<asrwt>0</asrwt>
<pdfrwt beam="1">  1        2 0.39789790E-02 0.20155292E+02</pdfrwt>
<pdfrwt beam="2">  1       -2 0.60411529E-03 0.20155292E+02</pdfrwt>
<totfact> 0.41965555E+06</totfact>
</mgrwt>
</event>
<event>
 5    1  0.1607476E-006  0.2000213E+02  0.7818608E-02  0.1745286E+00
         -2   -1    0    0    0  501 -0.00000000000E+00  0.00000000000E+00  0.21567292409E+01  0.21567308081E+01  0.26000000000E-02 0.  1.
          2   -1    0    0  501    0  0.00000000000E+00 -0.00000000000E+00 -0.46376385376E+02  0.46376385449E+02  0.26000000000E-02 0. -1.
       1023    2    1    2    0    0  0.00000000000E+00  0.00000000000E+00 -0.44219656136E+02  0.48533116257E+02  0.20002134509E+02 0.  0.
        -13    1    3    3    0    0 -0.98708453514E+01 -0.16042514997E+01 -0.22241903249E+02  0.24386894912E+02  0.10570000000E+00 0. -1.
         13    1    3    3    0    0  0.98708453514E+01  0.16042514997E+01 -0.21977752886E+02  0.24146221345E+02  0.10570000000E+00 0.  1.
<mgrwt>
<rscale>  0 0.20002135E+02</rscale>
<asrwt>0</asrwt>
<pdfrwt beam="2">  1        2 0.71348279E-02 0.20002135E+02</pdfrwt>
<pdfrwt beam="1">  1       -2 0.33180466E-03 0.20002135E+02</pdfrwt>
<totfact> 0.45806660E+06</totfact>
</mgrwt>
</event>
<event>
 4    1  0.1607476E-006  0.2005134E+02  0.7818608E-02  0.1744309E+00
          2   -1    0    0  501    0  0.00000000000E+00  0.00000000000E+00  0.43640053038E+01  0.43640060783E+01  0.26000000000E-02 0.  1.
         -2   -1    0    0    0  501 -0.00000000000E+00 -0.00000000000E+00 -0.23032521357E+02  0.23032521504E+02  0.26000000000E-02 0. -1.
        -13    1    1    2    0    0  0.32285682553E+01 -0.94850734257E+01 -0.88757472878E+01  0.13385825835E+02  0.10570000000E+00 0. -1.
         13    1    1    2    0    0 -0.32285682553E+01  0.94850734257E+01 -0.97927687651E+01  0.14010701747E+02  0.10570000000E+00 0.  1.
<mgrwt>
<rscale>  0 0.20051340E+02</rscale>
<asrwt>0</asrwt>
<pdfrwt beam="1">  1        2 0.67138551E-03 0.20051340E+02</pdfrwt>
<pdfrwt beam="2">  1       -2 0.35434648E-02 0.20051340E+02</pdfrwt>
<totfact> 0.36776786E+06</totfact>
</mgrwt>
</event>
<event>
 5    1  0.1647566E-006  0.2000441E+02  0.7818608E-02  0.1745240E+00
         -2   -1    0    0    0  501 -0.00000000000E+00  0.00000000000E+00  0.13000228815E+01  0.13000254815E+01  0.26000000000E-02 0.  1.
          2   -1    0    0  501    0  0.00000000000E+00 -0.00000000000E+00 -0.76955554122E+02  0.76955554166E+02  0.26000000000E-02 0. -1.
       1023    2    1    2    0    0  0.00000000000E+00  0.00000000000E+00 -0.75655531241E+02  0.78255579647E+02  0.20004407981E+02 0.  0.
        -13    1    3    3    0    0 -0.87778466081E+01  0.47925677034E+01 -0.38284236367E+02  0.39569094291E+02  0.10570000000E+00 0. -1.
         13    1    3    3    0    0  0.87778466081E+01 -0.47925677034E+01 -0.37371294873E+02  0.38686485357E+02  0.10570000000E+00 0.  1.
<mgrwt>
<rscale>  0 0.20004408E+02</rscale>
<asrwt>0</asrwt>
<pdfrwt beam="2">  1        2 0.11839313E-01 0.20004408E+02</pdfrwt>
<pdfrwt beam="1">  1       -2 0.20000378E-03 0.20004408E+02</pdfrwt>
<totfact> 0.49889694E+06</totfact>
</mgrwt>
</event>
<event>
 4    1  0.1607476E-006  0.2006295E+02  0.7818608E-02  0.1744079E+00
          2   -1    0    0  501    0  0.00000000000E+00  0.00000000000E+00  0.45973208144E+02  0.45973208218E+02  0.26000000000E-02 0.  1.
         -2   -1    0    0    0  501 -0.00000000000E+00 -0.00000000000E+00 -0.21888939045E+01  0.21888954487E+01  0.26000000000E-02 0. -1.
        -13    1    1    2    0    0 -0.33347538802E+01  0.94350848019E+01  0.23551721341E+02  0.25589766691E+02  0.10570000000E+00 0. -1.
         13    1    1    2    0    0  0.33347538802E+01 -0.94350848019E+01  0.20232592899E+02  0.22572336976E+02  0.10570000000E+00 0.  1.
<mgrwt>
<rscale>  0 0.20062952E+02</rscale>
<asrwt>0</asrwt>
<pdfrwt beam="1">  1        2 0.70728014E-02 0.20062952E+02</pdfrwt>
<pdfrwt beam="2">  1       -2 0.33675303E-03 0.20062952E+02</pdfrwt>
<totfact> 0.45440615E+06</totfact>
</mgrwt>
</event>
<event>
 5    1  0.1607476E-006  0.2000852E+02  0.7818608E-02  0.1745159E+00
          2   -1    0    0  501    0  0.00000000000E+00  0.00000000000E+00  0.38087720145E+02  0.38087720234E+02  0.26000000000E-02 0.  1.
         -2   -1    0    0    0  501 -0.00000000000E+00 -0.00000000000E+00 -0.26277554219E+01  0.26277567082E+01  0.26000000000E-02 0. -1.
       1023    2    1    2    0    0  0.00000000000E+00  0.00000000000E+00  0.35459964723E+02  0.40715476942E+02  0.20008522296E+02 0.  0.
        -13    1    3    3    0    0 -0.97692660133E+01  0.21390775097E+01  0.17232125920E+02  0.19924144831E+02  0.10570000000E+00 0.  1.
         13    1    3    3    0    0  0.97692660133E+01 -0.21390775097E+01  0.18227838803E+02  0.20791332111E+02  0.10570000000E+00 0. -1.
<mgrwt>
<rscale>  0 0.20008522E+02</rscale>
<asrwt>0</asrwt>
<pdfrwt beam="1">  1        2 0.58596492E-02 0.20008522E+02</pdfrwt>
<pdfrwt beam="2">  1       -2 0.40427018E-03 0.20008522E+02</pdfrwt>
<totfact> 0.44570995E+06</totfact>
</mgrwt>
</event>
<event>
 5    1  0.1607476E-006  0.2000389E+02  0.7818608E-02  0.1745251E+00
          2   -1    0    0  501    0  0.00000000000E+00  0.00000000000E+00  0.73484908718E+02  0.73484908764E+02  0.26000000000E-02 0.  1.
         -2   -1    0    0    0  501 -0.00000000000E+00 -0.00000000000E+00 -0.13613515971E+01  0.13613540799E+01  0.26000000000E-02 0. -1.
       1023    2    1    2    0    0  0.00000000000E+00  0.00000000000E+00  0.72123557121E+02  0.74846262844E+02  0.20003888870E+02 0.  0.
        -13    1    3    3    0    0  0.99473153461E+01  0.10355147598E+01  0.36359853495E+02  0.37710363192E+02  0.10570000000E+00 0.  1.
         13    1    3    3    0    0 -0.99473153461E+01 -0.10355147598E+01  0.35763703626E+02  0.37135899652E+02  0.10570000000E+00 0. -1.
<mgrwt>
<rscale>  0 0.20003889E+02</rscale>
<asrwt>0</asrwt>
<pdfrwt beam="1">  1        2 0.11305367E-01 0.20003889E+02</pdfrwt>
<pdfrwt beam="2">  1       -2 0.20943897E-03 0.20003889E+02</pdfrwt>
<totfact> 0.49448987E+06</totfact>
</mgrwt>
</event>
<event>
 5    1  0.1607476E-006  0.2000508E+02  0.7818608E-02  0.1745227E+00
          2   -1    0    0  501    0  0.00000000000E+00  0.00000000000E+00  0.20209455273E+01  0.20209471998E+01  0.26000000000E-02 0.  1.
         -2   -1    0    0    0  501 -0.00000000000E+00 -0.00000000000E+00 -0.49506921933E+02  0.49506922001E+02  0.26000000000E-02 0. -1.
       1023    2    1    2    0    0  0.00000000000E+00  0.00000000000E+00 -0.47485976405E+02  0.51527869201E+02  0.20005083084E+02 0.  0.
        -13    1    3    3    0    0  0.48479800126E+01  0.87481236636E+01 -0.23526151782E+02  0.25564107025E+02  0.10570000000E+00 0.  1.
         13    1    3    3    0    0 -0.48479800126E+01 -0.87481236636E+01 -0.23959824623E+02  0.25963762175E+02  0.10570000000E+00 0. -1.
<mgrwt>
<rscale>  0 0.20005083E+02</rscale>
<asrwt>0</asrwt>
<pdfrwt beam="1">  1        2 0.31091487E-03 0.20005083E+02</pdfrwt>
<pdfrwt beam="2">  1       -2 0.76164487E-02 0.20005083E+02</pdfrwt>
<totfact> 0.33928041E+06</totfact>
</mgrwt>
</event>
<event>
 5    1  0.1607476E-006  0.2000184E+02  0.7818608E-02  0.1745292E+00
         -2   -1    0    0    0  501 -0.00000000000E+00  0.00000000000E+00  0.35142964089E+01  0.35142973707E+01  0.26000000000E-02 0.  1.
          2   -1    0    0  501    0  0.00000000000E+00 -0.00000000000E+00 -0.28460426225E+02  0.28460426343E+02  0.26000000000E-02 0. -1.
       1023    2    1    2    0    0  0.00000000000E+00  0.00000000000E+00 -0.24946129816E+02  0.31974723714E+02  0.20001839011E+02 0.  0.
        -13    1    3    3    0    0  0.95237974905E+01 -0.30502239168E+01 -0.12513312534E+02  0.16018762363E+02  0.10570000000E+00 0. -1.
         13    1    3    3    0    0 -0.95237974905E+01  0.30502239168E+01 -0.12432817281E+02  0.15955961351E+02  0.10570000000E+00 0.  1.
<mgrwt>
<rscale>  0 0.20001839E+02</rscale>
<asrwt>0</asrwt>
<pdfrwt beam="2">  1        2 0.43785270E-02 0.20001839E+02</pdfrwt>
<pdfrwt beam="1">  1       -2 0.54066109E-03 0.20001839E+02</pdfrwt>
<totfact> 0.43118079E+06</totfact>
</mgrwt>
</event>
<event>
 5    1  0.1607476E-006  0.2000387E+02  0.7818608E-02  0.1745251E+00
         -2   -1    0    0    0  501 -0.00000000000E+00  0.00000000000E+00  0.25951742609E+01  0.25951755633E+01  0.26000000000E-02 0. -1.
          2   -1    0    0  501    0  0.00000000000E+00 -0.00000000000E+00 -0.38547952438E+02  0.38547952526E+02  0.26000000000E-02 0.  1.
       1023    2    1    2    0    0  0.00000000000E+00  0.00000000000E+00 -0.35952778177E+02  0.41143128089E+02  0.20003867884E+02 0.  0.
        -13    1    3    3    0    0  0.35802477412E+01 -0.93380511615E+01 -0.18183465997E+02  0.20752517475E+02  0.10570000000E+00 0. -1.
         13    1    3    3    0    0 -0.35802477412E+01  0.93380511615E+01 -0.17769312180E+02  0.20390610614E+02  0.10570000000E+00 0.  1.
<mgrwt>
<rscale>  0 0.20003868E+02</rscale>
<asrwt>0</asrwt>
<pdfrwt beam="2">  1        2 0.59304539E-02 0.20003868E+02</pdfrwt>
<pdfrwt beam="1">  1       -2 0.39925771E-03 0.20003868E+02</pdfrwt>
<totfact> 0.44662537E+06</totfact>
</mgrwt>
</event>
<event>
 5    1  0.1607476E-006  0.2000165E+02  0.7818608E-02  0.1745295E+00
          2   -1    0    0  501    0  0.00000000000E+00  0.00000000000E+00  0.17601301253E+02  0.17601301445E+02  0.26000000000E-02 0.  1.
         -2   -1    0    0    0  501 -0.00000000000E+00 -0.00000000000E+00 -0.56823328888E+01  0.56823334836E+01  0.26000000000E-02 0. -1.
       1023    2    1    2    0    0  0.00000000000E+00  0.00000000000E+00  0.11918968365E+02  0.23283634929E+02  0.20001646148E+02 0.  0.
        -13    1    3    3    0    0  0.91027019510E+01  0.41402900476E+01  0.60340691430E+01  0.11679997748E+02  0.10570000000E+00 0.  1.
         13    1    3    3    0    0 -0.91027019510E+01 -0.41402900476E+01  0.58848992215E+01  0.11603637181E+02  0.10570000000E+00 0. -1.
<mgrwt>
<rscale>  0 0.20001646E+02</rscale>
<asrwt>0</asrwt>
<pdfrwt beam="1">  1        2 0.27078925E-02 0.20001646E+02</pdfrwt>
<pdfrwt beam="2">  1       -2 0.87420513E-03 0.20001646E+02</pdfrwt>
<totfact> 0.41214605E+06</totfact>
</mgrwt>
</event>
<event>
 5    1  0.1607476E-006  0.2000126E+02  0.7818608E-02  0.1745303E+00
         -2   -1    0    0    0  501 -0.00000000000E+00  0.00000000000E+00  0.14185401068E+01  0.14185424895E+01  0.26000000000E-02 0. -1.
          2   -1    0    0  501    0  0.00000000000E+00 -0.00000000000E+00 -0.70503825597E+02  0.70503825645E+02  0.26000000000E-02 0.  1.
       1023    2    1    2    0    0  0.00000000000E+00  0.00000000000E+00 -0.69085285490E+02  0.71922368135E+02  0.20001259131E+02 0.  0.
        -13    1    3    3    0    0 -0.95181839182E+01  0.30668539286E+01 -0.34538886272E+02  0.35957575774E+02  0.10570000000E+00 0.  1.
         13    1    3    3    0    0  0.95181839182E+01 -0.30668539286E+01 -0.34546399218E+02  0.35964792361E+02  0.10570000000E+00 0. -1.
<mgrwt>
<rscale>  0 0.20001259E+02</rscale>
<asrwt>0</asrwt>
<pdfrwt beam="2">  1        2 0.10846740E-01 0.20001259E+02</pdfrwt>
<pdfrwt beam="1">  1       -2 0.21823718E-03 0.20001259E+02</pdfrwt>
<totfact> 0.49078430E+06</totfact>
</mgrwt>
</event>
<event>
 5    1  0.1607476E-006  0.2000176E+02  0.7818608E-02  0.1745293E+00
          2   -1    0    0  501    0  0.00000000000E+00  0.00000000000E+00  0.16435874558E+02  0.16435874764E+02  0.26000000000E-02 0. -1.
         -2   -1    0    0    0  501 -0.00000000000E+00 -0.00000000000E+00 -0.60853234683E+01  0.60853240238E+01  0.26000000000E-02 0.  1.
       1023    2    1    2    0    0  0.00000000000E+00  0.00000000000E+00  0.10350551090E+02  0.22521198788E+02  0.20001762097E+02 0.  0.
        -13    1    3    3    0    0  0.55152310146E+01  0.83419473380E+01  0.51479093998E+01  0.11248022147E+02  0.10570000000E+00 0. -1.
         13    1    3    3    0    0 -0.55152310146E+01 -0.83419473380E+01  0.52026416902E+01  0.11273176641E+02  0.10570000000E+00 0.  1.
<mgrwt>
<rscale>  0 0.20001762E+02</rscale>
<asrwt>0</asrwt>
<pdfrwt beam="1">  1        2 0.25285961E-02 0.20001762E+02</pdfrwt>
<pdfrwt beam="2">  1       -2 0.93620368E-03 0.20001762E+02</pdfrwt>
<totfact> 0.40981257E+06</totfact>
</mgrwt>
</event>
<event>
 5    1  0.1607476E-006  0.2000685E+02  0.7818608E-02  0.1745192E+00
          2   -1    0    0  501    0  0.00000000000E+00  0.00000000000E+00  0.39140983997E+01  0.39140992632E+01  0.26000000000E-02 0.  1.
         -2   -1    0    0    0  501 -0.00000000000E+00 -0.00000000000E+00 -0.25566163747E+02  0.25566163880E+02  0.26000000000E-02 0. -1.
       1023    2    1    2    0    0  0.00000000000E+00  0.00000000000E+00 -0.21652065348E+02  0.29480263143E+02  0.20006848356E+02 0.  0.
        -13    1    3    3    0    0  0.25813426925E+01 -0.96637984074E+01 -0.10930152941E+02  0.14816603712E+02  0.10570000000E+00 0. -1.
         13    1    3    3    0    0 -0.25813426925E+01  0.96637984074E+01 -0.10721912406E+02  0.14663659431E+02  0.10570000000E+00 0.  1.
<mgrwt>
<rscale>  0 0.20006848E+02</rscale>
<asrwt>0</asrwt>
<pdfrwt beam="1">  1        2 0.60216908E-03 0.20006848E+02</pdfrwt>
<pdfrwt beam="2">  1       -2 0.39332559E-02 0.20006848E+02</pdfrwt>
<totfact> 0.36605346E+06</totfact>
</mgrwt>
</event>
<event>
 5    1  0.1607476E-006  0.2000332E+02  0.7818608E-02  0.1745262E+00
          2   -1    0    0  501    0  0.00000000000E+00  0.00000000000E+00  0.14984482421E+02  0.14984482646E+02  0.26000000000E-02 0.  1.
         -2   -1    0    0    0  501 -0.00000000000E+00 -0.00000000000E+00 -0.66757868025E+01  0.66757873088E+01  0.26000000000E-02 0. -1.
       1023    2    1    2    0    0  0.00000000000E+00  0.00000000000E+00  0.83086956184E+01  0.21660269955E+02  0.20003321516E+02 0.  0.
        -13    1    3    3    0    0 -0.95000613574E+01  0.31258088816E+01  0.41696024592E+01  0.10835986532E+02  0.10570000000E+00 0. -1.
         13    1    3    3    0    0  0.95000613574E+01 -0.31258088816E+01  0.41390931592E+01  0.10824283423E+02  0.10570000000E+00 0.  1.
<mgrwt>
<rscale>  0 0.20003322E+02</rscale>
<asrwt>0</asrwt>
<pdfrwt beam="1">  1        2 0.23053050E-02 0.20003322E+02</pdfrwt>
<pdfrwt beam="2">  1       -2 0.10270442E-02 0.20003322E+02</pdfrwt>
<totfact> 0.40670951E+06</totfact>
</mgrwt>
</event>
<event>
 5    1  0.1607476E-006  0.2000229E+02  0.7818608E-02  0.1745283E+00
          2   -1    0    0  501    0  0.00000000000E+00  0.00000000000E+00  0.98951505697E+02  0.98951505731E+02  0.26000000000E-02 0.  1.
         -2   -1    0    0    0  501 -0.00000000000E+00 -0.00000000000E+00 -0.10108255039E+01  0.10108288477E+01  0.26000000000E-02 0. -1.
       1023    2    1    2    0    0  0.00000000000E+00  0.00000000000E+00  0.97940680193E+02  0.99962334579E+02  0.20002287313E+02 0.  0.
        -13    1    3    3    0    0 -0.99977126710E+01 -0.23427188435E+00  0.49223197344E+02  0.50228910711E+02  0.10570000000E+00 0. -1.
         13    1    3    3    0    0  0.99977126710E+01  0.23427188435E+00  0.48717482849E+02  0.49733423868E+02  0.10570000000E+00 0.  1.
<mgrwt>
<rscale>  0 0.20002287E+02</rscale>
<asrwt>0</asrwt>
<pdfrwt beam="1">  1        2 0.15223308E-01 0.20002287E+02</pdfrwt>
<pdfrwt beam="2">  1       -2 0.15551188E-03 0.20002287E+02</pdfrwt>
<totfact> 0.52618947E+06</totfact>
</mgrwt>
</event>
<event>
 4    1  0.1607476E-006  0.2001608E+02  0.7818608E-02  0.1745009E+00
         -2   -1    0    0    0  501 -0.00000000000E+00  0.00000000000E+00  0.32879284785E+01  0.32879295065E+01  0.26000000000E-02 0.  1.
          2   -1    0    0  501    0  0.00000000000E+00 -0.00000000000E+00 -0.30463195803E+02  0.30463195914E+02  0.26000000000E-02 0. -1.
        -13    1    1    2    0    0 -0.41289608300E+01 -0.91127184815E+01 -0.13999633304E+02  0.17207290920E+02  0.10570000000E+00 0.  1.
         13    1    1    2    0    0  0.41289608300E+01  0.91127184815E+01 -0.13175634020E+02  0.16543834501E+02  0.10570000000E+00 0. -1.
<mgrwt>
<rscale>  0 0.20016076E+02</rscale>
<asrwt>0</asrwt>
<pdfrwt beam="2">  1        2 0.46866454E-02 0.20016076E+02</pdfrwt>
<pdfrwt beam="1">  1       -2 0.50583526E-03 0.20016076E+02</pdfrwt>
<totfact> 0.43368397E+06</totfact>
</mgrwt>
</event>
<event>
 4    1  0.1607476E-006  0.2001925E+02  0.7818608E-02  0.1744946E+00
          2   -1    0    0  501    0  0.00000000000E+00  0.00000000000E+00  0.20914082432E+02  0.20914082594E+02  0.26000000000E-02 0.  1.
         -2   -1    0    0    0  501 -0.00000000000E+00 -0.00000000000E+00 -0.47906732167E+01  0.47906739222E+01  0.26000000000E-02 0. -1.
        -13    1    1    2    0    0  0.40024698642E+01 -0.91733483267E+01  0.79252816873E+01  0.12766806447E+02  0.10570000000E+00 0.  1.
         13    1    1    2    0    0 -0.40024698642E+01  0.91733483267E+01  0.81981275284E+01  0.12937950069E+02  0.10570000000E+00 0. -1.
<mgrwt>
<rscale>  0 0.20019245E+02</rscale>
<asrwt>0</asrwt>
<pdfrwt beam="1">  1        2 0.32175513E-02 0.20019245E+02</pdfrwt>
<pdfrwt beam="2">  1       -2 0.73702670E-03 0.20019245E+02</pdfrwt>
<totfact> 0.41754209E+06</totfact>
</mgrwt>
</event>
<event>
 5    1  0.1607476E-006  0.2000132E+02  0.7818608E-02  0.1745302E+00
          2   -1    0    0  501    0  0.00000000000E+00  0.00000000000E+00  0.49606627287E+01  0.49606634100E+01  0.26000000000E-02 0. -1.
         -2   -1    0    0    0  501 -0.00000000000E+00 -0.00000000000E+00 -0.20161263238E+02  0.20161263406E+02  0.26000000000E-02 0.  1.
       1023    2    1    2    0    0  0.00000000000E+00  0.00000000000E+00 -0.15200600510E+02  0.25121926816E+02  0.20001323734E+02 0.  0.
        -13    1    3    3    0    0 -0.10296798828E+01  0.99469330719E+01 -0.76237000679E+01  0.12575122004E+02  0.10570000000E+00 0.  1.
         13    1    3    3    0    0  0.10296798828E+01 -0.99469330719E+01 -0.75769004417E+01  0.12546804812E+02  0.10570000000E+00 0. -1.
<mgrwt>
<rscale>  0 0.20001324E+02</rscale>
<asrwt>0</asrwt>
<pdfrwt beam="1">  1        2 0.76317896E-03 0.20001324E+02</pdfrwt>
<pdfrwt beam="2">  1       -2 0.31017328E-02 0.20001324E+02</pdfrwt>
<totfact> 0.37403429E+06</totfact>
</mgrwt>
</event>
<event>
 4    1  0.1607476E-006  0.2065600E+02  0.7818608E-02  0.1732589E+00
         -2   -1    0    0    0  501 -0.00000000000E+00  0.00000000000E+00  0.59207386832E+02  0.59207386889E+02  0.26000000000E-02 0.  1.
          2   -1    0    0  501    0  0.00000000000E+00 -0.00000000000E+00 -0.18015917763E+01  0.18015936524E+01  0.26000000000E-02 0. -1.
        -13    1    1    2    0    0 -0.46493647313E+01  0.89368987632E+01  0.21986086102E+02  0.24184373188E+02  0.10570000000E+00 0. -1.
         13    1    1    2    0    0  0.46493647313E+01 -0.89368987632E+01  0.35419708954E+02  0.36824607354E+02  0.10570000000E+00 0.  1.
<mgrwt>
<rscale>  0 0.20656002E+02</rscale>
<asrwt>0</asrwt>
<pdfrwt beam="2">  1        2 0.27716812E-03 0.20656002E+02</pdfrwt>
<pdfrwt beam="1">  1       -2 0.91088288E-02 0.20656002E+02</pdfrwt>
<totfact> 0.30776000E+06</totfact>
</mgrwt>
</event>
<event>
 4    1  0.1607476E-006  0.2002571E+02  0.7818608E-02  0.1744817E+00
          2   -1    0    0  501    0  0.00000000000E+00  0.00000000000E+00  0.15401583996E+01  0.15401605941E+01  0.26000000000E-02 0.  1.
         -2   -1    0    0    0  501 -0.00000000000E+00 -0.00000000000E+00 -0.65095348908E+02  0.65095348960E+02  0.26000000000E-02 0. -1.
        -13    1    1    2    0    0 -0.23854268373E+01 -0.97222980499E+01 -0.32379405223E+02  0.33891745244E+02  0.10570000000E+00 0.  1.
         13    1    1    2    0    0  0.23854268373E+01  0.97222980499E+01 -0.31175785285E+02  0.32743764310E+02  0.10570000000E+00 0. -1.
<mgrwt>
<rscale>  0 0.20025706E+02</rscale>
<asrwt>0</asrwt>
<pdfrwt beam="1">  1        2 0.23694767E-03 0.20025706E+02</pdfrwt>
<pdfrwt beam="2">  1       -2 0.10014667E-01 0.20025706E+02</pdfrwt>
<totfact> 0.32415065E+06</totfact>
</mgrwt>
</event>
<event>
 5    1  0.1607476E-006  0.2000276E+02  0.7818608E-02  0.1745273E+00
         -2   -1    0    0    0  501 -0.00000000000E+00  0.00000000000E+00  0.72675557396E+02  0.72675557443E+02  0.26000000000E-02 0. -1.
          2   -1    0    0  501    0  0.00000000000E+00 -0.00000000000E+00 -0.13763562863E+01  0.13763587421E+01  0.26000000000E-02 0.  1.
       1023    2    1    2    0    0  0.00000000000E+00  0.00000000000E+00  0.71299201110E+02  0.74051916185E+02  0.20002755103E+02 0.  0.
        -13    1    3    3    0    0 -0.90226778959E+01 -0.43136599013E+01  0.35655197142E+02  0.37031346639E+02  0.10570000000E+00 0.  1.
         13    1    3    3    0    0  0.90226778959E+01  0.43136599013E+01  0.35644003968E+02  0.37020569546E+02  0.10570000000E+00 0. -1.
<mgrwt>
<rscale>  0 0.20002755E+02</rscale>
<asrwt>0</asrwt>
<pdfrwt beam="2">  1        2 0.21174725E-03 0.20002755E+02</pdfrwt>
<pdfrwt beam="1">  1       -2 0.11180859E-01 0.20002755E+02</pdfrwt>
<totfact> 0.31848153E+06</totfact>
</mgrwt>
</event>
<event>
 5    1  0.1607476E-006  0.2000763E+02  0.7818608E-02  0.1745176E+00
          2   -1    0    0  501    0  0.00000000000E+00  0.00000000000E+00  0.70899206666E+01  0.70899211433E+01  0.26000000000E-02 0. -1.
         -2   -1    0    0    0  501 -0.00000000000E+00 -0.00000000000E+00 -0.14115292838E+02  0.14115293078E+02  0.26000000000E-02 0.  1.
       1023    2    1    2    0    0  0.00000000000E+00  0.00000000000E+00 -0.70253721715E+01  0.21205214221E+02  0.20007629945E+02 0.  0.
        -13    1    3    3    0    0 -0.44578564592E+01  0.89550190557E+01 -0.35307662599E+01  0.10608597144E+02  0.10570000000E+00 0.  1.
         13    1    3    3    0    0  0.44578564592E+01 -0.89550190557E+01 -0.34946059116E+01  0.10596617077E+02  0.10570000000E+00 0. -1.
<mgrwt>
<rscale>  0 0.20007630E+02</rscale>
<asrwt>0</asrwt>
<pdfrwt beam="1">  1        2 0.10907571E-02 0.20007630E+02</pdfrwt>
<pdfrwt beam="2">  1       -2 0.21715836E-02 0.20007630E+02</pdfrwt>
<totfact> 0.38442258E+06</totfact>
</mgrwt>
</event>
<event>
 5    1  0.1607476E-006  0.2000433E+02  0.7818608E-02  0.1745242E+00
         -2   -1    0    0    0  501 -0.00000000000E+00  0.00000000000E+00  0.98733394383E+01  0.98733397806E+01  0.26000000000E-02 0. -1.
          2   -1    0    0  501    0  0.00000000000E+00 -0.00000000000E+00 -0.10132669224E+02  0.10132669557E+02  0.26000000000E-02 0.  1.
       1023    2    1    2    0    0  0.00000000000E+00  0.00000000000E+00 -0.25932978551E+00  0.20006009338E+02  0.20004328474E+02 0.  0.
        -13    1    3    3    0    0 -0.78398077924E+01 -0.62103995127E+01 -0.15131400920E+00  0.10003285298E+02  0.10570000000E+00 0.  1.
         13    1    3    3    0    0  0.78398077924E+01  0.62103995127E+01 -0.10801577631E+00  0.10002724040E+02  0.10570000000E+00 0. -1.
<mgrwt>
<rscale>  0 0.20004328E+02</rscale>
<asrwt>0</asrwt>
<pdfrwt beam="2">  1        2 0.15588722E-02 0.20004328E+02</pdfrwt>
<pdfrwt beam="1">  1       -2 0.15189754E-02 0.20004328E+02</pdfrwt>
<totfact> 0.39481799E+06</totfact>
</mgrwt>
</event>
<event>
 5    1  0.1607476E-006  0.2000152E+02  0.7818608E-02  0.1745298E+00
          2   -1    0    0  501    0  0.00000000000E+00  0.00000000000E+00  0.24664758195E+01  0.24664771898E+01  0.26000000000E-02 0.  1.
         -2   -1    0    0    0  501 -0.00000000000E+00 -0.00000000000E+00 -0.40549834990E+02  0.40549835074E+02  0.26000000000E-02 0. -1.
       1023    2    1    2    0    0  0.00000000000E+00  0.00000000000E+00 -0.38083359171E+02  0.43016312263E+02  0.20001521817E+02 0.  0.
        -13    1    3    3    0    0  0.91461300630E+01  0.40437498788E+01 -0.18996667058E+02  0.21468305476E+02  0.10570000000E+00 0. -1.
         13    1    3    3    0    0 -0.91461300630E+01 -0.40437498788E+01 -0.19086692113E+02  0.21548006787E+02  0.10570000000E+00 0.  1.
<mgrwt>
<rscale>  0 0.20001522E+02</rscale>
<asrwt>0</asrwt>
<pdfrwt beam="1">  1        2 0.37945796E-03 0.20001522E+02</pdfrwt>
<pdfrwt beam="2">  1       -2 0.62384358E-02 0.20001522E+02</pdfrwt>
<totfact> 0.34855843E+06</totfact>
</mgrwt>
</event>
<event>
 5    1  0.1607476E-006  0.2000119E+02  0.7818608E-02  0.1745304E+00
          2   -1    0    0  501    0  0.00000000000E+00  0.00000000000E+00  0.13530492916E+01  0.13530517897E+01  0.26000000000E-02 0.  1.
         -2   -1    0    0    0  501 -0.00000000000E+00 -0.00000000000E+00 -0.73915848412E+02  0.73915848458E+02  0.26000000000E-02 0. -1.
       1023    2    1    2    0    0  0.00000000000E+00  0.00000000000E+00 -0.72562799121E+02  0.75268900248E+02  0.20001188172E+02 0.  0.
        -13    1    3    3    0    0  0.32781903413E+01 -0.94474375175E+01 -0.36319409593E+02  0.37671093603E+02  0.10570000000E+00 0.  1.
         13    1    3    3    0    0 -0.32781903413E+01  0.94474375175E+01 -0.36243389527E+02  0.37597806645E+02  0.10570000000E+00 0. -1.
<mgrwt>
<rscale>  0 0.20001188E+02</rscale>
<asrwt>0</asrwt>
<pdfrwt beam="1">  1        2 0.20816168E-03 0.20001188E+02</pdfrwt>
<pdfrwt beam="2">  1       -2 0.11371666E-01 0.20001188E+02</pdfrwt>
<totfact> 0.31750252E+06</totfact>
</mgrwt>
</event>
<event>
 5    1  0.1607476E-006  0.2000382E+02  0.7818608E-02  0.1745252E+00
          2   -1    0    0  501    0  0.00000000000E+00  0.00000000000E+00  0.48405400158E+02  0.48405400227E+02  0.26000000000E-02 0.  1.
         -2   -1    0    0    0  501 -0.00000000000E+00 -0.00000000000E+00 -0.20666745914E+01  0.20666762269E+01  0.26000000000E-02 0. -1.
       1023    2    1    2    0    0  0.00000000000E+00  0.00000000000E+00  0.46338725566E+02  0.50472076454E+02  0.20003824997E+02 0.  0.
        -13    1    3    3    0    0  0.99266326960E+00 -0.99515256217E+01  0.22932154890E+02  0.25018256193E+02  0.10570000000E+00 0. -1.
         13    1    3    3    0    0 -0.99266326960E+00  0.99515256217E+01  0.23406570676E+02  0.25453820261E+02  0.10570000000E+00 0.  1.
<mgrwt>
<rscale>  0 0.20003825E+02</rscale>
<asrwt>0</asrwt>
<pdfrwt beam="1">  1        2 0.74469844E-02 0.20003825E+02</pdfrwt>
<pdfrwt beam="2">  1       -2 0.31795008E-03 0.20003825E+02</pdfrwt>
<totfact> 0.46084848E+06</totfact>
</mgrwt>
</event>
<event>
 5    1  0.1607476E-006  0.2000182E+02  0.7818608E-02  0.1745292E+00
         -2   -1    0    0    0  501 -0.00000000000E+00  0.00000000000E+00  0.38851450249E+02  0.38851450336E+02  0.26000000000E-02 0. -1.
          2   -1    0    0  501    0  0.00000000000E+00 -0.00000000000E+00 -0.25743740229E+01  0.25743753358E+01  0.26000000000E-02 0.  1.
       1023    2    1    2    0    0  0.00000000000E+00  0.00000000000E+00  0.36277076226E+02  0.41425825672E+02  0.20001819244E+02 0.  0.
        -13    1    3    3    0    0 -0.98534146305E+01 -0.17069996955E+01  0.18259177640E+02  0.20818558270E+02  0.10570000000E+00 0. -1.
         13    1    3    3    0    0  0.98534146305E+01  0.17069996955E+01  0.18017898586E+02  0.20607267402E+02  0.10570000000E+00 0.  1.
<mgrwt>
<rscale>  0 0.20001819E+02</rscale>
<asrwt>0</asrwt>
<pdfrwt beam="2">  1        2 0.39605766E-03 0.20001819E+02</pdfrwt>
<pdfrwt beam="1">  1       -2 0.59771462E-02 0.20001819E+02</pdfrwt>
<totfact> 0.35037554E+06</totfact>
</mgrwt>
</event>
<event>
 5    1  0.1607476E-006  0.2001034E+02  0.7818608E-02  0.1745122E+00
          2   -1    0    0  501    0  0.00000000000E+00  0.00000000000E+00  0.94909900209E+02  0.94909900245E+02  0.26000000000E-02 0.  1.
         -2   -1    0    0    0  501 -0.00000000000E+00 -0.00000000000E+00 -0.10547193565E+01  0.10547225612E+01  0.26000000000E-02 0. -1.
       1023    2    1    2    0    0  0.00000000000E+00  0.00000000000E+00  0.93855180853E+02  0.95964622806E+02  0.20010343760E+02 0.  0.
        -13    1    3    3    0    0 -0.99104904844E+01 -0.13655395832E+01  0.46453517290E+02  0.47518659083E+02  0.10570000000E+00 0. -1.
         13    1    3    3    0    0  0.99104904844E+01  0.13655395832E+01  0.47401663563E+02  0.48445963722E+02  0.10570000000E+00 0.  1.
<mgrwt>
<rscale>  0 0.20010344E+02</rscale>
<asrwt>0</asrwt>
<pdfrwt beam="1">  1        2 0.14601524E-01 0.20010344E+02</pdfrwt>
<pdfrwt beam="2">  1       -2 0.16226476E-03 0.20010344E+02</pdfrwt>
<totfact> 0.52084879E+06</totfact>
</mgrwt>
</event>
<event>
 4    1  0.1607476E-006  0.2004272E+02  0.7818608E-02  0.1744480E+00
          2   -1    0    0  501    0  0.00000000000E+00  0.00000000000E+00  0.10459895486E+03  0.10459895489E+03  0.26000000000E-02 0. -1.
         -2   -1    0    0    0  501 -0.00000000000E+00 -0.00000000000E+00 -0.96011884022E+00  0.96012236062E+00  0.26000000000E-02 0.  1.
        -13    1    1    2    0    0  0.34310781788E+01  0.94053362081E+01  0.49561508363E+02  0.50562702958E+02  0.10570000000E+00 0.  1.
         13    1    1    2    0    0 -0.34310781788E+01 -0.94053362081E+01  0.54077327653E+02  0.54996374292E+02  0.10570000000E+00 0. -1.
<mgrwt>
<rscale>  0 0.20042716E+02</rscale>
<asrwt>0</asrwt>
<pdfrwt beam="1">  1        2 0.16092142E-01 0.20042716E+02</pdfrwt>
<pdfrwt beam="2">  1       -2 0.14771091E-03 0.20042716E+02</pdfrwt>
<totfact> 0.53055101E+06</totfact>
</mgrwt>
</event>
<event>
 5    1  0.1607476E-006  0.2000360E+02  0.7818608E-02  0.1745257E+00
          2   -1    0    0  501    0  0.00000000000E+00  0.00000000000E+00  0.88181467740E+01  0.88181471573E+01  0.26000000000E-02 0. -1.
         -2   -1    0    0    0  501 -0.00000000000E+00 -0.00000000000E+00 -0.11344330668E+02  0.11344330966E+02  0.26000000000E-02 0.  1.
       1023    2    1    2    0    0  0.00000000000E+00  0.00000000000E+00 -0.25261838941E+01  0.20162478123E+02  0.20003597652E+02 0.  0.
        -13    1    3    3    0    0 -0.72396672135E+01  0.69001440987E+01 -0.12692492569E+01  0.10082010519E+02  0.10570000000E+00 0. -1.
         13    1    3    3    0    0  0.72396672135E+01 -0.69001440987E+01 -0.12569346372E+01  0.10080467604E+02  0.10570000000E+00 0.  1.
<mgrwt>
<rscale>  0 0.20003598E+02</rscale>
<asrwt>0</asrwt>
<pdfrwt beam="1">  1        2 0.13566380E-02 0.20003598E+02</pdfrwt>
<pdfrwt beam="2">  1       -2 0.17452817E-02 0.20003598E+02</pdfrwt>
<totfact> 0.39085554E+06</totfact>
</mgrwt>
</event>
<event>
 5    1  0.1607476E-006  0.2000276E+02  0.7818608E-02  0.1745273E+00
         -2   -1    0    0    0  501 -0.00000000000E+00  0.00000000000E+00  0.76936184907E+01  0.76936189301E+01  0.26000000000E-02 0. -1.
          2   -1    0    0  501    0  0.00000000000E+00 -0.00000000000E+00 -0.13001373055E+02  0.13001373315E+02  0.26000000000E-02 0.  1.
       1023    2    1    2    0    0  0.00000000000E+00  0.00000000000E+00 -0.53077545642E+01  0.20694992245E+02  0.20002760947E+02 0.  0.
        -13    1    3    3    0    0  0.95128107773E+00  0.99553963020E+01 -0.26126528056E+01  0.10336923062E+02  0.10570000000E+00 0. -1.
         13    1    3    3    0    0 -0.95128107773E+00 -0.99553963020E+01 -0.26951017586E+01  0.10358069183E+02  0.10570000000E+00 0.  1.
<mgrwt>
<rscale>  0 0.20002761E+02</rscale>
<asrwt>0</asrwt>
<pdfrwt beam="2">  1        2 0.20002113E-02 0.20002761E+02</pdfrwt>
<pdfrwt beam="1">  1       -2 0.11836337E-02 0.20002761E+02</pdfrwt>
<totfact> 0.40228784E+06</totfact>
</mgrwt>
</event>
<event>
 5    1  0.1607476E-006  0.2000174E+02  0.7818608E-02  0.1745293E+00
          2   -1    0    0  501    0  0.00000000000E+00  0.00000000000E+00  0.45139549074E+01  0.45139556562E+01  0.26000000000E-02 0.  1.
         -2   -1    0    0    0  501 -0.00000000000E+00 -0.00000000000E+00 -0.22157374412E+02  0.22157374565E+02  0.26000000000E-02 0. -1.
       1023    2    1    2    0    0  0.00000000000E+00  0.00000000000E+00 -0.17643419505E+02  0.26671330221E+02  0.20001740023E+02 0.  0.
        -13    1    3    3    0    0 -0.96982420843E+01 -0.24392314270E+01 -0.88508941566E+01  0.13354970960E+02  0.10570000000E+00 0.  1.
         13    1    3    3    0    0  0.96982420843E+01  0.24392314270E+01 -0.87925253485E+01  0.13316359261E+02  0.10570000000E+00 0. -1.
<mgrwt>
<rscale>  0 0.20001740E+02</rscale>
<asrwt>0</asrwt>
<pdfrwt beam="1">  1        2 0.69445469E-03 0.20001740E+02</pdfrwt>
<pdfrwt beam="2">  1       -2 0.34088268E-02 0.20001740E+02</pdfrwt>
<totfact> 0.37101525E+06</totfact>
</mgrwt>
</event>
<event>
 4    1  0.1607476E-006  0.2373345E+02  0.7818608E-02  0.1679890E+00
         -2   -1    0    0    0  501 -0.00000000000E+00  0.00000000000E+00  0.27299813056E+01  0.27299825437E+01  0.26000000000E-02 0. -1.
          2   -1    0    0  501    0  0.00000000000E+00 -0.00000000000E+00 -0.51582468685E+02  0.51582468751E+02  0.26000000000E-02 0.  1.
        -13    1    1    2    0    0  0.63956363687E+01 -0.99069447652E+01 -0.21393468958E+02  0.24428332028E+02  0.10570000000E+00 0. -1.
         13    1    1    2    0    0 -0.63956363687E+01  0.99069447652E+01 -0.27459018422E+02  0.29884119267E+02  0.10570000000E+00 0.  1.
<mgrwt>
<rscale>  0 0.23733454E+02</rscale>
<asrwt>0</asrwt>
<pdfrwt beam="2">  1        2 0.79357638E-02 0.23733454E+02</pdfrwt>
<pdfrwt beam="1">  1       -2 0.41999726E-03 0.23733454E+02</pdfrwt>
<totfact> 0.31610009E+06</totfact>
</mgrwt>
</event>
<event>
 5    1  0.1607476E-006  0.2000181E+02  0.7818608E-02  0.1745292E+00
          2   -1    0    0  501    0  0.00000000000E+00  0.00000000000E+00  0.30066388629E+02  0.30066388742E+02  0.26000000000E-02 0.  1.
         -2   -1    0    0    0  501 -0.00000000000E+00 -0.00000000000E+00 -0.33265755333E+01  0.33265765494E+01  0.26000000000E-02 0. -1.
       1023    2    1    2    0    0  0.00000000000E+00  0.00000000000E+00  0.26739813096E+02  0.33392965291E+02  0.20001813081E+02 0.  0.
        -13    1    3    3    0    0  0.19552466157E+01 -0.98071146119E+01  0.13481560837E+02  0.16785891142E+02  0.10570000000E+00 0.  1.
         13    1    3    3    0    0 -0.19552466157E+01  0.98071146119E+01  0.13258252259E+02  0.16607074149E+02  0.10570000000E+00 0. -1.
<mgrwt>
<rscale>  0 0.20001813E+02</rscale>
<asrwt>0</asrwt>
<pdfrwt beam="1">  1        2 0.46255982E-02 0.20001813E+02</pdfrwt>
<pdfrwt beam="2">  1       -2 0.51178095E-03 0.20001813E+02</pdfrwt>
<totfact> 0.43374947E+06</totfact>
</mgrwt>
</event>
<event>
 4    1  0.1607476E-006  0.2001519E+02  0.7818608E-02  0.1745026E+00
          2   -1    0    0  501    0  0.00000000000E+00  0.00000000000E+00  0.13715034535E+02  0.13715034781E+02  0.26000000000E-02 0. -1.
         -2   -1    0    0    0  501 -0.00000000000E+00 -0.00000000000E+00 -0.73023495806E+01  0.73023500435E+01  0.26000000000E-02 0.  1.
        -13    1    1    2    0    0 -0.84366699908E+01 -0.53800691164E+01  0.30644179460E+01  0.10465389342E+02  0.10570000000E+00 0.  1.
         13    1    1    2    0    0  0.84366699908E+01  0.53800691164E+01  0.33482670082E+01  0.10551995483E+02  0.10570000000E+00 0. -1.
<mgrwt>
<rscale>  0 0.20015193E+02</rscale>
<asrwt>0</asrwt>
<pdfrwt beam="1">  1        2 0.21100054E-02 0.20015193E+02</pdfrwt>
<pdfrwt beam="2">  1       -2 0.11234385E-02 0.20015193E+02</pdfrwt>
<totfact> 0.40336722E+06</totfact>
</mgrwt>
</event>
<event>
 5    1  0.1607476E-006  0.2000594E+02  0.7818608E-02  0.1745210E+00
          2   -1    0    0  501    0  0.00000000000E+00  0.00000000000E+00  0.68182427884E+01  0.68182432841E+01  0.26000000000E-02 0.  1.
         -2   -1    0    0    0  501 -0.00000000000E+00 -0.00000000000E+00 -0.14675254790E+02  0.14675255020E+02  0.26000000000E-02 0. -1.
       1023    2    1    2    0    0  0.00000000000E+00  0.00000000000E+00 -0.78570120017E+01  0.21493498304E+02  0.20005944911E+02 0.  0.
        -13    1    3    3    0    0 -0.30356913871E+01 -0.95280960875E+01 -0.36925187152E+01  0.10660483301E+02  0.10570000000E+00 0.  1.
         13    1    3    3    0    0  0.30356913871E+01  0.95280960875E+01 -0.41644932865E+01  0.10833015004E+02  0.10570000000E+00 0. -1.
<mgrwt>
<rscale>  0 0.20005945E+02</rscale>
<asrwt>0</asrwt>
<pdfrwt beam="1">  1        2 0.10489605E-02 0.20005945E+02</pdfrwt>
<pdfrwt beam="2">  1       -2 0.22577316E-02 0.20005945E+02</pdfrwt>
<totfact> 0.38336660E+06</totfact>
</mgrwt>
</event>
<event>
 5    1  0.1607476E-006  0.2000415E+02  0.7818608E-02  0.1745246E+00
          2   -1    0    0  501    0  0.00000000000E+00  0.00000000000E+00  0.18910540153E+01  0.18910558026E+01  0.26000000000E-02 0.  1.
         -2   -1    0    0    0  501 -0.00000000000E+00 -0.00000000000E+00 -0.52902475210E+02  0.52902475273E+02  0.26000000000E-02 0. -1.
       1023    2    1    2    0    0  0.00000000000E+00  0.00000000000E+00 -0.51011421194E+02  0.54793531076E+02  0.20004148458E+02 0.  0.
        -13    1    3    3    0    0 -0.10126125422E+01 -0.99498577892E+01 -0.25307012781E+02  0.27211782789E+02  0.10570000000E+00 0.  1.
         13    1    3    3    0    0  0.10126125422E+01  0.99498577892E+01 -0.25704408413E+02  0.27581748287E+02  0.10570000000E+00 0. -1.
<mgrwt>
<rscale>  0 0.20004148E+02</rscale>
<asrwt>0</asrwt>
<pdfrwt beam="1">  1        2 0.29093157E-03 0.20004148E+02</pdfrwt>
<pdfrwt beam="2">  1       -2 0.81388413E-02 0.20004148E+02</pdfrwt>
<totfact> 0.33603627E+06</totfact>
</mgrwt>
</event>
<event>
 5    1  0.1607476E-006  0.2000662E+02  0.7818608E-02  0.1745196E+00
          2   -1    0    0  501    0  0.00000000000E+00  0.00000000000E+00  0.10069725944E+02  0.10069726279E+02  0.26000000000E-02 0. -1.
         -2   -1    0    0    0  501 -0.00000000000E+00 -0.00000000000E+00 -0.99373358278E+01  0.99373361680E+01  0.26000000000E-02 0.  1.
       1023    2    1    2    0    0  0.00000000000E+00  0.00000000000E+00  0.13239011571E+00  0.20007062447E+02  0.20006624419E+02 0.  0.
        -13    1    3    3    0    0 -0.22522143410E+01  0.97458717665E+01  0.41766265027E-01  0.10003369574E+02  0.10570000000E+00 0. -1.
         13    1    3    3    0    0  0.22522143410E+01 -0.97458717665E+01  0.90623850685E-01  0.10003692873E+02  0.10570000000E+00 0.  1.
<mgrwt>
<rscale>  0 0.20006624E+02</rscale>
<asrwt>0</asrwt>
<pdfrwt beam="1">  1        2 0.15491887E-02 0.20006624E+02</pdfrwt>
<pdfrwt beam="2">  1       -2 0.15288210E-02 0.20006624E+02</pdfrwt>
<totfact> 0.39453417E+06</totfact>
</mgrwt>
</event>
<event>
 5    1  0.1792923E-006  0.2000130E+02  0.7818608E-02  0.1745302E+00
         -2   -1    0    0    0  501 -0.00000000000E+00  0.00000000000E+00  0.19095890334E+01  0.19095908034E+01  0.26000000000E-02 0.  1.
          2   -1    0    0  501    0  0.00000000000E+00 -0.00000000000E+00 -0.52374056023E+02  0.52374056088E+02  0.26000000000E-02 0. -1.
       1023    2    1    2    0    0  0.00000000000E+00  0.00000000000E+00 -0.50464466990E+02  0.54283646891E+02  0.20001297239E+02 0.  0.
        -13    1    3    3    0    0 -0.82627866915E+01  0.56327617322E+01 -0.25265658394E+02  0.27172896703E+02  0.10570000000E+00 0. -1.
         13    1    3    3    0    0  0.82627866915E+01 -0.56327617322E+01 -0.25198808596E+02  0.27110750188E+02  0.10570000000E+00 0.  1.
<mgrwt>
<rscale>  0 0.20001297E+02</rscale>
<asrwt>0</asrwt>
<pdfrwt beam="2">  1        2 0.80575461E-02 0.20001297E+02</pdfrwt>
<pdfrwt beam="1">  1       -2 0.29378311E-03 0.20001297E+02</pdfrwt>
<totfact> 0.46651431E+06</totfact>
</mgrwt>
</event>
<event>
 5    1  0.1607476E-006  0.2000200E+02  0.7818608E-02  0.1745288E+00
         -2   -1    0    0    0  501 -0.00000000000E+00  0.00000000000E+00  0.94962090509E+00  0.94962446440E+00  0.26000000000E-02 0. -1.
          2   -1    0    0  501    0  0.00000000000E+00 -0.00000000000E+00 -0.10532599771E+03  0.10532599774E+03  0.26000000000E-02 0.  1.
       1023    2    1    2    0    0  0.00000000000E+00  0.00000000000E+00 -0.10437637680E+03  0.10627562220E+03  0.20001995912E+02 0.  0.
        -13    1    3    3    0    0 -0.73156551176E+01 -0.68183273925E+01 -0.52083342216E+02  0.53034838617E+02  0.10570000000E+00 0. -1.
         13    1    3    3    0    0  0.73156551176E+01  0.68183273925E+01 -0.52293034586E+02  0.53240783587E+02  0.10570000000E+00 0.  1.
<mgrwt>
<rscale>  0 0.20001996E+02</rscale>
<asrwt>0</asrwt>
<pdfrwt beam="2">  1        2 0.16203991E-01 0.20001996E+02</pdfrwt>
<pdfrwt beam="1">  1       -2 0.14609588E-03 0.20001996E+02</pdfrwt>
<totfact> 0.53379445E+06</totfact>
</mgrwt>
</event>
<event>
 5    1  0.1607476E-006  0.2000735E+02  0.7818608E-02  0.1745182E+00
         -2   -1    0    0    0  501 -0.00000000000E+00  0.00000000000E+00  0.17628260119E+01  0.17628279293E+01  0.26000000000E-02 0. -1.
          2   -1    0    0  501    0  0.00000000000E+00 -0.00000000000E+00 -0.56768761650E+02  0.56768761710E+02  0.26000000000E-02 0.  1.
       1023    2    1    2    0    0  0.00000000000E+00  0.00000000000E+00 -0.55005935638E+02  0.58531589639E+02  0.20007349405E+02 0.  0.
        -13    1    3    3    0    0 -0.10075000897E+01 -0.99519731322E+01 -0.27285821064E+02  0.29061727913E+02  0.10570000000E+00 0.  1.
         13    1    3    3    0    0  0.10075000897E+01  0.99519731322E+01 -0.27720114574E+02  0.29469861726E+02  0.10570000000E+00 0. -1.
<mgrwt>
<rscale>  0 0.20007349E+02</rscale>
<asrwt>0</asrwt>
<pdfrwt beam="2">  1        2 0.87336544E-02 0.20007349E+02</pdfrwt>
<pdfrwt beam="1">  1       -2 0.27120420E-03 0.20007349E+02</pdfrwt>
<totfact> 0.47222143E+06</totfact>
</mgrwt>
</event>
<event>
 5    1  0.1607476E-006  0.2000156E+02  0.7818608E-02  0.1745297E+00
         -2   -1    0    0    0  501 -0.00000000000E+00  0.00000000000E+00  0.40224972040E+02  0.40224972124E+02  0.26000000000E-02 0. -1.
          2   -1    0    0  501    0  0.00000000000E+00 -0.00000000000E+00 -0.24864042763E+01  0.24864056357E+01  0.26000000000E-02 0.  1.
       1023    2    1    2    0    0  0.00000000000E+00  0.00000000000E+00  0.37738567764E+02  0.42711377760E+02  0.20001557271E+02 0.  0.
        -13    1    3    3    0    0  0.86220863112E+01 -0.50658946892E+01  0.18927352283E+02  0.21406996480E+02  0.10570000000E+00 0.  1.
         13    1    3    3    0    0 -0.86220863112E+01  0.50658946892E+01  0.18811215481E+02  0.21304381280E+02  0.10570000000E+00 0. -1.
<mgrwt>
<rscale>  0 0.20001557E+02</rscale>
<asrwt>0</asrwt>
<pdfrwt beam="2">  1        2 0.38252384E-03 0.20001557E+02</pdfrwt>
<pdfrwt beam="1">  1       -2 0.61884575E-02 0.20001557E+02</pdfrwt>
<totfact> 0.34890450E+06</totfact>
</mgrwt>
</event>
<event>
 5    1  0.1607476E-006  0.2000182E+02  0.7818608E-02  0.1745292E+00
          2   -1    0    0  501    0  0.00000000000E+00  0.00000000000E+00  0.37087249794E+01  0.37087258908E+01  0.26000000000E-02 0.  1.
         -2   -1    0    0    0  501 -0.00000000000E+00 -0.00000000000E+00 -0.26968357130E+02  0.26968357255E+02  0.26000000000E-02 0. -1.
       1023    2    1    2    0    0  0.00000000000E+00  0.00000000000E+00 -0.23259632151E+02  0.30677083146E+02  0.20001823481E+02 0.  0.
        -13    1    3    3    0    0 -0.36765030177E+01  0.92997037629E+01 -0.11512022854E+02  0.15249229724E+02  0.10570000000E+00 0.  1.
         13    1    3    3    0    0  0.36765030177E+01 -0.92997037629E+01 -0.11747609297E+02  0.15427853422E+02  0.10570000000E+00 0. -1.
<mgrwt>
<rscale>  0 0.20001823E+02</rscale>
<asrwt>0</asrwt>
<pdfrwt beam="1">  1        2 0.57057317E-03 0.20001823E+02</pdfrwt>
<pdfrwt beam="2">  1       -2 0.41489780E-02 0.20001823E+02</pdfrwt>
<totfact> 0.36440402E+06</totfact>
</mgrwt>
</event>
<event>
 4    1  0.1607476E-006  0.2021040E+02  0.7818608E-02  0.1741176E+00
          2   -1    0    0  501    0  0.00000000000E+00  0.00000000000E+00  0.32849960228E+02  0.32849960331E+02  0.26000000000E-02 0.  1.
         -2   -1    0    0    0  501 -0.00000000000E+00 -0.00000000000E+00 -0.31085286925E+01  0.31085297798E+01  0.26000000000E-02 0. -1.
        -13    1    1    2    0    0 -0.86449947920E+01  0.51907585917E+01  0.16029228532E+02  0.18937456258E+02  0.10570000000E+00 0.  1.
         13    1    1    2    0    0  0.86449947920E+01 -0.51907585917E+01  0.13712203004E+02  0.17021033853E+02  0.10570000000E+00 0. -1.
<mgrwt>
<rscale>  0 0.20210400E+02</rscale>
<asrwt>0</asrwt>
<pdfrwt beam="1">  1        2 0.50538401E-02 0.20210400E+02</pdfrwt>
<pdfrwt beam="2">  1       -2 0.47823528E-03 0.20210400E+02</pdfrwt>
<totfact> 0.42803836E+06</totfact>
</mgrwt>
</event>
<event>
 5    1  0.1607476E-006  0.2000116E+02  0.7818608E-02  0.1745305E+00
          2   -1    0    0  501    0  0.00000000000E+00  0.00000000000E+00  0.18963647575E+02  0.18963647754E+02  0.26000000000E-02 0. -1.
         -2   -1    0    0    0  501 -0.00000000000E+00 -0.00000000000E+00 -0.52738590958E+01  0.52738597367E+01  0.26000000000E-02 0.  1.
       1023    2    1    2    0    0  0.00000000000E+00  0.00000000000E+00  0.13689788480E+02  0.24237507490E+02  0.20001161484E+02 0.  0.
        -13    1    3    3    0    0 -0.52274553467E+01  0.85249068633E+01  0.68318279229E+01  0.12111373650E+02  0.10570000000E+00 0.  1.
         13    1    3    3    0    0  0.52274553467E+01 -0.85249068633E+01  0.68579605568E+01  0.12126133840E+02  0.10570000000E+00 0. -1.
<mgrwt>
<rscale>  0 0.20001161E+02</rscale>
<asrwt>0</asrwt>
<pdfrwt beam="1">  1        2 0.29174843E-02 0.20001161E+02</pdfrwt>
<pdfrwt beam="2">  1       -2 0.81136301E-03 0.20001161E+02</pdfrwt>
<totfact> 0.41479256E+06</totfact>
</mgrwt>
</event>
<event>
 5    1  0.1607476E-006  0.2000809E+02  0.7818608E-02  0.1745167E+00
         -2   -1    0    0    0  501 -0.00000000000E+00  0.00000000000E+00  0.69106847950E+02  0.69106847999E+02  0.26000000000E-02 0. -1.
          2   -1    0    0  501    0  0.00000000000E+00 -0.00000000000E+00 -0.14482038930E+01  0.14482062270E+01  0.26000000000E-02 0.  1.
       1023    2    1    2    0    0  0.00000000000E+00  0.00000000000E+00  0.67658644057E+02  0.70555054226E+02  0.20008087395E+02 0.  0.
        -13    1    3    3    0    0  0.74942047965E+01  0.66212853128E+01  0.34729696785E+02  0.36140939888E+02  0.10570000000E+00 0.  1.
         13    1    3    3    0    0 -0.74942047965E+01 -0.66212853128E+01  0.32928947271E+02  0.34414114337E+02  0.10570000000E+00 0. -1.
<mgrwt>
<rscale>  0 0.20008087E+02</rscale>
<asrwt>0</asrwt>
<pdfrwt beam="2">  1        2 0.22280074E-03 0.20008087E+02</pdfrwt>
<pdfrwt beam="1">  1       -2 0.10631825E-01 0.20008087E+02</pdfrwt>
<totfact> 0.32130899E+06</totfact>
</mgrwt>
</event>
<event>
 5    1  0.1607476E-006  0.2000498E+02  0.7818608E-02  0.1745229E+00
         -2   -1    0    0    0  501 -0.00000000000E+00  0.00000000000E+00  0.35948611399E+02  0.35948611493E+02  0.26000000000E-02 0. -1.
          2   -1    0    0  501    0  0.00000000000E+00 -0.00000000000E+00 -0.27831325380E+01  0.27831337525E+01  0.26000000000E-02 0.  1.
       1023    2    1    2    0    0  0.00000000000E+00  0.00000000000E+00  0.33165478861E+02  0.38731745246E+02  0.20004976923E+02 0.  0.
        -13    1    3    3    0    0  0.98587495615E+01 -0.16855722013E+01  0.16485810916E+02  0.19282874024E+02  0.10570000000E+00 0.  1.
         13    1    3    3    0    0 -0.98587495615E+01  0.16855722013E+01  0.16679667945E+02  0.19448871222E+02  0.10570000000E+00 0. -1.
<mgrwt>
<rscale>  0 0.20004977E+02</rscale>
<asrwt>0</asrwt>
<pdfrwt beam="2">  1        2 0.42817434E-03 0.20004977E+02</pdfrwt>
<pdfrwt beam="1">  1       -2 0.55305557E-02 0.20004977E+02</pdfrwt>
<totfact> 0.35346261E+06</totfact>
</mgrwt>
</event>
<event>
 5    1  0.1607476E-006  0.2000138E+02  0.7818608E-02  0.1745301E+00
         -2   -1    0    0    0  501 -0.00000000000E+00  0.00000000000E+00  0.34200996297E+01  0.34201006179E+01  0.26000000000E-02 0.  1.
          2   -1    0    0  501    0  0.00000000000E+00 -0.00000000000E+00 -0.29242931671E+02  0.29242931787E+02  0.26000000000E-02 0. -1.
       1023    2    1    2    0    0  0.00000000000E+00  0.00000000000E+00 -0.25822832041E+02  0.32663032405E+02  0.20001375733E+02 0.  0.
        -13    1    3    3    0    0  0.53488248423E+00 -0.99857771802E+01 -0.12955844041E+02  0.16366640232E+02  0.10570000000E+00 0.  1.
         13    1    3    3    0    0 -0.53488248423E+00  0.99857771802E+01 -0.12866988000E+02  0.16296392173E+02  0.10570000000E+00 0. -1.
<mgrwt>
<rscale>  0 0.20001376E+02</rscale>
<asrwt>0</asrwt>
<pdfrwt beam="2">  1        2 0.44989125E-02 0.20001376E+02</pdfrwt>
<pdfrwt beam="1">  1       -2 0.52616928E-03 0.20001376E+02</pdfrwt>
<totfact> 0.43245962E+06</totfact>
</mgrwt>
</event>
<event>
 5    1  0.2489076E-006  0.2000393E+02  0.7818608E-02  0.1745250E+00
          2   -1    0    0  501    0  0.00000000000E+00  0.00000000000E+00  0.11247341890E+03  0.11247341893E+03  0.26000000000E-02 0.  1.
         -2   -1    0    0    0  501 -0.00000000000E+00 -0.00000000000E+00 -0.88944671068E+00  0.88945051079E+00  0.26000000000E-02 0. -1.
       1023    2    1    2    0    0  0.00000000000E+00  0.00000000000E+00  0.11158397219E+03  0.11336286944E+03  0.20003932571E+02 0.  0.
        -13    1    3    3    0    0 -0.19372529253E+01 -0.98109370427E+01  0.56607773265E+02  0.57484420507E+02  0.10570000000E+00 0.  1.
         13    1    3    3    0    0  0.19372529253E+01  0.98109370427E+01  0.54976198921E+02  0.55878448931E+02  0.10570000000E+00 0. -1.
<mgrwt>
<rscale>  0 0.20003933E+02</rscale>
<asrwt>0</asrwt>
<pdfrwt beam="1">  1        2 0.17303595E-01 0.20003933E+02</pdfrwt>
<pdfrwt beam="2">  1       -2 0.13683832E-03 0.20003933E+02</pdfrwt>
<totfact> 0.54203758E+06</totfact>
</mgrwt>
</event>
<event>
 4    1  0.1607476E-006  0.2032889E+02  0.7818608E-02  0.1738866E+00
          2   -1    0    0  501    0  0.00000000000E+00  0.00000000000E+00  0.17849320536E+01  0.17849339472E+01  0.26000000000E-02 0. -1.
         -2   -1    0    0    0  501 -0.00000000000E+00 -0.00000000000E+00 -0.57882275620E+02  0.57882275679E+02  0.26000000000E-02 0.  1.
        -13    1    1    2    0    0 -0.72431606762E+01  0.69662151643E+01 -0.32512798308E+02  0.34030644376E+02  0.10570000000E+00 0.  1.
         13    1    1    2    0    0  0.72431606762E+01 -0.69662151643E+01 -0.23584545258E+02  0.25636565250E+02  0.10570000000E+00 0. -1.
<mgrwt>
<rscale>  0 0.20328894E+02</rscale>
<asrwt>0</asrwt>
<pdfrwt beam="1">  1        2 0.27460513E-03 0.20328894E+02</pdfrwt>
<pdfrwt beam="2">  1       -2 0.89049642E-02 0.20328894E+02</pdfrwt>
<totfact> 0.31990815E+06</totfact>
</mgrwt>
</event>
<event>
 4    1  0.1607476E-006  0.2003189E+02  0.7818608E-02  0.1744695E+00
          2   -1    0    0  501    0  0.00000000000E+00  0.00000000000E+00  0.12301224885E+02  0.12301225159E+02  0.26000000000E-02 0.  1.
         -2   -1    0    0    0  501 -0.00000000000E+00 -0.00000000000E+00 -0.81552145704E+01  0.81552149848E+01  0.26000000000E-02 0. -1.
        -13    1    1    2    0    0 -0.31264496666E+01  0.95030224082E+01  0.15877064370E+01  0.10129862123E+02  0.10570000000E+00 0. -1.
         13    1    1    2    0    0  0.31264496666E+01 -0.95030224082E+01  0.25583038772E+01  0.10326578021E+02  0.10570000000E+00 0.  1.
<mgrwt>
<rscale>  0 0.20031888E+02</rscale>
<asrwt>0</asrwt>
<pdfrwt beam="1">  1        2 0.18924962E-02 0.20031888E+02</pdfrwt>
<pdfrwt beam="2">  1       -2 0.12546485E-02 0.20031888E+02</pdfrwt>
<totfact> 0.39928319E+06</totfact>
</mgrwt>
</event>
<event>
 5    1  0.1607476E-006  0.2000433E+02  0.7818608E-02  0.1745242E+00
          2   -1    0    0  501    0  0.00000000000E+00  0.00000000000E+00  0.48072281688E+02  0.48072281758E+02  0.26000000000E-02 0. -1.
         -2   -1    0    0    0  501 -0.00000000000E+00 -0.00000000000E+00 -0.20811016746E+01  0.20811032987E+01  0.26000000000E-02 0.  1.
       1023    2    1    2    0    0  0.00000000000E+00  0.00000000000E+00  0.45991180013E+02  0.50153385057E+02  0.20004334372E+02 0.  0.
        -13    1    3    3    0    0  0.46893695112E+01  0.88341323176E+01  0.23020117059E+02  0.25099184093E+02  0.10570000000E+00 0.  1.
         13    1    3    3    0    0 -0.46893695112E+01 -0.88341323176E+01  0.22971062954E+02  0.25054200964E+02  0.10570000000E+00 0. -1.
<mgrwt>
<rscale>  0 0.20004334E+02</rscale>
<asrwt>0</asrwt>
<pdfrwt beam="1">  1        2 0.73957355E-02 0.20004334E+02</pdfrwt>
<pdfrwt beam="2">  1       -2 0.32016963E-03 0.20004334E+02</pdfrwt>
<totfact> 0.46035334E+06</totfact>
</mgrwt>
</event>
<event>
 5    1  0.1607476E-006  0.2000773E+02  0.7818608E-02  0.1745174E+00
         -2   -1    0    0    0  501 -0.00000000000E+00  0.00000000000E+00  0.15972723632E+01  0.15972744793E+01  0.26000000000E-02 0. -1.
          2   -1    0    0  501    0  0.00000000000E+00 -0.00000000000E+00 -0.62655104950E+02  0.62655105004E+02  0.26000000000E-02 0.  1.
       1023    2    1    2    0    0  0.00000000000E+00  0.00000000000E+00 -0.61057832587E+02  0.64252379483E+02  0.20007732232E+02 0.  0.
        -13    1    3    3    0    0  0.42457948192E+01 -0.90557888159E+01 -0.29953729546E+02  0.31579600550E+02  0.10570000000E+00 0.  1.
         13    1    3    3    0    0 -0.42457948192E+01  0.90557888159E+01 -0.31104103041E+02  0.32672778933E+02  0.10570000000E+00 0. -1.
<mgrwt>
<rscale>  0 0.20007732E+02</rscale>
<asrwt>0</asrwt>
<pdfrwt beam="2">  1        2 0.96392452E-02 0.20007732E+02</pdfrwt>
<pdfrwt beam="1">  1       -2 0.24573442E-03 0.20007732E+02</pdfrwt>
<totfact> 0.48011931E+06</totfact>
</mgrwt>
</event>
<event>
 5    1  0.1607476E-006  0.2000192E+02  0.7818608E-02  0.1745290E+00
          2   -1    0    0  501    0  0.00000000000E+00  0.00000000000E+00  0.87605390235E+02  0.87605390274E+02  0.26000000000E-02 0.  1.
         -2   -1    0    0    0  501 -0.00000000000E+00 -0.00000000000E+00 -0.11416999108E+01  0.11417028713E+01  0.26000000000E-02 0. -1.
       1023    2    1    2    0    0  0.00000000000E+00  0.00000000000E+00  0.86463690324E+02  0.88747093145E+02  0.20001919837E+02 0.  0.
        -13    1    3    3    0    0  0.89522371708E+01  0.44570590772E+01  0.43187293261E+02  0.44330140961E+02  0.10570000000E+00 0. -1.
         13    1    3    3    0    0 -0.89522371708E+01 -0.44570590772E+01  0.43276397064E+02  0.44416952184E+02  0.10570000000E+00 0.  1.
<mgrwt>
<rscale>  0 0.20001920E+02</rscale>
<asrwt>0</asrwt>
<pdfrwt beam="1">  1        2 0.13477755E-01 0.20001920E+02</pdfrwt>
<pdfrwt beam="2">  1       -2 0.17564634E-03 0.20001920E+02</pdfrwt>
<totfact> 0.51238525E+06</totfact>
</mgrwt>
</event>
<event>
 5    1  0.1607476E-006  0.2000422E+02  0.7818608E-02  0.1745244E+00
         -2   -1    0    0    0  501 -0.00000000000E+00  0.00000000000E+00  0.97357716016E+02  0.97357716051E+02  0.26000000000E-02 0.  1.
          2   -1    0    0  501    0  0.00000000000E+00 -0.00000000000E+00 -0.10275717208E+01  0.10275750101E+01  0.26000000000E-02 0. -1.
       1023    2    1    2    0    0  0.00000000000E+00  0.00000000000E+00  0.96330144295E+02  0.98385291061E+02  0.20004219484E+02 0.  0.
        -13    1    3    3    0    0  0.92216341280E+01 -0.38686320578E+01  0.47369339894E+02  0.48413535137E+02  0.10570000000E+00 0.  1.
         13    1    3    3    0    0 -0.92216341280E+01  0.38686320578E+01  0.48960804401E+02  0.49971755924E+02  0.10570000000E+00 0. -1.
<mgrwt>
<rscale>  0 0.20004219E+02</rscale>
<asrwt>0</asrwt>
<pdfrwt beam="2">  1        2 0.15808814E-03 0.20004219E+02</pdfrwt>
<pdfrwt beam="1">  1       -2 0.14978117E-01 0.20004219E+02</pdfrwt>
<totfact> 0.29910181E+06</totfact>
</mgrwt>
</event>
<event>
 5    1  0.1607476E-006  0.2000332E+02  0.7818608E-02  0.1745262E+00
          2   -1    0    0  501    0  0.00000000000E+00  0.00000000000E+00  0.51193399550E+02  0.51193399616E+02  0.26000000000E-02 0.  1.
         -2   -1    0    0    0  501 -0.00000000000E+00 -0.00000000000E+00 -0.19540236033E+01  0.19540253330E+01  0.26000000000E-02 0. -1.
       1023    2    1    2    0    0  0.00000000000E+00  0.00000000000E+00  0.49239375947E+02  0.53147424949E+02  0.20003315603E+02 0.  0.
        -13    1    3    3    0    0 -0.11497267669E+01  0.99337429345E+01  0.24235892912E+02  0.26218138722E+02  0.10570000000E+00 0.  1.
         13    1    3    3    0    0  0.11497267669E+01 -0.99337429345E+01  0.25003483035E+02  0.26929286227E+02  0.10570000000E+00 0. -1.
<mgrwt>
<rscale>  0 0.20003316E+02</rscale>
<asrwt>0</asrwt>
<pdfrwt beam="1">  1        2 0.78759077E-02 0.20003316E+02</pdfrwt>
<pdfrwt beam="2">  1       -2 0.30061916E-03 0.20003316E+02</pdfrwt>
<totfact> 0.46477286E+06</totfact>
</mgrwt>
</event>
<event>
 5    1  0.1607476E-006  0.2000300E+02  0.7818608E-02  0.1745268E+00
         -2   -1    0    0    0  501 -0.00000000000E+00  0.00000000000E+00  0.50239489086E+01  0.50239495814E+01  0.26000000000E-02 0.  1.
          2   -1    0    0  501    0  0.00000000000E+00 -0.00000000000E+00 -0.19910632931E+02  0.19910633101E+02  0.26000000000E-02 0. -1.
       1023    2    1    2    0    0  0.00000000000E+00  0.00000000000E+00 -0.14886684022E+02  0.24934582682E+02  0.20003001084E+02 0.  0.
        -13    1    3    3    0    0 -0.60738610107E+00  0.99823164760E+01 -0.75147384662E+01  0.12509917138E+02  0.10570000000E+00 0.  1.
         13    1    3    3    0    0  0.60738610107E+00 -0.99823164760E+01 -0.73719455562E+01  0.12424665544E+02  0.10570000000E+00 0. -1.
<mgrwt>
<rscale>  0 0.20003001E+02</rscale>
<asrwt>0</asrwt>
<pdfrwt beam="2">  1        2 0.30631743E-02 0.20003001E+02</pdfrwt>
<pdfrwt beam="1">  1       -2 0.77291529E-03 0.20003001E+02</pdfrwt>
<totfact> 0.41647413E+06</totfact>
</mgrwt>
</event>
<event>
 4    1  0.1607476E-006  0.2004540E+02  0.7818608E-02  0.1744427E+00
          2   -1    0    0  501    0  0.00000000000E+00  0.00000000000E+00  0.17297937232E+02  0.17297937428E+02  0.26000000000E-02 0.  1.
         -2   -1    0    0    0  501 -0.00000000000E+00 -0.00000000000E+00 -0.58073130706E+01  0.58073136526E+01  0.26000000000E-02 0. -1.
        -13    1    1    2    0    0  0.57891530055E+01  0.81774110243E+01  0.60253597068E+01  0.11691897864E+02  0.10570000000E+00 0. -1.
         13    1    1    2    0    0 -0.57891530055E+01 -0.81774110243E+01  0.54652644550E+01  0.11413353216E+02  0.10570000000E+00 0.  1.
<mgrwt>
<rscale>  0 0.20045403E+02</rscale>
<asrwt>0</asrwt>
<pdfrwt beam="1">  1        2 0.26612212E-02 0.20045403E+02</pdfrwt>
<pdfrwt beam="2">  1       -2 0.89343283E-03 0.20045403E+02</pdfrwt>
<totfact> 0.40952099E+06</totfact>
</mgrwt>
</event>
<event>
 5    1  0.1686673E-006  0.2000167E+02  0.7818608E-02  0.1745295E+00
         -2   -1    0    0    0  501 -0.00000000000E+00  0.00000000000E+00  0.10257320643E+01  0.10257353595E+01  0.26000000000E-02 0. -1.
          2   -1    0    0  501    0  0.00000000000E+00 -0.00000000000E+00 -0.97507505313E+02  0.97507505348E+02  0.26000000000E-02 0.  1.
       1023    2    1    2    0    0  0.00000000000E+00  0.00000000000E+00 -0.96481773249E+02  0.98533240707E+02  0.20001673806E+02 0.  0.
        -13    1    3    3    0    0  0.20356109503E+01 -0.97908207607E+01 -0.48038780831E+02  0.49068722414E+02  0.10570000000E+00 0.  1.
         13    1    3    3    0    0 -0.20356109503E+01  0.97908207607E+01 -0.48442992418E+02  0.49464518293E+02  0.10570000000E+00 0. -1.
<mgrwt>
<rscale>  0 0.20001674E+02</rscale>
<asrwt>0</asrwt>
<pdfrwt beam="2">  1        2 0.15001148E-01 0.20001674E+02</pdfrwt>
<pdfrwt beam="1">  1       -2 0.15780527E-03 0.20001674E+02</pdfrwt>
<totfact> 0.52448823E+06</totfact>
</mgrwt>
</event>
<event>
 5    1  0.1607476E-006  0.2000465E+02  0.7818608E-02  0.1745236E+00
         -2   -1    0    0    0  501 -0.00000000000E+00  0.00000000000E+00  0.11343292796E+02  0.11343293094E+02  0.26000000000E-02 0.  1.
          2   -1    0    0  501    0  0.00000000000E+00 -0.00000000000E+00 -0.88198825924E+01  0.88198829756E+01  0.26000000000E-02 0. -1.
       1023    2    1    2    0    0  0.00000000000E+00  0.00000000000E+00  0.25234102041E+01  0.20163176070E+02  0.20004651213E+02 0.  0.
        -13    1    3    3    0    0  0.72814910287E+01 -0.68558415890E+01  0.13751562002E+01  0.10095786376E+02  0.10570000000E+00 0. -1.
         13    1    3    3    0    0 -0.72814910287E+01  0.68558415890E+01  0.11482540038E+01  0.10067389694E+02  0.10570000000E+00 0.  1.
<mgrwt>
<rscale>  0 0.20004651E+02</rscale>
<asrwt>0</asrwt>
<pdfrwt beam="2">  1        2 0.13569051E-02 0.20004651E+02</pdfrwt>
<pdfrwt beam="1">  1       -2 0.17451220E-02 0.20004651E+02</pdfrwt>
<totfact> 0.39081400E+06</totfact>
</mgrwt>
</event>
<event>
 5    1  0.1701828E-006  0.2000182E+02  0.7818608E-02  0.1745292E+00
         -2   -1    0    0    0  501 -0.00000000000E+00  0.00000000000E+00  0.10022962036E+01  0.10022995758E+01  0.26000000000E-02 0. -1.
          2   -1    0    0  501    0  0.00000000000E+00 -0.00000000000E+00 -0.99788918573E+02  0.99788918607E+02  0.26000000000E-02 0.  1.
       1023    2    1    2    0    0  0.00000000000E+00  0.00000000000E+00 -0.98786622369E+02  0.10079121818E+03  0.20001822507E+02 0.  0.
        -13    1    3    3    0    0  0.99229459957E+01  0.12409730674E+01 -0.49628698102E+02  0.50626314493E+02  0.10570000000E+00 0. -1.
         13    1    3    3    0    0 -0.99229459957E+01 -0.12409730674E+01 -0.49157924267E+02  0.50164903689E+02  0.10570000000E+00 0.  1.
<mgrwt>
<rscale>  0 0.20001823E+02</rscale>
<asrwt>0</asrwt>
<pdfrwt beam="2">  1        2 0.15352134E-01 0.20001823E+02</pdfrwt>
<pdfrwt beam="1">  1       -2 0.15419976E-03 0.20001823E+02</pdfrwt>
<totfact> 0.52722064E+06</totfact>
</mgrwt>
</event>
<event>
 4    1  0.1607476E-006  0.2001277E+02  0.7818608E-02  0.1745074E+00
         -2   -1    0    0    0  501 -0.00000000000E+00  0.00000000000E+00  0.57967764739E+02  0.57967764798E+02  0.26000000000E-02 0.  1.
          2   -1    0    0  501    0  0.00000000000E+00 -0.00000000000E+00 -0.17272989112E+01  0.17273008680E+01  0.26000000000E-02 0. -1.
        -13    1    1    2    0    0 -0.60203695304E+01 -0.79857142078E+01  0.29063793853E+02  0.30736489167E+02  0.10570000000E+00 0. -1.
         13    1    1    2    0    0  0.60203695304E+01  0.79857142078E+01  0.27176671975E+02  0.28958576498E+02  0.10570000000E+00 0.  1.
<mgrwt>
<rscale>  0 0.20012768E+02</rscale>
<asrwt>0</asrwt>
<pdfrwt beam="2">  1        2 0.26573848E-03 0.20012768E+02</pdfrwt>
<pdfrwt beam="1">  1       -2 0.89181168E-02 0.20012768E+02</pdfrwt>
<totfact> 0.33099251E+06</totfact>
</mgrwt>
</event>
<event>
 5    1  0.1607476E-006  0.2000814E+02  0.7818608E-02  0.1745166E+00
          2   -1    0    0  501    0  0.00000000000E+00  0.00000000000E+00  0.72150267706E+02  0.72150267752E+02  0.26000000000E-02 0. -1.
         -2   -1    0    0    0  501 -0.00000000000E+00 -0.00000000000E+00 -0.13871233377E+01  0.13871257744E+01  0.26000000000E-02 0.  1.
       1023    2    1    2    0    0  0.00000000000E+00  0.00000000000E+00  0.70763144368E+02  0.73537393527E+02  0.20008139491E+02 0.  0.
        -13    1    3    3    0    0 -0.45910382120E+01  0.88877784883E+01  0.35384559552E+02  0.36771571431E+02  0.10570000000E+00 0.  1.
         13    1    3    3    0    0  0.45910382120E+01 -0.88877784883E+01  0.35378584816E+02  0.36765822096E+02  0.10570000000E+00 0. -1.
<mgrwt>
<rscale>  0 0.20008139E+02</rscale>
<asrwt>0</asrwt>
<pdfrwt beam="1">  1        2 0.11100043E-01 0.20008139E+02</pdfrwt>
<pdfrwt beam="2">  1       -2 0.21340376E-03 0.20008139E+02</pdfrwt>
<totfact> 0.49253970E+06</totfact>
</mgrwt>
</event>
<event>
 4    1  0.1607476E-006  0.2005094E+02  0.7818608E-02  0.1744317E+00
          2   -1    0    0  501    0  0.00000000000E+00  0.00000000000E+00  0.21218477681E+01  0.21218493610E+01  0.26000000000E-02 0. -1.
         -2   -1    0    0    0  501 -0.00000000000E+00 -0.00000000000E+00 -0.47369104156E+02  0.47369104227E+02  0.26000000000E-02 0.  1.
        -13    1    1    2    0    0  0.99777567999E+01 -0.76345015443E+00 -0.21141829217E+02  0.23390737526E+02  0.10570000000E+00 0. -1.
         13    1    1    2    0    0 -0.99777567999E+01  0.76345015443E+00 -0.24105427171E+02  0.26100216062E+02  0.10570000000E+00 0.  1.
<mgrwt>
<rscale>  0 0.20050942E+02</rscale>
<asrwt>0</asrwt>
<pdfrwt beam="1">  1        2 0.32643828E-03 0.20050942E+02</pdfrwt>
<pdfrwt beam="2">  1       -2 0.72875538E-02 0.20050942E+02</pdfrwt>
<totfact> 0.33968936E+06</totfact>
</mgrwt>
</event>
<event>
 4    1  0.1607476E-006  0.2003144E+02  0.7818608E-02  0.1744704E+00
         -2   -1    0    0    0  501 -0.00000000000E+00  0.00000000000E+00  0.12480013948E+02  0.12480014218E+02  0.26000000000E-02 0.  1.
          2   -1    0    0  501    0  0.00000000000E+00 -0.00000000000E+00 -0.80380200009E+01  0.80380204214E+01  0.26000000000E-02 0. -1.
        -13    1    1    2    0    0 -0.55070482946E+01  0.83609715340E+01  0.24920192518E+01  0.10317691522E+02  0.10570000000E+00 0. -1.
         13    1    1    2    0    0  0.55070482946E+01 -0.83609715340E+01  0.19499746949E+01  0.10200343117E+02  0.10570000000E+00 0.  1.
<mgrwt>
<rscale>  0 0.20031436E+02</rscale>
<asrwt>0</asrwt>
<pdfrwt beam="2">  1        2 0.12366185E-02 0.20031436E+02</pdfrwt>
<pdfrwt beam="1">  1       -2 0.19200022E-02 0.20031436E+02</pdfrwt>
<totfact> 0.38696726E+06</totfact>
</mgrwt>
</event>
<event>
 5    1  0.1607476E-006  0.2000266E+02  0.7818608E-02  0.1745275E+00
         -2   -1    0    0    0  501 -0.00000000000E+00  0.00000000000E+00  0.29665513004E+01  0.29665524398E+01  0.26000000000E-02 0.  1.
          2   -1    0    0  501    0  0.00000000000E+00 -0.00000000000E+00 -0.33718139370E+02  0.33718139470E+02  0.26000000000E-02 0. -1.
       1023    2    1    2    0    0  0.00000000000E+00  0.00000000000E+00 -0.30751588069E+02  0.36684691910E+02  0.20002661116E+02 0.  0.
        -13    1    3    3    0    0  0.97166686966E+01  0.23667564491E+01 -0.15405011208E+02  0.18366837764E+02  0.10570000000E+00 0. -1.
         13    1    3    3    0    0 -0.97166686966E+01 -0.23667564491E+01 -0.15346576861E+02  0.18317854145E+02  0.10570000000E+00 0.  1.
<mgrwt>
<rscale>  0 0.20002661E+02</rscale>
<asrwt>0</asrwt>
<pdfrwt beam="2">  1        2 0.51874059E-02 0.20002661E+02</pdfrwt>
<pdfrwt beam="1">  1       -2 0.45639263E-03 0.20002661E+02</pdfrwt>
<totfact> 0.43940141E+06</totfact>
</mgrwt>
</event>
<event>
 5    1  0.1607476E-006  0.2000135E+02  0.7818608E-02  0.1745301E+00
          2   -1    0    0  501    0  0.00000000000E+00  0.00000000000E+00  0.26034618471E+02  0.26034618601E+02  0.26000000000E-02 0. -1.
         -2   -1    0    0    0  501 -0.00000000000E+00 -0.00000000000E+00 -0.38415576906E+01  0.38415585705E+01  0.26000000000E-02 0.  1.
       1023    2    1    2    0    0  0.00000000000E+00  0.00000000000E+00  0.22193060781E+02  0.29876177172E+02  0.20001350344E+02 0.  0.
        -13    1    3    3    0    0  0.87401211892E+01 -0.48591250145E+01  0.11038350617E+02  0.14894870632E+02  0.10570000000E+00 0. -1.
         13    1    3    3    0    0 -0.87401211892E+01  0.48591250145E+01  0.11154710163E+02  0.14981306539E+02  0.10570000000E+00 0.  1.
<mgrwt>
<rscale>  0 0.20001350E+02</rscale>
<asrwt>0</asrwt>
<pdfrwt beam="1">  1        2 0.40053261E-02 0.20001350E+02</pdfrwt>
<pdfrwt beam="2">  1       -2 0.59100894E-03 0.20001350E+02</pdfrwt>
<totfact> 0.42723390E+06</totfact>
</mgrwt>
</event>
<event>
 5    1  0.1607476E-006  0.2000235E+02  0.7818608E-02  0.1745281E+00
          2   -1    0    0  501    0  0.00000000000E+00  0.00000000000E+00  0.19379499312E+02  0.19379499487E+02  0.26000000000E-02 0. -1.
         -2   -1    0    0    0  501 -0.00000000000E+00 -0.00000000000E+00 -0.51613054987E+01  0.51613061536E+01  0.26000000000E-02 0.  1.
       1023    2    1    2    0    0  0.00000000000E+00  0.00000000000E+00  0.14218193814E+02  0.24540805641E+02  0.20002352516E+02 0.  0.
        -13    1    3    3    0    0  0.77753742577E+01  0.62893488681E+01  0.71089341658E+01  0.12270308533E+02  0.10570000000E+00 0.  1.
         13    1    3    3    0    0 -0.77753742577E+01 -0.62893488681E+01  0.71092596479E+01  0.12270497107E+02  0.10570000000E+00 0. -1.
<mgrwt>
<rscale>  0 0.20002353E+02</rscale>
<asrwt>0</asrwt>
<pdfrwt beam="1">  1        2 0.29814615E-02 0.20002353E+02</pdfrwt>
<pdfrwt beam="2">  1       -2 0.79404706E-03 0.20002353E+02</pdfrwt>
<totfact> 0.41551804E+06</totfact>
</mgrwt>
</event>
<event>
 4    1  0.1607476E-006  0.2005629E+02  0.7818608E-02  0.1744211E+00
         -2   -1    0    0    0  501 -0.00000000000E+00  0.00000000000E+00  0.20007225460E+01  0.20007242354E+01  0.26000000000E-02 0. -1.
          2   -1    0    0  501    0  0.00000000000E+00 -0.00000000000E+00 -0.50263649651E+02  0.50263649719E+02  0.26000000000E-02 0.  1.
        -13    1    1    2    0    0  0.52034009876E+01 -0.85501329304E+01 -0.22541370763E+02  0.24663834319E+02  0.10570000000E+00 0.  1.
         13    1    1    2    0    0 -0.52034009876E+01  0.85501329304E+01 -0.25721556342E+02  0.27600539635E+02  0.10570000000E+00 0. -1.
<mgrwt>
<rscale>  0 0.20056287E+02</rscale>
<asrwt>0</asrwt>
<pdfrwt beam="2">  1        2 0.77328683E-02 0.20056287E+02</pdfrwt>
<pdfrwt beam="1">  1       -2 0.30780364E-03 0.20056287E+02</pdfrwt>
<totfact> 0.46075575E+06</totfact>
</mgrwt>
</event>
<event>
 5    1  0.1607476E-006  0.2000304E+02  0.7818608E-02  0.1745268E+00
          2   -1    0    0  501    0  0.00000000000E+00  0.00000000000E+00  0.55800679944E+01  0.55800686001E+01  0.26000000000E-02 0. -1.
         -2   -1    0    0    0  501 -0.00000000000E+00 -0.00000000000E+00 -0.17926372626E+02  0.17926372814E+02  0.26000000000E-02 0.  1.
       1023    2    1    2    0    0  0.00000000000E+00  0.00000000000E+00 -0.12346304631E+02  0.23506441414E+02  0.20003038517E+02 0.  0.
        -13    1    3    3    0    0 -0.22741356956E+01  0.97381683324E+01 -0.63199246653E+01  0.11830310051E+02  0.10570000000E+00 0.  1.
         13    1    3    3    0    0  0.22741356956E+01 -0.97381683324E+01 -0.60263799659E+01  0.11676131363E+02  0.10570000000E+00 0. -1.
<mgrwt>
<rscale>  0 0.20003039E+02</rscale>
<asrwt>0</asrwt>
<pdfrwt beam="1">  1        2 0.85847207E-03 0.20003039E+02</pdfrwt>
<pdfrwt beam="2">  1       -2 0.27579035E-02 0.20003039E+02</pdfrwt>
<totfact> 0.37757466E+06</totfact>
</mgrwt>
</event>
<event>
 5    1  0.1607476E-006  0.2000588E+02  0.7818608E-02  0.1745211E+00
         -2   -1    0    0    0  501 -0.00000000000E+00  0.00000000000E+00  0.17111536638E+02  0.17111536835E+02  0.26000000000E-02 0. -1.
          2   -1    0    0  501    0  0.00000000000E+00 -0.00000000000E+00 -0.58474495462E+01  0.58474501242E+01  0.26000000000E-02 0.  1.
       1023    2    1    2    0    0  0.00000000000E+00  0.00000000000E+00  0.11264087092E+02  0.22958986960E+02  0.20005884739E+02 0.  0.
        -13    1    3    3    0    0  0.44605472674E+01  0.89525943689E+01  0.55775386084E+01  0.11452752389E+02  0.10570000000E+00 0. -1.
         13    1    3    3    0    0 -0.44605472674E+01 -0.89525943689E+01  0.56865484833E+01  0.11506234571E+02  0.10570000000E+00 0.  1.
<mgrwt>
<rscale>  0 0.20005885E+02</rscale>
<asrwt>0</asrwt>
<pdfrwt beam="2">  1        2 0.89960771E-03 0.20005885E+02</pdfrwt>
<pdfrwt beam="1">  1       -2 0.26325441E-02 0.20005885E+02</pdfrwt>
<totfact> 0.37885488E+06</totfact>
</mgrwt>
</event>
<event>
 5    1  0.1607476E-006  0.2000529E+02  0.7818608E-02  0.1745223E+00
          2   -1    0    0  501    0  0.00000000000E+00  0.00000000000E+00  0.83762920355E+00  0.83763323874E+00  0.26000000000E-02 0.  1.
         -2   -1    0    0    0  501 -0.00000000000E+00 -0.00000000000E+00 -0.11944747354E+03  0.11944747357E+03  0.26000000000E-02 0. -1.
       1023    2    1    2    0    0  0.00000000000E+00  0.00000000000E+00 -0.11860984434E+03  0.12028510681E+03  0.20005292952E+02 0.  0.
        -13    1    3    3    0    0 -0.93029007122E+01  0.36738703155E+01 -0.59173291003E+02  0.60012755523E+02  0.10570000000E+00 0. -1.
         13    1    3    3    0    0  0.93029007122E+01 -0.36738703155E+01 -0.59436553337E+02  0.60272351288E+02  0.10570000000E+00 0.  1.
<mgrwt>
<rscale>  0 0.20005293E+02</rscale>
<asrwt>0</asrwt>
<pdfrwt beam="1">  1        2 0.12886644E-03 0.20005293E+02</pdfrwt>
<pdfrwt beam="2">  1       -2 0.18376521E-01 0.20005293E+02</pdfrwt>
<totfact> 0.28361517E+06</totfact>
</mgrwt>
</event>
<event>
 5    1  0.1616610E-006  0.2000234E+02  0.7818608E-02  0.1745282E+00
         -2   -1    0    0    0  501 -0.00000000000E+00  0.00000000000E+00  0.11157905152E+01  0.11157935444E+01  0.26000000000E-02 0. -1.
          2   -1    0    0  501    0  0.00000000000E+00 -0.00000000000E+00 -0.89643374054E+02  0.89643374092E+02  0.26000000000E-02 0.  1.
       1023    2    1    2    0    0  0.00000000000E+00  0.00000000000E+00 -0.88527583539E+02  0.90759167636E+02  0.20002336433E+02 0.  0.
        -13    1    3    3    0    0 -0.11865264256E+01 -0.99296555961E+01 -0.44623595440E+02  0.45730540646E+02  0.10570000000E+00 0.  1.
         13    1    3    3    0    0  0.11865264256E+01  0.99296555961E+01 -0.43903988098E+02  0.45028626991E+02  0.10570000000E+00 0. -1.
<mgrwt>
<rscale>  0 0.20002336E+02</rscale>
<asrwt>0</asrwt>
<pdfrwt beam="2">  1        2 0.13791283E-01 0.20002336E+02</pdfrwt>
<pdfrwt beam="1">  1       -2 0.17166039E-03 0.20002336E+02</pdfrwt>
<totfact> 0.51487562E+06</totfact>
</mgrwt>
</event>
<event>
 5    1  0.1607476E-006  0.2000196E+02  0.7818608E-02  0.1745289E+00
          2   -1    0    0  501    0  0.00000000000E+00  0.00000000000E+00  0.40328204857E+02  0.40328204941E+02  0.26000000000E-02 0. -1.
         -2   -1    0    0    0  501 -0.00000000000E+00 -0.00000000000E+00 -0.24801405945E+01  0.24801419573E+01  0.26000000000E-02 0.  1.
       1023    2    1    2    0    0  0.00000000000E+00  0.00000000000E+00  0.37848064262E+02  0.42808346898E+02  0.20001964797E+02 0.  0.
        -13    1    3    3    0    0 -0.27316253923E+00  0.99965604195E+01  0.19033965653E+02  0.21501368769E+02  0.10570000000E+00 0.  1.
         13    1    3    3    0    0  0.27316253923E+00 -0.99965604195E+01  0.18814098610E+02  0.21306978129E+02  0.10570000000E+00 0. -1.
<mgrwt>
<rscale>  0 0.20001965E+02</rscale>
<asrwt>0</asrwt>
<pdfrwt beam="1">  1        2 0.62043392E-02 0.20001965E+02</pdfrwt>
<pdfrwt beam="2">  1       -2 0.38156021E-03 0.20001965E+02</pdfrwt>
<totfact> 0.44934674E+06</totfact>
</mgrwt>
</event>
<event>
 5    1  0.1607476E-006  0.2000241E+02  0.7818608E-02  0.1745280E+00
         -2   -1    0    0    0  501 -0.00000000000E+00  0.00000000000E+00  0.74612268576E+01  0.74612273106E+01  0.26000000000E-02 0. -1.
          2   -1    0    0  501    0  0.00000000000E+00 -0.00000000000E+00 -0.13405846326E+02  0.13405846578E+02  0.26000000000E-02 0.  1.
       1023    2    1    2    0    0  0.00000000000E+00  0.00000000000E+00 -0.59446194682E+01  0.20867073889E+02  0.20002406656E+02 0.  0.
        -13    1    3    3    0    0 -0.34828410915E+01 -0.93744437245E+01 -0.29199576649E+01  0.10418622868E+02  0.10570000000E+00 0. -1.
         13    1    3    3    0    0  0.34828410915E+01  0.93744437245E+01 -0.30246618033E+01  0.10448451020E+02  0.10570000000E+00 0.  1.
<mgrwt>
<rscale>  0 0.20002407E+02</rscale>
<asrwt>0</asrwt>
<pdfrwt beam="2">  1        2 0.20624379E-02 0.20002407E+02</pdfrwt>
<pdfrwt beam="1">  1       -2 0.11478811E-02 0.20002407E+02</pdfrwt>
<totfact> 0.40324560E+06</totfact>
</mgrwt>
</event>
<event>
 5    1  0.1607476E-006  0.2000390E+02  0.7818608E-02  0.1745251E+00
         -2   -1    0    0    0  501 -0.00000000000E+00  0.00000000000E+00  0.11484749400E+03  0.11484749403E+03  0.26000000000E-02 0. -1.
          2   -1    0    0  501    0  0.00000000000E+00 -0.00000000000E+00 -0.87105724197E+00  0.87106112230E+00  0.26000000000E-02 0.  1.
       1023    2    1    2    0    0  0.00000000000E+00  0.00000000000E+00  0.11397643676E+03  0.11571855515E+03  0.20003896379E+02 0.  0.
        -13    1    3    3    0    0  0.89687444718E+00 -0.99600295714E+01  0.56145496612E+02  0.57029242807E+02  0.10570000000E+00 0. -1.
         13    1    3    3    0    0 -0.89687444718E+00  0.99600295714E+01  0.57830940145E+02  0.58689312344E+02  0.10570000000E+00 0.  1.
<mgrwt>
<rscale>  0 0.20003896E+02</rscale>
<asrwt>0</asrwt>
<pdfrwt beam="2">  1        2 0.13400911E-03 0.20003896E+02</pdfrwt>
<pdfrwt beam="1">  1       -2 0.17668845E-01 0.20003896E+02</pdfrwt>
<totfact> 0.28675181E+06</totfact>
</mgrwt>
</event>
<event>
 5    1  0.1607476E-006  0.2000476E+02  0.7818608E-02  0.1745233E+00
          2   -1    0    0  501    0  0.00000000000E+00  0.00000000000E+00  0.19180414704E+02  0.19180414880E+02  0.26000000000E-02 0. -1.
         -2   -1    0    0    0  501 -0.00000000000E+00 -0.00000000000E+00 -0.52161346522E+01  0.52161353002E+01  0.26000000000E-02 0.  1.
       1023    2    1    2    0    0  0.00000000000E+00  0.00000000000E+00  0.13964280052E+02  0.24396550180E+02  0.20004763016E+02 0.  0.
        -13    1    3    3    0    0 -0.62329315827E+01 -0.78211119739E+01  0.68220378877E+01  0.12106634630E+02  0.10570000000E+00 0.  1.
         13    1    3    3    0    0  0.62329315827E+01  0.78211119739E+01  0.71422421641E+01  0.12289915551E+02  0.10570000000E+00 0. -1.
<mgrwt>
<rscale>  0 0.20004763E+02</rscale>
<asrwt>0</asrwt>
<pdfrwt beam="1">  1        2 0.29508330E-02 0.20004763E+02</pdfrwt>
<pdfrwt beam="2">  1       -2 0.80248234E-03 0.20004763E+02</pdfrwt>
<totfact> 0.41503223E+06</totfact>
</mgrwt>
</event>
<event>
 5    1  0.1607476E-006  0.2000139E+02  0.7818608E-02  0.1745301E+00
          2   -1    0    0  501    0  0.00000000000E+00  0.00000000000E+00  0.36512655119E+01  0.36512664377E+01  0.26000000000E-02 0. -1.
         -2   -1    0    0    0  501 -0.00000000000E+00 -0.00000000000E+00 -0.27391555301E+02  0.27391555425E+02  0.26000000000E-02 0.  1.
       1023    2    1    2    0    0  0.00000000000E+00  0.00000000000E+00 -0.23740289789E+02  0.31042821862E+02  0.20001385699E+02 0.  0.
        -13    1    3    3    0    0  0.55473993187E+01  0.83203928847E+01 -0.11854013664E+02  0.15509074421E+02  0.10570000000E+00 0.  1.
         13    1    3    3    0    0 -0.55473993187E+01 -0.83203928847E+01 -0.11886276125E+02  0.15533747441E+02  0.10570000000E+00 0. -1.
<mgrwt>
<rscale>  0 0.20001386E+02</rscale>
<asrwt>0</asrwt>
<pdfrwt beam="1">  1        2 0.56173325E-03 0.20001386E+02</pdfrwt>
<pdfrwt beam="2">  1       -2 0.42140854E-02 0.20001386E+02</pdfrwt>
<totfact> 0.36387362E+06</totfact>
</mgrwt>
</event>
<event>
 4    1  0.1607476E-006  0.2022965E+02  0.7818608E-02  0.1740799E+00
         -2   -1    0    0    0  501 -0.00000000000E+00  0.00000000000E+00  0.64053018758E+01  0.64053024035E+01  0.26000000000E-02 0.  1.
          2   -1    0    0  501    0  0.00000000000E+00 -0.00000000000E+00 -0.15972650695E+02  0.15972650906E+02  0.26000000000E-02 0. -1.
        -13    1    1    2    0    0  0.25690990040E+00  0.10090063988E+02 -0.55032046926E+01  0.11496600731E+02  0.10570000000E+00 0. -1.
         13    1    1    2    0    0 -0.25690990040E+00 -0.10090063988E+02 -0.40641441264E+01  0.10881352579E+02  0.10570000000E+00 0.  1.
<mgrwt>
<rscale>  0 0.20229647E+02</rscale>
<asrwt>0</asrwt>
<pdfrwt beam="2">  1        2 0.24573309E-02 0.20229647E+02</pdfrwt>
<pdfrwt beam="1">  1       -2 0.98543112E-03 0.20229647E+02</pdfrwt>
<totfact> 0.39850737E+06</totfact>
</mgrwt>
</event>
<event>
 5    1  0.1607476E-006  0.2000220E+02  0.7818608E-02  0.1745284E+00
         -2   -1    0    0    0  501 -0.00000000000E+00  0.00000000000E+00  0.62485940596E+02  0.62485940650E+02  0.26000000000E-02 0. -1.
          2   -1    0    0  501    0  0.00000000000E+00 -0.00000000000E+00 -0.16007106333E+01  0.16007127449E+01  0.26000000000E-02 0.  1.
       1023    2    1    2    0    0  0.00000000000E+00  0.00000000000E+00  0.60885229962E+02  0.64086653395E+02  0.20002197773E+02 0.  0.
        -13    1    3    3    0    0  0.93600054062E+01 -0.35206142812E+01  0.30698539183E+02  0.32286466307E+02  0.10570000000E+00 0. -1.
         13    1    3    3    0    0 -0.93600054062E+01  0.35206142812E+01  0.30186690779E+02  0.31800187088E+02  0.10570000000E+00 0.  1.
<mgrwt>
<rscale>  0 0.20002198E+02</rscale>
<asrwt>0</asrwt>
<pdfrwt beam="2">  1        2 0.24626337E-03 0.20002198E+02</pdfrwt>
<pdfrwt beam="1">  1       -2 0.96132208E-02 0.20002198E+02</pdfrwt>
<totfact> 0.32728774E+06</totfact>
</mgrwt>
</event>
<event>
 5    1  0.1607476E-006  0.2000333E+02  0.7818608E-02  0.1745262E+00
          2   -1    0    0  501    0  0.00000000000E+00  0.00000000000E+00  0.65768123795E+02  0.65768123847E+02  0.26000000000E-02 0. -1.
         -2   -1    0    0    0  501 -0.00000000000E+00 -0.00000000000E+00 -0.15209987590E+01  0.15210009812E+01  0.26000000000E-02 0.  1.
       1023    2    1    2    0    0  0.00000000000E+00  0.00000000000E+00  0.64247125036E+02  0.67289124828E+02  0.20003330840E+02 0.  0.
        -13    1    3    3    0    0 -0.81600876147E+01  0.57821904502E+01  0.31998490894E+02  0.33525145015E+02  0.10570000000E+00 0. -1.
         13    1    3    3    0    0  0.81600876147E+01 -0.57821904502E+01  0.32248634143E+02  0.33763979813E+02  0.10570000000E+00 0.  1.
<mgrwt>
<rscale>  0 0.20003331E+02</rscale>
<asrwt>0</asrwt>
<pdfrwt beam="1">  1        2 0.10118174E-01 0.20003331E+02</pdfrwt>
<pdfrwt beam="2">  1       -2 0.23399996E-03 0.20003331E+02</pdfrwt>
<totfact> 0.48447846E+06</totfact>
</mgrwt>
</event>
<event>
 4    1  0.1607476E-006  0.2013585E+02  0.7818608E-02  0.1742640E+00
          2   -1    0    0  501    0  0.00000000000E+00  0.00000000000E+00  0.77894953609E+01  0.77894957948E+01  0.26000000000E-02 0. -1.
         -2   -1    0    0    0  501 -0.00000000000E+00 -0.00000000000E+00 -0.13012794518E+02  0.13012794778E+02  0.26000000000E-02 0.  1.
        -13    1    1    2    0    0  0.91903991352E+01  0.40854506922E+01 -0.21524223052E+01  0.10285836762E+02  0.10570000000E+00 0.  1.
         13    1    1    2    0    0 -0.91903991352E+01 -0.40854506922E+01 -0.30708768518E+01  0.10516453811E+02  0.10570000000E+00 0. -1.
<mgrwt>
<rscale>  0 0.20135850E+02</rscale>
<asrwt>0</asrwt>
<pdfrwt beam="1">  1        2 0.11983840E-02 0.20135850E+02</pdfrwt>
<pdfrwt beam="2">  1       -2 0.20019684E-02 0.20135850E+02</pdfrwt>
<totfact> 0.38147823E+06</totfact>
</mgrwt>
</event>
<event>
 5    1  0.1607476E-006  0.2000174E+02  0.7818608E-02  0.1745294E+00
         -2   -1    0    0    0  501 -0.00000000000E+00  0.00000000000E+00  0.28109374079E+02  0.28109374199E+02  0.26000000000E-02 0.  1.
          2   -1    0    0  501    0  0.00000000000E+00 -0.00000000000E+00 -0.35581488192E+01  0.35581497691E+01  0.26000000000E-02 0. -1.
       1023    2    1    2    0    0  0.00000000000E+00  0.00000000000E+00  0.24551225260E+02  0.31667523968E+02  0.20001735238E+02 0.  0.
        -13    1    3    3    0    0  0.91311695729E+01  0.40775784276E+01  0.12332190781E+02  0.15877625942E+02  0.10570000000E+00 0.  1.
         13    1    3    3    0    0 -0.91311695729E+01 -0.40775784276E+01  0.12219034479E+02  0.15789898026E+02  0.10570000000E+00 0. -1.
<mgrwt>
<rscale>  0 0.20001735E+02</rscale>
<asrwt>0</asrwt>
<pdfrwt beam="2">  1        2 0.54740760E-03 0.20001735E+02</pdfrwt>
<pdfrwt beam="1">  1       -2 0.43245191E-02 0.20001735E+02</pdfrwt>
<totfact> 0.36294007E+06</totfact>
</mgrwt>
</event>
<event>
 5    1  0.1607476E-006  0.2000680E+02  0.7818608E-02  0.1745193E+00
         -2   -1    0    0    0  501 -0.00000000000E+00  0.00000000000E+00  0.28287915626E+02  0.28287915745E+02  0.26000000000E-02 0. -1.
          2   -1    0    0  501    0  0.00000000000E+00 -0.00000000000E+00 -0.35374833433E+01  0.35374842988E+01  0.26000000000E-02 0.  1.
       1023    2    1    2    0    0  0.00000000000E+00  0.00000000000E+00  0.24750432282E+02  0.31825400044E+02  0.20006803588E+02 0.  0.
        -13    1    3    3    0    0 -0.62418132454E+01  0.78130105846E+01  0.12007252077E+02  0.15626536466E+02  0.10570000000E+00 0.  1.
         13    1    3    3    0    0  0.62418132454E+01 -0.78130105846E+01  0.12743180206E+02  0.16198863578E+02  0.10570000000E+00 0. -1.
<mgrwt>
<rscale>  0 0.20006804E+02</rscale>
<asrwt>0</asrwt>
<pdfrwt beam="2">  1        2 0.54422829E-03 0.20006804E+02</pdfrwt>
<pdfrwt beam="1">  1       -2 0.43519871E-02 0.20006804E+02</pdfrwt>
<totfact> 0.36251307E+06</totfact>
</mgrwt>
</event>
<event>
 5    1  0.1633498E-006  0.2000179E+02  0.7818608E-02  0.1745292E+00
         -2   -1    0    0    0  501 -0.00000000000E+00  0.00000000000E+00  0.99907654413E+00  0.99907992724E+00  0.26000000000E-02 0. -1.
          2   -1    0    0  501    0  0.00000000000E+00 -0.00000000000E+00 -0.10011018874E+03  0.10011018877E+03  0.26000000000E-02 0.  1.
       1023    2    1    2    0    0  0.00000000000E+00  0.00000000000E+00 -0.99111112191E+02  0.10110926870E+03  0.20001791333E+02 0.  0.
        -13    1    3    3    0    0  0.43413806175E+01  0.90086970032E+01 -0.49301078566E+02  0.50305185892E+02  0.10570000000E+00 0.  1.
         13    1    3    3    0    0 -0.43413806175E+01 -0.90086970032E+01 -0.49810033625E+02  0.50804082805E+02  0.10570000000E+00 0. -1.
<mgrwt>
<rscale>  0 0.20001791E+02</rscale>
<asrwt>0</asrwt>
<pdfrwt beam="2">  1        2 0.15401560E-01 0.20001791E+02</pdfrwt>
<pdfrwt beam="1">  1       -2 0.15370443E-03 0.20001791E+02</pdfrwt>
<totfact> 0.52760715E+06</totfact>
</mgrwt>
</event>
<event>
 4    1  0.1607476E-006  0.2001296E+02  0.7818608E-02  0.1745070E+00
          2   -1    0    0  501    0  0.00000000000E+00  0.00000000000E+00  0.82009315558E+01  0.82009319679E+01  0.26000000000E-02 0.  1.
         -2   -1    0    0    0  501 -0.00000000000E+00 -0.00000000000E+00 -0.12209546719E+02  0.12209546996E+02  0.26000000000E-02 0. -1.
        -13    1    1    2    0    0  0.76847095104E+01  0.64067484098E+01 -0.18701420327E+01  0.10178889387E+02  0.10570000000E+00 0.  1.
         13    1    1    2    0    0 -0.76847095104E+01 -0.64067484098E+01 -0.21384731308E+01  0.10231589577E+02  0.10570000000E+00 0. -1.
<mgrwt>
<rscale>  0 0.20012962E+02</rscale>
<asrwt>0</asrwt>
<pdfrwt beam="1">  1        2 0.12616818E-02 0.20012962E+02</pdfrwt>
<pdfrwt beam="2">  1       -2 0.18783919E-02 0.20012962E+02</pdfrwt>
<totfact> 0.38836212E+06</totfact>
</mgrwt>
</event>
<event>
 4    1  0.1607476E-006  0.2011940E+02  0.7818608E-02  0.1742964E+00
          2   -1    0    0  501    0  0.00000000000E+00  0.00000000000E+00  0.32251927564E+01  0.32251938044E+01  0.26000000000E-02 0. -1.
         -2   -1    0    0    0  501 -0.00000000000E+00 -0.00000000000E+00 -0.31377220057E+02  0.31377220165E+02  0.26000000000E-02 0.  1.
        -13    1    1    2    0    0 -0.87826835221E+01 -0.48828067979E+01 -0.13289571989E+02  0.16661369338E+02  0.10570000000E+00 0. -1.
         13    1    1    2    0    0  0.87826835221E+01  0.48828067979E+01 -0.14862455312E+02  0.17941044631E+02  0.10570000000E+00 0.  1.
<mgrwt>
<rscale>  0 0.20119404E+02</rscale>
<asrwt>0</asrwt>
<pdfrwt beam="1">  1        2 0.49618361E-03 0.20119404E+02</pdfrwt>
<pdfrwt beam="2">  1       -2 0.48272645E-02 0.20119404E+02</pdfrwt>
<totfact> 0.35433759E+06</totfact>
</mgrwt>
</event>
<event>
 5    1  0.1607476E-006  0.2001033E+02  0.7818608E-02  0.1745123E+00
          2   -1    0    0  501    0  0.00000000000E+00  0.00000000000E+00  0.65430864168E+01  0.65430869334E+01  0.26000000000E-02 0.  1.
         -2   -1    0    0    0  501 -0.00000000000E+00 -0.00000000000E+00 -0.15299097916E+02  0.15299098137E+02  0.26000000000E-02 0. -1.
       1023    2    1    2    0    0  0.00000000000E+00  0.00000000000E+00 -0.87560114996E+01  0.21842185071E+02  0.20010330114E+02 0.  0.
        -13    1    3    3    0    0  0.99089646582E+01  0.13779573770E+01 -0.44611941156E+01  0.10954440769E+02  0.10570000000E+00 0. -1.
         13    1    3    3    0    0 -0.99089646582E+01 -0.13779573770E+01 -0.42948173840E+01  0.10887744302E+02  0.10570000000E+00 0.  1.
<mgrwt>
<rscale>  0 0.20010330E+02</rscale>
<asrwt>0</asrwt>
<pdfrwt beam="1">  1        2 0.10066287E-02 0.20010330E+02</pdfrwt>
<pdfrwt beam="2">  1       -2 0.23537074E-02 0.20010330E+02</pdfrwt>
<totfact> 0.38197445E+06</totfact>
</mgrwt>
</event>
<event>
 5    1  0.1607476E-006  0.2000569E+02  0.7818608E-02  0.1745215E+00
          2   -1    0    0  501    0  0.00000000000E+00  0.00000000000E+00  0.21139001081E+02  0.21139001241E+02  0.26000000000E-02 0.  1.
         -2   -1    0    0    0  501 -0.00000000000E+00 -0.00000000000E+00 -0.47332846926E+01  0.47332854067E+01  0.26000000000E-02 0. -1.
       1023    2    1    2    0    0  0.00000000000E+00  0.00000000000E+00  0.16405716389E+02  0.25872286648E+02  0.20005691344E+02 0.  0.
        -13    1    3    3    0    0  0.24276184598E+01  0.97019480755E+01  0.79999330286E+01  0.12807467697E+02  0.10570000000E+00 0.  1.
         13    1    3    3    0    0 -0.24276184598E+01 -0.97019480755E+01  0.84057833601E+01  0.13064818951E+02  0.10570000000E+00 0. -1.
<mgrwt>
<rscale>  0 0.20005691E+02</rscale>
<asrwt>0</asrwt>
<pdfrwt beam="1">  1        2 0.32521540E-02 0.20005691E+02</pdfrwt>
<pdfrwt beam="2">  1       -2 0.72819772E-03 0.20005691E+02</pdfrwt>
<totfact> 0.41858491E+06</totfact>
</mgrwt>
</event>
<event>
 5    1  0.1607476E-006  0.2000176E+02  0.7818608E-02  0.1745293E+00
         -2   -1    0    0    0  501 -0.00000000000E+00  0.00000000000E+00  0.70078314885E+01  0.70078319708E+01  0.26000000000E-02 0. -1.
          2   -1    0    0  501    0  0.00000000000E+00 -0.00000000000E+00 -0.14272263258E+02  0.14272263495E+02  0.26000000000E-02 0.  1.
       1023    2    1    2    0    0  0.00000000000E+00  0.00000000000E+00 -0.72644317694E+01  0.21280095466E+02  0.20001762275E+02 0.  0.
        -13    1    3    3    0    0  0.19959136628E+01 -0.97991125185E+01 -0.36462310356E+01  0.10644832115E+02  0.10570000000E+00 0.  1.
         13    1    3    3    0    0 -0.19959136628E+01  0.97991125185E+01 -0.36182007338E+01  0.10635263351E+02  0.10570000000E+00 0. -1.
<mgrwt>
<rscale>  0 0.20001762E+02</rscale>
<asrwt>0</asrwt>
<pdfrwt beam="2">  1        2 0.21957329E-02 0.20001762E+02</pdfrwt>
<pdfrwt beam="1">  1       -2 0.10781280E-02 0.20001762E+02</pdfrwt>
<totfact> 0.40522995E+06</totfact>
</mgrwt>
</event>
<event>
 5    1  0.1607476E-006  0.2001177E+02  0.7818608E-02  0.1745094E+00
          2   -1    0    0  501    0  0.00000000000E+00  0.00000000000E+00  0.94728687147E+02  0.94728687183E+02  0.26000000000E-02 0. -1.
         -2   -1    0    0    0  501 -0.00000000000E+00 -0.00000000000E+00 -0.10568878359E+01  0.10568910339E+01  0.26000000000E-02 0.  1.
       1023    2    1    2    0    0  0.00000000000E+00  0.00000000000E+00  0.93671799311E+02  0.95785578217E+02  0.20011771738E+02 0.  0.
        -13    1    3    3    0    0  0.95368842022E+01 -0.30185022657E+01  0.45842627271E+02  0.46921436080E+02  0.10570000000E+00 0.  1.
         13    1    3    3    0    0 -0.95368842022E+01  0.30185022657E+01  0.47829172040E+02  0.48864142137E+02  0.10570000000E+00 0. -1.
<mgrwt>
<rscale>  0 0.20011772E+02</rscale>
<asrwt>0</asrwt>
<pdfrwt beam="1">  1        2 0.14573654E-01 0.20011772E+02</pdfrwt>
<pdfrwt beam="2">  1       -2 0.16259827E-03 0.20011772E+02</pdfrwt>
<totfact> 0.52054711E+06</totfact>
</mgrwt>
</event>
<event>
 5    1  0.1607476E-006  0.2000156E+02  0.7818608E-02  0.1745297E+00
          2   -1    0    0  501    0  0.00000000000E+00  0.00000000000E+00  0.32530211930E+02  0.32530212034E+02  0.26000000000E-02 0. -1.
         -2   -1    0    0    0  501 -0.00000000000E+00 -0.00000000000E+00 -0.30745437427E+01  0.30745448421E+01  0.26000000000E-02 0.  1.
       1023    2    1    2    0    0  0.00000000000E+00  0.00000000000E+00  0.29455668187E+02  0.35604756876E+02  0.20001558035E+02 0.  0.
        -13    1    3    3    0    0  0.66725081388E+01  0.74485238541E+01  0.14797599476E+02  0.17860095051E+02  0.10570000000E+00 0.  1.
         13    1    3    3    0    0 -0.66725081388E+01 -0.74485238541E+01  0.14658068711E+02  0.17744661825E+02  0.10570000000E+00 0. -1.
<mgrwt>
<rscale>  0 0.20001558E+02</rscale>
<asrwt>0</asrwt>
<pdfrwt beam="1">  1        2 0.50046484E-02 0.20001558E+02</pdfrwt>
<pdfrwt beam="2">  1       -2 0.47300680E-03 0.20001558E+02</pdfrwt>
<totfact> 0.43762341E+06</totfact>
</mgrwt>
</event>
<event>
 5    1  0.1607476E-006  0.2000772E+02  0.7818608E-02  0.1745175E+00
         -2   -1    0    0    0  501 -0.00000000000E+00  0.00000000000E+00  0.30559677188E+01  0.30559688248E+01  0.26000000000E-02 0.  1.
          2   -1    0    0  501    0  0.00000000000E+00 -0.00000000000E+00 -0.32748123375E+02  0.32748123479E+02  0.26000000000E-02 0. -1.
       1023    2    1    2    0    0  0.00000000000E+00  0.00000000000E+00 -0.29692155657E+02  0.35804092303E+02  0.20007721463E+02 0.  0.
        -13    1    3    3    0    0  0.99984690147E+01  0.25841706889E+00 -0.15155487932E+02  0.18158638412E+02  0.10570000000E+00 0.  1.
         13    1    3    3    0    0 -0.99984690147E+01 -0.25841706889E+00 -0.14536667724E+02  0.17645453892E+02  0.10570000000E+00 0. -1.
<mgrwt>
<rscale>  0 0.20007721E+02</rscale>
<asrwt>0</asrwt>
<pdfrwt beam="2">  1        2 0.50381727E-02 0.20007721E+02</pdfrwt>
<pdfrwt beam="1">  1       -2 0.47014900E-03 0.20007721E+02</pdfrwt>
<totfact> 0.43765884E+06</totfact>
</mgrwt>
</event>
<event>
 5    1  0.1607476E-006  0.2000649E+02  0.7818608E-02  0.1745199E+00
          2   -1    0    0  501    0  0.00000000000E+00  0.00000000000E+00  0.78087363770E+01  0.78087368099E+01  0.26000000000E-02 0.  1.
         -2   -1    0    0    0  501 -0.00000000000E+00 -0.00000000000E+00 -0.12814481128E+02  0.12814481392E+02  0.26000000000E-02 0. -1.
       1023    2    1    2    0    0  0.00000000000E+00  0.00000000000E+00 -0.50057447512E+01  0.20623218202E+02  0.20006490159E+02 0.  0.
        -13    1    3    3    0    0  0.93883921803E+01  0.34502258055E+01 -0.24119853271E+01  0.10289548656E+02  0.10570000000E+00 0. -1.
         13    1    3    3    0    0 -0.93883921803E+01 -0.34502258055E+01 -0.25937594242E+01  0.10333669546E+02  0.10570000000E+00 0.  1.
<mgrwt>
<rscale>  0 0.20006490E+02</rscale>
<asrwt>0</asrwt>
<pdfrwt beam="1">  1        2 0.12013441E-02 0.20006490E+02</pdfrwt>
<pdfrwt beam="2">  1       -2 0.19714587E-02 0.20006490E+02</pdfrwt>
<totfact> 0.38724882E+06</totfact>
</mgrwt>
</event>
<event>
 5    1  0.1607476E-006  0.2000199E+02  0.7818608E-02  0.1745288E+00
          2   -1    0    0  501    0  0.00000000000E+00  0.00000000000E+00  0.26354270724E+01  0.26354283549E+01  0.26000000000E-02 0.  1.
         -2   -1    0    0    0  501 -0.00000000000E+00 -0.00000000000E+00 -0.37952069979E+02  0.37952070068E+02  0.26000000000E-02 0. -1.
       1023    2    1    2    0    0  0.00000000000E+00  0.00000000000E+00 -0.35316642906E+02  0.40587498423E+02  0.20001993951E+02 0.  0.
        -13    1    3    3    0    0  0.76980476286E+01  0.63832966165E+01 -0.17559848394E+02  0.20208064259E+02  0.10570000000E+00 0.  1.
         13    1    3    3    0    0 -0.76980476286E+01 -0.63832966165E+01 -0.17756794512E+02  0.20379434164E+02  0.10570000000E+00 0. -1.
<mgrwt>
<rscale>  0 0.20001994E+02</rscale>
<asrwt>0</asrwt>
<pdfrwt beam="1">  1        2 0.40545045E-03 0.20001994E+02</pdfrwt>
<pdfrwt beam="2">  1       -2 0.58387797E-02 0.20001994E+02</pdfrwt>
<totfact> 0.35135097E+06</totfact>
</mgrwt>
</event>
<event>
 4    1  0.1607476E-006  0.2004304E+02  0.7818608E-02  0.1744473E+00
         -2   -1    0    0    0  501 -0.00000000000E+00  0.00000000000E+00  0.12017259763E+01  0.12017287890E+01  0.26000000000E-02 0. -1.
          2   -1    0    0  501    0  0.00000000000E+00 -0.00000000000E+00 -0.83572112996E+02  0.83572113037E+02  0.26000000000E-02 0.  1.
        -13    1    1    2    0    0 -0.95607758892E+01  0.29685725218E+01 -0.39299019077E+02  0.40554222114E+02  0.10570000000E+00 0. -1.
         13    1    1    2    0    0  0.95607758892E+01 -0.29685725218E+01 -0.43071367943E+02  0.44219619711E+02  0.10570000000E+00 0.  1.
<mgrwt>
<rscale>  0 0.20043044E+02</rscale>
<asrwt>0</asrwt>
<pdfrwt beam="2">  1        2 0.12857244E-01 0.20043044E+02</pdfrwt>
<pdfrwt beam="1">  1       -2 0.18488120E-03 0.20043044E+02</pdfrwt>
<totfact> 0.50506927E+06</totfact>
</mgrwt>
</event>
<event>
 4    1  0.1607476E-006  0.2006084E+02  0.7818608E-02  0.1744121E+00
          2   -1    0    0  501    0  0.00000000000E+00  0.00000000000E+00  0.24929015582E+02  0.24929015718E+02  0.26000000000E-02 0.  1.
         -2   -1    0    0    0  501 -0.00000000000E+00 -0.00000000000E+00 -0.40358319281E+01  0.40358327656E+01  0.26000000000E-02 0. -1.
        -13    1    1    2    0    0  0.73565025440E+01  0.67794888822E+01  0.11486323819E+02  0.15232413025E+02  0.10570000000E+00 0.  1.
         13    1    1    2    0    0 -0.73565025440E+01 -0.67794888822E+01  0.94068598348E+01  0.13732435459E+02  0.10570000000E+00 0. -1.
<mgrwt>
<rscale>  0 0.20060841E+02</rscale>
<asrwt>0</asrwt>
<pdfrwt beam="1">  1        2 0.38352333E-02 0.20060841E+02</pdfrwt>
<pdfrwt beam="2">  1       -2 0.62089729E-03 0.20060841E+02</pdfrwt>
<totfact> 0.42255232E+06</totfact>
</mgrwt>
</event>
<event>
 4    1  0.1607476E-006  0.2001962E+02  0.7818608E-02  0.1744938E+00
         -2   -1    0    0    0  501 -0.00000000000E+00  0.00000000000E+00  0.17349269713E+01  0.17349289195E+01  0.26000000000E-02 0.  1.
          2   -1    0    0  501    0  0.00000000000E+00 -0.00000000000E+00 -0.57752446718E+02  0.57752446777E+02  0.26000000000E-02 0. -1.
        -13    1    1    2    0    0 -0.91459324804E+01  0.40665652183E+01 -0.27974742799E+02  0.29711654965E+02  0.10570000000E+00 0.  1.
         13    1    1    2    0    0  0.91459324804E+01 -0.40665652183E+01 -0.28042776948E+02  0.29775720731E+02  0.10570000000E+00 0. -1.
<mgrwt>
<rscale>  0 0.20019624E+02</rscale>
<asrwt>0</asrwt>
<pdfrwt beam="2">  1        2 0.88849905E-02 0.20019624E+02</pdfrwt>
<pdfrwt beam="1">  1       -2 0.26691204E-03 0.20019624E+02</pdfrwt>
<totfact> 0.47290989E+06</totfact>
</mgrwt>
</event>
<event>
 5    1  0.1607476E-006  0.2001104E+02  0.7818608E-02  0.1745109E+00
          2   -1    0    0  501    0  0.00000000000E+00  0.00000000000E+00  0.96669973165E+01  0.96669976662E+01  0.26000000000E-02 0. -1.
         -2   -1    0    0    0  501 -0.00000000000E+00 -0.00000000000E+00 -0.10355899655E+02  0.10355899982E+02  0.26000000000E-02 0.  1.
       1023    2    1    2    0    0  0.00000000000E+00  0.00000000000E+00 -0.68890233865E+00  0.20022897648E+02  0.20011043046E+02 0.  0.
        -13    1    3    3    0    0 -0.55238419964E+01 -0.83416085383E+01 -0.28097031142E+00  0.10009264719E+02  0.10570000000E+00 0. -1.
         13    1    3    3    0    0  0.55238419964E+01  0.83416085383E+01 -0.40793202723E+00  0.10013632929E+02  0.10570000000E+00 0.  1.
<mgrwt>
<rscale>  0 0.20011043E+02</rscale>
<asrwt>0</asrwt>
<pdfrwt beam="1">  1        2 0.14872304E-02 0.20011043E+02</pdfrwt>
<pdfrwt beam="2">  1       -2 0.15932154E-02 0.20011043E+02</pdfrwt>
<totfact> 0.39315777E+06</totfact>
</mgrwt>
</event>
<event>
 5    1  0.1607476E-006  0.2000304E+02  0.7818608E-02  0.1745268E+00
         -2   -1    0    0    0  501 -0.00000000000E+00  0.00000000000E+00  0.73568639782E+01  0.73568644376E+01  0.26000000000E-02 0.  1.
          2   -1    0    0  501    0  0.00000000000E+00 -0.00000000000E+00 -0.13596884490E+02  0.13596884739E+02  0.26000000000E-02 0. -1.
       1023    2    1    2    0    0  0.00000000000E+00  0.00000000000E+00 -0.62400205118E+01  0.20953749176E+02  0.20003043482E+02 0.  0.
        -13    1    3    3    0    0  0.93615990949E+01 -0.35184761304E+01 -0.31124018686E+01  0.10474608813E+02  0.10570000000E+00 0.  1.
         13    1    3    3    0    0 -0.93615990949E+01  0.35184761304E+01 -0.31276186433E+01  0.10479140364E+02  0.10570000000E+00 0. -1.
<mgrwt>
<rscale>  0 0.20003043E+02</rscale>
<asrwt>0</asrwt>
<pdfrwt beam="2">  1        2 0.20918284E-02 0.20003043E+02</pdfrwt>
<pdfrwt beam="1">  1       -2 0.11318253E-02 0.20003043E+02</pdfrwt>
<totfact> 0.40365440E+06</totfact>
</mgrwt>
</event>
<event>
 4    1  0.1607476E-006  0.2002497E+02  0.7818608E-02  0.1744832E+00
         -2   -1    0    0    0  501 -0.00000000000E+00  0.00000000000E+00  0.19097686154E+02  0.19097686331E+02  0.26000000000E-02 0. -1.
          2   -1    0    0  501    0  0.00000000000E+00 -0.00000000000E+00 -0.52493172080E+01  0.52493178519E+01  0.26000000000E-02 0.  1.
        -13    1    1    2    0    0  0.93491658605E+01 -0.35576734173E+01  0.74323786301E+01  0.12462558607E+02  0.10570000000E+00 0. -1.
         13    1    1    2    0    0 -0.93491658605E+01  0.35576734173E+01  0.64159903159E+01  0.11884445576E+02  0.10570000000E+00 0.  1.
<mgrwt>
<rscale>  0 0.20024967E+02</rscale>
<asrwt>0</asrwt>
<pdfrwt beam="2">  1        2 0.80758733E-03 0.20024967E+02</pdfrwt>
<pdfrwt beam="1">  1       -2 0.29381056E-02 0.20024967E+02</pdfrwt>
<totfact> 0.37475485E+06</totfact>
</mgrwt>
</event>
<event>
 5    1  0.1607476E-006  0.2001223E+02  0.7818608E-02  0.1745085E+00
          2   -1    0    0  501    0  0.00000000000E+00  0.00000000000E+00  0.18629877122E+01  0.18629895265E+01  0.26000000000E-02 0. -1.
         -2   -1    0    0    0  501 -0.00000000000E+00 -0.00000000000E+00 -0.53742855444E+02  0.53742855507E+02  0.26000000000E-02 0.  1.
       1023    2    1    2    0    0  0.00000000000E+00  0.00000000000E+00 -0.51879867732E+02  0.55605845033E+02  0.20012229411E+02 0.  0.
        -13    1    3    3    0    0  0.68628933299E+01  0.72764424294E+01 -0.26649644048E+02  0.28465077194E+02  0.10570000000E+00 0.  1.
         13    1    3    3    0    0 -0.68628933299E+01 -0.72764424294E+01 -0.25230223683E+02  0.27140767839E+02  0.10570000000E+00 0. -1.
<mgrwt>
<rscale>  0 0.20012229E+02</rscale>
<asrwt>0</asrwt>
<pdfrwt beam="1">  1        2 0.28661368E-03 0.20012229E+02</pdfrwt>
<pdfrwt beam="2">  1       -2 0.82681306E-02 0.20012229E+02</pdfrwt>
<totfact> 0.33494285E+06</totfact>
</mgrwt>
</event>
<event>
 5    1  0.1607476E-006  0.2000154E+02  0.7818608E-02  0.1745297E+00
         -2   -1    0    0    0  501 -0.00000000000E+00  0.00000000000E+00  0.98440043177E+02  0.98440043211E+02  0.26000000000E-02 0. -1.
          2   -1    0    0  501    0  0.00000000000E+00 -0.00000000000E+00 -0.10160016580E+01  0.10160049848E+01  0.26000000000E-02 0.  1.
       1023    2    1    2    0    0  0.00000000000E+00  0.00000000000E+00  0.97424041519E+02  0.99456048196E+02  0.20001541363E+02 0.  0.
        -13    1    3    3    0    0 -0.53292042139E-01  0.99999040689E+01  0.48425499535E+02  0.49447356847E+02  0.10570000000E+00 0.  1.
         13    1    3    3    0    0  0.53292042139E-01 -0.99999040689E+01  0.48998541984E+02  0.50008691349E+02  0.10570000000E+00 0. -1.
<mgrwt>
<rscale>  0 0.20001541E+02</rscale>
<asrwt>0</asrwt>
<pdfrwt beam="2">  1        2 0.15630818E-03 0.20001541E+02</pdfrwt>
<pdfrwt beam="1">  1       -2 0.15144624E-01 0.20001541E+02</pdfrwt>
<totfact> 0.29839496E+06</totfact>
</mgrwt>
</event>
<event>
 4    1  0.1607476E-006  0.2003413E+02  0.7818608E-02  0.1744650E+00
         -2   -1    0    0    0  501 -0.00000000000E+00  0.00000000000E+00  0.51306623925E+02  0.51306623991E+02  0.26000000000E-02 0. -1.
          2   -1    0    0  501    0  0.00000000000E+00 -0.00000000000E+00 -0.19557226566E+01  0.19557243849E+01  0.26000000000E-02 0.  1.
        -13    1    1    2    0    0  0.49664243809E+01  0.86849317684E+01  0.25969694017E+02  0.27830371732E+02  0.10570000000E+00 0. -1.
         13    1    1    2    0    0 -0.49664243809E+01 -0.86849317684E+01  0.23381207252E+02  0.25431976644E+02  0.10570000000E+00 0.  1.
<mgrwt>
<rscale>  0 0.20034128E+02</rscale>
<asrwt>0</asrwt>
<pdfrwt beam="2">  1        2 0.30088052E-03 0.20034128E+02</pdfrwt>
<pdfrwt beam="1">  1       -2 0.78933275E-02 0.20034128E+02</pdfrwt>
<totfact> 0.33646303E+06</totfact>
</mgrwt>
</event>
<event>
 5    1  0.1607476E-006  0.2000229E+02  0.7818608E-02  0.1745283E+00
         -2   -1    0    0    0  501 -0.00000000000E+00  0.00000000000E+00  0.45895558480E+01  0.45895565845E+01  0.26000000000E-02 0.  1.
          2   -1    0    0  501    0  0.00000000000E+00 -0.00000000000E+00 -0.21793588040E+02  0.21793588195E+02  0.26000000000E-02 0. -1.
       1023    2    1    2    0    0  0.00000000000E+00  0.00000000000E+00 -0.17204032192E+02  0.26383144779E+02  0.20002289989E+02 0.  0.
        -13    1    3    3    0    0  0.80072289342E+01  0.59910723203E+01 -0.86750509109E+01  0.13239197240E+02  0.10570000000E+00 0. -1.
         13    1    3    3    0    0 -0.80072289342E+01 -0.59910723203E+01 -0.85289812809E+01  0.13143947540E+02  0.10570000000E+00 0.  1.
<mgrwt>
<rscale>  0 0.20002290E+02</rscale>
<asrwt>0</asrwt>
<pdfrwt beam="2">  1        2 0.33528597E-02 0.20002290E+02</pdfrwt>
<pdfrwt beam="1">  1       -2 0.70608560E-03 0.20002290E+02</pdfrwt>
<totfact> 0.41991504E+06</totfact>
</mgrwt>
</event>
<event>
 5    1  0.1607476E-006  0.2000422E+02  0.7818608E-02  0.1745244E+00
         -2   -1    0    0    0  501 -0.00000000000E+00  0.00000000000E+00  0.11681502898E+01  0.11681531832E+01  0.26000000000E-02 0. -1.
          2   -1    0    0  501    0  0.00000000000E+00 -0.00000000000E+00 -0.85641447368E+02  0.85641447407E+02  0.26000000000E-02 0.  1.
       1023    2    1    2    0    0  0.00000000000E+00  0.00000000000E+00 -0.84473297078E+02  0.86809600590E+02  0.20004220441E+02 0.  0.
        -13    1    3    3    0    0  0.75247751560E+01 -0.65880866343E+01 -0.42570251348E+02  0.43729424865E+02  0.10570000000E+00 0.  1.
         13    1    3    3    0    0 -0.75247751560E+01  0.65880866343E+01 -0.41903045730E+02  0.43080175726E+02  0.10570000000E+00 0. -1.
<mgrwt>
<rscale>  0 0.20004220E+02</rscale>
<asrwt>0</asrwt>
<pdfrwt beam="2">  1        2 0.13175603E-01 0.20004220E+02</pdfrwt>
<pdfrwt beam="1">  1       -2 0.17971572E-03 0.20004220E+02</pdfrwt>
<totfact> 0.50981958E+06</totfact>
</mgrwt>
</event>
<event>
 5    1  0.1607476E-006  0.2000117E+02  0.7818608E-02  0.1745305E+00
          2   -1    0    0  501    0  0.00000000000E+00  0.00000000000E+00  0.66800248106E+02  0.66800248156E+02  0.26000000000E-02 0. -1.
         -2   -1    0    0    0  501 -0.00000000000E+00 -0.00000000000E+00 -0.14971746808E+01  0.14971769384E+01  0.26000000000E-02 0.  1.
       1023    2    1    2    0    0  0.00000000000E+00  0.00000000000E+00  0.65303073425E+02  0.68297425095E+02  0.20001171861E+02 0.  0.
        -13    1    3    3    0    0  0.87909734184E+01 -0.47664596283E+01  0.32699273184E+02  0.34194356117E+02  0.10570000000E+00 0.  1.
         13    1    3    3    0    0 -0.87909734184E+01  0.47664596283E+01  0.32603800241E+02  0.34103068978E+02  0.10570000000E+00 0. -1.
<mgrwt>
<rscale>  0 0.20001172E+02</rscale>
<asrwt>0</asrwt>
<pdfrwt beam="1">  1        2 0.10276963E-01 0.20001172E+02</pdfrwt>
<pdfrwt beam="2">  1       -2 0.23033470E-03 0.20001172E+02</pdfrwt>
<totfact> 0.48595279E+06</totfact>
</mgrwt>
</event>
<event>
 5    1  0.1607476E-006  0.2000185E+02  0.7818608E-02  0.1745291E+00
         -2   -1    0    0    0  501 -0.00000000000E+00  0.00000000000E+00  0.42478608439E+01  0.42478616396E+01  0.26000000000E-02 0. -1.
          2   -1    0    0  501    0  0.00000000000E+00 -0.00000000000E+00 -0.23545624202E+02  0.23545624346E+02  0.26000000000E-02 0.  1.
       1023    2    1    2    0    0  0.00000000000E+00  0.00000000000E+00 -0.19297763359E+02  0.27793485986E+02  0.20001854729E+02 0.  0.
        -13    1    3    3    0    0  0.82428859793E+01  0.56623334570E+01 -0.96678432676E+01  0.13909908533E+02  0.10570000000E+00 0.  1.
         13    1    3    3    0    0 -0.82428859793E+01 -0.56623334570E+01 -0.96299200909E+01  0.13883577453E+02  0.10570000000E+00 0. -1.
<mgrwt>
<rscale>  0 0.20001855E+02</rscale>
<asrwt>0</asrwt>
<pdfrwt beam="2">  1        2 0.36224037E-02 0.20001855E+02</pdfrwt>
<pdfrwt beam="1">  1       -2 0.65351714E-03 0.20001855E+02</pdfrwt>
<totfact> 0.42299936E+06</totfact>
</mgrwt>
</event>
<event>
 4    1  0.1607476E-006  0.2001449E+02  0.7818608E-02  0.1745040E+00
          2   -1    0    0  501    0  0.00000000000E+00  0.00000000000E+00  0.85296818972E+01  0.85296822935E+01  0.26000000000E-02 0.  1.
         -2   -1    0    0    0  501 -0.00000000000E+00 -0.00000000000E+00 -0.11740759353E+02  0.11740759641E+02  0.26000000000E-02 0. -1.
        -13    1    1    2    0    0  0.94046015818E+01  0.34011921485E+01 -0.19551165459E+01  0.10190598223E+02  0.10570000000E+00 0. -1.
         13    1    1    2    0    0 -0.94046015818E+01 -0.34011921485E+01 -0.12559609095E+01  0.10079843711E+02  0.10570000000E+00 0.  1.
<mgrwt>
<rscale>  0 0.20014490E+02</rscale>
<asrwt>0</asrwt>
<pdfrwt beam="1">  1        2 0.13122588E-02 0.20014490E+02</pdfrwt>
<pdfrwt beam="2">  1       -2 0.18062707E-02 0.20014490E+02</pdfrwt>
<totfact> 0.38941723E+06</totfact>
</mgrwt>
</event>
<event>
 5    1  0.1607476E-006  0.2000592E+02  0.7818608E-02  0.1745210E+00
          2   -1    0    0  501    0  0.00000000000E+00  0.00000000000E+00  0.58073379964E+02  0.58073380022E+02  0.26000000000E-02 0.  1.
         -2   -1    0    0    0  501 -0.00000000000E+00 -0.00000000000E+00 -0.17229771055E+01  0.17229790672E+01  0.26000000000E-02 0. -1.
       1023    2    1    2    0    0  0.00000000000E+00  0.00000000000E+00  0.56350402859E+02  0.59796359090E+02  0.20005915576E+02 0.  0.
        -13    1    3    3    0    0  0.56152007120E+01  0.82768726286E+01  0.27863255369E+02  0.29604210372E+02  0.10570000000E+00 0.  1.
         13    1    3    3    0    0 -0.56152007120E+01 -0.82768726286E+01  0.28487147490E+02  0.30192148717E+02  0.10570000000E+00 0. -1.
<mgrwt>
<rscale>  0 0.20005916E+02</rscale>
<asrwt>0</asrwt>
<pdfrwt beam="1">  1        2 0.89343669E-02 0.20005916E+02</pdfrwt>
<pdfrwt beam="2">  1       -2 0.26507354E-03 0.20005916E+02</pdfrwt>
<totfact> 0.47406518E+06</totfact>
</mgrwt>
</event>
<event>
 5    1  0.1607476E-006  0.2000137E+02  0.7818608E-02  0.1745301E+00
          2   -1    0    0  501    0  0.00000000000E+00  0.00000000000E+00  0.78560661908E+01  0.78560666210E+01  0.26000000000E-02 0. -1.
         -2   -1    0    0    0  501 -0.00000000000E+00 -0.00000000000E+00 -0.12730757328E+02  0.12730757594E+02  0.26000000000E-02 0.  1.
       1023    2    1    2    0    0  0.00000000000E+00  0.00000000000E+00 -0.48746911374E+01  0.20586824215E+02  0.20001367892E+02 0.  0.
        -13    1    3    3    0    0 -0.68817100017E+01 -0.72556574035E+01 -0.24405995096E+01  0.10294182598E+02  0.10570000000E+00 0.  1.
         13    1    3    3    0    0  0.68817100017E+01  0.72556574035E+01 -0.24340916278E+01  0.10292641617E+02  0.10570000000E+00 0. -1.
<mgrwt>
<rscale>  0 0.20001368E+02</rscale>
<asrwt>0</asrwt>
<pdfrwt beam="1">  1        2 0.12086256E-02 0.20001368E+02</pdfrwt>
<pdfrwt beam="2">  1       -2 0.19585781E-02 0.20001368E+02</pdfrwt>
<totfact> 0.38764994E+06</totfact>
</mgrwt>
</event>
<event>
 5    1  0.1648831E-006  0.2000225E+02  0.7818608E-02  0.1745283E+00
         -2   -1    0    0    0  501 -0.00000000000E+00  0.00000000000E+00  0.10009781285E+01  0.10009815052E+01  0.26000000000E-02 0.  1.
          2   -1    0    0  501    0  0.00000000000E+00 -0.00000000000E+00 -0.99924603768E+02  0.99924603802E+02  0.26000000000E-02 0. -1.
       1023    2    1    2    0    0  0.00000000000E+00  0.00000000000E+00 -0.98923625640E+02  0.10092558531E+03  0.20002251371E+02 0.  0.
        -13    1    3    3    0    0 -0.68785832055E+01 -0.72592086535E+01 -0.49552817580E+02  0.50551992244E+02  0.10570000000E+00 0.  1.
         13    1    3    3    0    0  0.68785832055E+01  0.72592086535E+01 -0.49370808060E+02  0.50373593064E+02  0.10570000000E+00 0. -1.
<mgrwt>
<rscale>  0 0.20002251E+02</rscale>
<asrwt>0</asrwt>
<pdfrwt beam="2">  1        2 0.15373008E-01 0.20002251E+02</pdfrwt>
<pdfrwt beam="1">  1       -2 0.15399698E-03 0.20002251E+02</pdfrwt>
<totfact> 0.52735820E+06</totfact>
</mgrwt>
</event>
<event>
 5    1  0.1607476E-006  0.2000529E+02  0.7818608E-02  0.1745223E+00
         -2   -1    0    0    0  501 -0.00000000000E+00  0.00000000000E+00  0.19288908742E+01  0.19288926265E+01  0.26000000000E-02 0. -1.
          2   -1    0    0  501    0  0.00000000000E+00 -0.00000000000E+00 -0.51870650508E+02  0.51870650574E+02  0.26000000000E-02 0.  1.
       1023    2    1    2    0    0  0.00000000000E+00  0.00000000000E+00 -0.49941759634E+02  0.53799543200E+02  0.20005286631E+02 0.  0.
        -13    1    3    3    0    0  0.66598949594E+00 -0.99792038125E+01 -0.25285076199E+02  0.27191438020E+02  0.10570000000E+00 0.  1.
         13    1    3    3    0    0 -0.66598949594E+00  0.99792038125E+01 -0.24656683436E+02  0.26608105180E+02  0.10570000000E+00 0. -1.
<mgrwt>
<rscale>  0 0.20005287E+02</rscale>
<asrwt>0</asrwt>
<pdfrwt beam="2">  1        2 0.79800992E-02 0.20005287E+02</pdfrwt>
<pdfrwt beam="1">  1       -2 0.29675262E-03 0.20005287E+02</pdfrwt>
<totfact> 0.46561054E+06</totfact>
</mgrwt>
</event>
<event>
 4    1  0.1607476E-006  0.2002226E+02  0.7818608E-02  0.1744886E+00
          2   -1    0    0  501    0  0.00000000000E+00  0.00000000000E+00  0.29617402317E+02  0.29617402431E+02  0.26000000000E-02 0.  1.
         -2   -1    0    0    0  501 -0.00000000000E+00 -0.00000000000E+00 -0.33839131361E+01  0.33839141349E+01  0.26000000000E-02 0. -1.
        -13    1    1    2    0    0 -0.95629096937E+01  0.29571514547E+01  0.12898230551E+02  0.16326956555E+02  0.10570000000E+00 0. -1.
         13    1    1    2    0    0  0.95629096937E+01 -0.29571514547E+01  0.13335258630E+02  0.16674360011E+02  0.10570000000E+00 0.  1.
<mgrwt>
<rscale>  0 0.20022261E+02</rscale>
<asrwt>0</asrwt>
<pdfrwt beam="1">  1        2 0.45565235E-02 0.20022261E+02</pdfrwt>
<pdfrwt beam="2">  1       -2 0.52060211E-03 0.20022261E+02</pdfrwt>
<totfact> 0.43204508E+06</totfact>
</mgrwt>
</event>
<event>
 4    1  0.1607476E-006  0.2002094E+02  0.7818608E-02  0.1744912E+00
          2   -1    0    0  501    0  0.00000000000E+00  0.00000000000E+00  0.27760806799E+01  0.27760818975E+01  0.26000000000E-02 0.  1.
         -2   -1    0    0    0  501 -0.00000000000E+00 -0.00000000000E+00 -0.36097472821E+02  0.36097472914E+02  0.26000000000E-02 0. -1.
        -13    1    1    2    0    0 -0.74880918169E+01  0.66427344841E+01 -0.16719248869E+02  0.19486967330E+02  0.10570000000E+00 0. -1.
         13    1    1    2    0    0  0.74880918169E+01 -0.66427344841E+01 -0.16602143271E+02  0.19386587481E+02  0.10570000000E+00 0.  1.
<mgrwt>
<rscale>  0 0.20020941E+02</rscale>
<asrwt>0</asrwt>
<pdfrwt beam="1">  1        2 0.42708946E-03 0.20020941E+02</pdfrwt>
<pdfrwt beam="2">  1       -2 0.55534571E-02 0.20020941E+02</pdfrwt>
<totfact> 0.35268067E+06</totfact>
</mgrwt>
</event>
<event>
 5    1  0.1607476E-006  0.2000119E+02  0.7818608E-02  0.1745304E+00
          2   -1    0    0  501    0  0.00000000000E+00  0.00000000000E+00  0.10214182591E+02  0.10214182922E+02  0.26000000000E-02 0. -1.
         -2   -1    0    0    0  501 -0.00000000000E+00 -0.00000000000E+00 -0.97914758701E+01  0.97914762153E+01  0.26000000000E-02 0.  1.
       1023    2    1    2    0    0  0.00000000000E+00  0.00000000000E+00  0.42270672104E+00  0.20005659137E+02  0.20001192878E+02 0.  0.
        -13    1    3    3    0    0 -0.87645312551E+01 -0.48148954177E+01  0.18831252502E+00  0.10002342731E+02  0.10570000000E+00 0. -1.
         13    1    3    3    0    0  0.87645312551E+01  0.48148954177E+01  0.23439419603E+00  0.10003316407E+02  0.10570000000E+00 0.  1.
<mgrwt>
<rscale>  0 0.20001193E+02</rscale>
<asrwt>0</asrwt>
<pdfrwt beam="1">  1        2 0.15714128E-02 0.20001193E+02</pdfrwt>
<pdfrwt beam="2">  1       -2 0.15063810E-02 0.20001193E+02</pdfrwt>
<totfact> 0.39519159E+06</totfact>
</mgrwt>
</event>
<event>
 5    1  0.1607476E-006  0.2000128E+02  0.7818608E-02  0.1745303E+00
          2   -1    0    0  501    0  0.00000000000E+00  0.00000000000E+00  0.37924750816E+02  0.37924750905E+02  0.26000000000E-02 0. -1.
         -2   -1    0    0    0  501 -0.00000000000E+00 -0.00000000000E+00 -0.26371380805E+01  0.26371393622E+01  0.26000000000E-02 0.  1.
       1023    2    1    2    0    0  0.00000000000E+00  0.00000000000E+00  0.35287612735E+02  0.40561890267E+02  0.20001283196E+02 0.  0.
        -13    1    3    3    0    0 -0.10407993882E+01 -0.99457569004E+01  0.17679867276E+02  0.20312317029E+02  0.10570000000E+00 0.  1.
         13    1    3    3    0    0  0.10407993882E+01  0.99457569004E+01  0.17607745459E+02  0.20249573238E+02  0.10570000000E+00 0. -1.
<mgrwt>
<rscale>  0 0.20001283E+02</rscale>
<asrwt>0</asrwt>
<pdfrwt beam="1">  1        2 0.58345770E-02 0.20001283E+02</pdfrwt>
<pdfrwt beam="2">  1       -2 0.40571367E-03 0.20001283E+02</pdfrwt>
<totfact> 0.44582794E+06</totfact>
</mgrwt>
</event>
<event>
 4    1  0.1607476E-006  0.2002584E+02  0.7818608E-02  0.1744815E+00
         -2   -1    0    0    0  501 -0.00000000000E+00  0.00000000000E+00  0.33051345821E+01  0.33051356048E+01  0.26000000000E-02 0. -1.
          2   -1    0    0  501    0  0.00000000000E+00 -0.00000000000E+00 -0.30334184892E+02  0.30334185003E+02  0.26000000000E-02 0.  1.
        -13    1    1    2    0    0  0.10003441126E+02  0.33628619220E+00 -0.13084657225E+02  0.16474263260E+02  0.10570000000E+00 0. -1.
         13    1    1    2    0    0 -0.10003441126E+02 -0.33628619220E+00 -0.13944393084E+02  0.17165057348E+02  0.10570000000E+00 0.  1.
<mgrwt>
<rscale>  0 0.20025842E+02</rscale>
<asrwt>0</asrwt>
<pdfrwt beam="2">  1        2 0.46667976E-02 0.20025842E+02</pdfrwt>
<pdfrwt beam="1">  1       -2 0.50848235E-03 0.20025842E+02</pdfrwt>
<totfact> 0.43300671E+06</totfact>
</mgrwt>
</event>
<event>
 5    1  0.1607476E-006  0.2000203E+02  0.7818608E-02  0.1745288E+00
          2   -1    0    0  501    0  0.00000000000E+00  0.00000000000E+00  0.29176421712E+02  0.29176421828E+02  0.26000000000E-02 0. -1.
         -2   -1    0    0    0  501 -0.00000000000E+00 -0.00000000000E+00 -0.34281187225E+01  0.34281197084E+01  0.26000000000E-02 0.  1.
       1023    2    1    2    0    0  0.00000000000E+00  0.00000000000E+00  0.25748302989E+02  0.32604541536E+02  0.20002025446E+02 0.  0.
        -13    1    3    3    0    0  0.32638467077E+01 -0.94526765902E+01  0.12780611682E+02  0.16228400954E+02  0.10570000000E+00 0.  1.
         13    1    3    3    0    0 -0.32638467077E+01  0.94526765902E+01  0.12967691307E+02  0.16376140582E+02  0.10570000000E+00 0. -1.
<mgrwt>
<rscale>  0 0.20002025E+02</rscale>
<asrwt>0</asrwt>
<pdfrwt beam="1">  1        2 0.44886803E-02 0.20002025E+02</pdfrwt>
<pdfrwt beam="2">  1       -2 0.52740297E-03 0.20002025E+02</pdfrwt>
<totfact> 0.43232174E+06</totfact>
</mgrwt>
</event>
<event>
 5    1  0.1607476E-006  0.2000183E+02  0.7818608E-02  0.1745292E+00
          2   -1    0    0  501    0  0.00000000000E+00  0.00000000000E+00  0.42961536001E+02  0.42961536080E+02  0.26000000000E-02 0.  1.
         -2   -1    0    0    0  501 -0.00000000000E+00 -0.00000000000E+00 -0.23280890494E+01  0.23280905012E+01  0.26000000000E-02 0. -1.
       1023    2    1    2    0    0  0.00000000000E+00  0.00000000000E+00  0.40633446951E+02  0.45289626581E+02  0.20001831533E+02 0.  0.
        -13    1    3    3    0    0 -0.97502298228E+01 -0.22222752716E+01  0.20224617437E+02  0.22562176578E+02  0.10570000000E+00 0. -1.
         13    1    3    3    0    0  0.97502298228E+01  0.22222752716E+01  0.20408829514E+02  0.22727450003E+02  0.10570000000E+00 0.  1.
<mgrwt>
<rscale>  0 0.20001832E+02</rscale>
<asrwt>0</asrwt>
<pdfrwt beam="1">  1        2 0.66094667E-02 0.20001832E+02</pdfrwt>
<pdfrwt beam="2">  1       -2 0.35816769E-03 0.20001832E+02</pdfrwt>
<totfact> 0.45318868E+06</totfact>
</mgrwt>
</event>
<event>
 4    1  0.1607476E-006  0.2004540E+02  0.7818608E-02  0.1744427E+00
          2   -1    0    0  501    0  0.00000000000E+00  0.00000000000E+00  0.55625321563E+02  0.55625321623E+02  0.26000000000E-02 0.  1.
         -2   -1    0    0    0  501 -0.00000000000E+00 -0.00000000000E+00 -0.18059128883E+01  0.18059147599E+01  0.26000000000E-02 0. -1.
        -13    1    1    2    0    0  0.53652328829E+01 -0.84650760486E+01  0.26876820821E+02  0.28684802707E+02  0.10570000000E+00 0. -1.
         13    1    1    2    0    0 -0.53652328829E+01  0.84650760486E+01  0.26942587853E+02  0.28746433677E+02  0.10570000000E+00 0.  1.
<mgrwt>
<rscale>  0 0.20045403E+02</rscale>
<asrwt>0</asrwt>
<pdfrwt beam="1">  1        2 0.85577415E-02 0.20045403E+02</pdfrwt>
<pdfrwt beam="2">  1       -2 0.27783292E-03 0.20045403E+02</pdfrwt>
<totfact> 0.46867942E+06</totfact>
</mgrwt>
</event>
<event>
 4    1  0.1607476E-006  0.2016328E+02  0.7818608E-02  0.1742100E+00
          2   -1    0    0  501    0  0.00000000000E+00  0.00000000000E+00  0.16760639177E+01  0.16760659343E+01  0.26000000000E-02 0. -1.
         -2   -1    0    0    0  501 -0.00000000000E+00 -0.00000000000E+00 -0.60641744637E+02  0.60641744693E+02  0.26000000000E-02 0.  1.
        -13    1    1    2    0    0 -0.87306178176E+01 -0.50362860885E+01 -0.30104570790E+02  0.31747192316E+02  0.10570000000E+00 0.  1.
         13    1    1    2    0    0  0.87306178176E+01  0.50362860885E+01 -0.28861109930E+02  0.30570618311E+02  0.10570000000E+00 0. -1.
<mgrwt>
<rscale>  0 0.20163284E+02</rscale>
<asrwt>0</asrwt>
<pdfrwt beam="1">  1        2 0.25785619E-03 0.20163284E+02</pdfrwt>
<pdfrwt beam="2">  1       -2 0.93294976E-02 0.20163284E+02</pdfrwt>
<totfact> 0.32322285E+06</totfact>
</mgrwt>
</event>
<event>
 5    1  0.1607476E-006  0.2000807E+02  0.7818608E-02  0.1745168E+00
         -2   -1    0    0    0  501 -0.00000000000E+00  0.00000000000E+00  0.61113469543E+02  0.61113469598E+02  0.26000000000E-02 0. -1.
          2   -1    0    0  501    0  0.00000000000E+00 -0.00000000000E+00 -0.16376196248E+01  0.16376216887E+01  0.26000000000E-02 0.  1.
       1023    2    1    2    0    0  0.00000000000E+00  0.00000000000E+00  0.59475849918E+02  0.62751091287E+02  0.20008066729E+02 0.  0.
        -13    1    3    3    0    0  0.75122849137E+01  0.66016716005E+01  0.29015770746E+02  0.30691083673E+02  0.10570000000E+00 0.  1.
         13    1    3    3    0    0 -0.75122849137E+01 -0.66016716005E+01  0.30460079172E+02  0.32060007614E+02  0.10570000000E+00 0. -1.
<mgrwt>
<rscale>  0 0.20008067E+02</rscale>
<asrwt>0</asrwt>
<pdfrwt beam="2">  1        2 0.25194162E-03 0.20008067E+02</pdfrwt>
<pdfrwt beam="1">  1       -2 0.94020732E-02 0.20008067E+02</pdfrwt>
<totfact> 0.32830533E+06</totfact>
</mgrwt>
</event>
<event>
 5    1  0.1607476E-006  0.2001015E+02  0.7818608E-02  0.1745126E+00
         -2   -1    0    0    0  501 -0.00000000000E+00  0.00000000000E+00  0.39232802213E+02  0.39232802299E+02  0.26000000000E-02 0. -1.
          2   -1    0    0  501    0  0.00000000000E+00 -0.00000000000E+00 -0.25514745342E+01  0.25514758589E+01  0.26000000000E-02 0.  1.
       1023    2    1    2    0    0  0.00000000000E+00  0.00000000000E+00  0.36681327679E+02  0.41784278158E+02  0.20010149947E+02 0.  0.
        -13    1    3    3    0    0  0.96389959189E+01  0.26652623034E+01  0.17763156997E+02  0.20385160889E+02  0.10570000000E+00 0. -1.
         13    1    3    3    0    0 -0.96389959189E+01 -0.26652623034E+01  0.18918170682E+02  0.21399117269E+02  0.10570000000E+00 0.  1.
<mgrwt>
<rscale>  0 0.20010150E+02</rscale>
<asrwt>0</asrwt>
<pdfrwt beam="2">  1        2 0.39253466E-03 0.20010150E+02</pdfrwt>
<pdfrwt beam="1">  1       -2 0.60358157E-02 0.20010150E+02</pdfrwt>
<totfact> 0.34964415E+06</totfact>
</mgrwt>
</event>
<event>
 4    1  0.1607476E-006  0.2008781E+02  0.7818608E-02  0.1743587E+00
         -2   -1    0    0    0  501 -0.00000000000E+00  0.00000000000E+00  0.10353864039E+02  0.10353864365E+02  0.26000000000E-02 0.  1.
          2   -1    0    0  501    0  0.00000000000E+00 -0.00000000000E+00 -0.97432262237E+01  0.97432265706E+01  0.26000000000E-02 0. -1.
        -13    1    1    2    0    0  0.41635024176E+01 -0.91297273673E+01  0.73236466398E+00  0.10061520992E+02  0.10570000000E+00 0. -1.
         13    1    1    2    0    0 -0.41635024176E+01  0.91297273673E+01 -0.12172684880E+00  0.10035569944E+02  0.10570000000E+00 0.  1.
<mgrwt>
<rscale>  0 0.20087812E+02</rscale>
<asrwt>0</asrwt>
<pdfrwt beam="2">  1        2 0.14989579E-02 0.20087812E+02</pdfrwt>
<pdfrwt beam="1">  1       -2 0.15929022E-02 0.20087812E+02</pdfrwt>
<totfact> 0.38995470E+06</totfact>
</mgrwt>
</event>
<event>
 5    1  0.1607476E-006  0.2000118E+02  0.7818608E-02  0.1745305E+00
         -2   -1    0    0    0  501 -0.00000000000E+00  0.00000000000E+00  0.13391651287E+01  0.13391676527E+01  0.26000000000E-02 0. -1.
          2   -1    0    0  501    0  0.00000000000E+00 -0.00000000000E+00 -0.74682156019E+02  0.74682156064E+02  0.26000000000E-02 0.  1.
       1023    2    1    2    0    0  0.00000000000E+00  0.00000000000E+00 -0.73342990890E+02  0.76021323717E+02  0.20001183638E+02 0.  0.
        -13    1    3    3    0    0 -0.18833046787E+01  0.98210804385E+01 -0.36726147350E+02  0.38063388304E+02  0.10570000000E+00 0.  1.
         13    1    3    3    0    0  0.18833046787E+01 -0.98210804385E+01 -0.36616843540E+02  0.37957935413E+02  0.10570000000E+00 0. -1.
<mgrwt>
<rscale>  0 0.20001184E+02</rscale>
<asrwt>0</asrwt>
<pdfrwt beam="2">  1        2 0.11489559E-01 0.20001184E+02</pdfrwt>
<pdfrwt beam="1">  1       -2 0.20602566E-03 0.20001184E+02</pdfrwt>
<totfact> 0.49617390E+06</totfact>
</mgrwt>
</event>
<event>
 5    1  0.1607476E-006  0.2000582E+02  0.7818608E-02  0.1745212E+00
         -2   -1    0    0    0  501 -0.00000000000E+00  0.00000000000E+00  0.48260268129E+01  0.48260275133E+01  0.26000000000E-02 0.  1.
          2   -1    0    0  501    0  0.00000000000E+00 -0.00000000000E+00 -0.20733034745E+02  0.20733034908E+02  0.26000000000E-02 0. -1.
       1023    2    1    2    0    0  0.00000000000E+00  0.00000000000E+00 -0.15907007932E+02  0.25559062421E+02  0.20005818416E+02 0.  0.
        -13    1    3    3    0    0 -0.96618209359E+01  0.25877076439E+01 -0.79505110352E+01  0.12777668522E+02  0.10570000000E+00 0.  1.
         13    1    3    3    0    0  0.96618209359E+01 -0.25877076439E+01 -0.79564968966E+01  0.12781393899E+02  0.10570000000E+00 0. -1.
<mgrwt>
<rscale>  0 0.20005818E+02</rscale>
<asrwt>0</asrwt>
<pdfrwt beam="2">  1        2 0.31896977E-02 0.20005818E+02</pdfrwt>
<pdfrwt beam="1">  1       -2 0.74246574E-03 0.20005818E+02</pdfrwt>
<totfact> 0.41784602E+06</totfact>
</mgrwt>
</event>
<event>
 4    1  0.1607476E-006  0.2001586E+02  0.7818608E-02  0.1745013E+00
          2   -1    0    0  501    0  0.00000000000E+00  0.00000000000E+00  0.79452163714E+02  0.79452163756E+02  0.26000000000E-02 0. -1.
         -2   -1    0    0    0  501 -0.00000000000E+00 -0.00000000000E+00 -0.12606139761E+01  0.12606166573E+01  0.26000000000E-02 0.  1.
        -13    1    1    2    0    0  0.13703294283E-01 -0.10004877442E+02  0.39994611765E+02  0.41227150073E+02  0.10570000000E+00 0. -1.
         13    1    1    2    0    0 -0.13703294283E-01  0.10004877442E+02  0.38196937973E+02  0.39485630341E+02  0.10570000000E+00 0.  1.
<mgrwt>
<rscale>  0 0.20015856E+02</rscale>
<asrwt>0</asrwt>
<pdfrwt beam="1">  1        2 0.12223409E-01 0.20015856E+02</pdfrwt>
<pdfrwt beam="2">  1       -2 0.19394084E-03 0.20015856E+02</pdfrwt>
<totfact> 0.50142430E+06</totfact>
</mgrwt>
</event>
<event>
 4    1  0.1607476E-006  0.2002867E+02  0.7818608E-02  0.1744758E+00
          2   -1    0    0  501    0  0.00000000000E+00  0.00000000000E+00  0.10720929917E+02  0.10720930232E+02  0.26000000000E-02 0.  1.
         -2   -1    0    0    0  501 -0.00000000000E+00 -0.00000000000E+00 -0.93543134428E+01  0.93543138042E+01  0.26000000000E-02 0. -1.
        -13    1    1    2    0    0 -0.24694575351E+01  0.96953162251E+01  0.25995674942E+00  0.10008802487E+02  0.10570000000E+00 0. -1.
         13    1    1    2    0    0  0.24694575351E+01 -0.96953162251E+01  0.11066597243E+01  0.10066441549E+02  0.10570000000E+00 0.  1.
<mgrwt>
<rscale>  0 0.20028674E+02</rscale>
<asrwt>0</asrwt>
<pdfrwt beam="1">  1        2 0.16493739E-02 0.20028674E+02</pdfrwt>
<pdfrwt beam="2">  1       -2 0.14391252E-02 0.20028674E+02</pdfrwt>
<totfact> 0.39536132E+06</totfact>
</mgrwt>
</event>
<event>
 5    1  0.1607476E-006  0.2000772E+02  0.7818608E-02  0.1745175E+00
          2   -1    0    0  501    0  0.00000000000E+00  0.00000000000E+00  0.20947490164E+01  0.20947506300E+01  0.26000000000E-02 0. -1.
         -2   -1    0    0    0  501 -0.00000000000E+00 -0.00000000000E+00 -0.47775271127E+02  0.47775271198E+02  0.26000000000E-02 0.  1.
       1023    2    1    2    0    0  0.00000000000E+00  0.00000000000E+00 -0.45680522111E+02  0.49870021828E+02  0.20007722929E+02 0.  0.
        -13    1    3    3    0    0  0.84044222707E+01 -0.54202423287E+01 -0.23412629034E+02  0.25459295186E+02  0.10570000000E+00 0.  1.
         13    1    3    3    0    0 -0.84044222707E+01  0.54202423287E+01 -0.22267893077E+02  0.24410726642E+02  0.10570000000E+00 0. -1.
<mgrwt>
<rscale>  0 0.20007723E+02</rscale>
<asrwt>0</asrwt>
<pdfrwt beam="1">  1        2 0.32226925E-03 0.20007723E+02</pdfrwt>
<pdfrwt beam="2">  1       -2 0.73500410E-02 0.20007723E+02</pdfrwt>
<totfact> 0.34089040E+06</totfact>
</mgrwt>
</event>
<event>
 5    1  0.1607476E-006  0.2000221E+02  0.7818608E-02  0.1745284E+00
         -2   -1    0    0    0  501 -0.00000000000E+00  0.00000000000E+00  0.10824210189E+02  0.10824210501E+02  0.26000000000E-02 0. -1.
          2   -1    0    0  501    0  0.00000000000E+00 -0.00000000000E+00 -0.92405890732E+01  0.92405894390E+01  0.26000000000E-02 0.  1.
       1023    2    1    2    0    0  0.00000000000E+00  0.00000000000E+00  0.15836211157E+01  0.20064799940E+02  0.20002208398E+02 0.  0.
        -13    1    3    3    0    0  0.18929184980E+01 -0.98193109263E+01  0.88647323907E+00  0.10039871254E+02  0.10570000000E+00 0.  1.
         13    1    3    3    0    0 -0.18929184980E+01  0.98193109263E+01  0.69714787661E+00  0.10024928686E+02  0.10570000000E+00 0. -1.
<mgrwt>
<rscale>  0 0.20002208E+02</rscale>
<asrwt>0</asrwt>
<pdfrwt beam="2">  1        2 0.14216291E-02 0.20002208E+02</pdfrwt>
<pdfrwt beam="1">  1       -2 0.16652632E-02 0.20002208E+02</pdfrwt>
<totfact> 0.39225852E+06</totfact>
</mgrwt>
</event>
<event>
 5    1  0.1607476E-006  0.2000899E+02  0.7818608E-02  0.1745149E+00
         -2   -1    0    0    0  501 -0.00000000000E+00  0.00000000000E+00  0.58472451111E+02  0.58472451168E+02  0.26000000000E-02 0. -1.
          2   -1    0    0  501    0  0.00000000000E+00 -0.00000000000E+00 -0.17117430402E+01  0.17117450148E+01  0.26000000000E-02 0.  1.
       1023    2    1    2    0    0  0.00000000000E+00  0.00000000000E+00  0.56760708070E+02  0.60184196183E+02  0.20008985221E+02 0.  0.
        -13    1    3    3    0    0 -0.10002482127E+02 -0.62842414011E-01  0.27903800279E+02  0.29642652384E+02  0.10570000000E+00 0. -1.
         13    1    3    3    0    0  0.10002482127E+02  0.62842414011E-01  0.28856907792E+02  0.30541543800E+02  0.10570000000E+00 0.  1.
<mgrwt>
<rscale>  0 0.20008985E+02</rscale>
<asrwt>0</asrwt>
<pdfrwt beam="2">  1        2 0.26334521E-03 0.20008985E+02</pdfrwt>
<pdfrwt beam="1">  1       -2 0.89957628E-02 0.20008985E+02</pdfrwt>
<totfact> 0.33066663E+06</totfact>
</mgrwt>
</event>
<event>
 5    1  0.1607476E-006  0.2000280E+02  0.7818608E-02  0.1745272E+00
          2   -1    0    0  501    0  0.00000000000E+00  0.00000000000E+00  0.17547509070E+01  0.17547528332E+01  0.26000000000E-02 0.  1.
         -2   -1    0    0    0  501 -0.00000000000E+00 -0.00000000000E+00 -0.57004049208E+02  0.57004049268E+02  0.26000000000E-02 0. -1.
       1023    2    1    2    0    0  0.00000000000E+00  0.00000000000E+00 -0.55249298301E+02  0.58758802101E+02  0.20002796343E+02 0.  0.
        -13    1    3    3    0    0 -0.17961414268E+01  0.98375259248E+01 -0.27969136933E+02  0.29703313513E+02  0.10570000000E+00 0.  1.
         13    1    3    3    0    0  0.17961414268E+01 -0.98375259248E+01 -0.27280161368E+02  0.29055488588E+02  0.10570000000E+00 0. -1.
<mgrwt>
<rscale>  0 0.20002796E+02</rscale>
<asrwt>0</asrwt>
<pdfrwt beam="1">  1        2 0.26996187E-03 0.20002796E+02</pdfrwt>
<pdfrwt beam="2">  1       -2 0.87698525E-02 0.20002796E+02</pdfrwt>
<totfact> 0.33224007E+06</totfact>
</mgrwt>
</event>
<event>
 5    1  0.1607476E-006  0.2000444E+02  0.7818608E-02  0.1745240E+00
          2   -1    0    0  501    0  0.00000000000E+00  0.00000000000E+00  0.12816937817E+01  0.12816964188E+01  0.26000000000E-02 0.  1.
         -2   -1    0    0    0  501 -0.00000000000E+00 -0.00000000000E+00 -0.78056281617E+02  0.78056281660E+02  0.26000000000E-02 0. -1.
       1023    2    1    2    0    0  0.00000000000E+00  0.00000000000E+00 -0.76774587835E+02  0.79337978079E+02  0.20004435218E+02 0.  0.
        -13    1    3    3    0    0 -0.90763361305E+01 -0.42003621779E+01 -0.37985478626E+02  0.39280156299E+02  0.10570000000E+00 0.  1.
         13    1    3    3    0    0  0.90763361305E+01  0.42003621779E+01 -0.38789109210E+02  0.40057821780E+02  0.10570000000E+00 0. -1.
<mgrwt>
<rscale>  0 0.20004435E+02</rscale>
<asrwt>0</asrwt>
<pdfrwt beam="1">  1        2 0.19718393E-03 0.20004435E+02</pdfrwt>
<pdfrwt beam="2">  1       -2 0.12008655E-01 0.20004435E+02</pdfrwt>
<totfact> 0.31399413E+06</totfact>
</mgrwt>
</event>
<event>
 4    1  0.1607476E-006  0.2001514E+02  0.7818608E-02  0.1745027E+00
          2   -1    0    0  501    0  0.00000000000E+00  0.00000000000E+00  0.16088603113E+01  0.16088624121E+01  0.26000000000E-02 0.  1.
         -2   -1    0    0    0  501 -0.00000000000E+00 -0.00000000000E+00 -0.62249918612E+02  0.62249918666E+02  0.26000000000E-02 0. -1.
        -13    1    1    2    0    0 -0.86989873039E+01  0.49393013654E+01 -0.29468942295E+02  0.31120713530E+02  0.10570000000E+00 0. -1.
         13    1    1    2    0    0  0.86989873039E+01 -0.49393013654E+01 -0.31172116006E+02  0.32738067549E+02  0.10570000000E+00 0.  1.
<mgrwt>
<rscale>  0 0.20015143E+02</rscale>
<asrwt>0</asrwt>
<pdfrwt beam="1">  1        2 0.24751718E-03 0.20015143E+02</pdfrwt>
<pdfrwt beam="2">  1       -2 0.95769089E-02 0.20015143E+02</pdfrwt>
<totfact> 0.32703551E+06</totfact>
</mgrwt>
</event>
<event>
 5    1  0.1607476E-006  0.2000297E+02  0.7818608E-02  0.1745269E+00
         -2   -1    0    0    0  501 -0.00000000000E+00  0.00000000000E+00  0.11285512326E+01  0.11285542276E+01  0.26000000000E-02 0.  1.
          2   -1    0    0  501    0  0.00000000000E+00 -0.00000000000E+00 -0.88635408108E+02  0.88635408146E+02  0.26000000000E-02 0. -1.
       1023    2    1    2    0    0  0.00000000000E+00  0.00000000000E+00 -0.87506856875E+02  0.89763962374E+02  0.20002973299E+02 0.  0.
        -13    1    3    3    0    0 -0.34838824317E+01  0.93740132925E+01 -0.43327687196E+02  0.44466945164E+02  0.10570000000E+00 0.  1.
         13    1    3    3    0    0  0.34838824317E+01 -0.93740132925E+01 -0.44179169680E+02  0.45297017209E+02  0.10570000000E+00 0. -1.
<mgrwt>
<rscale>  0 0.20002973E+02</rscale>
<asrwt>0</asrwt>
<pdfrwt beam="2">  1        2 0.13636211E-01 0.20002973E+02</pdfrwt>
<pdfrwt beam="1">  1       -2 0.17362357E-03 0.20002973E+02</pdfrwt>
<totfact> 0.51359779E+06</totfact>
</mgrwt>
</event>
<event>
 5    1  0.1607476E-006  0.2000181E+02  0.7818608E-02  0.1745292E+00
          2   -1    0    0  501    0  0.00000000000E+00  0.00000000000E+00  0.40557043793E+01  0.40557052127E+01  0.26000000000E-02 0. -1.
         -2   -1    0    0    0  501 -0.00000000000E+00 -0.00000000000E+00 -0.24661091758E+02  0.24661091895E+02  0.26000000000E-02 0.  1.
       1023    2    1    2    0    0  0.00000000000E+00  0.00000000000E+00 -0.20605387379E+02  0.28716797108E+02  0.20001811096E+02 0.  0.
        -13    1    3    3    0    0  0.20326737995E+01 -0.97914296734E+01 -0.10382391235E+02  0.14415584555E+02  0.10570000000E+00 0.  1.
         13    1    3    3    0    0 -0.20326737995E+01  0.97914296734E+01 -0.10222996144E+02  0.14301212553E+02  0.10570000000E+00 0. -1.
<mgrwt>
<rscale>  0 0.20001811E+02</rscale>
<asrwt>0</asrwt>
<pdfrwt beam="1">  1        2 0.62395461E-03 0.20001811E+02</pdfrwt>
<pdfrwt beam="2">  1       -2 0.37940141E-02 0.20001811E+02</pdfrwt>
<totfact> 0.36747875E+06</totfact>
</mgrwt>
</event>
<event>
 5    1  0.1607476E-006  0.2000279E+02  0.7818608E-02  0.1745273E+00
          2   -1    0    0  501    0  0.00000000000E+00  0.00000000000E+00  0.36004848831E+01  0.36004858219E+01  0.26000000000E-02 0. -1.
         -2   -1    0    0    0  501 -0.00000000000E+00 -0.00000000000E+00 -0.27781792747E+02  0.27781792868E+02  0.26000000000E-02 0.  1.
       1023    2    1    2    0    0  0.00000000000E+00  0.00000000000E+00 -0.24181307864E+02  0.31382278690E+02  0.20002793950E+02 0.  0.
        -13    1    3    3    0    0  0.42006903436E+01 -0.90758355551E+01 -0.12069688514E+02  0.15674984648E+02  0.10570000000E+00 0.  1.
         13    1    3    3    0    0 -0.42006903436E+01  0.90758355551E+01 -0.12111619350E+02  0.15707294043E+02  0.10570000000E+00 0. -1.
<mgrwt>
<rscale>  0 0.20002794E+02</rscale>
<asrwt>0</asrwt>
<pdfrwt beam="1">  1        2 0.55392085E-03 0.20002794E+02</pdfrwt>
<pdfrwt beam="2">  1       -2 0.42741219E-02 0.20002794E+02</pdfrwt>
<totfact> 0.36331638E+06</totfact>
</mgrwt>
</event>
<event>
 4    1  0.1607476E-006  0.2084503E+02  0.7818608E-02  0.1729028E+00
          2   -1    0    0  501    0  0.00000000000E+00  0.00000000000E+00  0.27521080093E+02  0.27521080215E+02  0.26000000000E-02 0.  1.
         -2   -1    0    0    0  501 -0.00000000000E+00 -0.00000000000E+00 -0.39471116224E+01  0.39471124787E+01  0.26000000000E-02 0. -1.
        -13    1    1    2    0    0  0.93622305670E+01  0.45721771275E+01  0.11412751859E+02  0.15453745253E+02  0.10570000000E+00 0.  1.
         13    1    1    2    0    0 -0.93622305670E+01 -0.45721771275E+01  0.12161216611E+02  0.16014447441E+02  0.10570000000E+00 0. -1.
<mgrwt>
<rscale>  0 0.20845027E+02</rscale>
<asrwt>0</asrwt>
<pdfrwt beam="1">  1        2 0.42340124E-02 0.20845027E+02</pdfrwt>
<pdfrwt beam="2">  1       -2 0.60724801E-03 0.20845027E+02</pdfrwt>
<totfact> 0.39145629E+06</totfact>
</mgrwt>
</event>
<event>
 4    1  0.1607476E-006  0.2003985E+02  0.7818608E-02  0.1744537E+00
          2   -1    0    0  501    0  0.00000000000E+00  0.00000000000E+00  0.14264798619E+01  0.14264822314E+01  0.26000000000E-02 0. -1.
         -2   -1    0    0    0  501 -0.00000000000E+00 -0.00000000000E+00 -0.70382234920E+02  0.70382234968E+02  0.26000000000E-02 0.  1.
        -13    1    1    2    0    0  0.70435481084E+01  0.71169190276E+01 -0.33207708371E+02  0.34684653295E+02  0.10570000000E+00 0.  1.
         13    1    1    2    0    0 -0.70435481084E+01 -0.71169190276E+01 -0.35748046686E+02  0.37124063905E+02  0.10570000000E+00 0. -1.
<mgrwt>
<rscale>  0 0.20039853E+02</rscale>
<asrwt>0</asrwt>
<pdfrwt beam="1">  1        2 0.21945868E-03 0.20039853E+02</pdfrwt>
<pdfrwt beam="2">  1       -2 0.10828034E-01 0.20039853E+02</pdfrwt>
<totfact> 0.31911733E+06</totfact>
</mgrwt>
</event>
<event>
 4    1  0.1607476E-006  0.2008432E+02  0.7818608E-02  0.1743656E+00
         -2   -1    0    0    0  501 -0.00000000000E+00  0.00000000000E+00  0.16050136577E+02  0.16050136788E+02  0.26000000000E-02 0. -1.
          2   -1    0    0  501    0  0.00000000000E+00 -0.00000000000E+00 -0.62831205732E+01  0.62831211111E+01  0.26000000000E-02 0.  1.
        -13    1    1    2    0    0 -0.30192261172E+01  0.95749837328E+01  0.50995271920E+01  0.11261100741E+02  0.10570000000E+00 0. -1.
         13    1    1    2    0    0  0.30192261172E+01 -0.95749837328E+01  0.46674888122E+01  0.11072157158E+02  0.10570000000E+00 0.  1.
<mgrwt>
<rscale>  0 0.20084317E+02</rscale>
<asrwt>0</asrwt>
<pdfrwt beam="2">  1        2 0.96663402E-03 0.20084317E+02</pdfrwt>
<pdfrwt beam="1">  1       -2 0.24692518E-02 0.20084317E+02</pdfrwt>
<totfact> 0.37754518E+06</totfact>
</mgrwt>
</event>
<event>
 5    1  0.1607476E-006  0.2000955E+02  0.7818608E-02  0.1745138E+00
         -2   -1    0    0    0  501 -0.00000000000E+00  0.00000000000E+00  0.58282140527E+01  0.58282146326E+01  0.26000000000E-02 0.  1.
          2   -1    0    0  501    0  0.00000000000E+00 -0.00000000000E+00 -0.17174310787E+02  0.17174310984E+02  0.26000000000E-02 0. -1.
       1023    2    1    2    0    0  0.00000000000E+00  0.00000000000E+00 -0.11346096734E+02  0.23002525616E+02  0.20009554559E+02 0.  0.
        -13    1    3    3    0    0  0.99487918554E+01 -0.10466141278E+01 -0.57910433822E+01  0.11559464367E+02  0.10570000000E+00 0. -1.
         13    1    3    3    0    0 -0.99487918554E+01  0.10466141278E+01 -0.55550533522E+01  0.11443061249E+02  0.10570000000E+00 0.  1.
<mgrwt>
<rscale>  0 0.20009555E+02</rscale>
<asrwt>0</asrwt>
<pdfrwt beam="2">  1        2 0.26422017E-02 0.20009555E+02</pdfrwt>
<pdfrwt beam="1">  1       -2 0.89664838E-03 0.20009555E+02</pdfrwt>
<totfact> 0.41093559E+06</totfact>
</mgrwt>
</event>
<event>
 5    1  0.1607476E-006  0.2000132E+02  0.7818608E-02  0.1745302E+00
         -2   -1    0    0    0  501 -0.00000000000E+00  0.00000000000E+00  0.13739027349E+01  0.13739051950E+01  0.26000000000E-02 0. -1.
          2   -1    0    0  501    0  0.00000000000E+00 -0.00000000000E+00 -0.72794925914E+02  0.72794925960E+02  0.26000000000E-02 0.  1.
       1023    2    1    2    0    0  0.00000000000E+00  0.00000000000E+00 -0.71421023179E+02  0.74168831155E+02  0.20001324031E+02 0.  0.
        -13    1    3    3    0    0  0.82578681652E+00 -0.99659084403E+01 -0.35816267027E+02  0.37186252986E+02  0.10570000000E+00 0. -1.
         13    1    3    3    0    0 -0.82578681652E+00  0.99659084403E+01 -0.35604756152E+02  0.36982578169E+02  0.10570000000E+00 0.  1.
<mgrwt>
<rscale>  0 0.20001324E+02</rscale>
<asrwt>0</asrwt>
<pdfrwt beam="2">  1        2 0.11199217E-01 0.20001324E+02</pdfrwt>
<pdfrwt beam="1">  1       -2 0.21136990E-03 0.20001324E+02</pdfrwt>
<totfact> 0.49374274E+06</totfact>
</mgrwt>
</event>
<event>
 4    1  0.1607476E-006  0.2001836E+02  0.7818608E-02  0.1744963E+00
         -2   -1    0    0    0  501 -0.00000000000E+00  0.00000000000E+00  0.94850748979E+01  0.94850752543E+01  0.26000000000E-02 0.  1.
          2   -1    0    0  501    0  0.00000000000E+00 -0.00000000000E+00 -0.10562242130E+02  0.10562242450E+02  0.26000000000E-02 0. -1.
        -13    1    1    2    0    0 -0.79560974805E+01 -0.60617844224E+01 -0.89655629554E+00  0.10042893168E+02  0.10570000000E+00 0. -1.
         13    1    1    2    0    0  0.79560974805E+01  0.60617844224E+01 -0.18061093673E+00  0.10004424536E+02  0.10570000000E+00 0.  1.
<mgrwt>
<rscale>  0 0.20018358E+02</rscale>
<asrwt>0</asrwt>
<pdfrwt beam="2">  1        2 0.16249604E-02 0.20018358E+02</pdfrwt>
<pdfrwt beam="1">  1       -2 0.14592424E-02 0.20018358E+02</pdfrwt>
<totfact> 0.39539139E+06</totfact>
</mgrwt>
</event>
<event>
 4    1  0.1607476E-006  0.2002678E+02  0.7818608E-02  0.1744796E+00
          2   -1    0    0  501    0  0.00000000000E+00  0.00000000000E+00  0.77652460217E+01  0.77652464570E+01  0.26000000000E-02 0. -1.
         -2   -1    0    0    0  501 -0.00000000000E+00 -0.00000000000E+00 -0.12912404908E+02  0.12912405169E+02  0.26000000000E-02 0.  1.
        -13    1    1    2    0    0 -0.69926077940E+01 -0.71544178690E+01 -0.21421763764E+01  0.10231439338E+02  0.10570000000E+00 0. -1.
         13    1    1    2    0    0  0.69926077940E+01  0.71544178690E+01 -0.30049825095E+01  0.10446212289E+02  0.10570000000E+00 0.  1.
<mgrwt>
<rscale>  0 0.20026783E+02</rscale>
<asrwt>0</asrwt>
<pdfrwt beam="1">  1        2 0.11946533E-02 0.20026783E+02</pdfrwt>
<pdfrwt beam="2">  1       -2 0.19865239E-02 0.20026783E+02</pdfrwt>
<totfact> 0.38618731E+06</totfact>
</mgrwt>
</event>
<event>
 5    1  0.1607476E-006  0.2000332E+02  0.7818608E-02  0.1745262E+00
          2   -1    0    0  501    0  0.00000000000E+00  0.00000000000E+00  0.19587662354E+01  0.19587679610E+01  0.26000000000E-02 0. -1.
         -2   -1    0    0    0  501 -0.00000000000E+00 -0.00000000000E+00 -0.51069458566E+02  0.51069458632E+02  0.26000000000E-02 0.  1.
       1023    2    1    2    0    0  0.00000000000E+00  0.00000000000E+00 -0.49110692331E+02  0.53028226593E+02  0.20003317585E+02 0.  0.
        -13    1    3    3    0    0 -0.11283779623E+01 -0.99372151615E+01 -0.24616036935E+02  0.26570320451E+02  0.10570000000E+00 0. -1.
         13    1    3    3    0    0  0.11283779623E+01  0.99372151615E+01 -0.24494655396E+02  0.26457906143E+02  0.10570000000E+00 0.  1.
<mgrwt>
<rscale>  0 0.20003318E+02</rscale>
<asrwt>0</asrwt>
<pdfrwt beam="1">  1        2 0.30134883E-03 0.20003318E+02</pdfrwt>
<pdfrwt beam="2">  1       -2 0.78568389E-02 0.20003318E+02</pdfrwt>
<totfact> 0.33782553E+06</totfact>
</mgrwt>
</event>
<event>
 4    1  0.1607476E-006  0.2001412E+02  0.7818608E-02  0.1745047E+00
          2   -1    0    0  501    0  0.00000000000E+00  0.00000000000E+00  0.15426480514E+02  0.15426480733E+02  0.26000000000E-02 0. -1.
         -2   -1    0    0    0  501 -0.00000000000E+00 -0.00000000000E+00 -0.64915152016E+01  0.64915157223E+01  0.26000000000E-02 0.  1.
        -13    1    1    2    0    0  0.99849340983E+01  0.65567896131E+00  0.45061164392E+01  0.10974747455E+02  0.10570000000E+00 0. -1.
         13    1    1    2    0    0 -0.99849340983E+01 -0.65567896131E+00  0.44288488728E+01  0.10943249000E+02  0.10570000000E+00 0.  1.
<mgrwt>
<rscale>  0 0.20014119E+02</rscale>
<asrwt>0</asrwt>
<pdfrwt beam="1">  1        2 0.23733047E-02 0.20014119E+02</pdfrwt>
<pdfrwt beam="2">  1       -2 0.99869471E-03 0.20014119E+02</pdfrwt>
<totfact> 0.40715216E+06</totfact>
</mgrwt>
</event>
<event>
 4    1  0.1607476E-006  0.2015176E+02  0.7818608E-02  0.1742327E+00
          2   -1    0    0  501    0  0.00000000000E+00  0.00000000000E+00  0.67172528665E+02  0.67172528716E+02  0.26000000000E-02 0. -1.
         -2   -1    0    0    0  501 -0.00000000000E+00 -0.00000000000E+00 -0.15113806681E+01  0.15113829045E+01  0.26000000000E-02 0.  1.
        -13    1    1    2    0    0  0.69653026362E+01 -0.72623811922E+01  0.31110983132E+02  0.32698043754E+02  0.10570000000E+00 0.  1.
         13    1    1    2    0    0 -0.69653026362E+01  0.72623811922E+01  0.34550164865E+02  0.35985867866E+02  0.10570000000E+00 0. -1.
<mgrwt>
<rscale>  0 0.20151758E+02</rscale>
<asrwt>0</asrwt>
<pdfrwt beam="1">  1        2 0.10334236E-01 0.20151758E+02</pdfrwt>
<pdfrwt beam="2">  1       -2 0.23252026E-03 0.20151758E+02</pdfrwt>
<totfact> 0.47840829E+06</totfact>
</mgrwt>
</event>
<event>
 5    1  0.1607476E-006  0.2000884E+02  0.7818608E-02  0.1745152E+00
         -2   -1    0    0    0  501 -0.00000000000E+00  0.00000000000E+00  0.32904812634E+02  0.32904812737E+02  0.26000000000E-02 0.  1.
          2   -1    0    0  501    0  0.00000000000E+00 -0.00000000000E+00 -0.30417549957E+01  0.30417561069E+01  0.26000000000E-02 0. -1.
       1023    2    1    2    0    0  0.00000000000E+00  0.00000000000E+00  0.29863057639E+02  0.35946568844E+02  0.20008838050E+02 0.  0.
        -13    1    3    3    0    0  0.98691314327E+01 -0.16311788824E+01  0.15163885118E+02  0.18166317298E+02  0.10570000000E+00 0.  1.
         13    1    3    3    0    0 -0.98691314327E+01  0.16311788824E+01  0.14699172520E+02  0.17780251546E+02  0.10570000000E+00 0. -1.
<mgrwt>
<rscale>  0 0.20008838E+02</rscale>
<asrwt>0</asrwt>
<pdfrwt beam="2">  1        2 0.46796239E-03 0.20008838E+02</pdfrwt>
<pdfrwt beam="1">  1       -2 0.50622791E-02 0.20008838E+02</pdfrwt>
<totfact> 0.35680918E+06</totfact>
</mgrwt>
</event>
<event>
 5    1  0.1607476E-006  0.2000247E+02  0.7818608E-02  0.1745279E+00
         -2   -1    0    0    0  501 -0.00000000000E+00  0.00000000000E+00  0.14184255861E+01  0.14184279690E+01  0.26000000000E-02 0. -1.
          2   -1    0    0  501    0  0.00000000000E+00 -0.00000000000E+00 -0.70518049007E+02  0.70518049054E+02  0.26000000000E-02 0.  1.
       1023    2    1    2    0    0  0.00000000000E+00  0.00000000000E+00 -0.69099623420E+02  0.71936477023E+02  0.20002469090E+02 0.  0.
        -13    1    3    3    0    0  0.89249487398E+01  0.45118482250E+01 -0.34712068736E+02  0.36124096844E+02  0.10570000000E+00 0. -1.
         13    1    3    3    0    0 -0.89249487398E+01 -0.45118482250E+01 -0.34387554685E+02  0.35812380179E+02  0.10570000000E+00 0.  1.
<mgrwt>
<rscale>  0 0.20002469E+02</rscale>
<asrwt>0</asrwt>
<pdfrwt beam="2">  1        2 0.10848928E-01 0.20002469E+02</pdfrwt>
<pdfrwt beam="1">  1       -2 0.21821956E-03 0.20002469E+02</pdfrwt>
<totfact> 0.49073693E+06</totfact>
</mgrwt>
</event>
<event>
 5    1  0.1607476E-006  0.2000368E+02  0.7818608E-02  0.1745255E+00
          2   -1    0    0  501    0  0.00000000000E+00  0.00000000000E+00  0.17203333345E+02  0.17203333541E+02  0.26000000000E-02 0. -1.
         -2   -1    0    0    0  501 -0.00000000000E+00 -0.00000000000E+00 -0.58149660747E+01  0.58149666560E+01  0.26000000000E-02 0.  1.
       1023    2    1    2    0    0  0.00000000000E+00  0.00000000000E+00  0.11388367270E+02  0.23018300197E+02  0.20003680533E+02 0.  0.
        -13    1    3    3    0    0 -0.97910369789E+01 -0.20396599316E+01  0.56574606698E+01  0.11490981311E+02  0.10570000000E+00 0. -1.
         13    1    3    3    0    0  0.97910369789E+01  0.20396599316E+01  0.57309066000E+01  0.11527318886E+02  0.10570000000E+00 0.  1.
<mgrwt>
<rscale>  0 0.20003681E+02</rscale>
<asrwt>0</asrwt>
<pdfrwt beam="1">  1        2 0.26466667E-02 0.20003681E+02</pdfrwt>
<pdfrwt beam="2">  1       -2 0.89461023E-03 0.20003681E+02</pdfrwt>
<totfact> 0.41126593E+06</totfact>
</mgrwt>
</event>
<event>
 5    1  0.1607476E-006  0.2000388E+02  0.7818608E-02  0.1745251E+00
         -2   -1    0    0    0  501 -0.00000000000E+00  0.00000000000E+00  0.37083117615E+02  0.37083117706E+02  0.26000000000E-02 0. -1.
          2   -1    0    0  501    0  0.00000000000E+00 -0.00000000000E+00 -0.26976895663E+01  0.26976908192E+01  0.26000000000E-02 0.  1.
       1023    2    1    2    0    0  0.00000000000E+00  0.00000000000E+00  0.34385428049E+02  0.39780808526E+02  0.20003876245E+02 0.  0.
        -13    1    3    3    0    0 -0.99547813682E+01 -0.96430653073E+00  0.17204402608E+02  0.19900507550E+02  0.10570000000E+00 0.  1.
         13    1    3    3    0    0  0.99547813682E+01  0.96430653073E+00  0.17181025441E+02  0.19880300975E+02  0.10570000000E+00 0. -1.
<mgrwt>
<rscale>  0 0.20003876E+02</rscale>
<asrwt>0</asrwt>
<pdfrwt beam="2">  1        2 0.41502924E-03 0.20003876E+02</pdfrwt>
<pdfrwt beam="1">  1       -2 0.57050955E-02 0.20003876E+02</pdfrwt>
<totfact> 0.35223758E+06</totfact>
</mgrwt>
</event>
<event>
 5    1  0.1607476E-006  0.2000790E+02  0.7818608E-02  0.1745171E+00
          2   -1    0    0  501    0  0.00000000000E+00  0.00000000000E+00  0.13245673842E+02  0.13245674097E+02  0.26000000000E-02 0. -1.
         -2   -1    0    0    0  501 -0.00000000000E+00 -0.00000000000E+00 -0.75555981812E+01  0.75555986286E+01  0.26000000000E-02 0.  1.
       1023    2    1    2    0    0  0.00000000000E+00  0.00000000000E+00  0.56900756606E+01  0.20801272726E+02  0.20007898090E+02 0.  0.
        -13    1    3    3    0    0  0.58483675550E+01 -0.81153228364E+01  0.29252745818E+01  0.10422584692E+02  0.10570000000E+00 0. -1.
         13    1    3    3    0    0 -0.58483675550E+01  0.81153228364E+01  0.27648010787E+01  0.10378688033E+02  0.10570000000E+00 0.  1.
<mgrwt>
<rscale>  0 0.20007898E+02</rscale>
<asrwt>0</asrwt>
<pdfrwt beam="1">  1        2 0.20377960E-02 0.20007898E+02</pdfrwt>
<pdfrwt beam="2">  1       -2 0.11623998E-02 0.20007898E+02</pdfrwt>
<totfact> 0.40262420E+06</totfact>
</mgrwt>
</event>
<event>
 5    1  0.1607476E-006  0.2000547E+02  0.7818608E-02  0.1745219E+00
         -2   -1    0    0    0  501 -0.00000000000E+00  0.00000000000E+00  0.35847595840E+01  0.35847605269E+01  0.26000000000E-02 0. -1.
          2   -1    0    0  501    0  0.00000000000E+00 -0.00000000000E+00 -0.27911134964E+02  0.27911135086E+02  0.26000000000E-02 0.  1.
       1023    2    1    2    0    0  0.00000000000E+00  0.00000000000E+00 -0.24326375380E+02  0.31495895612E+02  0.20005471784E+02 0.  0.
        -13    1    3    3    0    0  0.34811963059E+00 -0.99954034188E+01 -0.12351296514E+02  0.15893236764E+02  0.10570000000E+00 0. -1.
         13    1    3    3    0    0 -0.34811963059E+00  0.99954034188E+01 -0.11975078866E+02  0.15602658848E+02  0.10570000000E+00 0.  1.
<mgrwt>
<rscale>  0 0.20005472E+02</rscale>
<asrwt>0</asrwt>
<pdfrwt beam="2">  1        2 0.42940207E-02 0.20005472E+02</pdfrwt>
<pdfrwt beam="1">  1       -2 0.55150158E-03 0.20005472E+02</pdfrwt>
<totfact> 0.43011710E+06</totfact>
</mgrwt>
</event>
<event>
 5    1  0.1607476E-006  0.2000452E+02  0.7818608E-02  0.1745238E+00
          2   -1    0    0  501    0  0.00000000000E+00  0.00000000000E+00  0.40328951779E+01  0.40328960160E+01  0.26000000000E-02 0.  1.
         -2   -1    0    0    0  501 -0.00000000000E+00 -0.00000000000E+00 -0.24807276355E+02  0.24807276491E+02  0.26000000000E-02 0. -1.
       1023    2    1    2    0    0  0.00000000000E+00  0.00000000000E+00 -0.20774381177E+02  0.28840172508E+02  0.20004515414E+02 0.  0.
        -13    1    3    3    0    0  0.46864126072E+01  0.88344924491E+01 -0.10167284081E+02  0.14261681459E+02  0.10570000000E+00 0.  1.
         13    1    3    3    0    0 -0.46864126072E+01 -0.88344924491E+01 -0.10607097096E+02  0.14578491049E+02  0.10570000000E+00 0. -1.
<mgrwt>
<rscale>  0 0.20004515E+02</rscale>
<asrwt>0</asrwt>
<pdfrwt beam="1">  1        2 0.62044550E-03 0.20004515E+02</pdfrwt>
<pdfrwt beam="2">  1       -2 0.38165040E-02 0.20004515E+02</pdfrwt>
<totfact> 0.36717119E+06</totfact>
</mgrwt>
</event>
<event>
 5    1  0.1607476E-006  0.2001083E+02  0.7818608E-02  0.1745113E+00
         -2   -1    0    0    0  501 -0.00000000000E+00  0.00000000000E+00  0.38205796047E+02  0.38205796136E+02  0.26000000000E-02 0.  1.
          2   -1    0    0  501    0  0.00000000000E+00 -0.00000000000E+00 -0.26202392819E+01  0.26202405718E+01  0.26000000000E-02 0. -1.
       1023    2    1    2    0    0  0.00000000000E+00  0.00000000000E+00  0.35585556766E+02  0.40826036708E+02  0.20010832640E+02 0.  0.
        -13    1    3    3    0    0  0.95490399823E+01  0.29853915286E+01  0.17836349092E+02  0.20450996274E+02  0.10570000000E+00 0. -1.
         13    1    3    3    0    0 -0.95490399823E+01 -0.29853915286E+01  0.17749207674E+02  0.20375040434E+02  0.10570000000E+00 0.  1.
<mgrwt>
<rscale>  0 0.20010833E+02</rscale>
<asrwt>0</asrwt>
<pdfrwt beam="2">  1        2 0.40311386E-03 0.20010833E+02</pdfrwt>
<pdfrwt beam="1">  1       -2 0.58778146E-02 0.20010833E+02</pdfrwt>
<totfact> 0.35073439E+06</totfact>
</mgrwt>
</event>
<event>
 5    1  0.1607476E-006  0.2000602E+02  0.7818608E-02  0.1745208E+00
          2   -1    0    0  501    0  0.00000000000E+00  0.00000000000E+00  0.78872947268E+02  0.78872947310E+02  0.26000000000E-02 0.  1.
         -2   -1    0    0    0  501 -0.00000000000E+00 -0.00000000000E+00 -0.12686232901E+01  0.12686259544E+01  0.26000000000E-02 0. -1.
       1023    2    1    2    0    0  0.00000000000E+00  0.00000000000E+00  0.77604323977E+02  0.80141573265E+02  0.20006015730E+02 0.  0.
        -13    1    3    3    0    0  0.92715729260E+01  0.37530372053E+01  0.38639883755E+02  0.39913646061E+02  0.10570000000E+00 0. -1.
         13    1    3    3    0    0 -0.92715729260E+01 -0.37530372053E+01  0.38964440223E+02  0.40227927204E+02  0.10570000000E+00 0.  1.
<mgrwt>
<rscale>  0 0.20006016E+02</rscale>
<asrwt>0</asrwt>
<pdfrwt beam="1">  1        2 0.12134300E-01 0.20006016E+02</pdfrwt>
<pdfrwt beam="2">  1       -2 0.19517302E-03 0.20006016E+02</pdfrwt>
<totfact> 0.50123879E+06</totfact>
</mgrwt>
</event>
<event>
 5    1  0.1607476E-006  0.2000939E+02  0.7818608E-02  0.1745141E+00
         -2   -1    0    0    0  501 -0.00000000000E+00  0.00000000000E+00  0.38747227173E+01  0.38747235896E+01  0.26000000000E-02 0.  1.
          2   -1    0    0  501    0  0.00000000000E+00 -0.00000000000E+00 -0.25832545063E+02  0.25832545194E+02  0.26000000000E-02 0. -1.
       1023    2    1    2    0    0  0.00000000000E+00  0.00000000000E+00 -0.21957822346E+02  0.29707268783E+02  0.20009394204E+02 0.  0.
        -13    1    3    3    0    0 -0.52919213537E+00 -0.99873128908E+01 -0.10626546032E+02  0.14593187320E+02  0.10570000000E+00 0.  1.
         13    1    3    3    0    0  0.52919213537E+00  0.99873128908E+01 -0.11331276314E+02  0.15114081463E+02  0.10570000000E+00 0. -1.
<mgrwt>
<rscale>  0 0.20009394E+02</rscale>
<asrwt>0</asrwt>
<pdfrwt beam="2">  1        2 0.39742377E-02 0.20009394E+02</pdfrwt>
<pdfrwt beam="1">  1       -2 0.59611128E-03 0.20009394E+02</pdfrwt>
<totfact> 0.42651219E+06</totfact>
</mgrwt>
</event>
<event>
 5    1  0.1607476E-006  0.2000298E+02  0.7818608E-02  0.1745269E+00
         -2   -1    0    0    0  501 -0.00000000000E+00  0.00000000000E+00  0.11894354497E+03  0.11894354500E+03  0.26000000000E-02 0.  1.
          2   -1    0    0  501    0  0.00000000000E+00 -0.00000000000E+00 -0.84098336881E+00  0.84098738790E+00  0.26000000000E-02 0. -1.
       1023    2    1    2    0    0  0.00000000000E+00  0.00000000000E+00  0.11810256160E+03  0.11978453239E+03  0.20002978334E+02 0.  0.
        -13    1    3    3    0    0 -0.98003244398E+00  0.99527557599E+01  0.59220896078E+02  0.60059499795E+02  0.10570000000E+00 0. -1.
         13    1    3    3    0    0  0.98003244398E+00 -0.99527557599E+01  0.58881665524E+02  0.59725032592E+02  0.10570000000E+00 0.  1.
<mgrwt>
<rscale>  0 0.20002978E+02</rscale>
<asrwt>0</asrwt>
<pdfrwt beam="2">  1        2 0.12938234E-03 0.20002978E+02</pdfrwt>
<pdfrwt beam="1">  1       -2 0.18299012E-01 0.20002978E+02</pdfrwt>
<totfact> 0.28402255E+06</totfact>
</mgrwt>
</event>
<event>
 4    1  0.1607476E-006  0.2001331E+02  0.7818608E-02  0.1745064E+00
          2   -1    0    0  501    0  0.00000000000E+00  0.00000000000E+00  0.20372131502E+02  0.20372131668E+02  0.26000000000E-02 0. -1.
         -2   -1    0    0    0  501 -0.00000000000E+00 -0.00000000000E+00 -0.49152002605E+01  0.49152009481E+01  0.26000000000E-02 0.  1.
        -13    1    1    2    0    0 -0.81489357821E+01  0.58038990659E+01  0.79528815572E+01  0.12780840986E+02  0.10570000000E+00 0. -1.
         13    1    1    2    0    0  0.81489357821E+01 -0.58038990659E+01  0.75040496847E+01  0.12506491631E+02  0.10570000000E+00 0.  1.
<mgrwt>
<rscale>  0 0.20013307E+02</rscale>
<asrwt>0</asrwt>
<pdfrwt beam="1">  1        2 0.31341741E-02 0.20013307E+02</pdfrwt>
<pdfrwt beam="2">  1       -2 0.75618472E-03 0.20013307E+02</pdfrwt>
<totfact> 0.41683756E+06</totfact>
</mgrwt>
</event>
<event>
 4    1  0.1607476E-006  0.2004911E+02  0.7818608E-02  0.1744353E+00
          2   -1    0    0  501    0  0.00000000000E+00  0.00000000000E+00  0.10544065625E+03  0.10544065628E+03  0.26000000000E-02 0. -1.
         -2   -1    0    0    0  501 -0.00000000000E+00 -0.00000000000E+00 -0.95306231201E+00  0.95306585847E+00  0.26000000000E-02 0.  1.
        -13    1    1    2    0    0  0.74321116433E+01  0.66947054666E+01  0.48783594113E+02  0.49798650502E+02  0.10570000000E+00 0. -1.
         13    1    1    2    0    0 -0.74321116433E+01 -0.66947054666E+01  0.55703999827E+02  0.56595071640E+02  0.10570000000E+00 0.  1.
<mgrwt>
<rscale>  0 0.20049110E+02</rscale>
<asrwt>0</asrwt>
<pdfrwt beam="1">  1        2 0.16221645E-01 0.20049110E+02</pdfrwt>
<pdfrwt beam="2">  1       -2 0.14662520E-03 0.20049110E+02</pdfrwt>
<totfact> 0.53116685E+06</totfact>
</mgrwt>
</event>
<event>
 5    1  0.1607476E-006  0.2000172E+02  0.7818608E-02  0.1745294E+00
          2   -1    0    0  501    0  0.00000000000E+00  0.00000000000E+00  0.11962839391E+01  0.11962867645E+01  0.26000000000E-02 0. -1.
         -2   -1    0    0    0  501 -0.00000000000E+00 -0.00000000000E+00 -0.83606466683E+02  0.83606466723E+02  0.26000000000E-02 0.  1.
       1023    2    1    2    0    0  0.00000000000E+00  0.00000000000E+00 -0.82410182744E+02  0.84802753488E+02  0.20001719407E+02 0.  0.
        -13    1    3    3    0    0  0.95090958946E+01  0.30955627498E+01 -0.41309707225E+02  0.42503041033E+02  0.10570000000E+00 0.  1.
         13    1    3    3    0    0 -0.95090958946E+01 -0.30955627498E+01 -0.41100475518E+02  0.42299712455E+02  0.10570000000E+00 0. -1.
<mgrwt>
<rscale>  0 0.20001719E+02</rscale>
<asrwt>0</asrwt>
<pdfrwt beam="1">  1        2 0.18404397E-03 0.20001719E+02</pdfrwt>
<pdfrwt beam="2">  1       -2 0.12862529E-01 0.20001719E+02</pdfrwt>
<totfact> 0.30965480E+06</totfact>
</mgrwt>
</event>
<event>
 5    1  0.1607476E-006  0.2000305E+02  0.7818608E-02  0.1745267E+00
          2   -1    0    0  501    0  0.00000000000E+00  0.00000000000E+00  0.11174095418E+02  0.11174095721E+02  0.26000000000E-02 0.  1.
         -2   -1    0    0    0  501 -0.00000000000E+00 -0.00000000000E+00 -0.89520002972E+01  0.89520006747E+01  0.26000000000E-02 0. -1.
       1023    2    1    2    0    0  0.00000000000E+00  0.00000000000E+00  0.22220951212E+01  0.20126096396E+02  0.20003051002E+02 0.  0.
        -13    1    3    3    0    0 -0.99435500495E+01  0.10691168646E+01  0.11576075120E+01  0.10068188819E+02  0.10570000000E+00 0.  1.
         13    1    3    3    0    0  0.99435500495E+01 -0.10691168646E+01  0.10644876092E+01  0.10057907576E+02  0.10570000000E+00 0. -1.
<mgrwt>
<rscale>  0 0.20003051E+02</rscale>
<asrwt>0</asrwt>
<pdfrwt beam="1">  1        2 0.17190916E-02 0.20003051E+02</pdfrwt>
<pdfrwt beam="2">  1       -2 0.13772309E-02 0.20003051E+02</pdfrwt>
<totfact> 0.39773198E+06</totfact>
</mgrwt>
</event>
<event>
 4    1  0.1607476E-006  0.2001863E+02  0.7818608E-02  0.1744958E+00
          2   -1    0    0  501    0  0.00000000000E+00  0.00000000000E+00  0.16445357148E+02  0.16445357354E+02  0.26000000000E-02 0.  1.
         -2   -1    0    0    0  501 -0.00000000000E+00 -0.00000000000E+00 -0.60920798056E+01  0.60920803604E+01  0.26000000000E-02 0. -1.
        -13    1    1    2    0    0 -0.60813355652E+01 -0.79482796200E+01  0.53254564612E+01  0.11337082966E+02  0.10570000000E+00 0. -1.
         13    1    1    2    0    0  0.60813355652E+01  0.79482796200E+01  0.50278208817E+01  0.11200354748E+02  0.10570000000E+00 0.  1.
<mgrwt>
<rscale>  0 0.20018635E+02</rscale>
<asrwt>0</asrwt>
<pdfrwt beam="1">  1        2 0.25300550E-02 0.20018635E+02</pdfrwt>
<pdfrwt beam="2">  1       -2 0.93724312E-03 0.20018635E+02</pdfrwt>
<totfact> 0.40905121E+06</totfact>
</mgrwt>
</event>
<event>
 5    1  0.1607476E-006  0.2000264E+02  0.7818608E-02  0.1745276E+00
          2   -1    0    0  501    0  0.00000000000E+00  0.00000000000E+00  0.14246038389E+02  0.14246038626E+02  0.26000000000E-02 0.  1.
         -2   -1    0    0    0  501 -0.00000000000E+00 -0.00000000000E+00 -0.70213482354E+01  0.70213487168E+01  0.26000000000E-02 0. -1.
       1023    2    1    2    0    0  0.00000000000E+00  0.00000000000E+00  0.72246901532E+01  0.21267387343E+02  0.20002640240E+02 0.  0.
        -13    1    3    3    0    0  0.91180044687E+01  0.41067159641E+01  0.37293493240E+01  0.10673440887E+02  0.10570000000E+00 0. -1.
         13    1    3    3    0    0 -0.91180044687E+01 -0.41067159641E+01  0.34953408293E+01  0.10593946456E+02  0.10570000000E+00 0.  1.
<mgrwt>
<rscale>  0 0.20002640E+02</rscale>
<asrwt>0</asrwt>
<pdfrwt beam="1">  1        2 0.21916983E-02 0.20002640E+02</pdfrwt>
<pdfrwt beam="2">  1       -2 0.10802075E-02 0.20002640E+02</pdfrwt>
<totfact> 0.40513161E+06</totfact>
</mgrwt>
</event>
<event>
 5    1  0.1607476E-006  0.2000590E+02  0.7818608E-02  0.1745211E+00
         -2   -1    0    0    0  501 -0.00000000000E+00  0.00000000000E+00  0.16269977822E+01  0.16269998596E+01  0.26000000000E-02 0.  1.
          2   -1    0    0  501    0  0.00000000000E+00 -0.00000000000E+00 -0.61499106304E+02  0.61499106359E+02  0.26000000000E-02 0. -1.
       1023    2    1    2    0    0  0.00000000000E+00  0.00000000000E+00 -0.59872108522E+02  0.63126106218E+02  0.20005896817E+02 0.  0.
        -13    1    3    3    0    0 -0.48874354959E+01 -0.87269875452E+01 -0.29867863442E+02  0.31498377362E+02  0.10570000000E+00 0.  1.
         13    1    3    3    0    0  0.48874354959E+01  0.87269875452E+01 -0.30004245080E+02  0.31627728857E+02  0.10570000000E+00 0. -1.
<mgrwt>
<rscale>  0 0.20005897E+02</rscale>
<asrwt>0</asrwt>
<pdfrwt beam="2">  1        2 0.94613993E-02 0.20005897E+02</pdfrwt>
<pdfrwt beam="1">  1       -2 0.25030756E-03 0.20005897E+02</pdfrwt>
<totfact> 0.47867465E+06</totfact>
</mgrwt>
</event>
<event>
 5    1  0.1607476E-006  0.2000173E+02  0.7818608E-02  0.1745294E+00
          2   -1    0    0  501    0  0.00000000000E+00  0.00000000000E+00  0.27079332437E+01  0.27079344919E+01  0.26000000000E-02 0. -1.
         -2   -1    0    0    0  501 -0.00000000000E+00 -0.00000000000E+00 -0.36934906195E+02  0.36934906286E+02  0.26000000000E-02 0.  1.
       1023    2    1    2    0    0  0.00000000000E+00  0.00000000000E+00 -0.34226972951E+02  0.39642840778E+02  0.20001728614E+02 0.  0.
        -13    1    3    3    0    0 -0.98569777763E+01  0.16857702177E+01 -0.16983787850E+02  0.19709440741E+02  0.10570000000E+00 0. -1.
         13    1    3    3    0    0  0.98569777763E+01 -0.16857702177E+01 -0.17243185101E+02  0.19933400037E+02  0.10570000000E+00 0.  1.
<mgrwt>
<rscale>  0 0.20001729E+02</rscale>
<asrwt>0</asrwt>
<pdfrwt beam="1">  1        2 0.41660524E-03 0.20001729E+02</pdfrwt>
<pdfrwt beam="2">  1       -2 0.56822930E-02 0.20001729E+02</pdfrwt>
<totfact> 0.35248474E+06</totfact>
</mgrwt>
</event>
<event>
 5    1  0.1607476E-006  0.2000154E+02  0.7818608E-02  0.1745298E+00
         -2   -1    0    0    0  501 -0.00000000000E+00  0.00000000000E+00  0.39144000308E+01  0.39144008942E+01  0.26000000000E-02 0. -1.
          2   -1    0    0  501    0  0.00000000000E+00 -0.00000000000E+00 -0.25550617835E+02  0.25550617967E+02  0.26000000000E-02 0.  1.
       1023    2    1    2    0    0  0.00000000000E+00  0.00000000000E+00 -0.21636217804E+02  0.29465018861E+02  0.20001535332E+02 0.  0.
        -13    1    3    3    0    0 -0.73756016778E+01 -0.67529331551E+01 -0.10743353695E+02  0.14677616544E+02  0.10570000000E+00 0.  1.
         13    1    3    3    0    0  0.73756016778E+01  0.67529331551E+01 -0.10892864109E+02  0.14787402317E+02  0.10570000000E+00 0. -1.
<mgrwt>
<rscale>  0 0.20001535E+02</rscale>
<asrwt>0</asrwt>
<pdfrwt beam="2">  1        2 0.39308642E-02 0.20001535E+02</pdfrwt>
<pdfrwt beam="1">  1       -2 0.60221548E-03 0.20001535E+02</pdfrwt>
<totfact> 0.42641787E+06</totfact>
</mgrwt>
</event>
<event>
 5    1  0.1607476E-006  0.2000711E+02  0.7818608E-02  0.1745187E+00
          2   -1    0    0  501    0  0.00000000000E+00  0.00000000000E+00  0.71524491105E+01  0.71524495831E+01  0.26000000000E-02 0.  1.
         -2   -1    0    0    0  501 -0.00000000000E+00 -0.00000000000E+00 -0.13991170879E+02  0.13991171120E+02  0.26000000000E-02 0. -1.
       1023    2    1    2    0    0  0.00000000000E+00  0.00000000000E+00 -0.68387217681E+01  0.21143620703E+02  0.20007113261E+02 0.  0.
        -13    1    3    3    0    0 -0.43464790518E+01  0.90071960201E+01 -0.36267546191E+01  0.10638890067E+02  0.10570000000E+00 0.  1.
         13    1    3    3    0    0  0.43464790518E+01 -0.90071960201E+01 -0.32119671490E+01  0.10504730637E+02  0.10570000000E+00 0. -1.
<mgrwt>
<rscale>  0 0.20007113E+02</rscale>
<asrwt>0</asrwt>
<pdfrwt beam="1">  1        2 0.11003768E-02 0.20007113E+02</pdfrwt>
<pdfrwt beam="2">  1       -2 0.21524879E-02 0.20007113E+02</pdfrwt>
<totfact> 0.38469885E+06</totfact>
</mgrwt>
</event>
<event>
 4    1  0.1607476E-006  0.2002341E+02  0.7818608E-02  0.1744863E+00
         -2   -1    0    0    0  501 -0.00000000000E+00  0.00000000000E+00  0.14016670960E+01  0.14016695075E+01  0.26000000000E-02 0. -1.
          2   -1    0    0  501    0  0.00000000000E+00 -0.00000000000E+00 -0.71510658404E+02  0.71510658452E+02  0.26000000000E-02 0.  1.
        -13    1    1    2    0    0 -0.30479681896E+01  0.95296712904E+01 -0.36306978955E+02  0.37660491743E+02  0.10570000000E+00 0. -1.
         13    1    1    2    0    0  0.30479681896E+01 -0.95296712904E+01 -0.33802012353E+02  0.35251836216E+02  0.10570000000E+00 0.  1.
<mgrwt>
<rscale>  0 0.20023409E+02</rscale>
<asrwt>0</asrwt>
<pdfrwt beam="2">  1        2 0.11001637E-01 0.20023409E+02</pdfrwt>
<pdfrwt beam="1">  1       -2 0.21564134E-03 0.20023409E+02</pdfrwt>
<totfact> 0.49088316E+06</totfact>
</mgrwt>
</event>
<event>
 4    1  0.1607476E-006  0.2003851E+02  0.7818608E-02  0.1744563E+00
         -2   -1    0    0    0  501 -0.00000000000E+00  0.00000000000E+00  0.38204228588E+01  0.38204237436E+01  0.26000000000E-02 0.  1.
          2   -1    0    0  501    0  0.00000000000E+00 -0.00000000000E+00 -0.26276018228E+02  0.26276018356E+02  0.26000000000E-02 0. -1.
        -13    1    1    2    0    0  0.13102027256E+01 -0.99315798097E+01 -0.11007906051E+02  0.14884155227E+02  0.10570000000E+00 0.  1.
         13    1    1    2    0    0 -0.13102027256E+01  0.99315798097E+01 -0.11447689317E+02  0.15212286873E+02  0.10570000000E+00 0. -1.
<mgrwt>
<rscale>  0 0.20038515E+02</rscale>
<asrwt>0</asrwt>
<pdfrwt beam="2">  1        2 0.40424643E-02 0.20038515E+02</pdfrwt>
<pdfrwt beam="1">  1       -2 0.58775746E-03 0.20038515E+02</pdfrwt>
<totfact> 0.42585552E+06</totfact>
</mgrwt>
</event>
<event>
 5    1  0.1607476E-006  0.2000137E+02  0.7818608E-02  0.1745301E+00
         -2   -1    0    0    0  501 -0.00000000000E+00  0.00000000000E+00  0.19854022480E+01  0.19854039505E+01  0.26000000000E-02 0.  1.
          2   -1    0    0  501    0  0.00000000000E+00 -0.00000000000E+00 -0.50374519036E+02  0.50374519103E+02  0.26000000000E-02 0. -1.
       1023    2    1    2    0    0  0.00000000000E+00  0.00000000000E+00 -0.48389116788E+02  0.52359923054E+02  0.20001372919E+02 0.  0.
        -13    1    3    3    0    0 -0.96417217099E+01 -0.26532468711E+01 -0.24211256142E+02  0.26195392972E+02  0.10570000000E+00 0.  1.
         13    1    3    3    0    0  0.96417217099E+01  0.26532468711E+01 -0.24177860646E+02  0.26164530082E+02  0.10570000000E+00 0. -1.
<mgrwt>
<rscale>  0 0.20001373E+02</rscale>
<asrwt>0</asrwt>
<pdfrwt beam="2">  1        2 0.77499252E-02 0.20001373E+02</pdfrwt>
<pdfrwt beam="1">  1       -2 0.30544667E-03 0.20001373E+02</pdfrwt>
<totfact> 0.46373313E+06</totfact>
</mgrwt>
</event>
<event>
 5    1  0.1607476E-006  0.2000270E+02  0.7818608E-02  0.1745274E+00
          2   -1    0    0  501    0  0.00000000000E+00  0.00000000000E+00  0.46605638742E+01  0.46605645994E+01  0.26000000000E-02 0. -1.
         -2   -1    0    0    0  501 -0.00000000000E+00 -0.00000000000E+00 -0.21462422000E+02  0.21462422157E+02  0.26000000000E-02 0.  1.
       1023    2    1    2    0    0  0.00000000000E+00  0.00000000000E+00 -0.16801858126E+02  0.26122986757E+02  0.20002699833E+02 0.  0.
        -13    1    3    3    0    0 -0.83908292496E+01 -0.54412470800E+01 -0.83337966790E+01  0.13018314978E+02  0.10570000000E+00 0.  1.
         13    1    3    3    0    0  0.83908292496E+01  0.54412470800E+01 -0.84680614466E+01  0.13104671779E+02  0.10570000000E+00 0. -1.
<mgrwt>
<rscale>  0 0.20002700E+02</rscale>
<asrwt>0</asrwt>
<pdfrwt beam="1">  1        2 0.71700991E-03 0.20002700E+02</pdfrwt>
<pdfrwt beam="2">  1       -2 0.33019111E-02 0.20002700E+02</pdfrwt>
<totfact> 0.37200089E+06</totfact>
</mgrwt>
</event>
<event>
 5    1  0.1607476E-006  0.2000212E+02  0.7818608E-02  0.1745286E+00
         -2   -1    0    0    0  501 -0.00000000000E+00  0.00000000000E+00  0.77569894904E+02  0.77569894948E+02  0.26000000000E-02 0. -1.
          2   -1    0    0  501    0  0.00000000000E+00 -0.00000000000E+00 -0.12894312820E+01  0.12894339033E+01  0.26000000000E-02 0.  1.
       1023    2    1    2    0    0  0.00000000000E+00  0.00000000000E+00  0.76280463622E+02  0.78859328851E+02  0.20002115298E+02 0.  0.
        -13    1    3    3    0    0  0.72924589808E+01  0.68431934511E+01  0.38246535786E+02  0.39532492038E+02  0.10570000000E+00 0.  1.
         13    1    3    3    0    0 -0.72924589808E+01 -0.68431934511E+01  0.38033927836E+02  0.39326836813E+02  0.10570000000E+00 0. -1.
<mgrwt>
<rscale>  0 0.20002115E+02</rscale>
<asrwt>0</asrwt>
<pdfrwt beam="2">  1        2 0.19837416E-03 0.20002115E+02</pdfrwt>
<pdfrwt beam="1">  1       -2 0.11933836E-01 0.20002115E+02</pdfrwt>
<totfact> 0.31446849E+06</totfact>
</mgrwt>
</event>
<event>
 5    1  0.1607476E-006  0.2000250E+02  0.7818608E-02  0.1745278E+00
          2   -1    0    0  501    0  0.00000000000E+00  0.00000000000E+00  0.22580058127E+01  0.22580073096E+01  0.26000000000E-02 0.  1.
         -2   -1    0    0    0  501 -0.00000000000E+00 -0.00000000000E+00 -0.44297916420E+02  0.44297916496E+02  0.26000000000E-02 0. -1.
       1023    2    1    2    0    0  0.00000000000E+00  0.00000000000E+00 -0.42039910607E+02  0.46555923806E+02  0.20002498782E+02 0.  0.
        -13    1    3    3    0    0 -0.76094200139E+01 -0.64892610714E+01 -0.21006245806E+02  0.23265582253E+02  0.10570000000E+00 0.  1.
         13    1    3    3    0    0  0.76094200139E+01  0.64892610714E+01 -0.21033664801E+02  0.23290341553E+02  0.10570000000E+00 0. -1.
<mgrwt>
<rscale>  0 0.20002499E+02</rscale>
<asrwt>0</asrwt>
<pdfrwt beam="1">  1        2 0.34738566E-03 0.20002499E+02</pdfrwt>
<pdfrwt beam="2">  1       -2 0.68150635E-02 0.20002499E+02</pdfrwt>
<totfact> 0.34459812E+06</totfact>
</mgrwt>
</event>
<event>
 4    1  0.1607476E-006  0.2003666E+02  0.7818608E-02  0.1744600E+00
         -2   -1    0    0    0  501 -0.00000000000E+00  0.00000000000E+00  0.28254992919E+02  0.28254993039E+02  0.26000000000E-02 0.  1.
          2   -1    0    0  501    0  0.00000000000E+00 -0.00000000000E+00 -0.35521840243E+01  0.35521849759E+01  0.26000000000E-02 0. -1.
        -13    1    1    2    0    0  0.10495945327E+01  0.99602052876E+01  0.12700790921E+02  0.16174937421E+02  0.10570000000E+00 0.  1.
         13    1    1    2    0    0 -0.10495945327E+01 -0.99602052876E+01  0.12002017973E+02  0.15632240593E+02  0.10570000000E+00 0. -1.
<mgrwt>
<rscale>  0 0.20036662E+02</rscale>
<asrwt>0</asrwt>
<pdfrwt beam="2">  1        2 0.54648993E-03 0.20036662E+02</pdfrwt>
<pdfrwt beam="1">  1       -2 0.43469221E-02 0.20036662E+02</pdfrwt>
<totfact> 0.36137864E+06</totfact>
</mgrwt>
</event>
<event>
 5    1  0.1607476E-006  0.2000117E+02  0.7818608E-02  0.1745305E+00
          2   -1    0    0  501    0  0.00000000000E+00  0.00000000000E+00  0.81469005489E+01  0.81469009637E+01  0.26000000000E-02 0.  1.
         -2   -1    0    0    0  501 -0.00000000000E+00 -0.00000000000E+00 -0.12276044352E+02  0.12276044627E+02  0.26000000000E-02 0. -1.
       1023    2    1    2    0    0  0.00000000000E+00  0.00000000000E+00 -0.41291438030E+01  0.20422945591E+02  0.20001171917E+02 0.  0.
        -13    1    3    3    0    0 -0.83875565326E+01 -0.54451300363E+01 -0.20657477561E+01  0.10211710532E+02  0.10570000000E+00 0.  1.
         13    1    3    3    0    0  0.83875565326E+01  0.54451300363E+01 -0.20633960469E+01  0.10211235059E+02  0.10570000000E+00 0. -1.
<mgrwt>
<rscale>  0 0.20001172E+02</rscale>
<asrwt>0</asrwt>
<pdfrwt beam="1">  1        2 0.12533694E-02 0.20001172E+02</pdfrwt>
<pdfrwt beam="2">  1       -2 0.18886223E-02 0.20001172E+02</pdfrwt>
<totfact> 0.38869893E+06</totfact>
</mgrwt>
</event>
<event>
 5    1  0.1607476E-006  0.2000115E+02  0.7818608E-02  0.1745305E+00
         -2   -1    0    0    0  501 -0.00000000000E+00  0.00000000000E+00  0.10005442220E+01  0.10005476002E+01  0.26000000000E-02 0. -1.
          2   -1    0    0  501    0  0.00000000000E+00 -0.00000000000E+00 -0.99956880293E+02  0.99956880327E+02  0.26000000000E-02 0.  1.
       1023    2    1    2    0    0  0.00000000000E+00  0.00000000000E+00 -0.98956336071E+02  0.10095742793E+03  0.20001145093E+02 0.  0.
        -13    1    3    3    0    0  0.79831776876E+01 -0.60223868437E+01 -0.49462624970E+02  0.50463478979E+02  0.10570000000E+00 0.  1.
         13    1    3    3    0    0 -0.79831776876E+01  0.60223868437E+01 -0.49493711101E+02  0.50493948947E+02  0.10570000000E+00 0. -1.
<mgrwt>
<rscale>  0 0.20001145E+02</rscale>
<asrwt>0</asrwt>
<pdfrwt beam="2">  1        2 0.15377974E-01 0.20001145E+02</pdfrwt>
<pdfrwt beam="1">  1       -2 0.15393022E-03 0.20001145E+02</pdfrwt>
<totfact> 0.52746122E+06</totfact>
</mgrwt>
</event>
<event>
 4    1  0.1607476E-006  0.2024530E+02  0.7818608E-02  0.1740494E+00
          2   -1    0    0  501    0  0.00000000000E+00  0.00000000000E+00  0.37321191602E+02  0.37321191692E+02  0.26000000000E-02 0. -1.
         -2   -1    0    0    0  501 -0.00000000000E+00 -0.00000000000E+00 -0.27455719766E+01  0.27455732077E+01  0.26000000000E-02 0.  1.
        -13    1    1    2    0    0  0.73422574842E+01 -0.69543238788E+01  0.16435417976E+02  0.19297810812E+02  0.10570000000E+00 0. -1.
         13    1    1    2    0    0 -0.73422574842E+01  0.69543238788E+01  0.18140201649E+02  0.20768954089E+02  0.10570000000E+00 0.  1.
<mgrwt>
<rscale>  0 0.20245300E+02</rscale>
<asrwt>0</asrwt>
<pdfrwt beam="1">  1        2 0.57417212E-02 0.20245300E+02</pdfrwt>
<pdfrwt beam="2">  1       -2 0.42239584E-03 0.20245300E+02</pdfrwt>
<totfact> 0.43301555E+06</totfact>
</mgrwt>
</event>
<event>
 5    1  0.1607476E-006  0.2000358E+02  0.7818608E-02  0.1745257E+00
          2   -1    0    0  501    0  0.00000000000E+00  0.00000000000E+00  0.23434654781E+01  0.23434669204E+01  0.26000000000E-02 0. -1.
         -2   -1    0    0    0  501 -0.00000000000E+00 -0.00000000000E+00 -0.42687098171E+02  0.42687098251E+02  0.26000000000E-02 0.  1.
       1023    2    1    2    0    0  0.00000000000E+00  0.00000000000E+00 -0.40343632693E+02  0.45030565171E+02  0.20003577198E+02 0.  0.
        -13    1    3    3    0    0  0.94533765926E+01 -0.32640335628E+01 -0.20320434812E+02  0.22648432341E+02  0.10570000000E+00 0.  1.
         13    1    3    3    0    0 -0.94533765926E+01  0.32640335628E+01 -0.20023197882E+02  0.22382132830E+02  0.10570000000E+00 0. -1.
<mgrwt>
<rscale>  0 0.20003577E+02</rscale>
<asrwt>0</asrwt>
<pdfrwt beam="1">  1        2 0.36053330E-03 0.20003577E+02</pdfrwt>
<pdfrwt beam="2">  1       -2 0.65672454E-02 0.20003577E+02</pdfrwt>
<totfact> 0.34622492E+06</totfact>
</mgrwt>
</event>
<event>
 5    1  0.1607476E-006  0.2000150E+02  0.7818608E-02  0.1745298E+00
          2   -1    0    0  501    0  0.00000000000E+00  0.00000000000E+00  0.48817242309E+01  0.48817249233E+01  0.26000000000E-02 0.  1.
         -2   -1    0    0    0  501 -0.00000000000E+00 -0.00000000000E+00 -0.20487632711E+02  0.20487632876E+02  0.26000000000E-02 0. -1.
       1023    2    1    2    0    0  0.00000000000E+00  0.00000000000E+00 -0.15605908480E+02  0.25369357799E+02  0.20001498335E+02 0.  0.
        -13    1    3    3    0    0 -0.24292214708E+01  0.97005548373E+01 -0.78586807049E+01  0.12718958920E+02  0.10570000000E+00 0. -1.
         13    1    3    3    0    0  0.24292214708E+01 -0.97005548373E+01 -0.77472277753E+01  0.12650398879E+02  0.10570000000E+00 0.  1.
<mgrwt>
<rscale>  0 0.20001498E+02</rscale>
<asrwt>0</asrwt>
<pdfrwt beam="1">  1        2 0.75103458E-03 0.20001498E+02</pdfrwt>
<pdfrwt beam="2">  1       -2 0.31519435E-02 0.20001498E+02</pdfrwt>
<totfact> 0.37352333E+06</totfact>
</mgrwt>
</event>
<event>
 5    1  0.1607476E-006  0.2000488E+02  0.7818608E-02  0.1745231E+00
          2   -1    0    0  501    0  0.00000000000E+00  0.00000000000E+00  0.35921002543E+01  0.35921011952E+01  0.26000000000E-02 0.  1.
         -2   -1    0    0    0  501 -0.00000000000E+00 -0.00000000000E+00 -0.27852435863E+02  0.27852435984E+02  0.26000000000E-02 0. -1.
       1023    2    1    2    0    0  0.00000000000E+00  0.00000000000E+00 -0.24260335609E+02  0.31444537179E+02  0.20004875270E+02 0.  0.
        -13    1    3    3    0    0  0.30221167071E+01 -0.95325248905E+01 -0.12425766283E+02  0.15950331044E+02  0.10570000000E+00 0.  1.
         13    1    3    3    0    0 -0.30221167071E+01  0.95325248905E+01 -0.11834569325E+02  0.15494206136E+02  0.10570000000E+00 0. -1.
<mgrwt>
<rscale>  0 0.20004875E+02</rscale>
<asrwt>0</asrwt>
<pdfrwt beam="1">  1        2 0.55263091E-03 0.20004875E+02</pdfrwt>
<pdfrwt beam="2">  1       -2 0.42849901E-02 0.20004875E+02</pdfrwt>
<totfact> 0.36314366E+06</totfact>
</mgrwt>
</event>
<event>
 5    1  0.1607476E-006  0.2000335E+02  0.7818608E-02  0.1745261E+00
         -2   -1    0    0    0  501 -0.00000000000E+00  0.00000000000E+00  0.14384099424E+02  0.14384099659E+02  0.26000000000E-02 0. -1.
          2   -1    0    0  501    0  0.00000000000E+00 -0.00000000000E+00 -0.69544487222E+01  0.69544492082E+01  0.26000000000E-02 0.  1.
       1023    2    1    2    0    0  0.00000000000E+00  0.00000000000E+00  0.74296507021E+01  0.21338548867E+02  0.20003348675E+02 0.  0.
        -13    1    3    3    0    0 -0.80020061697E+01 -0.59991818525E+01  0.37088454138E+01  0.10667192341E+02  0.10570000000E+00 0. -1.
         13    1    3    3    0    0  0.80020061697E+01  0.59991818525E+01  0.37208052883E+01  0.10671356527E+02  0.10570000000E+00 0.  1.
<mgrwt>
<rscale>  0 0.20003349E+02</rscale>
<asrwt>0</asrwt>
<pdfrwt beam="2">  1        2 0.10699152E-02 0.20003349E+02</pdfrwt>
<pdfrwt beam="1">  1       -2 0.22129384E-02 0.20003349E+02</pdfrwt>
<totfact> 0.38405467E+06</totfact>
</mgrwt>
</event>
<event>
 5    1  0.1607476E-006  0.2000696E+02  0.7818608E-02  0.1745190E+00
         -2   -1    0    0    0  501 -0.00000000000E+00  0.00000000000E+00  0.72178337185E+01  0.72178341868E+01  0.26000000000E-02 0. -1.
          2   -1    0    0  501    0  0.00000000000E+00 -0.00000000000E+00 -0.13864215872E+02  0.13864216116E+02  0.26000000000E-02 0.  1.
       1023    2    1    2    0    0  0.00000000000E+00  0.00000000000E+00 -0.66463821534E+01  0.21082050303E+02  0.20006960020E+02 0.  0.
        -13    1    3    3    0    0 -0.30616079015E+01 -0.95212133887E+01 -0.31361938419E+01  0.10482071915E+02  0.10570000000E+00 0.  1.
         13    1    3    3    0    0  0.30616079015E+01  0.95212133887E+01 -0.35101883115E+01  0.10599978387E+02  0.10570000000E+00 0. -1.
<mgrwt>
<rscale>  0 0.20006960E+02</rscale>
<asrwt>0</asrwt>
<pdfrwt beam="2">  1        2 0.21329563E-02 0.20006960E+02</pdfrwt>
<pdfrwt beam="1">  1       -2 0.11104360E-02 0.20006960E+02</pdfrwt>
<totfact> 0.40408100E+06</totfact>
</mgrwt>
</event>
<event>
 4    1  0.1607476E-006  0.2001360E+02  0.7818608E-02  0.1745058E+00
          2   -1    0    0  501    0  0.00000000000E+00  0.00000000000E+00  0.18019536417E+01  0.18019555174E+01  0.26000000000E-02 0.  1.
         -2   -1    0    0    0  501 -0.00000000000E+00 -0.00000000000E+00 -0.55570772340E+02  0.55570772401E+02  0.26000000000E-02 0. -1.
        -13    1    1    2    0    0  0.67925762128E+01  0.73474590023E+01 -0.26814586096E+02  0.28620926704E+02  0.10570000000E+00 0. -1.
         13    1    1    2    0    0 -0.67925762128E+01 -0.73474590023E+01 -0.26954232602E+02  0.28751801214E+02  0.10570000000E+00 0.  1.
<mgrwt>
<rscale>  0 0.20013596E+02</rscale>
<asrwt>0</asrwt>
<pdfrwt beam="1">  1        2 0.27722383E-03 0.20013596E+02</pdfrwt>
<pdfrwt beam="2">  1       -2 0.85493484E-02 0.20013596E+02</pdfrwt>
<totfact> 0.33317728E+06</totfact>
</mgrwt>
</event>
<event>
 5    1  0.1607476E-006  0.2000666E+02  0.7818608E-02  0.1745196E+00
         -2   -1    0    0    0  501 -0.00000000000E+00  0.00000000000E+00  0.27435632644E+01  0.27435644964E+01  0.26000000000E-02 0.  1.
          2   -1    0    0  501    0  0.00000000000E+00 -0.00000000000E+00 -0.36473217007E+02  0.36473217100E+02  0.26000000000E-02 0. -1.
       1023    2    1    2    0    0  0.00000000000E+00  0.00000000000E+00 -0.33729653742E+02  0.39216781596E+02  0.20006659320E+02 0.  0.
        -13    1    3    3    0    0  0.37442887845E+01  0.92745533343E+01 -0.17130674305E+02  0.19837041430E+02  0.10570000000E+00 0. -1.
         13    1    3    3    0    0 -0.37442887845E+01 -0.92745533343E+01 -0.16598979437E+02  0.19379740166E+02  0.10570000000E+00 0.  1.
<mgrwt>
<rscale>  0 0.20006659E+02</rscale>
<asrwt>0</asrwt>
<pdfrwt beam="2">  1        2 0.56112639E-02 0.20006659E+02</pdfrwt>
<pdfrwt beam="1">  1       -2 0.42208678E-03 0.20006659E+02</pdfrwt>
<totfact> 0.44338875E+06</totfact>
</mgrwt>
</event>
<event>
 5    1  0.1607476E-006  0.2000407E+02  0.7818608E-02  0.1745247E+00
          2   -1    0    0  501    0  0.00000000000E+00  0.00000000000E+00  0.10897084189E+03  0.10897084192E+03  0.26000000000E-02 0.  1.
         -2   -1    0    0    0  501 -0.00000000000E+00 -0.00000000000E+00 -0.91804872358E+00  0.91805240530E+00  0.26000000000E-02 0. -1.
       1023    2    1    2    0    0  0.00000000000E+00  0.00000000000E+00  0.10805279317E+03  0.10988889433E+03  0.20004074215E+02 0.  0.
        -13    1    3    3    0    0 -0.47697780327E+01 -0.87908066320E+01  0.54150464099E+02  0.55066441671E+02  0.10570000000E+00 0. -1.
         13    1    3    3    0    0  0.47697780327E+01  0.87908066320E+01  0.53902329069E+02  0.54822452656E+02  0.10570000000E+00 0.  1.
<mgrwt>
<rscale>  0 0.20004074E+02</rscale>
<asrwt>0</asrwt>
<pdfrwt beam="1">  1        2 0.16764733E-01 0.20004074E+02</pdfrwt>
<pdfrwt beam="2">  1       -2 0.14123866E-03 0.20004074E+02</pdfrwt>
<totfact> 0.53795206E+06</totfact>
</mgrwt>
</event>
<event>
 5    1  0.1607476E-006  0.2000270E+02  0.7818608E-02  0.1745274E+00
         -2   -1    0    0    0  501 -0.00000000000E+00  0.00000000000E+00  0.64199541491E+01  0.64199546755E+01  0.26000000000E-02 0. -1.
          2   -1    0    0  501    0  0.00000000000E+00 -0.00000000000E+00 -0.15580632618E+02  0.15580632835E+02  0.26000000000E-02 0.  1.
       1023    2    1    2    0    0  0.00000000000E+00  0.00000000000E+00 -0.91606784691E+01  0.22000587511E+02  0.20002695338E+02 0.  0.
        -13    1    3    3    0    0  0.40385360457E+01  0.91490466251E+01 -0.46143319550E+01  0.11014447758E+02  0.10570000000E+00 0. -1.
         13    1    3    3    0    0 -0.40385360457E+01 -0.91490466251E+01 -0.45463465142E+01  0.10986139752E+02  0.10570000000E+00 0.  1.
<mgrwt>
<rscale>  0 0.20002695E+02</rscale>
<asrwt>0</asrwt>
<pdfrwt beam="2">  1        2 0.23970205E-02 0.20002695E+02</pdfrwt>
<pdfrwt beam="1">  1       -2 0.98768531E-03 0.20002695E+02</pdfrwt>
<totfact> 0.40800295E+06</totfact>
</mgrwt>
</event>
<event>
 5    1  0.1607476E-006  0.2000998E+02  0.7818608E-02  0.1745130E+00
          2   -1    0    0  501    0  0.00000000000E+00  0.00000000000E+00  0.17455150215E+01  0.17455169579E+01  0.26000000000E-02 0.  1.
         -2   -1    0    0    0  501 -0.00000000000E+00 -0.00000000000E+00 -0.57346844934E+02  0.57346844993E+02  0.26000000000E-02 0. -1.
       1023    2    1    2    0    0  0.00000000000E+00  0.00000000000E+00 -0.55601329913E+02  0.59092361951E+02  0.20009981332E+02 0.  0.
        -13    1    3    3    0    0 -0.99794315182E+01  0.70557487961E+00 -0.27676197882E+02  0.29429067111E+02  0.10570000000E+00 0.  1.
         13    1    3    3    0    0  0.99794315182E+01 -0.70557487961E+00 -0.27925132031E+02  0.29663294840E+02  0.10570000000E+00 0. -1.
<mgrwt>
<rscale>  0 0.20009981E+02</rscale>
<asrwt>0</asrwt>
<pdfrwt beam="1">  1        2 0.26854097E-03 0.20009981E+02</pdfrwt>
<pdfrwt beam="2">  1       -2 0.88225902E-02 0.20009981E+02</pdfrwt>
<totfact> 0.33166359E+06</totfact>
</mgrwt>
</event>
<event>
 5    1  0.1607476E-006  0.2000241E+02  0.7818608E-02  0.1745280E+00
         -2   -1    0    0    0  501 -0.00000000000E+00  0.00000000000E+00  0.11478975798E+02  0.11478976092E+02  0.26000000000E-02 0. -1.
          2   -1    0    0  501    0  0.00000000000E+00 -0.00000000000E+00 -0.87136788605E+01  0.87136792484E+01  0.26000000000E-02 0.  1.
       1023    2    1    2    0    0  0.00000000000E+00  0.00000000000E+00  0.27652969373E+01  0.20192655341E+02  0.20002411419E+02 0.  0.
        -13    1    3    3    0    0  0.28978547312E+01  0.95713701802E+01  0.14484913485E+01  0.10105344568E+02  0.10570000000E+00 0. -1.
         13    1    3    3    0    0 -0.28978547312E+01 -0.95713701802E+01  0.13168055888E+01  0.10087310772E+02  0.10570000000E+00 0.  1.
<mgrwt>
<rscale>  0 0.20002411E+02</rscale>
<asrwt>0</asrwt>
<pdfrwt beam="2">  1        2 0.13405660E-02 0.20002411E+02</pdfrwt>
<pdfrwt beam="1">  1       -2 0.17659963E-02 0.20002411E+02</pdfrwt>
<totfact> 0.39056747E+06</totfact>
</mgrwt>
</event>
<event>
 4    1  0.1607476E-006  0.2003433E+02  0.7818608E-02  0.1744646E+00
         -2   -1    0    0    0  501 -0.00000000000E+00  0.00000000000E+00  0.29740393979E+02  0.29740394093E+02  0.26000000000E-02 0.  1.
          2   -1    0    0  501    0  0.00000000000E+00 -0.00000000000E+00 -0.33739822354E+01  0.33739832372E+01  0.26000000000E-02 0. -1.
        -13    1    1    2    0    0 -0.16771690272E+01  0.98750032091E+01  0.13285399053E+02  0.16638557174E+02  0.10570000000E+00 0.  1.
         13    1    1    2    0    0  0.16771690272E+01 -0.98750032091E+01  0.13081012690E+02  0.16475820156E+02  0.10570000000E+00 0. -1.
<mgrwt>
<rscale>  0 0.20034328E+02</rscale>
<asrwt>0</asrwt>
<pdfrwt beam="2">  1        2 0.51907427E-03 0.20034328E+02</pdfrwt>
<pdfrwt beam="1">  1       -2 0.45754454E-02 0.20034328E+02</pdfrwt>
<totfact> 0.35961661E+06</totfact>
</mgrwt>
</event>
<event>
 5    1  0.1607476E-006  0.2000364E+02  0.7818608E-02  0.1745256E+00
         -2   -1    0    0    0  501 -0.00000000000E+00  0.00000000000E+00  0.32730162398E+01  0.32730172725E+01  0.26000000000E-02 0.  1.
          2   -1    0    0  501    0  0.00000000000E+00 -0.00000000000E+00 -0.30563973913E+02  0.30563974024E+02  0.26000000000E-02 0. -1.
       1023    2    1    2    0    0  0.00000000000E+00  0.00000000000E+00 -0.27290957673E+02  0.33836991296E+02  0.20003639900E+02 0.  0.
        -13    1    3    3    0    0  0.39679189268E+01 -0.91797879510E+01 -0.13833402868E+02  0.17070064289E+02  0.10570000000E+00 0. -1.
         13    1    3    3    0    0 -0.39679189268E+01  0.91797879510E+01 -0.13457554805E+02  0.16766927007E+02  0.10570000000E+00 0.  1.
<mgrwt>
<rscale>  0 0.20003640E+02</rscale>
<asrwt>0</asrwt>
<pdfrwt beam="2">  1        2 0.47021497E-02 0.20003640E+02</pdfrwt>
<pdfrwt beam="1">  1       -2 0.50354107E-03 0.20003640E+02</pdfrwt>
<totfact> 0.43444755E+06</totfact>
</mgrwt>
</event>
<event>
 5    1  0.1607476E-006  0.2000518E+02  0.7818608E-02  0.1745225E+00
         -2   -1    0    0    0  501 -0.00000000000E+00  0.00000000000E+00  0.48642191225E+01  0.48642198173E+01  0.26000000000E-02 0. -1.
          2   -1    0    0  501    0  0.00000000000E+00 -0.00000000000E+00 -0.20568940758E+02  0.20568940922E+02  0.26000000000E-02 0.  1.
       1023    2    1    2    0    0  0.00000000000E+00  0.00000000000E+00 -0.15704721636E+02  0.25433160740E+02  0.20005183917E+02 0.  0.
        -13    1    3    3    0    0  0.93444339583E+01 -0.35659960083E+01 -0.79500123296E+01  0.12776879199E+02  0.10570000000E+00 0.  1.
         13    1    3    3    0    0 -0.93444339583E+01  0.35659960083E+01 -0.77547093060E+01  0.12656281541E+02  0.10570000000E+00 0. -1.
<mgrwt>
<rscale>  0 0.20005184E+02</rscale>
<asrwt>0</asrwt>
<pdfrwt beam="2">  1        2 0.31644524E-02 0.20005184E+02</pdfrwt>
<pdfrwt beam="1">  1       -2 0.74834148E-03 0.20005184E+02</pdfrwt>
<totfact> 0.41757787E+06</totfact>
</mgrwt>
</event>
<event>
 5    1  0.1607476E-006  0.2000558E+02  0.7818608E-02  0.1745217E+00
          2   -1    0    0  501    0  0.00000000000E+00  0.00000000000E+00  0.33644452862E+02  0.33644452962E+02  0.26000000000E-02 0. -1.
         -2   -1    0    0    0  501 -0.00000000000E+00 -0.00000000000E+00 -0.29739167778E+01  0.29739179143E+01  0.26000000000E-02 0.  1.
       1023    2    1    2    0    0  0.00000000000E+00  0.00000000000E+00  0.30670536084E+02  0.36618370877E+02  0.20005581770E+02 0.  0.
        -13    1    3    3    0    0  0.73107990167E+01 -0.68255299226E+01  0.15161504443E+02  0.18163645847E+02  0.10570000000E+00 0. -1.
         13    1    3    3    0    0 -0.73107990167E+01  0.68255299226E+01  0.15509031641E+02  0.18454725030E+02  0.10570000000E+00 0.  1.
<mgrwt>
<rscale>  0 0.20005582E+02</rscale>
<asrwt>0</asrwt>
<pdfrwt beam="1">  1        2 0.51760696E-02 0.20005582E+02</pdfrwt>
<pdfrwt beam="2">  1       -2 0.45752577E-03 0.20005582E+02</pdfrwt>
<totfact> 0.43914475E+06</totfact>
</mgrwt>
</event>
<event>
 5    1  0.2615607E-006  0.2000320E+02  0.7818608E-02  0.1745264E+00
          2   -1    0    0  501    0  0.00000000000E+00  0.00000000000E+00  0.11272693809E+03  0.11272693812E+03  0.26000000000E-02 0. -1.
         -2   -1    0    0    0  501 -0.00000000000E+00 -0.00000000000E+00 -0.88738140249E+00  0.88738521144E+00  0.26000000000E-02 0.  1.
       1023    2    1    2    0    0  0.00000000000E+00  0.00000000000E+00  0.11183955669E+03  0.11361432334E+03  0.20003200394E+02 0.  0.
        -13    1    3    3    0    0  0.80129691725E+01 -0.59827614063E+01  0.55122073529E+02  0.56021917779E+02  0.10570000000E+00 0. -1.
         13    1    3    3    0    0 -0.80129691725E+01  0.59827614063E+01  0.56717483163E+02  0.57592405557E+02  0.10570000000E+00 0.  1.
<mgrwt>
<rscale>  0 0.20003200E+02</rscale>
<asrwt>0</asrwt>
<pdfrwt beam="1">  1        2 0.17342613E-01 0.20003200E+02</pdfrwt>
<pdfrwt beam="2">  1       -2 0.13652046E-03 0.20003200E+02</pdfrwt>
<totfact> 0.54237519E+06</totfact>
</mgrwt>
</event>
<event>
 5    1  0.1607476E-006  0.2000153E+02  0.7818608E-02  0.1745298E+00
         -2   -1    0    0    0  501 -0.00000000000E+00  0.00000000000E+00  0.26578557541E+01  0.26578570258E+01  0.26000000000E-02 0. -1.
          2   -1    0    0  501    0  0.00000000000E+00 -0.00000000000E+00 -0.37630060953E+02  0.37630061043E+02  0.26000000000E-02 0.  1.
       1023    2    1    2    0    0  0.00000000000E+00  0.00000000000E+00 -0.34972205199E+02  0.40287918069E+02  0.20001530087E+02 0.  0.
        -13    1    3    3    0    0  0.69472786783E+01  0.71929418599E+01 -0.17421291096E+02  0.20087698962E+02  0.10570000000E+00 0. -1.
         13    1    3    3    0    0 -0.69472786783E+01 -0.71929418599E+01 -0.17550914103E+02  0.20200219107E+02  0.10570000000E+00 0.  1.
<mgrwt>
<rscale>  0 0.20001530E+02</rscale>
<asrwt>0</asrwt>
<pdfrwt beam="2">  1        2 0.57892399E-02 0.20001530E+02</pdfrwt>
<pdfrwt beam="1">  1       -2 0.40890102E-03 0.20001530E+02</pdfrwt>
<totfact> 0.44537627E+06</totfact>
</mgrwt>
</event>
<event>
 5    1  0.1607476E-006  0.2000209E+02  0.7818608E-02  0.1745287E+00
          2   -1    0    0  501    0  0.00000000000E+00  0.00000000000E+00  0.32445597125E+02  0.32445597229E+02  0.26000000000E-02 0. -1.
         -2   -1    0    0    0  501 -0.00000000000E+00 -0.00000000000E+00 -0.30827256150E+01  0.30827267114E+01  0.26000000000E-02 0.  1.
       1023    2    1    2    0    0  0.00000000000E+00  0.00000000000E+00  0.29362871510E+02  0.35528323940E+02  0.20002089359E+02 0.  0.
        -13    1    3    3    0    0  0.92752890529E+01  0.37387744247E+01  0.14712250820E+02  0.17789629504E+02  0.10570000000E+00 0.  1.
         13    1    3    3    0    0 -0.92752890529E+01 -0.37387744247E+01  0.14650620690E+02  0.17738694436E+02  0.10570000000E+00 0. -1.
<mgrwt>
<rscale>  0 0.20002089E+02</rscale>
<asrwt>0</asrwt>
<pdfrwt beam="1">  1        2 0.49916304E-02 0.20002089E+02</pdfrwt>
<pdfrwt beam="2">  1       -2 0.47426557E-03 0.20002089E+02</pdfrwt>
<totfact> 0.43746618E+06</totfact>
</mgrwt>
</event>
<event>
 5    1  0.1607476E-006  0.2000622E+02  0.7818608E-02  0.1745204E+00
         -2   -1    0    0    0  501 -0.00000000000E+00  0.00000000000E+00  0.41897959598E+01  0.41897967666E+01  0.26000000000E-02 0.  1.
          2   -1    0    0  501    0  0.00000000000E+00 -0.00000000000E+00 -0.23882361122E+02  0.23882361263E+02  0.26000000000E-02 0. -1.
       1023    2    1    2    0    0  0.00000000000E+00  0.00000000000E+00 -0.19692565162E+02  0.28072158030E+02  0.20006222377E+02 0.  0.
        -13    1    3    3    0    0  0.25948918011E+01 -0.96581239888E+01 -0.10120668122E+02  0.14228559947E+02  0.10570000000E+00 0. -1.
         13    1    3    3    0    0 -0.25948918011E+01  0.96581239888E+01 -0.95718970403E+01  0.13843598083E+02  0.10570000000E+00 0.  1.
<mgrwt>
<rscale>  0 0.20006222E+02</rscale>
<asrwt>0</asrwt>
<pdfrwt beam="2">  1        2 0.36742094E-02 0.20006222E+02</pdfrwt>
<pdfrwt beam="1">  1       -2 0.64458408E-03 0.20006222E+02</pdfrwt>
<totfact> 0.42337023E+06</totfact>
</mgrwt>
</event>
<event>
 4    1  0.1607476E-006  0.2020920E+02  0.7818608E-02  0.1741200E+00
         -2   -1    0    0    0  501 -0.00000000000E+00  0.00000000000E+00  0.21646524100E+01  0.21646539714E+01  0.26000000000E-02 0. -1.
          2   -1    0    0  501    0  0.00000000000E+00 -0.00000000000E+00 -0.47168282680E+02  0.47168282752E+02  0.26000000000E-02 0.  1.
        -13    1    1    2    0    0 -0.31008830882E+01 -0.96017066785E+01 -0.21201919926E+02  0.23480647949E+02  0.10570000000E+00 0. -1.
         13    1    1    2    0    0  0.31008830882E+01  0.96017066785E+01 -0.23801710344E+02  0.25852288774E+02  0.10570000000E+00 0.  1.
<mgrwt>
<rscale>  0 0.20209204E+02</rscale>
<asrwt>0</asrwt>
<pdfrwt beam="2">  1        2 0.72566582E-02 0.20209204E+02</pdfrwt>
<pdfrwt beam="1">  1       -2 0.33302361E-03 0.20209204E+02</pdfrwt>
<totfact> 0.44875953E+06</totfact>
</mgrwt>
</event>
<event>
 5    1  0.1607476E-006  0.2000162E+02  0.7818608E-02  0.1745296E+00
         -2   -1    0    0    0  501 -0.00000000000E+00  0.00000000000E+00  0.22964181916E+01  0.22964196635E+01  0.26000000000E-02 0.  1.
          2   -1    0    0  501    0  0.00000000000E+00 -0.00000000000E+00 -0.43553121857E+02  0.43553121934E+02  0.26000000000E-02 0. -1.
       1023    2    1    2    0    0  0.00000000000E+00  0.00000000000E+00 -0.41256703665E+02  0.45849541598E+02  0.20001621620E+02 0.  0.
        -13    1    3    3    0    0  0.99984103258E+01 -0.18654026975E+00 -0.20524866860E+02  0.22831652118E+02  0.10570000000E+00 0. -1.
         13    1    3    3    0    0 -0.99984103258E+01  0.18654026975E+00 -0.20731836805E+02  0.23017889480E+02  0.10570000000E+00 0.  1.
<mgrwt>
<rscale>  0 0.20001622E+02</rscale>
<asrwt>0</asrwt>
<pdfrwt beam="2">  1        2 0.67004798E-02 0.20001622E+02</pdfrwt>
<pdfrwt beam="1">  1       -2 0.35329526E-03 0.20001622E+02</pdfrwt>
<totfact> 0.45405325E+06</totfact>
</mgrwt>
</event>
<event>
 5    1  0.1607476E-006  0.2000292E+02  0.7818608E-02  0.1745270E+00
          2   -1    0    0  501    0  0.00000000000E+00  0.00000000000E+00  0.23719201478E+02  0.23719201621E+02  0.26000000000E-02 0.  1.
         -2   -1    0    0    0  501 -0.00000000000E+00 -0.00000000000E+00 -0.42172241500E+01  0.42172249515E+01  0.26000000000E-02 0. -1.
       1023    2    1    2    0    0  0.00000000000E+00  0.00000000000E+00  0.19501977328E+02  0.27936426572E+02  0.20002920035E+02 0.  0.
        -13    1    3    3    0    0 -0.20218996928E+01  0.97937396337E+01  0.99078556407E+01  0.14077719640E+02  0.10570000000E+00 0. -1.
         13    1    3    3    0    0  0.20218996928E+01 -0.97937396337E+01  0.95941216873E+01  0.13858706932E+02  0.10570000000E+00 0.  1.
<mgrwt>
<rscale>  0 0.20002920E+02</rscale>
<asrwt>0</asrwt>
<pdfrwt beam="1">  1        2 0.36491080E-02 0.20002920E+02</pdfrwt>
<pdfrwt beam="2">  1       -2 0.64880378E-03 0.20002920E+02</pdfrwt>
<totfact> 0.42324739E+06</totfact>
</mgrwt>
</event>
<event>
 4    1  0.1607476E-006  0.2009805E+02  0.7818608E-02  0.1743385E+00
         -2   -1    0    0    0  501 -0.00000000000E+00  0.00000000000E+00  0.16086660106E+02  0.16086660316E+02  0.26000000000E-02 0.  1.
          2   -1    0    0  501    0  0.00000000000E+00 -0.00000000000E+00 -0.62774310933E+01  0.62774316317E+01  0.26000000000E-02 0. -1.
        -13    1    1    2    0    0 -0.10006694326E+02 -0.50506008551E+00  0.40551856736E+01  0.10809473639E+02  0.10570000000E+00 0. -1.
         13    1    1    2    0    0  0.10006694326E+02  0.50506008551E+00  0.57540433387E+01  0.11554618308E+02  0.10570000000E+00 0.  1.
<mgrwt>
<rscale>  0 0.20098051E+02</rscale>
<asrwt>0</asrwt>
<pdfrwt beam="2">  1        2 0.96575869E-03 0.20098051E+02</pdfrwt>
<pdfrwt beam="1">  1       -2 0.24748708E-02 0.20098051E+02</pdfrwt>
<totfact> 0.37692097E+06</totfact>
</mgrwt>
</event>
<event>
 5    1  0.1607476E-006  0.2000814E+02  0.7818608E-02  0.1745166E+00
         -2   -1    0    0    0  501 -0.00000000000E+00  0.00000000000E+00  0.53250330663E+01  0.53250337011E+01  0.26000000000E-02 0.  1.
          2   -1    0    0  501    0  0.00000000000E+00 -0.00000000000E+00 -0.18794511259E+02  0.18794511439E+02  0.26000000000E-02 0. -1.
       1023    2    1    2    0    0  0.00000000000E+00  0.00000000000E+00 -0.13469478193E+02  0.24119545140E+02  0.20008138719E+02 0.  0.
        -13    1    3    3    0    0 -0.64940991206E+01 -0.76047504629E+01 -0.70413175307E+01  0.12230980257E+02  0.10570000000E+00 0.  1.
         13    1    3    3    0    0  0.64940991206E+01  0.76047504629E+01 -0.64281606624E+01  0.11888564883E+02  0.10570000000E+00 0. -1.
<mgrwt>
<rscale>  0 0.20008139E+02</rscale>
<asrwt>0</asrwt>
<pdfrwt beam="2">  1        2 0.28914633E-02 0.20008139E+02</pdfrwt>
<pdfrwt beam="1">  1       -2 0.81923593E-03 0.20008139E+02</pdfrwt>
<totfact> 0.41414595E+06</totfact>
</mgrwt>
</event>
<event>
 5    1  0.1607476E-006  0.2000398E+02  0.7818608E-02  0.1745249E+00
         -2   -1    0    0    0  501 -0.00000000000E+00  0.00000000000E+00  0.41930855312E+02  0.41930855393E+02  0.26000000000E-02 0. -1.
          2   -1    0    0  501    0  0.00000000000E+00 -0.00000000000E+00 -0.23858266266E+01  0.23858280433E+01  0.26000000000E-02 0.  1.
       1023    2    1    2    0    0  0.00000000000E+00  0.00000000000E+00  0.39545028686E+02  0.44316683436E+02  0.20003978030E+02 0.  0.
        -13    1    3    3    0    0 -0.83709533901E+01 -0.54731846533E+01  0.19774566617E+02  0.22160173020E+02  0.10570000000E+00 0.  1.
         13    1    3    3    0    0  0.83709533901E+01  0.54731846533E+01  0.19770462069E+02  0.22156510416E+02  0.10570000000E+00 0. -1.
<mgrwt>
<rscale>  0 0.20003978E+02</rscale>
<asrwt>0</asrwt>
<pdfrwt beam="2">  1        2 0.36705040E-03 0.20003978E+02</pdfrwt>
<pdfrwt beam="1">  1       -2 0.64509003E-02 0.20003978E+02</pdfrwt>
<totfact> 0.34700196E+06</totfact>
</mgrwt>
</event>
<event>
 5    1  0.1607476E-006  0.2000139E+02  0.7818608E-02  0.1745300E+00
          2   -1    0    0  501    0  0.00000000000E+00  0.00000000000E+00  0.68034725289E+01  0.68034730257E+01  0.26000000000E-02 0. -1.
         -2   -1    0    0    0  501 -0.00000000000E+00 -0.00000000000E+00 -0.14700424333E+02  0.14700424563E+02  0.26000000000E-02 0.  1.
       1023    2    1    2    0    0  0.00000000000E+00  0.00000000000E+00 -0.78969518039E+01  0.21503897588E+02  0.20001394044E+02 0.  0.
        -13    1    3    3    0    0  0.60003077803E+01 -0.79999317386E+01 -0.39623759094E+01  0.10757053343E+02  0.10570000000E+00 0.  1.
         13    1    3    3    0    0 -0.60003077803E+01  0.79999317386E+01 -0.39345758945E+01  0.10746844246E+02  0.10570000000E+00 0. -1.
<mgrwt>
<rscale>  0 0.20001394E+02</rscale>
<asrwt>0</asrwt>
<pdfrwt beam="1">  1        2 0.10466881E-02 0.20001394E+02</pdfrwt>
<pdfrwt beam="2">  1       -2 0.22616038E-02 0.20001394E+02</pdfrwt>
<totfact> 0.38350514E+06</totfact>
</mgrwt>
</event>
<event>
 4    1  0.1607476E-006  0.2009779E+02  0.7818608E-02  0.1743390E+00
          2   -1    0    0  501    0  0.00000000000E+00  0.00000000000E+00  0.11342785964E+02  0.11342786262E+02  0.26000000000E-02 0. -1.
         -2   -1    0    0    0  501 -0.00000000000E+00 -0.00000000000E+00 -0.89026002712E+01  0.89026006509E+01  0.26000000000E-02 0.  1.
        -13    1    1    2    0    0 -0.60320314944E+01  0.80037591626E+01  0.49120515269E+00  0.10034840291E+02  0.10570000000E+00 0. -1.
         13    1    1    2    0    0  0.60320314944E+01 -0.80037591626E+01  0.19489805405E+01  0.10210546622E+02  0.10570000000E+00 0.  1.
<mgrwt>
<rscale>  0 0.20097791E+02</rscale>
<asrwt>0</asrwt>
<pdfrwt beam="1">  1        2 0.17450440E-02 0.20097791E+02</pdfrwt>
<pdfrwt beam="2">  1       -2 0.13696309E-02 0.20097791E+02</pdfrwt>
<totfact> 0.39391037E+06</totfact>
</mgrwt>
</event>
<event>
 5    1  0.1607476E-006  0.2000295E+02  0.7818608E-02  0.1745269E+00
         -2   -1    0    0    0  501 -0.00000000000E+00  0.00000000000E+00  0.66250291057E+01  0.66250296159E+01  0.26000000000E-02 0.  1.
          2   -1    0    0  501    0  0.00000000000E+00 -0.00000000000E+00 -0.15098730471E+02  0.15098730695E+02  0.26000000000E-02 0. -1.
       1023    2    1    2    0    0  0.00000000000E+00  0.00000000000E+00 -0.84737013656E+01  0.21723760311E+02  0.20002953462E+02 0.  0.
        -13    1    3    3    0    0  0.98913078429E+01 -0.14765074849E+01 -0.42562513808E+01  0.10869447709E+02  0.10570000000E+00 0. -1.
         13    1    3    3    0    0 -0.98913078429E+01  0.14765074849E+01 -0.42174499849E+01  0.10854312602E+02  0.10570000000E+00 0.  1.
<mgrwt>
<rscale>  0 0.20002953E+02</rscale>
<asrwt>0</asrwt>
<pdfrwt beam="2">  1        2 0.23228817E-02 0.20002953E+02</pdfrwt>
<pdfrwt beam="1">  1       -2 0.10192353E-02 0.20002953E+02</pdfrwt>
<totfact> 0.40697108E+06</totfact>
</mgrwt>
</event>
<event>
 4    1  0.1607476E-006  0.2019759E+02  0.7818608E-02  0.1741427E+00
         -2   -1    0    0    0  501 -0.00000000000E+00  0.00000000000E+00  0.48292613721E+01  0.48292620720E+01  0.26000000000E-02 0.  1.
          2   -1    0    0  501    0  0.00000000000E+00 -0.00000000000E+00 -0.21118274685E+02  0.21118274845E+02  0.26000000000E-02 0. -1.
        -13    1    1    2    0    0  0.85342649641E+01  0.53599068111E+01 -0.89693376014E+01  0.13491570294E+02  0.10570000000E+00 0. -1.
         13    1    1    2    0    0 -0.85342649641E+01 -0.53599068111E+01 -0.73196757112E+01  0.12455966623E+02  0.10570000000E+00 0.  1.
<mgrwt>
<rscale>  0 0.20197592E+02</rscale>
<asrwt>0</asrwt>
<pdfrwt beam="2">  1        2 0.32489653E-02 0.20197592E+02</pdfrwt>
<pdfrwt beam="1">  1       -2 0.74296337E-03 0.20197592E+02</pdfrwt>
<totfact> 0.40963741E+06</totfact>
</mgrwt>
</event>
<event>
 5    1  0.1607476E-006  0.2000160E+02  0.7818608E-02  0.1745296E+00
          2   -1    0    0  501    0  0.00000000000E+00  0.00000000000E+00  0.31924623820E+01  0.31924634407E+01  0.26000000000E-02 0. -1.
         -2   -1    0    0    0  501 -0.00000000000E+00 -0.00000000000E+00 -0.31328790052E+02  0.31328790160E+02  0.26000000000E-02 0.  1.
       1023    2    1    2    0    0  0.00000000000E+00  0.00000000000E+00 -0.28136327670E+02  0.34521253600E+02  0.20001600321E+02 0.  0.
        -13    1    3    3    0    0  0.94448599632E+01  0.32861343916E+01 -0.14116130734E+02  0.17299721915E+02  0.10570000000E+00 0.  1.
         13    1    3    3    0    0 -0.94448599632E+01 -0.32861343916E+01 -0.14020196936E+02  0.17221531685E+02  0.10570000000E+00 0. -1.
<mgrwt>
<rscale>  0 0.20001600E+02</rscale>
<asrwt>0</asrwt>
<pdfrwt beam="1">  1        2 0.49114817E-03 0.20001600E+02</pdfrwt>
<pdfrwt beam="2">  1       -2 0.48198137E-02 0.20001600E+02</pdfrwt>
<totfact> 0.35896412E+06</totfact>
</mgrwt>
</event>
<event>
 5    1  0.1607476E-006  0.2000836E+02  0.7818608E-02  0.1745162E+00
         -2   -1    0    0    0  501 -0.00000000000E+00  0.00000000000E+00  0.52458371285E+01  0.52458377729E+01  0.26000000000E-02 0. -1.
          2   -1    0    0  501    0  0.00000000000E+00 -0.00000000000E+00 -0.19078677933E+02  0.19078678110E+02  0.26000000000E-02 0.  1.
       1023    2    1    2    0    0  0.00000000000E+00  0.00000000000E+00 -0.13832840805E+02  0.24324515883E+02  0.20008362957E+02 0.  0.
        -13    1    3    3    0    0 -0.18684381176E+01 -0.98263928864E+01 -0.67303862020E+01  0.12056464203E+02  0.10570000000E+00 0. -1.
         13    1    3    3    0    0  0.18684381176E+01  0.98263928864E+01 -0.71024546026E+01  0.12268051680E+02  0.10570000000E+00 0.  1.
<mgrwt>
<rscale>  0 0.20008363E+02</rscale>
<asrwt>0</asrwt>
<pdfrwt beam="2">  1        2 0.29351812E-02 0.20008363E+02</pdfrwt>
<pdfrwt beam="1">  1       -2 0.80705194E-03 0.20008363E+02</pdfrwt>
<totfact> 0.41467263E+06</totfact>
</mgrwt>
</event>
<event>
 5    1  0.1607476E-006  0.2000329E+02  0.7818608E-02  0.1745263E+00
          2   -1    0    0  501    0  0.00000000000E+00  0.00000000000E+00  0.49334278006E+01  0.49334284857E+01  0.26000000000E-02 0. -1.
         -2   -1    0    0    0  501 -0.00000000000E+00 -0.00000000000E+00 -0.20276550617E+02  0.20276550784E+02  0.26000000000E-02 0.  1.
       1023    2    1    2    0    0  0.00000000000E+00  0.00000000000E+00 -0.15343122817E+02  0.25209979270E+02  0.20003290655E+02 0.  0.
        -13    1    3    3    0    0  0.73859294482E+01 -0.67431215668E+01 -0.76838117633E+01  0.12612445361E+02  0.10570000000E+00 0. -1.
         13    1    3    3    0    0 -0.73859294482E+01  0.67431215668E+01 -0.76593110535E+01  0.12597533909E+02  0.10570000000E+00 0.  1.
<mgrwt>
<rscale>  0 0.20003291E+02</rscale>
<asrwt>0</asrwt>
<pdfrwt beam="1">  1        2 0.75898897E-03 0.20003291E+02</pdfrwt>
<pdfrwt beam="2">  1       -2 0.31194693E-02 0.20003291E+02</pdfrwt>
<totfact> 0.37377589E+06</totfact>
</mgrwt>
</event>
<event>
 5    1  0.1607476E-006  0.2000256E+02  0.7818608E-02  0.1745277E+00
          2   -1    0    0  501    0  0.00000000000E+00  0.00000000000E+00  0.82503043834E+00  0.82503453515E+00  0.26000000000E-02 0. -1.
         -2   -1    0    0    0  501 -0.00000000000E+00 -0.00000000000E+00 -0.12123836533E+03  0.12123836535E+03  0.26000000000E-02 0.  1.
       1023    2    1    2    0    0  0.00000000000E+00  0.00000000000E+00 -0.12041333489E+03  0.12206339989E+03  0.20002559179E+02 0.  0.
        -13    1    3    3    0    0  0.70209361432E+01 -0.71218475715E+01 -0.60284762748E+02  0.61108739548E+02  0.10570000000E+00 0. -1.
         13    1    3    3    0    0 -0.70209361432E+01  0.71218475715E+01 -0.60128572140E+02  0.60954660340E+02  0.10570000000E+00 0.  1.
<mgrwt>
<rscale>  0 0.20002559E+02</rscale>
<asrwt>0</asrwt>
<pdfrwt beam="1">  1        2 0.12692817E-03 0.20002559E+02</pdfrwt>
<pdfrwt beam="2">  1       -2 0.18652042E-01 0.20002559E+02</pdfrwt>
<totfact> 0.28251163E+06</totfact>
</mgrwt>
</event>
<event>
 5    1  0.1607476E-006  0.2000150E+02  0.7818608E-02  0.1745298E+00
         -2   -1    0    0    0  501 -0.00000000000E+00  0.00000000000E+00  0.10602396480E+02  0.10602396799E+02  0.26000000000E-02 0.  1.
          2   -1    0    0  501    0  0.00000000000E+00 -0.00000000000E+00 -0.94332441435E+01  0.94332445018E+01  0.26000000000E-02 0. -1.
       1023    2    1    2    0    0  0.00000000000E+00  0.00000000000E+00  0.11691523363E+01  0.20035641300E+02  0.20001500072E+02 0.  0.
        -13    1    3    3    0    0  0.40210636073E+01 -0.91561260162E+01  0.56929773687E+00  0.10016929098E+02  0.10570000000E+00 0. -1.
         13    1    3    3    0    0 -0.40210636073E+01  0.91561260162E+01  0.59985459948E+00  0.10018712202E+02  0.10570000000E+00 0.  1.
<mgrwt>
<rscale>  0 0.20001500E+02</rscale>
<asrwt>0</asrwt>
<pdfrwt beam="2">  1        2 0.14512684E-02 0.20001500E+02</pdfrwt>
<pdfrwt beam="1">  1       -2 0.16311380E-02 0.20001500E+02</pdfrwt>
<totfact> 0.39288265E+06</totfact>
</mgrwt>
</event>
<event>
 5    1  0.1607476E-006  0.2000926E+02  0.7818608E-02  0.1745144E+00
          2   -1    0    0  501    0  0.00000000000E+00  0.00000000000E+00  0.11748429692E+03  0.11748429695E+03  0.26000000000E-02 0.  1.
         -2   -1    0    0    0  501 -0.00000000000E+00 -0.00000000000E+00 -0.85196436306E+00  0.85196833036E+00  0.26000000000E-02 0. -1.
       1023    2    1    2    0    0  0.00000000000E+00  0.00000000000E+00  0.11663233255E+03  0.11833626528E+03  0.20009264917E+02 0.  0.
        -13    1    3    3    0    0  0.81984314304E+01 -0.57329885096E+01  0.58363097067E+02  0.59214387668E+02  0.10570000000E+00 0. -1.
         13    1    3    3    0    0 -0.81984314304E+01  0.57329885096E+01  0.58269235487E+02  0.59121877608E+02  0.10570000000E+00 0.  1.
<mgrwt>
<rscale>  0 0.20009265E+02</rscale>
<asrwt>0</asrwt>
<pdfrwt beam="1">  1        2 0.18074499E-01 0.20009265E+02</pdfrwt>
<pdfrwt beam="2">  1       -2 0.13107181E-03 0.20009265E+02</pdfrwt>
<totfact> 0.54748981E+06</totfact>
</mgrwt>
</event>
<event>
 5    1  0.1607476E-006  0.2000214E+02  0.7818608E-02  0.1745285E+00
         -2   -1    0    0    0  501 -0.00000000000E+00  0.00000000000E+00  0.45887705552E+01  0.45887712918E+01  0.26000000000E-02 0. -1.
          2   -1    0    0  501    0  0.00000000000E+00 -0.00000000000E+00 -0.21796996757E+02  0.21796996912E+02  0.26000000000E-02 0.  1.
       1023    2    1    2    0    0  0.00000000000E+00  0.00000000000E+00 -0.17208226202E+02  0.26385768204E+02  0.20002142753E+02 0.  0.
        -13    1    3    3    0    0  0.93200660114E+01 -0.36252168717E+01 -0.86918969632E+01  0.13250134835E+02  0.10570000000E+00 0. -1.
         13    1    3    3    0    0 -0.93200660114E+01  0.36252168717E+01 -0.85163292387E+01  0.13135633369E+02  0.10570000000E+00 0.  1.
<mgrwt>
<rscale>  0 0.20002143E+02</rscale>
<asrwt>0</asrwt>
<pdfrwt beam="2">  1        2 0.33533841E-02 0.20002143E+02</pdfrwt>
<pdfrwt beam="1">  1       -2 0.70596478E-03 0.20002143E+02</pdfrwt>
<totfact> 0.41992805E+06</totfact>
</mgrwt>
</event>
<event>
 4    1  0.1607476E-006  0.2005501E+02  0.7818608E-02  0.1744236E+00
         -2   -1    0    0    0  501 -0.00000000000E+00  0.00000000000E+00  0.31748964684E+02  0.31748964791E+02  0.26000000000E-02 0.  1.
          2   -1    0    0  501    0  0.00000000000E+00 -0.00000000000E+00 -0.31670574470E+01  0.31670585142E+01  0.26000000000E-02 0. -1.
        -13    1    1    2    0    0  0.37859685244E+01  0.92633362882E+01  0.13194410997E+02  0.16560392837E+02  0.10570000000E+00 0. -1.
         13    1    1    2    0    0 -0.37859685244E+01 -0.92633362882E+01  0.15387496240E+02  0.18355630468E+02  0.10570000000E+00 0.  1.
<mgrwt>
<rscale>  0 0.20055006E+02</rscale>
<asrwt>0</asrwt>
<pdfrwt beam="2">  1        2 0.48723972E-03 0.20055006E+02</pdfrwt>
<pdfrwt beam="1">  1       -2 0.48844560E-02 0.20055006E+02</pdfrwt>
<totfact> 0.35638148E+06</totfact>
</mgrwt>
</event>
<event>
 5    1  0.1607476E-006  0.2000136E+02  0.7818608E-02  0.1745301E+00
         -2   -1    0    0    0  501 -0.00000000000E+00  0.00000000000E+00  0.34778786054E+02  0.34778786151E+02  0.26000000000E-02 0.  1.
          2   -1    0    0  501    0  0.00000000000E+00 -0.00000000000E+00 -0.28757074697E+01  0.28757086451E+01  0.26000000000E-02 0. -1.
       1023    2    1    2    0    0  0.00000000000E+00  0.00000000000E+00  0.31903078584E+02  0.37654494796E+02  0.20001363834E+02 0.  0.
        -13    1    3    3    0    0  0.14955856427E-01  0.10000083168E+02  0.15906229408E+02  0.18788858228E+02  0.10570000000E+00 0.  1.
         13    1    3    3    0    0 -0.14955856427E-01 -0.10000083168E+02  0.15996849176E+02  0.18865636568E+02  0.10570000000E+00 0. -1.
<mgrwt>
<rscale>  0 0.20001364E+02</rscale>
<asrwt>0</asrwt>
<pdfrwt beam="2">  1        2 0.44241664E-03 0.20001364E+02</pdfrwt>
<pdfrwt beam="1">  1       -2 0.53505824E-02 0.20001364E+02</pdfrwt>
<totfact> 0.35492897E+06</totfact>
</mgrwt>
</event>
<event>
 4    1  0.1607476E-006  0.2019139E+02  0.7818608E-02  0.1741549E+00
          2   -1    0    0  501    0  0.00000000000E+00  0.00000000000E+00  0.13567366396E+02  0.13567366645E+02  0.26000000000E-02 0.  1.
         -2   -1    0    0    0  501 -0.00000000000E+00 -0.00000000000E+00 -0.75123651773E+01  0.75123656272E+01  0.26000000000E-02 0. -1.
        -13    1    1    2    0    0  0.86493460825E+01  0.51997515770E+01  0.32900436194E+01  0.10615279724E+02  0.10570000000E+00 0.  1.
         13    1    1    2    0    0 -0.86493460825E+01 -0.51997515770E+01  0.27649575996E+01  0.10464452548E+02  0.10570000000E+00 0. -1.
<mgrwt>
<rscale>  0 0.20191386E+02</rscale>
<asrwt>0</asrwt>
<pdfrwt beam="1">  1        2 0.20872872E-02 0.20191386E+02</pdfrwt>
<pdfrwt beam="2">  1       -2 0.11557485E-02 0.20191386E+02</pdfrwt>
<totfact> 0.39508888E+06</totfact>
</mgrwt>
</event>
<event>
 4    1  0.1607476E-006  0.2002348E+02  0.7818608E-02  0.1744862E+00
         -2   -1    0    0    0  501 -0.00000000000E+00  0.00000000000E+00  0.83416386123E+02  0.83416386164E+02  0.26000000000E-02 0. -1.
          2   -1    0    0  501    0  0.00000000000E+00 -0.00000000000E+00 -0.12016197384E+01  0.12016225513E+01  0.26000000000E-02 0.  1.
        -13    1    1    2    0    0 -0.97605959249E+01 -0.22170001116E+01  0.41946229630E+02  0.43124026655E+02  0.10570000000E+00 0.  1.
         13    1    1    2    0    0  0.97605959249E+01  0.22170001116E+01  0.40268536755E+02  0.41493982060E+02  0.10570000000E+00 0. -1.
<mgrwt>
<rscale>  0 0.20023476E+02</rscale>
<asrwt>0</asrwt>
<pdfrwt beam="2">  1        2 0.18486484E-03 0.20023476E+02</pdfrwt>
<pdfrwt beam="1">  1       -2 0.12833287E-01 0.20023476E+02</pdfrwt>
<totfact> 0.30907006E+06</totfact>
</mgrwt>
</event>
<event>
 4    1  0.1607476E-006  0.2004637E+02  0.7818608E-02  0.1744408E+00
          2   -1    0    0  501    0  0.00000000000E+00  0.00000000000E+00  0.59195558628E+02  0.59195558685E+02  0.26000000000E-02 0. -1.
         -2   -1    0    0    0  501 -0.00000000000E+00 -0.00000000000E+00 -0.16971564963E+01  0.16971584878E+01  0.26000000000E-02 0.  1.
        -13    1    1    2    0    0 -0.89200831354E+01 -0.45439225633E+01  0.30230791529E+02  0.31845361426E+02  0.10570000000E+00 0. -1.
         13    1    1    2    0    0  0.89200831354E+01  0.45439225633E+01  0.27267610602E+02  0.29047355746E+02  0.10570000000E+00 0.  1.
<mgrwt>
<rscale>  0 0.20046365E+02</rscale>
<asrwt>0</asrwt>
<pdfrwt beam="1">  1        2 0.91070078E-02 0.20046365E+02</pdfrwt>
<pdfrwt beam="2">  1       -2 0.26110120E-03 0.20046365E+02</pdfrwt>
<totfact> 0.47345060E+06</totfact>
</mgrwt>
</event>
<event>
 5    1  0.1607476E-006  0.2000257E+02  0.7818608E-02  0.1745277E+00
          2   -1    0    0  501    0  0.00000000000E+00  0.00000000000E+00  0.16897927952E+01  0.16897947955E+01  0.26000000000E-02 0.  1.
         -2   -1    0    0    0  501 -0.00000000000E+00 -0.00000000000E+00 -0.59193997149E+02  0.59193997206E+02  0.26000000000E-02 0. -1.
       1023    2    1    2    0    0  0.00000000000E+00  0.00000000000E+00 -0.57504204354E+02  0.60883792001E+02  0.20002565089E+02 0.  0.
        -13    1    3    3    0    0 -0.14597668080E+01 -0.98935942967E+01 -0.28809273713E+02  0.30495894012E+02  0.10570000000E+00 0. -1.
         13    1    3    3    0    0  0.14597668080E+01  0.98935942967E+01 -0.28694930641E+02  0.30387897989E+02  0.10570000000E+00 0.  1.
<mgrwt>
<rscale>  0 0.20002565E+02</rscale>
<asrwt>0</asrwt>
<pdfrwt beam="1">  1        2 0.25996833E-03 0.20002565E+02</pdfrwt>
<pdfrwt beam="2">  1       -2 0.91067674E-02 0.20002565E+02</pdfrwt>
<totfact> 0.33023961E+06</totfact>
</mgrwt>
</event>
<event>
 4    1  0.1607476E-006  0.2079888E+02  0.7818608E-02  0.1729893E+00
          2   -1    0    0  501    0  0.00000000000E+00  0.00000000000E+00  0.35134184350E+01  0.35134193970E+01  0.26000000000E-02 0.  1.
         -2   -1    0    0    0  501 -0.00000000000E+00 -0.00000000000E+00 -0.30781512454E+02  0.30781512564E+02  0.26000000000E-02 0. -1.
        -13    1    1    2    0    0  0.54287432364E+01 -0.86834806068E+01 -0.10655499269E+02  0.14779205856E+02  0.10570000000E+00 0.  1.
         13    1    1    2    0    0 -0.54287432364E+01  0.86834806068E+01 -0.16612594750E+02  0.19515726105E+02  0.10570000000E+00 0. -1.
<mgrwt>
<rscale>  0 0.20798880E+02</rscale>
<asrwt>0</asrwt>
<pdfrwt beam="1">  1        2 0.54052602E-03 0.20798880E+02</pdfrwt>
<pdfrwt beam="2">  1       -2 0.47356172E-02 0.20798880E+02</pdfrwt>
<totfact> 0.33013430E+06</totfact>
</mgrwt>
</event>
<event>
 5    1  0.1607476E-006  0.2000178E+02  0.7818608E-02  0.1745293E+00
          2   -1    0    0  501    0  0.00000000000E+00  0.00000000000E+00  0.20116505559E+01  0.20116522361E+01  0.26000000000E-02 0. -1.
         -2   -1    0    0    0  501 -0.00000000000E+00 -0.00000000000E+00 -0.49719247818E+02  0.49719247886E+02  0.26000000000E-02 0.  1.
       1023    2    1    2    0    0  0.00000000000E+00  0.00000000000E+00 -0.47707597262E+02  0.51730900122E+02  0.20001779694E+02 0.  0.
        -13    1    3    3    0    0 -0.71759539561E+01 -0.69650641737E+01 -0.23818044377E+02  0.25832476547E+02  0.10570000000E+00 0. -1.
         13    1    3    3    0    0  0.71759539561E+01  0.69650641737E+01 -0.23889552886E+02  0.25898423575E+02  0.10570000000E+00 0.  1.
<mgrwt>
<rscale>  0 0.20001780E+02</rscale>
<asrwt>0</asrwt>
<pdfrwt beam="1">  1        2 0.30948487E-03 0.20001780E+02</pdfrwt>
<pdfrwt beam="2">  1       -2 0.76491143E-02 0.20001780E+02</pdfrwt>
<totfact> 0.33919504E+06</totfact>
</mgrwt>
</event>
<event>
 4    1  0.1607476E-006  0.2034738E+02  0.7818608E-02  0.1738507E+00
         -2   -1    0    0    0  501 -0.00000000000E+00  0.00000000000E+00  0.18749114346E+01  0.18749132374E+01  0.26000000000E-02 0.  1.
          2   -1    0    0  501    0  0.00000000000E+00 -0.00000000000E+00 -0.55204684455E+02  0.55204684517E+02  0.26000000000E-02 0. -1.
        -13    1    1    2    0    0 -0.22699581704E+01  0.98339328392E+01 -0.23079170920E+02  0.25189645651E+02  0.10570000000E+00 0.  1.
         13    1    1    2    0    0  0.22699581704E+01 -0.98339328392E+01 -0.30250602101E+02  0.31889952103E+02  0.10570000000E+00 0. -1.
<mgrwt>
<rscale>  0 0.20347378E+02</rscale>
<asrwt>0</asrwt>
<pdfrwt beam="2">  1        2 0.84930273E-02 0.20347378E+02</pdfrwt>
<pdfrwt beam="1">  1       -2 0.28844810E-03 0.20347378E+02</pdfrwt>
<totfact> 0.45276320E+06</totfact>
</mgrwt>
</event>
<event>
 5    1  0.1607476E-006  0.2000623E+02  0.7818608E-02  0.1745204E+00
         -2   -1    0    0    0  501 -0.00000000000E+00  0.00000000000E+00  0.27365566350E+01  0.27365578701E+01  0.26000000000E-02 0. -1.
          2   -1    0    0  501    0  0.00000000000E+00 -0.00000000000E+00 -0.36565040391E+02  0.36565040484E+02  0.26000000000E-02 0.  1.
       1023    2    1    2    0    0  0.00000000000E+00  0.00000000000E+00 -0.33828483756E+02  0.39301598354E+02  0.20006232027E+02 0.  0.
        -13    1    3    3    0    0 -0.88448224965E+01 -0.46700479874E+01 -0.16708917045E+02  0.19474067744E+02  0.10570000000E+00 0.  1.
         13    1    3    3    0    0  0.88448224965E+01  0.46700479874E+01 -0.17119566711E+02  0.19827530609E+02  0.10570000000E+00 0. -1.
<mgrwt>
<rscale>  0 0.20006232E+02</rscale>
<asrwt>0</asrwt>
<pdfrwt beam="2">  1        2 0.56253906E-02 0.20006232E+02</pdfrwt>
<pdfrwt beam="1">  1       -2 0.42100884E-03 0.20006232E+02</pdfrwt>
<totfact> 0.44354794E+06</totfact>
</mgrwt>
</event>
<event>
 5    1  0.1607476E-006  0.2000139E+02  0.7818608E-02  0.1745300E+00
         -2   -1    0    0    0  501 -0.00000000000E+00  0.00000000000E+00  0.69428835119E+01  0.69428839987E+01  0.26000000000E-02 0. -1.
          2   -1    0    0  501    0  0.00000000000E+00 -0.00000000000E+00 -0.14405240136E+02  0.14405240371E+02  0.26000000000E-02 0.  1.
       1023    2    1    2    0    0  0.00000000000E+00  0.00000000000E+00 -0.74623566241E+01  0.21348124369E+02  0.20001391144E+02 0.  0.
        -13    1    3    3    0    0 -0.17541414532E+01  0.98450771919E+01 -0.37455886120E+01  0.10679099386E+02  0.10570000000E+00 0.  1.
         13    1    3    3    0    0  0.17541414532E+01 -0.98450771919E+01 -0.37167680122E+01  0.10669024984E+02  0.10570000000E+00 0. -1.
<mgrwt>
<rscale>  0 0.20001391E+02</rscale>
<asrwt>0</asrwt>
<pdfrwt beam="2">  1        2 0.22161908E-02 0.20001391E+02</pdfrwt>
<pdfrwt beam="1">  1       -2 0.10681360E-02 0.20001391E+02</pdfrwt>
<totfact> 0.40554023E+06</totfact>
</mgrwt>
</event>
<event>
 5    1  0.1607476E-006  0.2000178E+02  0.7818608E-02  0.1745293E+00
         -2   -1    0    0    0  501 -0.00000000000E+00  0.00000000000E+00  0.16931176679E+02  0.16931176879E+02  0.26000000000E-02 0. -1.
          2   -1    0    0  501    0  0.00000000000E+00 -0.00000000000E+00 -0.59073120726E+01  0.59073126448E+01  0.26000000000E-02 0.  1.
       1023    2    1    2    0    0  0.00000000000E+00  0.00000000000E+00  0.11023864607E+02  0.22838489524E+02  0.20001775243E+02 0.  0.
        -13    1    3    3    0    0 -0.96641325084E+01  0.25711590355E+01  0.54933518262E+01  0.11410276189E+02  0.10570000000E+00 0. -1.
         13    1    3    3    0    0  0.96641325084E+01 -0.25711590355E+01  0.55305127805E+01  0.11428213335E+02  0.10570000000E+00 0.  1.
<mgrwt>
<rscale>  0 0.20001775E+02</rscale>
<asrwt>0</asrwt>
<pdfrwt beam="2">  1        2 0.90881732E-03 0.20001775E+02</pdfrwt>
<pdfrwt beam="1">  1       -2 0.26047964E-02 0.20001775E+02</pdfrwt>
<totfact> 0.37933944E+06</totfact>
</mgrwt>
</event>
<event>
 5    1  0.1607476E-006  0.2000132E+02  0.7818608E-02  0.1745302E+00
          2   -1    0    0  501    0  0.00000000000E+00  0.00000000000E+00  0.22971192193E+02  0.22971192340E+02  0.26000000000E-02 0. -1.
         -2   -1    0    0    0  501 -0.00000000000E+00 -0.00000000000E+00 -0.43538529125E+01  0.43538536888E+01  0.26000000000E-02 0.  1.
       1023    2    1    2    0    0  0.00000000000E+00  0.00000000000E+00  0.18617339280E+02  0.27325046029E+02  0.20001320421E+02 0.  0.
        -13    1    3    3    0    0 -0.34569168839E+01  0.93835870119E+01  0.93185785313E+01  0.13669274227E+02  0.10570000000E+00 0.  1.
         13    1    3    3    0    0  0.34569168839E+01 -0.93835870119E+01  0.92987607491E+01  0.13655771802E+02  0.10570000000E+00 0. -1.
<mgrwt>
<rscale>  0 0.20001320E+02</rscale>
<asrwt>0</asrwt>
<pdfrwt beam="1">  1        2 0.35340296E-02 0.20001320E+02</pdfrwt>
<pdfrwt beam="2">  1       -2 0.66982361E-03 0.20001320E+02</pdfrwt>
<totfact> 0.42203030E+06</totfact>
</mgrwt>
</event>
<event>
 5    1  0.1607476E-006  0.2000388E+02  0.7818608E-02  0.1745251E+00
          2   -1    0    0  501    0  0.00000000000E+00  0.00000000000E+00  0.15504153175E+01  0.15504174975E+01  0.26000000000E-02 0.  1.
         -2   -1    0    0    0  501 -0.00000000000E+00 -0.00000000000E+00 -0.64523799635E+02  0.64523799688E+02  0.26000000000E-02 0. -1.
       1023    2    1    2    0    0  0.00000000000E+00  0.00000000000E+00 -0.62973384318E+02  0.66074217185E+02  0.20003875729E+02 0.  0.
        -13    1    3    3    0    0 -0.93883116791E+01  0.34456679012E+01 -0.31088058049E+02  0.32657182199E+02  0.10570000000E+00 0. -1.
         13    1    3    3    0    0  0.93883116791E+01 -0.34456679012E+01 -0.31885326269E+02  0.33417034986E+02  0.10570000000E+00 0.  1.
<mgrwt>
<rscale>  0 0.20003876E+02</rscale>
<asrwt>0</asrwt>
<pdfrwt beam="1">  1        2 0.23852565E-03 0.20003876E+02</pdfrwt>
<pdfrwt beam="2">  1       -2 0.99267365E-02 0.20003876E+02</pdfrwt>
<totfact> 0.32542523E+06</totfact>
</mgrwt>
</event>
<event>
 5    1  0.1607476E-006  0.2000283E+02  0.7818608E-02  0.1745272E+00
         -2   -1    0    0    0  501 -0.00000000000E+00  0.00000000000E+00  0.87176227808E+01  0.87176231685E+01  0.26000000000E-02 0. -1.
          2   -1    0    0  501    0  0.00000000000E+00 -0.00000000000E+00 -0.11474267097E+02  0.11474267392E+02  0.26000000000E-02 0.  1.
       1023    2    1    2    0    0  0.00000000000E+00  0.00000000000E+00 -0.27566443165E+01  0.20191890560E+02  0.20002833712E+02 0.  0.
        -13    1    3    3    0    0  0.99729045891E+01  0.73939410364E+00 -0.12694273946E+01  0.10081078711E+02  0.10570000000E+00 0.  1.
         13    1    3    3    0    0 -0.99729045891E+01 -0.73939410364E+00 -0.14872169219E+01  0.10110811849E+02  0.10570000000E+00 0. -1.
<mgrwt>
<rscale>  0 0.20002834E+02</rscale>
<asrwt>0</asrwt>
<pdfrwt beam="2">  1        2 0.17652719E-02 0.20002834E+02</pdfrwt>
<pdfrwt beam="1">  1       -2 0.13411728E-02 0.20002834E+02</pdfrwt>
<totfact> 0.39852459E+06</totfact>
</mgrwt>
</event>
<event>
 4    1  0.1607476E-006  0.2029893E+02  0.7818608E-02  0.1739448E+00
          2   -1    0    0  501    0  0.00000000000E+00  0.00000000000E+00  0.15381690433E+02  0.15381690652E+02  0.26000000000E-02 0.  1.
         -2   -1    0    0    0  501 -0.00000000000E+00 -0.00000000000E+00 -0.66970322188E+01  0.66970327235E+01  0.26000000000E-02 0. -1.
        -13    1    1    2    0    0 -0.55824430120E+01  0.84218231802E+01  0.33048999034E+01  0.10631289269E+02  0.10570000000E+00 0.  1.
         13    1    1    2    0    0  0.55824430120E+01 -0.84218231802E+01  0.53797583104E+01  0.11447434107E+02  0.10570000000E+00 0. -1.
<mgrwt>
<rscale>  0 0.20298934E+02</rscale>
<asrwt>0</asrwt>
<pdfrwt beam="1">  1        2 0.23664140E-02 0.20298934E+02</pdfrwt>
<pdfrwt beam="2">  1       -2 0.10303127E-02 0.20298934E+02</pdfrwt>
<totfact> 0.39421984E+06</totfact>
</mgrwt>
</event>
<event>
 4    1  0.1607476E-006  0.2005575E+02  0.7818608E-02  0.1744222E+00
          2   -1    0    0  501    0  0.00000000000E+00  0.00000000000E+00  0.34843999528E+01  0.34844009228E+01  0.26000000000E-02 0.  1.
         -2   -1    0    0    0  501 -0.00000000000E+00 -0.00000000000E+00 -0.28859570444E+02  0.28859570561E+02  0.26000000000E-02 0. -1.
        -13    1    1    2    0    0 -0.93410453221E+01 -0.36016512283E+01 -0.13600027014E+02  0.16887833684E+02  0.10570000000E+00 0. -1.
         13    1    1    2    0    0  0.93410453221E+01  0.36016512283E+01 -0.11775143477E+02  0.15456137799E+02  0.10570000000E+00 0.  1.
<mgrwt>
<rscale>  0 0.20055753E+02</rscale>
<asrwt>0</asrwt>
<pdfrwt beam="1">  1        2 0.53606163E-03 0.20055753E+02</pdfrwt>
<pdfrwt beam="2">  1       -2 0.44399338E-02 0.20055753E+02</pdfrwt>
<totfact> 0.35987047E+06</totfact>
</mgrwt>
</event>
<event>
 4    1  0.1607476E-006  0.2013127E+02  0.7818608E-02  0.1742730E+00
         -2   -1    0    0    0  501 -0.00000000000E+00  0.00000000000E+00  0.10706264354E+02  0.10706264669E+02  0.26000000000E-02 0.  1.
          2   -1    0    0  501    0  0.00000000000E+00 -0.00000000000E+00 -0.94633378753E+01  0.94633382325E+01  0.26000000000E-02 0. -1.
        -13    1    1    2    0    0  0.90696379182E+01 -0.42661661167E+01 -0.30079265227E+00  0.10027968589E+02  0.10570000000E+00 0. -1.
         13    1    1    2    0    0 -0.90696379182E+01  0.42661661167E+01  0.15437191307E+01  0.10141634313E+02  0.10570000000E+00 0.  1.
<mgrwt>
<rscale>  0 0.20131270E+02</rscale>
<asrwt>0</asrwt>
<pdfrwt beam="2">  1        2 0.14558982E-02 0.20131270E+02</pdfrwt>
<pdfrwt beam="1">  1       -2 0.16471176E-02 0.20131270E+02</pdfrwt>
<totfact> 0.38720060E+06</totfact>
</mgrwt>
</event>
<event>
 5    1  0.1607476E-006  0.2000225E+02  0.7818608E-02  0.1745283E+00
          2   -1    0    0  501    0  0.00000000000E+00  0.00000000000E+00  0.45166736768E+01  0.45166744252E+01  0.26000000000E-02 0.  1.
         -2   -1    0    0    0  501 -0.00000000000E+00 -0.00000000000E+00 -0.22145170884E+02  0.22145171036E+02  0.26000000000E-02 0. -1.
       1023    2    1    2    0    0  0.00000000000E+00  0.00000000000E+00 -0.17628497207E+02  0.26661845461E+02  0.20002252114E+02 0.  0.
        -13    1    3    3    0    0  0.28958867842E+01  0.95720922470E+01 -0.87936129876E+01  0.13317278705E+02  0.10570000000E+00 0. -1.
         13    1    3    3    0    0 -0.28958867842E+01 -0.95720922470E+01 -0.88348842192E+01  0.13344566756E+02  0.10570000000E+00 0.  1.
<mgrwt>
<rscale>  0 0.20002252E+02</rscale>
<asrwt>0</asrwt>
<pdfrwt beam="1">  1        2 0.69487295E-03 0.20002252E+02</pdfrwt>
<pdfrwt beam="2">  1       -2 0.34069494E-02 0.20002252E+02</pdfrwt>
<totfact> 0.37101242E+06</totfact>
</mgrwt>
</event>
<event>
 5    1  0.1607476E-006  0.2000265E+02  0.7818608E-02  0.1745275E+00
         -2   -1    0    0    0  501 -0.00000000000E+00  0.00000000000E+00  0.45550458048E+01  0.45550465468E+01  0.26000000000E-02 0. -1.
          2   -1    0    0  501    0  0.00000000000E+00 -0.00000000000E+00 -0.21959497855E+02  0.21959498009E+02  0.26000000000E-02 0.  1.
       1023    2    1    2    0    0  0.00000000000E+00  0.00000000000E+00 -0.17404452050E+02  0.26514544556E+02  0.20002652870E+02 0.  0.
        -13    1    3    3    0    0 -0.98441254474E+01 -0.17588862251E+01 -0.88638747912E+01  0.13363380387E+02  0.10570000000E+00 0. -1.
         13    1    3    3    0    0  0.98441254474E+01  0.17588862251E+01 -0.85405772593E+01  0.13151164169E+02  0.10570000000E+00 0.  1.
<mgrwt>
<rscale>  0 0.20002653E+02</rscale>
<asrwt>0</asrwt>
<pdfrwt beam="2">  1        2 0.33783843E-02 0.20002653E+02</pdfrwt>
<pdfrwt beam="1">  1       -2 0.70077636E-03 0.20002653E+02</pdfrwt>
<totfact> 0.42019207E+06</totfact>
</mgrwt>
</event>
<event>
 5    1  0.1607476E-006  0.2000653E+02  0.7818608E-02  0.1745198E+00
          2   -1    0    0  501    0  0.00000000000E+00  0.00000000000E+00  0.81215299627E+02  0.81215299668E+02  0.26000000000E-02 0. -1.
         -2   -1    0    0    0  501 -0.00000000000E+00 -0.00000000000E+00 -0.12320975775E+01  0.12321003208E+01  0.26000000000E-02 0.  1.
       1023    2    1    2    0    0  0.00000000000E+00  0.00000000000E+00  0.79983202049E+02  0.82447399989E+02  0.20006527808E+02 0.  0.
        -13    1    3    3    0    0 -0.54143062338E+01 -0.84085651915E+01  0.39215844333E+02  0.40471129213E+02  0.10570000000E+00 0.  1.
         13    1    3    3    0    0  0.54143062338E+01  0.84085651915E+01  0.40767357716E+02  0.41976270776E+02  0.10570000000E+00 0. -1.
<mgrwt>
<rscale>  0 0.20006528E+02</rscale>
<asrwt>0</asrwt>
<pdfrwt beam="1">  1        2 0.12494663E-01 0.20006528E+02</pdfrwt>
<pdfrwt beam="2">  1       -2 0.18955368E-03 0.20006528E+02</pdfrwt>
<totfact> 0.50416140E+06</totfact>
</mgrwt>
</event>
<event>
 4    1  0.1607476E-006  0.2010161E+02  0.7818608E-02  0.1743315E+00
          2   -1    0    0  501    0  0.00000000000E+00  0.00000000000E+00  0.28755700315E+02  0.28755700432E+02  0.26000000000E-02 0.  1.
         -2   -1    0    0    0  501 -0.00000000000E+00 -0.00000000000E+00 -0.35129956039E+01  0.35129965660E+01  0.26000000000E-02 0. -1.
        -13    1    1    2    0    0 -0.28735652145E+01 -0.95935506966E+01  0.13977696291E+02  0.17195370252E+02  0.10570000000E+00 0. -1.
         13    1    1    2    0    0  0.28735652145E+01  0.95935506966E+01  0.11265008420E+02  0.15073326746E+02  0.10570000000E+00 0.  1.
<mgrwt>
<rscale>  0 0.20101609E+02</rscale>
<asrwt>0</asrwt>
<pdfrwt beam="1">  1        2 0.44239541E-02 0.20101609E+02</pdfrwt>
<pdfrwt beam="2">  1       -2 0.54046094E-03 0.20101609E+02</pdfrwt>
<totfact> 0.42686409E+06</totfact>
</mgrwt>
</event>
<event>
 5    1  0.1607476E-006  0.2000315E+02  0.7818608E-02  0.1745265E+00
         -2   -1    0    0    0  501 -0.00000000000E+00  0.00000000000E+00  0.59438750083E+01  0.59438755770E+01  0.26000000000E-02 0. -1.
          2   -1    0    0  501    0  0.00000000000E+00 -0.00000000000E+00 -0.16829347527E+02  0.16829347728E+02  0.26000000000E-02 0.  1.
       1023    2    1    2    0    0  0.00000000000E+00  0.00000000000E+00 -0.10885472519E+02  0.22773223305E+02  0.20003154445E+02 0.  0.
        -13    1    3    3    0    0  0.69668751806E+01 -0.71751662040E+01 -0.54470873752E+01  0.11388691461E+02  0.10570000000E+00 0.  1.
         13    1    3    3    0    0 -0.69668751806E+01  0.71751662040E+01 -0.54383851434E+01  0.11384531844E+02  0.10570000000E+00 0. -1.
<mgrwt>
<rscale>  0 0.20003154E+02</rscale>
<asrwt>0</asrwt>
<pdfrwt beam="2">  1        2 0.25891304E-02 0.20003154E+02</pdfrwt>
<pdfrwt beam="1">  1       -2 0.91444238E-03 0.20003154E+02</pdfrwt>
<totfact> 0.41054350E+06</totfact>
</mgrwt>
</event>
<event>
 5    1  0.1607476E-006  0.2000217E+02  0.7818608E-02  0.1745285E+00
         -2   -1    0    0    0  501 -0.00000000000E+00  0.00000000000E+00  0.35706047839E+02  0.35706047934E+02  0.26000000000E-02 0.  1.
          2   -1    0    0  501    0  0.00000000000E+00 -0.00000000000E+00 -0.28012521370E+01  0.28012533436E+01  0.26000000000E-02 0. -1.
       1023    2    1    2    0    0  0.00000000000E+00  0.00000000000E+00  0.32904795702E+02  0.38507301277E+02  0.20002166669E+02 0.  0.
        -13    1    3    3    0    0 -0.54948529595E+01 -0.83554765002E+01  0.16345230714E+02  0.19162075466E+02  0.10570000000E+00 0.  1.
         13    1    3    3    0    0  0.54948529595E+01  0.83554765002E+01  0.16559564988E+02  0.19345225811E+02  0.10570000000E+00 0. -1.
<mgrwt>
<rscale>  0 0.20002167E+02</rscale>
<asrwt>0</asrwt>
<pdfrwt beam="2">  1        2 0.43096198E-03 0.20002167E+02</pdfrwt>
<pdfrwt beam="1">  1       -2 0.54932381E-02 0.20002167E+02</pdfrwt>
<totfact> 0.35384445E+06</totfact>
</mgrwt>
</event>
<event>
 5    1  0.1607476E-006  0.2000195E+02  0.7818608E-02  0.1745289E+00
         -2   -1    0    0    0  501 -0.00000000000E+00  0.00000000000E+00  0.14644267822E+01  0.14644290902E+01  0.26000000000E-02 0.  1.
          2   -1    0    0  501    0  0.00000000000E+00 -0.00000000000E+00 -0.68299349879E+02  0.68299349928E+02  0.26000000000E-02 0. -1.
       1023    2    1    2    0    0  0.00000000000E+00  0.00000000000E+00 -0.66834923096E+02  0.69763779018E+02  0.20001947845E+02 0.  0.
        -13    1    3    3    0    0 -0.74450943216E+01 -0.66763714861E+01 -0.33662636156E+02  0.35116771081E+02  0.10570000000E+00 0. -1.
         13    1    3    3    0    0  0.74450943216E+01  0.66763714861E+01 -0.33172286940E+02  0.34647007938E+02  0.10570000000E+00 0.  1.
<mgrwt>
<rscale>  0 0.20001948E+02</rscale>
<asrwt>0</asrwt>
<pdfrwt beam="2">  1        2 0.10507590E-01 0.20001948E+02</pdfrwt>
<pdfrwt beam="1">  1       -2 0.22529666E-03 0.20001948E+02</pdfrwt>
<totfact> 0.48787535E+06</totfact>
</mgrwt>
</event>
<event>
 4    1  0.1607476E-006  0.2002784E+02  0.7818608E-02  0.1744775E+00
          2   -1    0    0  501    0  0.00000000000E+00  0.00000000000E+00  0.10351842996E+03  0.10351842999E+03  0.26000000000E-02 0.  1.
         -2   -1    0    0    0  501 -0.00000000000E+00 -0.00000000000E+00 -0.96870126405E+00  0.96870475326E+00  0.26000000000E-02 0. -1.
        -13    1    1    2    0    0 -0.11881551131E+00  0.10011190043E+02  0.52169443987E+02  0.53121559669E+02  0.10570000000E+00 0. -1.
         13    1    1    2    0    0  0.11881551131E+00 -0.10011190043E+02  0.50380284705E+02  0.51365575073E+02  0.10570000000E+00 0.  1.
<mgrwt>
<rscale>  0 0.20027842E+02</rscale>
<asrwt>0</asrwt>
<pdfrwt beam="1">  1        2 0.15925902E-01 0.20027842E+02</pdfrwt>
<pdfrwt beam="2">  1       -2 0.14903133E-03 0.20027842E+02</pdfrwt>
<totfact> 0.53014445E+06</totfact>
</mgrwt>
</event>
<event>
 5    1  0.1607476E-006  0.2000411E+02  0.7818608E-02  0.1745246E+00
         -2   -1    0    0    0  501 -0.00000000000E+00  0.00000000000E+00  0.44262987547E+01  0.44262995183E+01  0.26000000000E-02 0. -1.
          2   -1    0    0  501    0  0.00000000000E+00 -0.00000000000E+00 -0.22601527511E+02  0.22601527660E+02  0.26000000000E-02 0.  1.
       1023    2    1    2    0    0  0.00000000000E+00  0.00000000000E+00 -0.18175228756E+02  0.27027827179E+02  0.20004112119E+02 0.  0.
        -13    1    3    3    0    0 -0.56439147686E+01  0.82562045589E+01 -0.92310189751E+01  0.13610347954E+02  0.10570000000E+00 0. -1.
         13    1    3    3    0    0  0.56439147686E+01 -0.82562045589E+01 -0.89442097812E+01  0.13417479224E+02  0.10570000000E+00 0.  1.
<mgrwt>
<rscale>  0 0.20004112E+02</rscale>
<asrwt>0</asrwt>
<pdfrwt beam="2">  1        2 0.34771581E-02 0.20004112E+02</pdfrwt>
<pdfrwt beam="1">  1       -2 0.68096912E-03 0.20004112E+02</pdfrwt>
<totfact> 0.42125300E+06</totfact>
</mgrwt>
</event>
<event>
 5    1  0.1607476E-006  0.2000427E+02  0.7818608E-02  0.1745243E+00
          2   -1    0    0  501    0  0.00000000000E+00  0.00000000000E+00  0.10618115688E+03  0.10618115691E+03  0.26000000000E-02 0.  1.
         -2   -1    0    0    0  501 -0.00000000000E+00 -0.00000000000E+00 -0.94218706549E+00  0.94219065288E+00  0.26000000000E-02 0. -1.
       1023    2    1    2    0    0  0.00000000000E+00  0.00000000000E+00  0.10523896982E+03  0.10712334757E+03  0.20004270191E+02 0.  0.
        -13    1    3    3    0    0  0.18021011709E-01 -0.10001475019E+02  0.52398259625E+02  0.53344340014E+02  0.10570000000E+00 0. -1.
         13    1    3    3    0    0 -0.18021011709E-01  0.10001475019E+02  0.52840710191E+02  0.53779007552E+02  0.10570000000E+00 0.  1.
<mgrwt>
<rscale>  0 0.20004270E+02</rscale>
<asrwt>0</asrwt>
<pdfrwt beam="1">  1        2 0.16335569E-01 0.20004270E+02</pdfrwt>
<pdfrwt beam="2">  1       -2 0.14495208E-03 0.20004270E+02</pdfrwt>
<totfact> 0.53466838E+06</totfact>
</mgrwt>
</event>
<event>
 5    1  0.1607476E-006  0.2000490E+02  0.7818608E-02  0.1745231E+00
          2   -1    0    0  501    0  0.00000000000E+00  0.00000000000E+00  0.20828433006E+02  0.20828433168E+02  0.26000000000E-02 0.  1.
         -2   -1    0    0    0  501 -0.00000000000E+00 -0.00000000000E+00 -0.48034796918E+01  0.48034803954E+01  0.26000000000E-02 0. -1.
       1023    2    1    2    0    0  0.00000000000E+00  0.00000000000E+00  0.16024953314E+02  0.25631913563E+02  0.20004896006E+02 0.  0.
        -13    1    3    3    0    0  0.94318171726E+01 -0.33283868693E+01  0.79850191284E+01  0.12798790462E+02  0.10570000000E+00 0.  1.
         13    1    3    3    0    0 -0.94318171726E+01  0.33283868693E+01  0.80399341855E+01  0.12833123101E+02  0.10570000000E+00 0. -1.
<mgrwt>
<rscale>  0 0.20004896E+02</rscale>
<asrwt>0</asrwt>
<pdfrwt beam="1">  1        2 0.32043743E-02 0.20004896E+02</pdfrwt>
<pdfrwt beam="2">  1       -2 0.73899695E-03 0.20004896E+02</pdfrwt>
<totfact> 0.41806221E+06</totfact>
</mgrwt>
</event>
<event>
 5    1  0.1607476E-006  0.2000632E+02  0.7818608E-02  0.1745202E+00
         -2   -1    0    0    0  501 -0.00000000000E+00  0.00000000000E+00  0.11468199985E+01  0.11468229457E+01  0.26000000000E-02 0.  1.
          2   -1    0    0  501    0  0.00000000000E+00 -0.00000000000E+00 -0.87252635028E+02  0.87252635067E+02  0.26000000000E-02 0. -1.
       1023    2    1    2    0    0  0.00000000000E+00  0.00000000000E+00 -0.86105815030E+02  0.88399458013E+02  0.20006318877E+02 0.  0.
        -13    1    3    3    0    0 -0.39130332604E+01  0.92036047043E+01 -0.42239872444E+02  0.43407789225E+02  0.10570000000E+00 0.  1.
         13    1    3    3    0    0  0.39130332604E+01 -0.92036047043E+01 -0.43865942586E+02  0.44991668788E+02  0.10570000000E+00 0. -1.
<mgrwt>
<rscale>  0 0.20006319E+02</rscale>
<asrwt>0</asrwt>
<pdfrwt beam="2">  1        2 0.13423477E-01 0.20006319E+02</pdfrwt>
<pdfrwt beam="1">  1       -2 0.17643414E-03 0.20006319E+02</pdfrwt>
<totfact> 0.51169979E+06</totfact>
</mgrwt>
</event>
<event>
 5    1  0.1607476E-006  0.2000283E+02  0.7818608E-02  0.1745272E+00
          2   -1    0    0  501    0  0.00000000000E+00  0.00000000000E+00  0.81582539232E+02  0.81582539273E+02  0.26000000000E-02 0. -1.
         -2   -1    0    0    0  501 -0.00000000000E+00 -0.00000000000E+00 -0.12260983721E+01  0.12261011288E+01  0.26000000000E-02 0.  1.
       1023    2    1    2    0    0  0.00000000000E+00  0.00000000000E+00  0.80356440860E+02  0.82808640402E+02  0.20002833239E+02 0.  0.
        -13    1    3    3    0    0  0.99610382570E+01  0.88533791635E+00  0.40613505576E+02  0.41826715315E+02  0.10570000000E+00 0.  1.
         13    1    3    3    0    0 -0.99610382570E+01 -0.88533791635E+00  0.39742935284E+02  0.40981925087E+02  0.10570000000E+00 0. -1.
<mgrwt>
<rscale>  0 0.20002833E+02</rscale>
<asrwt>0</asrwt>
<pdfrwt beam="1">  1        2 0.12551165E-01 0.20002833E+02</pdfrwt>
<pdfrwt beam="2">  1       -2 0.18863067E-03 0.20002833E+02</pdfrwt>
<totfact> 0.50482858E+06</totfact>
</mgrwt>
</event>
<event>
 4    1  0.1607476E-006  0.2008920E+02  0.7818608E-02  0.1743560E+00
         -2   -1    0    0    0  501 -0.00000000000E+00  0.00000000000E+00  0.22038496691E+01  0.22038512028E+01  0.26000000000E-02 0. -1.
          2   -1    0    0  501    0  0.00000000000E+00 -0.00000000000E+00 -0.45780780163E+02  0.45780780237E+02  0.26000000000E-02 0.  1.
        -13    1    1    2    0    0  0.32629401061E+01  0.94816148920E+01 -0.20405925605E+02  0.22736771349E+02  0.10570000000E+00 0. -1.
         13    1    1    2    0    0 -0.32629401061E+01 -0.94816148920E+01 -0.23171004889E+02  0.25247860091E+02  0.10570000000E+00 0.  1.
<mgrwt>
<rscale>  0 0.20089201E+02</rscale>
<asrwt>0</asrwt>
<pdfrwt beam="2">  1        2 0.70431964E-02 0.20089201E+02</pdfrwt>
<pdfrwt beam="1">  1       -2 0.33905395E-03 0.20089201E+02</pdfrwt>
<totfact> 0.45281097E+06</totfact>
</mgrwt>
</event>
<event>
 5    1  0.1607476E-006  0.2000303E+02  0.7818608E-02  0.1745268E+00
         -2   -1    0    0    0  501 -0.00000000000E+00  0.00000000000E+00  0.34397446250E+01  0.34397456076E+01  0.26000000000E-02 0.  1.
          2   -1    0    0  501    0  0.00000000000E+00 -0.00000000000E+00 -0.29080728908E+02  0.29080729024E+02  0.26000000000E-02 0. -1.
       1023    2    1    2    0    0  0.00000000000E+00  0.00000000000E+00 -0.25640984283E+02  0.32520474632E+02  0.20003029652E+02 0.  0.
        -13    1    3    3    0    0  0.70942893476E+01  0.70490586875E+01 -0.12870775767E+02  0.16299883774E+02  0.10570000000E+00 0. -1.
         13    1    3    3    0    0 -0.70942893476E+01 -0.70490586875E+01 -0.12770208516E+02  0.16220590858E+02  0.10570000000E+00 0.  1.
<mgrwt>
<rscale>  0 0.20003030E+02</rscale>
<asrwt>0</asrwt>
<pdfrwt beam="2">  1        2 0.44739582E-02 0.20003030E+02</pdfrwt>
<pdfrwt beam="1">  1       -2 0.52919158E-03 0.20003030E+02</pdfrwt>
<totfact> 0.43211991E+06</totfact>
</mgrwt>
</event>
<event>
 5    1  0.1607476E-006  0.2001046E+02  0.7818608E-02  0.1745120E+00
          2   -1    0    0  501    0  0.00000000000E+00  0.00000000000E+00  0.13121822987E+02  0.13121823244E+02  0.26000000000E-02 0.  1.
         -2   -1    0    0    0  501 -0.00000000000E+00 -0.00000000000E+00 -0.76288623959E+01  0.76288628389E+01  0.26000000000E-02 0. -1.
       1023    2    1    2    0    0  0.00000000000E+00  0.00000000000E+00  0.54929605908E+01  0.20750686083E+02  0.20010456188E+02 0.  0.
        -13    1    3    3    0    0 -0.99095640891E+01  0.13733012730E+01  0.28392311458E+01  0.10399895327E+02  0.10570000000E+00 0.  1.
         13    1    3    3    0    0  0.99095640891E+01 -0.13733012730E+01  0.26537294451E+01  0.10350790756E+02  0.10570000000E+00 0. -1.
<mgrwt>
<rscale>  0 0.20010456E+02</rscale>
<asrwt>0</asrwt>
<pdfrwt beam="1">  1        2 0.20187420E-02 0.20010456E+02</pdfrwt>
<pdfrwt beam="2">  1       -2 0.11736712E-02 0.20010456E+02</pdfrwt>
<totfact> 0.40221903E+06</totfact>
</mgrwt>
</event>
<event>
 5    1  0.1607476E-006  0.2000429E+02  0.7818608E-02  0.1745243E+00
         -2   -1    0    0    0  501 -0.00000000000E+00  0.00000000000E+00  0.92300397003E+00  0.92300763198E+00  0.26000000000E-02 0.  1.
          2   -1    0    0  501    0  0.00000000000E+00 -0.00000000000E+00 -0.10838818457E+03  0.10838818460E+03  0.26000000000E-02 0. -1.
       1023    2    1    2    0    0  0.00000000000E+00  0.00000000000E+00 -0.10746518060E+03  0.10931119223E+03  0.20004292191E+02 0.  0.
        -13    1    3    3    0    0  0.55740438346E+01  0.83042855301E+01 -0.53595306158E+02  0.54520630384E+02  0.10570000000E+00 0. -1.
         13    1    3    3    0    0 -0.55740438346E+01 -0.83042855301E+01 -0.53869874441E+02  0.54790561848E+02  0.10570000000E+00 0.  1.
<mgrwt>
<rscale>  0 0.20004292E+02</rscale>
<asrwt>0</asrwt>
<pdfrwt beam="2">  1        2 0.16675096E-01 0.20004292E+02</pdfrwt>
<pdfrwt beam="1">  1       -2 0.14200098E-03 0.20004292E+02</pdfrwt>
<totfact> 0.53725758E+06</totfact>
</mgrwt>
</event>
<event>
 5    1  0.1607476E-006  0.2000893E+02  0.7818608E-02  0.1745150E+00
          2   -1    0    0  501    0  0.00000000000E+00  0.00000000000E+00  0.15463165472E+01  0.15463187330E+01  0.26000000000E-02 0. -1.
         -2   -1    0    0    0  501 -0.00000000000E+00 -0.00000000000E+00 -0.64727549530E+02  0.64727549582E+02  0.26000000000E-02 0.  1.
       1023    2    1    2    0    0  0.00000000000E+00  0.00000000000E+00 -0.63181232983E+02  0.66273868315E+02  0.20008933511E+02 0.  0.
        -13    1    3    3    0    0  0.97670050217E+01  0.21638780924E+01 -0.31465492045E+02  0.33017648578E+02  0.10570000000E+00 0.  1.
         13    1    3    3    0    0 -0.97670050217E+01 -0.21638780924E+01 -0.31715740938E+02  0.33256219738E+02  0.10570000000E+00 0. -1.
<mgrwt>
<rscale>  0 0.20008934E+02</rscale>
<asrwt>0</asrwt>
<pdfrwt beam="1">  1        2 0.23789507E-03 0.20008934E+02</pdfrwt>
<pdfrwt beam="2">  1       -2 0.99580827E-02 0.20008934E+02</pdfrwt>
<totfact> 0.32506675E+06</totfact>
</mgrwt>
</event>
<event>
 5    1  0.1607476E-006  0.2000262E+02  0.7818608E-02  0.1745276E+00
          2   -1    0    0  501    0  0.00000000000E+00  0.00000000000E+00  0.61576237158E+02  0.61576237213E+02  0.26000000000E-02 0. -1.
         -2   -1    0    0    0  501 -0.00000000000E+00 -0.00000000000E+00 -0.16244272720E+01  0.16244293527E+01  0.26000000000E-02 0.  1.
       1023    2    1    2    0    0  0.00000000000E+00  0.00000000000E+00  0.59951809886E+02  0.63200666566E+02  0.20002618472E+02 0.  0.
        -13    1    3    3    0    0  0.90012767515E+01 -0.43575067613E+01  0.29771978266E+02  0.31406889542E+02  0.10570000000E+00 0. -1.
         13    1    3    3    0    0 -0.90012767515E+01  0.43575067613E+01  0.30179831620E+02  0.31793777024E+02  0.10570000000E+00 0.  1.
<mgrwt>
<rscale>  0 0.20002618E+02</rscale>
<asrwt>0</asrwt>
<pdfrwt beam="1">  1        2 0.94732679E-02 0.20002618E+02</pdfrwt>
<pdfrwt beam="2">  1       -2 0.24991204E-03 0.20002618E+02</pdfrwt>
<totfact> 0.47895211E+06</totfact>
</mgrwt>
</event>
<event>
 5    1  0.1607476E-006  0.2000474E+02  0.7818608E-02  0.1745234E+00
         -2   -1    0    0    0  501 -0.00000000000E+00  0.00000000000E+00  0.69784452890E+01  0.69784457734E+01  0.26000000000E-02 0.  1.
          2   -1    0    0  501    0  0.00000000000E+00 -0.00000000000E+00 -0.14336634084E+02  0.14336634320E+02  0.26000000000E-02 0. -1.
       1023    2    1    2    0    0  0.00000000000E+00  0.00000000000E+00 -0.73581887954E+01  0.21315080094E+02  0.20004741864E+02 0.  0.
        -13    1    3    3    0    0  0.29859151999E+01 -0.95455158084E+01 -0.36143688802E+01  0.10635196121E+02  0.10570000000E+00 0.  1.
         13    1    3    3    0    0 -0.29859151999E+01  0.95455158084E+01 -0.37438199152E+01  0.10679883973E+02  0.10570000000E+00 0. -1.
<mgrwt>
<rscale>  0 0.20004742E+02</rscale>
<asrwt>0</asrwt>
<pdfrwt beam="2">  1        2 0.22056361E-02 0.20004742E+02</pdfrwt>
<pdfrwt beam="1">  1       -2 0.10736070E-02 0.20004742E+02</pdfrwt>
<totfact> 0.40523527E+06</totfact>
</mgrwt>
</event>
<event>
 5    1  0.1607476E-006  0.2000392E+02  0.7818608E-02  0.1745250E+00
         -2   -1    0    0    0  501 -0.00000000000E+00  0.00000000000E+00  0.35893293621E+01  0.35893303038E+01  0.26000000000E-02 0.  1.
          2   -1    0    0  501    0  0.00000000000E+00 -0.00000000000E+00 -0.27871271960E+02  0.27871272082E+02  0.26000000000E-02 0. -1.
       1023    2    1    2    0    0  0.00000000000E+00  0.00000000000E+00 -0.24281942598E+02  0.31460602385E+02  0.20003918769E+02 0.  0.
        -13    1    3    3    0    0  0.47386691689E+01 -0.88073662976E+01 -0.12231760356E+02  0.15800374062E+02  0.10570000000E+00 0. -1.
         13    1    3    3    0    0 -0.47386691689E+01  0.88073662976E+01 -0.12050182242E+02  0.15660228324E+02  0.10570000000E+00 0.  1.
<mgrwt>
<rscale>  0 0.20003919E+02</rscale>
<asrwt>0</asrwt>
<pdfrwt beam="2">  1        2 0.42878879E-02 0.20003919E+02</pdfrwt>
<pdfrwt beam="1">  1       -2 0.55220462E-03 0.20003919E+02</pdfrwt>
<totfact> 0.43012734E+06</totfact>
</mgrwt>
</event>
<event>
 5    1  0.1607476E-006  0.2000404E+02  0.7818608E-02  0.1745248E+00
          2   -1    0    0  501    0  0.00000000000E+00  0.00000000000E+00  0.76334976121E+02  0.76334976166E+02  0.26000000000E-02 0.  1.
         -2   -1    0    0    0  501 -0.00000000000E+00 -0.00000000000E+00 -0.13105434200E+01  0.13105459990E+01  0.26000000000E-02 0. -1.
       1023    2    1    2    0    0  0.00000000000E+00  0.00000000000E+00  0.75024432701E+02  0.77645522165E+02  0.20004039843E+02 0.  0.
        -13    1    3    3    0    0  0.57181302751E+01  0.82056203910E+01  0.37499831680E+02  0.38810794482E+02  0.10570000000E+00 0. -1.
         13    1    3    3    0    0 -0.57181302751E+01 -0.82056203910E+01  0.37524601022E+02  0.38834727683E+02  0.10570000000E+00 0.  1.
<mgrwt>
<rscale>  0 0.20004040E+02</rscale>
<asrwt>0</asrwt>
<pdfrwt beam="1">  1        2 0.11743843E-01 0.20004040E+02</pdfrwt>
<pdfrwt beam="2">  1       -2 0.20162227E-03 0.20004040E+02</pdfrwt>
<totfact> 0.49812754E+06</totfact>
</mgrwt>
</event>
<event>
 5    1  0.1607476E-006  0.2000397E+02  0.7818608E-02  0.1745249E+00
         -2   -1    0    0    0  501 -0.00000000000E+00  0.00000000000E+00  0.17837200694E+02  0.17837200884E+02  0.26000000000E-02 0. -1.
          2   -1    0    0  501    0  0.00000000000E+00 -0.00000000000E+00 -0.56084858974E+01  0.56084865001E+01  0.26000000000E-02 0.  1.
       1023    2    1    2    0    0  0.00000000000E+00  0.00000000000E+00  0.12228714797E+02  0.23445687384E+02  0.20003969389E+02 0.  0.
        -13    1    3    3    0    0  0.96324272750E+01 -0.26875380258E+01  0.62882382686E+01  0.11813535832E+02  0.10570000000E+00 0. -1.
         13    1    3    3    0    0 -0.96324272750E+01  0.26875380258E+01  0.59404765284E+01  0.11632151552E+02  0.10570000000E+00 0.  1.
<mgrwt>
<rscale>  0 0.20003969E+02</rscale>
<asrwt>0</asrwt>
<pdfrwt beam="2">  1        2 0.86284406E-03 0.20003969E+02</pdfrwt>
<pdfrwt beam="1">  1       -2 0.27441848E-02 0.20003969E+02</pdfrwt>
<totfact> 0.37768710E+06</totfact>
</mgrwt>
</event>
<event>
 4    1  0.1607476E-006  0.2001821E+02  0.7818608E-02  0.1744966E+00
         -2   -1    0    0    0  501 -0.00000000000E+00  0.00000000000E+00  0.68090726703E+02  0.68090726753E+02  0.26000000000E-02 0.  1.
          2   -1    0    0  501    0  0.00000000000E+00 -0.00000000000E+00 -0.14713031108E+01  0.14713054081E+01  0.26000000000E-02 0. -1.
        -13    1    1    2    0    0  0.97678717732E+01 -0.21669821718E+01  0.32431463357E+02  0.33939919250E+02  0.10570000000E+00 0.  1.
         13    1    1    2    0    0 -0.97678717732E+01  0.21669821718E+01  0.34187960235E+02  0.35622112911E+02  0.10570000000E+00 0. -1.
<mgrwt>
<rscale>  0 0.20018210E+02</rscale>
<asrwt>0</asrwt>
<pdfrwt beam="2">  1        2 0.22635447E-03 0.20018210E+02</pdfrwt>
<pdfrwt beam="1">  1       -2 0.10475498E-01 0.20018210E+02</pdfrwt>
<totfact> 0.32182283E+06</totfact>
</mgrwt>
</event>
<event>
 4    1  0.1607476E-006  0.2002295E+02  0.7818608E-02  0.1744872E+00
         -2   -1    0    0    0  501 -0.00000000000E+00  0.00000000000E+00  0.11663676363E+03  0.11663676366E+03  0.26000000000E-02 0. -1.
          2   -1    0    0  501    0  0.00000000000E+00 -0.00000000000E+00 -0.85932964948E+00  0.85933358277E+00  0.26000000000E-02 0.  1.
        -13    1    1    2    0    0 -0.92060620377E+01  0.39194206488E+01  0.55986764755E+02  0.56873917016E+02  0.10570000000E+00 0.  1.
         13    1    1    2    0    0  0.92060620377E+01 -0.39194206488E+01  0.59790669230E+02  0.60622180230E+02  0.10570000000E+00 0. -1.
<mgrwt>
<rscale>  0 0.20022953E+02</rscale>
<asrwt>0</asrwt>
<pdfrwt beam="2">  1        2 0.13220486E-03 0.20022953E+02</pdfrwt>
<pdfrwt beam="1">  1       -2 0.17944119E-01 0.20022953E+02</pdfrwt>
<totfact> 0.28494906E+06</totfact>
</mgrwt>
</event>
<event>
 5    1  0.1607476E-006  0.2000854E+02  0.7818608E-02  0.1745158E+00
         -2   -1    0    0    0  501 -0.00000000000E+00  0.00000000000E+00  0.97661804418E+00  0.97662150509E+00  0.26000000000E-02 0.  1.
          2   -1    0    0  501    0  0.00000000000E+00 -0.00000000000E+00 -0.10248141292E+03  0.10248141295E+03  0.26000000000E-02 0. -1.
       1023    2    1    2    0    0  0.00000000000E+00  0.00000000000E+00 -0.10150479487E+03  0.10345803446E+03  0.20008535957E+02 0.  0.
        -13    1    3    3    0    0  0.74216104112E+01  0.67074266812E+01 -0.51092702769E+02  0.52062897753E+02  0.10570000000E+00 0.  1.
         13    1    3    3    0    0 -0.74216104112E+01 -0.67074266812E+01 -0.50412092104E+02  0.51395136702E+02  0.10570000000E+00 0. -1.
<mgrwt>
<rscale>  0 0.20008536E+02</rscale>
<asrwt>0</asrwt>
<pdfrwt beam="2">  1        2 0.15766363E-01 0.20008536E+02</pdfrwt>
<pdfrwt beam="1">  1       -2 0.15024928E-03 0.20008536E+02</pdfrwt>
<totfact> 0.53004238E+06</totfact>
</mgrwt>
</event>
<event>
 4    1  0.1607476E-006  0.2010912E+02  0.7818608E-02  0.1743167E+00
          2   -1    0    0  501    0  0.00000000000E+00  0.00000000000E+00  0.17343283411E+02  0.17343283606E+02  0.26000000000E-02 0. -1.
         -2   -1    0    0    0  501 -0.00000000000E+00 -0.00000000000E+00 -0.58290108346E+01  0.58290114145E+01  0.26000000000E-02 0.  1.
        -13    1    1    2    0    0  0.66532216496E+01 -0.74845160676E+01  0.67876059998E+01  0.12098186095E+02  0.10570000000E+00 0. -1.
         13    1    1    2    0    0 -0.66532216496E+01  0.74845160676E+01  0.47266665770E+01  0.11074108926E+02  0.10570000000E+00 0.  1.
<mgrwt>
<rscale>  0 0.20109122E+02</rscale>
<asrwt>0</asrwt>
<pdfrwt beam="1">  1        2 0.26681976E-02 0.20109122E+02</pdfrwt>
<pdfrwt beam="2">  1       -2 0.89677094E-03 0.20109122E+02</pdfrwt>
<totfact> 0.40668237E+06</totfact>
</mgrwt>
</event>
<event>
 5    1  0.1607476E-006  0.2000963E+02  0.7818608E-02  0.1745137E+00
         -2   -1    0    0    0  501 -0.00000000000E+00  0.00000000000E+00  0.13318012190E+02  0.13318012444E+02  0.26000000000E-02 0.  1.
          2   -1    0    0  501    0  0.00000000000E+00 -0.00000000000E+00 -0.75158624431E+01  0.75158628928E+01  0.26000000000E-02 0. -1.
       1023    2    1    2    0    0  0.00000000000E+00  0.00000000000E+00  0.58021497472E+01  0.20833875337E+02  0.20009633177E+02 0.  0.
        -13    1    3    3    0    0 -0.65650047851E+01  0.75487626130E+01  0.29485338413E+01  0.10430154798E+02  0.10570000000E+00 0. -1.
         13    1    3    3    0    0  0.65650047851E+01 -0.75487626130E+01  0.28536159059E+01  0.10403720539E+02  0.10570000000E+00 0.  1.
<mgrwt>
<rscale>  0 0.20009633E+02</rscale>
<asrwt>0</asrwt>
<pdfrwt beam="2">  1        2 0.11562866E-02 0.20009633E+02</pdfrwt>
<pdfrwt beam="1">  1       -2 0.20489250E-02 0.20009633E+02</pdfrwt>
<totfact> 0.38601311E+06</totfact>
</mgrwt>
</event>
<event>
 4    1  0.1607476E-006  0.2066722E+02  0.7818608E-02  0.1732376E+00
          2   -1    0    0  501    0  0.00000000000E+00  0.00000000000E+00  0.66807879169E+01  0.66807884229E+01  0.26000000000E-02 0. -1.
         -2   -1    0    0    0  501 -0.00000000000E+00 -0.00000000000E+00 -0.15983666983E+02  0.15983667195E+02  0.26000000000E-02 0.  1.
        -13    1    1    2    0    0 -0.10144802338E+02  0.19379957028E+01 -0.43055496849E+01  0.11190253456E+02  0.10570000000E+00 0. -1.
         13    1    1    2    0    0  0.10144802338E+02 -0.19379957028E+01 -0.49973293816E+01  0.11474202162E+02  0.10570000000E+00 0.  1.
<mgrwt>
<rscale>  0 0.20667220E+02</rscale>
<asrwt>0</asrwt>
<pdfrwt beam="1">  1        2 0.10278136E-02 0.20667220E+02</pdfrwt>
<pdfrwt beam="2">  1       -2 0.24590257E-02 0.20667220E+02</pdfrwt>
<totfact> 0.35493095E+06</totfact>
</mgrwt>
</event>
<event>
 5    1  0.1607476E-006  0.2000119E+02  0.7818608E-02  0.1745304E+00
         -2   -1    0    0    0  501 -0.00000000000E+00  0.00000000000E+00  0.11492800134E+02  0.11492800429E+02  0.26000000000E-02 0.  1.
          2   -1    0    0  501    0  0.00000000000E+00 -0.00000000000E+00 -0.87021341409E+01  0.87021345293E+01  0.26000000000E-02 0. -1.
       1023    2    1    2    0    0  0.00000000000E+00  0.00000000000E+00  0.27906659935E+01  0.20194934958E+02  0.20001189496E+02 0.  0.
        -13    1    3    3    0    0  0.63324804874E+01  0.77395336214E+01  0.13895305075E+01  0.10096665654E+02  0.10570000000E+00 0. -1.
         13    1    3    3    0    0 -0.63324804874E+01 -0.77395336214E+01  0.14011354859E+01  0.10098269304E+02  0.10570000000E+00 0.  1.
<mgrwt>
<rscale>  0 0.20001189E+02</rscale>
<asrwt>0</asrwt>
<pdfrwt beam="2">  1        2 0.13387899E-02 0.20001189E+02</pdfrwt>
<pdfrwt beam="1">  1       -2 0.17681232E-02 0.20001189E+02</pdfrwt>
<totfact> 0.39058422E+06</totfact>
</mgrwt>
</event>
<event>
 5    1  0.1607476E-006  0.2000254E+02  0.7818608E-02  0.1745278E+00
          2   -1    0    0  501    0  0.00000000000E+00  0.00000000000E+00  0.99535584584E+00  0.99535924161E+00  0.26000000000E-02 0.  1.
         -2   -1    0    0    0  501 -0.00000000000E+00 -0.00000000000E+00 -0.10049189168E+03  0.10049189171E+03  0.26000000000E-02 0. -1.
       1023    2    1    2    0    0  0.00000000000E+00  0.00000000000E+00 -0.99496535830E+02  0.10148725095E+03  0.20002536425E+02 0.  0.
        -13    1    3    3    0    0  0.92313254916E+01 -0.38465908130E+01 -0.49868564795E+02  0.50861562682E+02  0.10570000000E+00 0.  1.
         13    1    3    3    0    0 -0.92313254916E+01  0.38465908130E+01 -0.49627971035E+02  0.50625688269E+02  0.10570000000E+00 0. -1.
<mgrwt>
<rscale>  0 0.20002536E+02</rscale>
<asrwt>0</asrwt>
<pdfrwt beam="1">  1        2 0.15313201E-03 0.20002536E+02</pdfrwt>
<pdfrwt beam="2">  1       -2 0.15460283E-01 0.20002536E+02</pdfrwt>
<totfact> 0.29686835E+06</totfact>
</mgrwt>
</event>
<event>
 4    1  0.1607476E-006  0.2001248E+02  0.7818608E-02  0.1745080E+00
          2   -1    0    0  501    0  0.00000000000E+00  0.00000000000E+00  0.26905522171E+01  0.26905534734E+01  0.26000000000E-02 0.  1.
         -2   -1    0    0    0  501 -0.00000000000E+00 -0.00000000000E+00 -0.37213473854E+02  0.37213473944E+02  0.26000000000E-02 0. -1.
        -13    1    1    2    0    0  0.17491649064E+01 -0.98515921113E+01 -0.17232983298E+02  0.19927376416E+02  0.10570000000E+00 0.  1.
         13    1    1    2    0    0 -0.17491649064E+01  0.98515921113E+01 -0.17289938339E+02  0.19976651002E+02  0.10570000000E+00 0. -1.
<mgrwt>
<rscale>  0 0.20012478E+02</rscale>
<asrwt>0</asrwt>
<pdfrwt beam="1">  1        2 0.41393124E-03 0.20012478E+02</pdfrwt>
<pdfrwt beam="2">  1       -2 0.57251496E-02 0.20012478E+02</pdfrwt>
<totfact> 0.35176281E+06</totfact>
</mgrwt>
</event>
<event>
 5    1  0.1607476E-006  0.2000114E+02  0.7818608E-02  0.1745305E+00
          2   -1    0    0  501    0  0.00000000000E+00  0.00000000000E+00  0.10025868916E+03  0.10025868920E+03  0.26000000000E-02 0. -1.
         -2   -1    0    0    0  501 -0.00000000000E+00 -0.00000000000E+00 -0.99753195907E+00  0.99753534742E+00  0.26000000000E-02 0.  1.
       1023    2    1    2    0    0  0.00000000000E+00  0.00000000000E+00  0.99261157205E+02  0.10125622455E+03  0.20001141954E+02 0.  0.
        -13    1    3    3    0    0  0.76456347334E+01 -0.64455001652E+01  0.49664358049E+02  0.50661226158E+02  0.10570000000E+00 0.  1.
         13    1    3    3    0    0 -0.76456347334E+01  0.64455001652E+01  0.49596799156E+02  0.50594998387E+02  0.10570000000E+00 0. -1.
<mgrwt>
<rscale>  0 0.20001142E+02</rscale>
<asrwt>0</asrwt>
<pdfrwt beam="1">  1        2 0.15424418E-01 0.20001142E+02</pdfrwt>
<pdfrwt beam="2">  1       -2 0.15346668E-03 0.20001142E+02</pdfrwt>
<totfact> 0.52782277E+06</totfact>
</mgrwt>
</event>
<event>
 5    1  0.1607476E-006  0.2000489E+02  0.7818608E-02  0.1745231E+00
          2   -1    0    0  501    0  0.00000000000E+00  0.00000000000E+00  0.10490563199E+01  0.10490595418E+01  0.26000000000E-02 0. -1.
         -2   -1    0    0    0  501 -0.00000000000E+00 -0.00000000000E+00 -0.95370207386E+02  0.95370207421E+02  0.26000000000E-02 0.  1.
       1023    2    1    2    0    0  0.00000000000E+00  0.00000000000E+00 -0.94321151066E+02  0.96419266963E+02  0.20004886985E+02 0.  0.
        -13    1    3    3    0    0 -0.45714320265E+01  0.88956861059E+01 -0.46772552407E+02  0.47830053870E+02  0.10570000000E+00 0.  1.
         13    1    3    3    0    0  0.45714320265E+01 -0.88956861059E+01 -0.47548598659E+02  0.48589213093E+02  0.10570000000E+00 0. -1.
<mgrwt>
<rscale>  0 0.20004887E+02</rscale>
<asrwt>0</asrwt>
<pdfrwt beam="1">  1        2 0.16139361E-03 0.20004887E+02</pdfrwt>
<pdfrwt beam="2">  1       -2 0.14672333E-01 0.20004887E+02</pdfrwt>
<totfact> 0.30054896E+06</totfact>
</mgrwt>
</event>
<event>
 4    1  0.1607476E-006  0.2001267E+02  0.7818608E-02  0.1745076E+00
          2   -1    0    0  501    0  0.00000000000E+00  0.00000000000E+00  0.89437064215E+01  0.89437067994E+01  0.26000000000E-02 0. -1.
         -2   -1    0    0    0  501 -0.00000000000E+00 -0.00000000000E+00 -0.11195215248E+02  0.11195215550E+02  0.26000000000E-02 0.  1.
        -13    1    1    2    0    0 -0.93123003870E+00 -0.99615364374E+01 -0.99784912269E+00  0.10055161507E+02  0.10570000000E+00 0.  1.
         13    1    1    2    0    0  0.93123003870E+00  0.99615364374E+01 -0.12536597042E+01  0.10083760842E+02  0.10570000000E+00 0. -1.
<mgrwt>
<rscale>  0 0.20012669E+02</rscale>
<asrwt>0</asrwt>
<pdfrwt beam="1">  1        2 0.13759549E-02 0.20012669E+02</pdfrwt>
<pdfrwt beam="2">  1       -2 0.17223409E-02 0.20012669E+02</pdfrwt>
<totfact> 0.39085435E+06</totfact>
</mgrwt>
</event>
<event>
 5    1  0.1607476E-006  0.2001127E+02  0.7818608E-02  0.1745104E+00
          2   -1    0    0  501    0  0.00000000000E+00  0.00000000000E+00  0.10036571186E+02  0.10036571523E+02  0.26000000000E-02 0. -1.
         -2   -1    0    0    0  501 -0.00000000000E+00 -0.00000000000E+00 -0.99747928185E+01  0.99747931574E+01  0.26000000000E-02 0.  1.
       1023    2    1    2    0    0  0.00000000000E+00  0.00000000000E+00  0.61778367746E-01  0.20011364680E+02  0.20011269320E+02 0.  0.
        -13    1    3    3    0    0 -0.86799420746E+01  0.49751646948E+01  0.11973949499E+00  0.10005956636E+02  0.10570000000E+00 0.  1.
         13    1    3    3    0    0  0.86799420746E+01 -0.49751646948E+01 -0.57961127243E-01  0.10005408045E+02  0.10570000000E+00 0. -1.
<mgrwt>
<rscale>  0 0.20011269E+02</rscale>
<asrwt>0</asrwt>
<pdfrwt beam="1">  1        2 0.15440879E-02 0.20011269E+02</pdfrwt>
<pdfrwt beam="2">  1       -2 0.15345836E-02 0.20011269E+02</pdfrwt>
<totfact> 0.39422969E+06</totfact>
</mgrwt>
</event>
<event>
 5    1  0.1607476E-006  0.2000220E+02  0.7818608E-02  0.1745284E+00
         -2   -1    0    0    0  501 -0.00000000000E+00  0.00000000000E+00  0.10003958168E+03  0.10003958171E+03  0.26000000000E-02 0. -1.
          2   -1    0    0  501    0  0.00000000000E+00 -0.00000000000E+00 -0.99982243542E+00  0.99982581601E+00  0.26000000000E-02 0.  1.
       1023    2    1    2    0    0  0.00000000000E+00  0.00000000000E+00  0.99039759242E+02  0.10103940753E+03  0.20002198948E+02 0.  0.
        -13    1    3    3    0    0  0.76396376611E+00 -0.99710591693E+01  0.49157140171E+02  0.50164143209E+02  0.10570000000E+00 0.  1.
         13    1    3    3    0    0 -0.76396376611E+00  0.99710591693E+01  0.49882619071E+02  0.50875264318E+02  0.10570000000E+00 0. -1.
<mgrwt>
<rscale>  0 0.20002199E+02</rscale>
<asrwt>0</asrwt>
<pdfrwt beam="2">  1        2 0.15381904E-03 0.20002199E+02</pdfrwt>
<pdfrwt beam="1">  1       -2 0.15390711E-01 0.20002199E+02</pdfrwt>
<totfact> 0.29720737E+06</totfact>
</mgrwt>
</event>
<event>
 5    1  0.1607476E-006  0.2000291E+02  0.7818608E-02  0.1745270E+00
         -2   -1    0    0    0  501 -0.00000000000E+00  0.00000000000E+00  0.13246521908E+02  0.13246522164E+02  0.26000000000E-02 0. -1.
          2   -1    0    0  501    0  0.00000000000E+00 -0.00000000000E+00 -0.75513492509E+01  0.75513496985E+01  0.26000000000E-02 0.  1.
       1023    2    1    2    0    0  0.00000000000E+00  0.00000000000E+00  0.56951726575E+01  0.20797871862E+02  0.20002911848E+02 0.  0.
        -13    1    3    3    0    0 -0.14421805519E+01 -0.98955221020E+01  0.27131991232E+01  0.10362136092E+02  0.10570000000E+00 0.  1.
         13    1    3    3    0    0  0.14421805519E+01  0.98955221020E+01  0.29819735343E+01  0.10435735770E+02  0.10570000000E+00 0. -1.
<mgrwt>
<rscale>  0 0.20002912E+02</rscale>
<asrwt>0</asrwt>
<pdfrwt beam="2">  1        2 0.11617461E-02 0.20002912E+02</pdfrwt>
<pdfrwt beam="1">  1       -2 0.20379265E-02 0.20002912E+02</pdfrwt>
<totfact> 0.38644711E+06</totfact>
</mgrwt>
</event>
<event>
 5    1  0.1607476E-006  0.2000253E+02  0.7818608E-02  0.1745278E+00
          2   -1    0    0  501    0  0.00000000000E+00  0.00000000000E+00  0.11054389811E+01  0.11054420388E+01  0.26000000000E-02 0.  1.
         -2   -1    0    0    0  501 -0.00000000000E+00 -0.00000000000E+00 -0.90484588955E+02  0.90484588992E+02  0.26000000000E-02 0. -1.
       1023    2    1    2    0    0  0.00000000000E+00  0.00000000000E+00 -0.89379149973E+02  0.91590031031E+02  0.20002533195E+02 0.  0.
        -13    1    3    3    0    0  0.24288252067E+01  0.97007192070E+01 -0.45170166550E+02  0.46264006135E+02  0.10570000000E+00 0. -1.
         13    1    3    3    0    0 -0.24288252067E+01 -0.97007192070E+01 -0.44208983423E+02  0.45326024895E+02  0.10570000000E+00 0.  1.
<mgrwt>
<rscale>  0 0.20002533E+02</rscale>
<asrwt>0</asrwt>
<pdfrwt beam="1">  1        2 0.17006784E-03 0.20002533E+02</pdfrwt>
<pdfrwt beam="2">  1       -2 0.13920700E-01 0.20002533E+02</pdfrwt>
<totfact> 0.30429954E+06</totfact>
</mgrwt>
</event>
<event>
 4    1  0.1607476E-006  0.2049347E+02  0.7818608E-02  0.1735689E+00
         -2   -1    0    0    0  501 -0.00000000000E+00  0.00000000000E+00  0.41786569795E+01  0.41786577884E+01  0.26000000000E-02 0. -1.
          2   -1    0    0  501    0  0.00000000000E+00 -0.00000000000E+00 -0.25126616958E+02  0.25126617093E+02  0.26000000000E-02 0.  1.
        -13    1    1    2    0    0  0.90334874522E+01  0.47828977141E+01 -0.11489517101E+02  0.15378562410E+02  0.10570000000E+00 0.  1.
         13    1    1    2    0    0 -0.90334874522E+01 -0.47828977141E+01 -0.94584428778E+01  0.13926712471E+02  0.10570000000E+00 0. -1.
<mgrwt>
<rscale>  0 0.20493465E+02</rscale>
<asrwt>0</asrwt>
<pdfrwt beam="2">  1        2 0.38656334E-02 0.20493465E+02</pdfrwt>
<pdfrwt beam="1">  1       -2 0.64287039E-03 0.20493465E+02</pdfrwt>
<totfact> 0.40302150E+06</totfact>
</mgrwt>
</event>
<event>
 4    1  0.1607476E-006  0.2011798E+02  0.7818608E-02  0.1742992E+00
         -2   -1    0    0    0  501 -0.00000000000E+00  0.00000000000E+00  0.54707838620E+01  0.54707844798E+01  0.26000000000E-02 0.  1.
          2   -1    0    0  501    0  0.00000000000E+00 -0.00000000000E+00 -0.18495201867E+02  0.18495202050E+02  0.26000000000E-02 0. -1.
        -13    1    1    2    0    0 -0.59500064400E+01  0.80938553789E+01 -0.59059258386E+01  0.11653506083E+02  0.10570000000E+00 0.  1.
         13    1    1    2    0    0  0.59500064400E+01 -0.80938553789E+01 -0.71184921667E+01  0.12312480447E+02  0.10570000000E+00 0. -1.
<mgrwt>
<rscale>  0 0.20117978E+02</rscale>
<asrwt>0</asrwt>
<pdfrwt beam="2">  1        2 0.28454157E-02 0.20117978E+02</pdfrwt>
<pdfrwt beam="1">  1       -2 0.84165912E-03 0.20117978E+02</pdfrwt>
<totfact> 0.40849472E+06</totfact>
</mgrwt>
</event>
<event>
 5    1  0.1607476E-006  0.2000793E+02  0.7818608E-02  0.1745170E+00
         -2   -1    0    0    0  501 -0.00000000000E+00  0.00000000000E+00  0.54143228564E+02  0.54143228627E+02  0.26000000000E-02 0.  1.
          2   -1    0    0  501    0  0.00000000000E+00 -0.00000000000E+00 -0.18484164730E+01  0.18484183016E+01  0.26000000000E-02 0. -1.
       1023    2    1    2    0    0  0.00000000000E+00  0.00000000000E+00  0.52294812091E+02  0.55991646928E+02  0.20007927281E+02 0.  0.
        -13    1    3    3    0    0  0.67078305749E+01  0.74198477857E+01  0.25761827173E+02  0.27635702343E+02  0.10570000000E+00 0.  1.
         13    1    3    3    0    0 -0.67078305749E+01 -0.74198477857E+01  0.26532984918E+02  0.28355944586E+02  0.10570000000E+00 0. -1.
<mgrwt>
<rscale>  0 0.20007927E+02</rscale>
<asrwt>0</asrwt>
<pdfrwt beam="2">  1        2 0.28437196E-03 0.20007927E+02</pdfrwt>
<pdfrwt beam="1">  1       -2 0.83297263E-02 0.20007927E+02</pdfrwt>
<totfact> 0.33472217E+06</totfact>
</mgrwt>
</event>
<event>
 5    1  0.1607476E-006  0.2000177E+02  0.7818608E-02  0.1745293E+00
          2   -1    0    0  501    0  0.00000000000E+00  0.00000000000E+00  0.59488926006E+01  0.59488931687E+01  0.26000000000E-02 0. -1.
         -2   -1    0    0    0  501 -0.00000000000E+00 -0.00000000000E+00 -0.16812822630E+02  0.16812822831E+02  0.26000000000E-02 0.  1.
       1023    2    1    2    0    0  0.00000000000E+00  0.00000000000E+00 -0.10863930029E+02  0.22761716000E+02  0.20001768411E+02 0.  0.
        -13    1    3    3    0    0 -0.50950905474E+01 -0.86047984408E+01 -0.53599160005E+01  0.11346469756E+02  0.10570000000E+00 0. -1.
         13    1    3    3    0    0  0.50950905474E+01  0.86047984408E+01 -0.55040140290E+01  0.11415246244E+02  0.10570000000E+00 0.  1.
<mgrwt>
<rscale>  0 0.20001768E+02</rscale>
<asrwt>0</asrwt>
<pdfrwt beam="1">  1        2 0.91521431E-03 0.20001768E+02</pdfrwt>
<pdfrwt beam="2">  1       -2 0.25865881E-02 0.20001768E+02</pdfrwt>
<totfact> 0.37954854E+06</totfact>
</mgrwt>
</event>
<event>
 5    1  0.1607476E-006  0.2000359E+02  0.7818608E-02  0.1745257E+00
         -2   -1    0    0    0  501 -0.00000000000E+00  0.00000000000E+00  0.52285926886E+02  0.52285926951E+02  0.26000000000E-02 0. -1.
          2   -1    0    0  501    0  0.00000000000E+00 -0.00000000000E+00 -0.19132465401E+01  0.19132483068E+01  0.26000000000E-02 0.  1.
       1023    2    1    2    0    0  0.00000000000E+00  0.00000000000E+00  0.50372680346E+02  0.54199175258E+02  0.20003591511E+02 0.  0.
        -13    1    3    3    0    0  0.92881544489E+01 -0.37067861478E+01  0.25514502306E+02  0.27404581315E+02  0.10570000000E+00 0.  1.
         13    1    3    3    0    0 -0.92881544489E+01  0.37067861478E+01  0.24858178040E+02  0.26794593943E+02  0.10570000000E+00 0. -1.
<mgrwt>
<rscale>  0 0.20003592E+02</rscale>
<asrwt>0</asrwt>
<pdfrwt beam="2">  1        2 0.29434578E-03 0.20003592E+02</pdfrwt>
<pdfrwt beam="1">  1       -2 0.80439883E-02 0.20003592E+02</pdfrwt>
<totfact> 0.33664537E+06</totfact>
</mgrwt>
</event>
<event>
 5    1  0.1607476E-006  0.2000473E+02  0.7818608E-02  0.1745234E+00
         -2   -1    0    0    0  501 -0.00000000000E+00  0.00000000000E+00  0.11338641854E+02  0.11338642152E+02  0.26000000000E-02 0. -1.
          2   -1    0    0  501    0  0.00000000000E+00 -0.00000000000E+00 -0.88235736887E+01  0.88235740718E+01  0.26000000000E-02 0.  1.
       1023    2    1    2    0    0  0.00000000000E+00  0.00000000000E+00  0.25150681651E+01  0.20162216224E+02  0.20004734319E+02 0.  0.
        -13    1    3    3    0    0 -0.14410454585E+01 -0.98974247034E+01  0.12811391922E+01  0.10084052652E+02  0.10570000000E+00 0. -1.
         13    1    3    3    0    0  0.14410454585E+01  0.98974247034E+01  0.12339289729E+01  0.10078163571E+02  0.10570000000E+00 0.  1.
<mgrwt>
<rscale>  0 0.20004734E+02</rscale>
<asrwt>0</asrwt>
<pdfrwt beam="2">  1        2 0.13574729E-02 0.20004734E+02</pdfrwt>
<pdfrwt beam="1">  1       -2 0.17444065E-02 0.20004734E+02</pdfrwt>
<totfact> 0.39082226E+06</totfact>
</mgrwt>
</event>
<event>
 5    1  0.1607476E-006  0.2000352E+02  0.7818608E-02  0.1745258E+00
          2   -1    0    0  501    0  0.00000000000E+00  0.00000000000E+00  0.40446763465E+01  0.40446771822E+01  0.26000000000E-02 0.  1.
         -2   -1    0    0    0  501 -0.00000000000E+00 -0.00000000000E+00 -0.24732559037E+02  0.24732559174E+02  0.26000000000E-02 0. -1.
       1023    2    1    2    0    0  0.00000000000E+00  0.00000000000E+00 -0.20687882691E+02  0.28777236356E+02  0.20003520742E+02 0.  0.
        -13    1    3    3    0    0  0.31566268283E+01 -0.94891140947E+01 -0.10159379617E+02  0.14255937217E+02  0.10570000000E+00 0. -1.
         13    1    3    3    0    0 -0.31566268283E+01  0.94891140947E+01 -0.10528503073E+02  0.14521299139E+02  0.10570000000E+00 0.  1.
<mgrwt>
<rscale>  0 0.20003521E+02</rscale>
<asrwt>0</asrwt>
<pdfrwt beam="1">  1        2 0.62225798E-03 0.20003521E+02</pdfrwt>
<pdfrwt beam="2">  1       -2 0.38050091E-02 0.20003521E+02</pdfrwt>
<totfact> 0.36731280E+06</totfact>
</mgrwt>
</event>
<event>
 4    1  0.1607476E-006  0.2017473E+02  0.7818608E-02  0.1741875E+00
          2   -1    0    0  501    0  0.00000000000E+00  0.00000000000E+00  0.29707551669E+02  0.29707551783E+02  0.26000000000E-02 0.  1.
         -2   -1    0    0    0  501 -0.00000000000E+00 -0.00000000000E+00 -0.34252219244E+01  0.34252229112E+01  0.26000000000E-02 0. -1.
        -13    1    1    2    0    0 -0.94359209439E+01  0.35526848748E+01  0.13621739486E+02  0.16947599624E+02  0.10570000000E+00 0. -1.
         13    1    1    2    0    0  0.94359209439E+01 -0.35526848748E+01  0.12660590258E+02  0.16185175070E+02  0.10570000000E+00 0.  1.
<mgrwt>
<rscale>  0 0.20174734E+02</rscale>
<asrwt>0</asrwt>
<pdfrwt beam="1">  1        2 0.45703927E-02 0.20174734E+02</pdfrwt>
<pdfrwt beam="2">  1       -2 0.52695730E-03 0.20174734E+02</pdfrwt>
<totfact> 0.42489443E+06</totfact>
</mgrwt>
</event>
<event>
 5    1  0.1607476E-006  0.2000561E+02  0.7818608E-02  0.1745216E+00
          2   -1    0    0  501    0  0.00000000000E+00  0.00000000000E+00  0.58307160152E+02  0.58307160209E+02  0.26000000000E-02 0. -1.
         -2   -1    0    0    0  501 -0.00000000000E+00 -0.00000000000E+00 -0.17160171872E+01  0.17160191568E+01  0.26000000000E-02 0.  1.
       1023    2    1    2    0    0  0.00000000000E+00  0.00000000000E+00  0.56591142964E+02  0.60023179366E+02  0.20005614193E+02 0.  0.
        -13    1    3    3    0    0  0.67329000622E+01 -0.73964327051E+01  0.28524409509E+02  0.30227343091E+02  0.10570000000E+00 0.  1.
         13    1    3    3    0    0 -0.67329000622E+01  0.73964327051E+01  0.28066733456E+02  0.29795836276E+02  0.10570000000E+00 0. -1.
<mgrwt>
<rscale>  0 0.20005614E+02</rscale>
<asrwt>0</asrwt>
<pdfrwt beam="1">  1        2 0.89703334E-02 0.20005614E+02</pdfrwt>
<pdfrwt beam="2">  1       -2 0.26400277E-03 0.20005614E+02</pdfrwt>
<totfact> 0.47439739E+06</totfact>
</mgrwt>
</event>
<event>
 5    1  0.1607476E-006  0.2000282E+02  0.7818608E-02  0.1745272E+00
         -2   -1    0    0    0  501 -0.00000000000E+00  0.00000000000E+00  0.48501360217E+01  0.48501367186E+01  0.26000000000E-02 0.  1.
          2   -1    0    0  501    0  0.00000000000E+00 -0.00000000000E+00 -0.20623783887E+02  0.20623784051E+02  0.26000000000E-02 0. -1.
       1023    2    1    2    0    0  0.00000000000E+00  0.00000000000E+00 -0.15773647866E+02  0.25473920770E+02  0.20002816612E+02 0.  0.
        -13    1    3    3    0    0 -0.78055025864E+01 -0.62512195210E+01 -0.77395166145E+01  0.12645746559E+02  0.10570000000E+00 0.  1.
         13    1    3    3    0    0  0.78055025864E+01  0.62512195210E+01 -0.80341312511E+01  0.12828174211E+02  0.10570000000E+00 0. -1.
<mgrwt>
<rscale>  0 0.20002817E+02</rscale>
<asrwt>0</asrwt>
<pdfrwt beam="2">  1        2 0.31728898E-02 0.20002817E+02</pdfrwt>
<pdfrwt beam="1">  1       -2 0.74617485E-03 0.20002817E+02</pdfrwt>
<totfact> 0.41778896E+06</totfact>
</mgrwt>
</event>
<event>
 5    1  0.1607476E-006  0.2000521E+02  0.7818608E-02  0.1745225E+00
          2   -1    0    0  501    0  0.00000000000E+00  0.00000000000E+00  0.44999439252E+01  0.44999446763E+01  0.26000000000E-02 0.  1.
         -2   -1    0    0    0  501 -0.00000000000E+00 -0.00000000000E+00 -0.22234074528E+02  0.22234074680E+02  0.26000000000E-02 0. -1.
       1023    2    1    2    0    0  0.00000000000E+00  0.00000000000E+00 -0.17734130603E+02  0.26734019356E+02  0.20005209389E+02 0.  0.
        -13    1    3    3    0    0  0.99283560448E+01  0.12014010337E+01 -0.86544633994E+01  0.13225979261E+02  0.10570000000E+00 0.  1.
         13    1    3    3    0    0 -0.99283560448E+01 -0.12014010337E+01 -0.90796672035E+01  0.13508040095E+02  0.10570000000E+00 0. -1.
<mgrwt>
<rscale>  0 0.20005209E+02</rscale>
<asrwt>0</asrwt>
<pdfrwt beam="1">  1        2 0.69229915E-03 0.20005209E+02</pdfrwt>
<pdfrwt beam="2">  1       -2 0.34206268E-02 0.20005209E+02</pdfrwt>
<totfact> 0.37076368E+06</totfact>
</mgrwt>
</event>
<event>
 5    1  0.1607476E-006  0.2001183E+02  0.7818608E-02  0.1745093E+00
          2   -1    0    0  501    0  0.00000000000E+00  0.00000000000E+00  0.27481513520E+02  0.27481513643E+02  0.26000000000E-02 0.  1.
         -2   -1    0    0    0  501 -0.00000000000E+00 -0.00000000000E+00 -0.36431143207E+01  0.36431152484E+01  0.26000000000E-02 0. -1.
       1023    2    1    2    0    0  0.00000000000E+00  0.00000000000E+00  0.23838399200E+02  0.31124628892E+02  0.20011827684E+02 0.  0.
        -13    1    3    3    0    0  0.96298497186E+01 -0.27143978852E+01  0.12031115490E+02  0.15648030991E+02  0.10570000000E+00 0.  1.
         13    1    3    3    0    0 -0.96298497186E+01  0.27143978852E+01  0.11807283710E+02  0.15476597901E+02  0.10570000000E+00 0. -1.
<mgrwt>
<rscale>  0 0.20011828E+02</rscale>
<asrwt>0</asrwt>
<pdfrwt beam="1">  1        2 0.42279255E-02 0.20011828E+02</pdfrwt>
<pdfrwt beam="2">  1       -2 0.56047918E-03 0.20011828E+02</pdfrwt>
<totfact> 0.42911255E+06</totfact>
</mgrwt>
</event>
<event>
 4    1  0.1607476E-006  0.2001501E+02  0.7818608E-02  0.1745030E+00
          2   -1    0    0  501    0  0.00000000000E+00  0.00000000000E+00  0.42621052061E+01  0.42621059991E+01  0.26000000000E-02 0.  1.
         -2   -1    0    0    0  501 -0.00000000000E+00 -0.00000000000E+00 -0.23497805453E+02  0.23497805597E+02  0.26000000000E-02 0. -1.
        -13    1    1    2    0    0  0.11288434633E+01  0.99397418644E+01 -0.92609858798E+01  0.13632673540E+02  0.10570000000E+00 0.  1.
         13    1    1    2    0    0 -0.11288434633E+01 -0.99397418644E+01 -0.99747143675E+01  0.14127238056E+02  0.10570000000E+00 0. -1.
<mgrwt>
<rscale>  0 0.20015008E+02</rscale>
<asrwt>0</asrwt>
<pdfrwt beam="1">  1        2 0.65570858E-03 0.20015008E+02</pdfrwt>
<pdfrwt beam="2">  1       -2 0.36150470E-02 0.20015008E+02</pdfrwt>
<totfact> 0.36856309E+06</totfact>
</mgrwt>
</event>
<event>
 5    1  0.1607476E-006  0.2000651E+02  0.7818608E-02  0.1745199E+00
          2   -1    0    0  501    0  0.00000000000E+00  0.00000000000E+00  0.89923040361E+01  0.89923044120E+01  0.26000000000E-02 0. -1.
         -2   -1    0    0    0  501 -0.00000000000E+00 -0.00000000000E+00 -0.11127859965E+02  0.11127860269E+02  0.26000000000E-02 0.  1.
       1023    2    1    2    0    0  0.00000000000E+00  0.00000000000E+00 -0.21355559287E+01  0.20120164681E+02  0.20006509632E+02 0.  0.
        -13    1    3    3    0    0  0.99405067646E+01 -0.11114658790E+01 -0.99735671444E+00  0.10052607823E+02  0.10570000000E+00 0.  1.
         13    1    3    3    0    0 -0.99405067646E+01  0.11114658790E+01 -0.11381992143E+01  0.10067556858E+02  0.10570000000E+00 0. -1.
<mgrwt>
<rscale>  0 0.20006510E+02</rscale>
<asrwt>0</asrwt>
<pdfrwt beam="1">  1        2 0.13834314E-02 0.20006510E+02</pdfrwt>
<pdfrwt beam="2">  1       -2 0.17119785E-02 0.20006510E+02</pdfrwt>
<totfact> 0.39128529E+06</totfact>
</mgrwt>
</event>
<event>
 5    1  0.1607476E-006  0.2000642E+02  0.7818608E-02  0.1745200E+00
          2   -1    0    0  501    0  0.00000000000E+00  0.00000000000E+00  0.67937132640E+01  0.67937137615E+01  0.26000000000E-02 0.  1.
         -2   -1    0    0    0  501 -0.00000000000E+00 -0.00000000000E+00 -0.14728946716E+02  0.14728946945E+02  0.26000000000E-02 0. -1.
       1023    2    1    2    0    0  0.00000000000E+00  0.00000000000E+00 -0.79352334518E+01  0.21522660707E+02  0.20006423817E+02 0.  0.
        -13    1    3    3    0    0  0.94509259398E+01 -0.32757551318E+01 -0.39137929716E+01  0.10741485964E+02  0.10570000000E+00 0. -1.
         13    1    3    3    0    0 -0.94509259398E+01  0.32757551318E+01 -0.40214404802E+01  0.10781174743E+02  0.10570000000E+00 0.  1.
<mgrwt>
<rscale>  0 0.20006424E+02</rscale>
<asrwt>0</asrwt>
<pdfrwt beam="1">  1        2 0.10451867E-02 0.20006424E+02</pdfrwt>
<pdfrwt beam="2">  1       -2 0.22659919E-02 0.20006424E+02</pdfrwt>
<totfact> 0.38324083E+06</totfact>
</mgrwt>
</event>
<event>
 5    1  0.1607476E-006  0.2000215E+02  0.7818608E-02  0.1745285E+00
          2   -1    0    0  501    0  0.00000000000E+00  0.00000000000E+00  0.86685082017E+01  0.86685085916E+01  0.26000000000E-02 0. -1.
         -2   -1    0    0    0  501 -0.00000000000E+00 -0.00000000000E+00 -0.11538488244E+02  0.11538488537E+02  0.26000000000E-02 0.  1.
       1023    2    1    2    0    0  0.00000000000E+00  0.00000000000E+00 -0.28699800427E+01  0.20206997129E+02  0.20002148573E+02 0.  0.
        -13    1    3    3    0    0  0.44395180911E+01  0.89607523941E+01 -0.13573259030E+01  0.10092468006E+02  0.10570000000E+00 0.  1.
         13    1    3    3    0    0 -0.44395180911E+01 -0.89607523941E+01 -0.15126541398E+01  0.10114529123E+02  0.10570000000E+00 0. -1.
<mgrwt>
<rscale>  0 0.20002149E+02</rscale>
<asrwt>0</asrwt>
<pdfrwt beam="1">  1        2 0.13336167E-02 0.20002149E+02</pdfrwt>
<pdfrwt beam="2">  1       -2 0.17751521E-02 0.20002149E+02</pdfrwt>
<totfact> 0.39043049E+06</totfact>
</mgrwt>
</event>
<event>
 5    1  0.1607476E-006  0.2000211E+02  0.7818608E-02  0.1745286E+00
         -2   -1    0    0    0  501 -0.00000000000E+00  0.00000000000E+00  0.41348587484E+01  0.41348595658E+01  0.26000000000E-02 0.  1.
          2   -1    0    0  501    0  0.00000000000E+00 -0.00000000000E+00 -0.24189724087E+02  0.24189724227E+02  0.26000000000E-02 0. -1.
       1023    2    1    2    0    0  0.00000000000E+00  0.00000000000E+00 -0.20054865338E+02  0.28324583792E+02  0.20002110470E+02 0.  0.
        -13    1    3    3    0    0 -0.34399768568E+01  0.93901142958E+01 -0.99603208893E+01  0.14114774244E+02  0.10570000000E+00 0.  1.
         13    1    3    3    0    0  0.34399768568E+01 -0.93901142958E+01 -0.10094544449E+02  0.14209809548E+02  0.10570000000E+00 0. -1.
<mgrwt>
<rscale>  0 0.20002110E+02</rscale>
<asrwt>0</asrwt>
<pdfrwt beam="2">  1        2 0.37214960E-02 0.20002110E+02</pdfrwt>
<pdfrwt beam="1">  1       -2 0.63613221E-03 0.20002110E+02</pdfrwt>
<totfact> 0.42409154E+06</totfact>
</mgrwt>
</event>
<event>
 5    1  0.1607477E-006  0.2000127E+02  0.7818608E-02  0.1745303E+00
         -2   -1    0    0    0  501 -0.00000000000E+00  0.00000000000E+00  0.22751634988E+01  0.22751649844E+01  0.26000000000E-02 0. -1.
          2   -1    0    0  501    0  0.00000000000E+00 -0.00000000000E+00 -0.43958465068E+02  0.43958465145E+02  0.26000000000E-02 0.  1.
       1023    2    1    2    0    0  0.00000000000E+00  0.00000000000E+00 -0.41683301569E+02  0.46233630129E+02  0.20001273090E+02 0.  0.
        -13    1    3    3    0    0 -0.68140615010E+01  0.73191229565E+01 -0.20896538215E+02  0.23166300457E+02  0.10570000000E+00 0. -1.
         13    1    3    3    0    0  0.68140615010E+01 -0.73191229565E+01 -0.20786763354E+02  0.23067329672E+02  0.10570000000E+00 0.  1.
<mgrwt>
<rscale>  0 0.20001273E+02</rscale>
<asrwt>0</asrwt>
<pdfrwt beam="2">  1        2 0.67628403E-02 0.20001273E+02</pdfrwt>
<pdfrwt beam="1">  1       -2 0.35002531E-03 0.20001273E+02</pdfrwt>
<totfact> 0.45465448E+06</totfact>
</mgrwt>
</event>
<event>
 5    1  0.1607476E-006  0.2000668E+02  0.7818608E-02  0.1745195E+00
         -2   -1    0    0    0  501 -0.00000000000E+00  0.00000000000E+00  0.51896515601E+01  0.51896522114E+01  0.26000000000E-02 0.  1.
          2   -1    0    0  501    0  0.00000000000E+00 -0.00000000000E+00 -0.19281984634E+02  0.19281984809E+02  0.26000000000E-02 0. -1.
       1023    2    1    2    0    0  0.00000000000E+00  0.00000000000E+00 -0.14092333074E+02  0.24471637020E+02  0.20006678060E+02 0.  0.
        -13    1    3    3    0    0  0.52398712005E+01  0.85197253054E+01 -0.71890726843E+01  0.12318113006E+02  0.10570000000E+00 0.  1.
         13    1    3    3    0    0 -0.52398712005E+01 -0.85197253054E+01 -0.69032603892E+01  0.12153524014E+02  0.10570000000E+00 0. -1.
<mgrwt>
<rscale>  0 0.20006678E+02</rscale>
<asrwt>0</asrwt>
<pdfrwt beam="2">  1        2 0.29664592E-02 0.20006678E+02</pdfrwt>
<pdfrwt beam="1">  1       -2 0.79840801E-03 0.20006678E+02</pdfrwt>
<totfact> 0.41513308E+06</totfact>
</mgrwt>
</event>
<event>
 5    1  0.1607476E-006  0.2000142E+02  0.7818608E-02  0.1745300E+00
          2   -1    0    0  501    0  0.00000000000E+00  0.00000000000E+00  0.16220832216E+02  0.16220832424E+02  0.26000000000E-02 0.  1.
         -2   -1    0    0    0  501 -0.00000000000E+00 -0.00000000000E+00 -0.61657841418E+01  0.61657846900E+01  0.26000000000E-02 0. -1.
       1023    2    1    2    0    0  0.00000000000E+00  0.00000000000E+00  0.10055048074E+02  0.22386617114E+02  0.20001415801E+02 0.  0.
        -13    1    3    3    0    0  0.62357615931E+01 -0.78177888703E+01  0.50510165005E+01  0.11203860301E+02  0.10570000000E+00 0.  1.
         13    1    3    3    0    0 -0.62357615931E+01  0.78177888703E+01  0.50040315736E+01  0.11182756813E+02  0.10570000000E+00 0. -1.
<mgrwt>
<rscale>  0 0.20001416E+02</rscale>
<asrwt>0</asrwt>
<pdfrwt beam="1">  1        2 0.24955127E-02 0.20001416E+02</pdfrwt>
<pdfrwt beam="2">  1       -2 0.94858226E-03 0.20001416E+02</pdfrwt>
<totfact> 0.40938943E+06</totfact>
</mgrwt>
</event>
<event>
 5    1  0.1607476E-006  0.2000201E+02  0.7818608E-02  0.1745288E+00
          2   -1    0    0  501    0  0.00000000000E+00  0.00000000000E+00  0.15741904850E+02  0.15741905065E+02  0.26000000000E-02 0. -1.
         -2   -1    0    0    0  501 -0.00000000000E+00 -0.00000000000E+00 -0.63537496184E+01  0.63537501503E+01  0.26000000000E-02 0.  1.
       1023    2    1    2    0    0  0.00000000000E+00  0.00000000000E+00  0.93881552318E+01  0.22095655215E+02  0.20002012917E+02 0.  0.
        -13    1    3    3    0    0 -0.32606911176E+01  0.94537778695E+01  0.47539251627E+01  0.11073256048E+02  0.10570000000E+00 0. -1.
         13    1    3    3    0    0  0.32606911176E+01 -0.94537778695E+01  0.46342300691E+01  0.11022399167E+02  0.10570000000E+00 0.  1.
<mgrwt>
<rscale>  0 0.20002013E+02</rscale>
<asrwt>0</asrwt>
<pdfrwt beam="1">  1        2 0.24218316E-02 0.20002013E+02</pdfrwt>
<pdfrwt beam="2">  1       -2 0.97749999E-03 0.20002013E+02</pdfrwt>
<totfact> 0.40837171E+06</totfact>
</mgrwt>
</event>
<event>
 5    1  0.1607476E-006  0.2000466E+02  0.7818608E-02  0.1745235E+00
          2   -1    0    0  501    0  0.00000000000E+00  0.00000000000E+00  0.33861470368E+01  0.33861480350E+01  0.26000000000E-02 0. -1.
         -2   -1    0    0    0  501 -0.00000000000E+00 -0.00000000000E+00 -0.29545840544E+02  0.29545840659E+02  0.26000000000E-02 0.  1.
       1023    2    1    2    0    0  0.00000000000E+00  0.00000000000E+00 -0.26159693508E+02  0.32931988694E+02  0.20004657331E+02 0.  0.
        -13    1    3    3    0    0  0.32366049636E+01 -0.94635029230E+01 -0.13007958261E+02  0.16408889355E+02  0.10570000000E+00 0.  1.
         13    1    3    3    0    0 -0.32366049636E+01  0.94635029230E+01 -0.13151735246E+02  0.16523099338E+02  0.10570000000E+00 0. -1.
<mgrwt>
<rscale>  0 0.20004657E+02</rscale>
<asrwt>0</asrwt>
<pdfrwt beam="1">  1        2 0.52094580E-03 0.20004657E+02</pdfrwt>
<pdfrwt beam="2">  1       -2 0.45455139E-02 0.20004657E+02</pdfrwt>
<totfact> 0.36102106E+06</totfact>
</mgrwt>
</event>
<event>
 5    1  0.1607476E-006  0.2000120E+02  0.7818608E-02  0.1745304E+00
          2   -1    0    0  501    0  0.00000000000E+00  0.00000000000E+00  0.68801921216E+02  0.68801921266E+02  0.26000000000E-02 0. -1.
         -2   -1    0    0    0  501 -0.00000000000E+00 -0.00000000000E+00 -0.14536216706E+01  0.14536239959E+01  0.26000000000E-02 0.  1.
       1023    2    1    2    0    0  0.00000000000E+00  0.00000000000E+00  0.67348299546E+02  0.70255545261E+02  0.20001204671E+02 0.  0.
        -13    1    3    3    0    0 -0.47638085246E+01 -0.87924040924E+01  0.33585761717E+02  0.35043042163E+02  0.10570000000E+00 0.  1.
         13    1    3    3    0    0  0.47638085246E+01  0.87924040924E+01  0.33762537828E+02  0.35212503099E+02  0.10570000000E+00 0. -1.
<mgrwt>
<rscale>  0 0.20001205E+02</rscale>
<asrwt>0</asrwt>
<pdfrwt beam="1">  1        2 0.10584912E-01 0.20001205E+02</pdfrwt>
<pdfrwt beam="2">  1       -2 0.22363427E-03 0.20001205E+02</pdfrwt>
<totfact> 0.48857206E+06</totfact>
</mgrwt>
</event>
<event>
 4    1  0.1607476E-006  0.2008479E+02  0.7818608E-02  0.1743647E+00
          2   -1    0    0  501    0  0.00000000000E+00  0.00000000000E+00  0.28780090327E+01  0.28780102071E+01  0.26000000000E-02 0. -1.
         -2   -1    0    0    0  501 -0.00000000000E+00 -0.00000000000E+00 -0.35041461469E+02  0.35041461566E+02  0.26000000000E-02 0.  1.
        -13    1    1    2    0    0  0.84357217217E+01 -0.54113680230E+01 -0.17267078699E+02  0.19965156752E+02  0.10570000000E+00 0.  1.
         13    1    1    2    0    0 -0.84357217217E+01  0.54113680230E+01 -0.14896373737E+02  0.17954315021E+02  0.10570000000E+00 0. -1.
<mgrwt>
<rscale>  0 0.20084787E+02</rscale>
<asrwt>0</asrwt>
<pdfrwt beam="1">  1        2 0.44277074E-03 0.20084787E+02</pdfrwt>
<pdfrwt beam="2">  1       -2 0.53909939E-02 0.20084787E+02</pdfrwt>
<totfact> 0.35142190E+06</totfact>
</mgrwt>
</event>
<event>
 5    1  0.1607476E-006  0.2000264E+02  0.7818608E-02  0.1745276E+00
          2   -1    0    0  501    0  0.00000000000E+00  0.00000000000E+00  0.78860763066E+01  0.78860767352E+01  0.26000000000E-02 0.  1.
         -2   -1    0    0    0  501 -0.00000000000E+00 -0.00000000000E+00 -0.12683929545E+02  0.12683929811E+02  0.26000000000E-02 0. -1.
       1023    2    1    2    0    0  0.00000000000E+00  0.00000000000E+00 -0.47978532384E+01  0.20570006547E+02  0.20002644166E+02 0.  0.
        -13    1    3    3    0    0  0.96964367693E+01 -0.24457144147E+01 -0.22822813658E+01  0.10257796339E+02  0.10570000000E+00 0. -1.
         13    1    3    3    0    0 -0.96964367693E+01  0.24457144147E+01 -0.25155718726E+01  0.10312210207E+02  0.10570000000E+00 0.  1.
<mgrwt>
<rscale>  0 0.20002644E+02</rscale>
<asrwt>0</asrwt>
<pdfrwt beam="1">  1        2 0.12132426E-02 0.20002644E+02</pdfrwt>
<pdfrwt beam="2">  1       -2 0.19513738E-02 0.20002644E+02</pdfrwt>
<totfact> 0.38770223E+06</totfact>
</mgrwt>
</event>
<event>
 5    1  0.1607476E-006  0.2000557E+02  0.7818608E-02  0.1745217E+00
         -2   -1    0    0    0  501 -0.00000000000E+00  0.00000000000E+00  0.50158236665E+02  0.50158236733E+02  0.26000000000E-02 0.  1.
          2   -1    0    0  501    0  0.00000000000E+00 -0.00000000000E+00 -0.19948002999E+01  0.19948019943E+01  0.26000000000E-02 0. -1.
       1023    2    1    2    0    0  0.00000000000E+00  0.00000000000E+00  0.48163436366E+02  0.52153038727E+02  0.20005570373E+02 0.  0.
        -13    1    3    3    0    0 -0.24459007989E+01 -0.96968157730E+01  0.24561506854E+02  0.26519605168E+02  0.10570000000E+00 0. -1.
         13    1    3    3    0    0  0.24459007989E+01  0.96968157730E+01  0.23601929512E+02  0.25633433559E+02  0.10570000000E+00 0.  1.
<mgrwt>
<rscale>  0 0.20005570E+02</rscale>
<asrwt>0</asrwt>
<pdfrwt beam="2">  1        2 0.30689249E-03 0.20005570E+02</pdfrwt>
<pdfrwt beam="1">  1       -2 0.77166518E-02 0.20005570E+02</pdfrwt>
<totfact> 0.33862637E+06</totfact>
</mgrwt>
</event>
<event>
 5    1  0.1607476E-006  0.2000152E+02  0.7818608E-02  0.1745298E+00
         -2   -1    0    0    0  501 -0.00000000000E+00  0.00000000000E+00  0.52772892053E+02  0.52772892117E+02  0.26000000000E-02 0. -1.
          2   -1    0    0  501    0  0.00000000000E+00 -0.00000000000E+00 -0.18951989859E+01  0.18952007694E+01  0.26000000000E-02 0.  1.
       1023    2    1    2    0    0  0.00000000000E+00  0.00000000000E+00  0.50877693067E+02  0.54668092887E+02  0.20001518143E+02 0.  0.
        -13    1    3    3    0    0 -0.25378070961E+01  0.96726824017E+01  0.25582432092E+02  0.27467676529E+02  0.10570000000E+00 0.  1.
         13    1    3    3    0    0  0.25378070961E+01 -0.96726824017E+01  0.25295260976E+02  0.27200416357E+02  0.10570000000E+00 0. -1.
<mgrwt>
<rscale>  0 0.20001518E+02</rscale>
<asrwt>0</asrwt>
<pdfrwt beam="2">  1        2 0.29156925E-03 0.20001518E+02</pdfrwt>
<pdfrwt beam="1">  1       -2 0.81189056E-02 0.20001518E+02</pdfrwt>
<totfact> 0.33625634E+06</totfact>
</mgrwt>
</event>
<event>
 5    1  0.1607476E-006  0.2000392E+02  0.7818608E-02  0.1745250E+00
         -2   -1    0    0    0  501 -0.00000000000E+00  0.00000000000E+00  0.10384905622E+03  0.10384905626E+03  0.26000000000E-02 0. -1.
          2   -1    0    0  501    0  0.00000000000E+00 -0.00000000000E+00 -0.96331164598E+00  0.96331515470E+00  0.26000000000E-02 0.  1.
       1023    2    1    2    0    0  0.00000000000E+00  0.00000000000E+00  0.10288574458E+03  0.10481237141E+03  0.20003918703E+02 0.  0.
        -13    1    3    3    0    0  0.29249828275E+01  0.95639368515E+01  0.51128246270E+02  0.52097343039E+02  0.10570000000E+00 0. -1.
         13    1    3    3    0    0 -0.29249828275E+01 -0.95639368515E+01  0.51757498309E+02  0.52715028372E+02  0.10570000000E+00 0.  1.
<mgrwt>
<rscale>  0 0.20003919E+02</rscale>
<asrwt>0</asrwt>
<pdfrwt beam="2">  1        2 0.14820211E-03 0.20003919E+02</pdfrwt>
<pdfrwt beam="1">  1       -2 0.15976773E-01 0.20003919E+02</pdfrwt>
<totfact> 0.29440999E+06</totfact>
</mgrwt>
</event>
<event>
 5    1  0.1607476E-006  0.2000607E+02  0.7818608E-02  0.1745207E+00
         -2   -1    0    0    0  501 -0.00000000000E+00  0.00000000000E+00  0.26363369978E+02  0.26363370107E+02  0.26000000000E-02 0. -1.
          2   -1    0    0  501    0  0.00000000000E+00 -0.00000000000E+00 -0.37954450760E+01  0.37954459665E+01  0.26000000000E-02 0.  1.
       1023    2    1    2    0    0  0.00000000000E+00  0.00000000000E+00  0.22567924902E+02  0.30158816073E+02  0.20006072891E+02 0.  0.
        -13    1    3    3    0    0 -0.30904945889E+01  0.95127567917E+01  0.11399430745E+02  0.15165813278E+02  0.10570000000E+00 0. -1.
         13    1    3    3    0    0  0.30904945889E+01 -0.95127567917E+01  0.11168494157E+02  0.14993002795E+02  0.10570000000E+00 0.  1.
<mgrwt>
<rscale>  0 0.20006073E+02</rscale>
<asrwt>0</asrwt>
<pdfrwt beam="2">  1        2 0.58391469E-03 0.20006073E+02</pdfrwt>
<pdfrwt beam="1">  1       -2 0.40559032E-02 0.20006073E+02</pdfrwt>
<totfact> 0.36502644E+06</totfact>
</mgrwt>
</event>
<event>
 4    1  0.2032160E-006  0.2003075E+02  0.7818608E-02  0.1744717E+00
         -2   -1    0    0    0  501 -0.00000000000E+00  0.00000000000E+00  0.91716588394E+00  0.91716956920E+00  0.26000000000E-02 0.  1.
          2   -1    0    0  501    0  0.00000000000E+00 -0.00000000000E+00 -0.10936685660E+03  0.10936685664E+03  0.26000000000E-02 0. -1.
        -13    1    1    2    0    0  0.46309908043E+01 -0.88775207689E+01 -0.55327798355E+02  0.56226620867E+02  0.10570000000E+00 0.  1.
         13    1    1    2    0    0 -0.46309908043E+01  0.88775207689E+01 -0.53121892365E+02  0.54057405337E+02  0.10570000000E+00 0. -1.
<mgrwt>
<rscale>  0 0.20030752E+02</rscale>
<asrwt>0</asrwt>
<pdfrwt beam="2">  1        2 0.16825660E-01 0.20030752E+02</pdfrwt>
<pdfrwt beam="1">  1       -2 0.14110282E-03 0.20030752E+02</pdfrwt>
<totfact> 0.53683557E+06</totfact>
</mgrwt>
</event>
<event>
 5    1  0.1607476E-006  0.2000225E+02  0.7818608E-02  0.1745283E+00
          2   -1    0    0  501    0  0.00000000000E+00  0.00000000000E+00  0.10644007396E+01  0.10644039151E+01  0.26000000000E-02 0.  1.
         -2   -1    0    0    0  501 -0.00000000000E+00 -0.00000000000E+00 -0.93970566221E+02  0.93970566257E+02  0.26000000000E-02 0. -1.
       1023    2    1    2    0    0  0.00000000000E+00  0.00000000000E+00 -0.92906165481E+02  0.95034970172E+02  0.20002249152E+02 0.  0.
        -13    1    3    3    0    0  0.97539643335E+01  0.22069272931E+01 -0.46601210714E+02  0.47662294960E+02  0.10570000000E+00 0. -1.
         13    1    3    3    0    0 -0.97539643335E+01 -0.22069272931E+01 -0.46304954767E+02  0.47372675212E+02  0.10570000000E+00 0.  1.
<mgrwt>
<rscale>  0 0.20002249E+02</rscale>
<asrwt>0</asrwt>
<pdfrwt beam="1">  1        2 0.16375428E-03 0.20002249E+02</pdfrwt>
<pdfrwt beam="2">  1       -2 0.14457004E-01 0.20002249E+02</pdfrwt>
<totfact> 0.30167875E+06</totfact>
</mgrwt>
</event>
<event>
 4    1  0.1607476E-006  0.2014851E+02  0.7818608E-02  0.1742391E+00
          2   -1    0    0  501    0  0.00000000000E+00  0.00000000000E+00  0.13290836889E+02  0.13290837144E+02  0.26000000000E-02 0.  1.
         -2   -1    0    0    0  501 -0.00000000000E+00 -0.00000000000E+00 -0.76361360848E+01  0.76361365274E+01  0.26000000000E-02 0. -1.
        -13    1    1    2    0    0 -0.77875240170E+01 -0.63320032233E+01  0.37206250710E+01  0.10704859576E+02  0.10570000000E+00 0.  1.
         13    1    1    2    0    0  0.77875240170E+01  0.63320032233E+01  0.19340757336E+01  0.10222114095E+02  0.10570000000E+00 0. -1.
<mgrwt>
<rscale>  0 0.20148513E+02</rscale>
<asrwt>0</asrwt>
<pdfrwt beam="1">  1        2 0.20447442E-02 0.20148513E+02</pdfrwt>
<pdfrwt beam="2">  1       -2 0.11747902E-02 0.20148513E+02</pdfrwt>
<totfact> 0.39637329E+06</totfact>
</mgrwt>
</event>
<event>
 5    1  0.1607476E-006  0.2001083E+02  0.7818608E-02  0.1745113E+00
         -2   -1    0    0    0  501 -0.00000000000E+00  0.00000000000E+00  0.12639467254E+02  0.12639467522E+02  0.26000000000E-02 0.  1.
          2   -1    0    0  501    0  0.00000000000E+00 -0.00000000000E+00 -0.79202956907E+01  0.79202961175E+01  0.26000000000E-02 0. -1.
       1023    2    1    2    0    0  0.00000000000E+00  0.00000000000E+00  0.47191715637E+01  0.20559763639E+02  0.20010829584E+02 0.  0.
        -13    1    3    3    0    0 -0.99727138945E+01 -0.77521702090E+00  0.25680527517E+01  0.10327732146E+02  0.10570000000E+00 0. -1.
         13    1    3    3    0    0  0.99727138945E+01  0.77521702090E+00  0.21511188120E+01  0.10232031494E+02  0.10570000000E+00 0.  1.
<mgrwt>
<rscale>  0 0.20010830E+02</rscale>
<asrwt>0</asrwt>
<pdfrwt beam="2">  1        2 0.12185071E-02 0.20010830E+02</pdfrwt>
<pdfrwt beam="1">  1       -2 0.19445335E-02 0.20010830E+02</pdfrwt>
<totfact> 0.38746161E+06</totfact>
</mgrwt>
</event>
<event>
 4    1  0.1607476E-006  0.2001612E+02  0.7818608E-02  0.1745008E+00
          2   -1    0    0  501    0  0.00000000000E+00  0.00000000000E+00  0.51839057559E+01  0.51839064080E+01  0.26000000000E-02 0.  1.
         -2   -1    0    0    0  501 -0.00000000000E+00 -0.00000000000E+00 -0.19321579236E+02  0.19321579411E+02  0.26000000000E-02 0. -1.
        -13    1    1    2    0    0  0.99931815413E+01  0.49272705468E+00 -0.73245522621E+01  0.12400269981E+02  0.10570000000E+00 0. -1.
         13    1    1    2    0    0 -0.99931815413E+01 -0.49272705468E+00 -0.68131212182E+01  0.12105215838E+02  0.10570000000E+00 0.  1.
<mgrwt>
<rscale>  0 0.20016119E+02</rscale>
<asrwt>0</asrwt>
<pdfrwt beam="1">  1        2 0.79752404E-03 0.20016119E+02</pdfrwt>
<pdfrwt beam="2">  1       -2 0.29725507E-02 0.20016119E+02</pdfrwt>
<totfact> 0.37475529E+06</totfact>
</mgrwt>
</event>
<event>
 4    1  0.2066054E-006  0.2005130E+02  0.7818608E-02  0.1744310E+00
         -2   -1    0    0    0  501 -0.00000000000E+00  0.00000000000E+00  0.91555105485E+00  0.91555474661E+00  0.26000000000E-02 0.  1.
          2   -1    0    0  501    0  0.00000000000E+00 -0.00000000000E+00 -0.10978469477E+03  0.10978469480E+03  0.26000000000E-02 0. -1.
        -13    1    1    2    0    0  0.63439343874E+01 -0.77559792506E+01 -0.56196138500E+02  0.57082553136E+02  0.10570000000E+00 0. -1.
         13    1    1    2    0    0 -0.63439343874E+01  0.77559792506E+01 -0.52673005213E+02  0.53617696410E+02  0.10570000000E+00 0.  1.
<mgrwt>
<rscale>  0 0.20051304E+02</rscale>
<asrwt>0</asrwt>
<pdfrwt beam="2">  1        2 0.16889943E-01 0.20051304E+02</pdfrwt>
<pdfrwt beam="1">  1       -2 0.14085438E-03 0.20051304E+02</pdfrwt>
<totfact> 0.53610861E+06</totfact>
</mgrwt>
</event>
<event>
 5    1  0.1607476E-006  0.2001074E+02  0.7818608E-02  0.1745114E+00
          2   -1    0    0  501    0  0.00000000000E+00  0.00000000000E+00  0.28433443332E+01  0.28433455220E+01  0.26000000000E-02 0. -1.
         -2   -1    0    0    0  501 -0.00000000000E+00 -0.00000000000E+00 -0.35207641897E+02  0.35207641993E+02  0.26000000000E-02 0.  1.
       1023    2    1    2    0    0  0.00000000000E+00  0.00000000000E+00 -0.32364297563E+02  0.38050987515E+02  0.20010744465E+02 0.  0.
        -13    1    3    3    0    0 -0.95354061000E+01 -0.30272436146E+01 -0.16010719627E+02  0.18879684554E+02  0.10570000000E+00 0. -1.
         13    1    3    3    0    0  0.95354061000E+01  0.30272436146E+01 -0.16353577936E+02  0.19171302960E+02  0.10570000000E+00 0.  1.
<mgrwt>
<rscale>  0 0.20010744E+02</rscale>
<asrwt>0</asrwt>
<pdfrwt beam="1">  1        2 0.43743771E-03 0.20010744E+02</pdfrwt>
<pdfrwt beam="2">  1       -2 0.54165601E-02 0.20010744E+02</pdfrwt>
<totfact> 0.35407760E+06</totfact>
</mgrwt>
</event>
<event>
 4    1  0.1607476E-006  0.2023518E+02  0.7818608E-02  0.1740691E+00
          2   -1    0    0  501    0  0.00000000000E+00  0.00000000000E+00  0.24393039718E+02  0.24393039857E+02  0.26000000000E-02 0.  1.
         -2   -1    0    0    0  501 -0.00000000000E+00 -0.00000000000E+00 -0.41965104955E+01  0.41965113009E+01  0.26000000000E-02 0. -1.
        -13    1    1    2    0    0 -0.62040564197E+01  0.79914963753E+01  0.10116014085E+02  0.14307314347E+02  0.10570000000E+00 0.  1.
         13    1    1    2    0    0  0.62040564197E+01 -0.79914963753E+01  0.10080515138E+02  0.14282236811E+02  0.10570000000E+00 0. -1.
<mgrwt>
<rscale>  0 0.20235183E+02</rscale>
<asrwt>0</asrwt>
<pdfrwt beam="1">  1        2 0.37527754E-02 0.20235183E+02</pdfrwt>
<pdfrwt beam="2">  1       -2 0.64561707E-03 0.20235183E+02</pdfrwt>
<totfact> 0.41351819E+06</totfact>
</mgrwt>
</event>
<event>
 4    1  0.1607476E-006  0.2014780E+02  0.7818608E-02  0.1742405E+00
         -2   -1    0    0    0  501 -0.00000000000E+00  0.00000000000E+00  0.33898629458E+01  0.33898639429E+01  0.26000000000E-02 0. -1.
          2   -1    0    0  501    0  0.00000000000E+00 -0.00000000000E+00 -0.29937321358E+02  0.29937321470E+02  0.26000000000E-02 0.  1.
        -13    1    1    2    0    0 -0.92583968739E+01  0.39630759301E+01 -0.12909898852E+02  0.16373776118E+02  0.10570000000E+00 0. -1.
         13    1    1    2    0    0  0.92583968739E+01 -0.39630759301E+01 -0.13637559559E+02  0.16953409295E+02  0.10570000000E+00 0.  1.
<mgrwt>
<rscale>  0 0.20147797E+02</rscale>
<asrwt>0</asrwt>
<pdfrwt beam="2">  1        2 0.46057416E-02 0.20147797E+02</pdfrwt>
<pdfrwt beam="1">  1       -2 0.52151748E-03 0.20147797E+02</pdfrwt>
<totfact> 0.42653064E+06</totfact>
</mgrwt>
</event>
<event>
 5    1  0.1607476E-006  0.2000634E+02  0.7818608E-02  0.1745202E+00
         -2   -1    0    0    0  501 -0.00000000000E+00  0.00000000000E+00  0.66393729721E+01  0.66393734812E+01  0.26000000000E-02 0.  1.
          2   -1    0    0  501    0  0.00000000000E+00 -0.00000000000E+00 -0.15071207659E+02  0.15071207883E+02  0.26000000000E-02 0. -1.
       1023    2    1    2    0    0  0.00000000000E+00  0.00000000000E+00 -0.84318346866E+01  0.21710581364E+02  0.20006336671E+02 0.  0.
        -13    1    3    3    0    0  0.31433175601E+01  0.94933419271E+01 -0.39776258146E+01  0.10762744345E+02  0.10570000000E+00 0. -1.
         13    1    3    3    0    0 -0.31433175601E+01 -0.94933419271E+01 -0.44542088720E+01  0.10947837019E+02  0.10570000000E+00 0.  1.
<mgrwt>
<rscale>  0 0.20006337E+02</rscale>
<asrwt>0</asrwt>
<pdfrwt beam="2">  1        2 0.23186474E-02 0.20006337E+02</pdfrwt>
<pdfrwt beam="1">  1       -2 0.10214421E-02 0.20006337E+02</pdfrwt>
<totfact> 0.40675644E+06</totfact>
</mgrwt>
</event>
<event>
 5    1  0.1607476E-006  0.2000881E+02  0.7818608E-02  0.1745153E+00
          2   -1    0    0  501    0  0.00000000000E+00  0.00000000000E+00  0.13953003546E+01  0.13953027770E+01  0.26000000000E-02 0. -1.
         -2   -1    0    0    0  501 -0.00000000000E+00 -0.00000000000E+00 -0.71732254835E+02  0.71732254882E+02  0.26000000000E-02 0.  1.
       1023    2    1    2    0    0  0.00000000000E+00  0.00000000000E+00 -0.70336954480E+02  0.73127557659E+02  0.20008811150E+02 0.  0.
        -13    1    3    3    0    0  0.95077089746E+01  0.31059536033E+01 -0.35837216693E+02  0.37206998677E+02  0.10570000000E+00 0. -1.
         13    1    3    3    0    0 -0.95077089746E+01 -0.31059536033E+01 -0.34499737787E+02  0.35920558982E+02  0.10570000000E+00 0.  1.
<mgrwt>
<rscale>  0 0.20008811E+02</rscale>
<asrwt>0</asrwt>
<pdfrwt beam="1">  1        2 0.21466184E-03 0.20008811E+02</pdfrwt>
<pdfrwt beam="2">  1       -2 0.11035729E-01 0.20008811E+02</pdfrwt>
<totfact> 0.31906156E+06</totfact>
</mgrwt>
</event>
<event>
 4    1  0.1607476E-006  0.2001718E+02  0.7818608E-02  0.1744987E+00
         -2   -1    0    0    0  501 -0.00000000000E+00  0.00000000000E+00  0.20003788790E+01  0.20003805687E+01  0.26000000000E-02 0. -1.
          2   -1    0    0  501    0  0.00000000000E+00 -0.00000000000E+00 -0.50076435700E+02  0.50076435767E+02  0.26000000000E-02 0.  1.
        -13    1    1    2    0    0 -0.68545342990E+01 -0.72913566265E+01 -0.24325334091E+02  0.26303641821E+02  0.10570000000E+00 0. -1.
         13    1    1    2    0    0  0.68545342990E+01  0.72913566265E+01 -0.23750722729E+02  0.25773174515E+02  0.10570000000E+00 0.  1.
<mgrwt>
<rscale>  0 0.20017182E+02</rscale>
<asrwt>0</asrwt>
<pdfrwt beam="2">  1        2 0.77040662E-02 0.20017182E+02</pdfrwt>
<pdfrwt beam="1">  1       -2 0.30775077E-03 0.20017182E+02</pdfrwt>
<totfact> 0.46250246E+06</totfact>
</mgrwt>
</event>
<event>
 4    1  0.1607476E-006  0.2021418E+02  0.7818608E-02  0.1741102E+00
         -2   -1    0    0    0  501 -0.00000000000E+00  0.00000000000E+00  0.87647157093E+01  0.87647160949E+01  0.26000000000E-02 0.  1.
          2   -1    0    0  501    0  0.00000000000E+00 -0.00000000000E+00 -0.11655059280E+02  0.11655059570E+02  0.26000000000E-02 0. -1.
        -13    1    1    2    0    0 -0.23694308644E+00  0.10013383430E+02 -0.83078776100E-01  0.10017088615E+02  0.10570000000E+00 0.  1.
         13    1    1    2    0    0  0.23694308644E+00 -0.10013383430E+02 -0.28072647946E+01  0.10402687050E+02  0.10570000000E+00 0. -1.
<mgrwt>
<rscale>  0 0.20214182E+02</rscale>
<asrwt>0</asrwt>
<pdfrwt beam="2">  1        2 0.17930861E-02 0.20214182E+02</pdfrwt>
<pdfrwt beam="1">  1       -2 0.13484178E-02 0.20214182E+02</pdfrwt>
<totfact> 0.38954818E+06</totfact>
</mgrwt>
</event>
<event>
 5    1  0.1607476E-006  0.2000346E+02  0.7818608E-02  0.1745259E+00
          2   -1    0    0  501    0  0.00000000000E+00  0.00000000000E+00  0.36569669118E+01  0.36569678361E+01  0.26000000000E-02 0. -1.
         -2   -1    0    0    0  501 -0.00000000000E+00 -0.00000000000E+00 -0.27354530884E+02  0.27354531007E+02  0.26000000000E-02 0.  1.
       1023    2    1    2    0    0  0.00000000000E+00  0.00000000000E+00 -0.23697563972E+02  0.31011498843E+02  0.20003462758E+02 0.  0.
        -13    1    3    3    0    0  0.53511848618E+01  0.84483514210E+01 -0.11667741429E+02  0.15367406538E+02  0.10570000000E+00 0. -1.
         13    1    3    3    0    0 -0.53511848618E+01 -0.84483514210E+01 -0.12029822543E+02  0.15644092305E+02  0.10570000000E+00 0.  1.
<mgrwt>
<rscale>  0 0.20003463E+02</rscale>
<asrwt>0</asrwt>
<pdfrwt beam="1">  1        2 0.56261039E-03 0.20003463E+02</pdfrwt>
<pdfrwt beam="2">  1       -2 0.42083893E-02 0.20003463E+02</pdfrwt>
<totfact> 0.36383906E+06</totfact>
</mgrwt>
</event>
<event>
 5    1  0.1607476E-006  0.2000557E+02  0.7818608E-02  0.1745217E+00
         -2   -1    0    0    0  501 -0.00000000000E+00  0.00000000000E+00  0.22715792993E+01  0.22715807873E+01  0.26000000000E-02 0. -1.
          2   -1    0    0  501    0  0.00000000000E+00 -0.00000000000E+00 -0.44046736816E+02  0.44046736893E+02  0.26000000000E-02 0.  1.
       1023    2    1    2    0    0  0.00000000000E+00  0.00000000000E+00 -0.41775157517E+02  0.46318317680E+02  0.20005568404E+02 0.  0.
        -13    1    3    3    0    0 -0.96759485348E+01 -0.25281363318E+01 -0.20492854256E+02  0.22803151129E+02  0.10570000000E+00 0. -1.
         13    1    3    3    0    0  0.96759485348E+01  0.25281363318E+01 -0.21282303261E+02  0.23515166552E+02  0.10570000000E+00 0.  1.
<mgrwt>
<rscale>  0 0.20005568E+02</rscale>
<asrwt>0</asrwt>
<pdfrwt beam="2">  1        2 0.67764206E-02 0.20005568E+02</pdfrwt>
<pdfrwt beam="1">  1       -2 0.34947389E-03 0.20005568E+02</pdfrwt>
<totfact> 0.45456361E+06</totfact>
</mgrwt>
</event>
<event>
 4    1  0.1607476E-006  0.2002690E+02  0.7818608E-02  0.1744794E+00
          2   -1    0    0  501    0  0.00000000000E+00  0.00000000000E+00  0.93671361530E+02  0.93671361566E+02  0.26000000000E-02 0. -1.
         -2   -1    0    0    0  501 -0.00000000000E+00 -0.00000000000E+00 -0.10704338248E+01  0.10704369824E+01  0.26000000000E-02 0.  1.
        -13    1    1    2    0    0  0.96222936735E+01 -0.27391777739E+01  0.48229894446E+02  0.49256730719E+02  0.10570000000E+00 0. -1.
         13    1    1    2    0    0 -0.96222936735E+01  0.27391777739E+01  0.44371033259E+02  0.45485067829E+02  0.10570000000E+00 0.  1.
<mgrwt>
<rscale>  0 0.20026896E+02</rscale>
<asrwt>0</asrwt>
<pdfrwt beam="1">  1        2 0.14410986E-01 0.20026896E+02</pdfrwt>
<pdfrwt beam="2">  1       -2 0.16468230E-03 0.20026896E+02</pdfrwt>
<totfact> 0.51839741E+06</totfact>
</mgrwt>
</event>
<event>
 5    1  0.1607476E-006  0.2000233E+02  0.7818608E-02  0.1745282E+00
         -2   -1    0    0    0  501 -0.00000000000E+00  0.00000000000E+00  0.16892272482E+01  0.16892292491E+01  0.26000000000E-02 0. -1.
          2   -1    0    0  501    0  0.00000000000E+00 -0.00000000000E+00 -0.59212421103E+02  0.59212421160E+02  0.26000000000E-02 0.  1.
       1023    2    1    2    0    0  0.00000000000E+00  0.00000000000E+00 -0.57523193855E+02  0.60901650410E+02  0.20002329647E+02 0.  0.
        -13    1    3    3    0    0 -0.23101935101E+01 -0.97298983819E+01 -0.28564070346E+02  0.30264256207E+02  0.10570000000E+00 0.  1.
         13    1    3    3    0    0  0.23101935101E+01  0.97298983819E+01 -0.28959123509E+02  0.30637394202E+02  0.10570000000E+00 0. -1.
<mgrwt>
<rscale>  0 0.20002330E+02</rscale>
<asrwt>0</asrwt>
<pdfrwt beam="2">  1        2 0.91096018E-02 0.20002330E+02</pdfrwt>
<pdfrwt beam="1">  1       -2 0.25988132E-03 0.20002330E+02</pdfrwt>
<totfact> 0.47579332E+06</totfact>
</mgrwt>
</event>
<event>
 5    1  0.1607476E-006  0.2000147E+02  0.7818608E-02  0.1745299E+00
          2   -1    0    0  501    0  0.00000000000E+00  0.00000000000E+00  0.94562009567E+01  0.94562013141E+01  0.26000000000E-02 0. -1.
         -2   -1    0    0    0  501 -0.00000000000E+00 -0.00000000000E+00 -0.10576620925E+02  0.10576621244E+02  0.26000000000E-02 0.  1.
       1023    2    1    2    0    0  0.00000000000E+00  0.00000000000E+00 -0.11204199682E+01  0.20032822559E+02  0.20001465915E+02 0.  0.
        -13    1    3    3    0    0 -0.97455607935E+01 -0.22421401306E+01 -0.54175140381E+00  0.10015378905E+02  0.10570000000E+00 0. -1.
         13    1    3    3    0    0  0.97455607935E+01  0.22421401306E+01 -0.57866856434E+00  0.10017443653E+02  0.10570000000E+00 0.  1.
<mgrwt>
<rscale>  0 0.20001466E+02</rscale>
<asrwt>0</asrwt>
<pdfrwt beam="1">  1        2 0.14548002E-02 0.20001466E+02</pdfrwt>
<pdfrwt beam="2">  1       -2 0.16271725E-02 0.20001466E+02</pdfrwt>
<totfact> 0.39295403E+06</totfact>
</mgrwt>
</event>
<event>
 4    1  0.1607476E-006  0.2002618E+02  0.7818608E-02  0.1744808E+00
          2   -1    0    0  501    0  0.00000000000E+00  0.00000000000E+00  0.56780481799E+01  0.56780487752E+01  0.26000000000E-02 0. -1.
         -2   -1    0    0    0  501 -0.00000000000E+00 -0.00000000000E+00 -0.17657813118E+02  0.17657813309E+02  0.26000000000E-02 0.  1.
        -13    1    1    2    0    0  0.99677689760E+01  0.84448971547E+00 -0.64858667207E+01  0.11922550937E+02  0.10570000000E+00 0.  1.
         13    1    1    2    0    0 -0.99677689760E+01 -0.84448971547E+00 -0.54938982173E+01  0.11413311148E+02  0.10570000000E+00 0. -1.
<mgrwt>
<rscale>  0 0.20026175E+02</rscale>
<asrwt>0</asrwt>
<pdfrwt beam="1">  1        2 0.87354594E-03 0.20026175E+02</pdfrwt>
<pdfrwt beam="2">  1       -2 0.27165867E-02 0.20026175E+02</pdfrwt>
<totfact> 0.37708445E+06</totfact>
</mgrwt>
</event>
<event>
 5    1  0.1621025E-006  0.2000215E+02  0.7818608E-02  0.1745285E+00
          2   -1    0    0  501    0  0.00000000000E+00  0.00000000000E+00  0.99624987604E+02  0.99624987638E+02  0.26000000000E-02 0.  1.
         -2   -1    0    0    0  501 -0.00000000000E+00 -0.00000000000E+00 -0.10039784420E+01  0.10039818086E+01  0.26000000000E-02 0. -1.
       1023    2    1    2    0    0  0.00000000000E+00  0.00000000000E+00  0.98621009162E+02  0.10062896945E+03  0.20002150978E+02 0.  0.
        -13    1    3    3    0    0  0.90786016495E+01 -0.41935935494E+01  0.49030229607E+02  0.50039802384E+02  0.10570000000E+00 0.  1.
         13    1    3    3    0    0 -0.90786016495E+01  0.41935935494E+01  0.49590779555E+02  0.50589167063E+02  0.10570000000E+00 0. -1.
<mgrwt>
<rscale>  0 0.20002151E+02</rscale>
<asrwt>0</asrwt>
<pdfrwt beam="1">  1        2 0.15326920E-01 0.20002151E+02</pdfrwt>
<pdfrwt beam="2">  1       -2 0.15445850E-03 0.20002151E+02</pdfrwt>
<totfact> 0.52700517E+06</totfact>
</mgrwt>
</event>
<event>
 5    1  0.1607476E-006  0.2000145E+02  0.7818608E-02  0.1745299E+00
          2   -1    0    0  501    0  0.00000000000E+00  0.00000000000E+00  0.86801588938E+01  0.86801592832E+01  0.26000000000E-02 0. -1.
         -2   -1    0    0    0  501 -0.00000000000E+00 -0.00000000000E+00 -0.11522195442E+02  0.11522195735E+02  0.26000000000E-02 0.  1.
       1023    2    1    2    0    0  0.00000000000E+00  0.00000000000E+00 -0.28420365483E+01  0.20202355019E+02  0.20001449361E+02 0.  0.
        -13    1    3    3    0    0 -0.17824120079E+01  0.98400174718E+01 -0.14011936257E+01  0.10098388608E+02  0.10570000000E+00 0. -1.
         13    1    3    3    0    0  0.17824120079E+01 -0.98400174718E+01 -0.14408429226E+01  0.10103966411E+02  0.10570000000E+00 0.  1.
<mgrwt>
<rscale>  0 0.20001449E+02</rscale>
<asrwt>0</asrwt>
<pdfrwt beam="1">  1        2 0.13354091E-02 0.20001449E+02</pdfrwt>
<pdfrwt beam="2">  1       -2 0.17726455E-02 0.20001449E+02</pdfrwt>
<totfact> 0.39050022E+06</totfact>
</mgrwt>
</event>
<event>
 4    1  0.1607476E-006  0.2072461E+02  0.7818608E-02  0.1731291E+00
         -2   -1    0    0    0  501 -0.00000000000E+00  0.00000000000E+00  0.24810854873E+02  0.24810855010E+02  0.26000000000E-02 0. -1.
          2   -1    0    0  501    0  0.00000000000E+00 -0.00000000000E+00 -0.43278387883E+01  0.43278395693E+01  0.26000000000E-02 0.  1.
        -13    1    1    2    0    0 -0.24961006713E+01  0.98114425271E+01  0.13344681226E+02  0.16750719761E+02  0.10570000000E+00 0.  1.
         13    1    1    2    0    0  0.24961006713E+01 -0.98114425271E+01  0.71383348597E+01  0.12387974818E+02  0.10570000000E+00 0. -1.
<mgrwt>
<rscale>  0 0.20724613E+02</rscale>
<asrwt>0</asrwt>
<pdfrwt beam="2">  1        2 0.66582142E-03 0.20724613E+02</pdfrwt>
<pdfrwt beam="1">  1       -2 0.38170547E-02 0.20724613E+02</pdfrwt>
<totfact> 0.33987520E+06</totfact>
</mgrwt>
</event>
<event>
 4    1  0.1607476E-006  0.2004876E+02  0.7818608E-02  0.1744360E+00
         -2   -1    0    0    0  501 -0.00000000000E+00  0.00000000000E+00  0.34404593116E+02  0.34404593214E+02  0.26000000000E-02 0. -1.
          2   -1    0    0  501    0  0.00000000000E+00 -0.00000000000E+00 -0.29207770913E+01  0.29207782485E+01  0.26000000000E-02 0.  1.
        -13    1    1    2    0    0  0.34957780787E+01  0.93869852420E+01  0.15042724845E+02  0.18072927255E+02  0.10570000000E+00 0.  1.
         13    1    1    2    0    0 -0.34957780787E+01 -0.93869852420E+01  0.16441091180E+02  0.19252444208E+02  0.10570000000E+00 0. -1.
<mgrwt>
<rscale>  0 0.20048758E+02</rscale>
<asrwt>0</asrwt>
<pdfrwt beam="2">  1        2 0.44935042E-03 0.20048758E+02</pdfrwt>
<pdfrwt beam="1">  1       -2 0.52930144E-02 0.20048758E+02</pdfrwt>
<totfact> 0.35352722E+06</totfact>
</mgrwt>
</event>
<event>
 5    1  0.1607476E-006  0.2000119E+02  0.7818608E-02  0.1745304E+00
          2   -1    0    0  501    0  0.00000000000E+00  0.00000000000E+00  0.35514686690E+01  0.35514696207E+01  0.26000000000E-02 0. -1.
         -2   -1    0    0    0  501 -0.00000000000E+00 -0.00000000000E+00 -0.28160703515E+02  0.28160703635E+02  0.26000000000E-02 0.  1.
       1023    2    1    2    0    0  0.00000000000E+00  0.00000000000E+00 -0.24609234846E+02  0.31712173256E+02  0.20001187287E+02 0.  0.
        -13    1    3    3    0    0 -0.11265856988E+01  0.99363712790E+01 -0.12295760884E+02  0.15849213789E+02  0.10570000000E+00 0. -1.
         13    1    3    3    0    0  0.11265856988E+01 -0.99363712790E+01 -0.12313473962E+02  0.15862959466E+02  0.10570000000E+00 0.  1.
<mgrwt>
<rscale>  0 0.20001187E+02</rscale>
<asrwt>0</asrwt>
<pdfrwt beam="1">  1        2 0.54637990E-03 0.20001187E+02</pdfrwt>
<pdfrwt beam="2">  1       -2 0.43324159E-02 0.20001187E+02</pdfrwt>
<totfact> 0.36289644E+06</totfact>
</mgrwt>
</event>
<event>
 5    1  0.1607476E-006  0.2000659E+02  0.7818608E-02  0.1745197E+00
         -2   -1    0    0    0  501 -0.00000000000E+00  0.00000000000E+00  0.23900463658E+02  0.23900463799E+02  0.26000000000E-02 0. -1.
          2   -1    0    0  501    0  0.00000000000E+00 -0.00000000000E+00 -0.41867754717E+01  0.41867762790E+01  0.26000000000E-02 0.  1.
       1023    2    1    2    0    0  0.00000000000E+00  0.00000000000E+00  0.19713688186E+02  0.28087240078E+02  0.20006587748E+02 0.  0.
        -13    1    3    3    0    0 -0.98780233793E+01  0.15645486463E+01  0.96074493653E+01  0.13868576500E+02  0.10570000000E+00 0.  1.
         13    1    3    3    0    0  0.98780233793E+01 -0.15645486463E+01  0.10106238821E+02  0.14218663578E+02  0.10570000000E+00 0. -1.
<mgrwt>
<rscale>  0 0.20006588E+02</rscale>
<asrwt>0</asrwt>
<pdfrwt beam="2">  1        2 0.64411939E-03 0.20006588E+02</pdfrwt>
<pdfrwt beam="1">  1       -2 0.36769944E-02 0.20006588E+02</pdfrwt>
<totfact> 0.36833702E+06</totfact>
</mgrwt>
</event>
<event>
 4    1  0.2196032E-006  0.2001972E+02  0.7818608E-02  0.1744936E+00
         -2   -1    0    0    0  501 -0.00000000000E+00  0.00000000000E+00  0.85770442258E+00  0.85770836332E+00  0.26000000000E-02 0. -1.
          2   -1    0    0  501    0  0.00000000000E+00 -0.00000000000E+00 -0.11681998134E+03  0.11681998137E+03  0.26000000000E-02 0.  1.
        -13    1    1    2    0    0 -0.61136890197E+01  0.79216116011E+01 -0.56578355486E+02  0.57456510561E+02  0.10570000000E+00 0.  1.
         13    1    1    2    0    0  0.61136890197E+01 -0.79216116011E+01 -0.59383921432E+02  0.60221179173E+02  0.10570000000E+00 0. -1.
<mgrwt>
<rscale>  0 0.20019715E+02</rscale>
<asrwt>0</asrwt>
<pdfrwt beam="2">  1        2 0.17972293E-01 0.20019715E+02</pdfrwt>
<pdfrwt beam="1">  1       -2 0.13195492E-03 0.20019715E+02</pdfrwt>
<totfact> 0.54610037E+06</totfact>
</mgrwt>
</event>
<event>
 5    1  0.1607476E-006  0.2000219E+02  0.7818608E-02  0.1745285E+00
          2   -1    0    0  501    0  0.00000000000E+00  0.00000000000E+00  0.30128248789E+01  0.30128260008E+01  0.26000000000E-02 0. -1.
         -2   -1    0    0    0  501 -0.00000000000E+00 -0.00000000000E+00 -0.33198708099E+02  0.33198708200E+02  0.26000000000E-02 0.  1.
       1023    2    1    2    0    0  0.00000000000E+00  0.00000000000E+00 -0.30185883220E+02  0.36211534201E+02  0.20002191466E+02 0.  0.
        -13    1    3    3    0    0 -0.97117891967E+01  0.23857689227E+01 -0.15091517501E+02  0.18104579966E+02  0.10570000000E+00 0. -1.
         13    1    3    3    0    0  0.97117891967E+01 -0.23857689227E+01 -0.15094365719E+02  0.18106954236E+02  0.10570000000E+00 0.  1.
<mgrwt>
<rscale>  0 0.20002191E+02</rscale>
<asrwt>0</asrwt>
<pdfrwt beam="1">  1        2 0.46351164E-03 0.20002191E+02</pdfrwt>
<pdfrwt beam="2">  1       -2 0.51074934E-02 0.20002191E+02</pdfrwt>
<totfact> 0.35672348E+06</totfact>
</mgrwt>
</event>
<event>
 4    1  0.1607476E-006  0.2007092E+02  0.7818608E-02  0.1743921E+00
          2   -1    0    0  501    0  0.00000000000E+00  0.00000000000E+00  0.17064313049E+01  0.17064332857E+01  0.26000000000E-02 0.  1.
         -2   -1    0    0    0  501 -0.00000000000E+00 -0.00000000000E+00 -0.59018146562E+02  0.59018146620E+02  0.26000000000E-02 0. -1.
        -13    1    1    2    0    0 -0.92155567208E+01  0.39389026959E+01 -0.30192210497E+02  0.31812296166E+02  0.10570000000E+00 0.  1.
         13    1    1    2    0    0  0.92155567208E+01 -0.39389026959E+01 -0.27119504760E+02  0.28912283740E+02  0.10570000000E+00 0. -1.
<mgrwt>
<rscale>  0 0.20070922E+02</rscale>
<asrwt>0</asrwt>
<pdfrwt beam="1">  1        2 0.26252810E-03 0.20070922E+02</pdfrwt>
<pdfrwt beam="2">  1       -2 0.90797134E-02 0.20070922E+02</pdfrwt>
<totfact> 0.32794572E+06</totfact>
</mgrwt>
</event>
<event>
 4    1  0.1607476E-006  0.2008162E+02  0.7818608E-02  0.1743710E+00
          2   -1    0    0  501    0  0.00000000000E+00  0.00000000000E+00  0.19650580167E+02  0.19650580339E+02  0.26000000000E-02 0.  1.
         -2   -1    0    0    0  501 -0.00000000000E+00 -0.00000000000E+00 -0.51305304947E+01  0.51305311535E+01  0.26000000000E-02 0. -1.
        -13    1    1    2    0    0  0.95039130082E+01  0.32236513282E+01  0.76311513561E+01  0.12608010702E+02  0.10570000000E+00 0. -1.
         13    1    1    2    0    0 -0.95039130082E+01 -0.32236513282E+01  0.68888983160E+01  0.12173100790E+02  0.10570000000E+00 0.  1.
<mgrwt>
<rscale>  0 0.20081625E+02</rscale>
<asrwt>0</asrwt>
<pdfrwt beam="1">  1        2 0.30231662E-02 0.20081625E+02</pdfrwt>
<pdfrwt beam="2">  1       -2 0.78931246E-03 0.20081625E+02</pdfrwt>
<totfact> 0.41232847E+06</totfact>
</mgrwt>
</event>
<event>
 5    1  0.1607476E-006  0.2000239E+02  0.7818608E-02  0.1745281E+00
          2   -1    0    0  501    0  0.00000000000E+00  0.00000000000E+00  0.78756525962E+02  0.78756526005E+02  0.26000000000E-02 0.  1.
         -2   -1    0    0    0  501 -0.00000000000E+00 -0.00000000000E+00 -0.12700379402E+01  0.12700406015E+01  0.26000000000E-02 0. -1.
       1023    2    1    2    0    0  0.00000000000E+00  0.00000000000E+00  0.77486488022E+02  0.80026566607E+02  0.20002388279E+02 0.  0.
        -13    1    3    3    0    0 -0.66743423038E+00 -0.99777361470E+01  0.38304522842E+02  0.39588487338E+02  0.10570000000E+00 0.  1.
         13    1    3    3    0    0  0.66743423038E+00  0.99777361470E+01  0.39181965180E+02  0.40438079269E+02  0.10570000000E+00 0. -1.
<mgrwt>
<rscale>  0 0.20002388E+02</rscale>
<asrwt>0</asrwt>
<pdfrwt beam="1">  1        2 0.12116392E-01 0.20002388E+02</pdfrwt>
<pdfrwt beam="2">  1       -2 0.19539060E-03 0.20002388E+02</pdfrwt>
<totfact> 0.50129281E+06</totfact>
</mgrwt>
</event>
<event>
 5    1  0.1607476E-006  0.2000181E+02  0.7818608E-02  0.1745292E+00
         -2   -1    0    0    0  501 -0.00000000000E+00  0.00000000000E+00  0.42189234389E+02  0.42189234469E+02  0.26000000000E-02 0. -1.
          2   -1    0    0  501    0  0.00000000000E+00 -0.00000000000E+00 -0.23707015884E+01  0.23707030141E+01  0.26000000000E-02 0.  1.
       1023    2    1    2    0    0  0.00000000000E+00  0.00000000000E+00  0.39818532800E+02  0.44559937483E+02  0.20001811771E+02 0.  0.
        -13    1    3    3    0    0  0.66435489945E+01  0.74741954666E+01  0.20090320838E+02  0.22441758064E+02  0.10570000000E+00 0.  1.
         13    1    3    3    0    0 -0.66435489945E+01 -0.74741954666E+01  0.19728211962E+02  0.22118179419E+02  0.10570000000E+00 0. -1.
<mgrwt>
<rscale>  0 0.20001812E+02</rscale>
<asrwt>0</asrwt>
<pdfrwt beam="2">  1        2 0.36472346E-03 0.20001812E+02</pdfrwt>
<pdfrwt beam="1">  1       -2 0.64906512E-02 0.20001812E+02</pdfrwt>
<totfact> 0.34681262E+06</totfact>
</mgrwt>
</event>
<event>
 4    1  0.1607476E-006  0.2005119E+02  0.7818608E-02  0.1744312E+00
          2   -1    0    0  501    0  0.00000000000E+00  0.00000000000E+00  0.76511343516E+02  0.76511343560E+02  0.26000000000E-02 0. -1.
         -2   -1    0    0    0  501 -0.00000000000E+00 -0.00000000000E+00 -0.13136930483E+01  0.13136956212E+01  0.26000000000E-02 0.  1.
        -13    1    1    2    0    0 -0.43020194967E+01 -0.90445859636E+01  0.35909481969E+02  0.37280208889E+02  0.10570000000E+00 0. -1.
         13    1    1    2    0    0  0.43020194967E+01  0.90445859636E+01  0.39288168498E+02  0.40544830292E+02  0.10570000000E+00 0.  1.
<mgrwt>
<rscale>  0 0.20051187E+02</rscale>
<asrwt>0</asrwt>
<pdfrwt beam="1">  1        2 0.11770978E-01 0.20051187E+02</pdfrwt>
<pdfrwt beam="2">  1       -2 0.20210678E-03 0.20051187E+02</pdfrwt>
<totfact> 0.49576035E+06</totfact>
</mgrwt>
</event>
<event>
 5    1  0.1607476E-006  0.2000179E+02  0.7818608E-02  0.1745292E+00
         -2   -1    0    0    0  501 -0.00000000000E+00  0.00000000000E+00  0.38037373734E+01  0.38037382620E+01  0.26000000000E-02 0.  1.
          2   -1    0    0  501    0  0.00000000000E+00 -0.00000000000E+00 -0.26294635247E+02  0.26294635375E+02  0.26000000000E-02 0. -1.
       1023    2    1    2    0    0  0.00000000000E+00  0.00000000000E+00 -0.22490897873E+02  0.30098373637E+02  0.20001790131E+02 0.  0.
        -13    1    3    3    0    0  0.23061142958E+01  0.97305817872E+01 -0.11344634202E+02  0.15123302640E+02  0.10570000000E+00 0.  1.
         13    1    3    3    0    0 -0.23061142958E+01 -0.97305817872E+01 -0.11146263671E+02  0.14975070997E+02  0.10570000000E+00 0. -1.
<mgrwt>
<rscale>  0 0.20001790E+02</rscale>
<asrwt>0</asrwt>
<pdfrwt beam="2">  1        2 0.40453285E-02 0.20001790E+02</pdfrwt>
<pdfrwt beam="1">  1       -2 0.58519046E-03 0.20001790E+02</pdfrwt>
<totfact> 0.42764428E+06</totfact>
</mgrwt>
</event>
<event>
 5    1  0.1607476E-006  0.2000146E+02  0.7818608E-02  0.1745299E+00
          2   -1    0    0  501    0  0.00000000000E+00  0.00000000000E+00  0.19125489725E+02  0.19125489902E+02  0.26000000000E-02 0.  1.
         -2   -1    0    0    0  501 -0.00000000000E+00 -0.00000000000E+00 -0.52293882059E+01  0.52293888523E+01  0.26000000000E-02 0. -1.
       1023    2    1    2    0    0  0.00000000000E+00  0.00000000000E+00  0.13896101519E+02  0.24354878754E+02  0.20001461989E+02 0.  0.
        -13    1    3    3    0    0  0.97360395172E+01 -0.22826607923E+01  0.70082250838E+01  0.12211772889E+02  0.10570000000E+00 0. -1.
         13    1    3    3    0    0 -0.97360395172E+01  0.22826607923E+01  0.68878764351E+01  0.12143105865E+02  0.10570000000E+00 0.  1.
<mgrwt>
<rscale>  0 0.20001462E+02</rscale>
<asrwt>0</asrwt>
<pdfrwt beam="1">  1        2 0.29423831E-02 0.20001462E+02</pdfrwt>
<pdfrwt beam="2">  1       -2 0.80452132E-03 0.20001462E+02</pdfrwt>
<totfact> 0.41508350E+06</totfact>
</mgrwt>
</event>
<event>
 4    1  0.1607476E-006  0.2001759E+02  0.7818608E-02  0.1744978E+00
         -2   -1    0    0    0  501 -0.00000000000E+00  0.00000000000E+00  0.10890145341E+01  0.10890176378E+01  0.26000000000E-02 0.  1.
          2   -1    0    0  501    0  0.00000000000E+00 -0.00000000000E+00 -0.91987641670E+02  0.91987641706E+02  0.26000000000E-02 0. -1.
        -13    1    1    2    0    0 -0.94711123654E+01 -0.32092009892E+01 -0.47331810289E+02  0.48376775194E+02  0.10570000000E+00 0. -1.
         13    1    1    2    0    0  0.94711123654E+01  0.32092009892E+01 -0.43566816846E+02  0.44699884150E+02  0.10570000000E+00 0.  1.
<mgrwt>
<rscale>  0 0.20017595E+02</rscale>
<asrwt>0</asrwt>
<pdfrwt beam="2">  1        2 0.14151939E-01 0.20017595E+02</pdfrwt>
<pdfrwt beam="1">  1       -2 0.16754101E-03 0.20017595E+02</pdfrwt>
<totfact> 0.51687901E+06</totfact>
</mgrwt>
</event>
<event>
 5    1  0.1607476E-006  0.2000144E+02  0.7818608E-02  0.1745300E+00
          2   -1    0    0  501    0  0.00000000000E+00  0.00000000000E+00  0.97532545760E+00  0.97532892311E+00  0.26000000000E-02 0. -1.
         -2   -1    0    0    0  501 -0.00000000000E+00 -0.00000000000E+00 -0.10254442861E+03  0.10254442865E+03  0.26000000000E-02 0.  1.
       1023    2    1    2    0    0  0.00000000000E+00  0.00000000000E+00 -0.10156910316E+03  0.10351975757E+03  0.20001437233E+02 0.  0.
        -13    1    3    3    0    0 -0.88014927829E+01  0.47469923873E+01 -0.51067484065E+02  0.52037479889E+02  0.10570000000E+00 0.  1.
         13    1    3    3    0    0  0.88014927829E+01 -0.47469923873E+01 -0.50501619090E+02  0.51482277680E+02  0.10570000000E+00 0. -1.
<mgrwt>
<rscale>  0 0.20001437E+02</rscale>
<asrwt>0</asrwt>
<pdfrwt beam="1">  1        2 0.15005042E-03 0.20001437E+02</pdfrwt>
<pdfrwt beam="2">  1       -2 0.15776058E-01 0.20001437E+02</pdfrwt>
<totfact> 0.29542347E+06</totfact>
</mgrwt>
</event>
<event>
 5    1  0.1607476E-006  0.2000479E+02  0.7818608E-02  0.1745233E+00
          2   -1    0    0  501    0  0.00000000000E+00  0.00000000000E+00  0.91593736268E+01  0.91593739958E+01  0.26000000000E-02 0.  1.
         -2   -1    0    0    0  501 -0.00000000000E+00 -0.00000000000E+00 -0.10923010671E+02  0.10923010981E+02  0.26000000000E-02 0. -1.
       1023    2    1    2    0    0  0.00000000000E+00  0.00000000000E+00 -0.17636370443E+01  0.20082384976E+02  0.20004793693E+02 0.  0.
        -13    1    3    3    0    0  0.98433726206E+01  0.17731632043E+01 -0.85568119427E+00  0.10038897105E+02  0.10570000000E+00 0.  1.
         13    1    3    3    0    0 -0.98433726206E+01 -0.17731632043E+01 -0.90795585003E+00  0.10043487871E+02  0.10570000000E+00 0. -1.
<mgrwt>
<rscale>  0 0.20004794E+02</rscale>
<asrwt>0</asrwt>
<pdfrwt beam="1">  1        2 0.14091345E-02 0.20004794E+02</pdfrwt>
<pdfrwt beam="2">  1       -2 0.16804632E-02 0.20004794E+02</pdfrwt>
<totfact> 0.39188945E+06</totfact>
</mgrwt>
</event>
<event>
 5    1  0.1607476E-006  0.2000311E+02  0.7818608E-02  0.1745266E+00
         -2   -1    0    0    0  501 -0.00000000000E+00  0.00000000000E+00  0.19165904641E+02  0.19165904817E+02  0.26000000000E-02 0. -1.
          2   -1    0    0  501    0  0.00000000000E+00 -0.00000000000E+00 -0.52192221035E+01  0.52192227512E+01  0.26000000000E-02 0.  1.
       1023    2    1    2    0    0  0.00000000000E+00  0.00000000000E+00  0.13946682538E+02  0.24385127569E+02  0.20003112076E+02 0.  0.
        -13    1    3    3    0    0 -0.61617021251E+01  0.78773618002E+01  0.69447858495E+01  0.12176231970E+02  0.10570000000E+00 0. -1.
         13    1    3    3    0    0  0.61617021251E+01 -0.78773618002E+01  0.70018966880E+01  0.12208895598E+02  0.10570000000E+00 0.  1.
<mgrwt>
<rscale>  0 0.20003112E+02</rscale>
<asrwt>0</asrwt>
<pdfrwt beam="2">  1        2 0.80295731E-03 0.20003112E+02</pdfrwt>
<pdfrwt beam="1">  1       -2 0.29486008E-02 0.20003112E+02</pdfrwt>
<totfact> 0.37553349E+06</totfact>
</mgrwt>
</event>
<event>
 5    1  0.1607476E-006  0.2000534E+02  0.7818608E-02  0.1745222E+00
         -2   -1    0    0    0  501 -0.00000000000E+00  0.00000000000E+00  0.64074368034E+01  0.64074373309E+01  0.26000000000E-02 0.  1.
          2   -1    0    0  501    0  0.00000000000E+00 -0.00000000000E+00 -0.15615198396E+02  0.15615198612E+02  0.26000000000E-02 0. -1.
       1023    2    1    2    0    0  0.00000000000E+00  0.00000000000E+00 -0.92077615922E+01  0.22022635943E+02  0.20005339796E+02 0.  0.
        -13    1    3    3    0    0  0.99283242329E+01  0.12121115611E+01 -0.45627488459E+01  0.10994120521E+02  0.10570000000E+00 0.  1.
         13    1    3    3    0    0 -0.99283242329E+01 -0.12121115611E+01 -0.46450127463E+01  0.11028515422E+02  0.10570000000E+00 0. -1.
<mgrwt>
<rscale>  0 0.20005340E+02</rscale>
<asrwt>0</asrwt>
<pdfrwt beam="2">  1        2 0.24023383E-02 0.20005340E+02</pdfrwt>
<pdfrwt beam="1">  1       -2 0.98575957E-03 0.20005340E+02</pdfrwt>
<totfact> 0.40795333E+06</totfact>
</mgrwt>
</event>
<event>
 5    1  0.1607476E-006  0.2001080E+02  0.7818608E-02  0.1745113E+00
          2   -1    0    0  501    0  0.00000000000E+00  0.00000000000E+00  0.26510620055E+02  0.26510620183E+02  0.26000000000E-02 0.  1.
         -2   -1    0    0    0  501 -0.00000000000E+00 -0.00000000000E+00 -0.37761465076E+01  0.37761474027E+01  0.26000000000E-02 0. -1.
       1023    2    1    2    0    0  0.00000000000E+00  0.00000000000E+00  0.22734473548E+02  0.30286767585E+02  0.20010797168E+02 0.  0.
        -13    1    3    3    0    0 -0.68067710312E+01  0.73303799002E+01  0.11104097352E+02  0.14945860693E+02  0.10570000000E+00 0.  1.
         13    1    3    3    0    0  0.68067710312E+01 -0.73303799002E+01  0.11630376195E+02  0.15340906892E+02  0.10570000000E+00 0. -1.
<mgrwt>
<rscale>  0 0.20010797E+02</rscale>
<asrwt>0</asrwt>
<pdfrwt beam="1">  1        2 0.40785570E-02 0.20010797E+02</pdfrwt>
<pdfrwt beam="2">  1       -2 0.58094570E-03 0.20010797E+02</pdfrwt>
<totfact> 0.42756919E+06</totfact>
</mgrwt>
</event>
<event>
 4    1  0.1607476E-006  0.2011440E+02  0.7818608E-02  0.1743063E+00
          2   -1    0    0  501    0  0.00000000000E+00  0.00000000000E+00  0.25088850544E+01  0.25088864016E+01  0.26000000000E-02 0.  1.
         -2   -1    0    0    0  501 -0.00000000000E+00 -0.00000000000E+00 -0.40315614064E+02  0.40315614148E+02  0.26000000000E-02 0. -1.
        -13    1    1    2    0    0  0.56683632480E+01  0.83033880599E+01 -0.18384014289E+02  0.20953752625E+02  0.10570000000E+00 0.  1.
         13    1    1    2    0    0 -0.56683632480E+01 -0.83033880599E+01 -0.19422714721E+02  0.21870747925E+02  0.10570000000E+00 0. -1.
<mgrwt>
<rscale>  0 0.20114400E+02</rscale>
<asrwt>0</asrwt>
<pdfrwt beam="1">  1        2 0.38598245E-03 0.20114400E+02</pdfrwt>
<pdfrwt beam="2">  1       -2 0.62024018E-02 0.20114400E+02</pdfrwt>
<totfact> 0.34454691E+06</totfact>
</mgrwt>
</event>
<event>
 5    1  0.1607476E-006  0.2000272E+02  0.7818608E-02  0.1745274E+00
          2   -1    0    0  501    0  0.00000000000E+00  0.00000000000E+00  0.97630339419E+00  0.97630685623E+00  0.26000000000E-02 0.  1.
         -2   -1    0    0    0  501 -0.00000000000E+00 -0.00000000000E+00 -0.10245482878E+03  0.10245482881E+03  0.26000000000E-02 0. -1.
       1023    2    1    2    0    0  0.00000000000E+00  0.00000000000E+00 -0.10147852538E+03  0.10343113567E+03  0.20002717599E+02 0.  0.
        -13    1    3    3    0    0  0.83027236821E+01 -0.55738458083E+01 -0.51329458776E+02  0.52294621984E+02  0.10570000000E+00 0.  1.
         13    1    3    3    0    0 -0.83027236821E+01  0.55738458083E+01 -0.50149066608E+02  0.51136513685E+02  0.10570000000E+00 0. -1.
<mgrwt>
<rscale>  0 0.20002718E+02</rscale>
<asrwt>0</asrwt>
<pdfrwt beam="1">  1        2 0.15020087E-03 0.20002718E+02</pdfrwt>
<pdfrwt beam="2">  1       -2 0.15762273E-01 0.20002718E+02</pdfrwt>
<totfact> 0.29544654E+06</totfact>
</mgrwt>
</event>
<event>
 5    1  0.1607476E-006  0.2000366E+02  0.7818608E-02  0.1745255E+00
         -2   -1    0    0    0  501 -0.00000000000E+00  0.00000000000E+00  0.25615663918E+01  0.25615677113E+01  0.26000000000E-02 0.  1.
          2   -1    0    0  501    0  0.00000000000E+00 -0.00000000000E+00 -0.39052901406E+02  0.39052901493E+02  0.26000000000E-02 0. -1.
       1023    2    1    2    0    0  0.00000000000E+00  0.00000000000E+00 -0.36491335014E+02  0.41614469204E+02  0.20003662565E+02 0.  0.
        -13    1    3    3    0    0 -0.11078504284E+01  0.99392068868E+01 -0.18456700810E+02  0.20992287712E+02  0.10570000000E+00 0.  1.
         13    1    3    3    0    0  0.11078504284E+01 -0.99392068868E+01 -0.18034634204E+02  0.20622181492E+02  0.10570000000E+00 0. -1.
<mgrwt>
<rscale>  0 0.20003663E+02</rscale>
<asrwt>0</asrwt>
<pdfrwt beam="2">  1        2 0.60081383E-02 0.20003663E+02</pdfrwt>
<pdfrwt beam="1">  1       -2 0.39408727E-03 0.20003663E+02</pdfrwt>
<totfact> 0.44738335E+06</totfact>
</mgrwt>
</event>
<event>
 5    1  0.1607476E-006  0.2000255E+02  0.7818608E-02  0.1745277E+00
         -2   -1    0    0    0  501 -0.00000000000E+00  0.00000000000E+00  0.19351685837E+02  0.19351686012E+02  0.26000000000E-02 0.  1.
          2   -1    0    0  501    0  0.00000000000E+00 -0.00000000000E+00 -0.51688240660E+01  0.51688247200E+01  0.26000000000E-02 0. -1.
       1023    2    1    2    0    0  0.00000000000E+00  0.00000000000E+00  0.14182861771E+02  0.24520510732E+02  0.20002546801E+02 0.  0.
        -13    1    3    3    0    0  0.26952648849E+00 -0.99969703356E+01  0.71494071895E+01  0.12293789329E+02  0.10570000000E+00 0. -1.
         13    1    3    3    0    0 -0.26952648849E+00  0.99969703356E+01  0.70334545818E+01  0.12226721403E+02  0.10570000000E+00 0.  1.
<mgrwt>
<rscale>  0 0.20002547E+02</rscale>
<asrwt>0</asrwt>
<pdfrwt beam="2">  1        2 0.79520376E-03 0.20002547E+02</pdfrwt>
<pdfrwt beam="1">  1       -2 0.29771825E-02 0.20002547E+02</pdfrwt>
<totfact> 0.37525890E+06</totfact>
</mgrwt>
</event>
<event>
 5    1  0.1607476E-006  0.2000310E+02  0.7818608E-02  0.1745266E+00
          2   -1    0    0  501    0  0.00000000000E+00  0.00000000000E+00  0.81769516763E+01  0.81769520897E+01  0.26000000000E-02 0. -1.
         -2   -1    0    0    0  501 -0.00000000000E+00 -0.00000000000E+00 -0.12233288960E+02  0.12233289237E+02  0.26000000000E-02 0.  1.
       1023    2    1    2    0    0  0.00000000000E+00  0.00000000000E+00 -0.40563372841E+01  0.20410241326E+02  0.20003101731E+02 0.  0.
        -13    1    3    3    0    0  0.21494443322E+01 -0.97671090388E+01 -0.20869370162E+01  0.10216800307E+02  0.10570000000E+00 0. -1.
         13    1    3    3    0    0 -0.21494443322E+01  0.97671090388E+01 -0.19694002679E+01  0.10193441019E+02  0.10570000000E+00 0.  1.
<mgrwt>
<rscale>  0 0.20003102E+02</rscale>
<asrwt>0</asrwt>
<pdfrwt beam="1">  1        2 0.12579926E-02 0.20003102E+02</pdfrwt>
<pdfrwt beam="2">  1       -2 0.18820445E-02 0.20003102E+02</pdfrwt>
<totfact> 0.38871811E+06</totfact>
</mgrwt>
</event>
<event>
 5    1  0.1607476E-006  0.2000230E+02  0.7818608E-02  0.1745282E+00
          2   -1    0    0  501    0  0.00000000000E+00  0.00000000000E+00  0.53824204583E+02  0.53824204646E+02  0.26000000000E-02 0. -1.
         -2   -1    0    0    0  501 -0.00000000000E+00 -0.00000000000E+00 -0.18583266173E+01  0.18583284361E+01  0.26000000000E-02 0.  1.
       1023    2    1    2    0    0  0.00000000000E+00  0.00000000000E+00  0.51965877966E+02  0.55682533082E+02  0.20002300310E+02 0.  0.
        -13    1    3    3    0    0  0.67620063584E+01  0.73678407525E+01  0.26108197348E+02  0.27958164257E+02  0.10570000000E+00 0.  1.
         13    1    3    3    0    0 -0.67620063584E+01 -0.73678407525E+01  0.25857680618E+02  0.27724368825E+02  0.10570000000E+00 0. -1.
<mgrwt>
<rscale>  0 0.20002300E+02</rscale>
<asrwt>0</asrwt>
<pdfrwt beam="1">  1        2 0.82806478E-02 0.20002300E+02</pdfrwt>
<pdfrwt beam="2">  1       -2 0.28589652E-03 0.20002300E+02</pdfrwt>
<totfact> 0.46846179E+06</totfact>
</mgrwt>
</event>
<event>
 4    1  0.1607476E-006  0.2005113E+02  0.7818608E-02  0.1744313E+00
         -2   -1    0    0    0  501 -0.00000000000E+00  0.00000000000E+00  0.92610936698E+01  0.92610940348E+01  0.26000000000E-02 0.  1.
          2   -1    0    0  501    0  0.00000000000E+00 -0.00000000000E+00 -0.10853140021E+02  0.10853140333E+02  0.26000000000E-02 0. -1.
        -13    1    1    2    0    0 -0.87122150436E+01  0.49103383912E+01 -0.14958336145E+01  0.10112507344E+02  0.10570000000E+00 0.  1.
         13    1    1    2    0    0  0.87122150436E+01 -0.49103383912E+01 -0.96212737042E-01  0.10001727024E+02  0.10570000000E+00 0. -1.
<mgrwt>
<rscale>  0 0.20051130E+02</rscale>
<asrwt>0</asrwt>
<pdfrwt beam="2">  1        2 0.16697139E-02 0.20051130E+02</pdfrwt>
<pdfrwt beam="1">  1       -2 0.14247837E-02 0.20051130E+02</pdfrwt>
<totfact> 0.39470929E+06</totfact>
</mgrwt>
</event>
<event>
 4    1  0.1607476E-006  0.2019444E+02  0.7818608E-02  0.1741489E+00
          2   -1    0    0  501    0  0.00000000000E+00  0.00000000000E+00  0.85277939777E+02  0.85277939817E+02  0.26000000000E-02 0. -1.
         -2   -1    0    0    0  501 -0.00000000000E+00 -0.00000000000E+00 -0.11955468465E+01  0.11955496736E+01  0.26000000000E-02 0.  1.
        -13    1    1    2    0    0  0.78160173909E+01 -0.63846280282E+01  0.43319517510E+02  0.44479718667E+02  0.10570000000E+00 0. -1.
         13    1    1    2    0    0 -0.78160173909E+01  0.63846280282E+01  0.40762875420E+02  0.41993770823E+02  0.10570000000E+00 0.  1.
<mgrwt>
<rscale>  0 0.20194444E+02</rscale>
<asrwt>0</asrwt>
<pdfrwt beam="1">  1        2 0.13119682E-01 0.20194444E+02</pdfrwt>
<pdfrwt beam="2">  1       -2 0.18393052E-03 0.20194444E+02</pdfrwt>
<totfact> 0.49880896E+06</totfact>
</mgrwt>
</event>
<event>
 5    1  0.1607476E-006  0.2000467E+02  0.7818608E-02  0.1745235E+00
         -2   -1    0    0    0  501 -0.00000000000E+00  0.00000000000E+00  0.22353241123E+01  0.22353256244E+01  0.26000000000E-02 0. -1.
          2   -1    0    0  501    0  0.00000000000E+00 -0.00000000000E+00 -0.44757115875E+02  0.44757115950E+02  0.26000000000E-02 0.  1.
       1023    2    1    2    0    0  0.00000000000E+00  0.00000000000E+00 -0.42521791762E+02  0.46992441575E+02  0.20004669216E+02 0.  0.
        -13    1    3    3    0    0 -0.90721876889E+01  0.42066665828E+01 -0.20822103489E+02  0.23099173132E+02  0.10570000000E+00 0.  1.
         13    1    3    3    0    0  0.90721876889E+01 -0.42066665828E+01 -0.21699688274E+02  0.23893268443E+02  0.10570000000E+00 0. -1.
<mgrwt>
<rscale>  0 0.20004669E+02</rscale>
<asrwt>0</asrwt>
<pdfrwt beam="2">  1        2 0.68857096E-02 0.20004669E+02</pdfrwt>
<pdfrwt beam="1">  1       -2 0.34389617E-03 0.20004669E+02</pdfrwt>
<totfact> 0.45562816E+06</totfact>
</mgrwt>
</event>
<event>
 5    1  0.1607476E-006  0.2000233E+02  0.7818608E-02  0.1745282E+00
         -2   -1    0    0    0  501 -0.00000000000E+00  0.00000000000E+00  0.14403574131E+02  0.14403574365E+02  0.26000000000E-02 0. -1.
          2   -1    0    0  501    0  0.00000000000E+00 -0.00000000000E+00 -0.69443416893E+01  0.69443421760E+01  0.26000000000E-02 0.  1.
       1023    2    1    2    0    0  0.00000000000E+00  0.00000000000E+00  0.74592324414E+01  0.21347916541E+02  0.20002334665E+02 0.  0.
        -13    1    3    3    0    0  0.61239810802E+01  0.79061343266E+01  0.36810435508E+01  0.10656986365E+02  0.10570000000E+00 0.  1.
         13    1    3    3    0    0 -0.61239810802E+01 -0.79061343266E+01  0.37781888906E+01  0.10690930177E+02  0.10570000000E+00 0. -1.
<mgrwt>
<rscale>  0 0.20002335E+02</rscale>
<asrwt>0</asrwt>
<pdfrwt beam="2">  1        2 0.10683603E-02 0.20002335E+02</pdfrwt>
<pdfrwt beam="1">  1       -2 0.22159345E-02 0.20002335E+02</pdfrwt>
<totfact> 0.38405751E+06</totfact>
</mgrwt>
</event>
<event>
 5    1  0.1607476E-006  0.2000175E+02  0.7818608E-02  0.1745293E+00
         -2   -1    0    0    0  501 -0.00000000000E+00  0.00000000000E+00  0.86755856622E+01  0.86755860518E+01  0.26000000000E-02 0.  1.
          2   -1    0    0  501    0  0.00000000000E+00 -0.00000000000E+00 -0.11528615963E+02  0.11528616256E+02  0.26000000000E-02 0. -1.
       1023    2    1    2    0    0  0.00000000000E+00  0.00000000000E+00 -0.28530303008E+01  0.20204202308E+02  0.20001750149E+02 0.  0.
        -13    1    3    3    0    0  0.74894335547E+01 -0.66264294005E+01 -0.14989922935E+01  0.10112335633E+02  0.10570000000E+00 0.  1.
         13    1    3    3    0    0 -0.74894335547E+01  0.66264294005E+01 -0.13540380073E+01  0.10091866675E+02  0.10570000000E+00 0. -1.
<mgrwt>
<rscale>  0 0.20001750E+02</rscale>
<asrwt>0</asrwt>
<pdfrwt beam="2">  1        2 0.17736333E-02 0.20001750E+02</pdfrwt>
<pdfrwt beam="1">  1       -2 0.13347055E-02 0.20001750E+02</pdfrwt>
<totfact> 0.39871377E+06</totfact>
</mgrwt>
</event>
<event>
 4    1  0.1607476E-006  0.2003192E+02  0.7818608E-02  0.1744694E+00
          2   -1    0    0  501    0  0.00000000000E+00  0.00000000000E+00  0.27466282023E+02  0.27466282146E+02  0.26000000000E-02 0. -1.
         -2   -1    0    0    0  501 -0.00000000000E+00 -0.00000000000E+00 -0.36524578012E+01  0.36524587266E+01  0.26000000000E-02 0.  1.
        -13    1    1    2    0    0  0.18279595370E+01 -0.98462652595E+01  0.11699049027E+02  0.15400301824E+02  0.10570000000E+00 0. -1.
         13    1    1    2    0    0 -0.18279595370E+01  0.98462652595E+01  0.12114775194E+02  0.15718439049E+02  0.10570000000E+00 0.  1.
<mgrwt>
<rscale>  0 0.20031920E+02</rscale>
<asrwt>0</asrwt>
<pdfrwt beam="1">  1        2 0.42255821E-02 0.20031920E+02</pdfrwt>
<pdfrwt beam="2">  1       -2 0.56191664E-03 0.20031920E+02</pdfrwt>
<totfact> 0.42812236E+06</totfact>
</mgrwt>
</event>
<event>
 5    1  0.1607476E-006  0.2000200E+02  0.7818608E-02  0.1745288E+00
         -2   -1    0    0    0  501 -0.00000000000E+00  0.00000000000E+00  0.64722719734E+01  0.64722724957E+01  0.26000000000E-02 0.  1.
          2   -1    0    0  501    0  0.00000000000E+00 -0.00000000000E+00 -0.15453611464E+02  0.15453611683E+02  0.26000000000E-02 0. -1.
       1023    2    1    2    0    0  0.00000000000E+00  0.00000000000E+00 -0.89813394908E+01  0.21925884179E+02  0.20001998349E+02 0.  0.
        -13    1    3    3    0    0  0.99989408940E+01  0.16732131199E+00 -0.45396506565E+01  0.10983005781E+02  0.10570000000E+00 0. -1.
         13    1    3    3    0    0 -0.99989408940E+01 -0.16732131199E+00 -0.44416888343E+01  0.10942878397E+02  0.10570000000E+00 0.  1.
<mgrwt>
<rscale>  0 0.20001998E+02</rscale>
<asrwt>0</asrwt>
<pdfrwt beam="2">  1        2 0.23774787E-02 0.20001998E+02</pdfrwt>
<pdfrwt beam="1">  1       -2 0.99573421E-03 0.20001998E+02</pdfrwt>
<totfact> 0.40776807E+06</totfact>
</mgrwt>
</event>
<event>
 5    1  0.1607476E-006  0.2000269E+02  0.7818608E-02  0.1745275E+00
          2   -1    0    0  501    0  0.00000000000E+00  0.00000000000E+00  0.22229301061E+01  0.22229316267E+01  0.26000000000E-02 0.  1.
         -2   -1    0    0    0  501 -0.00000000000E+00 -0.00000000000E+00 -0.44997733328E+02  0.44997733403E+02  0.26000000000E-02 0. -1.
       1023    2    1    2    0    0  0.00000000000E+00  0.00000000000E+00 -0.42774803222E+02  0.47220665030E+02  0.20002685199E+02 0.  0.
        -13    1    3    3    0    0 -0.82997905645E+01 -0.55793474910E+01 -0.21372571232E+02  0.23596898428E+02  0.10570000000E+00 0. -1.
         13    1    3    3    0    0  0.82997905645E+01  0.55793474910E+01 -0.21402231990E+02  0.23623766602E+02  0.10570000000E+00 0.  1.
<mgrwt>
<rscale>  0 0.20002685E+02</rscale>
<asrwt>0</asrwt>
<pdfrwt beam="1">  1        2 0.34198940E-03 0.20002685E+02</pdfrwt>
<pdfrwt beam="2">  1       -2 0.69227277E-02 0.20002685E+02</pdfrwt>
<totfact> 0.34387484E+06</totfact>
</mgrwt>
</event>
<event>
 5    1  0.1607476E-006  0.2000349E+02  0.7818608E-02  0.1745259E+00
         -2   -1    0    0    0  501 -0.00000000000E+00  0.00000000000E+00  0.58094072853E+01  0.58094078672E+01  0.26000000000E-02 0. -1.
          2   -1    0    0  501    0  0.00000000000E+00 -0.00000000000E+00 -0.17219469271E+02  0.17219469468E+02  0.26000000000E-02 0.  1.
       1023    2    1    2    0    0  0.00000000000E+00  0.00000000000E+00 -0.11410061986E+02  0.23028877335E+02  0.20003491615E+02 0.  0.
        -13    1    3    3    0    0 -0.70530268015E+01 -0.70893407253E+01 -0.58670568096E+01  0.11594717206E+02  0.10570000000E+00 0.  1.
         13    1    3    3    0    0  0.70530268015E+01  0.70893407253E+01 -0.55430051764E+01  0.11434160129E+02  0.10570000000E+00 0. -1.
<mgrwt>
<rscale>  0 0.20003492E+02</rscale>
<asrwt>0</asrwt>
<pdfrwt beam="2">  1        2 0.26491492E-02 0.20003492E+02</pdfrwt>
<pdfrwt beam="1">  1       -2 0.89375504E-03 0.20003492E+02</pdfrwt>
<totfact> 0.41130673E+06</totfact>
</mgrwt>
</event>
<event>
 5    1  0.1607476E-006  0.2000425E+02  0.7818608E-02  0.1745243E+00
          2   -1    0    0  501    0  0.00000000000E+00  0.00000000000E+00  0.85071132935E+02  0.85071132975E+02  0.26000000000E-02 0.  1.
         -2   -1    0    0    0  501 -0.00000000000E+00 -0.00000000000E+00 -0.11759855134E+01  0.11759883876E+01  0.26000000000E-02 0. -1.
       1023    2    1    2    0    0  0.00000000000E+00  0.00000000000E+00  0.83895147422E+02  0.86247121362E+02  0.20004254108E+02 0.  0.
        -13    1    3    3    0    0  0.63523221821E+01 -0.77238118868E+01  0.41306546041E+02  0.42500013947E+02  0.10570000000E+00 0. -1.
         13    1    3    3    0    0 -0.63523221821E+01  0.77238118868E+01  0.42588601381E+02  0.43747107416E+02  0.10570000000E+00 0.  1.
<mgrwt>
<rscale>  0 0.20004254E+02</rscale>
<asrwt>0</asrwt>
<pdfrwt beam="1">  1        2 0.13087872E-01 0.20004254E+02</pdfrwt>
<pdfrwt beam="2">  1       -2 0.18092101E-03 0.20004254E+02</pdfrwt>
<totfact> 0.50910812E+06</totfact>
</mgrwt>
</event>
<event>
 5    1  0.1607476E-006  0.2000715E+02  0.7818608E-02  0.1745186E+00
         -2   -1    0    0    0  501 -0.00000000000E+00  0.00000000000E+00  0.50724782597E+02  0.50724782663E+02  0.26000000000E-02 0.  1.
          2   -1    0    0  501    0  0.00000000000E+00 -0.00000000000E+00 -0.19728327799E+01  0.19728344932E+01  0.26000000000E-02 0. -1.
       1023    2    1    2    0    0  0.00000000000E+00  0.00000000000E+00  0.48751949817E+02  0.52697617156E+02  0.20007154796E+02 0.  0.
        -13    1    3    3    0    0 -0.53775571190E+01  0.84317401864E+01  0.23798756826E+02  0.25814808968E+02  0.10570000000E+00 0.  1.
         13    1    3    3    0    0  0.53775571190E+01 -0.84317401864E+01  0.24953192991E+02  0.26882808188E+02  0.10570000000E+00 0. -1.
<mgrwt>
<rscale>  0 0.20007155E+02</rscale>
<asrwt>0</asrwt>
<pdfrwt beam="2">  1        2 0.30351288E-03 0.20007155E+02</pdfrwt>
<pdfrwt beam="1">  1       -2 0.78038127E-02 0.20007155E+02</pdfrwt>
<totfact> 0.33801749E+06</totfact>
</mgrwt>
</event>
<event>
 5    1  0.1607476E-006  0.2000266E+02  0.7818608E-02  0.1745275E+00
          2   -1    0    0  501    0  0.00000000000E+00  0.00000000000E+00  0.70430975274E+02  0.70430975322E+02  0.26000000000E-02 0.  1.
         -2   -1    0    0    0  501 -0.00000000000E+00 -0.00000000000E+00 -0.14202067945E+01  0.14202091744E+01  0.26000000000E-02 0. -1.
       1023    2    1    2    0    0  0.00000000000E+00  0.00000000000E+00  0.69010768480E+02  0.71851184496E+02  0.20002663508E+02 0.  0.
        -13    1    3    3    0    0  0.94437158788E+01  0.32904721097E+01  0.34264740093E+02  0.35694461229E+02  0.10570000000E+00 0. -1.
         13    1    3    3    0    0 -0.94437158788E+01 -0.32904721097E+01  0.34746028386E+02  0.36156723267E+02  0.10570000000E+00 0.  1.
<mgrwt>
<rscale>  0 0.20002664E+02</rscale>
<asrwt>0</asrwt>
<pdfrwt beam="1">  1        2 0.10835534E-01 0.20002664E+02</pdfrwt>
<pdfrwt beam="2">  1       -2 0.21849356E-03 0.20002664E+02</pdfrwt>
<totfact> 0.49061335E+06</totfact>
</mgrwt>
</event>
<event>
 4    1  0.1607476E-006  0.2001802E+02  0.7818608E-02  0.1744970E+00
          2   -1    0    0  501    0  0.00000000000E+00  0.00000000000E+00  0.82318826002E+01  0.82318830108E+01  0.26000000000E-02 0.  1.
         -2   -1    0    0    0  501 -0.00000000000E+00 -0.00000000000E+00 -0.12169787350E+02  0.12169787628E+02  0.26000000000E-02 0. -1.
        -13    1    1    2    0    0  0.98526065826E+01 -0.17441424242E+01 -0.17338673584E+01  0.10155459506E+02  0.10570000000E+00 0.  1.
         13    1    1    2    0    0 -0.98526065826E+01  0.17441424242E+01 -0.22040373916E+01  0.10246211133E+02  0.10570000000E+00 0. -1.
<mgrwt>
<rscale>  0 0.20018019E+02</rscale>
<asrwt>0</asrwt>
<pdfrwt beam="1">  1        2 0.12664435E-02 0.20018019E+02</pdfrwt>
<pdfrwt beam="2">  1       -2 0.18722750E-02 0.20018019E+02</pdfrwt>
<totfact> 0.38824449E+06</totfact>
</mgrwt>
</event>
<event>
 4    1  0.1607476E-006  0.2001480E+02  0.7818608E-02  0.1745034E+00
          2   -1    0    0  501    0  0.00000000000E+00  0.00000000000E+00  0.18256015176E+01  0.18256033690E+01  0.26000000000E-02 0. -1.
         -2   -1    0    0    0  501 -0.00000000000E+00 -0.00000000000E+00 -0.54857535469E+02  0.54857535531E+02  0.26000000000E-02 0.  1.
        -13    1    1    2    0    0 -0.86937393479E+01 -0.49523285962E+01 -0.27008284466E+02  0.28802174652E+02  0.10570000000E+00 0.  1.
         13    1    1    2    0    0  0.86937393479E+01  0.49523285962E+01 -0.26023649485E+02  0.27880964248E+02  0.10570000000E+00 0. -1.
<mgrwt>
<rscale>  0 0.20014800E+02</rscale>
<asrwt>0</asrwt>
<pdfrwt beam="1">  1        2 0.28086196E-03 0.20014800E+02</pdfrwt>
<pdfrwt beam="2">  1       -2 0.84396197E-02 0.20014800E+02</pdfrwt>
<totfact> 0.33379998E+06</totfact>
</mgrwt>
</event>
<event>
 5    1  0.1607476E-006  0.2000397E+02  0.7818608E-02  0.1745249E+00
         -2   -1    0    0    0  501 -0.00000000000E+00  0.00000000000E+00  0.10804973966E+01  0.10805005248E+01  0.26000000000E-02 0.  1.
          2   -1    0    0  501    0  0.00000000000E+00 -0.00000000000E+00 -0.92586547138E+02  0.92586547174E+02  0.26000000000E-02 0. -1.
       1023    2    1    2    0    0  0.00000000000E+00  0.00000000000E+00 -0.91506049741E+02  0.93667047699E+02  0.20003966742E+02 0.  0.
        -13    1    3    3    0    0 -0.36578155553E+01 -0.93075811374E+01 -0.45128002807E+02  0.46222921707E+02  0.10570000000E+00 0. -1.
         13    1    3    3    0    0  0.36578155553E+01  0.93075811374E+01 -0.46378046934E+02  0.47444125992E+02  0.10570000000E+00 0.  1.
<mgrwt>
<rscale>  0 0.20003967E+02</rscale>
<asrwt>0</asrwt>
<pdfrwt beam="2">  1        2 0.14244078E-01 0.20003967E+02</pdfrwt>
<pdfrwt beam="1">  1       -2 0.16623068E-03 0.20003967E+02</pdfrwt>
<totfact> 0.51838878E+06</totfact>
</mgrwt>
</event>
<event>
 5    1  0.1672358E-006  0.2000124E+02  0.7818608E-02  0.1745303E+00
          2   -1    0    0  501    0  0.00000000000E+00  0.00000000000E+00  0.89119950286E+02  0.89119950324E+02  0.26000000000E-02 0.  1.
         -2   -1    0    0    0  501 -0.00000000000E+00 -0.00000000000E+00 -0.11222211643E+01  0.11222241762E+01  0.26000000000E-02 0. -1.
       1023    2    1    2    0    0  0.00000000000E+00  0.00000000000E+00  0.87997729122E+02  0.90242174500E+02  0.20001243159E+02 0.  0.
        -13    1    3    3    0    0  0.81329171783E+01  0.58186106355E+01  0.44117202965E+02  0.45236482418E+02  0.10570000000E+00 0. -1.
         13    1    3    3    0    0 -0.81329171783E+01 -0.58186106355E+01  0.43880526156E+02  0.45005692082E+02  0.10570000000E+00 0.  1.
<mgrwt>
<rscale>  0 0.20001243E+02</rscale>
<asrwt>0</asrwt>
<pdfrwt beam="1">  1        2 0.13710767E-01 0.20001243E+02</pdfrwt>
<pdfrwt beam="2">  1       -2 0.17264958E-03 0.20001243E+02</pdfrwt>
<totfact> 0.51429346E+06</totfact>
</mgrwt>
</event>
<event>
 5    1  0.1607476E-006  0.2000135E+02  0.7818608E-02  0.1745301E+00
         -2   -1    0    0    0  501 -0.00000000000E+00  0.00000000000E+00  0.15099703414E+01  0.15099725799E+01  0.26000000000E-02 0.  1.
          2   -1    0    0  501    0  0.00000000000E+00 -0.00000000000E+00 -0.66235372619E+02  0.66235372670E+02  0.26000000000E-02 0. -1.
       1023    2    1    2    0    0  0.00000000000E+00  0.00000000000E+00 -0.64725402278E+02  0.67745345250E+02  0.20001352530E+02 0.  0.
        -13    1    3    3    0    0 -0.99653340686E+01 -0.83334861457E+00 -0.32364411153E+02  0.33874306410E+02  0.10570000000E+00 0. -1.
         13    1    3    3    0    0  0.99653340686E+01  0.83334861457E+00 -0.32360991125E+02  0.33871038840E+02  0.10570000000E+00 0.  1.
<mgrwt>
<rscale>  0 0.20001353E+02</rscale>
<asrwt>0</asrwt>
<pdfrwt beam="2">  1        2 0.10190055E-01 0.20001353E+02</pdfrwt>
<pdfrwt beam="1">  1       -2 0.23230336E-03 0.20001353E+02</pdfrwt>
<totfact> 0.48520024E+06</totfact>
</mgrwt>
</event>
<event>
 5    1  0.1607476E-006  0.2000173E+02  0.7818608E-02  0.1745294E+00
         -2   -1    0    0    0  501 -0.00000000000E+00  0.00000000000E+00  0.16569482804E+02  0.16569483008E+02  0.26000000000E-02 0.  1.
          2   -1    0    0  501    0  0.00000000000E+00 -0.00000000000E+00 -0.60362369505E+01  0.60362375104E+01  0.26000000000E-02 0. -1.
       1023    2    1    2    0    0  0.00000000000E+00  0.00000000000E+00  0.10533245853E+02  0.22605720518E+02  0.20001733223E+02 0.  0.
        -13    1    3    3    0    0 -0.98025415530E+00  0.99521482533E+01  0.52635421376E+01  0.11301424750E+02  0.10570000000E+00 0. -1.
         13    1    3    3    0    0  0.98025415530E+00 -0.99521482533E+01  0.52697037156E+01  0.11304295768E+02  0.10570000000E+00 0.  1.
<mgrwt>
<rscale>  0 0.20001733E+02</rscale>
<asrwt>0</asrwt>
<pdfrwt beam="2">  1        2 0.92865190E-03 0.20001733E+02</pdfrwt>
<pdfrwt beam="1">  1       -2 0.25491512E-02 0.20001733E+02</pdfrwt>
<totfact> 0.37998298E+06</totfact>
</mgrwt>
</event>
<event>
 5    1  0.1607476E-006  0.2000226E+02  0.7818608E-02  0.1745283E+00
          2   -1    0    0  501    0  0.00000000000E+00  0.00000000000E+00  0.62529142064E+01  0.62529147469E+01  0.26000000000E-02 0. -1.
         -2   -1    0    0    0  501 -0.00000000000E+00 -0.00000000000E+00 -0.15996151841E+02  0.15996152053E+02  0.26000000000E-02 0.  1.
       1023    2    1    2    0    0  0.00000000000E+00  0.00000000000E+00 -0.97432376349E+01  0.22249066799E+02  0.20002257219E+02 0.  0.
        -13    1    3    3    0    0 -0.41316537366E+01 -0.91068334316E+01 -0.47824713165E+01  0.11085494221E+02  0.10570000000E+00 0. -1.
         13    1    3    3    0    0  0.41316537366E+01  0.91068334316E+01 -0.49607663184E+01  0.11163572578E+02  0.10570000000E+00 0.  1.
<mgrwt>
<rscale>  0 0.20002257E+02</rscale>
<asrwt>0</asrwt>
<pdfrwt beam="1">  1        2 0.96198686E-03 0.20002257E+02</pdfrwt>
<pdfrwt beam="2">  1       -2 0.24609465E-02 0.20002257E+02</pdfrwt>
<totfact> 0.38100172E+06</totfact>
</mgrwt>
</event>
<event>
 4    1  0.1607476E-006  0.2010149E+02  0.7818608E-02  0.1743317E+00
         -2   -1    0    0    0  501 -0.00000000000E+00  0.00000000000E+00  0.19516462824E+02  0.19516462997E+02  0.26000000000E-02 0. -1.
          2   -1    0    0  501    0  0.00000000000E+00 -0.00000000000E+00 -0.51760124984E+01  0.51760131514E+01  0.26000000000E-02 0.  1.
        -13    1    1    2    0    0 -0.78988245572E+01 -0.62136936921E+01  0.70844616314E+01  0.12296429879E+02  0.10570000000E+00 0. -1.
         13    1    1    2    0    0  0.78988245572E+01  0.62136936921E+01  0.72559886941E+01  0.12396046269E+02  0.10570000000E+00 0.  1.
<mgrwt>
<rscale>  0 0.20101489E+02</rscale>
<asrwt>0</asrwt>
<pdfrwt beam="2">  1        2 0.79630968E-03 0.20101489E+02</pdfrwt>
<pdfrwt beam="1">  1       -2 0.30025328E-02 0.20101489E+02</pdfrwt>
<totfact> 0.37100340E+06</totfact>
</mgrwt>
</event>
<event>
 4    1  0.1607476E-006  0.2001299E+02  0.7818608E-02  0.1745070E+00
         -2   -1    0    0    0  501 -0.00000000000E+00  0.00000000000E+00  0.20991556552E+01  0.20991572654E+01  0.26000000000E-02 0.  1.
          2   -1    0    0  501    0  0.00000000000E+00 -0.00000000000E+00 -0.47700087768E+02  0.47700087839E+02  0.26000000000E-02 0. -1.
        -13    1    1    2    0    0 -0.43021999849E+01 -0.90313848986E+01 -0.22278859445E+02  0.24421989857E+02  0.10570000000E+00 0. -1.
         13    1    1    2    0    0  0.43021999849E+01  0.90313848986E+01 -0.23322072668E+02  0.25377255248E+02  0.10570000000E+00 0.  1.
<mgrwt>
<rscale>  0 0.20012991E+02</rscale>
<asrwt>0</asrwt>
<pdfrwt beam="2">  1        2 0.73384743E-02 0.20012991E+02</pdfrwt>
<pdfrwt beam="1">  1       -2 0.32294719E-03 0.20012991E+02</pdfrwt>
<totfact> 0.45938531E+06</totfact>
</mgrwt>
</event>
<event>
 5    1  0.1607476E-006  0.2000229E+02  0.7818608E-02  0.1745283E+00
          2   -1    0    0  501    0  0.00000000000E+00  0.00000000000E+00  0.22559151279E+01  0.22559166261E+01  0.26000000000E-02 0. -1.
         -2   -1    0    0    0  501 -0.00000000000E+00 -0.00000000000E+00 -0.44338039008E+02  0.44338039084E+02  0.26000000000E-02 0.  1.
       1023    2    1    2    0    0  0.00000000000E+00  0.00000000000E+00 -0.42082123880E+02  0.46593955710E+02  0.20002288831E+02 0.  0.
        -13    1    3    3    0    0  0.99429854220E+01 -0.10671114680E+01 -0.21274367501E+02  0.23507691742E+02  0.10570000000E+00 0.  1.
         13    1    3    3    0    0 -0.99429854220E+01  0.10671114680E+01 -0.20807756379E+02  0.23086263968E+02  0.10570000000E+00 0. -1.
<mgrwt>
<rscale>  0 0.20002289E+02</rscale>
<asrwt>0</asrwt>
<pdfrwt beam="1">  1        2 0.34706402E-03 0.20002289E+02</pdfrwt>
<pdfrwt beam="2">  1       -2 0.68212363E-02 0.20002289E+02</pdfrwt>
<totfact> 0.34456482E+06</totfact>
</mgrwt>
</event>
<event>
 5    1  0.1607476E-006  0.2000166E+02  0.7818608E-02  0.1745295E+00
         -2   -1    0    0    0  501 -0.00000000000E+00  0.00000000000E+00  0.43530586850E+01  0.43530594614E+01  0.26000000000E-02 0.  1.
          2   -1    0    0  501    0  0.00000000000E+00 -0.00000000000E+00 -0.22976169030E+02  0.22976169177E+02  0.26000000000E-02 0. -1.
       1023    2    1    2    0    0  0.00000000000E+00  0.00000000000E+00 -0.18623110345E+02  0.27329228638E+02  0.20001662407E+02 0.  0.
        -13    1    3    3    0    0  0.77665047246E+01 -0.62995135472E+01 -0.93862145986E+01  0.13715489913E+02  0.10570000000E+00 0.  1.
         13    1    3    3    0    0 -0.77665047246E+01  0.62995135472E+01 -0.92368957461E+01  0.13613738725E+02  0.10570000000E+00 0. -1.
<mgrwt>
<rscale>  0 0.20001662E+02</rscale>
<asrwt>0</asrwt>
<pdfrwt beam="2">  1        2 0.35347952E-02 0.20001662E+02</pdfrwt>
<pdfrwt beam="1">  1       -2 0.66970142E-03 0.20001662E+02</pdfrwt>
<totfact> 0.42202273E+06</totfact>
</mgrwt>
</event>
<event>
 5    1  0.1607476E-006  0.2000840E+02  0.7818608E-02  0.1745161E+00
          2   -1    0    0  501    0  0.00000000000E+00  0.00000000000E+00  0.22380882711E+01  0.22380897813E+01  0.26000000000E-02 0. -1.
         -2   -1    0    0    0  501 -0.00000000000E+00 -0.00000000000E+00 -0.44718503420E+02  0.44718503495E+02  0.26000000000E-02 0.  1.
       1023    2    1    2    0    0  0.00000000000E+00  0.00000000000E+00 -0.42480415149E+02  0.46956593277E+02  0.20008397760E+02 0.  0.
        -13    1    3    3    0    0 -0.88080521760E+01  0.47424716147E+01 -0.21243986694E+02  0.23481715511E+02  0.10570000000E+00 0. -1.
         13    1    3    3    0    0  0.88080521760E+01 -0.47424716147E+01 -0.21236428454E+02  0.23474877766E+02  0.10570000000E+00 0.  1.
<mgrwt>
<rscale>  0 0.20008398E+02</rscale>
<asrwt>0</asrwt>
<pdfrwt beam="1">  1        2 0.34432143E-03 0.20008398E+02</pdfrwt>
<pdfrwt beam="2">  1       -2 0.68797692E-02 0.20008398E+02</pdfrwt>
<totfact> 0.34394544E+06</totfact>
</mgrwt>
</event>
<event>
 5    1  0.1607476E-006  0.2000286E+02  0.7818608E-02  0.1745271E+00
         -2   -1    0    0    0  501 -0.00000000000E+00  0.00000000000E+00  0.25313811462E+01  0.25313824814E+01  0.26000000000E-02 0.  1.
          2   -1    0    0  501    0  0.00000000000E+00 -0.00000000000E+00 -0.39515394324E+02  0.39515394409E+02  0.26000000000E-02 0. -1.
       1023    2    1    2    0    0  0.00000000000E+00  0.00000000000E+00 -0.36984013178E+02  0.42046776891E+02  0.20002855201E+02 0.  0.
        -13    1    3    3    0    0 -0.55959735049E+01 -0.82886299476E+01 -0.18560948289E+02  0.21084029021E+02  0.10570000000E+00 0.  1.
         13    1    3    3    0    0  0.55959735049E+01  0.82886299476E+01 -0.18423064889E+02  0.20962747870E+02  0.10570000000E+00 0. -1.
<mgrwt>
<rscale>  0 0.20002855E+02</rscale>
<asrwt>0</asrwt>
<pdfrwt beam="2">  1        2 0.60792911E-02 0.20002855E+02</pdfrwt>
<pdfrwt beam="1">  1       -2 0.38944339E-03 0.20002855E+02</pdfrwt>
<totfact> 0.44810656E+06</totfact>
</mgrwt>
</event>
<event>
 5    1  0.1607476E-006  0.2000786E+02  0.7818608E-02  0.1745172E+00
          2   -1    0    0  501    0  0.00000000000E+00  0.00000000000E+00  0.12210669330E+02  0.12210669607E+02  0.26000000000E-02 0. -1.
         -2   -1    0    0    0  501 -0.00000000000E+00 -0.00000000000E+00 -0.81959991119E+01  0.81959995243E+01  0.26000000000E-02 0.  1.
       1023    2    1    2    0    0  0.00000000000E+00  0.00000000000E+00  0.40146702185E+01  0.20406669132E+02  0.20007862657E+02 0.  0.
        -13    1    3    3    0    0  0.46137644512E+01 -0.88758388423E+01  0.20190517291E+01  0.10205639614E+02  0.10570000000E+00 0. -1.
         13    1    3    3    0    0 -0.46137644512E+01  0.88758388423E+01  0.19956184894E+01  0.10201029517E+02  0.10570000000E+00 0.  1.
<mgrwt>
<rscale>  0 0.20007863E+02</rscale>
<asrwt>0</asrwt>
<pdfrwt beam="1">  1        2 0.18785646E-02 0.20007863E+02</pdfrwt>
<pdfrwt beam="2">  1       -2 0.12609230E-02 0.20007863E+02</pdfrwt>
<totfact> 0.40015183E+06</totfact>
</mgrwt>
</event>
<event>
 5    1  0.1729307E-006  0.2000139E+02  0.7818608E-02  0.1745300E+00
         -2   -1    0    0    0  501 -0.00000000000E+00  0.00000000000E+00  0.18121433635E+01  0.18121452287E+01  0.26000000000E-02 0.  1.
          2   -1    0    0  501    0  0.00000000000E+00 -0.00000000000E+00 -0.55190912616E+02  0.55190912677E+02  0.26000000000E-02 0. -1.
       1023    2    1    2    0    0  0.00000000000E+00  0.00000000000E+00 -0.53378769252E+02  0.57003057906E+02  0.20001390044E+02 0.  0.
        -13    1    3    3    0    0 -0.75215016946E+01  0.65901161195E+01 -0.26719306095E+02  0.28529547997E+02  0.10570000000E+00 0.  1.
         13    1    3    3    0    0  0.75215016946E+01 -0.65901161195E+01 -0.26659463157E+02  0.28473509909E+02  0.10570000000E+00 0. -1.
<mgrwt>
<rscale>  0 0.20001390E+02</rscale>
<asrwt>0</asrwt>
<pdfrwt beam="2">  1        2 0.84909085E-02 0.20001390E+02</pdfrwt>
<pdfrwt beam="1">  1       -2 0.27879148E-03 0.20001390E+02</pdfrwt>
<totfact> 0.47038322E+06</totfact>
</mgrwt>
</event>
<event>
 5    1  0.1607476E-006  0.2000191E+02  0.7818608E-02  0.1745290E+00
         -2   -1    0    0    0  501 -0.00000000000E+00  0.00000000000E+00  0.16619582819E+01  0.16619603157E+01  0.26000000000E-02 0. -1.
          2   -1    0    0  501    0  0.00000000000E+00 -0.00000000000E+00 -0.60181443398E+02  0.60181443455E+02  0.26000000000E-02 0.  1.
       1023    2    1    2    0    0  0.00000000000E+00  0.00000000000E+00 -0.58519485116E+02  0.61843403770E+02  0.20001911198E+02 0.  0.
        -13    1    3    3    0    0  0.59175468053E+01 -0.80613685851E+01 -0.29042941743E+02  0.30716553538E+02  0.10570000000E+00 0.  1.
         13    1    3    3    0    0 -0.59175468053E+01  0.80613685851E+01 -0.29476543373E+02  0.31126850232E+02  0.10570000000E+00 0. -1.
<mgrwt>
<rscale>  0 0.20001911E+02</rscale>
<asrwt>0</asrwt>
<pdfrwt beam="2">  1        2 0.92586821E-02 0.20001911E+02</pdfrwt>
<pdfrwt beam="1">  1       -2 0.25568610E-03 0.20001911E+02</pdfrwt>
<totfact> 0.47711995E+06</totfact>
</mgrwt>
</event>
<event>
 5    1  0.1607476E-006  0.2000436E+02  0.7818608E-02  0.1745241E+00
         -2   -1    0    0    0  501 -0.00000000000E+00  0.00000000000E+00  0.11591343155E+02  0.11591343447E+02  0.26000000000E-02 0.  1.
          2   -1    0    0  501    0  0.00000000000E+00 -0.00000000000E+00 -0.86308933267E+01  0.86308937183E+01  0.26000000000E-02 0. -1.
       1023    2    1    2    0    0  0.00000000000E+00  0.00000000000E+00  0.29604498287E+01  0.20222237165E+02  0.20004364843E+02 0.  0.
        -13    1    3    3    0    0 -0.99512565869E+01 -0.10022198410E+01  0.15034630282E+01  0.10114520544E+02  0.10570000000E+00 0.  1.
         13    1    3    3    0    0  0.99512565869E+01  0.10022198410E+01  0.14569868005E+01  0.10107716621E+02  0.10570000000E+00 0. -1.
<mgrwt>
<rscale>  0 0.20004365E+02</rscale>
<asrwt>0</asrwt>
<pdfrwt beam="2">  1        2 0.13278298E-02 0.20004365E+02</pdfrwt>
<pdfrwt beam="1">  1       -2 0.17832836E-02 0.20004365E+02</pdfrwt>
<totfact> 0.39020691E+06</totfact>
</mgrwt>
</event>
<event>
 5    1  0.1607476E-006  0.2000123E+02  0.7818608E-02  0.1745304E+00
         -2   -1    0    0    0  501 -0.00000000000E+00  0.00000000000E+00  0.15253033795E+01  0.15253055955E+01  0.26000000000E-02 0. -1.
          2   -1    0    0  501    0  0.00000000000E+00 -0.00000000000E+00 -0.65568768350E+02  0.65568768402E+02  0.26000000000E-02 0.  1.
       1023    2    1    2    0    0  0.00000000000E+00  0.00000000000E+00 -0.64043464971E+02  0.67094073997E+02  0.20001233964E+02 0.  0.
        -13    1    3    3    0    0 -0.99950082541E+01  0.31731636280E+00 -0.32078646346E+02  0.33601363120E+02  0.10570000000E+00 0.  1.
         13    1    3    3    0    0  0.99950082541E+01 -0.31731636280E+00 -0.31964818625E+02  0.33492710877E+02  0.10570000000E+00 0. -1.
<mgrwt>
<rscale>  0 0.20001234E+02</rscale>
<asrwt>0</asrwt>
<pdfrwt beam="2">  1        2 0.10087501E-01 0.20001234E+02</pdfrwt>
<pdfrwt beam="1">  1       -2 0.23466228E-03 0.20001234E+02</pdfrwt>
<totfact> 0.48432828E+06</totfact>
</mgrwt>
</event>
<event>
 4    1  0.1607476E-006  0.2001338E+02  0.7818608E-02  0.1745062E+00
         -2   -1    0    0    0  501 -0.00000000000E+00  0.00000000000E+00  0.12428031350E+01  0.12428058546E+01  0.26000000000E-02 0.  1.
          2   -1    0    0  501    0  0.00000000000E+00 -0.00000000000E+00 -0.80570853093E+02  0.80570853135E+02  0.26000000000E-02 0. -1.
        -13    1    1    2    0    0 -0.78863462057E+01 -0.61560954019E+01 -0.40380083938E+02  0.41601133619E+02  0.10570000000E+00 0. -1.
         13    1    1    2    0    0  0.78863462057E+01  0.61560954019E+01 -0.38947966020E+02  0.40212525370E+02  0.10570000000E+00 0.  1.
<mgrwt>
<rscale>  0 0.20013378E+02</rscale>
<asrwt>0</asrwt>
<pdfrwt beam="2">  1        2 0.12395512E-01 0.20013378E+02</pdfrwt>
<pdfrwt beam="1">  1       -2 0.19120076E-03 0.20013378E+02</pdfrwt>
<totfact> 0.50297021E+06</totfact>
</mgrwt>
</event>
<event>
 4    1  0.1607476E-006  0.2036988E+02  0.7818608E-02  0.1738071E+00
          2   -1    0    0  501    0  0.00000000000E+00  0.00000000000E+00  0.45098433890E+02  0.45098433965E+02  0.26000000000E-02 0.  1.
         -2   -1    0    0    0  501 -0.00000000000E+00 -0.00000000000E+00 -0.23001451186E+01  0.23001465880E+01  0.26000000000E-02 0. -1.
        -13    1    1    2    0    0 -0.96484444804E+01 -0.30423092339E+01  0.24126361742E+02  0.26161816255E+02  0.10570000000E+00 0.  1.
         13    1    1    2    0    0  0.96484444804E+01  0.30423092339E+01  0.18671927029E+02  0.21236764298E+02  0.10570000000E+00 0. -1.
<mgrwt>
<rscale>  0 0.20369878E+02</rscale>
<asrwt>0</asrwt>
<pdfrwt beam="1">  1        2 0.69382198E-02 0.20369878E+02</pdfrwt>
<pdfrwt beam="2">  1       -2 0.35386865E-03 0.20369878E+02</pdfrwt>
<totfact> 0.43804322E+06</totfact>
</mgrwt>
</event>
<event>
 4    1  0.1607476E-006  0.2002548E+02  0.7818608E-02  0.1744822E+00
          2   -1    0    0  501    0  0.00000000000E+00  0.00000000000E+00  0.99762828381E+01  0.99762831769E+01  0.26000000000E-02 0.  1.
         -2   -1    0    0    0  501 -0.00000000000E+00 -0.00000000000E+00 -0.10049331090E+02  0.10049331426E+02  0.26000000000E-02 0. -1.
        -13    1    1    2    0    0  0.45253352797E+01  0.89229610383E+01  0.34546071131E+00  0.10011413920E+02  0.10570000000E+00 0. -1.
         13    1    1    2    0    0 -0.45253352797E+01 -0.89229610383E+01 -0.41850896331E+00  0.10014200683E+02  0.10570000000E+00 0.  1.
<mgrwt>
<rscale>  0 0.20025481E+02</rscale>
<asrwt>0</asrwt>
<pdfrwt beam="1">  1        2 0.15348128E-02 0.20025481E+02</pdfrwt>
<pdfrwt beam="2">  1       -2 0.15460510E-02 0.20025481E+02</pdfrwt>
<totfact> 0.39341695E+06</totfact>
</mgrwt>
</event>
<event>
 4    1  0.1607476E-006  0.2001343E+02  0.7818608E-02  0.1745061E+00
          2   -1    0    0  501    0  0.00000000000E+00  0.00000000000E+00  0.24647756158E+01  0.24647769872E+01  0.26000000000E-02 0.  1.
         -2   -1    0    0    0  501 -0.00000000000E+00 -0.00000000000E+00 -0.40626146702E+02  0.40626146785E+02  0.26000000000E-02 0. -1.
        -13    1    1    2    0    0  0.99627522942E+01 -0.88239060083E+00 -0.18441435381E+02  0.20979341216E+02  0.10570000000E+00 0.  1.
         13    1    1    2    0    0 -0.99627522942E+01  0.88239060083E+00 -0.19719935705E+02  0.22111582556E+02  0.10570000000E+00 0. -1.
<mgrwt>
<rscale>  0 0.20013432E+02</rscale>
<asrwt>0</asrwt>
<pdfrwt beam="1">  1        2 0.37919639E-03 0.20013432E+02</pdfrwt>
<pdfrwt beam="2">  1       -2 0.62501760E-02 0.20013432E+02</pdfrwt>
<totfact> 0.34802427E+06</totfact>
</mgrwt>
</event>
<event>
 5    1  0.1607476E-006  0.2000638E+02  0.7818608E-02  0.1745201E+00
          2   -1    0    0  501    0  0.00000000000E+00  0.00000000000E+00  0.70256860522E+02  0.70256860570E+02  0.26000000000E-02 0. -1.
         -2   -1    0    0    0  501 -0.00000000000E+00 -0.00000000000E+00 -0.14242548881E+01  0.14242572613E+01  0.26000000000E-02 0.  1.
       1023    2    1    2    0    0  0.00000000000E+00  0.00000000000E+00  0.68832605634E+02  0.71681117832E+02  0.20006375364E+02 0.  0.
        -13    1    3    3    0    0 -0.64016652754E+01  0.76857220136E+01  0.34526744044E+02  0.35946611356E+02  0.10570000000E+00 0. -1.
         13    1    3    3    0    0  0.64016652754E+01 -0.76857220136E+01  0.34305861590E+02  0.35734506476E+02  0.10570000000E+00 0.  1.
<mgrwt>
<rscale>  0 0.20006375E+02</rscale>
<asrwt>0</asrwt>
<pdfrwt beam="1">  1        2 0.10808748E-01 0.20006375E+02</pdfrwt>
<pdfrwt beam="2">  1       -2 0.21911631E-03 0.20006375E+02</pdfrwt>
<totfact> 0.49018554E+06</totfact>
</mgrwt>
</event>
<event>
 4    1  0.1607476E-006  0.2002526E+02  0.7818608E-02  0.1744826E+00
          2   -1    0    0  501    0  0.00000000000E+00  0.00000000000E+00  0.36287405078E+02  0.36287405171E+02  0.26000000000E-02 0.  1.
         -2   -1    0    0    0  501 -0.00000000000E+00 -0.00000000000E+00 -0.27627428882E+01  0.27627441116E+01  0.26000000000E-02 0. -1.
        -13    1    1    2    0    0 -0.95465466304E+01  0.30094886910E+01  0.16334880795E+02  0.19158107365E+02  0.10570000000E+00 0. -1.
         13    1    1    2    0    0  0.95465466304E+01 -0.30094886910E+01  0.17189781395E+02  0.19892041917E+02  0.10570000000E+00 0.  1.
<mgrwt>
<rscale>  0 0.20025264E+02</rscale>
<asrwt>0</asrwt>
<pdfrwt beam="1">  1        2 0.55826781E-02 0.20025264E+02</pdfrwt>
<pdfrwt beam="2">  1       -2 0.42503744E-03 0.20025264E+02</pdfrwt>
<totfact> 0.44218906E+06</totfact>
</mgrwt>
</event>
<event>
 5    1  0.1607476E-006  0.2001227E+02  0.7818608E-02  0.1745084E+00
          2   -1    0    0  501    0  0.00000000000E+00  0.00000000000E+00  0.17923118170E+02  0.17923118359E+02  0.26000000000E-02 0. -1.
         -2   -1    0    0    0  501 -0.00000000000E+00 -0.00000000000E+00 -0.55862326776E+01  0.55862332827E+01  0.26000000000E-02 0.  1.
       1023    2    1    2    0    0  0.00000000000E+00  0.00000000000E+00  0.12336885493E+02  0.23509351642E+02  0.20012268011E+02 0.  0.
        -13    1    3    3    0    0 -0.99798553364E+01  0.71305945444E+00  0.60806982948E+01  0.11708630601E+02  0.10570000000E+00 0. -1.
         13    1    3    3    0    0  0.99798553364E+01 -0.71305945444E+00  0.62561871979E+01  0.11800721040E+02  0.10570000000E+00 0.  1.
<mgrwt>
<rscale>  0 0.20012268E+02</rscale>
<asrwt>0</asrwt>
<pdfrwt beam="1">  1        2 0.27574029E-02 0.20012268E+02</pdfrwt>
<pdfrwt beam="2">  1       -2 0.85942046E-03 0.20012268E+02</pdfrwt>
<totfact> 0.41228020E+06</totfact>
</mgrwt>
</event>
<event>
 5    1  0.1607476E-006  0.2000213E+02  0.7818608E-02  0.1745286E+00
         -2   -1    0    0    0  501 -0.00000000000E+00  0.00000000000E+00  0.13577673472E+02  0.13577673721E+02  0.26000000000E-02 0.  1.
          2   -1    0    0  501    0  0.00000000000E+00 -0.00000000000E+00 -0.73666035373E+01  0.73666039961E+01  0.26000000000E-02 0. -1.
       1023    2    1    2    0    0  0.00000000000E+00  0.00000000000E+00  0.62110699347E+01  0.20944277717E+02  0.20002134370E+02 0.  0.
        -13    1    3    3    0    0  0.53999493962E+01  0.84171443674E+01  0.30542422927E+01  0.10456927907E+02  0.10570000000E+00 0. -1.
         13    1    3    3    0    0 -0.53999493962E+01 -0.84171443674E+01  0.31568276420E+01  0.10487349810E+02  0.10570000000E+00 0.  1.
<mgrwt>
<rscale>  0 0.20002134E+02</rscale>
<asrwt>0</asrwt>
<pdfrwt beam="2">  1        2 0.11333237E-02 0.20002134E+02</pdfrwt>
<pdfrwt beam="1">  1       -2 0.20888729E-02 0.20002134E+02</pdfrwt>
<totfact> 0.38576968E+06</totfact>
</mgrwt>
</event>
<event>
 5    1  0.1607476E-006  0.2001148E+02  0.7818608E-02  0.1745100E+00
          2   -1    0    0  501    0  0.00000000000E+00  0.00000000000E+00  0.22339978090E+02  0.22339978241E+02  0.26000000000E-02 0. -1.
         -2   -1    0    0    0  501 -0.00000000000E+00 -0.00000000000E+00 -0.44814189525E+01  0.44814197067E+01  0.26000000000E-02 0.  1.
       1023    2    1    2    0    0  0.00000000000E+00  0.00000000000E+00  0.17858559137E+02  0.26821397948E+02  0.20011478042E+02 0.  0.
        -13    1    3    3    0    0  0.70395120753E+01 -0.71055584671E+01  0.86011125496E+01  0.13192194699E+02  0.10570000000E+00 0.  1.
         13    1    3    3    0    0 -0.70395120753E+01  0.71055584671E+01  0.92574465875E+01  0.13629203249E+02  0.10570000000E+00 0. -1.
<mgrwt>
<rscale>  0 0.20011478E+02</rscale>
<asrwt>0</asrwt>
<pdfrwt beam="1">  1        2 0.34369197E-02 0.20011478E+02</pdfrwt>
<pdfrwt beam="2">  1       -2 0.68944915E-03 0.20011478E+02</pdfrwt>
<totfact> 0.42044577E+06</totfact>
</mgrwt>
</event>
<event>
 5    1  0.1607476E-006  0.2000218E+02  0.7818608E-02  0.1745285E+00
         -2   -1    0    0    0  501 -0.00000000000E+00  0.00000000000E+00  0.21278774816E+01  0.21278790700E+01  0.26000000000E-02 0. -1.
          2   -1    0    0  501    0  0.00000000000E+00 -0.00000000000E+00 -0.47005423053E+02  0.47005423125E+02  0.26000000000E-02 0.  1.
       1023    2    1    2    0    0  0.00000000000E+00  0.00000000000E+00 -0.44877545572E+02  0.49133302195E+02  0.20002182083E+02 0.  0.
        -13    1    3    3    0    0 -0.96841947078E+01 -0.24949981472E+01 -0.22328737302E+02  0.24466146506E+02  0.10570000000E+00 0. -1.
         13    1    3    3    0    0  0.96841947078E+01  0.24949981472E+01 -0.22548808270E+02  0.24667155689E+02  0.10570000000E+00 0.  1.
<mgrwt>
<rscale>  0 0.20002182E+02</rscale>
<asrwt>0</asrwt>
<pdfrwt beam="2">  1        2 0.72316029E-02 0.20002182E+02</pdfrwt>
<pdfrwt beam="1">  1       -2 0.32736593E-03 0.20002182E+02</pdfrwt>
<totfact> 0.45895646E+06</totfact>
</mgrwt>
</event>
<event>
 5    1  0.1607476E-006  0.2000158E+02  0.7818608E-02  0.1745297E+00
          2   -1    0    0  501    0  0.00000000000E+00  0.00000000000E+00  0.60783208750E+01  0.60783214311E+01  0.26000000000E-02 0. -1.
         -2   -1    0    0    0  501 -0.00000000000E+00 -0.00000000000E+00 -0.16454506246E+02  0.16454506451E+02  0.26000000000E-02 0.  1.
       1023    2    1    2    0    0  0.00000000000E+00  0.00000000000E+00 -0.10376185371E+02  0.22532827882E+02  0.20001577676E+02 0.  0.
        -13    1    3    3    0    0  0.73968773639E+01 -0.67297621105E+01 -0.52256609560E+01  0.11283713827E+02  0.10570000000E+00 0.  1.
         13    1    3    3    0    0 -0.73968773639E+01  0.67297621105E+01 -0.51505244146E+01  0.11249114056E+02  0.10570000000E+00 0. -1.
<mgrwt>
<rscale>  0 0.20001578E+02</rscale>
<asrwt>0</asrwt>
<pdfrwt beam="1">  1        2 0.93512635E-03 0.20001578E+02</pdfrwt>
<pdfrwt beam="2">  1       -2 0.25314625E-02 0.20001578E+02</pdfrwt>
<totfact> 0.38019570E+06</totfact>
</mgrwt>
</event>
<event>
 4    1  0.1607476E-006  0.2003367E+02  0.7818608E-02  0.1744659E+00
          2   -1    0    0  501    0  0.00000000000E+00  0.00000000000E+00  0.10387574426E+01  0.10387606965E+01  0.26000000000E-02 0. -1.
         -2   -1    0    0    0  501 -0.00000000000E+00 -0.00000000000E+00 -0.96593076363E+02  0.96593076398E+02  0.26000000000E-02 0.  1.
        -13    1    1    2    0    0  0.79222090823E+01 -0.61187559641E+01 -0.46052821628E+02  0.47128273081E+02  0.10570000000E+00 0. -1.
         13    1    1    2    0    0 -0.79222090823E+01  0.61187559641E+01 -0.49501497293E+02  0.50503564013E+02  0.10570000000E+00 0.  1.
<mgrwt>
<rscale>  0 0.20033665E+02</rscale>
<asrwt>0</asrwt>
<pdfrwt beam="1">  1        2 0.15980917E-03 0.20033665E+02</pdfrwt>
<pdfrwt beam="2">  1       -2 0.14860466E-01 0.20033665E+02</pdfrwt>
<totfact> 0.29870511E+06</totfact>
</mgrwt>
</event>
<event>
 5    1  0.1607476E-006  0.2000304E+02  0.7818608E-02  0.1745268E+00
          2   -1    0    0  501    0  0.00000000000E+00  0.00000000000E+00  0.16682953338E+01  0.16682973599E+01  0.26000000000E-02 0.  1.
         -2   -1    0    0    0  501 -0.00000000000E+00 -0.00000000000E+00 -0.59959628228E+02  0.59959628284E+02  0.26000000000E-02 0. -1.
       1023    2    1    2    0    0  0.00000000000E+00  0.00000000000E+00 -0.58291332894E+02  0.61627925644E+02  0.20003042984E+02 0.  0.
        -13    1    3    3    0    0  0.58897392878E+00  0.99835072069E+01 -0.29009503752E+02  0.30685172101E+02  0.10570000000E+00 0. -1.
         13    1    3    3    0    0 -0.58897392878E+00 -0.99835072069E+01 -0.29281829142E+02  0.30942753543E+02  0.10570000000E+00 0.  1.
<mgrwt>
<rscale>  0 0.20003043E+02</rscale>
<asrwt>0</asrwt>
<pdfrwt beam="1">  1        2 0.25666103E-03 0.20003043E+02</pdfrwt>
<pdfrwt beam="2">  1       -2 0.92245567E-02 0.20003043E+02</pdfrwt>
<totfact> 0.32952681E+06</totfact>
</mgrwt>
</event>
<event>
 5    1  0.1607476E-006  0.2000485E+02  0.7818608E-02  0.1745232E+00
         -2   -1    0    0    0  501 -0.00000000000E+00  0.00000000000E+00  0.10719491379E+01  0.10719522910E+01  0.26000000000E-02 0. -1.
          2   -1    0    0  501    0  0.00000000000E+00 -0.00000000000E+00 -0.93333099567E+02  0.93333099603E+02  0.26000000000E-02 0.  1.
       1023    2    1    2    0    0  0.00000000000E+00  0.00000000000E+00 -0.92261150429E+02  0.94405051894E+02  0.20004848029E+02 0.  0.
        -13    1    3    3    0    0  0.10000901401E+02 -0.13875096972E+00 -0.46103464973E+02  0.47176031369E+02  0.10570000000E+00 0.  1.
         13    1    3    3    0    0 -0.10000901401E+02  0.13875096972E+00 -0.46157685456E+02  0.47229020526E+02  0.10570000000E+00 0. -1.
<mgrwt>
<rscale>  0 0.20004848E+02</rscale>
<asrwt>0</asrwt>
<pdfrwt beam="2">  1        2 0.14358932E-01 0.20004848E+02</pdfrwt>
<pdfrwt beam="1">  1       -2 0.16491557E-03 0.20004848E+02</pdfrwt>
<totfact> 0.51924844E+06</totfact>
</mgrwt>
</event>
<event>
 5    1  0.1607476E-006  0.2000119E+02  0.7818608E-02  0.1745304E+00
          2   -1    0    0  501    0  0.00000000000E+00  0.00000000000E+00  0.20401034621E+01  0.20401051189E+01  0.26000000000E-02 0. -1.
         -2   -1    0    0    0  501 -0.00000000000E+00 -0.00000000000E+00 -0.49022953154E+02  0.49022953222E+02  0.26000000000E-02 0.  1.
       1023    2    1    2    0    0  0.00000000000E+00  0.00000000000E+00 -0.46982849691E+02  0.51063058341E+02  0.20001194016E+02 0.  0.
        -13    1    3    3    0    0  0.86922489347E+01 -0.49441774855E+01 -0.23424583417E+02  0.25470028726E+02  0.10570000000E+00 0.  1.
         13    1    3    3    0    0 -0.86922489347E+01  0.49441774855E+01 -0.23558266274E+02  0.25593029615E+02  0.10570000000E+00 0. -1.
<mgrwt>
<rscale>  0 0.20001194E+02</rscale>
<asrwt>0</asrwt>
<pdfrwt beam="1">  1        2 0.31386224E-03 0.20001194E+02</pdfrwt>
<pdfrwt beam="2">  1       -2 0.75419920E-02 0.20001194E+02</pdfrwt>
<totfact> 0.33989963E+06</totfact>
</mgrwt>
</event>
<event>
 5    1  0.1607476E-006  0.2000274E+02  0.7818608E-02  0.1745274E+00
          2   -1    0    0  501    0  0.00000000000E+00  0.00000000000E+00  0.41400140937E+02  0.41400141019E+02  0.26000000000E-02 0. -1.
         -2   -1    0    0    0  501 -0.00000000000E+00 -0.00000000000E+00 -0.24161118273E+01  0.24161132263E+01  0.26000000000E-02 0.  1.
       1023    2    1    2    0    0  0.00000000000E+00  0.00000000000E+00  0.38984029110E+02  0.43816254245E+02  0.20002740073E+02 0.  0.
        -13    1    3    3    0    0 -0.79570482645E+01  0.60579647989E+01  0.19605319969E+02  0.22008936779E+02  0.10570000000E+00 0. -1.
         13    1    3    3    0    0  0.79570482645E+01 -0.60579647989E+01  0.19378709141E+02  0.21807317466E+02  0.10570000000E+00 0.  1.
<mgrwt>
<rscale>  0 0.20002740E+02</rscale>
<asrwt>0</asrwt>
<pdfrwt beam="1">  1        2 0.63692514E-02 0.20002740E+02</pdfrwt>
<pdfrwt beam="2">  1       -2 0.37170969E-03 0.20002740E+02</pdfrwt>
<totfact> 0.45087582E+06</totfact>
</mgrwt>
</event>
<event>
 5    1  0.1607476E-006  0.2000196E+02  0.7818608E-02  0.1745289E+00
         -2   -1    0    0    0  501 -0.00000000000E+00  0.00000000000E+00  0.15624221075E+02  0.15624221292E+02  0.26000000000E-02 0. -1.
          2   -1    0    0  501    0  0.00000000000E+00 -0.00000000000E+00 -0.64015720869E+01  0.64015726149E+01  0.26000000000E-02 0.  1.
       1023    2    1    2    0    0  0.00000000000E+00  0.00000000000E+00  0.92226489883E+01  0.22025793907E+02  0.20001958475E+02 0.  0.
        -13    1    3    3    0    0 -0.95654268334E+01 -0.29173341057E+01  0.46262791924E+01  0.11019158790E+02  0.10570000000E+00 0.  1.
         13    1    3    3    0    0  0.95654268334E+01  0.29173341057E+01  0.45963697959E+01  0.11006635116E+02  0.10570000000E+00 0. -1.
<mgrwt>
<rscale>  0 0.20001958E+02</rscale>
<asrwt>0</asrwt>
<pdfrwt beam="2">  1        2 0.98485730E-03 0.20001958E+02</pdfrwt>
<pdfrwt beam="1">  1       -2 0.24037264E-02 0.20001958E+02</pdfrwt>
<totfact> 0.38170481E+06</totfact>
</mgrwt>
</event>
<event>
 5    1  0.1607476E-006  0.2000900E+02  0.7818608E-02  0.1745149E+00
         -2   -1    0    0    0  501 -0.00000000000E+00  0.00000000000E+00  0.16699505751E+01  0.16699525991E+01  0.26000000000E-02 0. -1.
          2   -1    0    0  501    0  0.00000000000E+00 -0.00000000000E+00 -0.59935849667E+02  0.59935849724E+02  0.26000000000E-02 0.  1.
       1023    2    1    2    0    0  0.00000000000E+00  0.00000000000E+00 -0.58265899092E+02  0.61605802323E+02  0.20008995048E+02 0.  0.
        -13    1    3    3    0    0 -0.21432268927E+01  0.97710706006E+01 -0.28801970504E+02  0.30489865850E+02  0.10570000000E+00 0.  1.
         13    1    3    3    0    0  0.21432268927E+01 -0.97710706006E+01 -0.29463928589E+02  0.31115936472E+02  0.10570000000E+00 0. -1.
<mgrwt>
<rscale>  0 0.20008995E+02</rscale>
<asrwt>0</asrwt>
<pdfrwt beam="2">  1        2 0.92208985E-02 0.20008995E+02</pdfrwt>
<pdfrwt beam="1">  1       -2 0.25691568E-03 0.20008995E+02</pdfrwt>
<totfact> 0.47641475E+06</totfact>
</mgrwt>
</event>
<event>
 5    1  0.1607476E-006  0.2000513E+02  0.7818608E-02  0.1745226E+00
         -2   -1    0    0    0  501 -0.00000000000E+00  0.00000000000E+00  0.22002898710E+02  0.22002898864E+02  0.26000000000E-02 0. -1.
          2   -1    0    0  501    0  0.00000000000E+00 -0.00000000000E+00 -0.45471859753E+01  0.45471867187E+01  0.26000000000E-02 0.  1.
       1023    2    1    2    0    0  0.00000000000E+00  0.00000000000E+00  0.17455712735E+02  0.26550085582E+02  0.20005127776E+02 0.  0.
        -13    1    3    3    0    0  0.31145623415E+01  0.95040475843E+01  0.88773776587E+01  0.13373347586E+02  0.10570000000E+00 0.  1.
         13    1    3    3    0    0 -0.31145623415E+01 -0.95040475843E+01  0.85783350761E+01  0.13176737997E+02  0.10570000000E+00 0. -1.
<mgrwt>
<rscale>  0 0.20005128E+02</rscale>
<asrwt>0</asrwt>
<pdfrwt beam="2">  1        2 0.69956715E-03 0.20005128E+02</pdfrwt>
<pdfrwt beam="1">  1       -2 0.33850614E-02 0.20005128E+02</pdfrwt>
<totfact> 0.37110458E+06</totfact>
</mgrwt>
</event>
<event>
 5    1  0.1607476E-006  0.2000683E+02  0.7818608E-02  0.1745192E+00
         -2   -1    0    0    0  501 -0.00000000000E+00  0.00000000000E+00  0.65993242585E+02  0.65993242636E+02  0.26000000000E-02 0. -1.
          2   -1    0    0  501    0  0.00000000000E+00 -0.00000000000E+00 -0.15163403658E+01  0.15163425949E+01  0.26000000000E-02 0.  1.
       1023    2    1    2    0    0  0.00000000000E+00  0.00000000000E+00  0.64476902219E+02  0.67509585231E+02  0.20006828292E+02 0.  0.
        -13    1    3    3    0    0  0.77135652949E+01 -0.63671030807E+01  0.32691552818E+02  0.34187539972E+02  0.10570000000E+00 0.  1.
         13    1    3    3    0    0 -0.77135652949E+01  0.63671030807E+01  0.31785349401E+02  0.33322045259E+02  0.10570000000E+00 0. -1.
<mgrwt>
<rscale>  0 0.20006828E+02</rscale>
<asrwt>0</asrwt>
<pdfrwt beam="2">  1        2 0.23328334E-03 0.20006828E+02</pdfrwt>
<pdfrwt beam="1">  1       -2 0.10152806E-01 0.20006828E+02</pdfrwt>
<totfact> 0.32403577E+06</totfact>
</mgrwt>
</event>
<event>
 4    1  0.1607476E-006  0.2001240E+02  0.7818608E-02  0.1745082E+00
          2   -1    0    0  501    0  0.00000000000E+00  0.00000000000E+00  0.72869201143E+02  0.72869201189E+02  0.26000000000E-02 0.  1.
         -2   -1    0    0    0  501 -0.00000000000E+00 -0.00000000000E+00 -0.13740229435E+01  0.13740254034E+01  0.26000000000E-02 0. -1.
        -13    1    1    2    0    0 -0.61067161557E+01 -0.79233049561E+01  0.34986107644E+02  0.36388317413E+02  0.10570000000E+00 0. -1.
         13    1    1    2    0    0  0.61067161557E+01  0.79233049561E+01  0.36509070556E+02  0.37854909179E+02  0.10570000000E+00 0.  1.
<mgrwt>
<rscale>  0 0.20012401E+02</rscale>
<asrwt>0</asrwt>
<pdfrwt beam="1">  1        2 0.11210646E-01 0.20012401E+02</pdfrwt>
<pdfrwt beam="2">  1       -2 0.21138834E-03 0.20012401E+02</pdfrwt>
<totfact> 0.49323288E+06</totfact>
</mgrwt>
</event>
<event>
 5    1  0.1607476E-006  0.2000371E+02  0.7818608E-02  0.1745254E+00
          2   -1    0    0  501    0  0.00000000000E+00  0.00000000000E+00  0.90469859087E+00  0.90470232691E+00  0.26000000000E-02 0. -1.
         -2   -1    0    0    0  501 -0.00000000000E+00 -0.00000000000E+00 -0.11057480423E+03  0.11057480426E+03  0.26000000000E-02 0.  1.
       1023    2    1    2    0    0  0.00000000000E+00  0.00000000000E+00 -0.10967010564E+03  0.11147950659E+03  0.20003707609E+02 0.  0.
        -13    1    3    3    0    0  0.98788789407E+01 -0.15584185071E+01 -0.54441393722E+02  0.55352483596E+02  0.10570000000E+00 0.  1.
         13    1    3    3    0    0 -0.98788789407E+01  0.15584185071E+01 -0.55228711919E+02  0.56127022993E+02  0.10570000000E+00 0. -1.
<mgrwt>
<rscale>  0 0.20003708E+02</rscale>
<asrwt>0</asrwt>
<pdfrwt beam="1">  1        2 0.13918478E-03 0.20003708E+02</pdfrwt>
<pdfrwt beam="2">  1       -2 0.17011498E-01 0.20003708E+02</pdfrwt>
<totfact> 0.28968794E+06</totfact>
</mgrwt>
</event>
<event>
 5    1  0.1607476E-006  0.2001125E+02  0.7818608E-02  0.1745105E+00
         -2   -1    0    0    0  501 -0.00000000000E+00  0.00000000000E+00  0.20117201791E+01  0.20117218592E+01  0.26000000000E-02 0. -1.
          2   -1    0    0  501    0  0.00000000000E+00 -0.00000000000E+00 -0.49764602292E+02  0.49764602360E+02  0.26000000000E-02 0.  1.
       1023    2    1    2    0    0  0.00000000000E+00  0.00000000000E+00 -0.47752882113E+02  0.51776324219E+02  0.20011246827E+02 0.  0.
        -13    1    3    3    0    0  0.85593902493E+01  0.51725953030E+01 -0.24619260659E+02  0.26573258579E+02  0.10570000000E+00 0. -1.
         13    1    3    3    0    0 -0.85593902493E+01 -0.51725953030E+01 -0.23133621454E+02  0.25203065641E+02  0.10570000000E+00 0.  1.
<mgrwt>
<rscale>  0 0.20011247E+02</rscale>
<asrwt>0</asrwt>
<pdfrwt beam="2">  1        2 0.76560919E-02 0.20011247E+02</pdfrwt>
<pdfrwt beam="1">  1       -2 0.30949558E-03 0.20011247E+02</pdfrwt>
<totfact> 0.46237263E+06</totfact>
</mgrwt>
</event>
<event>
 5    1  0.1607476E-006  0.2000183E+02  0.7818608E-02  0.1745292E+00
         -2   -1    0    0    0  501 -0.00000000000E+00  0.00000000000E+00  0.28393241398E+02  0.28393241517E+02  0.26000000000E-02 0.  1.
          2   -1    0    0  501    0  0.00000000000E+00 -0.00000000000E+00 -0.35226088560E+01  0.35226098155E+01  0.26000000000E-02 0. -1.
       1023    2    1    2    0    0  0.00000000000E+00  0.00000000000E+00  0.24870632542E+02  0.31915851332E+02  0.20001829997E+02 0.  0.
        -13    1    3    3    0    0  0.17768469728E+01  0.98410311492E+01  0.12536851003E+02  0.16037047259E+02  0.10570000000E+00 0.  1.
         13    1    3    3    0    0 -0.17768469728E+01 -0.98410311492E+01  0.12333781539E+02  0.15878804073E+02  0.10570000000E+00 0. -1.
<mgrwt>
<rscale>  0 0.20001830E+02</rscale>
<asrwt>0</asrwt>
<pdfrwt beam="2">  1        2 0.54193988E-03 0.20001830E+02</pdfrwt>
<pdfrwt beam="1">  1       -2 0.43681913E-02 0.20001830E+02</pdfrwt>
<totfact> 0.36257603E+06</totfact>
</mgrwt>
</event>
<event>
 4    1  0.1607476E-006  0.2002832E+02  0.7818608E-02  0.1744765E+00
         -2   -1    0    0    0  501 -0.00000000000E+00  0.00000000000E+00  0.12087649279E+01  0.12087677241E+01  0.26000000000E-02 0.  1.
          2   -1    0    0  501    0  0.00000000000E+00 -0.00000000000E+00 -0.82963431008E+02  0.82963431049E+02  0.26000000000E-02 0. -1.
        -13    1    1    2    0    0 -0.45548599488E+01  0.89094556258E+01 -0.39265549485E+02  0.40520608306E+02  0.10570000000E+00 0. -1.
         13    1    1    2    0    0  0.45548599488E+01 -0.89094556258E+01 -0.42489116596E+02  0.43651590467E+02  0.10570000000E+00 0.  1.
<mgrwt>
<rscale>  0 0.20028320E+02</rscale>
<asrwt>0</asrwt>
<pdfrwt beam="2">  1        2 0.12763601E-01 0.20028320E+02</pdfrwt>
<pdfrwt beam="1">  1       -2 0.18596412E-03 0.20028320E+02</pdfrwt>
<totfact> 0.50513291E+06</totfact>
</mgrwt>
</event>
<event>
 5    1  0.1607476E-006  0.2000569E+02  0.7818608E-02  0.1745215E+00
          2   -1    0    0  501    0  0.00000000000E+00  0.00000000000E+00  0.23455478801E+01  0.23455493212E+01  0.26000000000E-02 0.  1.
         -2   -1    0    0    0  501 -0.00000000000E+00 -0.00000000000E+00 -0.42658229573E+02  0.42658229653E+02  0.26000000000E-02 0. -1.
       1023    2    1    2    0    0  0.00000000000E+00  0.00000000000E+00 -0.40312681693E+02  0.45003778974E+02  0.20005694605E+02 0.  0.
        -13    1    3    3    0    0  0.78508100217E+01 -0.61962377861E+01 -0.19861307060E+02  0.22237609389E+02  0.10570000000E+00 0. -1.
         13    1    3    3    0    0 -0.78508100217E+01  0.61962377861E+01 -0.20451374633E+02  0.22766169585E+02  0.10570000000E+00 0.  1.
<mgrwt>
<rscale>  0 0.20005695E+02</rscale>
<asrwt>0</asrwt>
<pdfrwt beam="1">  1        2 0.36085367E-03 0.20005695E+02</pdfrwt>
<pdfrwt beam="2">  1       -2 0.65628041E-02 0.20005695E+02</pdfrwt>
<totfact> 0.34617501E+06</totfact>
</mgrwt>
</event>
<event>
 5    1  0.1607476E-006  0.2000681E+02  0.7818608E-02  0.1745193E+00
          2   -1    0    0  501    0  0.00000000000E+00  0.00000000000E+00  0.47527399234E+02  0.47527399305E+02  0.26000000000E-02 0.  1.
         -2   -1    0    0    0  501 -0.00000000000E+00 -0.00000000000E+00 -0.21054816714E+01  0.21054832767E+01  0.26000000000E-02 0. -1.
       1023    2    1    2    0    0  0.00000000000E+00  0.00000000000E+00  0.45421917562E+02  0.49632882581E+02  0.20006809799E+02 0.  0.
        -13    1    3    3    0    0  0.99994822168E+01 -0.11827871242E+00  0.23283709941E+02  0.25340598958E+02  0.10570000000E+00 0.  1.
         13    1    3    3    0    0 -0.99994822168E+01  0.11827871242E+00  0.22138207621E+02  0.24292283623E+02  0.10570000000E+00 0. -1.
<mgrwt>
<rscale>  0 0.20006810E+02</rscale>
<asrwt>0</asrwt>
<pdfrwt beam="1">  1        2 0.73119078E-02 0.20006810E+02</pdfrwt>
<pdfrwt beam="2">  1       -2 0.32392038E-03 0.20006810E+02</pdfrwt>
<totfact> 0.45945792E+06</totfact>
</mgrwt>
</event>
<event>
 4    1  0.1607476E-006  0.2012624E+02  0.7818608E-02  0.1742829E+00
         -2   -1    0    0    0  501 -0.00000000000E+00  0.00000000000E+00  0.17780186001E+02  0.17780186192E+02  0.26000000000E-02 0.  1.
          2   -1    0    0  501    0  0.00000000000E+00 -0.00000000000E+00 -0.56954622870E+01  0.56954628804E+01  0.26000000000E-02 0. -1.
        -13    1    1    2    0    0  0.98529713925E+00 -0.99862071840E+01  0.51694376072E+01  0.11288463227E+02  0.10570000000E+00 0. -1.
         13    1    1    2    0    0 -0.98529713925E+00  0.99862071840E+01  0.69152861073E+01  0.12187185845E+02  0.10570000000E+00 0.  1.
<mgrwt>
<rscale>  0 0.20126240E+02</rscale>
<asrwt>0</asrwt>
<pdfrwt beam="2">  1        2 0.87622504E-03 0.20126240E+02</pdfrwt>
<pdfrwt beam="1">  1       -2 0.27354133E-02 0.20126240E+02</pdfrwt>
<totfact> 0.37282871E+06</totfact>
</mgrwt>
</event>
<event>
 5    1  0.1607476E-006  0.2001067E+02  0.7818608E-02  0.1745116E+00
         -2   -1    0    0    0  501 -0.00000000000E+00  0.00000000000E+00  0.20298464397E+02  0.20298464564E+02  0.26000000000E-02 0.  1.
          2   -1    0    0  501    0  0.00000000000E+00 -0.00000000000E+00 -0.49317380876E+01  0.49317387730E+01  0.26000000000E-02 0. -1.
       1023    2    1    2    0    0  0.00000000000E+00  0.00000000000E+00  0.15366726310E+02  0.25230203337E+02  0.20010669228E+02 0.  0.
        -13    1    3    3    0    0  0.27859349575E+01  0.96062981473E+01  0.79740417644E+01  0.12792142597E+02  0.10570000000E+00 0. -1.
         13    1    3    3    0    0 -0.27859349575E+01 -0.96062981473E+01  0.73926845453E+01  0.12438060739E+02  0.10570000000E+00 0.  1.
<mgrwt>
<rscale>  0 0.20010669E+02</rscale>
<asrwt>0</asrwt>
<pdfrwt beam="2">  1        2 0.75872902E-03 0.20010669E+02</pdfrwt>
<pdfrwt beam="1">  1       -2 0.31228407E-02 0.20010669E+02</pdfrwt>
<totfact> 0.37344299E+06</totfact>
</mgrwt>
</event>
<event>
 4    1  0.1607476E-006  0.2135686E+02  0.7818608E-02  0.1719618E+00
          2   -1    0    0  501    0  0.00000000000E+00  0.00000000000E+00  0.89933807726E+01  0.89933811485E+01  0.26000000000E-02 0.  1.
         -2   -1    0    0    0  501 -0.00000000000E+00 -0.00000000000E+00 -0.12679194735E+02  0.12679195001E+02  0.26000000000E-02 0. -1.
        -13    1    1    2    0    0  0.90468379499E+01  0.56377049870E+01 -0.24755541778E+01  0.10943881185E+02  0.10570000000E+00 0. -1.
         13    1    1    2    0    0 -0.90468379499E+01 -0.56377049870E+01 -0.12102597842E+01  0.10728694965E+02  0.10570000000E+00 0.  1.
<mgrwt>
<rscale>  0 0.21356857E+02</rscale>
<asrwt>0</asrwt>
<pdfrwt beam="1">  1        2 0.13835971E-02 0.21356857E+02</pdfrwt>
<pdfrwt beam="2">  1       -2 0.19506454E-02 0.21356857E+02</pdfrwt>
<totfact> 0.33649841E+06</totfact>
</mgrwt>
</event>
<event>
 5    1  0.1607476E-006  0.2000211E+02  0.7818608E-02  0.1745286E+00
         -2   -1    0    0    0  501 -0.00000000000E+00  0.00000000000E+00  0.11214867600E+03  0.11214867603E+03  0.26000000000E-02 0.  1.
          2   -1    0    0  501    0  0.00000000000E+00 -0.00000000000E+00 -0.89186012064E+00  0.89186391047E+00  0.26000000000E-02 0. -1.
       1023    2    1    2    0    0  0.00000000000E+00  0.00000000000E+00  0.11125681588E+03  0.11304053994E+03  0.20002114650E+02 0.  0.
        -13    1    3    3    0    0 -0.99961010196E+01 -0.28851034633E+00  0.55240911447E+02  0.56138887981E+02  0.10570000000E+00 0. -1.
         13    1    3    3    0    0  0.99961010196E+01  0.28851034633E+00  0.56015904434E+02  0.56901651961E+02  0.10570000000E+00 0.  1.
<mgrwt>
<rscale>  0 0.20002115E+02</rscale>
<asrwt>0</asrwt>
<pdfrwt beam="2">  1        2 0.13720965E-03 0.20002115E+02</pdfrwt>
<pdfrwt beam="1">  1       -2 0.17253629E-01 0.20002115E+02</pdfrwt>
<totfact> 0.28865220E+06</totfact>
</mgrwt>
</event>
<event>
 4    1  0.1607476E-006  0.2001362E+02  0.7818608E-02  0.1745057E+00
          2   -1    0    0  501    0  0.00000000000E+00  0.00000000000E+00  0.55320400426E+01  0.55320406536E+01  0.26000000000E-02 0.  1.
         -2   -1    0    0    0  501 -0.00000000000E+00 -0.00000000000E+00 -0.18101136506E+02  0.18101136693E+02  0.26000000000E-02 0. -1.
        -13    1    1    2    0    0  0.40903118193E+01  0.91311612147E+01 -0.64352772884E+01  0.11896752590E+02  0.10570000000E+00 0.  1.
         13    1    1    2    0    0 -0.40903118193E+01 -0.91311612147E+01 -0.61338191750E+01  0.11736424757E+02  0.10570000000E+00 0. -1.
<mgrwt>
<rscale>  0 0.20013618E+02</rscale>
<asrwt>0</asrwt>
<pdfrwt beam="1">  1        2 0.85108315E-03 0.20013618E+02</pdfrwt>
<pdfrwt beam="2">  1       -2 0.27847903E-02 0.20013618E+02</pdfrwt>
<totfact> 0.37684934E+06</totfact>
</mgrwt>
</event>
<event>
 4    1  0.1607476E-006  0.2004706E+02  0.7818608E-02  0.1744394E+00
         -2   -1    0    0    0  501 -0.00000000000E+00  0.00000000000E+00  0.97341659421E+01  0.97341662894E+01  0.26000000000E-02 0.  1.
          2   -1    0    0  501    0  0.00000000000E+00 -0.00000000000E+00 -0.10321492361E+02  0.10321492689E+02  0.26000000000E-02 0. -1.
        -13    1    1    2    0    0  0.57804247189E+01  0.81719526886E+01 -0.80947440339E+00  0.10042934928E+02  0.10570000000E+00 0. -1.
         13    1    1    2    0    0 -0.57804247189E+01 -0.81719526886E+01  0.22214798446E+00  0.10012724050E+02  0.10570000000E+00 0.  1.
<mgrwt>
<rscale>  0 0.20047057E+02</rscale>
<asrwt>0</asrwt>
<pdfrwt beam="2">  1        2 0.15879220E-02 0.20047057E+02</pdfrwt>
<pdfrwt beam="1">  1       -2 0.14975640E-02 0.20047057E+02</pdfrwt>
<totfact> 0.39343236E+06</totfact>
</mgrwt>
</event>
<event>
 4    1  0.1607476E-006  0.2028342E+02  0.7818608E-02  0.1739750E+00
         -2   -1    0    0    0  501 -0.00000000000E+00  0.00000000000E+00  0.16512688486E+01  0.16512708955E+01  0.26000000000E-02 0.  1.
          2   -1    0    0  501    0  0.00000000000E+00 -0.00000000000E+00 -0.62287980743E+02  0.62287980797E+02  0.26000000000E-02 0. -1.
        -13    1    1    2    0    0  0.83060183201E+01  0.57210098968E+01 -0.33659193769E+02  0.35137905348E+02  0.10570000000E+00 0. -1.
         13    1    1    2    0    0 -0.83060183201E+01 -0.57210098968E+01 -0.26977518126E+02  0.28801346345E+02  0.10570000000E+00 0.  1.
<mgrwt>
<rscale>  0 0.20283419E+02</rscale>
<asrwt>0</asrwt>
<pdfrwt beam="2">  1        2 0.95827646E-02 0.20283419E+02</pdfrwt>
<pdfrwt beam="1">  1       -2 0.25404157E-03 0.20283419E+02</pdfrwt>
<totfact> 0.46525262E+06</totfact>
</mgrwt>
</event>
<event>
 5    1  0.1607476E-006  0.2000221E+02  0.7818608E-02  0.1745284E+00
          2   -1    0    0  501    0  0.00000000000E+00  0.00000000000E+00  0.26553681858E+02  0.26553681985E+02  0.26000000000E-02 0. -1.
         -2   -1    0    0    0  501 -0.00000000000E+00 -0.00000000000E+00 -0.37667894673E+01  0.37667903646E+01  0.26000000000E-02 0.  1.
       1023    2    1    2    0    0  0.00000000000E+00  0.00000000000E+00  0.22786892391E+02  0.30320472350E+02  0.20002214345E+02 0.  0.
        -13    1    3    3    0    0  0.47045723423E+01 -0.88246495992E+01  0.11303374358E+02  0.15092544048E+02  0.10570000000E+00 0. -1.
         13    1    3    3    0    0 -0.47045723423E+01  0.88246495992E+01  0.11483518033E+02  0.15227928302E+02  0.10570000000E+00 0.  1.
<mgrwt>
<rscale>  0 0.20002214E+02</rscale>
<asrwt>0</asrwt>
<pdfrwt beam="1">  1        2 0.40851818E-02 0.20002214E+02</pdfrwt>
<pdfrwt beam="2">  1       -2 0.57950616E-03 0.20002214E+02</pdfrwt>
<totfact> 0.42805234E+06</totfact>
</mgrwt>
</event>
<event>
 4    1  0.1607476E-006  0.2006197E+02  0.7818608E-02  0.1744099E+00
          2   -1    0    0  501    0  0.00000000000E+00  0.00000000000E+00  0.43354524708E+02  0.43354524786E+02  0.26000000000E-02 0. -1.
         -2   -1    0    0    0  501 -0.00000000000E+00 -0.00000000000E+00 -0.23208795256E+01  0.23208809819E+01  0.26000000000E-02 0.  1.
        -13    1    1    2    0    0  0.89002506556E+00 -0.99769760301E+01  0.19317929092E+02  0.21760646871E+02  0.10570000000E+00 0.  1.
         13    1    1    2    0    0 -0.89002506556E+00  0.99769760301E+01  0.21715716091E+02  0.23914758898E+02  0.10570000000E+00 0. -1.
<mgrwt>
<rscale>  0 0.20061970E+02</rscale>
<asrwt>0</asrwt>
<pdfrwt beam="1">  1        2 0.66699267E-02 0.20061970E+02</pdfrwt>
<pdfrwt beam="2">  1       -2 0.35705852E-03 0.20061970E+02</pdfrwt>
<totfact> 0.45072611E+06</totfact>
</mgrwt>
</event>
<event>
 5    1  0.1607476E-006  0.2000450E+02  0.7818608E-02  0.1745239E+00
         -2   -1    0    0    0  501 -0.00000000000E+00  0.00000000000E+00  0.89053971299E+02  0.89053971337E+02  0.26000000000E-02 0.  1.
          2   -1    0    0  501    0  0.00000000000E+00 -0.00000000000E+00 -0.11234182173E+01  0.11234212260E+01  0.26000000000E-02 0. -1.
       1023    2    1    2    0    0  0.00000000000E+00  0.00000000000E+00  0.87930553082E+02  0.90177392563E+02  0.20004498599E+02 0.  0.
        -13    1    3    3    0    0 -0.25474323992E+01 -0.96714122041E+01  0.44373298654E+02  0.45486552208E+02  0.10570000000E+00 0. -1.
         13    1    3    3    0    0  0.25474323992E+01  0.96714122041E+01  0.43557254428E+02  0.44690840355E+02  0.10570000000E+00 0.  1.
<mgrwt>
<rscale>  0 0.20004499E+02</rscale>
<asrwt>0</asrwt>
<pdfrwt beam="2">  1        2 0.17283385E-03 0.20004499E+02</pdfrwt>
<pdfrwt beam="1">  1       -2 0.13700608E-01 0.20004499E+02</pdfrwt>
<totfact> 0.30532686E+06</totfact>
</mgrwt>
</event>
<event>
 5    1  0.1607476E-006  0.2000283E+02  0.7818608E-02  0.1745272E+00
         -2   -1    0    0    0  501 -0.00000000000E+00  0.00000000000E+00  0.29910670291E+02  0.29910670404E+02  0.26000000000E-02 0.  1.
          2   -1    0    0  501    0  0.00000000000E+00 -0.00000000000E+00 -0.33442345981E+01  0.33442356088E+01  0.26000000000E-02 0. -1.
       1023    2    1    2    0    0  0.00000000000E+00  0.00000000000E+00  0.26566435693E+02  0.33254906013E+02  0.20002831512E+02 0.  0.
        -13    1    3    3    0    0 -0.40704646208E+01 -0.91342098069E+01  0.13484605447E+02  0.16788336057E+02  0.10570000000E+00 0. -1.
         13    1    3    3    0    0  0.40704646208E+01  0.91342098069E+01  0.13081830246E+02  0.16466569956E+02  0.10570000000E+00 0.  1.
<mgrwt>
<rscale>  0 0.20002832E+02</rscale>
<asrwt>0</asrwt>
<pdfrwt beam="2">  1        2 0.51449773E-03 0.20002832E+02</pdfrwt>
<pdfrwt beam="1">  1       -2 0.46016416E-02 0.20002832E+02</pdfrwt>
<totfact> 0.36064208E+06</totfact>
</mgrwt>
</event>
<event>
 5    1  0.1607476E-006  0.2000476E+02  0.7818608E-02  0.1745233E+00
          2   -1    0    0  501    0  0.00000000000E+00  0.00000000000E+00  0.62610894920E+02  0.62610894974E+02  0.26000000000E-02 0. -1.
         -2   -1    0    0    0  501 -0.00000000000E+00 -0.00000000000E+00 -0.15979249092E+01  0.15979270245E+01  0.26000000000E-02 0.  1.
       1023    2    1    2    0    0  0.00000000000E+00  0.00000000000E+00  0.61012970011E+02  0.64208821998E+02  0.20004757256E+02 0.  0.
        -13    1    3    3    0    0  0.80522600492E+01 -0.59306783183E+01  0.31009581040E+02  0.32582466542E+02  0.10570000000E+00 0. -1.
         13    1    3    3    0    0 -0.80522600492E+01  0.59306783183E+01  0.30003388971E+02  0.31626355456E+02  0.10570000000E+00 0.  1.
<mgrwt>
<rscale>  0 0.20004757E+02</rscale>
<asrwt>0</asrwt>
<pdfrwt beam="1">  1        2 0.96324442E-02 0.20004757E+02</pdfrwt>
<pdfrwt beam="2">  1       -2 0.24583480E-03 0.20004757E+02</pdfrwt>
<totfact> 0.48021901E+06</totfact>
</mgrwt>
</event>
<event>
 5    1  0.1607476E-006  0.2000144E+02  0.7818608E-02  0.1745299E+00
         -2   -1    0    0    0  501 -0.00000000000E+00  0.00000000000E+00  0.37622128827E+02  0.37622128917E+02  0.26000000000E-02 0.  1.
          2   -1    0    0  501    0  0.00000000000E+00 -0.00000000000E+00 -0.26583929010E+01  0.26583941724E+01  0.26000000000E-02 0. -1.
       1023    2    1    2    0    0  0.00000000000E+00  0.00000000000E+00  0.34963735926E+02  0.40280523089E+02  0.20001442709E+02 0.  0.
        -13    1    3    3    0    0  0.75036636551E+01  0.66104597419E+01  0.17502881031E+02  0.20158501014E+02  0.10570000000E+00 0. -1.
         13    1    3    3    0    0 -0.75036636551E+01 -0.66104597419E+01  0.17460854895E+02  0.20122022075E+02  0.10570000000E+00 0.  1.
<mgrwt>
<rscale>  0 0.20001443E+02</rscale>
<asrwt>0</asrwt>
<pdfrwt beam="2">  1        2 0.40898365E-03 0.20001443E+02</pdfrwt>
<pdfrwt beam="1">  1       -2 0.57880196E-02 0.20001443E+02</pdfrwt>
<totfact> 0.35173506E+06</totfact>
</mgrwt>
</event>
<event>
 5    1  0.1607476E-006  0.2000255E+02  0.7818608E-02  0.1745277E+00
          2   -1    0    0  501    0  0.00000000000E+00  0.00000000000E+00  0.98828047295E+01  0.98828050715E+01  0.26000000000E-02 0. -1.
         -2   -1    0    0    0  501 -0.00000000000E+00 -0.00000000000E+00 -0.10121164368E+02  0.10121164702E+02  0.26000000000E-02 0.  1.
       1023    2    1    2    0    0  0.00000000000E+00  0.00000000000E+00 -0.23835963823E+00  0.20003969773E+02  0.20002549622E+02 0.  0.
        -13    1    3    3    0    0 -0.89890245232E+01 -0.43830613917E+01 -0.96019803004E-01  0.10001708921E+02  0.10570000000E+00 0. -1.
         13    1    3    3    0    0  0.89890245232E+01  0.43830613917E+01 -0.14233983522E+00  0.10002260852E+02  0.10570000000E+00 0.  1.
<mgrwt>
<rscale>  0 0.20002550E+02</rscale>
<asrwt>0</asrwt>
<pdfrwt beam="1">  1        2 0.15204315E-02 0.20002550E+02</pdfrwt>
<pdfrwt beam="2">  1       -2 0.15571023E-02 0.20002550E+02</pdfrwt>
<totfact> 0.39417614E+06</totfact>
</mgrwt>
</event>
<event>
 5    1  0.1607476E-006  0.2000141E+02  0.7818608E-02  0.1745300E+00
         -2   -1    0    0    0  501 -0.00000000000E+00  0.00000000000E+00  0.48517266910E+01  0.48517273877E+01  0.26000000000E-02 0. -1.
          2   -1    0    0  501    0  0.00000000000E+00 -0.00000000000E+00 -0.20614129740E+02  0.20614129904E+02  0.26000000000E-02 0.  1.
       1023    2    1    2    0    0  0.00000000000E+00  0.00000000000E+00 -0.15762403049E+02  0.25465857292E+02  0.20001413393E+02 0.  0.
        -13    1    3    3    0    0 -0.36439966096E+01 -0.93125856050E+01 -0.78812252741E+01  0.12732943346E+02  0.10570000000E+00 0.  1.
         13    1    3    3    0    0  0.36439966096E+01  0.93125856050E+01 -0.78811777752E+01  0.12732913946E+02  0.10570000000E+00 0. -1.
<mgrwt>
<rscale>  0 0.20001413E+02</rscale>
<asrwt>0</asrwt>
<pdfrwt beam="2">  1        2 0.31714046E-02 0.20001413E+02</pdfrwt>
<pdfrwt beam="1">  1       -2 0.74641957E-03 0.20001413E+02</pdfrwt>
<totfact> 0.41783744E+06</totfact>
</mgrwt>
</event>
<event>
 4    1  0.1607476E-006  0.2013690E+02  0.7818608E-02  0.1742619E+00
         -2   -1    0    0    0  501 -0.00000000000E+00  0.00000000000E+00  0.17689740960E+01  0.17689760067E+01  0.26000000000E-02 0.  1.
          2   -1    0    0  501    0  0.00000000000E+00 -0.00000000000E+00 -0.57306438278E+02  0.57306438337E+02  0.26000000000E-02 0. -1.
        -13    1    1    2    0    0 -0.88156642257E+01 -0.48050033224E+01 -0.25576305957E+02  0.27476582603E+02  0.10570000000E+00 0.  1.
         13    1    1    2    0    0  0.88156642257E+01  0.48050033224E+01 -0.29961158225E+02  0.31598831740E+02  0.10570000000E+00 0. -1.
<mgrwt>
<rscale>  0 0.20136898E+02</rscale>
<asrwt>0</asrwt>
<pdfrwt beam="2">  1        2 0.88163738E-02 0.20136898E+02</pdfrwt>
<pdfrwt beam="1">  1       -2 0.27215006E-03 0.20136898E+02</pdfrwt>
<totfact> 0.46620879E+06</totfact>
</mgrwt>
</event>
<event>
 5    1  0.1622991E-006  0.2000158E+02  0.7818608E-02  0.1745297E+00
          2   -1    0    0  501    0  0.00000000000E+00  0.00000000000E+00  0.57153359937E+02  0.57153359996E+02  0.26000000000E-02 0. -1.
         -2   -1    0    0    0  501 -0.00000000000E+00 -0.00000000000E+00 -0.17499543696E+01  0.17499563011E+01  0.26000000000E-02 0.  1.
       1023    2    1    2    0    0  0.00000000000E+00  0.00000000000E+00  0.55403405567E+02  0.58903316297E+02  0.20001582996E+02 0.  0.
        -13    1    3    3    0    0  0.48072072368E+01 -0.87689755585E+01  0.27636891991E+02  0.29390698277E+02  0.10570000000E+00 0.  1.
         13    1    3    3    0    0 -0.48072072368E+01  0.87689755585E+01  0.27766513576E+02  0.29512618021E+02  0.10570000000E+00 0. -1.
<mgrwt>
<rscale>  0 0.20001583E+02</rscale>
<asrwt>0</asrwt>
<pdfrwt beam="1">  1        2 0.87928249E-02 0.20001583E+02</pdfrwt>
<pdfrwt beam="2">  1       -2 0.26922390E-03 0.20001583E+02</pdfrwt>
<totfact> 0.47304659E+06</totfact>
</mgrwt>
</event>
<event>
 4    1  0.1607476E-006  0.2028765E+02  0.7818608E-02  0.1739668E+00
          2   -1    0    0  501    0  0.00000000000E+00  0.00000000000E+00  0.34850240957E+01  0.34850250655E+01  0.26000000000E-02 0. -1.
         -2   -1    0    0    0  501 -0.00000000000E+00 -0.00000000000E+00 -0.29525524889E+02  0.29525525003E+02  0.26000000000E-02 0.  1.
        -13    1    1    2    0    0 -0.66460766211E+01 -0.76397276567E+01 -0.12057302853E+02  0.15745650120E+02  0.10570000000E+00 0.  1.
         13    1    1    2    0    0  0.66460766211E+01  0.76397276567E+01 -0.13983197941E+02  0.17264899949E+02  0.10570000000E+00 0. -1.
<mgrwt>
<rscale>  0 0.20287650E+02</rscale>
<asrwt>0</asrwt>
<pdfrwt beam="1">  1        2 0.53615765E-03 0.20287650E+02</pdfrwt>
<pdfrwt beam="2">  1       -2 0.45423884E-02 0.20287650E+02</pdfrwt>
<totfact> 0.35014584E+06</totfact>
</mgrwt>
</event>
<event>
 5    1  0.1607476E-006  0.2000165E+02  0.7818608E-02  0.1745295E+00
          2   -1    0    0  501    0  0.00000000000E+00  0.00000000000E+00  0.39899336386E+02  0.39899336471E+02  0.26000000000E-02 0. -1.
         -2   -1    0    0    0  501 -0.00000000000E+00 -0.00000000000E+00 -0.25067211983E+01  0.25067225467E+01  0.26000000000E-02 0.  1.
       1023    2    1    2    0    0  0.00000000000E+00  0.00000000000E+00  0.37392615188E+02  0.42406059017E+02  0.20001654202E+02 0.  0.
        -13    1    3    3    0    0  0.14747604025E+01  0.98907401620E+01  0.18567153436E+02  0.21089144563E+02  0.10570000000E+00 0. -1.
         13    1    3    3    0    0 -0.14747604025E+01 -0.98907401620E+01  0.18825461752E+02  0.21316914455E+02  0.10570000000E+00 0.  1.
<mgrwt>
<rscale>  0 0.20001654E+02</rscale>
<asrwt>0</asrwt>
<pdfrwt beam="1">  1        2 0.61383593E-02 0.20001654E+02</pdfrwt>
<pdfrwt beam="2">  1       -2 0.38564954E-03 0.20001654E+02</pdfrwt>
<totfact> 0.44873215E+06</totfact>
</mgrwt>
</event>
<event>
 5    1  0.1607476E-006  0.2000171E+02  0.7818608E-02  0.1745294E+00
         -2   -1    0    0    0  501 -0.00000000000E+00  0.00000000000E+00  0.50527842728E+02  0.50527842795E+02  0.26000000000E-02 0.  1.
          2   -1    0    0  501    0  0.00000000000E+00 -0.00000000000E+00 -0.19794446277E+01  0.19794463353E+01  0.26000000000E-02 0. -1.
       1023    2    1    2    0    0  0.00000000000E+00  0.00000000000E+00  0.48548398101E+02  0.52507289131E+02  0.20001711269E+02 0.  0.
        -13    1    3    3    0    0  0.65059187364E+01  0.75943072805E+01  0.24080235833E+02  0.26074305588E+02  0.10570000000E+00 0.  1.
         13    1    3    3    0    0 -0.65059187364E+01 -0.75943072805E+01  0.24468162268E+02  0.26432983542E+02  0.10570000000E+00 0. -1.
<mgrwt>
<rscale>  0 0.20001711E+02</rscale>
<asrwt>0</asrwt>
<pdfrwt beam="2">  1        2 0.30453007E-03 0.20001711E+02</pdfrwt>
<pdfrwt beam="1">  1       -2 0.77735146E-02 0.20001711E+02</pdfrwt>
<totfact> 0.33840962E+06</totfact>
</mgrwt>
</event>
<event>
 5    1  0.1607476E-006  0.2000143E+02  0.7818608E-02  0.1745300E+00
         -2   -1    0    0    0  501 -0.00000000000E+00  0.00000000000E+00  0.11016847813E+01  0.11016878494E+01  0.26000000000E-02 0.  1.
          2   -1    0    0  501    0  0.00000000000E+00 -0.00000000000E+00 -0.90782874604E+02  0.90782874642E+02  0.26000000000E-02 0. -1.
       1023    2    1    2    0    0  0.00000000000E+00  0.00000000000E+00 -0.89681189823E+02  0.91884562491E+02  0.20001425351E+02 0.  0.
        -13    1    3    3    0    0 -0.25336668824E+01  0.96737792593E+01 -0.45024838504E+02  0.46122106715E+02  0.10570000000E+00 0. -1.
         13    1    3    3    0    0  0.25336668824E+01 -0.96737792593E+01 -0.44656351319E+02  0.45762455776E+02  0.10570000000E+00 0.  1.
<mgrwt>
<rscale>  0 0.20001425E+02</rscale>
<asrwt>0</asrwt>
<pdfrwt beam="2">  1        2 0.13966590E-01 0.20001425E+02</pdfrwt>
<pdfrwt beam="1">  1       -2 0.16949028E-03 0.20001425E+02</pdfrwt>
<totfact> 0.51632726E+06</totfact>
</mgrwt>
</event>
<event>
 5    1  0.1607476E-006  0.2000231E+02  0.7818608E-02  0.1745282E+00
          2   -1    0    0  501    0  0.00000000000E+00  0.00000000000E+00  0.57975214751E+01  0.57975220581E+01  0.26000000000E-02 0.  1.
         -2   -1    0    0    0  501 -0.00000000000E+00 -0.00000000000E+00 -0.17252739756E+02  0.17252739951E+02  0.26000000000E-02 0. -1.
       1023    2    1    2    0    0  0.00000000000E+00  0.00000000000E+00 -0.11455218280E+02  0.23050262010E+02  0.20002313688E+02 0.  0.
        -13    1    3    3    0    0  0.80749215547E+01  0.58997566215E+01 -0.57528411428E+01  0.11537670476E+02  0.10570000000E+00 0.  1.
         13    1    3    3    0    0 -0.80749215547E+01 -0.58997566215E+01 -0.57023771376E+01  0.11512591534E+02  0.10570000000E+00 0. -1.
<mgrwt>
<rscale>  0 0.20002314E+02</rscale>
<asrwt>0</asrwt>
<pdfrwt beam="1">  1        2 0.89192645E-03 0.20002314E+02</pdfrwt>
<pdfrwt beam="2">  1       -2 0.26542677E-02 0.20002314E+02</pdfrwt>
<totfact> 0.37875564E+06</totfact>
</mgrwt>
</event>
<event>
 5    1  0.1607476E-006  0.2000605E+02  0.7818608E-02  0.1745208E+00
          2   -1    0    0  501    0  0.00000000000E+00  0.00000000000E+00  0.38925685628E+02  0.38925685715E+02  0.26000000000E-02 0. -1.
         -2   -1    0    0    0  501 -0.00000000000E+00 -0.00000000000E+00 -0.25705514208E+01  0.25705527357E+01  0.26000000000E-02 0.  1.
       1023    2    1    2    0    0  0.00000000000E+00  0.00000000000E+00  0.36355134207E+02  0.41496238450E+02  0.20006049643E+02 0.  0.
        -13    1    3    3    0    0  0.13234048114E+01  0.99129708774E+01  0.17812715879E+02  0.20428470608E+02  0.10570000000E+00 0.  1.
         13    1    3    3    0    0 -0.13234048114E+01 -0.99129708774E+01  0.18542418328E+02  0.21067767842E+02  0.10570000000E+00 0. -1.
<mgrwt>
<rscale>  0 0.20006050E+02</rscale>
<asrwt>0</asrwt>
<pdfrwt beam="1">  1        2 0.59885669E-02 0.20006050E+02</pdfrwt>
<pdfrwt beam="2">  1       -2 0.39546957E-03 0.20006050E+02</pdfrwt>
<totfact> 0.44707598E+06</totfact>
</mgrwt>
</event>
<event>
 5    1  0.1607476E-006  0.2000181E+02  0.7818608E-02  0.1745292E+00
         -2   -1    0    0    0  501 -0.00000000000E+00  0.00000000000E+00  0.27425671696E+01  0.27425684020E+01  0.26000000000E-02 0.  1.
          2   -1    0    0  501    0  0.00000000000E+00 -0.00000000000E+00 -0.36468779317E+02  0.36468779410E+02  0.26000000000E-02 0. -1.
       1023    2    1    2    0    0  0.00000000000E+00  0.00000000000E+00 -0.33726212148E+02  0.39211347812E+02  0.20001810203E+02 0.  0.
        -13    1    3    3    0    0  0.71195994682E+00 -0.99749447480E+01 -0.16907838568E+02  0.19644148931E+02  0.10570000000E+00 0.  1.
         13    1    3    3    0    0 -0.71195994682E+00  0.99749447480E+01 -0.16818373580E+02  0.19567198881E+02  0.10570000000E+00 0. -1.
<mgrwt>
<rscale>  0 0.20001810E+02</rscale>
<asrwt>0</asrwt>
<pdfrwt beam="2">  1        2 0.56105812E-02 0.20001810E+02</pdfrwt>
<pdfrwt beam="1">  1       -2 0.42193354E-03 0.20001810E+02</pdfrwt>
<totfact> 0.44362248E+06</totfact>
</mgrwt>
</event>
<event>
 5    1  0.1607476E-006  0.2000390E+02  0.7818608E-02  0.1745251E+00
         -2   -1    0    0    0  501 -0.00000000000E+00  0.00000000000E+00  0.18431254005E+01  0.18431272344E+01  0.26000000000E-02 0. -1.
          2   -1    0    0  501    0  0.00000000000E+00 -0.00000000000E+00 -0.54276791339E+02  0.54276791401E+02  0.26000000000E-02 0.  1.
       1023    2    1    2    0    0  0.00000000000E+00  0.00000000000E+00 -0.52433665939E+02  0.56119918636E+02  0.20003898218E+02 0.  0.
        -13    1    3    3    0    0  0.10000504122E+02 -0.56279018417E-01 -0.26555392280E+02  0.28376280265E+02  0.10570000000E+00 0.  1.
         13    1    3    3    0    0 -0.10000504122E+02  0.56279018417E-01 -0.25878273658E+02  0.27743638371E+02  0.10570000000E+00 0. -1.
<mgrwt>
<rscale>  0 0.20003898E+02</rscale>
<asrwt>0</asrwt>
<pdfrwt beam="2">  1        2 0.83502745E-02 0.20003898E+02</pdfrwt>
<pdfrwt beam="1">  1       -2 0.28355794E-03 0.20003898E+02</pdfrwt>
<totfact> 0.46900005E+06</totfact>
</mgrwt>
</event>
<event>
 5    1  0.1607476E-006  0.2000379E+02  0.7818608E-02  0.1745253E+00
          2   -1    0    0  501    0  0.00000000000E+00  0.00000000000E+00  0.46632140053E+01  0.46632147301E+01  0.26000000000E-02 0.  1.
         -2   -1    0    0    0  501 -0.00000000000E+00 -0.00000000000E+00 -0.21452556699E+02  0.21452556857E+02  0.26000000000E-02 0. -1.
       1023    2    1    2    0    0  0.00000000000E+00  0.00000000000E+00 -0.16789342694E+02  0.26115771587E+02  0.20003787079E+02 0.  0.
        -13    1    3    3    0    0 -0.97102518008E+01 -0.23925488590E+01 -0.82434211073E+01  0.12960649834E+02  0.10570000000E+00 0.  1.
         13    1    3    3    0    0  0.97102518008E+01  0.23925488590E+01 -0.85459215868E+01  0.13155121753E+02  0.10570000000E+00 0. -1.
<mgrwt>
<rscale>  0 0.20003787E+02</rscale>
<asrwt>0</asrwt>
<pdfrwt beam="1">  1        2 0.71741762E-03 0.20003787E+02</pdfrwt>
<pdfrwt beam="2">  1       -2 0.33003933E-02 0.20003787E+02</pdfrwt>
<totfact> 0.37197166E+06</totfact>
</mgrwt>
</event>
<event>
 5    1  0.1607476E-006  0.2000335E+02  0.7818608E-02  0.1745261E+00
         -2   -1    0    0    0  501 -0.00000000000E+00  0.00000000000E+00  0.45693235087E+01  0.45693242484E+01  0.26000000000E-02 0.  1.
          2   -1    0    0  501    0  0.00000000000E+00 -0.00000000000E+00 -0.21892410527E+02  0.21892410682E+02  0.26000000000E-02 0. -1.
       1023    2    1    2    0    0  0.00000000000E+00  0.00000000000E+00 -0.17323087019E+02  0.26461734930E+02  0.20003351510E+02 0.  0.
        -13    1    3    3    0    0 -0.72870958555E+01  0.68498213487E+01 -0.86919091256E+01  0.13250746215E+02  0.10570000000E+00 0. -1.
         13    1    3    3    0    0  0.72870958555E+01 -0.68498213487E+01 -0.86311778929E+01  0.13210988715E+02  0.10570000000E+00 0.  1.
<mgrwt>
<rscale>  0 0.20003352E+02</rscale>
<asrwt>0</asrwt>
<pdfrwt beam="2">  1        2 0.33680632E-02 0.20003352E+02</pdfrwt>
<pdfrwt beam="1">  1       -2 0.70297293E-03 0.20003352E+02</pdfrwt>
<totfact> 0.42004020E+06</totfact>
</mgrwt>
</event>
<event>
 4    1  0.1607476E-006  0.2003071E+02  0.7818608E-02  0.1744718E+00
         -2   -1    0    0    0  501 -0.00000000000E+00  0.00000000000E+00  0.39755250074E+01  0.39755258576E+01  0.26000000000E-02 0.  1.
          2   -1    0    0  501    0  0.00000000000E+00 -0.00000000000E+00 -0.25231217652E+02  0.25231217786E+02  0.26000000000E-02 0. -1.
        -13    1    1    2    0    0 -0.89535815774E+01  0.44784930294E+01 -0.10234819899E+02  0.14317340316E+02  0.10570000000E+00 0. -1.
         13    1    1    2    0    0  0.89535815774E+01 -0.44784930294E+01 -0.11020872746E+02  0.14889403327E+02  0.10570000000E+00 0.  1.
<mgrwt>
<rscale>  0 0.20030712E+02</rscale>
<asrwt>0</asrwt>
<pdfrwt beam="2">  1        2 0.38817258E-02 0.20030712E+02</pdfrwt>
<pdfrwt beam="1">  1       -2 0.61161932E-03 0.20030712E+02</pdfrwt>
<totfact> 0.42448979E+06</totfact>
</mgrwt>
</event>
<event>
 5    1  0.1607476E-006  0.2000121E+02  0.7818608E-02  0.1745304E+00
          2   -1    0    0  501    0  0.00000000000E+00  0.00000000000E+00  0.98485535445E+01  0.98485538877E+01  0.26000000000E-02 0.  1.
         -2   -1    0    0    0  501 -0.00000000000E+00 -0.00000000000E+00 -0.10154998437E+02  0.10154998770E+02  0.26000000000E-02 0. -1.
       1023    2    1    2    0    0  0.00000000000E+00  0.00000000000E+00 -0.30644489239E+00  0.20003552657E+02  0.20001205225E+02 0.  0.
        -13    1    3    3    0    0 -0.69396771809E+01 -0.72001115284E+01 -0.14078211473E+00  0.10001585749E+02  0.10570000000E+00 0. -1.
         13    1    3    3    0    0  0.69396771809E+01  0.72001115284E+01 -0.16566277765E+00  0.10001966909E+02  0.10570000000E+00 0.  1.
<mgrwt>
<rscale>  0 0.20001205E+02</rscale>
<asrwt>0</asrwt>
<pdfrwt beam="1">  1        2 0.15151621E-02 0.20001205E+02</pdfrwt>
<pdfrwt beam="2">  1       -2 0.15623075E-02 0.20001205E+02</pdfrwt>
<totfact> 0.39413646E+06</totfact>
</mgrwt>
</event>
<event>
 5    1  0.1607476E-006  0.2000380E+02  0.7818608E-02  0.1745252E+00
         -2   -1    0    0    0  501 -0.00000000000E+00  0.00000000000E+00  0.37789223071E+01  0.37789232016E+01  0.26000000000E-02 0.  1.
          2   -1    0    0  501    0  0.00000000000E+00 -0.00000000000E+00 -0.26472627344E+02  0.26472627472E+02  0.26000000000E-02 0. -1.
       1023    2    1    2    0    0  0.00000000000E+00  0.00000000000E+00 -0.22693705037E+02  0.30251550674E+02  0.20003801385E+02 0.  0.
        -13    1    3    3    0    0 -0.76751572899E+01 -0.64115329010E+01 -0.11505833021E+02  0.15245037211E+02  0.10570000000E+00 0. -1.
         13    1    3    3    0    0  0.76751572899E+01  0.64115329010E+01 -0.11187872016E+02  0.15006513462E+02  0.10570000000E+00 0.  1.
<mgrwt>
<rscale>  0 0.20003801E+02</rscale>
<asrwt>0</asrwt>
<pdfrwt beam="2">  1        2 0.40727119E-02 0.20003801E+02</pdfrwt>
<pdfrwt beam="1">  1       -2 0.58137276E-03 0.20003801E+02</pdfrwt>
<totfact> 0.42784222E+06</totfact>
</mgrwt>
</event>
<event>
 5    1  0.1607476E-006  0.2000259E+02  0.7818608E-02  0.1745277E+00
         -2   -1    0    0    0  501 -0.00000000000E+00  0.00000000000E+00  0.55753762673E+01  0.55753768735E+01  0.26000000000E-02 0.  1.
          2   -1    0    0  501    0  0.00000000000E+00 -0.00000000000E+00 -0.17940659896E+02  0.17940660085E+02  0.26000000000E-02 0. -1.
       1023    2    1    2    0    0  0.00000000000E+00  0.00000000000E+00 -0.12365283629E+02  0.23516036958E+02  0.20002593707E+02 0.  0.
        -13    1    3    3    0    0 -0.98990900957E+01 -0.14222325663E+01 -0.61755816875E+01  0.11754306099E+02  0.10570000000E+00 0. -1.
         13    1    3    3    0    0  0.98990900957E+01  0.14222325663E+01 -0.61897019415E+01  0.11761730859E+02  0.10570000000E+00 0.  1.
<mgrwt>
<rscale>  0 0.20002594E+02</rscale>
<asrwt>0</asrwt>
<pdfrwt beam="2">  1        2 0.27601015E-02 0.20002594E+02</pdfrwt>
<pdfrwt beam="1">  1       -2 0.85775027E-03 0.20002594E+02</pdfrwt>
<totfact> 0.41276466E+06</totfact>
</mgrwt>
</event>
<event>
 5    1  0.1607476E-006  0.2000609E+02  0.7818608E-02  0.1745207E+00
         -2   -1    0    0    0  501 -0.00000000000E+00  0.00000000000E+00  0.15349586940E+01  0.15349608960E+01  0.26000000000E-02 0. -1.
          2   -1    0    0  501    0  0.00000000000E+00 -0.00000000000E+00 -0.65187933062E+02  0.65187933114E+02  0.26000000000E-02 0.  1.
       1023    2    1    2    0    0  0.00000000000E+00  0.00000000000E+00 -0.63652974368E+02  0.66722894010E+02  0.20006085053E+02 0.  0.
        -13    1    3    3    0    0 -0.80254729366E+01  0.59692626019E+01 -0.32149417182E+02  0.33669518998E+02  0.10570000000E+00 0.  1.
         13    1    3    3    0    0  0.80254729366E+01 -0.59692626019E+01 -0.31503557186E+02  0.33053375012E+02  0.10570000000E+00 0. -1.
<mgrwt>
<rscale>  0 0.20006085E+02</rscale>
<asrwt>0</asrwt>
<pdfrwt beam="2">  1        2 0.10028911E-01 0.20006085E+02</pdfrwt>
<pdfrwt beam="1">  1       -2 0.23614771E-03 0.20006085E+02</pdfrwt>
<totfact> 0.48356523E+06</totfact>
</mgrwt>
</event>
<event>
 5    1  0.1607476E-006  0.2000484E+02  0.7818608E-02  0.1745232E+00
          2   -1    0    0  501    0  0.00000000000E+00  0.00000000000E+00  0.12231895172E+02  0.12231895448E+02  0.26000000000E-02 0. -1.
         -2   -1    0    0    0  501 -0.00000000000E+00 -0.00000000000E+00 -0.81793007228E+01  0.81793011360E+01  0.26000000000E-02 0.  1.
       1023    2    1    2    0    0  0.00000000000E+00  0.00000000000E+00  0.40525944490E+01  0.20411196584E+02  0.20004835021E+02 0.  0.
        -13    1    3    3    0    0  0.99416775640E+01 -0.10954421790E+01  0.20420117946E+01  0.10208718382E+02  0.10570000000E+00 0. -1.
         13    1    3    3    0    0 -0.99416775640E+01  0.10954421790E+01  0.20105826544E+01  0.10202478202E+02  0.10570000000E+00 0.  1.
<mgrwt>
<rscale>  0 0.20004835E+02</rscale>
<asrwt>0</asrwt>
<pdfrwt beam="1">  1        2 0.18818301E-02 0.20004835E+02</pdfrwt>
<pdfrwt beam="2">  1       -2 0.12583540E-02 0.20004835E+02</pdfrwt>
<totfact> 0.40034179E+06</totfact>
</mgrwt>
</event>
<event>
 5    1  0.1607476E-006  0.2000350E+02  0.7818608E-02  0.1745259E+00
         -2   -1    0    0    0  501 -0.00000000000E+00  0.00000000000E+00  0.14780216159E+02  0.14780216387E+02  0.26000000000E-02 0.  1.
          2   -1    0    0  501    0  0.00000000000E+00 -0.00000000000E+00 -0.67681669291E+01  0.67681674285E+01  0.26000000000E-02 0. -1.
       1023    2    1    2    0    0  0.00000000000E+00  0.00000000000E+00  0.80120492294E+01  0.21548383816E+02  0.20003497500E+02 0.  0.
        -13    1    3    3    0    0  0.71199679027E+01 -0.70233913379E+01  0.40521917561E+01  0.10791357623E+02  0.10570000000E+00 0. -1.
         13    1    3    3    0    0 -0.71199679027E+01  0.70233913379E+01  0.39598574733E+01  0.10757026193E+02  0.10570000000E+00 0.  1.
<mgrwt>
<rscale>  0 0.20003497E+02</rscale>
<asrwt>0</asrwt>
<pdfrwt beam="2">  1        2 0.10412565E-02 0.20003497E+02</pdfrwt>
<pdfrwt beam="1">  1       -2 0.22738795E-02 0.20003497E+02</pdfrwt>
<totfact> 0.38326095E+06</totfact>
</mgrwt>
</event>
<event>
 5    1  0.1607476E-006  0.2000198E+02  0.7818608E-02  0.1745289E+00
         -2   -1    0    0    0  501 -0.00000000000E+00  0.00000000000E+00  0.35124742250E+01  0.35124751873E+01  0.26000000000E-02 0.  1.
          2   -1    0    0  501    0  0.00000000000E+00 -0.00000000000E+00 -0.28475597145E+02  0.28475597264E+02  0.26000000000E-02 0. -1.
       1023    2    1    2    0    0  0.00000000000E+00  0.00000000000E+00 -0.24963122920E+02  0.31988072451E+02  0.20001981732E+02 0.  0.
        -13    1    3    3    0    0 -0.76124186752E+01 -0.64852805239E+01 -0.12528576425E+02  0.16030726162E+02  0.10570000000E+00 0. -1.
         13    1    3    3    0    0  0.76124186752E+01  0.64852805239E+01 -0.12434546496E+02  0.15957346289E+02  0.10570000000E+00 0.  1.
<mgrwt>
<rscale>  0 0.20001982E+02</rscale>
<asrwt>0</asrwt>
<pdfrwt beam="2">  1        2 0.43808610E-02 0.20001982E+02</pdfrwt>
<pdfrwt beam="1">  1       -2 0.54038075E-03 0.20001982E+02</pdfrwt>
<totfact> 0.43119835E+06</totfact>
</mgrwt>
</event>
<event>
 5    1  0.1607476E-006  0.2000296E+02  0.7818608E-02  0.1745269E+00
         -2   -1    0    0    0  501 -0.00000000000E+00  0.00000000000E+00  0.14220879829E+02  0.14220880067E+02  0.26000000000E-02 0.  1.
          2   -1    0    0  501    0  0.00000000000E+00 -0.00000000000E+00 -0.70339975975E+01  0.70339980780E+01  0.26000000000E-02 0. -1.
       1023    2    1    2    0    0  0.00000000000E+00  0.00000000000E+00  0.71868822317E+01  0.21254878145E+02  0.20002963999E+02 0.  0.
        -13    1    3    3    0    0 -0.86761914139E+01 -0.49724108196E+01  0.37332141947E+01  0.10674700348E+02  0.10570000000E+00 0.  1.
         13    1    3    3    0    0  0.86761914139E+01  0.49724108196E+01  0.34536680371E+01  0.10580177797E+02  0.10570000000E+00 0. -1.
<mgrwt>
<rscale>  0 0.20002964E+02</rscale>
<asrwt>0</asrwt>
<pdfrwt beam="2">  1        2 0.10821535E-02 0.20002964E+02</pdfrwt>
<pdfrwt beam="1">  1       -2 0.21878277E-02 0.20002964E+02</pdfrwt>
<totfact> 0.38440066E+06</totfact>
</mgrwt>
</event>
<event>
 4    1  0.1607476E-006  0.2006019E+02  0.7818608E-02  0.1744134E+00
          2   -1    0    0  501    0  0.00000000000E+00  0.00000000000E+00  0.49275663337E+01  0.49275670196E+01  0.26000000000E-02 0.  1.
         -2   -1    0    0    0  501 -0.00000000000E+00 -0.00000000000E+00 -0.20416329869E+02  0.20416330034E+02  0.26000000000E-02 0. -1.
        -13    1    1    2    0    0 -0.43289060311E+01  0.90420705345E+01 -0.73587033088E+01  0.12436243559E+02  0.10570000000E+00 0. -1.
         13    1    1    2    0    0  0.43289060311E+01 -0.90420705345E+01 -0.81300602263E+01  0.12907653495E+02  0.10570000000E+00 0.  1.
<mgrwt>
<rscale>  0 0.20060192E+02</rscale>
<asrwt>0</asrwt>
<pdfrwt beam="1">  1        2 0.75808721E-03 0.20060192E+02</pdfrwt>
<pdfrwt beam="2">  1       -2 0.31409738E-02 0.20060192E+02</pdfrwt>
<totfact> 0.37126382E+06</totfact>
</mgrwt>
</event>
<event>
 5    1  0.1607476E-006  0.2001038E+02  0.7818608E-02  0.1745122E+00
          2   -1    0    0  501    0  0.00000000000E+00  0.00000000000E+00  0.78415295888E+01  0.78415300199E+01  0.26000000000E-02 0. -1.
         -2   -1    0    0    0  501 -0.00000000000E+00 -0.00000000000E+00 -0.12765849406E+02  0.12765849671E+02  0.26000000000E-02 0.  1.
       1023    2    1    2    0    0  0.00000000000E+00  0.00000000000E+00 -0.49243198175E+01  0.20607379691E+02  0.20010376610E+02 0.  0.
        -13    1    3    3    0    0 -0.22781448460E+00  0.10000748168E+02 -0.26274385106E+01  0.10343184663E+02  0.10570000000E+00 0.  1.
         13    1    3    3    0    0  0.22781448460E+00 -0.10000748168E+02 -0.22968813069E+01  0.10264195028E+02  0.10570000000E+00 0. -1.
<mgrwt>
<rscale>  0 0.20010377E+02</rscale>
<asrwt>0</asrwt>
<pdfrwt beam="1">  1        2 0.12063892E-02 0.20010377E+02</pdfrwt>
<pdfrwt beam="2">  1       -2 0.19639769E-02 0.20010377E+02</pdfrwt>
<totfact> 0.38719582E+06</totfact>
</mgrwt>
</event>
<event>
 5    1  0.1607476E-006  0.2001145E+02  0.7818608E-02  0.1745100E+00
         -2   -1    0    0    0  501 -0.00000000000E+00  0.00000000000E+00  0.13221159426E+02  0.13221159682E+02  0.26000000000E-02 0. -1.
          2   -1    0    0  501    0  0.00000000000E+00 -0.00000000000E+00 -0.75722965027E+01  0.75722969491E+01  0.26000000000E-02 0.  1.
       1023    2    1    2    0    0  0.00000000000E+00  0.00000000000E+00  0.56488629234E+01  0.20793456631E+02  0.20011451380E+02 0.  0.
        -13    1    3    3    0    0 -0.82881682694E+01  0.55978900344E+01  0.31056897021E+01  0.10473136451E+02  0.10570000000E+00 0. -1.
         13    1    3    3    0    0  0.82881682694E+01 -0.55978900344E+01  0.25431732214E+01  0.10320320180E+02  0.10570000000E+00 0.  1.
<mgrwt>
<rscale>  0 0.20011451E+02</rscale>
<asrwt>0</asrwt>
<pdfrwt beam="2">  1        2 0.11649687E-02 0.20011451E+02</pdfrwt>
<pdfrwt beam="1">  1       -2 0.20340246E-02 0.20011451E+02</pdfrwt>
<totfact> 0.38614708E+06</totfact>
</mgrwt>
</event>
<event>
 5    1  0.1607476E-006  0.2000497E+02  0.7818608E-02  0.1745229E+00
          2   -1    0    0  501    0  0.00000000000E+00  0.00000000000E+00  0.31380160877E+02  0.31380160984E+02  0.26000000000E-02 0. -1.
         -2   -1    0    0    0  501 -0.00000000000E+00 -0.00000000000E+00 -0.31883100997E+01  0.31883111598E+01  0.26000000000E-02 0.  1.
       1023    2    1    2    0    0  0.00000000000E+00  0.00000000000E+00  0.28191850777E+02  0.34568472144E+02  0.20004969786E+02 0.  0.
        -13    1    3    3    0    0 -0.67896654801E+00 -0.99780729508E+01  0.13880125515E+02  0.17108243398E+02  0.10570000000E+00 0. -1.
         13    1    3    3    0    0  0.67896654801E+00  0.99780729508E+01  0.14311725262E+02  0.17460228746E+02  0.10570000000E+00 0.  1.
<mgrwt>
<rscale>  0 0.20004970E+02</rscale>
<asrwt>0</asrwt>
<pdfrwt beam="1">  1        2 0.48277173E-02 0.20004970E+02</pdfrwt>
<pdfrwt beam="2">  1       -2 0.49050932E-03 0.20004970E+02</pdfrwt>
<totfact> 0.43566530E+06</totfact>
</mgrwt>
</event>
<event>
 5    1  0.1607476E-006  0.2001207E+02  0.7818608E-02  0.1745088E+00
          2   -1    0    0  501    0  0.00000000000E+00  0.00000000000E+00  0.68458505817E+02  0.68458505867E+02  0.26000000000E-02 0. -1.
         -2   -1    0    0    0  501 -0.00000000000E+00 -0.00000000000E+00 -0.14625009475E+01  0.14625032586E+01  0.26000000000E-02 0.  1.
       1023    2    1    2    0    0  0.00000000000E+00  0.00000000000E+00  0.66996004870E+02  0.69921009125E+02  0.20012067574E+02 0.  0.
        -13    1    3    3    0    0 -0.66347421066E+01 -0.74844430671E+01  0.34441035591E+02  0.35864087830E+02  0.10570000000E+00 0.  1.
         13    1    3    3    0    0  0.66347421066E+01  0.74844430671E+01  0.32554969279E+02  0.34056921295E+02  0.10570000000E+00 0. -1.
<mgrwt>
<rscale>  0 0.20012068E+02</rscale>
<asrwt>0</asrwt>
<pdfrwt beam="1">  1        2 0.10532077E-01 0.20012068E+02</pdfrwt>
<pdfrwt beam="2">  1       -2 0.22500035E-03 0.20012068E+02</pdfrwt>
<totfact> 0.48753604E+06</totfact>
</mgrwt>
</event>
<event>
 4    1  0.1607476E-006  0.2006412E+02  0.7818608E-02  0.1744056E+00
          2   -1    0    0  501    0  0.00000000000E+00  0.00000000000E+00  0.40141027891E+02  0.40141027976E+02  0.26000000000E-02 0. -1.
         -2   -1    0    0    0  501 -0.00000000000E+00 -0.00000000000E+00 -0.25072154085E+01  0.25072167566E+01  0.26000000000E-02 0.  1.
        -13    1    1    2    0    0  0.56267310295E+01  0.83048443704E+01  0.18768453838E+02  0.21281366828E+02  0.10570000000E+00 0.  1.
         13    1    1    2    0    0 -0.56267310295E+01 -0.83048443704E+01  0.18865358645E+02  0.21366877904E+02  0.10570000000E+00 0. -1.
<mgrwt>
<rscale>  0 0.20064121E+02</rscale>
<asrwt>0</asrwt>
<pdfrwt beam="1">  1        2 0.61755418E-02 0.20064121E+02</pdfrwt>
<pdfrwt beam="2">  1       -2 0.38572563E-03 0.20064121E+02</pdfrwt>
<totfact> 0.44596998E+06</totfact>
</mgrwt>
</event>
<event>
 5    1  0.1607476E-006  0.2000300E+02  0.7818608E-02  0.1745268E+00
         -2   -1    0    0    0  501 -0.00000000000E+00  0.00000000000E+00  0.66803787082E+02  0.66803787132E+02  0.26000000000E-02 0.  1.
          2   -1    0    0  501    0  0.00000000000E+00 -0.00000000000E+00 -0.14973690742E+01  0.14973713315E+01  0.26000000000E-02 0. -1.
       1023    2    1    2    0    0  0.00000000000E+00  0.00000000000E+00  0.65306418008E+02  0.68301158464E+02  0.20003000138E+02 0.  0.
        -13    1    3    3    0    0  0.99835656916E+01 -0.58245138188E+00  0.32958569650E+02  0.34442551000E+02  0.10570000000E+00 0.  1.
         13    1    3    3    0    0 -0.99835656916E+01  0.58245138188E+00  0.32347848358E+02  0.33858607464E+02  0.10570000000E+00 0. -1.
<mgrwt>
<rscale>  0 0.20003000E+02</rscale>
<asrwt>0</asrwt>
<pdfrwt beam="2">  1        2 0.23036471E-03 0.20003000E+02</pdfrwt>
<pdfrwt beam="1">  1       -2 0.10277503E-01 0.20003000E+02</pdfrwt>
<totfact> 0.32346757E+06</totfact>
</mgrwt>
</event>
<event>
 4    1  0.1607476E-006  0.2003010E+02  0.7818608E-02  0.1744730E+00
          2   -1    0    0  501    0  0.00000000000E+00  0.00000000000E+00  0.26189145041E+01  0.26189157947E+01  0.26000000000E-02 0. -1.
         -2   -1    0    0    0  501 -0.00000000000E+00 -0.00000000000E+00 -0.38298758418E+02  0.38298758506E+02  0.26000000000E-02 0.  1.
        -13    1    1    2    0    0  0.54161778830E+01 -0.84225170160E+01 -0.17579482708E+02  0.20231736468E+02  0.10570000000E+00 0.  1.
         13    1    1    2    0    0 -0.54161778830E+01  0.84225170160E+01 -0.18100361206E+02  0.20685937832E+02  0.10570000000E+00 0. -1.
<mgrwt>
<rscale>  0 0.20030098E+02</rscale>
<asrwt>0</asrwt>
<pdfrwt beam="1">  1        2 0.40291006E-03 0.20030098E+02</pdfrwt>
<pdfrwt beam="2">  1       -2 0.58921164E-02 0.20030098E+02</pdfrwt>
<totfact> 0.34989686E+06</totfact>
</mgrwt>
</event>
<event>
 4    1  0.1607476E-006  0.2001593E+02  0.7818608E-02  0.1745011E+00
          2   -1    0    0  501    0  0.00000000000E+00  0.00000000000E+00  0.20721195332E+01  0.20721211643E+01  0.26000000000E-02 0.  1.
         -2   -1    0    0    0  501 -0.00000000000E+00 -0.00000000000E+00 -0.48336675056E+02  0.48336675126E+02  0.26000000000E-02 0. -1.
        -13    1    1    2    0    0  0.86369285004E+01 -0.50533029472E+01 -0.23449183727E+02  0.25495250431E+02  0.10570000000E+00 0. -1.
         13    1    1    2    0    0 -0.86369285004E+01  0.50533029472E+01 -0.22815371796E+02  0.24913545859E+02  0.10570000000E+00 0.  1.
<mgrwt>
<rscale>  0 0.20015935E+02</rscale>
<asrwt>0</asrwt>
<pdfrwt beam="1">  1        2 0.31878779E-03 0.20015935E+02</pdfrwt>
<pdfrwt beam="2">  1       -2 0.74364108E-02 0.20015935E+02</pdfrwt>
<totfact> 0.34002892E+06</totfact>
</mgrwt>
</event>
<event>
 5    1  0.1607476E-006  0.2000125E+02  0.7818608E-02  0.1745303E+00
          2   -1    0    0  501    0  0.00000000000E+00  0.00000000000E+00  0.91664831678E+00  0.91665200412E+00  0.26000000000E-02 0.  1.
         -2   -1    0    0    0  501 -0.00000000000E+00 -0.00000000000E+00 -0.10910647380E+03  0.10910647383E+03  0.26000000000E-02 0. -1.
       1023    2    1    2    0    0  0.00000000000E+00  0.00000000000E+00 -0.10818982549E+03  0.11002312584E+03  0.20001246972E+02 0.  0.
        -13    1    3    3    0    0  0.55973202472E+01 -0.82867470017E+01 -0.53910180282E+02  0.54829908630E+02  0.10570000000E+00 0. -1.
         13    1    3    3    0    0 -0.55973202472E+01  0.82867470017E+01 -0.54279645204E+02  0.55193217208E+02  0.10570000000E+00 0.  1.
<mgrwt>
<rscale>  0 0.20001247E+02</rscale>
<asrwt>0</asrwt>
<pdfrwt beam="1">  1        2 0.14102319E-03 0.20001247E+02</pdfrwt>
<pdfrwt beam="2">  1       -2 0.16785601E-01 0.20001247E+02</pdfrwt>
<totfact> 0.29078592E+06</totfact>
</mgrwt>
</event>
<event>
 5    1  0.1607476E-006  0.2000322E+02  0.7818608E-02  0.1745264E+00
          2   -1    0    0  501    0  0.00000000000E+00  0.00000000000E+00  0.63338370972E+01  0.63338376308E+01  0.26000000000E-02 0.  1.
         -2   -1    0    0    0  501 -0.00000000000E+00 -0.00000000000E+00 -0.15793294069E+02  0.15793294283E+02  0.26000000000E-02 0. -1.
       1023    2    1    2    0    0  0.00000000000E+00  0.00000000000E+00 -0.94594569714E+01  0.22127131913E+02  0.20003215754E+02 0.  0.
        -13    1    3    3    0    0 -0.78278696900E+00 -0.99702302742E+01 -0.47876364814E+01  0.11088321908E+02  0.10570000000E+00 0. -1.
         13    1    3    3    0    0  0.78278696900E+00  0.99702302742E+01 -0.46718204899E+01  0.11038810006E+02  0.10570000000E+00 0.  1.
<mgrwt>
<rscale>  0 0.20003216E+02</rscale>
<asrwt>0</asrwt>
<pdfrwt beam="1">  1        2 0.97443654E-03 0.20003216E+02</pdfrwt>
<pdfrwt beam="2">  1       -2 0.24297376E-02 0.20003216E+02</pdfrwt>
<totfact> 0.38133733E+06</totfact>
</mgrwt>
</event>
<event>
 5    1  0.1607476E-006  0.2000131E+02  0.7818608E-02  0.1745302E+00
         -2   -1    0    0    0  501 -0.00000000000E+00  0.00000000000E+00  0.42186295333E+02  0.42186295414E+02  0.26000000000E-02 0. -1.
          2   -1    0    0  501    0  0.00000000000E+00 -0.00000000000E+00 -0.23707467862E+01  0.23707482119E+01  0.26000000000E-02 0.  1.
       1023    2    1    2    0    0  0.00000000000E+00  0.00000000000E+00  0.39815548547E+02  0.44557043625E+02  0.20001305720E+02 0.  0.
        -13    1    3    3    0    0  0.92669510791E+01 -0.37583799141E+01  0.19887447111E+02  0.22260357746E+02  0.10570000000E+00 0. -1.
         13    1    3    3    0    0 -0.92669510791E+01  0.37583799141E+01  0.19928101436E+02  0.22296685880E+02  0.10570000000E+00 0.  1.
<mgrwt>
<rscale>  0 0.20001306E+02</rscale>
<asrwt>0</asrwt>
<pdfrwt beam="2">  1        2 0.36473043E-03 0.20001306E+02</pdfrwt>
<pdfrwt beam="1">  1       -2 0.64901986E-02 0.20001306E+02</pdfrwt>
<totfact> 0.34683487E+06</totfact>
</mgrwt>
</event>
<event>
 4    1  0.1607476E-006  0.2003479E+02  0.7818608E-02  0.1744637E+00
          2   -1    0    0  501    0  0.00000000000E+00  0.00000000000E+00  0.64616584049E+01  0.64616589280E+01  0.26000000000E-02 0.  1.
         -2   -1    0    0    0  501 -0.00000000000E+00 -0.00000000000E+00 -0.15529796676E+02  0.15529796894E+02  0.26000000000E-02 0. -1.
        -13    1    1    2    0    0 -0.34237581534E+01 -0.94002604914E+01 -0.39851720604E+01  0.10769391164E+02  0.10570000000E+00 0. -1.
         13    1    1    2    0    0  0.34237581534E+01  0.94002604914E+01 -0.50829662109E+01  0.11222064658E+02  0.10570000000E+00 0.  1.
<mgrwt>
<rscale>  0 0.20034795E+02</rscale>
<asrwt>0</asrwt>
<pdfrwt beam="1">  1        2 0.99410135E-03 0.20034795E+02</pdfrwt>
<pdfrwt beam="2">  1       -2 0.23891995E-02 0.20034795E+02</pdfrwt>
<totfact> 0.38053121E+06</totfact>
</mgrwt>
</event>
<event>
 4    1  0.1607476E-006  0.2001688E+02  0.7818608E-02  0.1744993E+00
          2   -1    0    0  501    0  0.00000000000E+00  0.00000000000E+00  0.79477239712E+01  0.79477243965E+01  0.26000000000E-02 0.  1.
         -2   -1    0    0    0  501 -0.00000000000E+00 -0.00000000000E+00 -0.12603462066E+02  0.12603462334E+02  0.26000000000E-02 0. -1.
        -13    1    1    2    0    0 -0.59864801306E+01  0.80169409589E+01 -0.21020303744E+01  0.10224431078E+02  0.10570000000E+00 0. -1.
         13    1    1    2    0    0  0.59864801306E+01 -0.80169409589E+01 -0.25537077207E+01  0.10326755652E+02  0.10570000000E+00 0.  1.
<mgrwt>
<rscale>  0 0.20016877E+02</rscale>
<asrwt>0</asrwt>
<pdfrwt beam="1">  1        2 0.12227268E-02 0.20016877E+02</pdfrwt>
<pdfrwt beam="2">  1       -2 0.19389942E-02 0.20016877E+02</pdfrwt>
<totfact> 0.38729140E+06</totfact>
</mgrwt>
</event>
<event>
 5    1  0.1607476E-006  0.2000191E+02  0.7818608E-02  0.1745290E+00
          2   -1    0    0  501    0  0.00000000000E+00  0.00000000000E+00  0.23523527369E+01  0.23523541738E+01  0.26000000000E-02 0.  1.
         -2   -1    0    0    0  501 -0.00000000000E+00 -0.00000000000E+00 -0.42518739918E+02  0.42518739997E+02  0.26000000000E-02 0. -1.
       1023    2    1    2    0    0  0.00000000000E+00  0.00000000000E+00 -0.40166387181E+02  0.44871094171E+02  0.20001910732E+02 0.  0.
        -13    1    3    3    0    0  0.77430070304E+01  0.63281976511E+01 -0.20279948237E+02  0.22611672126E+02  0.10570000000E+00 0.  1.
         13    1    3    3    0    0 -0.77430070304E+01 -0.63281976511E+01 -0.19886438944E+02  0.22259422045E+02  0.10570000000E+00 0. -1.
<mgrwt>
<rscale>  0 0.20001911E+02</rscale>
<asrwt>0</asrwt>
<pdfrwt beam="1">  1        2 0.36190057E-03 0.20001911E+02</pdfrwt>
<pdfrwt beam="2">  1       -2 0.65413442E-02 0.20001911E+02</pdfrwt>
<totfact> 0.34646379E+06</totfact>
</mgrwt>
</event>
<event>
 5    1  0.1607476E-006  0.2000223E+02  0.7818608E-02  0.1745284E+00
         -2   -1    0    0    0  501 -0.00000000000E+00  0.00000000000E+00  0.13240064030E+02  0.13240064285E+02  0.26000000000E-02 0.  1.
          2   -1    0    0  501    0  0.00000000000E+00 -0.00000000000E+00 -0.75545173871E+01  0.75545178345E+01  0.26000000000E-02 0. -1.
       1023    2    1    2    0    0  0.00000000000E+00  0.00000000000E+00  0.56855466430E+01  0.20794582120E+02  0.20002229998E+02 0.  0.
        -13    1    3    3    0    0  0.11335302384E+00 -0.99999132811E+01  0.28388558303E+01  0.10396219960E+02  0.10570000000E+00 0. -1.
         13    1    3    3    0    0 -0.11335302384E+00  0.99999132811E+01  0.28466908127E+01  0.10398362160E+02  0.10570000000E+00 0.  1.
<mgrwt>
<rscale>  0 0.20002230E+02</rscale>
<asrwt>0</asrwt>
<pdfrwt beam="2">  1        2 0.11622335E-02 0.20002230E+02</pdfrwt>
<pdfrwt beam="1">  1       -2 0.20369330E-02 0.20002230E+02</pdfrwt>
<totfact> 0.38648948E+06</totfact>
</mgrwt>
</event>
<event>
 4    1  0.1607476E-006  0.2002146E+02  0.7818608E-02  0.1744902E+00
          2   -1    0    0  501    0  0.00000000000E+00  0.00000000000E+00  0.44074458125E+02  0.44074458202E+02  0.26000000000E-02 0.  1.
         -2   -1    0    0    0  501 -0.00000000000E+00 -0.00000000000E+00 -0.22737578710E+01  0.22737593575E+01  0.26000000000E-02 0. -1.
        -13    1    1    2    0    0 -0.90082841759E+01 -0.43634170781E+01  0.20617612131E+02  0.22919112000E+02  0.10570000000E+00 0. -1.
         13    1    1    2    0    0  0.90082841759E+01  0.43634170781E+01  0.21183088124E+02  0.23429105560E+02  0.10570000000E+00 0.  1.
<mgrwt>
<rscale>  0 0.20021457E+02</rscale>
<asrwt>0</asrwt>
<pdfrwt beam="1">  1        2 0.67806862E-02 0.20021457E+02</pdfrwt>
<pdfrwt beam="2">  1       -2 0.34980901E-03 0.20021457E+02</pdfrwt>
<totfact> 0.45379898E+06</totfact>
</mgrwt>
</event>
<event>
 5    1  0.1607476E-006  0.2000217E+02  0.7818608E-02  0.1745285E+00
          2   -1    0    0  501    0  0.00000000000E+00  0.00000000000E+00  0.36728226917E+01  0.36728236120E+01  0.26000000000E-02 0. -1.
         -2   -1    0    0    0  501 -0.00000000000E+00 -0.00000000000E+00 -0.27232927092E+02  0.27232927216E+02  0.26000000000E-02 0.  1.
       1023    2    1    2    0    0  0.00000000000E+00  0.00000000000E+00 -0.23560104400E+02  0.30905750828E+02  0.20002172754E+02 0.  0.
        -13    1    3    3    0    0  0.99832233342E+01  0.57914230514E+00 -0.11937641403E+02  0.15573008980E+02  0.10570000000E+00 0.  1.
         13    1    3    3    0    0 -0.99832233342E+01 -0.57914230514E+00 -0.11622462998E+02  0.15332741848E+02  0.10570000000E+00 0. -1.
<mgrwt>
<rscale>  0 0.20002173E+02</rscale>
<asrwt>0</asrwt>
<pdfrwt beam="1">  1        2 0.56504974E-03 0.20002173E+02</pdfrwt>
<pdfrwt beam="2">  1       -2 0.41896810E-02 0.20002173E+02</pdfrwt>
<totfact> 0.36404720E+06</totfact>
</mgrwt>
</event>
<event>
 5    1  0.1607476E-006  0.2000902E+02  0.7818608E-02  0.1745149E+00
         -2   -1    0    0    0  501 -0.00000000000E+00  0.00000000000E+00  0.31948157597E+01  0.31948168176E+01  0.26000000000E-02 0. -1.
          2   -1    0    0  501    0  0.00000000000E+00 -0.00000000000E+00 -0.31328940965E+02  0.31328941073E+02  0.26000000000E-02 0.  1.
       1023    2    1    2    0    0  0.00000000000E+00  0.00000000000E+00 -0.28134125205E+02  0.34523757890E+02  0.20009019412E+02 0.  0.
        -13    1    3    3    0    0 -0.50620304729E+01  0.86287246656E+01 -0.14066515310E+02  0.17261432945E+02  0.10570000000E+00 0.  1.
         13    1    3    3    0    0  0.50620304729E+01 -0.86287246656E+01 -0.14067609895E+02  0.17262324945E+02  0.10570000000E+00 0. -1.
<mgrwt>
<rscale>  0 0.20009019E+02</rscale>
<asrwt>0</asrwt>
<pdfrwt beam="2">  1        2 0.48198369E-02 0.20009019E+02</pdfrwt>
<pdfrwt beam="1">  1       -2 0.49151023E-03 0.20009019E+02</pdfrwt>
<totfact> 0.43538762E+06</totfact>
</mgrwt>
</event>
<event>
 5    1  0.1607476E-006  0.2000199E+02  0.7818608E-02  0.1745289E+00
         -2   -1    0    0    0  501 -0.00000000000E+00  0.00000000000E+00  0.22498484398E+01  0.22498499421E+01  0.26000000000E-02 0. -1.
          2   -1    0    0  501    0  0.00000000000E+00 -0.00000000000E+00 -0.44456248749E+02  0.44456248825E+02  0.26000000000E-02 0.  1.
       1023    2    1    2    0    0  0.00000000000E+00  0.00000000000E+00 -0.42206400310E+02  0.46706098768E+02  0.20001985776E+02 0.  0.
        -13    1    3    3    0    0 -0.56230417307E+01  0.82697044096E+01 -0.21209617287E+02  0.23449214215E+02  0.10570000000E+00 0. -1.
         13    1    3    3    0    0  0.56230417307E+01 -0.82697044096E+01 -0.20996783022E+02  0.23256884553E+02  0.10570000000E+00 0.  1.
<mgrwt>
<rscale>  0 0.20001986E+02</rscale>
<asrwt>0</asrwt>
<pdfrwt beam="2">  1        2 0.68394224E-02 0.20001986E+02</pdfrwt>
<pdfrwt beam="1">  1       -2 0.34613068E-03 0.20001986E+02</pdfrwt>
<totfact> 0.45533328E+06</totfact>
</mgrwt>
</event>
<event>
 5    1  0.1607476E-006  0.2000364E+02  0.7818608E-02  0.1745256E+00
          2   -1    0    0  501    0  0.00000000000E+00  0.00000000000E+00  0.26063245956E+02  0.26063246086E+02  0.26000000000E-02 0.  1.
         -2   -1    0    0    0  501 -0.00000000000E+00 -0.00000000000E+00 -0.38382183641E+01  0.38382192447E+01  0.26000000000E-02 0. -1.
       1023    2    1    2    0    0  0.00000000000E+00  0.00000000000E+00  0.22225027592E+02  0.29901465331E+02  0.20003644104E+02 0.  0.
        -13    1    3    3    0    0  0.66491323279E+01 -0.74703733184E+01  0.11244815432E+02  0.15049069234E+02  0.10570000000E+00 0. -1.
         13    1    3    3    0    0 -0.66491323279E+01  0.74703733184E+01  0.10980212161E+02  0.14852396097E+02  0.10570000000E+00 0.  1.
<mgrwt>
<rscale>  0 0.20003644E+02</rscale>
<asrwt>0</asrwt>
<pdfrwt beam="1">  1        2 0.40097302E-02 0.20003644E+02</pdfrwt>
<pdfrwt beam="2">  1       -2 0.59049521E-03 0.20003644E+02</pdfrwt>
<totfact> 0.42717146E+06</totfact>
</mgrwt>
</event>
<event>
 5    1  0.1607476E-006  0.2000649E+02  0.7818608E-02  0.1745199E+00
          2   -1    0    0  501    0  0.00000000000E+00  0.00000000000E+00  0.73595046430E+02  0.73595046476E+02  0.26000000000E-02 0. -1.
         -2   -1    0    0    0  501 -0.00000000000E+00 -0.00000000000E+00 -0.13596680686E+01  0.13596705545E+01  0.26000000000E-02 0.  1.
       1023    2    1    2    0    0  0.00000000000E+00  0.00000000000E+00  0.72235378362E+02  0.74954717031E+02  0.20006491899E+02 0.  0.
        -13    1    3    3    0    0  0.88524894975E+01 -0.46560755807E+01  0.35779527246E+02  0.37151465012E+02  0.10570000000E+00 0.  1.
         13    1    3    3    0    0 -0.88524894975E+01  0.46560755807E+01  0.36455851116E+02  0.37803252018E+02  0.10570000000E+00 0. -1.
<mgrwt>
<rscale>  0 0.20006492E+02</rscale>
<asrwt>0</asrwt>
<pdfrwt beam="1">  1        2 0.11322316E-01 0.20006492E+02</pdfrwt>
<pdfrwt beam="2">  1       -2 0.20917989E-03 0.20006492E+02</pdfrwt>
<totfact> 0.49448880E+06</totfact>
</mgrwt>
</event>
<event>
 4    1  0.1607476E-006  0.2004619E+02  0.7818608E-02  0.1744411E+00
         -2   -1    0    0    0  501 -0.00000000000E+00  0.00000000000E+00  0.49207421985E+02  0.49207422054E+02  0.26000000000E-02 0.  1.
          2   -1    0    0  501    0  0.00000000000E+00 -0.00000000000E+00 -0.20416100210E+01  0.20416116765E+01  0.26000000000E-02 0. -1.
        -13    1    1    2    0    0 -0.33477422739E+00 -0.10016843049E+02  0.23697782152E+02  0.25730240377E+02  0.10570000000E+00 0.  1.
         13    1    1    2    0    0  0.33477422739E+00  0.10016843049E+02  0.23468029812E+02  0.25518793353E+02  0.10570000000E+00 0. -1.
<mgrwt>
<rscale>  0 0.20046188E+02</rscale>
<asrwt>0</asrwt>
<pdfrwt beam="2">  1        2 0.31409399E-03 0.20046188E+02</pdfrwt>
<pdfrwt beam="1">  1       -2 0.75703726E-02 0.20046188E+02</pdfrwt>
<totfact> 0.33805440E+06</totfact>
</mgrwt>
</event>
<event>
 5    1  0.1607476E-006  0.2000462E+02  0.7818608E-02  0.1745236E+00
          2   -1    0    0  501    0  0.00000000000E+00  0.00000000000E+00  0.42143797446E+02  0.42143797526E+02  0.26000000000E-02 0. -1.
         -2   -1    0    0    0  501 -0.00000000000E+00 -0.00000000000E+00 -0.23739235347E+01  0.23739249585E+01  0.26000000000E-02 0.  1.
       1023    2    1    2    0    0  0.00000000000E+00  0.00000000000E+00  0.39769873911E+02  0.44517722485E+02  0.20004618074E+02 0.  0.
        -13    1    3    3    0    0  0.19308597438E+01  0.98134513419E+01  0.20006153272E+02  0.22367149747E+02  0.10570000000E+00 0. -1.
         13    1    3    3    0    0 -0.19308597438E+01 -0.98134513419E+01  0.19763720640E+02  0.22150572737E+02  0.10570000000E+00 0.  1.
<mgrwt>
<rscale>  0 0.20004618E+02</rscale>
<asrwt>0</asrwt>
<pdfrwt beam="1">  1        2 0.64836609E-02 0.20004618E+02</pdfrwt>
<pdfrwt beam="2">  1       -2 0.36521914E-03 0.20004618E+02</pdfrwt>
<totfact> 0.45186326E+06</totfact>
</mgrwt>
</event>
<event>
 5    1  0.1607476E-006  0.2000173E+02  0.7818608E-02  0.1745294E+00
         -2   -1    0    0    0  501 -0.00000000000E+00  0.00000000000E+00  0.11022693033E+03  0.11022693036E+03  0.26000000000E-02 0.  1.
          2   -1    0    0  501    0  0.00000000000E+00 -0.00000000000E+00 -0.90737435780E+00  0.90737808282E+00  0.26000000000E-02 0. -1.
       1023    2    1    2    0    0  0.00000000000E+00  0.00000000000E+00  0.10931955597E+03  0.11113430845E+03  0.20001729807E+02 0.  0.
        -13    1    3    3    0    0  0.13015512378E+01 -0.99151125989E+01  0.54374680232E+02  0.55286711932E+02  0.10570000000E+00 0. -1.
         13    1    3    3    0    0 -0.13015512378E+01  0.99151125989E+01  0.54944875743E+02  0.55847596513E+02  0.10570000000E+00 0.  1.
<mgrwt>
<rscale>  0 0.20001730E+02</rscale>
<asrwt>0</asrwt>
<pdfrwt beam="2">  1        2 0.13959639E-03 0.20001730E+02</pdfrwt>
<pdfrwt beam="1">  1       -2 0.16957984E-01 0.20001730E+02</pdfrwt>
<totfact> 0.28999146E+06</totfact>
</mgrwt>
</event>
<event>
 5    1  0.1607476E-006  0.2000865E+02  0.7818608E-02  0.1745156E+00
          2   -1    0    0  501    0  0.00000000000E+00  0.00000000000E+00  0.46189404388E+02  0.46189404462E+02  0.26000000000E-02 0. -1.
         -2   -1    0    0    0  501 -0.00000000000E+00 -0.00000000000E+00 -0.21668714271E+01  0.21668729869E+01  0.26000000000E-02 0.  1.
       1023    2    1    2    0    0  0.00000000000E+00  0.00000000000E+00  0.44022532961E+02  0.48356277448E+02  0.20008652137E+02 0.  0.
        -13    1    3    3    0    0  0.66961018465E+01 -0.74279695044E+01  0.21405352723E+02  0.23626527646E+02  0.10570000000E+00 0. -1.
         13    1    3    3    0    0 -0.66961018465E+01  0.74279695044E+01  0.22617180238E+02  0.24729749803E+02  0.10570000000E+00 0.  1.
<mgrwt>
<rscale>  0 0.20008652E+02</rscale>
<asrwt>0</asrwt>
<pdfrwt beam="1">  1        2 0.71060621E-02 0.20008652E+02</pdfrwt>
<pdfrwt beam="2">  1       -2 0.33336497E-03 0.20008652E+02</pdfrwt>
<totfact> 0.45746843E+06</totfact>
</mgrwt>
</event>
<event>
 5    1  0.1607476E-006  0.2000197E+02  0.7818608E-02  0.1745289E+00
         -2   -1    0    0    0  501 -0.00000000000E+00  0.00000000000E+00  0.43762328265E+02  0.43762328342E+02  0.26000000000E-02 0.  1.
          2   -1    0    0  501    0  0.00000000000E+00 -0.00000000000E+00 -0.22855201020E+01  0.22855215809E+01  0.26000000000E-02 0. -1.
       1023    2    1    2    0    0  0.00000000000E+00  0.00000000000E+00  0.41476808163E+02  0.46047849923E+02  0.20001971582E+02 0.  0.
        -13    1    3    3    0    0 -0.73272690226E+01  0.68052707752E+01  0.20532973453E+02  0.22838886859E+02  0.10570000000E+00 0. -1.
         13    1    3    3    0    0  0.73272690226E+01 -0.68052707752E+01  0.20943834710E+02  0.23208963064E+02  0.10570000000E+00 0.  1.
<mgrwt>
<rscale>  0 0.20001972E+02</rscale>
<asrwt>0</asrwt>
<pdfrwt beam="2">  1        2 0.35161859E-03 0.20001972E+02</pdfrwt>
<pdfrwt beam="1">  1       -2 0.67326662E-02 0.20001972E+02</pdfrwt>
<totfact> 0.34516948E+06</totfact>
</mgrwt>
</event>
<event>
 5    1  0.1607476E-006  0.2000322E+02  0.7818608E-02  0.1745264E+00
          2   -1    0    0  501    0  0.00000000000E+00  0.00000000000E+00  0.13750236881E+02  0.13750237127E+02  0.26000000000E-02 0.  1.
         -2   -1    0    0    0  501 -0.00000000000E+00 -0.00000000000E+00 -0.72749461429E+01  0.72749466075E+01  0.26000000000E-02 0. -1.
       1023    2    1    2    0    0  0.00000000000E+00  0.00000000000E+00  0.64752907380E+01  0.21025183734E+02  0.20003223763E+02 0.  0.
        -13    1    3    3    0    0 -0.99824367903E+01  0.60571000488E+00  0.31622971459E+01  0.10489386284E+02  0.10570000000E+00 0. -1.
         13    1    3    3    0    0  0.99824367903E+01 -0.60571000488E+00  0.33129935921E+01  0.10535797450E+02  0.10570000000E+00 0.  1.
<mgrwt>
<rscale>  0 0.20003224E+02</rscale>
<asrwt>0</asrwt>
<pdfrwt beam="1">  1        2 0.21154211E-02 0.20003224E+02</pdfrwt>
<pdfrwt beam="2">  1       -2 0.11192225E-02 0.20003224E+02</pdfrwt>
<totfact> 0.40399475E+06</totfact>
</mgrwt>
</event>
<event>
 5    1  0.1668920E-006  0.2000136E+02  0.7818608E-02  0.1745301E+00
          2   -1    0    0  501    0  0.00000000000E+00  0.00000000000E+00  0.55330230479E+02  0.55330230540E+02  0.26000000000E-02 0.  1.
         -2   -1    0    0    0  501 -0.00000000000E+00 -0.00000000000E+00 -0.18075759604E+01  0.18075778303E+01  0.26000000000E-02 0. -1.
       1023    2    1    2    0    0  0.00000000000E+00  0.00000000000E+00  0.53522654518E+02  0.57137808370E+02  0.20001364920E+02 0.  0.
        -13    1    3    3    0    0  0.25439134087E+01 -0.96710157783E+01  0.26902309158E+02  0.28700966049E+02  0.10570000000E+00 0. -1.
         13    1    3    3    0    0 -0.25439134087E+01  0.96710157783E+01  0.26620345360E+02  0.28436842321E+02  0.10570000000E+00 0.  1.
<mgrwt>
<rscale>  0 0.20001365E+02</rscale>
<asrwt>0</asrwt>
<pdfrwt beam="1">  1        2 0.85123421E-02 0.20001365E+02</pdfrwt>
<pdfrwt beam="2">  1       -2 0.27808880E-03 0.20001365E+02</pdfrwt>
<totfact> 0.47057500E+06</totfact>
</mgrwt>
</event>
<event>
 5    1  0.1607476E-006  0.2001212E+02  0.7818608E-02  0.1745087E+00
         -2   -1    0    0    0  501 -0.00000000000E+00  0.00000000000E+00  0.73581107946E+01  0.73581112540E+01  0.26000000000E-02 0. -1.
          2   -1    0    0  501    0  0.00000000000E+00 -0.00000000000E+00 -0.13606919652E+02  0.13606919900E+02  0.26000000000E-02 0.  1.
       1023    2    1    2    0    0  0.00000000000E+00  0.00000000000E+00 -0.62488088571E+01  0.20965031154E+02  0.20012119307E+02 0.  0.
        -13    1    3    3    0    0 -0.81581682957E+01 -0.57875230792E+01 -0.28701032259E+01  0.10406718904E+02  0.10570000000E+00 0. -1.
         13    1    3    3    0    0  0.81581682957E+01  0.57875230792E+01 -0.33787056313E+01  0.10558312250E+02  0.10570000000E+00 0.  1.
<mgrwt>
<rscale>  0 0.20012119E+02</rscale>
<asrwt>0</asrwt>
<pdfrwt beam="2">  1        2 0.20933723E-02 0.20012119E+02</pdfrwt>
<pdfrwt beam="1">  1       -2 0.11320171E-02 0.20012119E+02</pdfrwt>
<totfact> 0.40326204E+06</totfact>
</mgrwt>
</event>
<event>
 4    1  0.1607476E-006  0.2005895E+02  0.7818608E-02  0.1744158E+00
         -2   -1    0    0    0  501 -0.00000000000E+00  0.00000000000E+00  0.39012544044E+01  0.39012552708E+01  0.26000000000E-02 0.  1.
          2   -1    0    0  501    0  0.00000000000E+00 -0.00000000000E+00 -0.25784114113E+02  0.25784114244E+02  0.26000000000E-02 0. -1.
        -13    1    1    2    0    0  0.10026873985E+02  0.12606354132E+00 -0.11176064508E+02  0.15015647981E+02  0.10570000000E+00 0.  1.
         13    1    1    2    0    0 -0.10026873985E+02 -0.12606354132E+00 -0.10706795201E+02  0.14669721534E+02  0.10570000000E+00 0. -1.
<mgrwt>
<rscale>  0 0.20058953E+02</rscale>
<asrwt>0</asrwt>
<pdfrwt beam="2">  1        2 0.39667868E-02 0.20058953E+02</pdfrwt>
<pdfrwt beam="1">  1       -2 0.60019308E-03 0.20058953E+02</pdfrwt>
<totfact> 0.42406825E+06</totfact>
</mgrwt>
</event>
<event>
 5    1  0.1607476E-006  0.2000382E+02  0.7818608E-02  0.1745252E+00
         -2   -1    0    0    0  501 -0.00000000000E+00  0.00000000000E+00  0.14272641528E+02  0.14272641765E+02  0.26000000000E-02 0. -1.
          2   -1    0    0  501    0  0.00000000000E+00 -0.00000000000E+00 -0.70090869564E+01  0.70090874386E+01  0.26000000000E-02 0.  1.
       1023    2    1    2    0    0  0.00000000000E+00  0.00000000000E+00  0.72635545713E+01  0.21281729203E+02  0.20003818957E+02 0.  0.
        -13    1    3    3    0    0  0.25021231804E+01 -0.96833038289E+01  0.36373332943E+01  0.10642760894E+02  0.10570000000E+00 0. -1.
         13    1    3    3    0    0 -0.25021231804E+01  0.96833038289E+01  0.36262212770E+01  0.10638968310E+02  0.10570000000E+00 0.  1.
<mgrwt>
<rscale>  0 0.20003819E+02</rscale>
<asrwt>0</asrwt>
<pdfrwt beam="2">  1        2 0.10783211E-02 0.20003819E+02</pdfrwt>
<pdfrwt beam="1">  1       -2 0.21957911E-02 0.20003819E+02</pdfrwt>
<totfact> 0.38426021E+06</totfact>
</mgrwt>
</event>
<event>
 4    1  0.1607476E-006  0.2003535E+02  0.7818608E-02  0.1744626E+00
          2   -1    0    0  501    0  0.00000000000E+00  0.00000000000E+00  0.17353439290E+02  0.17353439485E+02  0.26000000000E-02 0.  1.
         -2   -1    0    0    0  501 -0.00000000000E+00 -0.00000000000E+00 -0.57829337812E+01  0.57829343656E+01  0.26000000000E-02 0. -1.
        -13    1    1    2    0    0 -0.70549203769E+01  0.70885606907E+01  0.64415817341E+01  0.11896417188E+02  0.10570000000E+00 0.  1.
         13    1    1    2    0    0  0.70549203769E+01 -0.70885606907E+01  0.51289237747E+01  0.11239956662E+02  0.10570000000E+00 0. -1.
<mgrwt>
<rscale>  0 0.20035349E+02</rscale>
<asrwt>0</asrwt>
<pdfrwt beam="1">  1        2 0.26697599E-02 0.20035349E+02</pdfrwt>
<pdfrwt beam="2">  1       -2 0.88968219E-03 0.20035349E+02</pdfrwt>
<totfact> 0.41009503E+06</totfact>
</mgrwt>
</event>
<event>
 5    1  0.1607476E-006  0.2000958E+02  0.7818608E-02  0.1745138E+00
         -2   -1    0    0    0  501 -0.00000000000E+00  0.00000000000E+00  0.10732886567E+01  0.10732918059E+01  0.26000000000E-02 0.  1.
          2   -1    0    0  501    0  0.00000000000E+00 -0.00000000000E+00 -0.93260687111E+02  0.93260687147E+02  0.26000000000E-02 0. -1.
       1023    2    1    2    0    0  0.00000000000E+00  0.00000000000E+00 -0.92187398454E+02  0.94333978953E+02  0.20009576492E+02 0.  0.
        -13    1    3    3    0    0 -0.53085418565E+01 -0.84789152881E+01 -0.46610016685E+02  0.47671558072E+02  0.10570000000E+00 0.  1.
         13    1    3    3    0    0  0.53085418565E+01  0.84789152881E+01 -0.45577381769E+02  0.46662420881E+02  0.10570000000E+00 0. -1.
<mgrwt>
<rscale>  0 0.20009576E+02</rscale>
<asrwt>0</asrwt>
<pdfrwt beam="2">  1        2 0.14347792E-01 0.20009576E+02</pdfrwt>
<pdfrwt beam="1">  1       -2 0.16512165E-03 0.20009576E+02</pdfrwt>
<totfact> 0.51888929E+06</totfact>
</mgrwt>
</event>
<event>
 5    1  0.1607476E-006  0.2000932E+02  0.7818608E-02  0.1745143E+00
          2   -1    0    0  501    0  0.00000000000E+00  0.00000000000E+00  0.34925196535E+01  0.34925206213E+01  0.26000000000E-02 0. -1.
         -2   -1    0    0    0  501 -0.00000000000E+00 -0.00000000000E+00 -0.28659305710E+02  0.28659305827E+02  0.26000000000E-02 0.  1.
       1023    2    1    2    0    0  0.00000000000E+00  0.00000000000E+00 -0.25166786056E+02  0.32151826449E+02  0.20009318419E+02 0.  0.
        -13    1    3    3    0    0  0.15198087610E+01  0.98875780163E+01 -0.12727254458E+02  0.16188520507E+02  0.10570000000E+00 0.  1.
         13    1    3    3    0    0 -0.15198087610E+01 -0.98875780163E+01 -0.12439531598E+02  0.15963305941E+02  0.10570000000E+00 0. -1.
<mgrwt>
<rscale>  0 0.20009318E+02</rscale>
<asrwt>0</asrwt>
<pdfrwt beam="1">  1        2 0.53731082E-03 0.20009318E+02</pdfrwt>
<pdfrwt beam="2">  1       -2 0.44091239E-02 0.20009318E+02</pdfrwt>
<totfact> 0.36194474E+06</totfact>
</mgrwt>
</event>
<event>
 4    1  0.1607476E-006  0.2002993E+02  0.7818608E-02  0.1744734E+00
         -2   -1    0    0    0  501 -0.00000000000E+00  0.00000000000E+00  0.29499470572E+01  0.29499482029E+01  0.26000000000E-02 0.  1.
          2   -1    0    0  501    0  0.00000000000E+00 -0.00000000000E+00 -0.34000439326E+02  0.34000439426E+02  0.26000000000E-02 0. -1.
        -13    1    1    2    0    0  0.96492898020E+01  0.26600558817E+01 -0.14931315548E+02  0.17976096558E+02  0.10570000000E+00 0. -1.
         13    1    1    2    0    0 -0.96492898020E+01 -0.26600558817E+01 -0.16119176722E+02  0.18974291071E+02  0.10570000000E+00 0.  1.
<mgrwt>
<rscale>  0 0.20029929E+02</rscale>
<asrwt>0</asrwt>
<pdfrwt beam="2">  1        2 0.52308366E-02 0.20029929E+02</pdfrwt>
<pdfrwt beam="1">  1       -2 0.45383813E-03 0.20029929E+02</pdfrwt>
<totfact> 0.43849510E+06</totfact>
</mgrwt>
</event>
<event>
 5    1  0.1607476E-006  0.2000829E+02  0.7818608E-02  0.1745163E+00
         -2   -1    0    0    0  501 -0.00000000000E+00  0.00000000000E+00  0.12943795968E+01  0.12943822081E+01  0.26000000000E-02 0.  1.
          2   -1    0    0  501    0  0.00000000000E+00 -0.00000000000E+00 -0.77321054328E+02  0.77321054371E+02  0.26000000000E-02 0. -1.
       1023    2    1    2    0    0  0.00000000000E+00  0.00000000000E+00 -0.76026674731E+02  0.78615436580E+02  0.20008288231E+02 0.  0.
        -13    1    3    3    0    0  0.22217342474E+01 -0.97534294052E+01 -0.38323684190E+02  0.39607845569E+02  0.10570000000E+00 0.  1.
         13    1    3    3    0    0 -0.22217342474E+01  0.97534294052E+01 -0.37702990541E+02  0.39007591011E+02  0.10570000000E+00 0. -1.
<mgrwt>
<rscale>  0 0.20008288E+02</rscale>
<asrwt>0</asrwt>
<pdfrwt beam="2">  1        2 0.11895543E-01 0.20008288E+02</pdfrwt>
<pdfrwt beam="1">  1       -2 0.19913559E-03 0.20008288E+02</pdfrwt>
<totfact> 0.49914699E+06</totfact>
</mgrwt>
</event>
<event>
 5    1  0.1607476E-006  0.2000123E+02  0.7818608E-02  0.1745304E+00
          2   -1    0    0  501    0  0.00000000000E+00  0.00000000000E+00  0.20973793290E+02  0.20973793451E+02  0.26000000000E-02 0. -1.
         -2   -1    0    0    0  501 -0.00000000000E+00 -0.00000000000E+00 -0.47684404795E+01  0.47684411884E+01  0.26000000000E-02 0.  1.
       1023    2    1    2    0    0  0.00000000000E+00  0.00000000000E+00  0.16205352810E+02  0.25742234639E+02  0.20001229575E+02 0.  0.
        -13    1    3    3    0    0 -0.23927470762E+00 -0.99971699924E+01  0.81303819649E+01  0.12888558633E+02  0.10570000000E+00 0.  1.
         13    1    3    3    0    0  0.23927470762E+00  0.99971699924E+01  0.80749708455E+01  0.12853676007E+02  0.10570000000E+00 0. -1.
<mgrwt>
<rscale>  0 0.20001230E+02</rscale>
<asrwt>0</asrwt>
<pdfrwt beam="1">  1        2 0.32267375E-02 0.20001230E+02</pdfrwt>
<pdfrwt beam="2">  1       -2 0.73360628E-03 0.20001230E+02</pdfrwt>
<totfact> 0.41849758E+06</totfact>
</mgrwt>
</event>
<event>
 5    1  0.1607476E-006  0.2000536E+02  0.7818608E-02  0.1745222E+00
          2   -1    0    0  501    0  0.00000000000E+00  0.00000000000E+00  0.12044104920E+02  0.12044105200E+02  0.26000000000E-02 0. -1.
         -2   -1    0    0    0  501 -0.00000000000E+00 -0.00000000000E+00 -0.83072667927E+01  0.83072671996E+01  0.26000000000E-02 0.  1.
       1023    2    1    2    0    0  0.00000000000E+00  0.00000000000E+00  0.37368381269E+01  0.20351372400E+02  0.20005359266E+02 0.  0.
        -13    1    3    3    0    0 -0.21862552408E+01 -0.97602052440E+01  0.19022962392E+01  0.10181906592E+02  0.10570000000E+00 0. -1.
         13    1    3    3    0    0  0.21862552408E+01  0.97602052440E+01  0.18345418877E+01  0.10169465808E+02  0.10570000000E+00 0.  1.
<mgrwt>
<rscale>  0 0.20005359E+02</rscale>
<asrwt>0</asrwt>
<pdfrwt beam="1">  1        2 0.18529393E-02 0.20005359E+02</pdfrwt>
<pdfrwt beam="2">  1       -2 0.12780411E-02 0.20005359E+02</pdfrwt>
<totfact> 0.39985346E+06</totfact>
</mgrwt>
</event>
<event>
 4    1  0.2305904E-006  0.2003878E+02  0.7818608E-02  0.1744558E+00
          2   -1    0    0  501    0  0.00000000000E+00  0.00000000000E+00  0.11265743701E+03  0.11265743704E+03  0.26000000000E-02 0.  1.
         -2   -1    0    0    0  501 -0.00000000000E+00 -0.00000000000E+00 -0.89109043209E+00  0.89109422518E+00  0.26000000000E-02 0. -1.
        -13    1    1    2    0    0 -0.86028459752E+01 -0.51298299275E+01  0.54579956012E+02  0.55491502816E+02  0.10570000000E+00 0.  1.
         13    1    1    2    0    0  0.86028459752E+01  0.51298299275E+01  0.57186390562E+02  0.58057028446E+02  0.10570000000E+00 0. -1.
<mgrwt>
<rscale>  0 0.20038781E+02</rscale>
<asrwt>0</asrwt>
<pdfrwt beam="1">  1        2 0.17331921E-01 0.20038781E+02</pdfrwt>
<pdfrwt beam="2">  1       -2 0.13709107E-03 0.20038781E+02</pdfrwt>
<totfact> 0.54017538E+06</totfact>
</mgrwt>
</event>
<event>
 4    1  0.1607476E-006  0.2022478E+02  0.7818608E-02  0.1740895E+00
         -2   -1    0    0    0  501 -0.00000000000E+00  0.00000000000E+00  0.14125295502E+02  0.14125295741E+02  0.26000000000E-02 0.  1.
          2   -1    0    0  501    0  0.00000000000E+00 -0.00000000000E+00 -0.72395272505E+01  0.72395277174E+01  0.26000000000E-02 0. -1.
        -13    1    1    2    0    0  0.75196648640E+01 -0.67066082770E+01  0.43425618939E+01  0.10972373059E+02  0.10570000000E+00 0.  1.
         13    1    1    2    0    0 -0.75196648640E+01  0.67066082770E+01  0.25432063575E+01  0.10392450400E+02  0.10570000000E+00 0. -1.
<mgrwt>
<rscale>  0 0.20224784E+02</rscale>
<asrwt>0</asrwt>
<pdfrwt beam="2">  1        2 0.11137735E-02 0.20224784E+02</pdfrwt>
<pdfrwt beam="1">  1       -2 0.21731224E-02 0.20224784E+02</pdfrwt>
<totfact> 0.37555207E+06</totfact>
</mgrwt>
</event>
<event>
 5    1  0.1607476E-006  0.2000316E+02  0.7818608E-02  0.1745265E+00
          2   -1    0    0  501    0  0.00000000000E+00  0.00000000000E+00  0.26925591507E+02  0.26925591632E+02  0.26000000000E-02 0.  1.
         -2   -1    0    0    0  501 -0.00000000000E+00 -0.00000000000E+00 -0.37151109413E+01  0.37151118511E+01  0.26000000000E-02 0. -1.
       1023    2    1    2    0    0  0.00000000000E+00  0.00000000000E+00  0.23210480565E+02  0.30640703483E+02  0.20003157298E+02 0.  0.
        -13    1    3    3    0    0 -0.23967066966E+01 -0.97093605156E+01  0.11502274979E+02  0.15242355028E+02  0.10570000000E+00 0.  1.
         13    1    3    3    0    0  0.23967066966E+01  0.97093605156E+01  0.11708205587E+02  0.15398348456E+02  0.10570000000E+00 0. -1.
<mgrwt>
<rscale>  0 0.20003157E+02</rscale>
<asrwt>0</asrwt>
<pdfrwt beam="1">  1        2 0.41423987E-02 0.20003157E+02</pdfrwt>
<pdfrwt beam="2">  1       -2 0.57155562E-03 0.20003157E+02</pdfrwt>
<totfact> 0.42861961E+06</totfact>
</mgrwt>
</event>
<event>
 5    1  0.1607476E-006  0.2000172E+02  0.7818608E-02  0.1745294E+00
         -2   -1    0    0    0  501 -0.00000000000E+00  0.00000000000E+00  0.13212934527E+02  0.13212934783E+02  0.26000000000E-02 0. -1.
          2   -1    0    0  501    0  0.00000000000E+00 -0.00000000000E+00 -0.75696450893E+01  0.75696455358E+01  0.26000000000E-02 0.  1.
       1023    2    1    2    0    0  0.00000000000E+00  0.00000000000E+00  0.56432894379E+01  0.20782580319E+02  0.20001723152E+02 0.  0.
        -13    1    3    3    0    0 -0.47071416317E+01 -0.88231941055E+01  0.28101116568E+01  0.10388158479E+02  0.10570000000E+00 0.  1.
         13    1    3    3    0    0  0.47071416317E+01  0.88231941055E+01  0.28331777812E+01  0.10394421840E+02  0.10570000000E+00 0. -1.
<mgrwt>
<rscale>  0 0.20001723E+02</rscale>
<asrwt>0</asrwt>
<pdfrwt beam="2">  1        2 0.11645608E-02 0.20001723E+02</pdfrwt>
<pdfrwt beam="1">  1       -2 0.20327592E-02 0.20001723E+02</pdfrwt>
<totfact> 0.38656947E+06</totfact>
</mgrwt>
</event>
<event>
 4    1  0.1607476E-006  0.2002182E+02  0.7818608E-02  0.1744894E+00
         -2   -1    0    0    0  501 -0.00000000000E+00  0.00000000000E+00  0.35368824826E+01  0.35368834383E+01  0.26000000000E-02 0. -1.
          2   -1    0    0  501    0  0.00000000000E+00 -0.00000000000E+00 -0.28335216698E+02  0.28335216818E+02  0.26000000000E-02 0.  1.
        -13    1    1    2    0    0 -0.76468796502E+01  0.64447237523E+01 -0.11690931443E+02  0.15385001889E+02  0.10570000000E+00 0. -1.
         13    1    1    2    0    0  0.76468796502E+01 -0.64447237523E+01 -0.13107402772E+02  0.16487098367E+02  0.10570000000E+00 0.  1.
<mgrwt>
<rscale>  0 0.20021823E+02</rscale>
<asrwt>0</asrwt>
<pdfrwt beam="2">  1        2 0.43592640E-02 0.20021823E+02</pdfrwt>
<pdfrwt beam="1">  1       -2 0.54413587E-03 0.20021823E+02</pdfrwt>
<totfact> 0.43001436E+06</totfact>
</mgrwt>
</event>
<event>
 4    1  0.1607476E-006  0.2013338E+02  0.7818608E-02  0.1742689E+00
         -2   -1    0    0    0  501 -0.00000000000E+00  0.00000000000E+00  0.47522331042E+01  0.47522338154E+01  0.26000000000E-02 0.  1.
          2   -1    0    0  501    0  0.00000000000E+00 -0.00000000000E+00 -0.21324331267E+02  0.21324331425E+02  0.26000000000E-02 0. -1.
        -13    1    1    2    0    0  0.23914809718E+01  0.97228179639E+01 -0.96287201107E+01  0.13891572764E+02  0.10570000000E+00 0. -1.
         13    1    1    2    0    0 -0.23914809718E+01 -0.97228179639E+01 -0.69433780519E+01  0.12184992477E+02  0.10570000000E+00 0.  1.
<mgrwt>
<rscale>  0 0.20133376E+02</rscale>
<asrwt>0</asrwt>
<pdfrwt beam="2">  1        2 0.32806664E-02 0.20133376E+02</pdfrwt>
<pdfrwt beam="1">  1       -2 0.73111287E-03 0.20133376E+02</pdfrwt>
<totfact> 0.41295537E+06</totfact>
</mgrwt>
</event>
<event>
 5    1  0.1607476E-006  0.2000184E+02  0.7818608E-02  0.1745291E+00
         -2   -1    0    0    0  501 -0.00000000000E+00  0.00000000000E+00  0.76141899355E+01  0.76141903794E+01  0.26000000000E-02 0.  1.
          2   -1    0    0  501    0  0.00000000000E+00 -0.00000000000E+00 -0.13135790042E+02  0.13135790299E+02  0.26000000000E-02 0. -1.
       1023    2    1    2    0    0  0.00000000000E+00  0.00000000000E+00 -0.55216001062E+01  0.20749980678E+02  0.20001840676E+02 0.  0.
        -13    1    3    3    0    0  0.76781378452E+01  0.64072372008E+01 -0.27324692728E+01  0.10367451477E+02  0.10570000000E+00 0. -1.
         13    1    3    3    0    0 -0.76781378452E+01 -0.64072372008E+01 -0.27891308334E+01  0.10382529201E+02  0.10570000000E+00 0.  1.
<mgrwt>
<rscale>  0 0.20001841E+02</rscale>
<asrwt>0</asrwt>
<pdfrwt beam="2">  1        2 0.20208908E-02 0.20001841E+02</pdfrwt>
<pdfrwt beam="1">  1       -2 0.11714139E-02 0.20001841E+02</pdfrwt>
<totfact> 0.40264513E+06</totfact>
</mgrwt>
</event>
<event>
 5    1  0.1607476E-006  0.2000579E+02  0.7818608E-02  0.1745213E+00
          2   -1    0    0  501    0  0.00000000000E+00  0.00000000000E+00  0.11282227740E+02  0.11282228040E+02  0.26000000000E-02 0.  1.
         -2   -1    0    0    0  501 -0.00000000000E+00 -0.00000000000E+00 -0.88686301967E+01  0.88686305779E+01  0.26000000000E-02 0. -1.
       1023    2    1    2    0    0  0.00000000000E+00  0.00000000000E+00  0.24135975433E+01  0.20150858618E+02  0.20005790410E+02 0.  0.
        -13    1    3    3    0    0  0.99742127547E+01 -0.73989949689E+00  0.13275372794E+01  0.10089890934E+02  0.10570000000E+00 0. -1.
         13    1    3    3    0    0 -0.99742127547E+01  0.73989949689E+00  0.10860602639E+01  0.10060967684E+02  0.10570000000E+00 0.  1.
<mgrwt>
<rscale>  0 0.20005790E+02</rscale>
<asrwt>0</asrwt>
<pdfrwt beam="1">  1        2 0.17357274E-02 0.20005790E+02</pdfrwt>
<pdfrwt beam="2">  1       -2 0.13644047E-02 0.20005790E+02</pdfrwt>
<totfact> 0.39789171E+06</totfact>
</mgrwt>
</event>
<event>
 5    1  0.1607476E-006  0.2000147E+02  0.7818608E-02  0.1745299E+00
         -2   -1    0    0    0  501 -0.00000000000E+00  0.00000000000E+00  0.40288711486E+01  0.40288719875E+01  0.26000000000E-02 0. -1.
          2   -1    0    0  501    0  0.00000000000E+00 -0.00000000000E+00 -0.24824484229E+02  0.24824484365E+02  0.26000000000E-02 0.  1.
       1023    2    1    2    0    0  0.00000000000E+00  0.00000000000E+00 -0.20795613080E+02  0.28853356352E+02  0.20001466182E+02 0.  0.
        -13    1    3    3    0    0  0.81348387903E+01  0.58159854435E+01 -0.10330128356E+02  0.14377900165E+02  0.10570000000E+00 0. -1.
         13    1    3    3    0    0 -0.81348387903E+01 -0.58159854435E+01 -0.10465484725E+02  0.14475456187E+02  0.10570000000E+00 0.  1.
<mgrwt>
<rscale>  0 0.20001466E+02</rscale>
<asrwt>0</asrwt>
<pdfrwt beam="2">  1        2 0.38191514E-02 0.20001466E+02</pdfrwt>
<pdfrwt beam="1">  1       -2 0.61982642E-03 0.20001466E+02</pdfrwt>
<totfact> 0.42520014E+06</totfact>
</mgrwt>
</event>
<event>
 5    1  0.1607476E-006  0.2000302E+02  0.7818608E-02  0.1745268E+00
         -2   -1    0    0    0  501 -0.00000000000E+00  0.00000000000E+00  0.13909793094E+02  0.13909793337E+02  0.26000000000E-02 0.  1.
          2   -1    0    0  501    0  0.00000000000E+00 -0.00000000000E+00 -0.71913502940E+01  0.71913507640E+01  0.26000000000E-02 0. -1.
       1023    2    1    2    0    0  0.00000000000E+00  0.00000000000E+00  0.67184428002E+01  0.21101144101E+02  0.20003019990E+02 0.  0.
        -13    1    3    3    0    0  0.17476520175E+01  0.98470674186E+01  0.33567768329E+01  0.10549793719E+02  0.10570000000E+00 0.  1.
         13    1    3    3    0    0 -0.17476520175E+01 -0.98470674186E+01  0.33616659673E+01  0.10551350382E+02  0.10570000000E+00 0. -1.
<mgrwt>
<rscale>  0 0.20003020E+02</rscale>
<asrwt>0</asrwt>
<pdfrwt beam="2">  1        2 0.11063617E-02 0.20003020E+02</pdfrwt>
<pdfrwt beam="1">  1       -2 0.21399682E-02 0.20003020E+02</pdfrwt>
<totfact> 0.38503684E+06</totfact>
</mgrwt>
</event>
<event>
 4    1  0.1607476E-006  0.2001913E+02  0.7818608E-02  0.1744948E+00
          2   -1    0    0  501    0  0.00000000000E+00  0.00000000000E+00  0.44606385760E+01  0.44606393337E+01  0.26000000000E-02 0.  1.
         -2   -1    0    0    0  501 -0.00000000000E+00 -0.00000000000E+00 -0.22461227911E+02  0.22461228062E+02  0.26000000000E-02 0. -1.
        -13    1    1    2    0    0 -0.79161860636E+01 -0.61248735222E+01 -0.89821540278E+01  0.13448804442E+02  0.10570000000E+00 0.  1.
         13    1    1    2    0    0  0.79161860636E+01  0.61248735222E+01 -0.90184353075E+01  0.13473062953E+02  0.10570000000E+00 0. -1.
<mgrwt>
<rscale>  0 0.20019134E+02</rscale>
<asrwt>0</asrwt>
<pdfrwt beam="1">  1        2 0.68625217E-03 0.20019134E+02</pdfrwt>
<pdfrwt beam="2">  1       -2 0.34555735E-02 0.20019134E+02</pdfrwt>
<totfact> 0.36987432E+06</totfact>
</mgrwt>
</event>
<event>
 5    1  0.1607476E-006  0.2000236E+02  0.7818608E-02  0.1745281E+00
         -2   -1    0    0    0  501 -0.00000000000E+00  0.00000000000E+00  0.36959485412E+01  0.36959494558E+01  0.26000000000E-02 0. -1.
          2   -1    0    0  501    0  0.00000000000E+00 -0.00000000000E+00 -0.27063022029E+02  0.27063022154E+02  0.26000000000E-02 0.  1.
       1023    2    1    2    0    0  0.00000000000E+00  0.00000000000E+00 -0.23367073488E+02  0.30758971610E+02  0.20002355139E+02 0.  0.
        -13    1    3    3    0    0  0.27410262069E+01  0.96172599153E+01 -0.11816421046E+02  0.15480435774E+02  0.10570000000E+00 0. -1.
         13    1    3    3    0    0 -0.27410262069E+01 -0.96172599153E+01 -0.11550652442E+02  0.15278535835E+02  0.10570000000E+00 0.  1.
<mgrwt>
<rscale>  0 0.20002355E+02</rscale>
<asrwt>0</asrwt>
<pdfrwt beam="2">  1        2 0.41635418E-02 0.20002355E+02</pdfrwt>
<pdfrwt beam="1">  1       -2 0.56860757E-03 0.20002355E+02</pdfrwt>
<totfact> 0.42888386E+06</totfact>
</mgrwt>
</event>
<event>
 5    1  0.1607476E-006  0.2000165E+02  0.7818608E-02  0.1745295E+00
          2   -1    0    0  501    0  0.00000000000E+00  0.00000000000E+00  0.10569448772E+03  0.10569448775E+03  0.26000000000E-02 0.  1.
         -2   -1    0    0    0  501 -0.00000000000E+00 -0.00000000000E+00 -0.94627731980E+00  0.94628089168E+00  0.26000000000E-02 0. -1.
       1023    2    1    2    0    0  0.00000000000E+00  0.00000000000E+00  0.10474821040E+03  0.10664076864E+03  0.20001648804E+02 0.  0.
        -13    1    3    3    0    0  0.81089405984E+01 -0.58523321289E+01  0.52242721596E+02  0.53191332388E+02  0.10570000000E+00 0. -1.
         13    1    3    3    0    0 -0.81089405984E+01  0.58523321289E+01  0.52505488803E+02  0.53449436255E+02  0.10570000000E+00 0.  1.
<mgrwt>
<rscale>  0 0.20001649E+02</rscale>
<asrwt>0</asrwt>
<pdfrwt beam="1">  1        2 0.16260691E-01 0.20001649E+02</pdfrwt>
<pdfrwt beam="2">  1       -2 0.14558140E-03 0.20001649E+02</pdfrwt>
<totfact> 0.53424951E+06</totfact>
</mgrwt>
</event>
<event>
 4    1  0.1607476E-006  0.2005252E+02  0.7818608E-02  0.1744286E+00
         -2   -1    0    0    0  501 -0.00000000000E+00  0.00000000000E+00  0.19918178468E+02  0.19918178638E+02  0.26000000000E-02 0.  1.
          2   -1    0    0  501    0  0.00000000000E+00 -0.00000000000E+00 -0.50469407808E+01  0.50469414505E+01  0.26000000000E-02 0. -1.
        -13    1    1    2    0    0  0.99149996620E+01 -0.14291484519E+01  0.79413679220E+01  0.12783824958E+02  0.10570000000E+00 0.  1.
         13    1    1    2    0    0 -0.99149996620E+01  0.14291484519E+01  0.69298697651E+01  0.12181295130E+02  0.10570000000E+00 0. -1.
<mgrwt>
<rscale>  0 0.20052519E+02</rscale>
<asrwt>0</asrwt>
<pdfrwt beam="2">  1        2 0.77645249E-03 0.20052519E+02</pdfrwt>
<pdfrwt beam="1">  1       -2 0.30643352E-02 0.20052519E+02</pdfrwt>
<totfact> 0.37234198E+06</totfact>
</mgrwt>
</event>
<event>
 5    1  0.1607476E-006  0.2000445E+02  0.7818608E-02  0.1745240E+00
          2   -1    0    0  501    0  0.00000000000E+00  0.00000000000E+00  0.23109292983E+01  0.23109307609E+01  0.26000000000E-02 0.  1.
         -2   -1    0    0    0  501 -0.00000000000E+00 -0.00000000000E+00 -0.43291890971E+02  0.43291891049E+02  0.26000000000E-02 0. -1.
       1023    2    1    2    0    0  0.00000000000E+00  0.00000000000E+00 -0.40980961673E+02  0.45602821810E+02  0.20004452940E+02 0.  0.
        -13    1    3    3    0    0 -0.29306898639E+01 -0.95625490528E+01 -0.20386653658E+02  0.22708106643E+02  0.10570000000E+00 0.  1.
         13    1    3    3    0    0  0.29306898639E+01  0.95625490528E+01 -0.20594308015E+02  0.22894715167E+02  0.10570000000E+00 0. -1.
<mgrwt>
<rscale>  0 0.20004453E+02</rscale>
<asrwt>0</asrwt>
<pdfrwt beam="1">  1        2 0.35552773E-03 0.20004453E+02</pdfrwt>
<pdfrwt beam="2">  1       -2 0.66602904E-02 0.20004453E+02</pdfrwt>
<totfact> 0.34556269E+06</totfact>
</mgrwt>
</event>
<event>
 5    1  0.1607476E-006  0.2000119E+02  0.7818608E-02  0.1745304E+00
          2   -1    0    0  501    0  0.00000000000E+00  0.00000000000E+00  0.42962887401E+02  0.42962887480E+02  0.26000000000E-02 0. -1.
         -2   -1    0    0    0  501 -0.00000000000E+00 -0.00000000000E+00 -0.23278665263E+01  0.23278679783E+01  0.26000000000E-02 0.  1.
       1023    2    1    2    0    0  0.00000000000E+00  0.00000000000E+00  0.40635020875E+02  0.45290755458E+02  0.20001190176E+02 0.  0.
        -13    1    3    3    0    0  0.92212032558E+01 -0.38691232992E+01  0.20306179700E+02  0.22635211752E+02  0.10570000000E+00 0.  1.
         13    1    3    3    0    0 -0.92212032558E+01  0.38691232992E+01  0.20328841176E+02  0.22655543706E+02  0.10570000000E+00 0. -1.
<mgrwt>
<rscale>  0 0.20001190E+02</rscale>
<asrwt>0</asrwt>
<pdfrwt beam="1">  1        2 0.66096752E-02 0.20001190E+02</pdfrwt>
<pdfrwt beam="2">  1       -2 0.35813342E-03 0.20001190E+02</pdfrwt>
<totfact> 0.45322307E+06</totfact>
</mgrwt>
</event>
<event>
 5    1  0.1607476E-006  0.2000344E+02  0.7818608E-02  0.1745260E+00
          2   -1    0    0  501    0  0.00000000000E+00  0.00000000000E+00  0.86317036952E+02  0.86317036992E+02  0.26000000000E-02 0.  1.
         -2   -1    0    0    0  501 -0.00000000000E+00 -0.00000000000E+00 -0.11589167067E+01  0.11589196232E+01  0.26000000000E-02 0. -1.
       1023    2    1    2    0    0  0.00000000000E+00  0.00000000000E+00  0.85158120246E+02  0.87475956615E+02  0.20003438252E+02 0.  0.
        -13    1    3    3    0    0  0.65369261814E+01  0.75689414374E+01  0.42342163645E+02  0.43507358838E+02  0.10570000000E+00 0. -1.
         13    1    3    3    0    0 -0.65369261814E+01 -0.75689414374E+01  0.42815956600E+02  0.43968597777E+02  0.10570000000E+00 0.  1.
<mgrwt>
<rscale>  0 0.20003438E+02</rscale>
<asrwt>0</asrwt>
<pdfrwt beam="1">  1        2 0.13279547E-01 0.20003438E+02</pdfrwt>
<pdfrwt beam="2">  1       -2 0.17829507E-03 0.20003438E+02</pdfrwt>
<totfact> 0.51070302E+06</totfact>
</mgrwt>
</event>
<event>
 5    1  0.1607476E-006  0.2000169E+02  0.7818608E-02  0.1745295E+00
          2   -1    0    0  501    0  0.00000000000E+00  0.00000000000E+00  0.91346072852E+01  0.91346076553E+01  0.26000000000E-02 0.  1.
         -2   -1    0    0    0  501 -0.00000000000E+00 -0.00000000000E+00 -0.10949223819E+02  0.10949224128E+02  0.26000000000E-02 0. -1.
       1023    2    1    2    0    0  0.00000000000E+00  0.00000000000E+00 -0.18146165340E+01  0.20083831783E+02  0.20001686577E+02 0.  0.
        -13    1    3    3    0    0 -0.99589130047E+00  0.99503489646E+01 -0.97429050988E+00  0.10047967878E+02  0.10570000000E+00 0.  1.
         13    1    3    3    0    0  0.99589130047E+00 -0.99503489646E+01 -0.84032602417E+00  0.10035863905E+02  0.10570000000E+00 0. -1.
<mgrwt>
<rscale>  0 0.20001687E+02</rscale>
<asrwt>0</asrwt>
<pdfrwt beam="1">  1        2 0.14053243E-02 0.20001687E+02</pdfrwt>
<pdfrwt beam="2">  1       -2 0.16844960E-02 0.20001687E+02</pdfrwt>
<totfact> 0.39195122E+06</totfact>
</mgrwt>
</event>
<event>
 5    1  0.1607476E-006  0.2000206E+02  0.7818608E-02  0.1745287E+00
         -2   -1    0    0    0  501 -0.00000000000E+00  0.00000000000E+00  0.74836289115E+01  0.74836293631E+01  0.26000000000E-02 0. -1.
          2   -1    0    0  501    0  0.00000000000E+00 -0.00000000000E+00 -0.13365253713E+02  0.13365253966E+02  0.26000000000E-02 0.  1.
       1023    2    1    2    0    0  0.00000000000E+00  0.00000000000E+00 -0.58816248018E+01  0.20848883329E+02  0.20002060538E+02 0.  0.
        -13    1    3    3    0    0 -0.99613822354E+01 -0.88326241777E+00 -0.29533816863E+01  0.10427987553E+02  0.10570000000E+00 0. -1.
         13    1    3    3    0    0  0.99613822354E+01  0.88326241777E+00 -0.29282431155E+01  0.10420895776E+02  0.10570000000E+00 0.  1.
<mgrwt>
<rscale>  0 0.20002061E+02</rscale>
<asrwt>0</asrwt>
<pdfrwt beam="2">  1        2 0.20561929E-02 0.20002061E+02</pdfrwt>
<pdfrwt beam="1">  1       -2 0.11513276E-02 0.20002061E+02</pdfrwt>
<totfact> 0.40316783E+06</totfact>
</mgrwt>
</event>
<event>
 4    1  0.1607476E-006  0.2001453E+02  0.7818608E-02  0.1745039E+00
          2   -1    0    0  501    0  0.00000000000E+00  0.00000000000E+00  0.17568117582E+02  0.17568117775E+02  0.26000000000E-02 0.  1.
         -2   -1    0    0    0  501 -0.00000000000E+00 -0.00000000000E+00 -0.57004016117E+01  0.57004022046E+01  0.26000000000E-02 0. -1.
        -13    1    1    2    0    0 -0.94111702052E+01 -0.33980960168E+01  0.57823594894E+01  0.11556990738E+02  0.10570000000E+00 0.  1.
         13    1    1    2    0    0  0.94111702052E+01  0.33980960168E+01  0.60853564814E+01  0.11711529241E+02  0.10570000000E+00 0. -1.
<mgrwt>
<rscale>  0 0.20014528E+02</rscale>
<asrwt>0</asrwt>
<pdfrwt beam="1">  1        2 0.27027874E-02 0.20014528E+02</pdfrwt>
<pdfrwt beam="2">  1       -2 0.87698493E-03 0.20014528E+02</pdfrwt>
<totfact> 0.41148209E+06</totfact>
</mgrwt>
</event>
<event>
 4    1  0.1607476E-006  0.2014969E+02  0.7818608E-02  0.1742368E+00
         -2   -1    0    0    0  501 -0.00000000000E+00  0.00000000000E+00  0.66747243099E+01  0.66747248162E+01  0.26000000000E-02 0. -1.
          2   -1    0    0  501    0  0.00000000000E+00 -0.00000000000E+00 -0.15206991950E+02  0.15206992173E+02  0.26000000000E-02 0.  1.
        -13    1    1    2    0    0 -0.57536581570E+01 -0.82175924411E+01 -0.52719834698E+01  0.11333066218E+02  0.10570000000E+00 0. -1.
         13    1    1    2    0    0  0.57536581570E+01  0.82175924411E+01 -0.32602841708E+01  0.10548650771E+02  0.10570000000E+00 0.  1.
<mgrwt>
<rscale>  0 0.20149689E+02</rscale>
<asrwt>0</asrwt>
<pdfrwt beam="2">  1        2 0.23395373E-02 0.20149689E+02</pdfrwt>
<pdfrwt beam="1">  1       -2 0.10268807E-02 0.20149689E+02</pdfrwt>
<totfact> 0.40051461E+06</totfact>
</mgrwt>
</event>
<event>
 4    1  0.1607476E-006  0.2002204E+02  0.7818608E-02  0.1744890E+00
          2   -1    0    0  501    0  0.00000000000E+00  0.00000000000E+00  0.46917491035E+02  0.46917491107E+02  0.26000000000E-02 0.  1.
         -2   -1    0    0    0  501 -0.00000000000E+00 -0.00000000000E+00 -0.21361010449E+01  0.21361026273E+01  0.26000000000E-02 0. -1.
        -13    1    1    2    0    0 -0.80063189205E+01 -0.60086960684E+01  0.22541694294E+02  0.24664645249E+02  0.10570000000E+00 0. -1.
         13    1    1    2    0    0  0.80063189205E+01  0.60086960684E+01  0.22239695696E+02  0.24388948485E+02  0.10570000000E+00 0.  1.
<mgrwt>
<rscale>  0 0.20022042E+02</rscale>
<asrwt>0</asrwt>
<pdfrwt beam="1">  1        2 0.72180750E-02 0.20022042E+02</pdfrwt>
<pdfrwt beam="2">  1       -2 0.32863109E-03 0.20022042E+02</pdfrwt>
<totfact> 0.45781795E+06</totfact>
</mgrwt>
</event>
<event>
 5    1  0.1607476E-006  0.2000152E+02  0.7818608E-02  0.1745298E+00
         -2   -1    0    0    0  501 -0.00000000000E+00  0.00000000000E+00  0.52704818533E+01  0.52704824946E+01  0.26000000000E-02 0.  1.
          2   -1    0    0  501    0  0.00000000000E+00 -0.00000000000E+00 -0.18976476856E+02  0.18976477034E+02  0.26000000000E-02 0. -1.
       1023    2    1    2    0    0  0.00000000000E+00  0.00000000000E+00 -0.13705995003E+02  0.24246959529E+02  0.20001518627E+02 0.  0.
        -13    1    3    3    0    0 -0.44772113717E+01 -0.89418992615E+01 -0.68919085543E+01  0.12145474881E+02  0.10570000000E+00 0. -1.
         13    1    3    3    0    0  0.44772113717E+01  0.89418992615E+01 -0.68140864487E+01  0.12101484648E+02  0.10570000000E+00 0.  1.
<mgrwt>
<rscale>  0 0.20001519E+02</rscale>
<asrwt>0</asrwt>
<pdfrwt beam="2">  1        2 0.29194580E-02 0.20001519E+02</pdfrwt>
<pdfrwt beam="1">  1       -2 0.81084343E-03 0.20001519E+02</pdfrwt>
<totfact> 0.41480008E+06</totfact>
</mgrwt>
</event>
<event>
 5    1  0.1607476E-006  0.2000251E+02  0.7818608E-02  0.1745278E+00
          2   -1    0    0  501    0  0.00000000000E+00  0.00000000000E+00  0.10891966552E+02  0.10891966862E+02  0.26000000000E-02 0. -1.
         -2   -1    0    0    0  501 -0.00000000000E+00 -0.00000000000E+00 -0.91833845448E+01  0.91833849129E+01  0.26000000000E-02 0.  1.
       1023    2    1    2    0    0  0.00000000000E+00  0.00000000000E+00  0.17085820069E+01  0.20075351775E+02  0.20002512253E+02 0.  0.
        -13    1    3    3    0    0  0.29032684865E+01  0.95697911148E+01  0.79016995950E+00  0.10032218645E+02  0.10570000000E+00 0. -1.
         13    1    3    3    0    0 -0.29032684865E+01 -0.95697911148E+01  0.91841204737E+00  0.10043133130E+02  0.10570000000E+00 0.  1.
<mgrwt>
<rscale>  0 0.20002512E+02</rscale>
<asrwt>0</asrwt>
<pdfrwt beam="1">  1        2 0.16756872E-02 0.20002512E+02</pdfrwt>
<pdfrwt beam="2">  1       -2 0.14128285E-02 0.20002512E+02</pdfrwt>
<totfact> 0.39700494E+06</totfact>
</mgrwt>
</event>
<event>
 5    1  0.1607476E-006  0.2000288E+02  0.7818608E-02  0.1745271E+00
         -2   -1    0    0    0  501 -0.00000000000E+00  0.00000000000E+00  0.73874158080E+02  0.73874158126E+02  0.26000000000E-02 0.  1.
          2   -1    0    0  501    0  0.00000000000E+00 -0.00000000000E+00 -0.13540414302E+01  0.13540439264E+01  0.26000000000E-02 0. -1.
       1023    2    1    2    0    0  0.00000000000E+00  0.00000000000E+00  0.72520116650E+02  0.75228202052E+02  0.20002876421E+02 0.  0.
        -13    1    3    3    0    0  0.89103818334E+01  0.45400870009E+01  0.36641733651E+02  0.37982036700E+02  0.10570000000E+00 0. -1.
         13    1    3    3    0    0 -0.89103818334E+01 -0.45400870009E+01  0.35878382998E+02  0.37246165353E+02  0.10570000000E+00 0.  1.
<mgrwt>
<rscale>  0 0.20002876E+02</rscale>
<asrwt>0</asrwt>
<pdfrwt beam="2">  1        2 0.20831427E-03 0.20002876E+02</pdfrwt>
<pdfrwt beam="1">  1       -2 0.11365255E-01 0.20002876E+02</pdfrwt>
<totfact> 0.31747861E+06</totfact>
</mgrwt>
</event>
<event>
 4    1  0.1607476E-006  0.2002419E+02  0.7818608E-02  0.1744847E+00
          2   -1    0    0  501    0  0.00000000000E+00  0.00000000000E+00  0.47477329103E+02  0.47477329175E+02  0.26000000000E-02 0. -1.
         -2   -1    0    0    0  501 -0.00000000000E+00 -0.00000000000E+00 -0.21113663397E+01  0.21113679405E+01  0.26000000000E-02 0.  1.
        -13    1    1    2    0    0  0.49331682994E+01  0.87116987608E+01  0.22763561420E+02  0.24868066788E+02  0.10570000000E+00 0.  1.
         13    1    1    2    0    0 -0.49331682994E+01 -0.87116987608E+01  0.22602401344E+02  0.24720630327E+02  0.10570000000E+00 0. -1.
<mgrwt>
<rscale>  0 0.20024193E+02</rscale>
<asrwt>0</asrwt>
<pdfrwt beam="1">  1        2 0.73042049E-02 0.20024193E+02</pdfrwt>
<pdfrwt beam="2">  1       -2 0.32482571E-03 0.20024193E+02</pdfrwt>
<totfact> 0.45849877E+06</totfact>
</mgrwt>
</event>
<event>
 5    1  0.1607476E-006  0.2000172E+02  0.7818608E-02  0.1745294E+00
          2   -1    0    0  501    0  0.00000000000E+00  0.00000000000E+00  0.76743133645E+02  0.76743133689E+02  0.26000000000E-02 0.  1.
         -2   -1    0    0    0  501 -0.00000000000E+00 -0.00000000000E+00 -0.13032711113E+01  0.13032737048E+01  0.26000000000E-02 0. -1.
       1023    2    1    2    0    0  0.00000000000E+00  0.00000000000E+00  0.75439862533E+02  0.78046407393E+02  0.20001721125E+02 0.  0.
        -13    1    3    3    0    0 -0.65049590452E+01 -0.75952876282E+01  0.37939039699E+02  0.39234994483E+02  0.10570000000E+00 0. -1.
         13    1    3    3    0    0  0.65049590452E+01  0.75952876282E+01  0.37500822834E+02  0.38811412910E+02  0.10570000000E+00 0.  1.
<mgrwt>
<rscale>  0 0.20001721E+02</rscale>
<asrwt>0</asrwt>
<pdfrwt beam="1">  1        2 0.11806634E-01 0.20001721E+02</pdfrwt>
<pdfrwt beam="2">  1       -2 0.20050348E-03 0.20001721E+02</pdfrwt>
<totfact> 0.49877514E+06</totfact>
</mgrwt>
</event>
<event>
 5    1  0.1607476E-006  0.2000228E+02  0.7818608E-02  0.1745283E+00
         -2   -1    0    0    0  501 -0.00000000000E+00  0.00000000000E+00  0.54998859749E+01  0.54998865894E+01  0.26000000000E-02 0. -1.
          2   -1    0    0  501    0  0.00000000000E+00 -0.00000000000E+00 -0.18186332441E+02  0.18186332627E+02  0.26000000000E-02 0.  1.
       1023    2    1    2    0    0  0.00000000000E+00  0.00000000000E+00 -0.12686446466E+02  0.23686219216E+02  0.20002276291E+02 0.  0.
        -13    1    3    3    0    0  0.61549848754E+01 -0.78821138649E+01 -0.63363266294E+01  0.11839415756E+02  0.10570000000E+00 0.  1.
         13    1    3    3    0    0 -0.61549848754E+01  0.78821138649E+01 -0.63501198365E+01  0.11846803460E+02  0.10570000000E+00 0. -1.
<mgrwt>
<rscale>  0 0.20002276E+02</rscale>
<asrwt>0</asrwt>
<pdfrwt beam="2">  1        2 0.27978973E-02 0.20002276E+02</pdfrwt>
<pdfrwt beam="1">  1       -2 0.84613638E-03 0.20002276E+02</pdfrwt>
<totfact> 0.41325529E+06</totfact>
</mgrwt>
</event>
<event>
 4    1  0.1607476E-006  0.2013953E+02  0.7818608E-02  0.1742567E+00
          2   -1    0    0  501    0  0.00000000000E+00  0.00000000000E+00  0.35267730947E+01  0.35267740530E+01  0.26000000000E-02 0. -1.
         -2   -1    0    0    0  501 -0.00000000000E+00 -0.00000000000E+00 -0.28751542842E+02  0.28751542960E+02  0.26000000000E-02 0.  1.
        -13    1    1    2    0    0  0.12584226400E+01 -0.99272844029E+01 -0.14407453971E+02  0.17541964131E+02  0.10570000000E+00 0. -1.
         13    1    1    2    0    0 -0.12584226400E+01  0.99272844029E+01 -0.10817315777E+02  0.14736352882E+02  0.10570000000E+00 0.  1.
<mgrwt>
<rscale>  0 0.20139532E+02</rscale>
<asrwt>0</asrwt>
<pdfrwt beam="1">  1        2 0.54258058E-03 0.20139532E+02</pdfrwt>
<pdfrwt beam="2">  1       -2 0.44233142E-02 0.20139532E+02</pdfrwt>
<totfact> 0.35674817E+06</totfact>
</mgrwt>
</event>
<event>
 5    1  0.1607476E-006  0.2000327E+02  0.7818608E-02  0.1745263E+00
         -2   -1    0    0    0  501 -0.00000000000E+00  0.00000000000E+00  0.54793594180E+02  0.54793594241E+02  0.26000000000E-02 0. -1.
          2   -1    0    0  501    0  0.00000000000E+00 -0.00000000000E+00 -0.18256269960E+01  0.18256288474E+01  0.26000000000E-02 0.  1.
       1023    2    1    2    0    0  0.00000000000E+00  0.00000000000E+00  0.52967967184E+02  0.56619223089E+02  0.20003271622E+02 0.  0.
        -13    1    3    3    0    0  0.15286731423E+01 -0.98832115291E+01  0.26717987309E+02  0.28528524849E+02  0.10570000000E+00 0.  1.
         13    1    3    3    0    0 -0.15286731423E+01  0.98832115291E+01  0.26249979874E+02  0.28090698240E+02  0.10570000000E+00 0. -1.
<mgrwt>
<rscale>  0 0.20003272E+02</rscale>
<asrwt>0</asrwt>
<pdfrwt beam="2">  1        2 0.28086589E-03 0.20003272E+02</pdfrwt>
<pdfrwt beam="1">  1       -2 0.84297824E-02 0.20003272E+02</pdfrwt>
<totfact> 0.33428046E+06</totfact>
</mgrwt>
</event>
<event>
 4    1  0.1607476E-006  0.2010002E+02  0.7818608E-02  0.1743346E+00
          2   -1    0    0  501    0  0.00000000000E+00  0.00000000000E+00  0.67044466262E+02  0.67044466312E+02  0.26000000000E-02 0.  1.
         -2   -1    0    0    0  501 -0.00000000000E+00 -0.00000000000E+00 -0.15065014657E+01  0.15065037093E+01  0.26000000000E-02 0. -1.
        -13    1    1    2    0    0 -0.96816818957E+01 -0.26388064658E+01  0.30922179270E+02  0.32509854001E+02  0.10570000000E+00 0. -1.
         13    1    1    2    0    0  0.96816818957E+01  0.26388064658E+01  0.34615785526E+02  0.36041116020E+02  0.10570000000E+00 0.  1.
<mgrwt>
<rscale>  0 0.20100016E+02</rscale>
<asrwt>0</asrwt>
<pdfrwt beam="1">  1        2 0.10314533E-01 0.20100016E+02</pdfrwt>
<pdfrwt beam="2">  1       -2 0.23176965E-03 0.20100016E+02</pdfrwt>
<totfact> 0.48098148E+06</totfact>
</mgrwt>
</event>
<event>
 4    1  0.1607476E-006  0.2056719E+02  0.7818608E-02  0.1734278E+00
          2   -1    0    0  501    0  0.00000000000E+00  0.00000000000E+00  0.16348293700E+02  0.16348293907E+02  0.26000000000E-02 0. -1.
         -2   -1    0    0    0  501 -0.00000000000E+00 -0.00000000000E+00 -0.64687059302E+01  0.64687064527E+01  0.26000000000E-02 0.  1.
        -13    1    1    2    0    0  0.95918830605E+01  0.36693274213E+01  0.43601919442E+01  0.11157536944E+02  0.10570000000E+00 0.  1.
         13    1    1    2    0    0 -0.95918830605E+01 -0.36693274213E+01  0.55193958255E+01  0.11659463416E+02  0.10570000000E+00 0. -1.
<mgrwt>
<rscale>  0 0.20567189E+02</rscale>
<asrwt>0</asrwt>
<pdfrwt beam="1">  1        2 0.25151221E-02 0.20567189E+02</pdfrwt>
<pdfrwt beam="2">  1       -2 0.99518560E-03 0.20567189E+02</pdfrwt>
<totfact> 0.38451672E+06</totfact>
</mgrwt>
</event>
<event>
 5    1  0.1607476E-006  0.2000150E+02  0.7818608E-02  0.1745298E+00
          2   -1    0    0  501    0  0.00000000000E+00  0.00000000000E+00  0.82830498878E+00  0.82830906940E+00  0.26000000000E-02 0.  1.
         -2   -1    0    0    0  501 -0.00000000000E+00 -0.00000000000E+00 -0.12074634205E+03  0.12074634208E+03  0.26000000000E-02 0. -1.
       1023    2    1    2    0    0  0.00000000000E+00  0.00000000000E+00 -0.11991803706E+03  0.12157465115E+03  0.20001504668E+02 0.  0.
        -13    1    3    3    0    0 -0.57024746775E+01  0.82149597536E+01 -0.60017811309E+02  0.60845317224E+02  0.10570000000E+00 0.  1.
         13    1    3    3    0    0  0.57024746775E+01 -0.82149597536E+01 -0.59900225753E+02  0.60729333925E+02  0.10570000000E+00 0. -1.
<mgrwt>
<rscale>  0 0.20001505E+02</rscale>
<asrwt>0</asrwt>
<pdfrwt beam="1">  1        2 0.12743195E-03 0.20001505E+02</pdfrwt>
<pdfrwt beam="2">  1       -2 0.18576347E-01 0.20001505E+02</pdfrwt>
<totfact> 0.28286962E+06</totfact>
</mgrwt>
</event>
<event>
 5    1  0.1607476E-006  0.2000343E+02  0.7818608E-02  0.1745260E+00
         -2   -1    0    0    0  501 -0.00000000000E+00  0.00000000000E+00  0.18442411167E+01  0.18442429494E+01  0.26000000000E-02 0.  1.
          2   -1    0    0  501    0  0.00000000000E+00 -0.00000000000E+00 -0.54241429259E+02  0.54241429322E+02  0.26000000000E-02 0. -1.
       1023    2    1    2    0    0  0.00000000000E+00  0.00000000000E+00 -0.52397188143E+02  0.56085672271E+02  0.20003432426E+02 0.  0.
        -13    1    3    3    0    0 -0.30521633685E+01  0.95230909316E+01 -0.25820417363E+02  0.27689530285E+02  0.10570000000E+00 0.  1.
         13    1    3    3    0    0  0.30521633685E+01 -0.95230909316E+01 -0.26576770780E+02  0.28396141986E+02  0.10570000000E+00 0. -1.
<mgrwt>
<rscale>  0 0.20003432E+02</rscale>
<asrwt>0</asrwt>
<pdfrwt beam="2">  1        2 0.83448342E-02 0.20003432E+02</pdfrwt>
<pdfrwt beam="1">  1       -2 0.28372959E-03 0.20003432E+02</pdfrwt>
<totfact> 0.46897583E+06</totfact>
</mgrwt>
</event>
<event>
 5    1  0.1607476E-006  0.2000573E+02  0.7818608E-02  0.1745214E+00
         -2   -1    0    0    0  501 -0.00000000000E+00  0.00000000000E+00  0.33645421311E+02  0.33645421412E+02  0.26000000000E-02 0.  1.
          2   -1    0    0  501    0  0.00000000000E+00 -0.00000000000E+00 -0.29738748318E+01  0.29738759683E+01  0.26000000000E-02 0. -1.
       1023    2    1    2    0    0  0.00000000000E+00  0.00000000000E+00  0.30671546480E+02  0.36619297380E+02  0.20005728609E+02 0.  0.
        -13    1    3    3    0    0  0.84197288819E+01  0.53994459794E+01  0.15365876687E+02  0.18334862699E+02  0.10570000000E+00 0.  1.
         13    1    3    3    0    0 -0.84197288819E+01 -0.53994459794E+01  0.15305669793E+02  0.18284434681E+02  0.10570000000E+00 0. -1.
<mgrwt>
<rscale>  0 0.20005729E+02</rscale>
<asrwt>0</asrwt>
<pdfrwt beam="2">  1        2 0.45751931E-03 0.20005729E+02</pdfrwt>
<pdfrwt beam="1">  1       -2 0.51762187E-02 0.20005729E+02</pdfrwt>
<totfact> 0.35606547E+06</totfact>
</mgrwt>
</event>
<event>
 4    1  0.1607476E-006  0.2019518E+02  0.7818608E-02  0.1741474E+00
         -2   -1    0    0    0  501 -0.00000000000E+00  0.00000000000E+00  0.60620203418E+02  0.60620203473E+02  0.26000000000E-02 0. -1.
          2   -1    0    0  501    0  0.00000000000E+00 -0.00000000000E+00 -0.16819676500E+01  0.16819696595E+01  0.26000000000E-02 0.  1.
        -13    1    1    2    0    0  0.90114237713E+01  0.45500953874E+01  0.28844555216E+02  0.30560246474E+02  0.10570000000E+00 0. -1.
         13    1    1    2    0    0 -0.90114237713E+01 -0.45500953874E+01  0.30093680551E+02  0.31741926659E+02  0.10570000000E+00 0.  1.
<mgrwt>
<rscale>  0 0.20195176E+02</rscale>
<asrwt>0</asrwt>
<pdfrwt beam="2">  1        2 0.25876440E-03 0.20195176E+02</pdfrwt>
<pdfrwt beam="1">  1       -2 0.93261858E-02 0.20195176E+02</pdfrwt>
<totfact> 0.32212621E+06</totfact>
</mgrwt>
</event>
<event>
 4    1  0.1607476E-006  0.2030481E+02  0.7818608E-02  0.1739334E+00
         -2   -1    0    0    0  501 -0.00000000000E+00  0.00000000000E+00  0.77658058764E+02  0.77658058808E+02  0.26000000000E-02 0.  1.
          2   -1    0    0  501    0  0.00000000000E+00 -0.00000000000E+00 -0.13272448278E+01  0.13272473744E+01  0.26000000000E-02 0. -1.
        -13    1    1    2    0    0  0.56449672773E+01 -0.84233282614E+01  0.36251505162E+02  0.37643072584E+02  0.10570000000E+00 0.  1.
         13    1    1    2    0    0 -0.56449672773E+01  0.84233282614E+01  0.40079308775E+02  0.41342233598E+02  0.10570000000E+00 0. -1.
<mgrwt>
<rscale>  0 0.20304813E+02</rscale>
<asrwt>0</asrwt>
<pdfrwt beam="2">  1        2 0.20419161E-03 0.20304813E+02</pdfrwt>
<pdfrwt beam="1">  1       -2 0.11947400E-01 0.20304813E+02</pdfrwt>
<totfact> 0.30424047E+06</totfact>
</mgrwt>
</event>
<event>
 5    1  0.1607476E-006  0.2000344E+02  0.7818608E-02  0.1745260E+00
         -2   -1    0    0    0  501 -0.00000000000E+00  0.00000000000E+00  0.19940517005E+01  0.19940533955E+01  0.26000000000E-02 0.  1.
          2   -1    0    0  501    0  0.00000000000E+00 -0.00000000000E+00 -0.50166400224E+02  0.50166400291E+02  0.26000000000E-02 0. -1.
       1023    2    1    2    0    0  0.00000000000E+00  0.00000000000E+00 -0.48172348523E+02  0.52160453686E+02  0.20003443867E+02 0.  0.
        -13    1    3    3    0    0 -0.60087919956E+01  0.79941852179E+01 -0.23816563222E+02  0.25831229834E+02  0.10570000000E+00 0.  1.
         13    1    3    3    0    0  0.60087919956E+01 -0.79941852179E+01 -0.24355785301E+02  0.26329223853E+02  0.10570000000E+00 0. -1.
<mgrwt>
<rscale>  0 0.20003444E+02</rscale>
<asrwt>0</asrwt>
<pdfrwt beam="2">  1        2 0.77179069E-02 0.20003444E+02</pdfrwt>
<pdfrwt beam="1">  1       -2 0.30677736E-03 0.20003444E+02</pdfrwt>
<totfact> 0.46333584E+06</totfact>
</mgrwt>
</event>
<event>
 5    1  0.1607476E-006  0.2000154E+02  0.7818608E-02  0.1745297E+00
         -2   -1    0    0    0  501 -0.00000000000E+00  0.00000000000E+00  0.26883986976E+01  0.26883999549E+01  0.26000000000E-02 0. -1.
          2   -1    0    0  501    0  0.00000000000E+00 -0.00000000000E+00 -0.37202585352E+02  0.37202585443E+02  0.26000000000E-02 0.  1.
       1023    2    1    2    0    0  0.00000000000E+00  0.00000000000E+00 -0.34514186655E+02  0.39890985398E+02  0.20001540831E+02 0.  0.
        -13    1    3    3    0    0 -0.59941423185E+01  0.80044103130E+01 -0.17381799928E+02  0.20053390432E+02  0.10570000000E+00 0.  1.
         13    1    3    3    0    0  0.59941423185E+01 -0.80044103130E+01 -0.17132386727E+02  0.19837594966E+02  0.10570000000E+00 0. -1.
<mgrwt>
<rscale>  0 0.20001541E+02</rscale>
<asrwt>0</asrwt>
<pdfrwt beam="2">  1        2 0.57234744E-02 0.20001541E+02</pdfrwt>
<pdfrwt beam="1">  1       -2 0.41359993E-03 0.20001541E+02</pdfrwt>
<totfact> 0.44473686E+06</totfact>
</mgrwt>
</event>
<event>
 4    1  0.1607476E-006  0.2030724E+02  0.7818608E-02  0.1739286E+00
          2   -1    0    0  501    0  0.00000000000E+00  0.00000000000E+00  0.41295521399E+02  0.41295521481E+02  0.26000000000E-02 0.  1.
         -2   -1    0    0    0  501 -0.00000000000E+00 -0.00000000000E+00 -0.24965419487E+01  0.24965433026E+01  0.26000000000E-02 0. -1.
        -13    1    1    2    0    0  0.99902494996E+01  0.15067127421E+01  0.21566282673E+02  0.23815771858E+02  0.10570000000E+00 0.  1.
         13    1    1    2    0    0 -0.99902494996E+01 -0.15067127421E+01  0.17232696777E+02  0.19976292925E+02  0.10570000000E+00 0. -1.
<mgrwt>
<rscale>  0 0.20307243E+02</rscale>
<asrwt>0</asrwt>
<pdfrwt beam="1">  1        2 0.63531570E-02 0.20307243E+02</pdfrwt>
<pdfrwt beam="2">  1       -2 0.38408350E-03 0.20307243E+02</pdfrwt>
<totfact> 0.43574918E+06</totfact>
</mgrwt>
</event>
<event>
 5    1  0.1607476E-006  0.2000475E+02  0.7818608E-02  0.1745234E+00
          2   -1    0    0  501    0  0.00000000000E+00  0.00000000000E+00  0.74488133410E+01  0.74488137948E+01  0.26000000000E-02 0. -1.
         -2   -1    0    0    0  501 -0.00000000000E+00 -0.00000000000E+00 -0.13431336096E+02  0.13431336347E+02  0.26000000000E-02 0.  1.
       1023    2    1    2    0    0  0.00000000000E+00  0.00000000000E+00 -0.59825227546E+01  0.20880150142E+02  0.20004751722E+02 0.  0.
        -13    1    3    3    0    0 -0.67176329489E+01  0.74090907656E+01 -0.31196563704E+01  0.10476862449E+02  0.10570000000E+00 0.  1.
         13    1    3    3    0    0  0.67176329489E+01 -0.74090907656E+01 -0.28628663842E+01  0.10403287693E+02  0.10570000000E+00 0. -1.
<mgrwt>
<rscale>  0 0.20004752E+02</rscale>
<asrwt>0</asrwt>
<pdfrwt beam="1">  1        2 0.11459713E-02 0.20004752E+02</pdfrwt>
<pdfrwt beam="2">  1       -2 0.20663594E-02 0.20004752E+02</pdfrwt>
<totfact> 0.38597254E+06</totfact>
</mgrwt>
</event>
<event>
 5    1  0.1607476E-006  0.2000149E+02  0.7818608E-02  0.1745298E+00
          2   -1    0    0  501    0  0.00000000000E+00  0.00000000000E+00  0.29269190576E+02  0.29269190692E+02  0.26000000000E-02 0.  1.
         -2   -1    0    0    0  501 -0.00000000000E+00 -0.00000000000E+00 -0.34170711674E+01  0.34170721565E+01  0.26000000000E-02 0. -1.
       1023    2    1    2    0    0  0.00000000000E+00  0.00000000000E+00  0.25852119409E+02  0.32686262848E+02  0.20001492471E+02 0.  0.
        -13    1    3    3    0    0 -0.54411897880E+00 -0.99852790691E+01  0.12855029269E+02  0.16286952249E+02  0.10570000000E+00 0. -1.
         13    1    3    3    0    0  0.54411897880E+00  0.99852790691E+01  0.12997090140E+02  0.16399310600E+02  0.10570000000E+00 0.  1.
<mgrwt>
<rscale>  0 0.20001492E+02</rscale>
<asrwt>0</asrwt>
<pdfrwt beam="1">  1        2 0.45029525E-02 0.20001492E+02</pdfrwt>
<pdfrwt beam="2">  1       -2 0.52570334E-03 0.20001492E+02</pdfrwt>
<totfact> 0.43249594E+06</totfact>
</mgrwt>
</event>
<event>
 5    1  0.1607476E-006  0.2000193E+02  0.7818608E-02  0.1745290E+00
         -2   -1    0    0    0  501 -0.00000000000E+00  0.00000000000E+00  0.23054597940E+01  0.23054612600E+01  0.26000000000E-02 0.  1.
          2   -1    0    0  501    0  0.00000000000E+00 -0.00000000000E+00 -0.43383644856E+02  0.43383644934E+02  0.26000000000E-02 0. -1.
       1023    2    1    2    0    0  0.00000000000E+00  0.00000000000E+00 -0.41078185062E+02  0.45689106194E+02  0.20001928327E+02 0.  0.
        -13    1    3    3    0    0 -0.32553117791E+01 -0.94556563700E+01 -0.20447166683E+02  0.22761904358E+02  0.10570000000E+00 0. -1.
         13    1    3    3    0    0  0.32553117791E+01  0.94556563700E+01 -0.20631018380E+02  0.22927201836E+02  0.10570000000E+00 0.  1.
<mgrwt>
<rscale>  0 0.20001928E+02</rscale>
<asrwt>0</asrwt>
<pdfrwt beam="2">  1        2 0.66744064E-02 0.20001928E+02</pdfrwt>
<pdfrwt beam="1">  1       -2 0.35468627E-03 0.20001928E+02</pdfrwt>
<totfact> 0.45379336E+06</totfact>
</mgrwt>
</event>
<event>
 5    1  0.1607476E-006  0.2000254E+02  0.7818608E-02  0.1745278E+00
         -2   -1    0    0    0  501 -0.00000000000E+00  0.00000000000E+00  0.47672052797E+02  0.47672052868E+02  0.26000000000E-02 0.  1.
          2   -1    0    0  501    0  0.00000000000E+00 -0.00000000000E+00 -0.20981966939E+01  0.20981983048E+01  0.26000000000E-02 0. -1.
       1023    2    1    2    0    0  0.00000000000E+00  0.00000000000E+00  0.45573856103E+02  0.49770251173E+02  0.20002538381E+02 0.  0.
        -13    1    3    3    0    0 -0.47356262362E+00 -0.99888128194E+01  0.22497078920E+02  0.24619715180E+02  0.10570000000E+00 0.  1.
         13    1    3    3    0    0  0.47356262362E+00  0.99888128194E+01  0.23076777183E+02  0.25150535993E+02  0.10570000000E+00 0. -1.
<mgrwt>
<rscale>  0 0.20002538E+02</rscale>
<asrwt>0</asrwt>
<pdfrwt beam="2">  1        2 0.32279964E-03 0.20002538E+02</pdfrwt>
<pdfrwt beam="1">  1       -2 0.73341616E-02 0.20002538E+02</pdfrwt>
<totfact> 0.34118614E+06</totfact>
</mgrwt>
</event>
<event>
 4    1  0.1607476E-006  0.2001373E+02  0.7818608E-02  0.1745055E+00
         -2   -1    0    0    0  501 -0.00000000000E+00  0.00000000000E+00  0.15684962014E+01  0.15684983564E+01  0.26000000000E-02 0. -1.
          2   -1    0    0  501    0  0.00000000000E+00 -0.00000000000E+00 -0.63842856519E+02  0.63842856572E+02  0.26000000000E-02 0.  1.
        -13    1    1    2    0    0  0.46096431531E+01  0.88771931256E+01 -0.30255278358E+02  0.31866069867E+02  0.10570000000E+00 0.  1.
         13    1    1    2    0    0 -0.46096431531E+01 -0.88771931256E+01 -0.32019081959E+02  0.33545285060E+02  0.10570000000E+00 0. -1.
<mgrwt>
<rscale>  0 0.20013730E+02</rscale>
<asrwt>0</asrwt>
<pdfrwt beam="2">  1        2 0.98219761E-02 0.20013730E+02</pdfrwt>
<pdfrwt beam="1">  1       -2 0.24130733E-03 0.20013730E+02</pdfrwt>
<totfact> 0.48137695E+06</totfact>
</mgrwt>
</event>
<event>
 5    1  0.1607476E-006  0.2000721E+02  0.7818608E-02  0.1745185E+00
          2   -1    0    0  501    0  0.00000000000E+00  0.00000000000E+00  0.39009746527E+01  0.39009755192E+01  0.26000000000E-02 0. -1.
         -2   -1    0    0    0  501 -0.00000000000E+00 -0.00000000000E+00 -0.25653105392E+02  0.25653105524E+02  0.26000000000E-02 0.  1.
       1023    2    1    2    0    0  0.00000000000E+00  0.00000000000E+00 -0.21752130740E+02  0.29554081043E+02  0.20007211565E+02 0.  0.
        -13    1    3    3    0    0 -0.99396919791E+01  0.11240429402E+01 -0.10872160466E+02  0.14774166469E+02  0.10570000000E+00 0.  1.
         13    1    3    3    0    0  0.99396919791E+01 -0.11240429402E+01 -0.10879970273E+02  0.14779914574E+02  0.10570000000E+00 0. -1.
<mgrwt>
<rscale>  0 0.20007212E+02</rscale>
<asrwt>0</asrwt>
<pdfrwt beam="1">  1        2 0.60015004E-03 0.20007212E+02</pdfrwt>
<pdfrwt beam="2">  1       -2 0.39466316E-02 0.20007212E+02</pdfrwt>
<totfact> 0.36592274E+06</totfact>
</mgrwt>
</event>
<event>
 5    1  0.1611566E-006  0.2000239E+02  0.7818608E-02  0.1745280E+00
         -2   -1    0    0    0  501 -0.00000000000E+00  0.00000000000E+00  0.15964126877E+01  0.15964148049E+01  0.26000000000E-02 0. -1.
          2   -1    0    0  501    0  0.00000000000E+00 -0.00000000000E+00 -0.62655399773E+02  0.62655399827E+02  0.26000000000E-02 0.  1.
       1023    2    1    2    0    0  0.00000000000E+00  0.00000000000E+00 -0.61058987086E+02  0.64251814632E+02  0.20002394347E+02 0.  0.
        -13    1    3    3    0    0  0.21222994763E+01 -0.97726063519E+01 -0.30307352955E+02  0.31914805429E+02  0.10570000000E+00 0. -1.
         13    1    3    3    0    0 -0.21222994763E+01  0.97726063519E+01 -0.30751634131E+02  0.32337009203E+02  0.10570000000E+00 0.  1.
<mgrwt>
<rscale>  0 0.20002394E+02</rscale>
<asrwt>0</asrwt>
<pdfrwt beam="2">  1        2 0.96392905E-02 0.20002394E+02</pdfrwt>
<pdfrwt beam="1">  1       -2 0.24560217E-03 0.20002394E+02</pdfrwt>
<totfact> 0.48040429E+06</totfact>
</mgrwt>
</event>
<event>
 5    1  0.1607476E-006  0.2000538E+02  0.7818608E-02  0.1745221E+00
         -2   -1    0    0    0  501 -0.00000000000E+00  0.00000000000E+00  0.22483606661E+01  0.22483621694E+01  0.26000000000E-02 0. -1.
          2   -1    0    0  501    0  0.00000000000E+00 -0.00000000000E+00 -0.44500770030E+02  0.44500770106E+02  0.26000000000E-02 0.  1.
       1023    2    1    2    0    0  0.00000000000E+00  0.00000000000E+00 -0.42252409364E+02  0.46749132276E+02  0.20005381062E+02 0.  0.
        -13    1    3    3    0    0 -0.37265553164E+01  0.92816710420E+01 -0.21307418303E+02  0.23538349115E+02  0.10570000000E+00 0.  1.
         13    1    3    3    0    0  0.37265553164E+01 -0.92816710420E+01 -0.20944991062E+02  0.23210783160E+02  0.10570000000E+00 0. -1.
<mgrwt>
<rscale>  0 0.20005381E+02</rscale>
<asrwt>0</asrwt>
<pdfrwt beam="2">  1        2 0.68462718E-02 0.20005381E+02</pdfrwt>
<pdfrwt beam="1">  1       -2 0.34590180E-03 0.20005381E+02</pdfrwt>
<totfact> 0.45522475E+06</totfact>
</mgrwt>
</event>
<event>
 5    1  0.1607476E-006  0.2000143E+02  0.7818608E-02  0.1745300E+00
         -2   -1    0    0    0  501 -0.00000000000E+00  0.00000000000E+00  0.91573507798E+01  0.91573511489E+01  0.26000000000E-02 0.  1.
          2   -1    0    0  501    0  0.00000000000E+00 -0.00000000000E+00 -0.10921748758E+02  0.10921749068E+02  0.26000000000E-02 0. -1.
       1023    2    1    2    0    0  0.00000000000E+00  0.00000000000E+00 -0.17643979785E+01  0.20079100217E+02  0.20001429081E+02 0.  0.
        -13    1    3    3    0    0  0.78802985138E+01  0.61566192865E+01 -0.87488189326E+00  0.10038907138E+02  0.10570000000E+00 0. -1.
         13    1    3    3    0    0 -0.78802985138E+01 -0.61566192865E+01 -0.88951608522E+00  0.10040193079E+02  0.10570000000E+00 0.  1.
<mgrwt>
<rscale>  0 0.20001429E+02</rscale>
<asrwt>0</asrwt>
<pdfrwt beam="2">  1        2 0.16802691E-02 0.20001429E+02</pdfrwt>
<pdfrwt beam="1">  1       -2 0.14088233E-02 0.20001429E+02</pdfrwt>
<totfact> 0.39713402E+06</totfact>
</mgrwt>
</event>
<event>
 4    1  0.1607476E-006  0.2002093E+02  0.7818608E-02  0.1744912E+00
         -2   -1    0    0    0  501 -0.00000000000E+00  0.00000000000E+00  0.60074229458E+02  0.60074229514E+02  0.26000000000E-02 0. -1.
          2   -1    0    0  501    0  0.00000000000E+00 -0.00000000000E+00 -0.16680917856E+01  0.16680938119E+01  0.26000000000E-02 0.  1.
        -13    1    1    2    0    0  0.31526833693E+01 -0.94930194808E+01  0.30362665273E+02  0.31968100448E+02  0.10570000000E+00 0. -1.
         13    1    1    2    0    0 -0.31526833693E+01  0.94930194808E+01  0.28043472399E+02  0.29774222878E+02  0.10570000000E+00 0.  1.
<mgrwt>
<rscale>  0 0.20020928E+02</rscale>
<asrwt>0</asrwt>
<pdfrwt beam="2">  1        2 0.25662966E-03 0.20020928E+02</pdfrwt>
<pdfrwt beam="1">  1       -2 0.92421895E-02 0.20020928E+02</pdfrwt>
<totfact> 0.32878035E+06</totfact>
</mgrwt>
</event>
<event>
 5    1  0.1607476E-006  0.2000463E+02  0.7818608E-02  0.1745236E+00
          2   -1    0    0  501    0  0.00000000000E+00  0.00000000000E+00  0.18753850639E+02  0.18753850819E+02  0.26000000000E-02 0. -1.
         -2   -1    0    0    0  501 -0.00000000000E+00 -0.00000000000E+00 -0.53347075825E+01  0.53347082160E+01  0.26000000000E-02 0.  1.
       1023    2    1    2    0    0  0.00000000000E+00  0.00000000000E+00  0.13419143056E+02  0.24088559035E+02  0.20004631364E+02 0.  0.
        -13    1    3    3    0    0  0.49689367408E+01 -0.86800802807E+01  0.66711046634E+01  0.12022850574E+02  0.10570000000E+00 0.  1.
         13    1    3    3    0    0 -0.49689367408E+01  0.86800802807E+01  0.67480383928E+01  0.12065708461E+02  0.10570000000E+00 0. -1.
<mgrwt>
<rscale>  0 0.20004631E+02</rscale>
<asrwt>0</asrwt>
<pdfrwt beam="1">  1        2 0.28852079E-02 0.20004631E+02</pdfrwt>
<pdfrwt beam="2">  1       -2 0.82072431E-03 0.20004631E+02</pdfrwt>
<totfact> 0.41423252E+06</totfact>
</mgrwt>
</event>
<event>
 5    1  0.1607476E-006  0.2000178E+02  0.7818608E-02  0.1745293E+00
         -2   -1    0    0    0  501 -0.00000000000E+00  0.00000000000E+00  0.18087452229E+01  0.18087470916E+01  0.26000000000E-02 0.  1.
          2   -1    0    0  501    0  0.00000000000E+00 -0.00000000000E+00 -0.55296781805E+02  0.55296781866E+02  0.26000000000E-02 0. -1.
       1023    2    1    2    0    0  0.00000000000E+00  0.00000000000E+00 -0.53488036582E+02  0.57105528958E+02  0.20001784424E+02 0.  0.
        -13    1    3    3    0    0  0.92046407306E+01 -0.39085162221E+01 -0.26941045906E+02  0.28737310888E+02  0.10570000000E+00 0. -1.
         13    1    3    3    0    0 -0.92046407306E+01  0.39085162221E+01 -0.26546990676E+02  0.28368218070E+02  0.10570000000E+00 0.  1.
<mgrwt>
<rscale>  0 0.20001784E+02</rscale>
<asrwt>0</asrwt>
<pdfrwt beam="2">  1        2 0.85071961E-02 0.20001784E+02</pdfrwt>
<pdfrwt beam="1">  1       -2 0.27826869E-03 0.20001784E+02</pdfrwt>
<totfact> 0.47050733E+06</totfact>
</mgrwt>
</event>
<event>
 5    1  0.1607476E-006  0.2000214E+02  0.7818608E-02  0.1745286E+00
         -2   -1    0    0    0  501 -0.00000000000E+00  0.00000000000E+00  0.36289860237E+01  0.36289869551E+01  0.26000000000E-02 0. -1.
          2   -1    0    0  501    0  0.00000000000E+00 -0.00000000000E+00 -0.27561793928E+02  0.27561794051E+02  0.26000000000E-02 0.  1.
       1023    2    1    2    0    0  0.00000000000E+00  0.00000000000E+00 -0.23932807904E+02  0.31190781006E+02  0.20002138025E+02 0.  0.
        -13    1    3    3    0    0  0.52462249852E+01  0.85133708602E+01 -0.12121158616E+02  0.15714134360E+02  0.10570000000E+00 0. -1.
         13    1    3    3    0    0 -0.52462249852E+01 -0.85133708602E+01 -0.11811649288E+02  0.15476646646E+02  0.10570000000E+00 0.  1.
<mgrwt>
<rscale>  0 0.20002138E+02</rscale>
<asrwt>0</asrwt>
<pdfrwt beam="2">  1        2 0.42402759E-02 0.20002138E+02</pdfrwt>
<pdfrwt beam="1">  1       -2 0.55830564E-03 0.20002138E+02</pdfrwt>
<totfact> 0.42971005E+06</totfact>
</mgrwt>
</event>
<event>
 4    1  0.1607476E-006  0.2002048E+02  0.7818608E-02  0.1744921E+00
         -2   -1    0    0    0  501 -0.00000000000E+00  0.00000000000E+00  0.49515709429E+02  0.49515709497E+02  0.26000000000E-02 0. -1.
          2   -1    0    0  501    0  0.00000000000E+00 -0.00000000000E+00 -0.20236989212E+01  0.20237005915E+01  0.26000000000E-02 0.  1.
        -13    1    1    2    0    0  0.55566585263E+01 -0.83256899145E+01  0.23710191866E+02  0.25736704089E+02  0.10570000000E+00 0.  1.
         13    1    1    2    0    0 -0.55566585263E+01  0.83256899145E+01  0.23781818642E+02  0.25802706000E+02  0.10570000000E+00 0. -1.
<mgrwt>
<rscale>  0 0.20020483E+02</rscale>
<asrwt>0</asrwt>
<pdfrwt beam="2">  1        2 0.31133847E-03 0.20020483E+02</pdfrwt>
<pdfrwt beam="1">  1       -2 0.76178006E-02 0.20020483E+02</pdfrwt>
<totfact> 0.33870188E+06</totfact>
</mgrwt>
</event>
<event>
 5    1  0.1607476E-006  0.2000406E+02  0.7818608E-02  0.1745247E+00
         -2   -1    0    0    0  501 -0.00000000000E+00  0.00000000000E+00  0.57226593930E+01  0.57226599836E+01  0.26000000000E-02 0. -1.
          2   -1    0    0  501    0  0.00000000000E+00 -0.00000000000E+00 -0.17481479156E+02  0.17481479349E+02  0.26000000000E-02 0.  1.
       1023    2    1    2    0    0  0.00000000000E+00  0.00000000000E+00 -0.11758819763E+02  0.23204139333E+02  0.20004055588E+02 0.  0.
        -13    1    3    3    0    0  0.12946595986E+01 -0.99159462880E+01 -0.60709044492E+01  0.11699110547E+02  0.10570000000E+00 0.  1.
         13    1    3    3    0    0 -0.12946595986E+01  0.99159462880E+01 -0.56879153136E+01  0.11505028786E+02  0.10570000000E+00 0. -1.
<mgrwt>
<rscale>  0 0.20004056E+02</rscale>
<asrwt>0</asrwt>
<pdfrwt beam="2">  1        2 0.26894584E-02 0.20004056E+02</pdfrwt>
<pdfrwt beam="1">  1       -2 0.88040921E-03 0.20004056E+02</pdfrwt>
<totfact> 0.41179843E+06</totfact>
</mgrwt>
</event>
<event>
 5    1  0.1607476E-006  0.2000209E+02  0.7818608E-02  0.1745287E+00
         -2   -1    0    0    0  501 -0.00000000000E+00  0.00000000000E+00  0.19909235616E+01  0.19909252593E+01  0.26000000000E-02 0. -1.
          2   -1    0    0  501    0  0.00000000000E+00 -0.00000000000E+00 -0.50238410773E+02  0.50238410841E+02  0.26000000000E-02 0.  1.
       1023    2    1    2    0    0  0.00000000000E+00  0.00000000000E+00 -0.48247487212E+02  0.52229336100E+02  0.20002088071E+02 0.  0.
        -13    1    3    3    0    0  0.96313943944E+01  0.26908299766E+01 -0.24315366188E+02  0.26291681751E+02  0.10570000000E+00 0.  1.
         13    1    3    3    0    0 -0.96313943944E+01 -0.26908299766E+01 -0.23932121024E+02  0.25937654349E+02  0.10570000000E+00 0. -1.
<mgrwt>
<rscale>  0 0.20002088E+02</rscale>
<asrwt>0</asrwt>
<pdfrwt beam="2">  1        2 0.77289855E-02 0.20002088E+02</pdfrwt>
<pdfrwt beam="1">  1       -2 0.30629610E-03 0.20002088E+02</pdfrwt>
<totfact> 0.46350631E+06</totfact>
</mgrwt>
</event>
<event>
 5    1  0.1607476E-006  0.2000954E+02  0.7818608E-02  0.1745138E+00
          2   -1    0    0  501    0  0.00000000000E+00  0.00000000000E+00  0.75512231514E+02  0.75512231559E+02  0.26000000000E-02 0. -1.
         -2   -1    0    0    0  501 -0.00000000000E+00 -0.00000000000E+00 -0.13255511546E+01  0.13255537045E+01  0.26000000000E-02 0.  1.
       1023    2    1    2    0    0  0.00000000000E+00  0.00000000000E+00  0.74186680359E+02  0.76837785263E+02  0.20009540260E+02 0.  0.
        -13    1    3    3    0    0 -0.68447755059E+01 -0.72948421978E+01  0.37616750659E+02  0.38924244078E+02  0.10570000000E+00 0.  1.
         13    1    3    3    0    0  0.68447755059E+01  0.72948421978E+01  0.36569929700E+02  0.37913541185E+02  0.10570000000E+00 0. -1.
<mgrwt>
<rscale>  0 0.20009540E+02</rscale>
<asrwt>0</asrwt>
<pdfrwt beam="1">  1        2 0.11617265E-01 0.20009540E+02</pdfrwt>
<pdfrwt beam="2">  1       -2 0.20393117E-03 0.20009540E+02</pdfrwt>
<totfact> 0.49677563E+06</totfact>
</mgrwt>
</event>
<event>
 5    1  0.1607476E-006  0.2000462E+02  0.7818608E-02  0.1745236E+00
         -2   -1    0    0    0  501 -0.00000000000E+00  0.00000000000E+00  0.82280612945E+01  0.82280617053E+01  0.26000000000E-02 0.  1.
          2   -1    0    0  501    0  0.00000000000E+00 -0.00000000000E+00 -0.12159145734E+02  0.12159146012E+02  0.26000000000E-02 0. -1.
       1023    2    1    2    0    0  0.00000000000E+00  0.00000000000E+00 -0.39310844397E+01  0.20387207718E+02  0.20004619808E+02 0.  0.
        -13    1    3    3    0    0  0.10000881592E+02 -0.72068795954E-01 -0.18529558915E+01  0.10171894836E+02  0.10570000000E+00 0. -1.
         13    1    3    3    0    0 -0.10000881592E+02  0.72068795954E-01 -0.20781285482E+01  0.10215312882E+02  0.10570000000E+00 0.  1.
<mgrwt>
<rscale>  0 0.20004620E+02</rscale>
<asrwt>0</asrwt>
<pdfrwt beam="2">  1        2 0.18706379E-02 0.20004620E+02</pdfrwt>
<pdfrwt beam="1">  1       -2 0.12658556E-02 0.20004620E+02</pdfrwt>
<totfact> 0.40017226E+06</totfact>
</mgrwt>
</event>
<event>
 4    1  0.1607476E-006  0.2002567E+02  0.7818608E-02  0.1744818E+00
          2   -1    0    0  501    0  0.00000000000E+00  0.00000000000E+00  0.29054913348E+02  0.29054913464E+02  0.26000000000E-02 0. -1.
         -2   -1    0    0    0  501 -0.00000000000E+00 -0.00000000000E+00 -0.34506003440E+01  0.34506013236E+01  0.26000000000E-02 0.  1.
        -13    1    1    2    0    0 -0.96442234291E+01 -0.26694998574E+01  0.13336737176E+02  0.16673841969E+02  0.10570000000E+00 0.  1.
         13    1    1    2    0    0  0.96442234291E+01  0.26694998574E+01  0.12267575828E+02  0.15831672819E+02  0.10570000000E+00 0. -1.
<mgrwt>
<rscale>  0 0.20025675E+02</rscale>
<asrwt>0</asrwt>
<pdfrwt beam="1">  1        2 0.44699868E-02 0.20025675E+02</pdfrwt>
<pdfrwt beam="2">  1       -2 0.53086168E-03 0.20025675E+02</pdfrwt>
<totfact> 0.43098359E+06</totfact>
</mgrwt>
</event>
<event>
 5    1  0.1607476E-006  0.2000247E+02  0.7818608E-02  0.1745279E+00
          2   -1    0    0  501    0  0.00000000000E+00  0.00000000000E+00  0.10652542070E+02  0.10652542387E+02  0.26000000000E-02 0. -1.
         -2   -1    0    0    0  501 -0.00000000000E+00 -0.00000000000E+00 -0.93897524579E+01  0.93897528178E+01  0.26000000000E-02 0.  1.
       1023    2    1    2    0    0  0.00000000000E+00  0.00000000000E+00  0.12627896117E+01  0.20042295205E+02  0.20002473834E+02 0.  0.
        -13    1    3    3    0    0  0.85235129485E+01  0.52307095460E+01  0.57676986887E+00  0.10017705891E+02  0.10570000000E+00 0. -1.
         13    1    3    3    0    0 -0.85235129485E+01 -0.52307095460E+01  0.68601974285E+00  0.10024589314E+02  0.10570000000E+00 0.  1.
<mgrwt>
<rscale>  0 0.20002474E+02</rscale>
<asrwt>0</asrwt>
<pdfrwt beam="1">  1        2 0.16388527E-02 0.20002474E+02</pdfrwt>
<pdfrwt beam="2">  1       -2 0.14445773E-02 0.20002474E+02</pdfrwt>
<totfact> 0.39635642E+06</totfact>
</mgrwt>
</event>
<event>
 5    1  0.2422197E-006  0.2000643E+02  0.7818608E-02  0.1745200E+00
         -2   -1    0    0    0  501 -0.00000000000E+00  0.00000000000E+00  0.87169565515E+00  0.87169953264E+00  0.26000000000E-02 0.  1.
          2   -1    0    0  501    0  0.00000000000E+00 -0.00000000000E+00 -0.11479243949E+03  0.11479243952E+03  0.26000000000E-02 0. -1.
       1023    2    1    2    0    0  0.00000000000E+00  0.00000000000E+00 -0.11392074384E+03  0.11566413906E+03  0.20006428636E+02 0.  0.
        -13    1    3    3    0    0 -0.69257007247E+01 -0.72170075243E+01 -0.56665802583E+02  0.57541940209E+02  0.10570000000E+00 0.  1.
         13    1    3    3    0    0  0.69257007247E+01  0.72170075243E+01 -0.57254941255E+02  0.58122198847E+02  0.10570000000E+00 0. -1.
<mgrwt>
<rscale>  0 0.20006429E+02</rscale>
<asrwt>0</asrwt>
<pdfrwt beam="2">  1        2 0.17660364E-01 0.20006429E+02</pdfrwt>
<pdfrwt beam="1">  1       -2 0.13410742E-03 0.20006429E+02</pdfrwt>
<totfact> 0.54456843E+06</totfact>
</mgrwt>
</event>
<event>
 5    1  0.1607476E-006  0.2001090E+02  0.7818608E-02  0.1745111E+00
         -2   -1    0    0    0  501 -0.00000000000E+00  0.00000000000E+00  0.13945619556E+01  0.13945643793E+01  0.26000000000E-02 0. -1.
          2   -1    0    0  501    0  0.00000000000E+00 -0.00000000000E+00 -0.71785230403E+02  0.71785230450E+02  0.26000000000E-02 0.  1.
       1023    2    1    2    0    0  0.00000000000E+00  0.00000000000E+00 -0.70390668448E+02  0.73179794830E+02  0.20010901199E+02 0.  0.
        -13    1    3    3    0    0 -0.61972110648E+01 -0.78489351996E+01 -0.36271886274E+02  0.37625418471E+02  0.10570000000E+00 0.  1.
         13    1    3    3    0    0  0.61972110648E+01  0.78489351996E+01 -0.34118782174E+02  0.35554376359E+02  0.10570000000E+00 0. -1.
<mgrwt>
<rscale>  0 0.20010901E+02</rscale>
<asrwt>0</asrwt>
<pdfrwt beam="2">  1        2 0.11043879E-01 0.20010901E+02</pdfrwt>
<pdfrwt beam="1">  1       -2 0.21454824E-03 0.20010901E+02</pdfrwt>
<totfact> 0.49191817E+06</totfact>
</mgrwt>
</event>
<event>
 5    1  0.1607476E-006  0.2000454E+02  0.7818608E-02  0.1745238E+00
          2   -1    0    0  501    0  0.00000000000E+00  0.00000000000E+00  0.49345942465E+02  0.49345942533E+02  0.26000000000E-02 0.  1.
         -2   -1    0    0    0  501 -0.00000000000E+00 -0.00000000000E+00 -0.20274275663E+01  0.20274292334E+01  0.26000000000E-02 0. -1.
       1023    2    1    2    0    0  0.00000000000E+00  0.00000000000E+00  0.47318514898E+02  0.51373371766E+02  0.20004536347E+02 0.  0.
        -13    1    3    3    0    0 -0.50706816260E+01  0.86205885935E+01  0.23431923407E+02  0.25477295125E+02  0.10570000000E+00 0. -1.
         13    1    3    3    0    0  0.50706816260E+01 -0.86205885935E+01  0.23886591491E+02  0.25896076641E+02  0.10570000000E+00 0.  1.
<mgrwt>
<rscale>  0 0.20004536E+02</rscale>
<asrwt>0</asrwt>
<pdfrwt beam="1">  1        2 0.75916837E-02 0.20004536E+02</pdfrwt>
<pdfrwt beam="2">  1       -2 0.31191206E-03 0.20004536E+02</pdfrwt>
<totfact> 0.46213228E+06</totfact>
</mgrwt>
</event>
<event>
 4    1  0.1607476E-006  0.2004183E+02  0.7818608E-02  0.1744497E+00
         -2   -1    0    0    0  501 -0.00000000000E+00  0.00000000000E+00  0.10614535680E+02  0.10614535999E+02  0.26000000000E-02 0.  1.
          2   -1    0    0  501    0  0.00000000000E+00 -0.00000000000E+00 -0.94604965267E+01  0.94604968840E+01  0.26000000000E-02 0. -1.
        -13    1    1    2    0    0  0.49817694855E+01  0.86869708205E+01  0.22129333009E+00  0.10017067059E+02  0.10570000000E+00 0. -1.
         13    1    1    2    0    0 -0.49817694855E+01 -0.86869708205E+01  0.93274582344E+00  0.10057965823E+02  0.10570000000E+00 0.  1.
<mgrwt>
<rscale>  0 0.20041835E+02</rscale>
<asrwt>0</asrwt>
<pdfrwt beam="2">  1        2 0.14554611E-02 0.20041835E+02</pdfrwt>
<pdfrwt beam="1">  1       -2 0.16330055E-02 0.20041835E+02</pdfrwt>
<totfact> 0.39115863E+06</totfact>
</mgrwt>
</event>
<event>
 4    1  0.1607476E-006  0.2027099E+02  0.7818608E-02  0.1739992E+00
         -2   -1    0    0    0  501 -0.00000000000E+00  0.00000000000E+00  0.14437876586E+01  0.14437899997E+01  0.26000000000E-02 0. -1.
          2   -1    0    0  501    0  0.00000000000E+00 -0.00000000000E+00 -0.71151848214E+02  0.71151848261E+02  0.26000000000E-02 0.  1.
        -13    1    1    2    0    0  0.57819595209E+01  0.83208750156E+01 -0.35647241467E+02  0.37059479403E+02  0.10570000000E+00 0.  1.
         13    1    1    2    0    0 -0.57819595209E+01 -0.83208750156E+01 -0.34060819088E+02  0.35536158858E+02  0.10570000000E+00 0. -1.
<mgrwt>
<rscale>  0 0.20270989E+02</rscale>
<asrwt>0</asrwt>
<pdfrwt beam="2">  1        2 0.10946436E-01 0.20270989E+02</pdfrwt>
<pdfrwt beam="1">  1       -2 0.22212142E-03 0.20270989E+02</pdfrwt>
<totfact> 0.47722178E+06</totfact>
</mgrwt>
</event>
<event>
 5    1  0.1607476E-006  0.2000269E+02  0.7818608E-02  0.1745275E+00
          2   -1    0    0  501    0  0.00000000000E+00  0.00000000000E+00  0.15531886225E+01  0.15531907986E+01  0.26000000000E-02 0.  1.
         -2   -1    0    0    0  501 -0.00000000000E+00 -0.00000000000E+00 -0.64400947400E+02  0.64400947452E+02  0.26000000000E-02 0. -1.
       1023    2    1    2    0    0  0.00000000000E+00  0.00000000000E+00 -0.62847758777E+02  0.65954138251E+02  0.20002689046E+02 0.  0.
        -13    1    3    3    0    0  0.55447045449E+01 -0.83227664689E+01 -0.31227987656E+02  0.32790403714E+02  0.10570000000E+00 0.  1.
         13    1    3    3    0    0 -0.55447045449E+01  0.83227664689E+01 -0.31619771121E+02  0.33163734537E+02  0.10570000000E+00 0. -1.
<mgrwt>
<rscale>  0 0.20002689E+02</rscale>
<asrwt>0</asrwt>
<pdfrwt beam="1">  1        2 0.23895232E-03 0.20002689E+02</pdfrwt>
<pdfrwt beam="2">  1       -2 0.99078361E-02 0.20002689E+02</pdfrwt>
<totfact> 0.32557541E+06</totfact>
</mgrwt>
</event>
<event>
 5    1  0.1607476E-006  0.2000765E+02  0.7818608E-02  0.1745176E+00
         -2   -1    0    0    0  501 -0.00000000000E+00  0.00000000000E+00  0.23933697807E+02  0.23933697948E+02  0.26000000000E-02 0.  1.
          2   -1    0    0  501    0  0.00000000000E+00 -0.00000000000E+00 -0.41814056246E+01  0.41814064329E+01  0.26000000000E-02 0. -1.
       1023    2    1    2    0    0  0.00000000000E+00  0.00000000000E+00  0.19752292182E+02  0.28115104381E+02  0.20007649735E+02 0.  0.
        -13    1    3    3    0    0 -0.52138269607E+01  0.85353942490E+01  0.10112928088E+02  0.14223903598E+02  0.10570000000E+00 0.  1.
         13    1    3    3    0    0  0.52138269607E+01 -0.85353942490E+01  0.96393640948E+01  0.13891200783E+02  0.10570000000E+00 0. -1.
<mgrwt>
<rscale>  0 0.20007650E+02</rscale>
<asrwt>0</asrwt>
<pdfrwt beam="2">  1        2 0.64329323E-03 0.20007650E+02</pdfrwt>
<pdfrwt beam="1">  1       -2 0.36821075E-02 0.20007650E+02</pdfrwt>
<totfact> 0.36824825E+06</totfact>
</mgrwt>
</event>
<event>
 4    1  0.1607476E-006  0.2009646E+02  0.7818608E-02  0.1743417E+00
          2   -1    0    0  501    0  0.00000000000E+00  0.00000000000E+00  0.36696964121E+01  0.36696973332E+01  0.26000000000E-02 0. -1.
         -2   -1    0    0    0  501 -0.00000000000E+00 -0.00000000000E+00 -0.27513683735E+02  0.27513683858E+02  0.26000000000E-02 0.  1.
        -13    1    1    2    0    0 -0.65459247913E+01 -0.76167338455E+01 -0.11451486283E+02  0.15231922939E+02  0.10570000000E+00 0. -1.
         13    1    1    2    0    0  0.65459247913E+01  0.76167338455E+01 -0.12392501040E+02  0.15951458252E+02  0.10570000000E+00 0.  1.
<mgrwt>
<rscale>  0 0.20096456E+02</rscale>
<asrwt>0</asrwt>
<pdfrwt beam="1">  1        2 0.56456878E-03 0.20096456E+02</pdfrwt>
<pdfrwt beam="2">  1       -2 0.42328744E-02 0.20096456E+02</pdfrwt>
<totfact> 0.35997793E+06</totfact>
</mgrwt>
</event>
<event>
 5    1  0.1607476E-006  0.2000469E+02  0.7818608E-02  0.1745235E+00
         -2   -1    0    0    0  501 -0.00000000000E+00  0.00000000000E+00  0.75310436013E+02  0.75310436058E+02  0.26000000000E-02 0. -1.
          2   -1    0    0  501    0  0.00000000000E+00 -0.00000000000E+00 -0.13284581132E+01  0.13284606575E+01  0.26000000000E-02 0.  1.
       1023    2    1    2    0    0  0.00000000000E+00  0.00000000000E+00  0.73981977900E+02  0.76638896716E+02  0.20004685346E+02 0.  0.
        -13    1    3    3    0    0 -0.94873917250E+01  0.31609572576E+01  0.36290483964E+02  0.37643228493E+02  0.10570000000E+00 0. -1.
         13    1    3    3    0    0  0.94873917250E+01 -0.31609572576E+01  0.37691493936E+02  0.38995668223E+02  0.10570000000E+00 0.  1.
<mgrwt>
<rscale>  0 0.20004685E+02</rscale>
<asrwt>0</asrwt>
<pdfrwt beam="2">  1        2 0.20437836E-03 0.20004685E+02</pdfrwt>
<pdfrwt beam="1">  1       -2 0.11586222E-01 0.20004685E+02</pdfrwt>
<totfact> 0.31622855E+06</totfact>
</mgrwt>
</event>
<event>
 4    1  0.1607476E-006  0.2009476E+02  0.7818608E-02  0.1743450E+00
          2   -1    0    0  501    0  0.00000000000E+00  0.00000000000E+00  0.33612665140E+01  0.33612675196E+01  0.26000000000E-02 0.  1.
         -2   -1    0    0    0  501 -0.00000000000E+00 -0.00000000000E+00 -0.30033273895E+02  0.30033274008E+02  0.26000000000E-02 0. -1.
        -13    1    1    2    0    0 -0.27167981178E+01 -0.96306579767E+01 -0.14829933808E+02  0.17890463222E+02  0.10570000000E+00 0.  1.
         13    1    1    2    0    0  0.27167981178E+01  0.96306579767E+01 -0.11842073573E+02  0.15504078305E+02  0.10570000000E+00 0. -1.
<mgrwt>
<rscale>  0 0.20094761E+02</rscale>
<asrwt>0</asrwt>
<pdfrwt beam="1">  1        2 0.51711803E-03 0.20094761E+02</pdfrwt>
<pdfrwt beam="2">  1       -2 0.46205036E-02 0.20094761E+02</pdfrwt>
<totfact> 0.35690495E+06</totfact>
</mgrwt>
</event>
<event>
 5    1  0.1607476E-006  0.2000129E+02  0.7818608E-02  0.1745302E+00
          2   -1    0    0  501    0  0.00000000000E+00  0.00000000000E+00  0.14212537040E+01  0.14212560822E+01  0.26000000000E-02 0.  1.
         -2   -1    0    0    0  501 -0.00000000000E+00 -0.00000000000E+00 -0.70369425590E+02  0.70369425638E+02  0.26000000000E-02 0. -1.
       1023    2    1    2    0    0  0.00000000000E+00  0.00000000000E+00 -0.68948171886E+02  0.71790681720E+02  0.20001289344E+02 0.  0.
        -13    1    3    3    0    0 -0.89901673371E+01 -0.43791692295E+01 -0.34335561240E+02  0.35762300962E+02  0.10570000000E+00 0. -1.
         13    1    3    3    0    0  0.89901673371E+01  0.43791692295E+01 -0.34612610645E+02  0.36028380758E+02  0.10570000000E+00 0.  1.
<mgrwt>
<rscale>  0 0.20001289E+02</rscale>
<asrwt>0</asrwt>
<pdfrwt beam="1">  1        2 0.21865466E-03 0.20001289E+02</pdfrwt>
<pdfrwt beam="2">  1       -2 0.10826063E-01 0.20001289E+02</pdfrwt>
<totfact> 0.32047379E+06</totfact>
</mgrwt>
</event>
<event>
 5    1  0.1611962E-006  0.2000134E+02  0.7818608E-02  0.1745301E+00
         -2   -1    0    0    0  501 -0.00000000000E+00  0.00000000000E+00  0.12992339238E+01  0.12992365254E+01  0.26000000000E-02 0.  1.
          2   -1    0    0  501    0  0.00000000000E+00 -0.00000000000E+00 -0.76978683869E+02  0.76978683913E+02  0.26000000000E-02 0. -1.
       1023    2    1    2    0    0  0.00000000000E+00  0.00000000000E+00 -0.75679449945E+02  0.78277920438E+02  0.20001342058E+02 0.  0.
        -13    1    3    3    0    0  0.15320435522E+01 -0.98819625961E+01 -0.37668848909E+02  0.38973756462E+02  0.10570000000E+00 0. -1.
         13    1    3    3    0    0 -0.15320435522E+01  0.98819625961E+01 -0.38010601037E+02  0.39304163976E+02  0.10570000000E+00 0.  1.
<mgrwt>
<rscale>  0 0.20001342E+02</rscale>
<asrwt>0</asrwt>
<pdfrwt beam="2">  1        2 0.11842871E-01 0.20001342E+02</pdfrwt>
<pdfrwt beam="1">  1       -2 0.19988241E-03 0.20001342E+02</pdfrwt>
<totfact> 0.49909571E+06</totfact>
</mgrwt>
</event>
<event>
 5    1  0.1607476E-006  0.2000139E+02  0.7818608E-02  0.1745300E+00
         -2   -1    0    0    0  501 -0.00000000000E+00  0.00000000000E+00  0.71974107535E+02  0.71974107582E+02  0.26000000000E-02 0. -1.
          2   -1    0    0  501    0  0.00000000000E+00 -0.00000000000E+00 -0.13895806728E+01  0.13895831051E+01  0.26000000000E-02 0.  1.
       1023    2    1    2    0    0  0.00000000000E+00  0.00000000000E+00  0.70584526862E+02  0.73363690687E+02  0.20001391923E+02 0.  0.
        -13    1    3    3    0    0 -0.68536527541E+01 -0.72821665385E+01  0.35349282820E+02  0.36736704724E+02  0.10570000000E+00 0.  1.
         13    1    3    3    0    0  0.68536527541E+01  0.72821665385E+01  0.35235244042E+02  0.36626985963E+02  0.10570000000E+00 0. -1.
<mgrwt>
<rscale>  0 0.20001392E+02</rscale>
<asrwt>0</asrwt>
<pdfrwt beam="2">  1        2 0.21378187E-03 0.20001392E+02</pdfrwt>
<pdfrwt beam="1">  1       -2 0.11072938E-01 0.20001392E+02</pdfrwt>
<totfact> 0.31911681E+06</totfact>
</mgrwt>
</event>
<event>
 5    1  0.1607476E-006  0.2000157E+02  0.7818608E-02  0.1745297E+00
         -2   -1    0    0    0  501 -0.00000000000E+00  0.00000000000E+00  0.10666477332E+02  0.10666477649E+02  0.26000000000E-02 0. -1.
          2   -1    0    0  501    0  0.00000000000E+00 -0.00000000000E+00 -0.93766407263E+01  0.93766410868E+01  0.26000000000E-02 0.  1.
       1023    2    1    2    0    0  0.00000000000E+00  0.00000000000E+00  0.12898366061E+01  0.20043118736E+02  0.20001573193E+02 0.  0.
        -13    1    3    3    0    0 -0.15474190742E+01  0.98797767401E+01  0.63678756012E+00  0.10021036130E+02  0.10570000000E+00 0. -1.
         13    1    3    3    0    0  0.15474190742E+01 -0.98797767401E+01  0.65304904601E+00  0.10022082607E+02  0.10570000000E+00 0.  1.
<mgrwt>
<rscale>  0 0.20001573E+02</rscale>
<asrwt>0</asrwt>
<pdfrwt beam="2">  1        2 0.14425602E-02 0.20001573E+02</pdfrwt>
<pdfrwt beam="1">  1       -2 0.16409966E-02 0.20001573E+02</pdfrwt>
<totfact> 0.39270649E+06</totfact>
</mgrwt>
</event>
<event>
 5    1  0.1607476E-006  0.2000302E+02  0.7818608E-02  0.1745268E+00
          2   -1    0    0  501    0  0.00000000000E+00  0.00000000000E+00  0.14812399682E+01  0.14812422500E+01  0.26000000000E-02 0. -1.
         -2   -1    0    0    0  501 -0.00000000000E+00 -0.00000000000E+00 -0.67531343117E+02  0.67531343167E+02  0.26000000000E-02 0.  1.
       1023    2    1    2    0    0  0.00000000000E+00  0.00000000000E+00 -0.66050103149E+02  0.69012585417E+02  0.20003020272E+02 0.  0.
        -13    1    3    3    0    0  0.22712210998E-01  0.10000118180E+02 -0.33463541793E+02  0.34925959990E+02  0.10570000000E+00 0. -1.
         13    1    3    3    0    0 -0.22712210998E-01 -0.10000118180E+02 -0.32586561357E+02  0.34086625427E+02  0.10570000000E+00 0.  1.
<mgrwt>
<rscale>  0 0.20003020E+02</rscale>
<asrwt>0</asrwt>
<pdfrwt beam="1">  1        2 0.22788330E-03 0.20003020E+02</pdfrwt>
<pdfrwt beam="2">  1       -2 0.10389435E-01 0.20003020E+02</pdfrwt>
<totfact> 0.32283827E+06</totfact>
</mgrwt>
</event>
<event>
 5    1  0.1616433E-006  0.2000389E+02  0.7818608E-02  0.1745251E+00
          2   -1    0    0  501    0  0.00000000000E+00  0.00000000000E+00  0.69988506971E+02  0.69988507019E+02  0.26000000000E-02 0. -1.
         -2   -1    0    0    0  501 -0.00000000000E+00 -0.00000000000E+00 -0.14293605517E+01  0.14293629164E+01  0.26000000000E-02 0.  1.
       1023    2    1    2    0    0  0.00000000000E+00  0.00000000000E+00  0.68559146419E+02  0.71417869936E+02  0.20003889332E+02 0.  0.
        -13    1    3    3    0    0 -0.78506935054E+01 -0.61960379010E+01  0.34489287793E+02  0.35910255069E+02  0.10570000000E+00 0. -1.
         13    1    3    3    0    0  0.78506935054E+01  0.61960379010E+01  0.34069858626E+02  0.35507614866E+02  0.10570000000E+00 0.  1.
<mgrwt>
<rscale>  0 0.20003889E+02</rscale>
<asrwt>0</asrwt>
<pdfrwt beam="1">  1        2 0.10767461E-01 0.20003889E+02</pdfrwt>
<pdfrwt beam="2">  1       -2 0.21990184E-03 0.20003889E+02</pdfrwt>
<totfact> 0.48997195E+06</totfact>
</mgrwt>
</event>
<event>
 5    1  0.1607476E-006  0.2000162E+02  0.7818608E-02  0.1745296E+00
         -2   -1    0    0    0  501 -0.00000000000E+00  0.00000000000E+00  0.14269445997E+02  0.14269446234E+02  0.26000000000E-02 0.  1.
          2   -1    0    0  501    0  0.00000000000E+00 -0.00000000000E+00 -0.70091126458E+01  0.70091131280E+01  0.26000000000E-02 0. -1.
       1023    2    1    2    0    0  0.00000000000E+00  0.00000000000E+00  0.72603333509E+01  0.21278559362E+02  0.20001616138E+02 0.  0.
        -13    1    3    3    0    0 -0.93844302704E+01  0.34549562087E+01  0.36590209412E+01  0.10649124877E+02  0.10570000000E+00 0.  1.
         13    1    3    3    0    0  0.93844302704E+01 -0.34549562087E+01  0.36013124097E+01  0.10629434485E+02  0.10570000000E+00 0. -1.
<mgrwt>
<rscale>  0 0.20001616E+02</rscale>
<asrwt>0</asrwt>
<pdfrwt beam="2">  1        2 0.10783251E-02 0.20001616E+02</pdfrwt>
<pdfrwt beam="1">  1       -2 0.21952994E-02 0.20001616E+02</pdfrwt>
<totfact> 0.38435796E+06</totfact>
</mgrwt>
</event>
<event>
 5    1  0.1607476E-006  0.2000255E+02  0.7818608E-02  0.1745277E+00
         -2   -1    0    0    0  501 -0.00000000000E+00  0.00000000000E+00  0.15562196660E+01  0.15562218380E+01  0.26000000000E-02 0.  1.
          2   -1    0    0  501    0  0.00000000000E+00 -0.00000000000E+00 -0.64274650160E+02  0.64274650213E+02  0.26000000000E-02 0. -1.
       1023    2    1    2    0    0  0.00000000000E+00  0.00000000000E+00 -0.62718430494E+02  0.65830872051E+02  0.20002554620E+02 0.  0.
        -13    1    3    3    0    0 -0.98981625757E+01 -0.14283468462E+01 -0.31438356307E+02  0.32990835347E+02  0.10570000000E+00 0.  1.
         13    1    3    3    0    0  0.98981625757E+01  0.14283468462E+01 -0.31280074187E+02  0.32840036704E+02  0.10570000000E+00 0. -1.
<mgrwt>
<rscale>  0 0.20002555E+02</rscale>
<asrwt>0</asrwt>
<pdfrwt beam="2">  1        2 0.98884058E-02 0.20002555E+02</pdfrwt>
<pdfrwt beam="1">  1       -2 0.23941863E-03 0.20002555E+02</pdfrwt>
<totfact> 0.48254673E+06</totfact>
</mgrwt>
</event>
<event>
 4    1  0.1607476E-006  0.2002582E+02  0.7818608E-02  0.1744815E+00
          2   -1    0    0  501    0  0.00000000000E+00  0.00000000000E+00  0.37667234204E+01  0.37667243177E+01  0.26000000000E-02 0.  1.
         -2   -1    0    0    0  501 -0.00000000000E+00 -0.00000000000E+00 -0.26616870469E+02  0.26616870596E+02  0.26000000000E-02 0. -1.
        -13    1    1    2    0    0  0.36045683834E+01 -0.93299752838E+01 -0.10736649074E+02  0.14674064122E+02  0.10570000000E+00 0.  1.
         13    1    1    2    0    0 -0.36045683834E+01  0.93299752838E+01 -0.12113497974E+02  0.15709530791E+02  0.10570000000E+00 0. -1.
<mgrwt>
<rscale>  0 0.20025824E+02</rscale>
<asrwt>0</asrwt>
<pdfrwt beam="1">  1        2 0.57949601E-03 0.20025824E+02</pdfrwt>
<pdfrwt beam="2">  1       -2 0.40949031E-02 0.20025824E+02</pdfrwt>
<totfact> 0.36391099E+06</totfact>
</mgrwt>
</event>
<event>
 5    1  0.1607476E-006  0.2001135E+02  0.7818608E-02  0.1745103E+00
         -2   -1    0    0    0  501 -0.00000000000E+00  0.00000000000E+00  0.15741963622E+01  0.15741985093E+01  0.26000000000E-02 0. -1.
          2   -1    0    0  501    0  0.00000000000E+00 -0.00000000000E+00 -0.63596525601E+02  0.63596525654E+02  0.26000000000E-02 0.  1.
       1023    2    1    2    0    0  0.00000000000E+00  0.00000000000E+00 -0.62022329239E+02  0.65170724164E+02  0.20011345876E+02 0.  0.
        -13    1    3    3    0    0  0.92200628314E+01  0.38780535691E+01 -0.31764159749E+02  0.33301980048E+02  0.10570000000E+00 0. -1.
         13    1    3    3    0    0 -0.92200628314E+01 -0.38780535691E+01 -0.30258169490E+02  0.31868744115E+02  0.10570000000E+00 0.  1.
<mgrwt>
<rscale>  0 0.20011346E+02</rscale>
<asrwt>0</asrwt>
<pdfrwt beam="2">  1        2 0.97840790E-02 0.20011346E+02</pdfrwt>
<pdfrwt beam="1">  1       -2 0.24218427E-03 0.20011346E+02</pdfrwt>
<totfact> 0.48117768E+06</totfact>
</mgrwt>
</event>
<event>
 5    1  0.1607476E-006  0.2000272E+02  0.7818608E-02  0.1745274E+00
          2   -1    0    0  501    0  0.00000000000E+00  0.00000000000E+00  0.17480367644E+01  0.17480386980E+01  0.26000000000E-02 0. -1.
         -2   -1    0    0    0  501 -0.00000000000E+00 -0.00000000000E+00 -0.57222543596E+02  0.57222543655E+02  0.26000000000E-02 0.  1.
       1023    2    1    2    0    0  0.00000000000E+00  0.00000000000E+00 -0.55474506832E+02  0.58970582353E+02  0.20002716687E+02 0.  0.
        -13    1    3    3    0    0  0.39137234658E+01 -0.92023633594E+01 -0.27372906445E+02  0.29142544544E+02  0.10570000000E+00 0. -1.
         13    1    3    3    0    0 -0.39137234658E+01  0.92023633594E+01 -0.28101600387E+02  0.29828037810E+02  0.10570000000E+00 0.  1.
<mgrwt>
<rscale>  0 0.20002717E+02</rscale>
<asrwt>0</asrwt>
<pdfrwt beam="1">  1        2 0.26892893E-03 0.20002717E+02</pdfrwt>
<pdfrwt beam="2">  1       -2 0.88034670E-02 0.20002717E+02</pdfrwt>
<totfact> 0.33204137E+06</totfact>
</mgrwt>
</event>
<event>
 5    1  0.1607476E-006  0.2000197E+02  0.7818608E-02  0.1745289E+00
          2   -1    0    0  501    0  0.00000000000E+00  0.00000000000E+00  0.14424584164E+01  0.14424607596E+01  0.26000000000E-02 0.  1.
         -2   -1    0    0    0  501 -0.00000000000E+00 -0.00000000000E+00 -0.69339714146E+02  0.69339714195E+02  0.26000000000E-02 0. -1.
       1023    2    1    2    0    0  0.00000000000E+00  0.00000000000E+00 -0.67897255730E+02  0.70782174954E+02  0.20001973794E+02 0.  0.
        -13    1    3    3    0    0 -0.89071554327E+01  0.45457629578E+01 -0.33648611724E+02  0.35103299307E+02  0.10570000000E+00 0. -1.
         13    1    3    3    0    0  0.89071554327E+01 -0.45457629578E+01 -0.34248644006E+02  0.35678875648E+02  0.10570000000E+00 0.  1.
<mgrwt>
<rscale>  0 0.20001974E+02</rscale>
<asrwt>0</asrwt>
<pdfrwt beam="1">  1        2 0.22191692E-03 0.20001974E+02</pdfrwt>
<pdfrwt beam="2">  1       -2 0.10667646E-01 0.20001974E+02</pdfrwt>
<totfact> 0.32132491E+06</totfact>
</mgrwt>
</event>
<event>
 5    1  0.1607476E-006  0.2000516E+02  0.7818608E-02  0.1745225E+00
          2   -1    0    0  501    0  0.00000000000E+00  0.00000000000E+00  0.17160277004E+02  0.17160277201E+02  0.26000000000E-02 0.  1.
         -2   -1    0    0    0  501 -0.00000000000E+00 -0.00000000000E+00 -0.58304210058E+01  0.58304215855E+01  0.26000000000E-02 0. -1.
       1023    2    1    2    0    0  0.00000000000E+00  0.00000000000E+00  0.11329855999E+02  0.22990698787E+02  0.20005164177E+02 0.  0.
        -13    1    3    3    0    0  0.83721879400E+01  0.54706239553E+01  0.55056078190E+01  0.11416836134E+02  0.10570000000E+00 0.  1.
         13    1    3    3    0    0 -0.83721879400E+01 -0.54706239553E+01  0.58242481796E+01  0.11573862653E+02  0.10570000000E+00 0. -1.
<mgrwt>
<rscale>  0 0.20005164E+02</rscale>
<asrwt>0</asrwt>
<pdfrwt beam="1">  1        2 0.26400427E-02 0.20005164E+02</pdfrwt>
<pdfrwt beam="2">  1       -2 0.89698791E-03 0.20005164E+02</pdfrwt>
<totfact> 0.41111149E+06</totfact>
</mgrwt>
</event>
<event>
 5    1  0.1607476E-006  0.2000545E+02  0.7818608E-02  0.1745220E+00
          2   -1    0    0  501    0  0.00000000000E+00  0.00000000000E+00  0.33943587361E+01  0.33943597319E+01  0.26000000000E-02 0. -1.
         -2   -1    0    0    0  501 -0.00000000000E+00 -0.00000000000E+00 -0.29476685638E+02  0.29476685752E+02  0.26000000000E-02 0.  1.
       1023    2    1    2    0    0  0.00000000000E+00  0.00000000000E+00 -0.26082326901E+02  0.32871045484E+02  0.20005445624E+02 0.  0.
        -13    1    3    3    0    0  0.73959213365E+01  0.67337535407E+01 -0.13064516641E+02  0.16454052896E+02  0.10570000000E+00 0.  1.
         13    1    3    3    0    0 -0.73959213365E+01 -0.67337535407E+01 -0.13017810261E+02  0.16416992588E+02  0.10570000000E+00 0. -1.
<mgrwt>
<rscale>  0 0.20005446E+02</rscale>
<asrwt>0</asrwt>
<pdfrwt beam="1">  1        2 0.52220914E-03 0.20005446E+02</pdfrwt>
<pdfrwt beam="2">  1       -2 0.45348746E-02 0.20005446E+02</pdfrwt>
<totfact> 0.36107581E+06</totfact>
</mgrwt>
</event>
<event>
 4    1  0.1607476E-006  0.2002185E+02  0.7818608E-02  0.1744894E+00
          2   -1    0    0  501    0  0.00000000000E+00  0.00000000000E+00  0.25457656208E+02  0.25457656341E+02  0.26000000000E-02 0.  1.
         -2   -1    0    0    0  501 -0.00000000000E+00 -0.00000000000E+00 -0.39366773459E+01  0.39366782045E+01  0.26000000000E-02 0. -1.
        -13    1    1    2    0    0 -0.15982037741E+01  0.98796707156E+01  0.10448116509E+02  0.14468464322E+02  0.10570000000E+00 0.  1.
         13    1    1    2    0    0  0.15982037741E+01 -0.98796707156E+01  0.11072862353E+02  0.14925870224E+02  0.10570000000E+00 0. -1.
<mgrwt>
<rscale>  0 0.20021847E+02</rscale>
<asrwt>0</asrwt>
<pdfrwt beam="1">  1        2 0.39165626E-02 0.20021847E+02</pdfrwt>
<pdfrwt beam="2">  1       -2 0.60564273E-03 0.20021847E+02</pdfrwt>
<totfact> 0.42529138E+06</totfact>
</mgrwt>
</event>
<event>
 4    1  0.1607476E-006  0.2011522E+02  0.7818608E-02  0.1743046E+00
         -2   -1    0    0    0  501 -0.00000000000E+00  0.00000000000E+00  0.67783272770E+01  0.67783277757E+01  0.26000000000E-02 0.  1.
          2   -1    0    0  501    0  0.00000000000E+00 -0.00000000000E+00 -0.14923378372E+02  0.14923378599E+02  0.26000000000E-02 0. -1.
        -13    1    1    2    0    0  0.95445950906E+01 -0.31507243286E+01 -0.37018920444E+01  0.10711747590E+02  0.10570000000E+00 0. -1.
         13    1    1    2    0    0 -0.95445950906E+01  0.31507243286E+01 -0.44431590511E+01  0.10989958784E+02  0.10570000000E+00 0.  1.
<mgrwt>
<rscale>  0 0.20115223E+02</rscale>
<asrwt>0</asrwt>
<pdfrwt beam="2">  1        2 0.22959044E-02 0.20115223E+02</pdfrwt>
<pdfrwt beam="1">  1       -2 0.10428196E-02 0.20115223E+02</pdfrwt>
<totfact> 0.40147100E+06</totfact>
</mgrwt>
</event>
<event>
 5    1  0.1607476E-006  0.2000872E+02  0.7818608E-02  0.1745155E+00
         -2   -1    0    0    0  501 -0.00000000000E+00  0.00000000000E+00  0.89121684071E+01  0.89121687863E+01  0.26000000000E-02 0. -1.
          2   -1    0    0  501    0  0.00000000000E+00 -0.00000000000E+00 -0.11230395535E+02  0.11230395836E+02  0.26000000000E-02 0.  1.
       1023    2    1    2    0    0  0.00000000000E+00  0.00000000000E+00 -0.23182271277E+01  0.20142564622E+02  0.20008716414E+02 0.  0.
        -13    1    3    3    0    0  0.34113248133E+01  0.94016926542E+01 -0.94075498378E+00  0.10046151212E+02  0.10570000000E+00 0. -1.
         13    1    3    3    0    0 -0.34113248133E+01 -0.94016926542E+01 -0.13774721439E+01  0.10096413410E+02  0.10570000000E+00 0.  1.
<mgrwt>
<rscale>  0 0.20008716E+02</rscale>
<asrwt>0</asrwt>
<pdfrwt beam="2">  1        2 0.17277532E-02 0.20008716E+02</pdfrwt>
<pdfrwt beam="1">  1       -2 0.13711029E-02 0.20008716E+02</pdfrwt>
<totfact> 0.39762346E+06</totfact>
</mgrwt>
</event>
<event>
 5    1  0.1607476E-006  0.2000926E+02  0.7818608E-02  0.1745144E+00
          2   -1    0    0  501    0  0.00000000000E+00  0.00000000000E+00  0.75089644266E+02  0.75089644311E+02  0.26000000000E-02 0. -1.
         -2   -1    0    0    0  501 -0.00000000000E+00 -0.00000000000E+00 -0.13329741537E+01  0.13329766894E+01  0.26000000000E-02 0.  1.
       1023    2    1    2    0    0  0.00000000000E+00  0.00000000000E+00  0.73756670112E+02  0.76422621000E+02  0.20009263218E+02 0.  0.
        -13    1    3    3    0    0  0.96252233099E+01  0.27164342244E+01  0.37794524163E+02  0.39095538976E+02  0.10570000000E+00 0.  1.
         13    1    3    3    0    0 -0.96252233099E+01 -0.27164342244E+01  0.35962145949E+02  0.37327082024E+02  0.10570000000E+00 0. -1.
<mgrwt>
<rscale>  0 0.20009263E+02</rscale>
<asrwt>0</asrwt>
<pdfrwt beam="1">  1        2 0.11552256E-01 0.20009263E+02</pdfrwt>
<pdfrwt beam="2">  1       -2 0.20507310E-03 0.20009263E+02</pdfrwt>
<totfact> 0.49625124E+06</totfact>
</mgrwt>
</event>
<event>
 4    1  0.1607476E-006  0.2001303E+02  0.7818608E-02  0.1745069E+00
          2   -1    0    0  501    0  0.00000000000E+00  0.00000000000E+00  0.91120668560E+01  0.91120672269E+01  0.26000000000E-02 0. -1.
         -2   -1    0    0    0  501 -0.00000000000E+00 -0.00000000000E+00 -0.10988760105E+02  0.10988760412E+02  0.26000000000E-02 0.  1.
        -13    1    1    2    0    0 -0.96062526371E+01  0.27951392506E+01 -0.77559279332E+00  0.10035218474E+02  0.10570000000E+00 0. -1.
         13    1    1    2    0    0  0.96062526371E+01 -0.27951392506E+01 -0.11011004556E+01  0.10065609165E+02  0.10570000000E+00 0.  1.
<mgrwt>
<rscale>  0 0.20013028E+02</rscale>
<asrwt>0</asrwt>
<pdfrwt beam="1">  1        2 0.14018565E-02 0.20013028E+02</pdfrwt>
<pdfrwt beam="2">  1       -2 0.16905785E-02 0.20013028E+02</pdfrwt>
<totfact> 0.39137212E+06</totfact>
</mgrwt>
</event>
<event>
 4    1  0.1607476E-006  0.2011022E+02  0.7818608E-02  0.1743145E+00
          2   -1    0    0  501    0  0.00000000000E+00  0.00000000000E+00  0.67842208631E+01  0.67842213613E+01  0.26000000000E-02 0. -1.
         -2   -1    0    0    0  501 -0.00000000000E+00 -0.00000000000E+00 -0.14902992150E+02  0.14902992377E+02  0.26000000000E-02 0.  1.
        -13    1    1    2    0    0 -0.85538960106E+00 -0.99787920296E+01 -0.50155012812E+01  0.11201535936E+02  0.10570000000E+00 0.  1.
         13    1    1    2    0    0  0.85538960106E+00  0.99787920296E+01 -0.31032700054E+01  0.10485677802E+02  0.10570000000E+00 0. -1.
<mgrwt>
<rscale>  0 0.20110216E+02</rscale>
<asrwt>0</asrwt>
<pdfrwt beam="1">  1        2 0.10437263E-02 0.20110216E+02</pdfrwt>
<pdfrwt beam="2">  1       -2 0.22927681E-02 0.20110216E+02</pdfrwt>
<totfact> 0.37864485E+06</totfact>
</mgrwt>
</event>
<event>
 4    1  0.1607476E-006  0.2001706E+02  0.7818608E-02  0.1744989E+00
         -2   -1    0    0    0  501 -0.00000000000E+00  0.00000000000E+00  0.50503096125E+02  0.50503096192E+02  0.26000000000E-02 0. -1.
          2   -1    0    0  501    0  0.00000000000E+00 -0.00000000000E+00 -0.19834546732E+01  0.19834563773E+01  0.26000000000E-02 0.  1.
        -13    1    1    2    0    0 -0.58638719529E+01  0.81101189346E+01  0.24315603698E+02  0.26294843203E+02  0.10570000000E+00 0. -1.
         13    1    1    2    0    0  0.58638719529E+01 -0.81101189346E+01  0.24204037754E+02  0.26191709366E+02  0.10570000000E+00 0.  1.
<mgrwt>
<rscale>  0 0.20017058E+02</rscale>
<asrwt>0</asrwt>
<pdfrwt beam="2">  1        2 0.30514704E-03 0.20017058E+02</pdfrwt>
<pdfrwt beam="1">  1       -2 0.77697064E-02 0.20017058E+02</pdfrwt>
<totfact> 0.33786701E+06</totfact>
</mgrwt>
</event>
<event>
 5    1  0.1607476E-006  0.2000594E+02  0.7818608E-02  0.1745210E+00
          2   -1    0    0  501    0  0.00000000000E+00  0.00000000000E+00  0.34583321596E+02  0.34583321694E+02  0.26000000000E-02 0.  1.
         -2   -1    0    0    0  501 -0.00000000000E+00 -0.00000000000E+00 -0.28932846327E+01  0.28932858009E+01  0.26000000000E-02 0. -1.
       1023    2    1    2    0    0  0.00000000000E+00  0.00000000000E+00  0.31690036963E+02  0.37476607495E+02  0.20005940782E+02 0.  0.
        -13    1    3    3    0    0  0.27310259481E+01 -0.96216019108E+01  0.16070731234E+02  0.18929165353E+02  0.10570000000E+00 0. -1.
         13    1    3    3    0    0 -0.27310259481E+01  0.96216019108E+01  0.15619305729E+02  0.18547442142E+02  0.10570000000E+00 0.  1.
<mgrwt>
<rscale>  0 0.20005941E+02</rscale>
<asrwt>0</asrwt>
<pdfrwt beam="1">  1        2 0.53205112E-02 0.20005941E+02</pdfrwt>
<pdfrwt beam="2">  1       -2 0.44512080E-03 0.20005941E+02</pdfrwt>
<totfact> 0.44056344E+06</totfact>
</mgrwt>
</event>
<event>
 5    1  0.1607476E-006  0.2000157E+02  0.7818608E-02  0.1745297E+00
         -2   -1    0    0    0  501 -0.00000000000E+00  0.00000000000E+00  0.56042577540E+02  0.56042577600E+02  0.26000000000E-02 0. -1.
          2   -1    0    0  501    0  0.00000000000E+00 -0.00000000000E+00 -0.17846376048E+01  0.17846394988E+01  0.26000000000E-02 0.  1.
       1023    2    1    2    0    0  0.00000000000E+00  0.00000000000E+00  0.54257939935E+02  0.57827217099E+02  0.20001574723E+02 0.  0.
        -13    1    3    3    0    0 -0.55558941374E+01 -0.83148373662E+01  0.27100750377E+02  0.28887130761E+02  0.10570000000E+00 0. -1.
         13    1    3    3    0    0  0.55558941374E+01  0.83148373662E+01  0.27157189558E+02  0.28940086338E+02  0.10570000000E+00 0.  1.
<mgrwt>
<rscale>  0 0.20001575E+02</rscale>
<asrwt>0</asrwt>
<pdfrwt beam="2">  1        2 0.27455984E-03 0.20001575E+02</pdfrwt>
<pdfrwt beam="1">  1       -2 0.86219334E-02 0.20001575E+02</pdfrwt>
<totfact> 0.33317543E+06</totfact>
</mgrwt>
</event>
<event>
 4    1  0.1607476E-006  0.2017925E+02  0.7818608E-02  0.1741787E+00
         -2   -1    0    0    0  501 -0.00000000000E+00  0.00000000000E+00  0.15891526061E+02  0.15891526274E+02  0.26000000000E-02 0. -1.
          2   -1    0    0  501    0  0.00000000000E+00 -0.00000000000E+00 -0.64059653326E+01  0.64059658602E+01  0.26000000000E-02 0.  1.
        -13    1    1    2    0    0 -0.31152077221E+01  0.95210634307E+01  0.34194729821E+01  0.10585798787E+02  0.10570000000E+00 0.  1.
         13    1    1    2    0    0  0.31152077221E+01 -0.95210634307E+01  0.60660877462E+01  0.11711693346E+02  0.10570000000E+00 0. -1.
<mgrwt>
<rscale>  0 0.20179254E+02</rscale>
<asrwt>0</asrwt>
<pdfrwt beam="2">  1        2 0.98553320E-03 0.20179254E+02</pdfrwt>
<pdfrwt beam="1">  1       -2 0.24448502E-02 0.20179254E+02</pdfrwt>
<totfact> 0.37400087E+06</totfact>
</mgrwt>
</event>
<event>
 5    1  0.1607476E-006  0.2000677E+02  0.7818608E-02  0.1745193E+00
          2   -1    0    0  501    0  0.00000000000E+00  0.00000000000E+00  0.10201054865E+02  0.10201055196E+02  0.26000000000E-02 0. -1.
         -2   -1    0    0    0  501 -0.00000000000E+00 -0.00000000000E+00 -0.98095457838E+01  0.98095461284E+01  0.26000000000E-02 0.  1.
       1023    2    1    2    0    0  0.00000000000E+00  0.00000000000E+00  0.39150908086E+00  0.20010601324E+02  0.20006771004E+02 0.  0.
        -13    1    3    3    0    0 -0.89368805708E+01 -0.44931805617E+01  0.20232184432E+00  0.10005429152E+02  0.10570000000E+00 0.  1.
         13    1    3    3    0    0  0.89368805708E+01  0.44931805617E+01  0.18918723654E+00  0.10005172172E+02  0.10570000000E+00 0. -1.
<mgrwt>
<rscale>  0 0.20006771E+02</rscale>
<asrwt>0</asrwt>
<pdfrwt beam="1">  1        2 0.15693931E-02 0.20006771E+02</pdfrwt>
<pdfrwt beam="2">  1       -2 0.15091609E-02 0.20006771E+02</pdfrwt>
<totfact> 0.39490280E+06</totfact>
</mgrwt>
</event>
<event>
 4    1  0.1607476E-006  0.2003744E+02  0.7818608E-02  0.1744585E+00
          2   -1    0    0  501    0  0.00000000000E+00  0.00000000000E+00  0.13808516959E+02  0.13808517204E+02  0.26000000000E-02 0. -1.
         -2   -1    0    0    0  501 -0.00000000000E+00 -0.00000000000E+00 -0.72690424430E+01  0.72690429080E+01  0.26000000000E-02 0.  1.
        -13    1    1    2    0    0  0.75823781708E+01  0.65472207110E+01  0.31955565789E+01  0.10515764932E+02  0.10570000000E+00 0. -1.
         13    1    1    2    0    0 -0.75823781708E+01 -0.65472207110E+01  0.33439179373E+01  0.10561795180E+02  0.10570000000E+00 0.  1.
<mgrwt>
<rscale>  0 0.20037435E+02</rscale>
<asrwt>0</asrwt>
<pdfrwt beam="1">  1        2 0.21243872E-02 0.20037435E+02</pdfrwt>
<pdfrwt beam="2">  1       -2 0.11183143E-02 0.20037435E+02</pdfrwt>
<totfact> 0.40256300E+06</totfact>
</mgrwt>
</event>
<event>
 5    1  0.1607476E-006  0.2000400E+02  0.7818608E-02  0.1745249E+00
         -2   -1    0    0    0  501 -0.00000000000E+00  0.00000000000E+00  0.73137258101E+02  0.73137258147E+02  0.26000000000E-02 0.  1.
          2   -1    0    0  501    0  0.00000000000E+00 -0.00000000000E+00 -0.13678377117E+01  0.13678401827E+01  0.26000000000E-02 0. -1.
       1023    2    1    2    0    0  0.00000000000E+00  0.00000000000E+00  0.71769420389E+02  0.74505098330E+02  0.20003998954E+02 0.  0.
        -13    1    3    3    0    0  0.78965618244E+00  0.99691176056E+01  0.36436620840E+02  0.37784194757E+02  0.10570000000E+00 0.  1.
         13    1    3    3    0    0 -0.78965618244E+00 -0.99691176056E+01  0.35332799549E+02  0.36720903573E+02  0.10570000000E+00 0. -1.
<mgrwt>
<rscale>  0 0.20003999E+02</rscale>
<asrwt>0</asrwt>
<pdfrwt beam="2">  1        2 0.21043677E-03 0.20003999E+02</pdfrwt>
<pdfrwt beam="1">  1       -2 0.11251886E-01 0.20003999E+02</pdfrwt>
<totfact> 0.31805281E+06</totfact>
</mgrwt>
</event>
<event>
 5    1  0.1607476E-006  0.2000283E+02  0.7818608E-02  0.1745272E+00
          2   -1    0    0  501    0  0.00000000000E+00  0.00000000000E+00  0.25980354287E+01  0.25980367296E+01  0.26000000000E-02 0.  1.
         -2   -1    0    0    0  501 -0.00000000000E+00 -0.00000000000E+00 -0.38501512944E+02  0.38501513032E+02  0.26000000000E-02 0. -1.
       1023    2    1    2    0    0  0.00000000000E+00  0.00000000000E+00 -0.35903477515E+02  0.41099549761E+02  0.20002832122E+02 0.  0.
        -13    1    3    3    0    0  0.84539917488E+00 -0.99650047175E+01 -0.17882609962E+02  0.20489385797E+02  0.10570000000E+00 0.  1.
         13    1    3    3    0    0 -0.84539917488E+00  0.99650047175E+01 -0.18020867553E+02  0.20610163965E+02  0.10570000000E+00 0. -1.
<mgrwt>
<rscale>  0 0.20002832E+02</rscale>
<asrwt>0</asrwt>
<pdfrwt beam="1">  1        2 0.39969789E-03 0.20002832E+02</pdfrwt>
<pdfrwt beam="2">  1       -2 0.59233094E-02 0.20002832E+02</pdfrwt>
<totfact> 0.35071767E+06</totfact>
</mgrwt>
</event>
<event>
 5    1  0.1607476E-006  0.2000776E+02  0.7818608E-02  0.1745174E+00
          2   -1    0    0  501    0  0.00000000000E+00  0.00000000000E+00  0.11141202799E+02  0.11141203102E+02  0.26000000000E-02 0.  1.
         -2   -1    0    0    0  501 -0.00000000000E+00 -0.00000000000E+00 -0.89826546303E+01  0.89826550065E+01  0.26000000000E-02 0. -1.
       1023    2    1    2    0    0  0.00000000000E+00  0.00000000000E+00  0.21585481685E+01  0.20123858109E+02  0.20007756870E+02 0.  0.
        -13    1    3    3    0    0  0.83383914315E+01  0.55234517913E+01  0.12509098456E+01  0.10080339245E+02  0.10570000000E+00 0. -1.
         13    1    3    3    0    0 -0.83383914315E+01 -0.55234517913E+01  0.90763832287E+00  0.10043518864E+02  0.10570000000E+00 0.  1.
<mgrwt>
<rscale>  0 0.20007757E+02</rscale>
<asrwt>0</asrwt>
<pdfrwt beam="1">  1        2 0.17140312E-02 0.20007757E+02</pdfrwt>
<pdfrwt beam="2">  1       -2 0.13819469E-02 0.20007757E+02</pdfrwt>
<totfact> 0.39743216E+06</totfact>
</mgrwt>
</event>
<event>
 5    1  0.1607476E-006  0.2000135E+02  0.7818608E-02  0.1745301E+00
         -2   -1    0    0    0  501 -0.00000000000E+00  0.00000000000E+00  0.64389817696E+01  0.64389822946E+01  0.26000000000E-02 0.  1.
          2   -1    0    0  501    0  0.00000000000E+00 -0.00000000000E+00 -0.15532499441E+02  0.15532499658E+02  0.26000000000E-02 0. -1.
       1023    2    1    2    0    0  0.00000000000E+00  0.00000000000E+00 -0.90935176711E+01  0.21971481953E+02  0.20001348844E+02 0.  0.
        -13    1    3    3    0    0  0.28375002637E+01 -0.95890826009E+01 -0.45688255459E+01  0.10994873907E+02  0.10570000000E+00 0.  1.
         13    1    3    3    0    0 -0.28375002637E+01  0.95890826009E+01 -0.45246921253E+01  0.10976608046E+02  0.10570000000E+00 0. -1.
<mgrwt>
<rscale>  0 0.20001349E+02</rscale>
<asrwt>0</asrwt>
<pdfrwt beam="2">  1        2 0.23896153E-02 0.20001349E+02</pdfrwt>
<pdfrwt beam="1">  1       -2 0.99061264E-03 0.20001349E+02</pdfrwt>
<totfact> 0.40796406E+06</totfact>
</mgrwt>
</event>
<event>
 5    1  0.1607476E-006  0.2000179E+02  0.7818608E-02  0.1745292E+00
          2   -1    0    0  501    0  0.00000000000E+00  0.00000000000E+00  0.85259347454E+00  0.85259743890E+00  0.26000000000E-02 0. -1.
         -2   -1    0    0    0  501 -0.00000000000E+00 -0.00000000000E+00 -0.11730996915E+03  0.11730996918E+03  0.26000000000E-02 0.  1.
       1023    2    1    2    0    0  0.00000000000E+00  0.00000000000E+00 -0.11645737568E+03  0.11816256662E+03  0.20001794931E+02 0.  0.
        -13    1    3    3    0    0 -0.88270819713E+00  0.99612810625E+01 -0.58358582620E+02  0.59209303594E+02  0.10570000000E+00 0.  1.
         13    1    3    3    0    0  0.88270819713E+00 -0.99612810625E+01 -0.58098793057E+02  0.58953263025E+02  0.10570000000E+00 0. -1.
<mgrwt>
<rscale>  0 0.20001795E+02</rscale>
<asrwt>0</asrwt>
<pdfrwt beam="1">  1        2 0.13116863E-03 0.20001795E+02</pdfrwt>
<pdfrwt beam="2">  1       -2 0.18047675E-01 0.20001795E+02</pdfrwt>
<totfact> 0.28515341E+06</totfact>
</mgrwt>
</event>
<event>
 5    1  0.1607476E-006  0.2000873E+02  0.7818608E-02  0.1745155E+00
          2   -1    0    0  501    0  0.00000000000E+00  0.00000000000E+00  0.71123546663E+01  0.71123551415E+01  0.26000000000E-02 0.  1.
         -2   -1    0    0    0  501 -0.00000000000E+00 -0.00000000000E+00 -0.14072314617E+02  0.14072314857E+02  0.26000000000E-02 0. -1.
       1023    2    1    2    0    0  0.00000000000E+00  0.00000000000E+00 -0.69599599506E+01  0.21184669999E+02  0.20008728106E+02 0.  0.
        -13    1    3    3    0    0 -0.87995661751E+01  0.47528697767E+01 -0.32339627827E+01  0.10511509109E+02  0.10570000000E+00 0.  1.
         13    1    3    3    0    0  0.87995661751E+01 -0.47528697767E+01 -0.37259971680E+01  0.10673160889E+02  0.10570000000E+00 0. -1.
<mgrwt>
<rscale>  0 0.20008728E+02</rscale>
<asrwt>0</asrwt>
<pdfrwt beam="1">  1        2 0.10942085E-02 0.20008728E+02</pdfrwt>
<pdfrwt beam="2">  1       -2 0.21649715E-02 0.20008728E+02</pdfrwt>
<totfact> 0.38446509E+06</totfact>
</mgrwt>
</event>
<event>
 4    1  0.1607476E-006  0.2034320E+02  0.7818608E-02  0.1738588E+00
          2   -1    0    0  501    0  0.00000000000E+00  0.00000000000E+00  0.77669111019E+02  0.77669111062E+02  0.26000000000E-02 0. -1.
         -2   -1    0    0    0  501 -0.00000000000E+00 -0.00000000000E+00 -0.13320789274E+01  0.13320814648E+01  0.26000000000E-02 0.  1.
        -13    1    1    2    0    0  0.83711448500E+00 -0.10111176302E+02  0.40951789256E+02  0.42190009038E+02  0.10570000000E+00 0. -1.
         13    1    1    2    0    0 -0.83711448500E+00  0.10111176302E+02  0.35385242836E+02  0.36811183490E+02  0.10570000000E+00 0.  1.
<mgrwt>
<rscale>  0 0.20343204E+02</rscale>
<asrwt>0</asrwt>
<pdfrwt beam="1">  1        2 0.11949096E-01 0.20343204E+02</pdfrwt>
<pdfrwt beam="2">  1       -2 0.20493538E-03 0.20343204E+02</pdfrwt>
<totfact> 0.48153075E+06</totfact>
</mgrwt>
</event>
<event>
 5    1  0.1607476E-006  0.2000244E+02  0.7818608E-02  0.1745280E+00
          2   -1    0    0  501    0  0.00000000000E+00  0.00000000000E+00  0.17089101126E+01  0.17089120905E+01  0.26000000000E-02 0.  1.
         -2   -1    0    0    0  501 -0.00000000000E+00 -0.00000000000E+00 -0.58531087056E+02  0.58531087114E+02  0.26000000000E-02 0. -1.
       1023    2    1    2    0    0  0.00000000000E+00  0.00000000000E+00 -0.56822176943E+02  0.60239999204E+02  0.20002442639E+02 0.  0.
        -13    1    3    3    0    0  0.99616745296E+01 -0.87830077404E+00 -0.28161218959E+02  0.29884306876E+02  0.10570000000E+00 0.  1.
         13    1    3    3    0    0 -0.99616745296E+01  0.87830077404E+00 -0.28660957984E+02  0.30355692328E+02  0.10570000000E+00 0. -1.
<mgrwt>
<rscale>  0 0.20002443E+02</rscale>
<asrwt>0</asrwt>
<pdfrwt beam="1">  1        2 0.26290945E-03 0.20002443E+02</pdfrwt>
<pdfrwt beam="2">  1       -2 0.90047813E-02 0.20002443E+02</pdfrwt>
<totfact> 0.33084932E+06</totfact>
</mgrwt>
</event>
<event>
 5    1  0.1607476E-006  0.2000463E+02  0.7818608E-02  0.1745236E+00
         -2   -1    0    0    0  501 -0.00000000000E+00  0.00000000000E+00  0.55176714775E+01  0.55176720901E+01  0.26000000000E-02 0.  1.
          2   -1    0    0  501    0  0.00000000000E+00 -0.00000000000E+00 -0.18131979482E+02  0.18131979668E+02  0.26000000000E-02 0. -1.
       1023    2    1    2    0    0  0.00000000000E+00  0.00000000000E+00 -0.12614308004E+02  0.23649651758E+02  0.20004631010E+02 0.  0.
        -13    1    3    3    0    0  0.99995150791E+00 -0.99512960651E+01 -0.64056865737E+01  0.11877381419E+02  0.10570000000E+00 0.  1.
         13    1    3    3    0    0 -0.99995150791E+00  0.99512960651E+01 -0.62086214306E+01  0.11772270340E+02  0.10570000000E+00 0. -1.
<mgrwt>
<rscale>  0 0.20004631E+02</rscale>
<asrwt>0</asrwt>
<pdfrwt beam="2">  1        2 0.27895353E-02 0.20004631E+02</pdfrwt>
<pdfrwt beam="1">  1       -2 0.84887260E-03 0.20004631E+02</pdfrwt>
<totfact> 0.41304052E+06</totfact>
</mgrwt>
</event>
<event>
 5    1  0.1607476E-006  0.2000467E+02  0.7818608E-02  0.1745235E+00
         -2   -1    0    0    0  501 -0.00000000000E+00  0.00000000000E+00  0.14562549992E+02  0.14562550224E+02  0.26000000000E-02 0.  1.
          2   -1    0    0  501    0  0.00000000000E+00 -0.00000000000E+00 -0.68701385511E+01  0.68701390431E+01  0.26000000000E-02 0. -1.
       1023    2    1    2    0    0  0.00000000000E+00  0.00000000000E+00  0.76924114406E+01  0.21432689267E+02  0.20004673840E+02 0.  0.
        -13    1    3    3    0    0 -0.85676438238E+01  0.51585929569E+01  0.39976062907E+01  0.10770683847E+02  0.10570000000E+00 0.  1.
         13    1    3    3    0    0  0.85676438238E+01 -0.51585929569E+01  0.36948051499E+01  0.10662005420E+02  0.10570000000E+00 0. -1.
<mgrwt>
<rscale>  0 0.20004674E+02</rscale>
<asrwt>0</asrwt>
<pdfrwt beam="2">  1        2 0.10569445E-02 0.20004674E+02</pdfrwt>
<pdfrwt beam="1">  1       -2 0.22403923E-02 0.20004674E+02</pdfrwt>
<totfact> 0.38364273E+06</totfact>
</mgrwt>
</event>
<event>
 5    1  0.1607476E-006  0.2000137E+02  0.7818608E-02  0.1745301E+00
          2   -1    0    0  501    0  0.00000000000E+00  0.00000000000E+00  0.33163536095E+01  0.33163546287E+01  0.26000000000E-02 0.  1.
         -2   -1    0    0    0  501 -0.00000000000E+00 -0.00000000000E+00 -0.30157712184E+02  0.30157712296E+02  0.26000000000E-02 0. -1.
       1023    2    1    2    0    0  0.00000000000E+00  0.00000000000E+00 -0.26841358575E+02  0.33474066925E+02  0.20001365613E+02 0.  0.
        -13    1    3    3    0    0  0.48218401665E+01  0.87607292526E+01 -0.13494856741E+02  0.16796513049E+02  0.10570000000E+00 0. -1.
         13    1    3    3    0    0 -0.48218401665E+01 -0.87607292526E+01 -0.13346501833E+02  0.16677553877E+02  0.10570000000E+00 0.  1.
<mgrwt>
<rscale>  0 0.20001366E+02</rscale>
<asrwt>0</asrwt>
<pdfrwt beam="1">  1        2 0.51020835E-03 0.20001366E+02</pdfrwt>
<pdfrwt beam="2">  1       -2 0.46396479E-02 0.20001366E+02</pdfrwt>
<totfact> 0.36039600E+06</totfact>
</mgrwt>
</event>
<event>
 4    1  0.1607476E-006  0.2013407E+02  0.7818608E-02  0.1742675E+00
          2   -1    0    0  501    0  0.00000000000E+00  0.00000000000E+00  0.26938402836E+02  0.26938402962E+02  0.26000000000E-02 0.  1.
         -2   -1    0    0    0  501 -0.00000000000E+00 -0.00000000000E+00 -0.37621065775E+01  0.37621074759E+01  0.26000000000E-02 0. -1.
        -13    1    1    2    0    0  0.78840790874E+01 -0.62386697263E+01  0.12357052831E+02  0.15930713423E+02  0.10570000000E+00 0.  1.
         13    1    1    2    0    0 -0.78840790874E+01  0.62386697263E+01  0.10819243428E+02  0.14769797015E+02  0.10570000000E+00 0. -1.
<mgrwt>
<rscale>  0 0.20134066E+02</rscale>
<asrwt>0</asrwt>
<pdfrwt beam="1">  1        2 0.41443699E-02 0.20134066E+02</pdfrwt>
<pdfrwt beam="2">  1       -2 0.57878569E-03 0.20134066E+02</pdfrwt>
<totfact> 0.42240679E+06</totfact>
</mgrwt>
</event>
<event>
 5    1  0.1607476E-006  0.2000181E+02  0.7818608E-02  0.1745292E+00
         -2   -1    0    0    0  501 -0.00000000000E+00  0.00000000000E+00  0.60298592996E+01  0.60298598602E+01  0.26000000000E-02 0. -1.
          2   -1    0    0  501    0  0.00000000000E+00 -0.00000000000E+00 -0.16587135276E+02  0.16587135480E+02  0.26000000000E-02 0.  1.
       1023    2    1    2    0    0  0.00000000000E+00  0.00000000000E+00 -0.10557275976E+02  0.22616995340E+02  0.20001809972E+02 0.  0.
        -13    1    3    3    0    0 -0.22503586983E+01  0.97436294028E+01 -0.52027864881E+01  0.11273091321E+02  0.10570000000E+00 0. -1.
         13    1    3    3    0    0  0.22503586983E+01 -0.97436294028E+01 -0.53544894880E+01  0.11343904018E+02  0.10570000000E+00 0.  1.
<mgrwt>
<rscale>  0 0.20001810E+02</rscale>
<asrwt>0</asrwt>
<pdfrwt beam="2">  1        2 0.25518670E-02 0.20001810E+02</pdfrwt>
<pdfrwt beam="1">  1       -2 0.92767073E-03 0.20001810E+02</pdfrwt>
<totfact> 0.41011738E+06</totfact>
</mgrwt>
</event>
<event>
 4    1  0.1607476E-006  0.2001464E+02  0.7818608E-02  0.1745037E+00
         -2   -1    0    0    0  501 -0.00000000000E+00  0.00000000000E+00  0.23655463184E+01  0.23655477473E+01  0.26000000000E-02 0.  1.
          2   -1    0    0  501    0  0.00000000000E+00 -0.00000000000E+00 -0.42335445890E+02  0.42335445970E+02  0.26000000000E-02 0. -1.
        -13    1    1    2    0    0 -0.80491341018E+01 -0.59414779208E+01 -0.20461875142E+02  0.22776945065E+02  0.10570000000E+00 0. -1.
         13    1    1    2    0    0  0.80491341018E+01  0.59414779208E+01 -0.19508024429E+02  0.21924048652E+02  0.10570000000E+00 0.  1.
<mgrwt>
<rscale>  0 0.20014644E+02</rscale>
<asrwt>0</asrwt>
<pdfrwt beam="2">  1        2 0.65131451E-02 0.20014644E+02</pdfrwt>
<pdfrwt beam="1">  1       -2 0.36393035E-03 0.20014644E+02</pdfrwt>
<totfact> 0.45163597E+06</totfact>
</mgrwt>
</event>
<event>
 5    1  0.1607476E-006  0.2000183E+02  0.7818608E-02  0.1745292E+00
          2   -1    0    0  501    0  0.00000000000E+00  0.00000000000E+00  0.28253330146E+02  0.28253330265E+02  0.26000000000E-02 0. -1.
         -2   -1    0    0    0  501 -0.00000000000E+00 -0.00000000000E+00 -0.35400532576E+01  0.35400542124E+01  0.26000000000E-02 0.  1.
       1023    2    1    2    0    0  0.00000000000E+00  0.00000000000E+00  0.24713276888E+02  0.31793384478E+02  0.20001830966E+02 0.  0.
        -13    1    3    3    0    0 -0.53004701710E+01  0.84800901320E+01  0.12380498792E+02  0.15915239097E+02  0.10570000000E+00 0. -1.
         13    1    3    3    0    0  0.53004701710E+01 -0.84800901320E+01  0.12332778096E+02  0.15878145381E+02  0.10570000000E+00 0.  1.
<mgrwt>
<rscale>  0 0.20001831E+02</rscale>
<asrwt>0</asrwt>
<pdfrwt beam="1">  1        2 0.43466663E-02 0.20001831E+02</pdfrwt>
<pdfrwt beam="2">  1       -2 0.54462365E-03 0.20001831E+02</pdfrwt>
<totfact> 0.43084688E+06</totfact>
</mgrwt>
</event>
<event>
 5    1  0.1607476E-006  0.2000291E+02  0.7818608E-02  0.1745270E+00
          2   -1    0    0  501    0  0.00000000000E+00  0.00000000000E+00  0.10156569799E+02  0.10156570132E+02  0.26000000000E-02 0.  1.
         -2   -1    0    0    0  501 -0.00000000000E+00 -0.00000000000E+00 -0.98487076308E+01  0.98487079740E+01  0.26000000000E-02 0. -1.
       1023    2    1    2    0    0  0.00000000000E+00  0.00000000000E+00  0.30786216858E+00  0.20005278106E+02  0.20002909113E+02 0.  0.
        -13    1    3    3    0    0 -0.97235793776E+01  0.23383480198E+01  0.19925071619E+00  0.10003336479E+02  0.10570000000E+00 0.  1.
         13    1    3    3    0    0  0.97235793776E+01 -0.23383480198E+01  0.10861145239E+00  0.10001941627E+02  0.10570000000E+00 0. -1.
<mgrwt>
<rscale>  0 0.20002909E+02</rscale>
<asrwt>0</asrwt>
<pdfrwt beam="1">  1        2 0.15625492E-02 0.20002909E+02</pdfrwt>
<pdfrwt beam="2">  1       -2 0.15151859E-02 0.20002909E+02</pdfrwt>
<totfact> 0.39495022E+06</totfact>
</mgrwt>
</event>
<event>
 5    1  0.1607476E-006  0.2001157E+02  0.7818608E-02  0.1745098E+00
          2   -1    0    0  501    0  0.00000000000E+00  0.00000000000E+00  0.28312712301E+02  0.28312712421E+02  0.26000000000E-02 0.  1.
         -2   -1    0    0    0  501 -0.00000000000E+00 -0.00000000000E+00 -0.35360694791E+01  0.35360704350E+01  0.26000000000E-02 0. -1.
       1023    2    1    2    0    0  0.00000000000E+00  0.00000000000E+00  0.24776642822E+02  0.31848782856E+02  0.20011570150E+02 0.  0.
        -13    1    3    3    0    0 -0.20090794871E+01 -0.97996974733E+01  0.12682177609E+02  0.16152995770E+02  0.10570000000E+00 0.  1.
         13    1    3    3    0    0  0.20090794871E+01  0.97996974733E+01  0.12094465213E+02  0.15695787086E+02  0.10570000000E+00 0. -1.
<mgrwt>
<rscale>  0 0.20011570E+02</rscale>
<asrwt>0</asrwt>
<pdfrwt beam="1">  1        2 0.43558021E-02 0.20011570E+02</pdfrwt>
<pdfrwt beam="2">  1       -2 0.54401075E-03 0.20011570E+02</pdfrwt>
<totfact> 0.43047248E+06</totfact>
</mgrwt>
</event>
<event>
 5    1  0.1607476E-006  0.2000682E+02  0.7818608E-02  0.1745193E+00
          2   -1    0    0  501    0  0.00000000000E+00  0.00000000000E+00  0.10067737630E+02  0.10067737966E+02  0.26000000000E-02 0. -1.
         -2   -1    0    0    0  501 -0.00000000000E+00 -0.00000000000E+00 -0.99394893861E+01  0.99394897261E+01  0.26000000000E-02 0.  1.
       1023    2    1    2    0    0  0.00000000000E+00  0.00000000000E+00  0.12824824386E+00  0.20007227692E+02  0.20006816646E+02 0.  0.
        -13    1    3    3    0    0 -0.83301101678E+01  0.55363781141E+01  0.18573070882E+00  0.10004393356E+02  0.10570000000E+00 0.  1.
         13    1    3    3    0    0  0.83301101678E+01 -0.55363781141E+01 -0.57482464959E-01  0.10002834336E+02  0.10570000000E+00 0. -1.
<mgrwt>
<rscale>  0 0.20006817E+02</rscale>
<asrwt>0</asrwt>
<pdfrwt beam="1">  1        2 0.15488828E-02 0.20006817E+02</pdfrwt>
<pdfrwt beam="2">  1       -2 0.15291523E-02 0.20006817E+02</pdfrwt>
<totfact> 0.39451980E+06</totfact>
</mgrwt>
</event>
<event>
 4    1  0.1607476E-006  0.2003442E+02  0.7818608E-02  0.1744644E+00
          2   -1    0    0  501    0  0.00000000000E+00  0.00000000000E+00  0.17697129607E+02  0.17697129798E+02  0.26000000000E-02 0.  1.
         -2   -1    0    0    0  501 -0.00000000000E+00 -0.00000000000E+00 -0.56700987819E+01  0.56700993780E+01  0.26000000000E-02 0. -1.
        -13    1    1    2    0    0 -0.22324192965E+01 -0.97553233676E+01  0.55141852622E+01  0.11426611113E+02  0.10570000000E+00 0. -1.
         13    1    1    2    0    0  0.22324192965E+01  0.97553233676E+01  0.65128455632E+01  0.11940618064E+02  0.10570000000E+00 0.  1.
<mgrwt>
<rscale>  0 0.20034419E+02</rscale>
<asrwt>0</asrwt>
<pdfrwt beam="1">  1        2 0.27226354E-02 0.20034419E+02</pdfrwt>
<pdfrwt beam="2">  1       -2 0.87232295E-03 0.20034419E+02</pdfrwt>
<totfact> 0.41081204E+06</totfact>
</mgrwt>
</event>
<event>
 5    1  0.1607476E-006  0.2000211E+02  0.7818608E-02  0.1745286E+00
          2   -1    0    0  501    0  0.00000000000E+00  0.00000000000E+00  0.55701284346E+02  0.55701284407E+02  0.26000000000E-02 0.  1.
         -2   -1    0    0    0  501 -0.00000000000E+00 -0.00000000000E+00 -0.17956687620E+01  0.17956706443E+01  0.26000000000E-02 0. -1.
       1023    2    1    2    0    0  0.00000000000E+00  0.00000000000E+00  0.53905615584E+02  0.57496955051E+02  0.20002111105E+02 0.  0.
        -13    1    3    3    0    0 -0.82479724473E+01  0.56551627934E+01  0.26938736839E+02  0.28735285463E+02  0.10570000000E+00 0.  1.
         13    1    3    3    0    0  0.82479724473E+01 -0.56551627934E+01  0.26966878745E+02  0.28761669588E+02  0.10570000000E+00 0. -1.
<mgrwt>
<rscale>  0 0.20002111E+02</rscale>
<asrwt>0</asrwt>
<pdfrwt beam="1">  1        2 0.85694281E-02 0.20002111E+02</pdfrwt>
<pdfrwt beam="2">  1       -2 0.27625689E-03 0.20002111E+02</pdfrwt>
<totfact> 0.47104269E+06</totfact>
</mgrwt>
</event>
<event>
 4    1  0.1607476E-006  0.2001378E+02  0.7818608E-02  0.1745054E+00
         -2   -1    0    0    0  501 -0.00000000000E+00  0.00000000000E+00  0.25448269343E+02  0.25448269476E+02  0.26000000000E-02 0.  1.
          2   -1    0    0  501    0  0.00000000000E+00 -0.00000000000E+00 -0.39349568905E+01  0.39349577495E+01  0.26000000000E-02 0. -1.
        -13    1    1    2    0    0  0.93382033671E+01  0.35904477622E+01  0.11024679518E+02  0.14887850356E+02  0.10570000000E+00 0.  1.
         13    1    1    2    0    0 -0.93382033671E+01 -0.35904477622E+01  0.10488632935E+02  0.14495376869E+02  0.10570000000E+00 0. -1.
<mgrwt>
<rscale>  0 0.20013781E+02</rscale>
<asrwt>0</asrwt>
<pdfrwt beam="2">  1        2 0.60537806E-03 0.20013781E+02</pdfrwt>
<pdfrwt beam="1">  1       -2 0.39151184E-02 0.20013781E+02</pdfrwt>
<totfact> 0.36593543E+06</totfact>
</mgrwt>
</event>
<event>
 5    1  0.1607476E-006  0.2000276E+02  0.7818608E-02  0.1745273E+00
         -2   -1    0    0    0  501 -0.00000000000E+00  0.00000000000E+00  0.56611657055E+01  0.56611663026E+01  0.26000000000E-02 0.  1.
          2   -1    0    0  501    0  0.00000000000E+00 -0.00000000000E+00 -0.17669076423E+02  0.17669076614E+02  0.26000000000E-02 0. -1.
       1023    2    1    2    0    0  0.00000000000E+00  0.00000000000E+00 -0.12007910717E+02  0.23330242917E+02  0.20002757679E+02 0.  0.
        -13    1    3    3    0    0 -0.72237210168E+01 -0.69161933401E+01 -0.59770899120E+01  0.11651294003E+02  0.10570000000E+00 0. -1.
         13    1    3    3    0    0  0.72237210168E+01  0.69161933401E+01 -0.60308208054E+01  0.11678948913E+02  0.10570000000E+00 0.  1.
<mgrwt>
<rscale>  0 0.20002758E+02</rscale>
<asrwt>0</asrwt>
<pdfrwt beam="2">  1        2 0.27183195E-02 0.20002758E+02</pdfrwt>
<pdfrwt beam="1">  1       -2 0.87094864E-03 0.20002758E+02</pdfrwt>
<totfact> 0.41222719E+06</totfact>
</mgrwt>
</event>
<event>
 5    1  0.1607476E-006  0.2000267E+02  0.7818608E-02  0.1745275E+00
         -2   -1    0    0    0  501 -0.00000000000E+00  0.00000000000E+00  0.10237735494E+01  0.10237768509E+01  0.26000000000E-02 0.  1.
          2   -1    0    0  501    0  0.00000000000E+00 -0.00000000000E+00 -0.97703773317E+02  0.97703773352E+02  0.26000000000E-02 0. -1.
       1023    2    1    2    0    0  0.00000000000E+00  0.00000000000E+00 -0.96679999768E+02  0.98727550203E+02  0.20002670170E+02 0.  0.
        -13    1    3    3    0    0  0.90333592588E+01 -0.42908333748E+01 -0.48596488380E+02  0.49614944179E+02  0.10570000000E+00 0.  1.
         13    1    3    3    0    0 -0.90333592588E+01  0.42908333748E+01 -0.48083511387E+02  0.49112606023E+02  0.10570000000E+00 0. -1.
<mgrwt>
<rscale>  0 0.20002670E+02</rscale>
<asrwt>0</asrwt>
<pdfrwt beam="2">  1        2 0.15031343E-01 0.20002670E+02</pdfrwt>
<pdfrwt beam="1">  1       -2 0.15750396E-03 0.20002670E+02</pdfrwt>
<totfact> 0.52466698E+06</totfact>
</mgrwt>
</event>
<event>
 4    1  0.1607476E-006  0.2004452E+02  0.7818608E-02  0.1744444E+00
          2   -1    0    0  501    0  0.00000000000E+00  0.00000000000E+00  0.38563085038E+02  0.38563085126E+02  0.26000000000E-02 0. -1.
         -2   -1    0    0    0  501 -0.00000000000E+00 -0.00000000000E+00 -0.26047094659E+01  0.26047107635E+01  0.26000000000E-02 0.  1.
        -13    1    1    2    0    0 -0.82849825662E+01  0.56207022105E+01  0.18900570151E+02  0.21388687524E+02  0.10570000000E+00 0. -1.
         13    1    1    2    0    0  0.82849825662E+01 -0.56207022105E+01  0.17057805421E+02  0.19779108365E+02  0.10570000000E+00 0.  1.
<mgrwt>
<rscale>  0 0.20044517E+02</rscale>
<asrwt>0</asrwt>
<pdfrwt beam="1">  1        2 0.59327819E-02 0.20044517E+02</pdfrwt>
<pdfrwt beam="2">  1       -2 0.40072468E-03 0.20044517E+02</pdfrwt>
<totfact> 0.44462599E+06</totfact>
</mgrwt>
</event>
<event>
 4    1  0.1607476E-006  0.2024607E+02  0.7818608E-02  0.1740478E+00
         -2   -1    0    0    0  501 -0.00000000000E+00  0.00000000000E+00  0.86183704200E+01  0.86183708122E+01  0.26000000000E-02 0. -1.
          2   -1    0    0  501    0  0.00000000000E+00 -0.00000000000E+00 -0.11890399376E+02  0.11890399660E+02  0.26000000000E-02 0.  1.
        -13    1    1    2    0    0 -0.71144813892E+01 -0.71991210924E+01 -0.17845829822E+01  0.10278088288E+02  0.10570000000E+00 0.  1.
         13    1    1    2    0    0  0.71144813892E+01  0.71991210924E+01 -0.14874459733E+01  0.10230682184E+02  0.10570000000E+00 0. -1.
<mgrwt>
<rscale>  0 0.20246074E+02</rscale>
<asrwt>0</asrwt>
<pdfrwt beam="2">  1        2 0.18292923E-02 0.20246074E+02</pdfrwt>
<pdfrwt beam="1">  1       -2 0.13259032E-02 0.20246074E+02</pdfrwt>
<totfact> 0.38873311E+06</totfact>
</mgrwt>
</event>
<event>
 4    1  0.1607476E-006  0.2001571E+02  0.7818608E-02  0.1745016E+00
          2   -1    0    0  501    0  0.00000000000E+00  0.00000000000E+00  0.14119985083E+02  0.14119985323E+02  0.26000000000E-02 0.  1.
         -2   -1    0    0    0  501 -0.00000000000E+00 -0.00000000000E+00 -0.70932936618E+01  0.70932941383E+01  0.26000000000E-02 0. -1.
        -13    1    1    2    0    0 -0.33097255452E+01  0.94413709110E+01  0.32710451673E+01  0.10526380044E+02  0.10570000000E+00 0. -1.
         13    1    1    2    0    0  0.33097255452E+01 -0.94413709110E+01  0.37556462544E+01  0.10686899417E+02  0.10570000000E+00 0.  1.
<mgrwt>
<rscale>  0 0.20015715E+02</rscale>
<asrwt>0</asrwt>
<pdfrwt beam="1">  1        2 0.21723055E-02 0.20015715E+02</pdfrwt>
<pdfrwt beam="2">  1       -2 0.10912760E-02 0.20015715E+02</pdfrwt>
<totfact> 0.40425240E+06</totfact>
</mgrwt>
</event>
<event>
 5    1  0.1607476E-006  0.2000476E+02  0.7818608E-02  0.1745233E+00
         -2   -1    0    0    0  501 -0.00000000000E+00  0.00000000000E+00  0.56348833522E+01  0.56348839520E+01  0.26000000000E-02 0. -1.
          2   -1    0    0  501    0  0.00000000000E+00 -0.00000000000E+00 -0.17755039543E+02  0.17755039734E+02  0.26000000000E-02 0.  1.
       1023    2    1    2    0    0  0.00000000000E+00  0.00000000000E+00 -0.12120156191E+02  0.23389923686E+02  0.20004758032E+02 0.  0.
        -13    1    3    3    0    0  0.80327379068E+01 -0.59569166886E+01 -0.62510539473E+01  0.11793921428E+02  0.10570000000E+00 0.  1.
         13    1    3    3    0    0 -0.80327379068E+01  0.59569166886E+01 -0.58691022437E+01  0.11596002257E+02  0.10570000000E+00 0. -1.
<mgrwt>
<rscale>  0 0.20004758E+02</rscale>
<asrwt>0</asrwt>
<pdfrwt beam="2">  1        2 0.27315446E-02 0.20004758E+02</pdfrwt>
<pdfrwt beam="1">  1       -2 0.86690520E-03 0.20004758E+02</pdfrwt>
<totfact> 0.41230222E+06</totfact>
</mgrwt>
</event>
<event>
 4    1  0.1607476E-006  0.2002744E+02  0.7818608E-02  0.1744783E+00
          2   -1    0    0  501    0  0.00000000000E+00  0.00000000000E+00  0.58075777152E+02  0.58075777210E+02  0.26000000000E-02 0.  1.
         -2   -1    0    0    0  501 -0.00000000000E+00 -0.00000000000E+00 -0.17266146885E+01  0.17266166461E+01  0.26000000000E-02 0. -1.
        -13    1    1    2    0    0 -0.12056975579E+01 -0.99385572814E+01  0.28731218177E+02  0.30425691411E+02  0.10570000000E+00 0. -1.
         13    1    1    2    0    0  0.12056975579E+01  0.99385572814E+01  0.27617944287E+02  0.29376702445E+02  0.10570000000E+00 0.  1.
<mgrwt>
<rscale>  0 0.20027436E+02</rscale>
<asrwt>0</asrwt>
<pdfrwt beam="1">  1        2 0.89347339E-02 0.20027436E+02</pdfrwt>
<pdfrwt beam="2">  1       -2 0.26563322E-03 0.20027436E+02</pdfrwt>
<totfact> 0.47293661E+06</totfact>
</mgrwt>
</event>
<event>
 5    1  0.1607476E-006  0.2000139E+02  0.7818608E-02  0.1745300E+00
          2   -1    0    0  501    0  0.00000000000E+00  0.00000000000E+00  0.11994627497E+02  0.11994627779E+02  0.26000000000E-02 0.  1.
         -2   -1    0    0    0  501 -0.00000000000E+00 -0.00000000000E+00 -0.83382274258E+01  0.83382278312E+01  0.26000000000E-02 0. -1.
       1023    2    1    2    0    0  0.00000000000E+00  0.00000000000E+00  0.36564000714E+01  0.20332855610E+02  0.20001393846E+02 0.  0.
        -13    1    3    3    0    0 -0.15824654106E+01  0.98741314182E+01  0.18382849311E+01  0.10168241343E+02  0.10570000000E+00 0.  1.
         13    1    3    3    0    0  0.15824654106E+01 -0.98741314182E+01  0.18181151404E+01  0.10164614267E+02  0.10570000000E+00 0. -1.
<mgrwt>
<rscale>  0 0.20001394E+02</rscale>
<asrwt>0</asrwt>
<pdfrwt beam="1">  1        2 0.18453274E-02 0.20001394E+02</pdfrwt>
<pdfrwt beam="2">  1       -2 0.12828043E-02 0.20001394E+02</pdfrwt>
<totfact> 0.39991048E+06</totfact>
</mgrwt>
</event>
<event>
 5    1  0.1607476E-006  0.2000404E+02  0.7818608E-02  0.1745248E+00
          2   -1    0    0  501    0  0.00000000000E+00  0.00000000000E+00  0.93974323924E+02  0.93974323960E+02  0.26000000000E-02 0. -1.
         -2   -1    0    0    0  501 -0.00000000000E+00 -0.00000000000E+00 -0.10645485389E+01  0.10645517140E+01  0.26000000000E-02 0.  1.
       1023    2    1    2    0    0  0.00000000000E+00  0.00000000000E+00  0.92909775385E+02  0.95038875674E+02  0.20004037774E+02 0.  0.
        -13    1    3    3    0    0 -0.54285714526E+00 -0.99866669962E+01  0.46304817193E+02  0.47372729279E+02  0.10570000000E+00 0. -1.
         13    1    3    3    0    0  0.54285714526E+00  0.99866669962E+01  0.46604958193E+02  0.47666146396E+02  0.10570000000E+00 0.  1.
<mgrwt>
<rscale>  0 0.20004038E+02</rscale>
<asrwt>0</asrwt>
<pdfrwt beam="1">  1        2 0.14457591E-01 0.20004038E+02</pdfrwt>
<pdfrwt beam="2">  1       -2 0.16377692E-03 0.20004038E+02</pdfrwt>
<totfact> 0.52007529E+06</totfact>
</mgrwt>
</event>
<event>
 5    1  0.1607476E-006  0.2000251E+02  0.7818608E-02  0.1745278E+00
         -2   -1    0    0    0  501 -0.00000000000E+00  0.00000000000E+00  0.10190764671E+03  0.10190764674E+03  0.26000000000E-02 0.  1.
          2   -1    0    0  501    0  0.00000000000E+00 -0.00000000000E+00 -0.98152534999E+00  0.98152879360E+00  0.26000000000E-02 0. -1.
       1023    2    1    2    0    0  0.00000000000E+00  0.00000000000E+00  0.10092612136E+03  0.10288917554E+03  0.20002511589E+02 0.  0.
        -13    1    3    3    0    0  0.91799019572E+01  0.39675109293E+01  0.50704439713E+02  0.51681361457E+02  0.10570000000E+00 0. -1.
         13    1    3    3    0    0 -0.91799019572E+01 -0.39675109293E+01  0.50221681646E+02  0.51207814080E+02  0.10570000000E+00 0.  1.
<mgrwt>
<rscale>  0 0.20002512E+02</rscale>
<asrwt>0</asrwt>
<pdfrwt beam="2">  1        2 0.15100426E-03 0.20002512E+02</pdfrwt>
<pdfrwt beam="1">  1       -2 0.15678090E-01 0.20002512E+02</pdfrwt>
<totfact> 0.29584658E+06</totfact>
</mgrwt>
</event>
<event>
 5    1  0.1607476E-006  0.2000500E+02  0.7818608E-02  0.1745229E+00
          2   -1    0    0  501    0  0.00000000000E+00  0.00000000000E+00  0.67614881654E+02  0.67614881704E+02  0.26000000000E-02 0. -1.
         -2   -1    0    0    0  501 -0.00000000000E+00 -0.00000000000E+00 -0.14797022513E+01  0.14797045356E+01  0.26000000000E-02 0.  1.
       1023    2    1    2    0    0  0.00000000000E+00  0.00000000000E+00  0.66135179403E+02  0.69094586239E+02  0.20004996701E+02 0.  0.
        -13    1    3    3    0    0 -0.94934730744E+01 -0.31480783427E+01  0.33235821409E+02  0.34708319255E+02  0.10570000000E+00 0. -1.
         13    1    3    3    0    0  0.94934730744E+01  0.31480783427E+01  0.32899357993E+02  0.34386266984E+02  0.10570000000E+00 0.  1.
<mgrwt>
<rscale>  0 0.20004997E+02</rscale>
<asrwt>0</asrwt>
<pdfrwt beam="1">  1        2 0.10402290E-01 0.20004997E+02</pdfrwt>
<pdfrwt beam="2">  1       -2 0.22764667E-03 0.20004997E+02</pdfrwt>
<totfact> 0.48681500E+06</totfact>
</mgrwt>
</event>
<event>
 4    1  0.1607476E-006  0.2002279E+02  0.7818608E-02  0.1744875E+00
         -2   -1    0    0    0  501 -0.00000000000E+00  0.00000000000E+00  0.11182886190E+02  0.11182886492E+02  0.26000000000E-02 0.  1.
          2   -1    0    0  501    0  0.00000000000E+00 -0.00000000000E+00 -0.89626228789E+01  0.89626232560E+01  0.26000000000E-02 0. -1.
        -13    1    1    2    0    0 -0.65154325645E+01  0.75893317133E+01  0.69773084472E+00  0.10027303634E+02  0.10570000000E+00 0. -1.
         13    1    1    2    0    0  0.65154325645E+01 -0.75893317133E+01  0.15225324663E+01  0.10118206114E+02  0.10570000000E+00 0.  1.
<mgrwt>
<rscale>  0 0.20022787E+02</rscale>
<asrwt>0</asrwt>
<pdfrwt beam="2">  1        2 0.13788651E-02 0.20022787E+02</pdfrwt>
<pdfrwt beam="1">  1       -2 0.17204441E-02 0.20022787E+02</pdfrwt>
<totfact> 0.39046244E+06</totfact>
</mgrwt>
</event>
<event>
 5    1  0.1607476E-006  0.2000723E+02  0.7818608E-02  0.1745184E+00
          2   -1    0    0  501    0  0.00000000000E+00  0.00000000000E+00  0.37336670170E+01  0.37336679223E+01  0.26000000000E-02 0. -1.
         -2   -1    0    0    0  501 -0.00000000000E+00 -0.00000000000E+00 -0.26802685719E+02  0.26802685845E+02  0.26000000000E-02 0.  1.
       1023    2    1    2    0    0  0.00000000000E+00  0.00000000000E+00 -0.23069018702E+02  0.30536353767E+02  0.20007230631E+02 0.  0.
        -13    1    3    3    0    0  0.21940620966E+00  0.10000650103E+02 -0.11530985998E+02  0.15265515128E+02  0.10570000000E+00 0.  1.
         13    1    3    3    0    0 -0.21940620966E+00 -0.10000650103E+02 -0.11538032704E+02  0.15270838639E+02  0.10570000000E+00 0. -1.
<mgrwt>
<rscale>  0 0.20007231E+02</rscale>
<asrwt>0</asrwt>
<pdfrwt beam="1">  1        2 0.57441041E-03 0.20007231E+02</pdfrwt>
<pdfrwt beam="2">  1       -2 0.41234901E-02 0.20007231E+02</pdfrwt>
<totfact> 0.36440517E+06</totfact>
</mgrwt>
</event>
<event>
 4    1  0.1607476E-006  0.2001591E+02  0.7818608E-02  0.1745012E+00
         -2   -1    0    0    0  501 -0.00000000000E+00  0.00000000000E+00  0.47269108114E+02  0.47269108185E+02  0.26000000000E-02 0.  1.
          2   -1    0    0  501    0  0.00000000000E+00 -0.00000000000E+00 -0.21189132322E+01  0.21189148273E+01  0.26000000000E-02 0. -1.
        -13    1    1    2    0    0 -0.79338090770E+01 -0.60924360993E+01  0.21856131420E+02  0.24036737658E+02  0.10570000000E+00 0.  1.
         13    1    1    2    0    0  0.79338090770E+01  0.60924360993E+01  0.23294063462E+02  0.25351285355E+02  0.10570000000E+00 0. -1.
<mgrwt>
<rscale>  0 0.20015912E+02</rscale>
<asrwt>0</asrwt>
<pdfrwt beam="2">  1        2 0.32598680E-03 0.20015912E+02</pdfrwt>
<pdfrwt beam="1">  1       -2 0.72721703E-02 0.20015912E+02</pdfrwt>
<totfact> 0.34108945E+06</totfact>
</mgrwt>
</event>
<event>
 5    1  0.1607476E-006  0.2000146E+02  0.7818608E-02  0.1745299E+00
          2   -1    0    0  501    0  0.00000000000E+00  0.00000000000E+00  0.43830609004E+02  0.43830609081E+02  0.26000000000E-02 0.  1.
         -2   -1    0    0    0  501 -0.00000000000E+00 -0.00000000000E+00 -0.22818436104E+01  0.22818450917E+01  0.26000000000E-02 0. -1.
       1023    2    1    2    0    0  0.00000000000E+00  0.00000000000E+00  0.41548765394E+02  0.46112454173E+02  0.20001463049E+02 0.  0.
        -13    1    3    3    0    0 -0.31328813022E+01  0.94966916914E+01  0.20859409953E+02  0.23132839307E+02  0.10570000000E+00 0.  1.
         13    1    3    3    0    0  0.31328813022E+01 -0.94966916914E+01  0.20689355441E+02  0.22979614866E+02  0.10570000000E+00 0. -1.
<mgrwt>
<rscale>  0 0.20001463E+02</rscale>
<asrwt>0</asrwt>
<pdfrwt beam="1">  1        2 0.67431705E-02 0.20001463E+02</pdfrwt>
<pdfrwt beam="2">  1       -2 0.35105299E-03 0.20001463E+02</pdfrwt>
<totfact> 0.45446092E+06</totfact>
</mgrwt>
</event>
<event>
 5    1  0.1607476E-006  0.2000356E+02  0.7818608E-02  0.1745257E+00
          2   -1    0    0  501    0  0.00000000000E+00  0.00000000000E+00  0.39438536643E+01  0.39438545213E+01  0.26000000000E-02 0. -1.
         -2   -1    0    0    0  501 -0.00000000000E+00 -0.00000000000E+00 -0.25364934780E+02  0.25364934914E+02  0.26000000000E-02 0.  1.
       1023    2    1    2    0    0  0.00000000000E+00  0.00000000000E+00 -0.21421081116E+02  0.29308789435E+02  0.20003560232E+02 0.  0.
        -13    1    3    3    0    0  0.57184078365E+01 -0.82036487507E+01 -0.10939371213E+02  0.14821641476E+02  0.10570000000E+00 0.  1.
         13    1    3    3    0    0 -0.57184078365E+01  0.82036487507E+01 -0.10481709903E+02  0.14487147959E+02  0.10570000000E+00 0. -1.
<mgrwt>
<rscale>  0 0.20003560E+02</rscale>
<asrwt>0</asrwt>
<pdfrwt beam="1">  1        2 0.60674681E-03 0.20003560E+02</pdfrwt>
<pdfrwt beam="2">  1       -2 0.39022976E-02 0.20003560E+02</pdfrwt>
<totfact> 0.36645448E+06</totfact>
</mgrwt>
</event>
<event>
 5    1  0.1607476E-006  0.2000250E+02  0.7818608E-02  0.1745278E+00
          2   -1    0    0  501    0  0.00000000000E+00  0.00000000000E+00  0.71313376713E+01  0.71313381453E+01  0.26000000000E-02 0.  1.
         -2   -1    0    0    0  501 -0.00000000000E+00 -0.00000000000E+00 -0.14026115318E+02  0.14026115559E+02  0.26000000000E-02 0. -1.
       1023    2    1    2    0    0  0.00000000000E+00  0.00000000000E+00 -0.68947776464E+01  0.21157453704E+02  0.20002497055E+02 0.  0.
        -13    1    3    3    0    0 -0.92499872741E+01 -0.38006901001E+01 -0.35312764722E+01  0.10606064106E+02  0.10570000000E+00 0.  1.
         13    1    3    3    0    0  0.92499872741E+01  0.38006901001E+01 -0.33635011742E+01  0.10551389598E+02  0.10570000000E+00 0. -1.
<mgrwt>
<rscale>  0 0.20002497E+02</rscale>
<asrwt>0</asrwt>
<pdfrwt beam="1">  1        2 0.10971289E-02 0.20002497E+02</pdfrwt>
<pdfrwt beam="2">  1       -2 0.21578639E-02 0.20002497E+02</pdfrwt>
<totfact> 0.38481830E+06</totfact>
</mgrwt>
</event>
<event>
 5    1  0.1607476E-006  0.2000283E+02  0.7818608E-02  0.1745272E+00
         -2   -1    0    0    0  501 -0.00000000000E+00  0.00000000000E+00  0.10865519957E+01  0.10865551065E+01  0.26000000000E-02 0.  1.
          2   -1    0    0  501    0  0.00000000000E+00 -0.00000000000E+00 -0.92060148572E+02  0.92060148609E+02  0.26000000000E-02 0. -1.
       1023    2    1    2    0    0  0.00000000000E+00  0.00000000000E+00 -0.90973596576E+02  0.93146703715E+02  0.20002828275E+02 0.  0.
        -13    1    3    3    0    0 -0.77638732508E+01 -0.63039180322E+01 -0.45480476842E+02  0.46567177891E+02  0.10570000000E+00 0. -1.
         13    1    3    3    0    0  0.77638732508E+01  0.63039180322E+01 -0.45493119734E+02  0.46579525825E+02  0.10570000000E+00 0.  1.
<mgrwt>
<rscale>  0 0.20002828E+02</rscale>
<asrwt>0</asrwt>
<pdfrwt beam="2">  1        2 0.14163094E-01 0.20002828E+02</pdfrwt>
<pdfrwt beam="1">  1       -2 0.16716216E-03 0.20002828E+02</pdfrwt>
<totfact> 0.51781103E+06</totfact>
</mgrwt>
</event>
<event>
 5    1  0.1607476E-006  0.2001053E+02  0.7818608E-02  0.1745119E+00
         -2   -1    0    0    0  501 -0.00000000000E+00  0.00000000000E+00  0.44280819303E+02  0.44280819379E+02  0.26000000000E-02 0.  1.
          2   -1    0    0  501    0  0.00000000000E+00 -0.00000000000E+00 -0.22606919564E+01  0.22606934515E+01  0.26000000000E-02 0. -1.
       1023    2    1    2    0    0  0.00000000000E+00  0.00000000000E+00  0.42020127347E+02  0.46541512831E+02  0.20010530087E+02 0.  0.
        -13    1    3    3    0    0  0.39619341015E+01  0.91854372815E+01  0.20642489251E+02  0.22938890880E+02  0.10570000000E+00 0. -1.
         13    1    3    3    0    0 -0.39619341015E+01 -0.91854372815E+01  0.21377638096E+02  0.23602621950E+02  0.10570000000E+00 0.  1.
<mgrwt>
<rscale>  0 0.20010530E+02</rscale>
<asrwt>0</asrwt>
<pdfrwt beam="2">  1        2 0.34779886E-03 0.20010530E+02</pdfrwt>
<pdfrwt beam="1">  1       -2 0.68124343E-02 0.20010530E+02</pdfrwt>
<totfact> 0.34431361E+06</totfact>
</mgrwt>
</event>
<event>
 5    1  0.2601885E-006  0.2000292E+02  0.7818608E-02  0.1745270E+00
         -2   -1    0    0    0  501 -0.00000000000E+00  0.00000000000E+00  0.87904226285E+00  0.87904610793E+00  0.26000000000E-02 0. -1.
          2   -1    0    0  501    0  0.00000000000E+00 -0.00000000000E+00 -0.11379310303E+03  0.11379310306E+03  0.26000000000E-02 0.  1.
       1023    2    1    2    0    0  0.00000000000E+00  0.00000000000E+00 -0.11291406077E+03  0.11467214917E+03  0.20002916682E+02 0.  0.
        -13    1    3    3    0    0  0.84903878515E+01 -0.52836790708E+01 -0.57136456144E+02  0.58005083774E+02  0.10570000000E+00 0.  1.
         13    1    3    3    0    0 -0.84903878515E+01  0.52836790708E+01 -0.55777604624E+02  0.56667065395E+02  0.10570000000E+00 0. -1.
<mgrwt>
<rscale>  0 0.20002917E+02</rscale>
<asrwt>0</asrwt>
<pdfrwt beam="2">  1        2 0.17506620E-01 0.20002917E+02</pdfrwt>
<pdfrwt beam="1">  1       -2 0.13523766E-03 0.20002917E+02</pdfrwt>
<totfact> 0.54362561E+06</totfact>
</mgrwt>
</event>
<event>
 5    1  0.1607476E-006  0.2000459E+02  0.7818608E-02  0.1745237E+00
         -2   -1    0    0    0  501 -0.00000000000E+00  0.00000000000E+00  0.24460135161E+02  0.24460135299E+02  0.26000000000E-02 0.  1.
          2   -1    0    0  501    0  0.00000000000E+00 -0.00000000000E+00 -0.40901599507E+01  0.40901607771E+01  0.26000000000E-02 0. -1.
       1023    2    1    2    0    0  0.00000000000E+00  0.00000000000E+00  0.20369975210E+02  0.28550296076E+02  0.20004587373E+02 0.  0.
        -13    1    3    3    0    0  0.44230964344E+01  0.89700417859E+01  0.10322433951E+02  0.14373212823E+02  0.10570000000E+00 0.  1.
         13    1    3    3    0    0 -0.44230964344E+01 -0.89700417859E+01  0.10047541259E+02  0.14177083253E+02  0.10570000000E+00 0. -1.
<mgrwt>
<rscale>  0 0.20004587E+02</rscale>
<asrwt>0</asrwt>
<pdfrwt beam="2">  1        2 0.62925545E-03 0.20004587E+02</pdfrwt>
<pdfrwt beam="1">  1       -2 0.37630978E-02 0.20004587E+02</pdfrwt>
<totfact> 0.36764315E+06</totfact>
</mgrwt>
</event>
<event>
 5    1  0.1607476E-006  0.2000771E+02  0.7818608E-02  0.1745175E+00
          2   -1    0    0  501    0  0.00000000000E+00  0.00000000000E+00  0.96984898118E+00  0.96985246625E+00  0.26000000000E-02 0.  1.
         -2   -1    0    0    0  501 -0.00000000000E+00 -0.00000000000E+00 -0.10318811478E+03  0.10318811481E+03  0.26000000000E-02 0. -1.
       1023    2    1    2    0    0  0.00000000000E+00  0.00000000000E+00 -0.10221826579E+03  0.10415796727E+03  0.20007705635E+02 0.  0.
        -13    1    3    3    0    0 -0.98521338137E+01  0.17160169648E+01 -0.49870132712E+02  0.50863056968E+02  0.10570000000E+00 0.  1.
         13    1    3    3    0    0  0.98521338137E+01 -0.17160169648E+01 -0.52348133082E+02  0.53294910307E+02  0.10570000000E+00 0. -1.
<mgrwt>
<rscale>  0 0.20007706E+02</rscale>
<asrwt>0</asrwt>
<pdfrwt beam="1">  1        2 0.14920789E-03 0.20007706E+02</pdfrwt>
<pdfrwt beam="2">  1       -2 0.15875086E-01 0.20007706E+02</pdfrwt>
<totfact> 0.29476059E+06</totfact>
</mgrwt>
</event>
<event>
 5    1  0.1607476E-006  0.2000185E+02  0.7818608E-02  0.1745291E+00
         -2   -1    0    0    0  501 -0.00000000000E+00  0.00000000000E+00  0.43901995733E+01  0.43902003432E+01  0.26000000000E-02 0. -1.
          2   -1    0    0  501    0  0.00000000000E+00 -0.00000000000E+00 -0.22782208917E+02  0.22782209066E+02  0.26000000000E-02 0.  1.
       1023    2    1    2    0    0  0.00000000000E+00  0.00000000000E+00 -0.18392009344E+02  0.27172409409E+02  0.20001845549E+02 0.  0.
        -13    1    3    3    0    0  0.94367493279E+01 -0.33095309642E+01 -0.92575247213E+01  0.13627845374E+02  0.10570000000E+00 0. -1.
         13    1    3    3    0    0 -0.94367493279E+01  0.33095309642E+01 -0.91344846226E+01  0.13544564035E+02  0.10570000000E+00 0.  1.
<mgrwt>
<rscale>  0 0.20001846E+02</rscale>
<asrwt>0</asrwt>
<pdfrwt beam="2">  1        2 0.35049552E-02 0.20001846E+02</pdfrwt>
<pdfrwt beam="1">  1       -2 0.67541540E-03 0.20001846E+02</pdfrwt>
<totfact> 0.42167616E+06</totfact>
</mgrwt>
</event>
<event>
 5    1  0.1607476E-006  0.2000302E+02  0.7818608E-02  0.1745268E+00
          2   -1    0    0  501    0  0.00000000000E+00  0.00000000000E+00  0.58874449928E+01  0.58874455669E+01  0.26000000000E-02 0. -1.
         -2   -1    0    0    0  501 -0.00000000000E+00 -0.00000000000E+00 -0.16990431451E+02  0.16990431650E+02  0.26000000000E-02 0.  1.
       1023    2    1    2    0    0  0.00000000000E+00  0.00000000000E+00 -0.11102986458E+02  0.22877877217E+02  0.20003023713E+02 0.  0.
        -13    1    3    3    0    0  0.68806321297E+01 -0.72572870676E+01 -0.54507883577E+01  0.11390064982E+02  0.10570000000E+00 0.  1.
         13    1    3    3    0    0 -0.68806321297E+01  0.72572870676E+01 -0.56521981004E+01  0.11487812235E+02  0.10570000000E+00 0. -1.
<mgrwt>
<rscale>  0 0.20003024E+02</rscale>
<asrwt>0</asrwt>
<pdfrwt beam="1">  1        2 0.90576083E-03 0.20003024E+02</pdfrwt>
<pdfrwt beam="2">  1       -2 0.26139126E-02 0.20003024E+02</pdfrwt>
<totfact> 0.37918409E+06</totfact>
</mgrwt>
</event>
<event>
 5    1  0.1607476E-006  0.2000137E+02  0.7818608E-02  0.1745301E+00
         -2   -1    0    0    0  501 -0.00000000000E+00  0.00000000000E+00  0.26817359924E+01  0.26817372528E+01  0.26000000000E-02 0.  1.
          2   -1    0    0  501    0  0.00000000000E+00 -0.00000000000E+00 -0.37294358773E+02  0.37294358864E+02  0.26000000000E-02 0. -1.
       1023    2    1    2    0    0  0.00000000000E+00  0.00000000000E+00 -0.34612622781E+02  0.39976096117E+02  0.20001365078E+02 0.  0.
        -13    1    3    3    0    0  0.47580276593E+01 -0.87956550246E+01 -0.17326716655E+02  0.20005715609E+02  0.10570000000E+00 0.  1.
         13    1    3    3    0    0 -0.47580276593E+01  0.87956550246E+01 -0.17285906126E+02  0.19970380508E+02  0.10570000000E+00 0. -1.
<mgrwt>
<rscale>  0 0.20001365E+02</rscale>
<asrwt>0</asrwt>
<pdfrwt beam="2">  1        2 0.57375934E-02 0.20001365E+02</pdfrwt>
<pdfrwt beam="1">  1       -2 0.41257490E-03 0.20001365E+02</pdfrwt>
<totfact> 0.44488291E+06</totfact>
</mgrwt>
</event>
<event>
 5    1  0.1607476E-006  0.2000471E+02  0.7818608E-02  0.1745235E+00
         -2   -1    0    0    0  501 -0.00000000000E+00  0.00000000000E+00  0.10636262585E+02  0.10636262903E+02  0.26000000000E-02 0.  1.
          2   -1    0    0  501    0  0.00000000000E+00 -0.00000000000E+00 -0.94062230018E+01  0.94062233611E+01  0.26000000000E-02 0. -1.
       1023    2    1    2    0    0  0.00000000000E+00  0.00000000000E+00  0.12300395835E+01  0.20042486264E+02  0.20004705903E+02 0.  0.
        -13    1    3    3    0    0  0.85081289713E+01 -0.52580923821E+01  0.60510221938E+00  0.10020634475E+02  0.10570000000E+00 0.  1.
         13    1    3    3    0    0 -0.85081289713E+01  0.52580923821E+01  0.62493736417E+00  0.10021851789E+02  0.10570000000E+00 0. -1.
<mgrwt>
<rscale>  0 0.20004706E+02</rscale>
<asrwt>0</asrwt>
<pdfrwt beam="2">  1        2 0.14471113E-02 0.20004706E+02</pdfrwt>
<pdfrwt beam="1">  1       -2 0.16363481E-02 0.20004706E+02</pdfrwt>
<totfact> 0.39265625E+06</totfact>
</mgrwt>
</event>
<event>
 4    1  0.1607476E-006  0.2001810E+02  0.7818608E-02  0.1744968E+00
          2   -1    0    0  501    0  0.00000000000E+00  0.00000000000E+00  0.86422560838E+01  0.86422564749E+01  0.26000000000E-02 0. -1.
         -2   -1    0    0    0  501 -0.00000000000E+00 -0.00000000000E+00 -0.11592006749E+02  0.11592007041E+02  0.26000000000E-02 0.  1.
        -13    1    1    2    0    0  0.78561774937E+01  0.62001473878E+01 -0.13812859686E+01  0.10103488302E+02  0.10570000000E+00 0.  1.
         13    1    1    2    0    0 -0.78561774937E+01 -0.62001473878E+01 -0.15684646968E+01  0.10130775214E+02  0.10570000000E+00 0. -1.
<mgrwt>
<rscale>  0 0.20018102E+02</rscale>
<asrwt>0</asrwt>
<pdfrwt beam="1">  1        2 0.13295779E-02 0.20018102E+02</pdfrwt>
<pdfrwt beam="2">  1       -2 0.17833857E-02 0.20018102E+02</pdfrwt>
<totfact> 0.38963077E+06</totfact>
</mgrwt>
</event>
<event>
 5    1  0.1607476E-006  0.2000519E+02  0.7818608E-02  0.1745225E+00
          2   -1    0    0  501    0  0.00000000000E+00  0.00000000000E+00  0.41836846660E+02  0.41836846740E+02  0.26000000000E-02 0. -1.
         -2   -1    0    0    0  501 -0.00000000000E+00 -0.00000000000E+00 -0.23914765764E+01  0.23914779898E+01  0.26000000000E-02 0.  1.
       1023    2    1    2    0    0  0.00000000000E+00  0.00000000000E+00  0.39445370083E+02  0.44228324730E+02  0.20005186514E+02 0.  0.
        -13    1    3    3    0    0  0.34048121124E+01  0.94043844265E+01  0.19886755915E+02  0.22260490230E+02  0.10570000000E+00 0.  1.
         13    1    3    3    0    0 -0.34048121124E+01 -0.94043844265E+01  0.19558614168E+02  0.21967834500E+02  0.10570000000E+00 0. -1.
<mgrwt>
<rscale>  0 0.20005187E+02</rscale>
<asrwt>0</asrwt>
<pdfrwt beam="1">  1        2 0.64364378E-02 0.20005187E+02</pdfrwt>
<pdfrwt beam="2">  1       -2 0.36791960E-03 0.20005187E+02</pdfrwt>
<totfact> 0.45138860E+06</totfact>
</mgrwt>
</event>
<event>
 4    1  0.1607476E-006  0.2040544E+02  0.7818608E-02  0.1737384E+00
         -2   -1    0    0    0  501 -0.00000000000E+00  0.00000000000E+00  0.12822897424E+01  0.12822923783E+01  0.26000000000E-02 0. -1.
          2   -1    0    0  501    0  0.00000000000E+00 -0.00000000000E+00 -0.81179261656E+02  0.81179261697E+02  0.26000000000E-02 0.  1.
        -13    1    1    2    0    0 -0.75937612568E+01  0.67620024328E+01 -0.36580998563E+02  0.37968019639E+02  0.10570000000E+00 0. -1.
         13    1    1    2    0    0  0.75937612568E+01 -0.67620024328E+01 -0.43315973350E+02  0.44493534437E+02  0.10570000000E+00 0.  1.
<mgrwt>
<rscale>  0 0.20405435E+02</rscale>
<asrwt>0</asrwt>
<pdfrwt beam="2">  1        2 0.12489113E-01 0.20405435E+02</pdfrwt>
<pdfrwt beam="1">  1       -2 0.19727561E-03 0.20405435E+02</pdfrwt>
<totfact> 0.48252663E+06</totfact>
</mgrwt>
</event>
<event>
 5    1  0.1607476E-006  0.2000193E+02  0.7818608E-02  0.1745290E+00
          2   -1    0    0  501    0  0.00000000000E+00  0.00000000000E+00  0.23003939617E+02  0.23003939764E+02  0.26000000000E-02 0.  1.
         -2   -1    0    0    0  501 -0.00000000000E+00 -0.00000000000E+00 -0.43479187501E+01  0.43479195274E+01  0.26000000000E-02 0. -1.
       1023    2    1    2    0    0  0.00000000000E+00  0.00000000000E+00  0.18656020867E+02  0.27351859291E+02  0.20001927210E+02 0.  0.
        -13    1    3    3    0    0 -0.99850313106E+01 -0.55211003548E+00  0.92606739555E+01  0.13630001114E+02  0.10570000000E+00 0. -1.
         13    1    3    3    0    0  0.99850313106E+01  0.55211003548E+00  0.93953469112E+01  0.13721858177E+02  0.10570000000E+00 0.  1.
<mgrwt>
<rscale>  0 0.20001927E+02</rscale>
<asrwt>0</asrwt>
<pdfrwt beam="1">  1        2 0.35390677E-02 0.20001927E+02</pdfrwt>
<pdfrwt beam="2">  1       -2 0.66891064E-03 0.20001927E+02</pdfrwt>
<totfact> 0.42205845E+06</totfact>
</mgrwt>
</event>
<event>
 5    1  0.1607476E-006  0.2000850E+02  0.7818608E-02  0.1745159E+00
         -2   -1    0    0    0  501 -0.00000000000E+00  0.00000000000E+00  0.96231341952E+01  0.96231345464E+01  0.26000000000E-02 0. -1.
          2   -1    0    0  501    0  0.00000000000E+00 -0.00000000000E+00 -0.10400461071E+02  0.10400461396E+02  0.26000000000E-02 0.  1.
       1023    2    1    2    0    0  0.00000000000E+00  0.00000000000E+00 -0.77732687574E+00  0.20023595942E+02  0.20008502128E+02 0.  0.
        -13    1    3    3    0    0  0.82204310487E+01 -0.56968916812E+01 -0.59811873205E+00  0.10019929140E+02  0.10570000000E+00 0.  1.
         13    1    3    3    0    0 -0.82204310487E+01  0.56968916812E+01 -0.17920814369E+00  0.10003666803E+02  0.10570000000E+00 0. -1.
<mgrwt>
<rscale>  0 0.20008502E+02</rscale>
<asrwt>0</asrwt>
<pdfrwt beam="2">  1        2 0.16000710E-02 0.20008502E+02</pdfrwt>
<pdfrwt beam="1">  1       -2 0.14804822E-02 0.20008502E+02</pdfrwt>
<totfact> 0.39538665E+06</totfact>
</mgrwt>
</event>
<event>
 5    1  0.1607476E-006  0.2000567E+02  0.7818608E-02  0.1745215E+00
         -2   -1    0    0    0  501 -0.00000000000E+00  0.00000000000E+00  0.16831310019E+01  0.16831330101E+01  0.26000000000E-02 0.  1.
          2   -1    0    0  501    0  0.00000000000E+00 -0.00000000000E+00 -0.59446722045E+02  0.59446722102E+02  0.26000000000E-02 0. -1.
       1023    2    1    2    0    0  0.00000000000E+00  0.00000000000E+00 -0.57763591044E+02  0.61129855112E+02  0.20005667592E+02 0.  0.
        -13    1    3    3    0    0 -0.95734680452E+01 -0.28929214011E+01 -0.29367119295E+02  0.31023525796E+02  0.10570000000E+00 0. -1.
         13    1    3    3    0    0  0.95734680452E+01  0.28929214011E+01 -0.28396471748E+02  0.30106329316E+02  0.10570000000E+00 0.  1.
<mgrwt>
<rscale>  0 0.20005668E+02</rscale>
<asrwt>0</asrwt>
<pdfrwt beam="2">  1        2 0.91456481E-02 0.20005668E+02</pdfrwt>
<pdfrwt beam="1">  1       -2 0.25894344E-03 0.20005668E+02</pdfrwt>
<totfact> 0.47593262E+06</totfact>
</mgrwt>
</event>
<event>
 5    1  0.1607476E-006  0.2000346E+02  0.7818608E-02  0.1745259E+00
          2   -1    0    0  501    0  0.00000000000E+00  0.00000000000E+00  0.34715451603E+02  0.34715451700E+02  0.26000000000E-02 0. -1.
         -2   -1    0    0    0  501 -0.00000000000E+00 -0.00000000000E+00 -0.28815569442E+01  0.28815581171E+01  0.26000000000E-02 0.  1.
       1023    2    1    2    0    0  0.00000000000E+00  0.00000000000E+00  0.31833894659E+02  0.37597009817E+02  0.20003457153E+02 0.  0.
        -13    1    3    3    0    0  0.92173369648E+01  0.38797400776E+01  0.15713487191E+02  0.18626232469E+02  0.10570000000E+00 0. -1.
         13    1    3    3    0    0 -0.92173369648E+01 -0.38797400776E+01  0.16120407468E+02  0.18970777349E+02  0.10570000000E+00 0.  1.
<mgrwt>
<rscale>  0 0.20003457E+02</rscale>
<asrwt>0</asrwt>
<pdfrwt beam="1">  1        2 0.53408389E-02 0.20003457E+02</pdfrwt>
<pdfrwt beam="2">  1       -2 0.44331655E-03 0.20003457E+02</pdfrwt>
<totfact> 0.44088722E+06</totfact>
</mgrwt>
</event>
<event>
 5    1  0.1607476E-006  0.2000200E+02  0.7818608E-02  0.1745288E+00
         -2   -1    0    0    0  501 -0.00000000000E+00  0.00000000000E+00  0.84190782801E+01  0.84190786816E+01  0.26000000000E-02 0. -1.
          2   -1    0    0  501    0  0.00000000000E+00 -0.00000000000E+00 -0.11880164142E+02  0.11880164427E+02  0.26000000000E-02 0.  1.
       1023    2    1    2    0    0  0.00000000000E+00  0.00000000000E+00 -0.34610858619E+01  0.20299243108E+02  0.20002003785E+02 0.  0.
        -13    1    3    3    0    0 -0.72149953208E+01 -0.69242852443E+01 -0.18153475078E+01  0.10164081006E+02  0.10570000000E+00 0.  1.
         13    1    3    3    0    0  0.72149953208E+01  0.69242852443E+01 -0.16457383542E+01  0.10135162103E+02  0.10570000000E+00 0. -1.
<mgrwt>
<rscale>  0 0.20002004E+02</rscale>
<asrwt>0</asrwt>
<pdfrwt beam="2">  1        2 0.18277176E-02 0.20002004E+02</pdfrwt>
<pdfrwt beam="1">  1       -2 0.12952429E-02 0.20002004E+02</pdfrwt>
<totfact> 0.39959604E+06</totfact>
</mgrwt>
</event>
<event>
 5    1  0.1607476E-006  0.2000295E+02  0.7818608E-02  0.1745270E+00
         -2   -1    0    0    0  501 -0.00000000000E+00  0.00000000000E+00  0.72537700362E+01  0.72537705021E+01  0.26000000000E-02 0.  1.
          2   -1    0    0  501    0  0.00000000000E+00 -0.00000000000E+00 -0.13789995259E+02  0.13789995504E+02  0.26000000000E-02 0. -1.
       1023    2    1    2    0    0  0.00000000000E+00  0.00000000000E+00 -0.65362252225E+01  0.21043766006E+02  0.20002945972E+02 0.  0.
        -13    1    3    3    0    0 -0.98516058614E+01  0.17174723295E+01 -0.33945324744E+01  0.10561149202E+02  0.10570000000E+00 0. -1.
         13    1    3    3    0    0  0.98516058614E+01 -0.17174723295E+01 -0.31416927481E+01  0.10482616804E+02  0.10570000000E+00 0.  1.
<mgrwt>
<rscale>  0 0.20002946E+02</rscale>
<asrwt>0</asrwt>
<pdfrwt beam="2">  1        2 0.21215378E-02 0.20002946E+02</pdfrwt>
<pdfrwt beam="1">  1       -2 0.11159647E-02 0.20002946E+02</pdfrwt>
<totfact> 0.40409744E+06</totfact>
</mgrwt>
</event>
<event>
 5    1  0.1607476E-006  0.2000302E+02  0.7818608E-02  0.1745268E+00
         -2   -1    0    0    0  501 -0.00000000000E+00  0.00000000000E+00  0.10184233014E+01  0.10184266203E+01  0.26000000000E-02 0.  1.
          2   -1    0    0  501    0  0.00000000000E+00 -0.00000000000E+00 -0.98220480933E+02  0.98220480967E+02  0.26000000000E-02 0. -1.
       1023    2    1    2    0    0  0.00000000000E+00  0.00000000000E+00 -0.97202057631E+02  0.99238907587E+02  0.20003019057E+02 0.  0.
        -13    1    3    3    0    0 -0.72236516032E+01 -0.69157137541E+01 -0.48085896495E+02  0.49114894415E+02  0.10570000000E+00 0.  1.
         13    1    3    3    0    0  0.72236516032E+01  0.69157137541E+01 -0.49116161136E+02  0.50124013172E+02  0.10570000000E+00 0. -1.
<mgrwt>
<rscale>  0 0.20003019E+02</rscale>
<asrwt>0</asrwt>
<pdfrwt beam="2">  1        2 0.15110836E-01 0.20003019E+02</pdfrwt>
<pdfrwt beam="1">  1       -2 0.15668084E-03 0.20003019E+02</pdfrwt>
<totfact> 0.52526861E+06</totfact>
</mgrwt>
</event>
<event>
 4    1  0.1607476E-006  0.2016651E+02  0.7818608E-02  0.1742037E+00
          2   -1    0    0  501    0  0.00000000000E+00  0.00000000000E+00  0.10008284706E+03  0.10008284709E+03  0.26000000000E-02 0. -1.
         -2   -1    0    0    0  501 -0.00000000000E+00 -0.00000000000E+00 -0.10158772273E+01  0.10158805545E+01  0.26000000000E-02 0.  1.
        -13    1    1    2    0    0 -0.83646430955E+01 -0.56065086945E+01  0.52093107957E+02  0.53057546710E+02  0.10570000000E+00 0. -1.
         13    1    1    2    0    0  0.83646430955E+01  0.56065086945E+01  0.46973861873E+02  0.48041180934E+02  0.10570000000E+00 0.  1.
<mgrwt>
<rscale>  0 0.20166512E+02</rscale>
<asrwt>0</asrwt>
<pdfrwt beam="1">  1        2 0.15397362E-01 0.20166512E+02</pdfrwt>
<pdfrwt beam="2">  1       -2 0.15628905E-03 0.20166512E+02</pdfrwt>
<totfact> 0.51810512E+06</totfact>
</mgrwt>
</event>
<event>
 5    1  0.1607476E-006  0.2000426E+02  0.7818608E-02  0.1745243E+00
         -2   -1    0    0    0  501 -0.00000000000E+00  0.00000000000E+00  0.21274595294E+02  0.21274595453E+02  0.26000000000E-02 0. -1.
          2   -1    0    0  501    0  0.00000000000E+00 -0.00000000000E+00 -0.47024425016E+01  0.47024432203E+01  0.26000000000E-02 0.  1.
       1023    2    1    2    0    0  0.00000000000E+00  0.00000000000E+00  0.16572152792E+02  0.25977038673E+02  0.20004256798E+02 0.  0.
        -13    1    3    3    0    0  0.88663293638E+01 -0.46279496356E+01  0.82327587530E+01  0.12954505139E+02  0.10570000000E+00 0.  1.
         13    1    3    3    0    0 -0.88663293638E+01  0.46279496356E+01  0.83393940392E+01  0.13022533534E+02  0.10570000000E+00 0. -1.
<mgrwt>
<rscale>  0 0.20004257E+02</rscale>
<asrwt>0</asrwt>
<pdfrwt beam="2">  1        2 0.72345276E-03 0.20004257E+02</pdfrwt>
<pdfrwt beam="1">  1       -2 0.32730147E-02 0.20004257E+02</pdfrwt>
<totfact> 0.37221846E+06</totfact>
</mgrwt>
</event>
<event>
 5    1  0.1607476E-006  0.2000569E+02  0.7818608E-02  0.1745215E+00
         -2   -1    0    0    0  501 -0.00000000000E+00  0.00000000000E+00  0.52879278371E+01  0.52879284763E+01  0.26000000000E-02 0. -1.
          2   -1    0    0  501    0  0.00000000000E+00 -0.00000000000E+00 -0.18921761931E+02  0.18921762110E+02  0.26000000000E-02 0.  1.
       1023    2    1    2    0    0  0.00000000000E+00  0.00000000000E+00 -0.13633834094E+02  0.24209690586E+02  0.20005691344E+02 0.  0.
        -13    1    3    3    0    0 -0.61225622466E+01 -0.79088353429E+01 -0.69397573450E+01  0.12174023552E+02  0.10570000000E+00 0. -1.
         13    1    3    3    0    0  0.61225622466E+01  0.79088353429E+01 -0.66940767491E+01  0.12035667034E+02  0.10570000000E+00 0.  1.
<mgrwt>
<rscale>  0 0.20005691E+02</rscale>
<asrwt>0</asrwt>
<pdfrwt beam="2">  1        2 0.29110403E-02 0.20005691E+02</pdfrwt>
<pdfrwt beam="1">  1       -2 0.81352743E-03 0.20005691E+02</pdfrwt>
<totfact> 0.41450153E+06</totfact>
</mgrwt>
</event>
<event>
 5    1  0.1607476E-006  0.2000259E+02  0.7818608E-02  0.1745277E+00
         -2   -1    0    0    0  501 -0.00000000000E+00  0.00000000000E+00  0.12493211964E+01  0.12493239019E+01  0.26000000000E-02 0. -1.
          2   -1    0    0  501    0  0.00000000000E+00 -0.00000000000E+00 -0.80064138325E+02  0.80064138367E+02  0.26000000000E-02 0.  1.
       1023    2    1    2    0    0  0.00000000000E+00  0.00000000000E+00 -0.78814817128E+02  0.81313462269E+02  0.20002593511E+02 0.  0.
        -13    1    3    3    0    0 -0.99618490783E+01 -0.87895582677E+00 -0.39656807813E+02  0.40898466704E+02  0.10570000000E+00 0.  1.
         13    1    3    3    0    0  0.99618490783E+01  0.87895582677E+00 -0.39158009316E+02  0.40414995564E+02  0.10570000000E+00 0. -1.
<mgrwt>
<rscale>  0 0.20002594E+02</rscale>
<asrwt>0</asrwt>
<pdfrwt beam="2">  1        2 0.12317556E-01 0.20002594E+02</pdfrwt>
<pdfrwt beam="1">  1       -2 0.19220354E-03 0.20002594E+02</pdfrwt>
<totfact> 0.50293240E+06</totfact>
</mgrwt>
</event>
<event>
 4    1  0.1607476E-006  0.2016011E+02  0.7818608E-02  0.1742163E+00
          2   -1    0    0  501    0  0.00000000000E+00  0.00000000000E+00  0.69878577571E+02  0.69878577620E+02  0.26000000000E-02 0.  1.
         -2   -1    0    0    0  501 -0.00000000000E+00 -0.00000000000E+00 -0.14540571252E+01  0.14540594498E+01  0.26000000000E-02 0. -1.
        -13    1    1    2    0    0 -0.14367539395E+01 -0.99410561554E+01  0.37188428313E+02  0.38521153049E+02  0.10570000000E+00 0. -1.
         13    1    1    2    0    0  0.14367539395E+01  0.99410561554E+01  0.31236092134E+02  0.32811484021E+02  0.10570000000E+00 0.  1.
<mgrwt>
<rscale>  0 0.20160112E+02</rscale>
<asrwt>0</asrwt>
<pdfrwt beam="1">  1        2 0.10750554E-01 0.20160112E+02</pdfrwt>
<pdfrwt beam="2">  1       -2 0.22370120E-03 0.20160112E+02</pdfrwt>
<totfact> 0.48144599E+06</totfact>
</mgrwt>
</event>
<event>
 4    1  0.1607476E-006  0.2005335E+02  0.7818608E-02  0.1744269E+00
         -2   -1    0    0    0  501 -0.00000000000E+00  0.00000000000E+00  0.91934690564E+01  0.91934694241E+01  0.26000000000E-02 0.  1.
          2   -1    0    0  501    0  0.00000000000E+00 -0.00000000000E+00 -0.10935395926E+02  0.10935396235E+02  0.26000000000E-02 0. -1.
        -13    1    1    2    0    0 -0.96506579797E+01 -0.27065019321E+01 -0.11223185338E+01  0.10086184786E+02  0.10570000000E+00 0. -1.
         13    1    1    2    0    0  0.96506579797E+01  0.27065019321E+01 -0.61960833592E+00  0.10042680874E+02  0.10570000000E+00 0.  1.
<mgrwt>
<rscale>  0 0.20053352E+02</rscale>
<asrwt>0</asrwt>
<pdfrwt beam="2">  1        2 0.16823687E-02 0.20053352E+02</pdfrwt>
<pdfrwt beam="1">  1       -2 0.14143799E-02 0.20053352E+02</pdfrwt>
<totfact> 0.39483002E+06</totfact>
</mgrwt>
</event>
<event>
 5    1  0.1607476E-006  0.2000265E+02  0.7818608E-02  0.1745275E+00
          2   -1    0    0  501    0  0.00000000000E+00  0.00000000000E+00  0.21041358121E+02  0.21041358282E+02  0.26000000000E-02 0. -1.
         -2   -1    0    0    0  501 -0.00000000000E+00 -0.00000000000E+00 -0.47538037755E+01  0.47538044865E+01  0.26000000000E-02 0.  1.
       1023    2    1    2    0    0  0.00000000000E+00  0.00000000000E+00  0.16287554346E+02  0.25795162768E+02  0.20002649717E+02 0.  0.
        -13    1    3    3    0    0  0.90011347104E+01 -0.43582180900E+01  0.81065030818E+01  0.12874045817E+02  0.10570000000E+00 0.  1.
         13    1    3    3    0    0 -0.90011347104E+01  0.43582180900E+01  0.81810512638E+01  0.12921116951E+02  0.10570000000E+00 0. -1.
<mgrwt>
<rscale>  0 0.20002650E+02</rscale>
<asrwt>0</asrwt>
<pdfrwt beam="1">  1        2 0.32371320E-02 0.20002650E+02</pdfrwt>
<pdfrwt beam="2">  1       -2 0.73135451E-03 0.20002650E+02</pdfrwt>
<totfact> 0.41855250E+06</totfact>
</mgrwt>
</event>
<event>
 4    1  0.1607476E-006  0.2001567E+02  0.7818608E-02  0.1745017E+00
          2   -1    0    0  501    0  0.00000000000E+00  0.00000000000E+00  0.29608434338E+02  0.29608434453E+02  0.26000000000E-02 0. -1.
         -2   -1    0    0    0  501 -0.00000000000E+00 -0.00000000000E+00 -0.33827104217E+01  0.33827114209E+01  0.26000000000E-02 0.  1.
        -13    1    1    2    0    0  0.44512829688E+00  0.99940730606E+01  0.12689511901E+02  0.16159038347E+02  0.10570000000E+00 0.  1.
         13    1    1    2    0    0 -0.44512829688E+00 -0.99940730606E+01  0.13536212016E+02  0.16832107526E+02  0.10570000000E+00 0. -1.
<mgrwt>
<rscale>  0 0.20015672E+02</rscale>
<asrwt>0</asrwt>
<pdfrwt beam="1">  1        2 0.45551439E-02 0.20015672E+02</pdfrwt>
<pdfrwt beam="2">  1       -2 0.52041707E-03 0.20015672E+02</pdfrwt>
<totfact> 0.43234980E+06</totfact>
</mgrwt>
</event>
<event>
 5    1  0.1607476E-006  0.2000656E+02  0.7818608E-02  0.1745198E+00
         -2   -1    0    0    0  501 -0.00000000000E+00  0.00000000000E+00  0.77424755417E+01  0.77424759782E+01  0.26000000000E-02 0.  1.
          2   -1    0    0  501    0  0.00000000000E+00 -0.00000000000E+00 -0.12924237056E+02  0.12924237317E+02  0.26000000000E-02 0. -1.
       1023    2    1    2    0    0  0.00000000000E+00  0.00000000000E+00 -0.51817615139E+01  0.20666713295E+02  0.20006558576E+02 0.  0.
        -13    1    3    3    0    0 -0.59618658986E+01  0.80309750536E+01 -0.27131882762E+01  0.10364022791E+02  0.10570000000E+00 0. -1.
         13    1    3    3    0    0  0.59618658986E+01 -0.80309750536E+01 -0.24685732377E+01  0.10302690504E+02  0.10570000000E+00 0.  1.
<mgrwt>
<rscale>  0 0.20006559E+02</rscale>
<asrwt>0</asrwt>
<pdfrwt beam="2">  1        2 0.19883442E-02 0.20006559E+02</pdfrwt>
<pdfrwt beam="1">  1       -2 0.11911501E-02 0.20006559E+02</pdfrwt>
<totfact> 0.40193243E+06</totfact>
</mgrwt>
</event>
<event>
 5    1  0.1607476E-006  0.2000321E+02  0.7818608E-02  0.1745264E+00
          2   -1    0    0  501    0  0.00000000000E+00  0.00000000000E+00  0.35778156901E+02  0.35778156995E+02  0.26000000000E-02 0. -1.
         -2   -1    0    0    0  501 -0.00000000000E+00 -0.00000000000E+00 -0.27958992636E+01  0.27959004725E+01  0.26000000000E-02 0.  1.
       1023    2    1    2    0    0  0.00000000000E+00  0.00000000000E+00  0.32982257637E+02  0.38574057468E+02  0.20003214509E+02 0.  0.
        -13    1    3    3    0    0  0.95017188473E+01 -0.31206221660E+01  0.16501938853E+02  0.19296271716E+02  0.10570000000E+00 0. -1.
         13    1    3    3    0    0 -0.95017188473E+01  0.31206221660E+01  0.16480318784E+02  0.19277785751E+02  0.10570000000E+00 0.  1.
<mgrwt>
<rscale>  0 0.20003215E+02</rscale>
<asrwt>0</asrwt>
<pdfrwt beam="1">  1        2 0.55043323E-02 0.20003215E+02</pdfrwt>
<pdfrwt beam="2">  1       -2 0.43013842E-03 0.20003215E+02</pdfrwt>
<totfact> 0.44251162E+06</totfact>
</mgrwt>
</event>
<event>
 5    1  0.1607476E-006  0.2000367E+02  0.7818608E-02  0.1745255E+00
          2   -1    0    0  501    0  0.00000000000E+00  0.00000000000E+00  0.15530828612E+02  0.15530828830E+02  0.26000000000E-02 0. -1.
         -2   -1    0    0    0  501 -0.00000000000E+00 -0.00000000000E+00 -0.64411707307E+01  0.64411712554E+01  0.26000000000E-02 0.  1.
       1023    2    1    2    0    0  0.00000000000E+00  0.00000000000E+00  0.90896578814E+01  0.21972000085E+02  0.20003672346E+02 0.  0.
        -13    1    3    3    0    0 -0.99357169885E+01 -0.11421439704E+01  0.46007224164E+01  0.11009122770E+02  0.10570000000E+00 0.  1.
         13    1    3    3    0    0  0.99357169885E+01  0.11421439704E+01  0.44889354649E+01  0.10962877315E+02  0.10570000000E+00 0. -1.
<mgrwt>
<rscale>  0 0.20003672E+02</rscale>
<asrwt>0</asrwt>
<pdfrwt beam="1">  1        2 0.23893583E-02 0.20003672E+02</pdfrwt>
<pdfrwt beam="2">  1       -2 0.99094941E-03 0.20003672E+02</pdfrwt>
<totfact> 0.40785331E+06</totfact>
</mgrwt>
</event>
<event>
 5    1  0.1607476E-006  0.2000217E+02  0.7818608E-02  0.1745285E+00
         -2   -1    0    0    0  501 -0.00000000000E+00  0.00000000000E+00  0.25008876915E+01  0.25008890430E+01  0.26000000000E-02 0.  1.
          2   -1    0    0  501    0  0.00000000000E+00 -0.00000000000E+00 -0.39994478864E+02  0.39994478949E+02  0.26000000000E-02 0. -1.
       1023    2    1    2    0    0  0.00000000000E+00  0.00000000000E+00 -0.37493591173E+02  0.42495367992E+02  0.20002172925E+02 0.  0.
        -13    1    3    3    0    0 -0.99886443214E+01 -0.47998638181E+00 -0.18926512343E+02  0.21406247786E+02  0.10570000000E+00 0.  1.
         13    1    3    3    0    0  0.99886443214E+01  0.47998638181E+00 -0.18567078830E+02  0.21089120206E+02  0.10570000000E+00 0. -1.
<mgrwt>
<rscale>  0 0.20002173E+02</rscale>
<asrwt>0</asrwt>
<pdfrwt beam="2">  1        2 0.61529964E-02 0.20002173E+02</pdfrwt>
<pdfrwt beam="1">  1       -2 0.38475209E-03 0.20002173E+02</pdfrwt>
<totfact> 0.44884609E+06</totfact>
</mgrwt>
</event>
<event>
 5    1  0.1607476E-006  0.2000396E+02  0.7818608E-02  0.1745249E+00
         -2   -1    0    0    0  501 -0.00000000000E+00  0.00000000000E+00  0.11699230434E+02  0.11699230723E+02  0.26000000000E-02 0.  1.
          2   -1    0    0  501    0  0.00000000000E+00 -0.00000000000E+00 -0.85509564645E+01  0.85509568598E+01  0.26000000000E-02 0. -1.
       1023    2    1    2    0    0  0.00000000000E+00  0.00000000000E+00  0.31482739693E+01  0.20250187583E+02  0.20003961311E+02 0.  0.
        -13    1    3    3    0    0  0.77668362175E+00 -0.99710799666E+01  0.16274290296E+01  0.10133379046E+02  0.10570000000E+00 0. -1.
         13    1    3    3    0    0 -0.77668362175E+00  0.99710799666E+01  0.15208449398E+01  0.10116808537E+02  0.10570000000E+00 0.  1.
<mgrwt>
<rscale>  0 0.20003961E+02</rscale>
<asrwt>0</asrwt>
<pdfrwt beam="2">  1        2 0.13155318E-02 0.20003961E+02</pdfrwt>
<pdfrwt beam="1">  1       -2 0.17998817E-02 0.20003961E+02</pdfrwt>
<totfact> 0.38995877E+06</totfact>
</mgrwt>
</event>
<event>
 4    1  0.1607476E-006  0.2001349E+02  0.7818608E-02  0.1745060E+00
          2   -1    0    0  501    0  0.00000000000E+00  0.00000000000E+00  0.15529953240E+02  0.15529953457E+02  0.26000000000E-02 0. -1.
         -2   -1    0    0    0  501 -0.00000000000E+00 -0.00000000000E+00 -0.64478578135E+01  0.64478583377E+01  0.26000000000E-02 0.  1.
        -13    1    1    2    0    0 -0.27965235165E+01  0.96074531717E+01  0.45321414090E+01  0.10985225463E+02  0.10570000000E+00 0.  1.
         13    1    1    2    0    0  0.27965235165E+01 -0.96074531717E+01  0.45499540172E+01  0.10992586332E+02  0.10570000000E+00 0. -1.
<mgrwt>
<rscale>  0 0.20013489E+02</rscale>
<asrwt>0</asrwt>
<pdfrwt beam="1">  1        2 0.23892236E-02 0.20013489E+02</pdfrwt>
<pdfrwt beam="2">  1       -2 0.99197819E-03 0.20013489E+02</pdfrwt>
<totfact> 0.40739880E+06</totfact>
</mgrwt>
</event>
<event>
 5    1  0.1607476E-006  0.2000165E+02  0.7818608E-02  0.1745295E+00
         -2   -1    0    0    0  501 -0.00000000000E+00  0.00000000000E+00  0.38092703087E+02  0.38092703176E+02  0.26000000000E-02 0. -1.
          2   -1    0    0  501    0  0.00000000000E+00 -0.00000000000E+00 -0.26256071650E+01  0.26256084523E+01  0.26000000000E-02 0.  1.
       1023    2    1    2    0    0  0.00000000000E+00  0.00000000000E+00  0.35467095923E+02  0.40718311629E+02  0.20001650149E+02 0.  0.
        -13    1    3    3    0    0 -0.89795662057E+01  0.44014203028E+01  0.17703369445E+02  0.20332869254E+02  0.10570000000E+00 0.  1.
         13    1    3    3    0    0  0.89795662057E+01 -0.44014203028E+01  0.17763726478E+02  0.20385442374E+02  0.10570000000E+00 0. -1.
<mgrwt>
<rscale>  0 0.20001650E+02</rscale>
<asrwt>0</asrwt>
<pdfrwt beam="2">  1        2 0.40393966E-03 0.20001650E+02</pdfrwt>
<pdfrwt beam="1">  1       -2 0.58604161E-02 0.20001650E+02</pdfrwt>
<totfact> 0.35120989E+06</totfact>
</mgrwt>
</event>
<event>
 5    1  0.1613264E-006  0.2000155E+02  0.7818608E-02  0.1745297E+00
          2   -1    0    0  501    0  0.00000000000E+00  0.00000000000E+00  0.58994395126E+02  0.58994395183E+02  0.26000000000E-02 0. -1.
         -2   -1    0    0    0  501 -0.00000000000E+00 -0.00000000000E+00 -0.16953384882E+01  0.16953404819E+01  0.26000000000E-02 0.  1.
       1023    2    1    2    0    0  0.00000000000E+00  0.00000000000E+00  0.57299056638E+02  0.60689735665E+02  0.20001553028E+02 0.  0.
        -13    1    3    3    0    0 -0.98266170157E+01  0.18550961707E+01  0.28722263041E+02  0.30413538934E+02  0.10570000000E+00 0. -1.
         13    1    3    3    0    0  0.98266170157E+01 -0.18550961707E+01  0.28576793596E+02  0.30276196731E+02  0.10570000000E+00 0.  1.
<mgrwt>
<rscale>  0 0.20001553E+02</rscale>
<asrwt>0</asrwt>
<pdfrwt beam="1">  1        2 0.90760617E-02 0.20001553E+02</pdfrwt>
<pdfrwt beam="2">  1       -2 0.26082144E-03 0.20001553E+02</pdfrwt>
<totfact> 0.47554025E+06</totfact>
</mgrwt>
</event>
<event>
 5    1  0.1607476E-006  0.2000491E+02  0.7818608E-02  0.1745230E+00
         -2   -1    0    0    0  501 -0.00000000000E+00  0.00000000000E+00  0.71115434814E+02  0.71115434862E+02  0.26000000000E-02 0. -1.
          2   -1    0    0  501    0  0.00000000000E+00 -0.00000000000E+00 -0.14068537180E+01  0.14068561206E+01  0.26000000000E-02 0.  1.
       1023    2    1    2    0    0  0.00000000000E+00  0.00000000000E+00  0.69708581096E+02  0.72522290983E+02  0.20004909669E+02 0.  0.
        -13    1    3    3    0    0 -0.70490487671E+01  0.70931676654E+01  0.34168230033E+02  0.35601702658E+02  0.10570000000E+00 0. -1.
         13    1    3    3    0    0  0.70490487671E+01 -0.70931676654E+01  0.35540351063E+02  0.36920588325E+02  0.10570000000E+00 0.  1.
<mgrwt>
<rscale>  0 0.20004910E+02</rscale>
<asrwt>0</asrwt>
<pdfrwt beam="2">  1        2 0.21643919E-03 0.20004910E+02</pdfrwt>
<pdfrwt beam="1">  1       -2 0.10940838E-01 0.20004910E+02</pdfrwt>
<totfact> 0.31971673E+06</totfact>
</mgrwt>
</event>
<event>
 5    1  0.1607476E-006  0.2000142E+02  0.7818608E-02  0.1745300E+00
          2   -1    0    0  501    0  0.00000000000E+00  0.00000000000E+00  0.18081402397E+02  0.18081402584E+02  0.26000000000E-02 0. -1.
         -2   -1    0    0    0  501 -0.00000000000E+00 -0.00000000000E+00 -0.55313307037E+01  0.55313313148E+01  0.26000000000E-02 0.  1.
       1023    2    1    2    0    0  0.00000000000E+00  0.00000000000E+00  0.12550071694E+02  0.23612733899E+02  0.20001422516E+02 0.  0.
        -13    1    3    3    0    0  0.10393870460E+01  0.99459656014E+01  0.63013280510E+01  0.11820341149E+02  0.10570000000E+00 0.  1.
         13    1    3    3    0    0 -0.10393870460E+01 -0.99459656014E+01  0.62487436427E+01  0.11792392750E+02  0.10570000000E+00 0. -1.
<mgrwt>
<rscale>  0 0.20001423E+02</rscale>
<asrwt>0</asrwt>
<pdfrwt beam="1">  1        2 0.27817542E-02 0.20001423E+02</pdfrwt>
<pdfrwt beam="2">  1       -2 0.85097403E-03 0.20001423E+02</pdfrwt>
<totfact> 0.41309225E+06</totfact>
</mgrwt>
</event>
<event>
 5    1  0.1607476E-006  0.2000112E+02  0.7818608E-02  0.1745306E+00
          2   -1    0    0  501    0  0.00000000000E+00  0.00000000000E+00  0.13730408250E+01  0.13730432866E+01  0.26000000000E-02 0. -1.
         -2   -1    0    0    0  501 -0.00000000000E+00 -0.00000000000E+00 -0.72839134378E+02  0.72839134424E+02  0.26000000000E-02 0.  1.
       1023    2    1    2    0    0  0.00000000000E+00  0.00000000000E+00 -0.71466093553E+02  0.74212177711E+02  0.20001119791E+02 0.  0.
        -13    1    3    3    0    0 -0.19130855785E+01  0.98153002437E+01 -0.35721066354E+02  0.37094551746E+02  0.10570000000E+00 0.  1.
         13    1    3    3    0    0  0.19130855785E+01 -0.98153002437E+01 -0.35745027199E+02  0.37117625965E+02  0.10570000000E+00 0. -1.
<mgrwt>
<rscale>  0 0.20001120E+02</rscale>
<asrwt>0</asrwt>
<pdfrwt beam="1">  1        2 0.21123730E-03 0.20001120E+02</pdfrwt>
<pdfrwt beam="2">  1       -2 0.11206018E-01 0.20001120E+02</pdfrwt>
<totfact> 0.31840169E+06</totfact>
</mgrwt>
</event>
<event>
 4    1  0.1607476E-006  0.2013264E+02  0.7818608E-02  0.1742703E+00
         -2   -1    0    0    0  501 -0.00000000000E+00  0.00000000000E+00  0.29486647729E+01  0.29486659192E+01  0.26000000000E-02 0. -1.
          2   -1    0    0  501    0  0.00000000000E+00 -0.00000000000E+00 -0.34364972154E+02  0.34364972252E+02  0.26000000000E-02 0.  1.
        -13    1    1    2    0    0 -0.81590812448E+01  0.58587134747E+01 -0.14500597531E+02  0.17640114274E+02  0.10570000000E+00 0.  1.
         13    1    1    2    0    0  0.81590812448E+01 -0.58587134747E+01 -0.16915709850E+02  0.19673523898E+02  0.10570000000E+00 0. -1.
<mgrwt>
<rscale>  0 0.20132641E+02</rscale>
<asrwt>0</asrwt>
<pdfrwt beam="2">  1        2 0.52869186E-02 0.20132641E+02</pdfrwt>
<pdfrwt beam="1">  1       -2 0.45364085E-03 0.20132641E+02</pdfrwt>
<totfact> 0.43405132E+06</totfact>
</mgrwt>
</event>
<event>
 5    1  0.1607476E-006  0.2000581E+02  0.7818608E-02  0.1745213E+00
         -2   -1    0    0    0  501 -0.00000000000E+00  0.00000000000E+00  0.79392136963E+01  0.79392141220E+01  0.26000000000E-02 0.  1.
          2   -1    0    0  501    0  0.00000000000E+00 -0.00000000000E+00 -0.12603018747E+02  0.12603019015E+02  0.26000000000E-02 0. -1.
       1023    2    1    2    0    0  0.00000000000E+00  0.00000000000E+00 -0.46638050502E+01  0.20542233137E+02  0.20005805775E+02 0.  0.
        -13    1    3    3    0    0 -0.99661664186E+01 -0.84941141510E+00 -0.23007433494E+01  0.10264042346E+02  0.10570000000E+00 0. -1.
         13    1    3    3    0    0  0.99661664186E+01  0.84941141510E+00 -0.23630617008E+01  0.10278190791E+02  0.10570000000E+00 0.  1.
<mgrwt>
<rscale>  0 0.20005806E+02</rscale>
<asrwt>0</asrwt>
<pdfrwt beam="2">  1        2 0.19389260E-02 0.20005806E+02</pdfrwt>
<pdfrwt beam="1">  1       -2 0.12214175E-02 0.20005806E+02</pdfrwt>
<totfact> 0.40120049E+06</totfact>
</mgrwt>
</event>
<event>
 5    1  0.1607476E-006  0.2000248E+02  0.7818608E-02  0.1745279E+00
         -2   -1    0    0    0  501 -0.00000000000E+00  0.00000000000E+00  0.63097748759E+01  0.63097754115E+01  0.26000000000E-02 0.  1.
          2   -1    0    0  501    0  0.00000000000E+00 -0.00000000000E+00 -0.15852360974E+02  0.15852361187E+02  0.26000000000E-02 0. -1.
       1023    2    1    2    0    0  0.00000000000E+00  0.00000000000E+00 -0.95425860984E+01  0.22162136599E+02  0.20002483575E+02 0.  0.
        -13    1    3    3    0    0 -0.63907870688E+01 -0.76921171382E+01 -0.48303321168E+01  0.11106489377E+02  0.10570000000E+00 0. -1.
         13    1    3    3    0    0  0.63907870688E+01  0.76921171382E+01 -0.47122539816E+01  0.11055647222E+02  0.10570000000E+00 0.  1.
<mgrwt>
<rscale>  0 0.20002484E+02</rscale>
<asrwt>0</asrwt>
<pdfrwt beam="2">  1        2 0.24388248E-02 0.20002484E+02</pdfrwt>
<pdfrwt beam="1">  1       -2 0.97073466E-03 0.20002484E+02</pdfrwt>
<totfact> 0.40857981E+06</totfact>
</mgrwt>
</event>
<event>
 5    1  0.1607476E-006  0.2000173E+02  0.7818608E-02  0.1745294E+00
          2   -1    0    0  501    0  0.00000000000E+00  0.00000000000E+00  0.33278465816E+02  0.33278465917E+02  0.26000000000E-02 0.  1.
         -2   -1    0    0    0  501 -0.00000000000E+00 -0.00000000000E+00 -0.30054668428E+01  0.30054679674E+01  0.26000000000E-02 0. -1.
       1023    2    1    2    0    0  0.00000000000E+00  0.00000000000E+00  0.30272998973E+02  0.36283933885E+02  0.20001734708E+02 0.  0.
        -13    1    3    3    0    0 -0.98277557159E+01  0.18494479746E+01  0.15081026626E+02  0.18095683927E+02  0.10570000000E+00 0.  1.
         13    1    3    3    0    0  0.98277557159E+01 -0.18494479746E+01  0.15191972347E+02  0.18188249957E+02  0.10570000000E+00 0. -1.
<mgrwt>
<rscale>  0 0.20001735E+02</rscale>
<asrwt>0</asrwt>
<pdfrwt beam="1">  1        2 0.51197643E-02 0.20001735E+02</pdfrwt>
<pdfrwt beam="2">  1       -2 0.46237959E-03 0.20001735E+02</pdfrwt>
<totfact> 0.43877092E+06</totfact>
</mgrwt>
</event>
<event>
 5    1  0.1607476E-006  0.2001131E+02  0.7818608E-02  0.1745103E+00
         -2   -1    0    0    0  501 -0.00000000000E+00  0.00000000000E+00  0.29144215824E+02  0.29144215940E+02  0.26000000000E-02 0.  1.
          2   -1    0    0  501    0  0.00000000000E+00 -0.00000000000E+00 -0.34350931266E+01  0.34350941106E+01  0.26000000000E-02 0. -1.
       1023    2    1    2    0    0  0.00000000000E+00  0.00000000000E+00  0.25709122698E+02  0.32579310051E+02  0.20011308141E+02 0.  0.
        -13    1    3    3    0    0  0.21725287440E+01 -0.97619874932E+01  0.13331052952E+02  0.16665666091E+02  0.10570000000E+00 0. -1.
         13    1    3    3    0    0 -0.21725287440E+01  0.97619874932E+01  0.12378069746E+02  0.15913643960E+02  0.10570000000E+00 0.  1.
<mgrwt>
<rscale>  0 0.20011308E+02</rscale>
<asrwt>0</asrwt>
<pdfrwt beam="2">  1        2 0.52847593E-03 0.20011308E+02</pdfrwt>
<pdfrwt beam="1">  1       -2 0.44837258E-02 0.20011308E+02</pdfrwt>
<totfact> 0.36125879E+06</totfact>
</mgrwt>
</event>
<event>
 5    1  0.1607476E-006  0.2000375E+02  0.7818608E-02  0.1745254E+00
         -2   -1    0    0    0  501 -0.00000000000E+00  0.00000000000E+00  0.21924839658E+01  0.21924855075E+01  0.26000000000E-02 0.  1.
          2   -1    0    0  501    0  0.00000000000E+00 -0.00000000000E+00 -0.45627447313E+02  0.45627447388E+02  0.26000000000E-02 0. -1.
       1023    2    1    2    0    0  0.00000000000E+00  0.00000000000E+00 -0.43434963348E+02  0.47819932895E+02  0.20003748176E+02 0.  0.
        -13    1    3    3    0    0  0.45040700516E+01 -0.89290004897E+01 -0.21448972900E+02  0.23666079264E+02  0.10570000000E+00 0. -1.
         13    1    3    3    0    0 -0.45040700516E+01  0.89290004897E+01 -0.21985990448E+02  0.24153853631E+02  0.10570000000E+00 0.  1.
<mgrwt>
<rscale>  0 0.20003748E+02</rscale>
<asrwt>0</asrwt>
<pdfrwt beam="2">  1        2 0.70196067E-02 0.20003748E+02</pdfrwt>
<pdfrwt beam="1">  1       -2 0.33730538E-03 0.20003748E+02</pdfrwt>
<totfact> 0.45691846E+06</totfact>
</mgrwt>
</event>
<event>
 5    1  0.1607476E-006  0.2000529E+02  0.7818608E-02  0.1745223E+00
          2   -1    0    0  501    0  0.00000000000E+00  0.00000000000E+00  0.18600960495E+02  0.18600960677E+02  0.26000000000E-02 0. -1.
         -2   -1    0    0    0  501 -0.00000000000E+00 -0.00000000000E+00 -0.53789078596E+01  0.53789084879E+01  0.26000000000E-02 0.  1.
       1023    2    1    2    0    0  0.00000000000E+00  0.00000000000E+00  0.13222052635E+02  0.23979869165E+02  0.20005285533E+02 0.  0.
        -13    1    3    3    0    0 -0.89700105339E+01  0.44243244435E+01  0.67035193156E+01  0.12040933496E+02  0.10570000000E+00 0. -1.
         13    1    3    3    0    0  0.89700105339E+01 -0.44243244435E+01  0.65185333199E+01  0.11938935668E+02  0.10570000000E+00 0.  1.
<mgrwt>
<rscale>  0 0.20005286E+02</rscale>
<asrwt>0</asrwt>
<pdfrwt beam="1">  1        2 0.28616864E-02 0.20005286E+02</pdfrwt>
<pdfrwt beam="2">  1       -2 0.82752433E-03 0.20005286E+02</pdfrwt>
<totfact> 0.41391072E+06</totfact>
</mgrwt>
</event>
<event>
 4    1  0.1607476E-006  0.2001564E+02  0.7818608E-02  0.1745017E+00
          2   -1    0    0  501    0  0.00000000000E+00  0.00000000000E+00  0.59647085785E+02  0.59647085842E+02  0.26000000000E-02 0.  1.
         -2   -1    0    0    0  501 -0.00000000000E+00 -0.00000000000E+00 -0.16791496994E+01  0.16791517123E+01  0.26000000000E-02 0. -1.
        -13    1    1    2    0    0 -0.87026940838E+01  0.49377965106E+01  0.29483287103E+02  0.31135094501E+02  0.10570000000E+00 0.  1.
         13    1    1    2    0    0  0.87026940838E+01 -0.49377965106E+01  0.28484648983E+02  0.30191143053E+02  0.10570000000E+00 0. -1.
<mgrwt>
<rscale>  0 0.20015639E+02</rscale>
<asrwt>0</asrwt>
<pdfrwt beam="1">  1        2 0.91764761E-02 0.20015639E+02</pdfrwt>
<pdfrwt beam="2">  1       -2 0.25833085E-03 0.20015639E+02</pdfrwt>
<totfact> 0.47567538E+06</totfact>
</mgrwt>
</event>
<event>
 5    1  0.1607476E-006  0.2000123E+02  0.7818608E-02  0.1745304E+00
         -2   -1    0    0    0  501 -0.00000000000E+00  0.00000000000E+00  0.38149493273E+01  0.38149502133E+01  0.26000000000E-02 0. -1.
          2   -1    0    0  501    0  0.00000000000E+00 -0.00000000000E+00 -0.26215891716E+02  0.26215891845E+02  0.26000000000E-02 0.  1.
       1023    2    1    2    0    0  0.00000000000E+00  0.00000000000E+00 -0.22400942388E+02  0.30030842058E+02  0.20001231333E+02 0.  0.
        -13    1    3    3    0    0  0.97990335358E+01 -0.19949797340E+01 -0.11182779529E+02  0.15002224264E+02  0.10570000000E+00 0.  1.
         13    1    3    3    0    0 -0.97990335358E+01  0.19949797340E+01 -0.11218162859E+02  0.15028617794E+02  0.10570000000E+00 0. -1.
<mgrwt>
<rscale>  0 0.20001231E+02</rscale>
<asrwt>0</asrwt>
<pdfrwt beam="2">  1        2 0.40332141E-02 0.20001231E+02</pdfrwt>
<pdfrwt beam="1">  1       -2 0.58691538E-03 0.20001231E+02</pdfrwt>
<totfact> 0.42754058E+06</totfact>
</mgrwt>
</event>
<event>
 5    1  0.1607476E-006  0.2000148E+02  0.7818608E-02  0.1745299E+00
          2   -1    0    0  501    0  0.00000000000E+00  0.00000000000E+00  0.37209593093E+02  0.37209593183E+02  0.26000000000E-02 0.  1.
         -2   -1    0    0    0  501 -0.00000000000E+00 -0.00000000000E+00 -0.26878762264E+01  0.26878774839E+01  0.26000000000E-02 0. -1.
       1023    2    1    2    0    0  0.00000000000E+00  0.00000000000E+00  0.34521716866E+02  0.39897470667E+02  0.20001480702E+02 0.  0.
        -13    1    3    3    0    0  0.47656869890E+01  0.87915723647E+01  0.17239194218E+02  0.19929990138E+02  0.10570000000E+00 0. -1.
         13    1    3    3    0    0 -0.47656869890E+01 -0.87915723647E+01  0.17282522648E+02  0.19967480530E+02  0.10570000000E+00 0.  1.
<mgrwt>
<rscale>  0 0.20001481E+02</rscale>
<asrwt>0</asrwt>
<pdfrwt beam="1">  1        2 0.57245531E-02 0.20001481E+02</pdfrwt>
<pdfrwt beam="2">  1       -2 0.41351951E-03 0.20001481E+02</pdfrwt>
<totfact> 0.44475035E+06</totfact>
</mgrwt>
</event>
<event>
 5    1  0.1607476E-006  0.2000620E+02  0.7818608E-02  0.1745205E+00
         -2   -1    0    0    0  501 -0.00000000000E+00  0.00000000000E+00  0.18276088792E+02  0.18276088977E+02  0.26000000000E-02 0. -1.
          2   -1    0    0  501    0  0.00000000000E+00 -0.00000000000E+00 -0.54750213747E+01  0.54750219921E+01  0.26000000000E-02 0.  1.
       1023    2    1    2    0    0  0.00000000000E+00  0.00000000000E+00  0.12801067418E+02  0.23751110969E+02  0.20006197671E+02 0.  0.
        -13    1    3    3    0    0 -0.14549478677E+01  0.98959148594E+01  0.63182005558E+01  0.11831180624E+02  0.10570000000E+00 0. -1.
         13    1    3    3    0    0  0.14549478677E+01 -0.98959148594E+01  0.64828668620E+01  0.11919930346E+02  0.10570000000E+00 0.  1.
<mgrwt>
<rscale>  0 0.20006198E+02</rscale>
<asrwt>0</asrwt>
<pdfrwt beam="2">  1        2 0.84231104E-03 0.20006198E+02</pdfrwt>
<pdfrwt beam="1">  1       -2 0.28117060E-02 0.20006198E+02</pdfrwt>
<totfact> 0.37686067E+06</totfact>
</mgrwt>
</event>
<event>
 5    1  0.1607476E-006  0.2000229E+02  0.7818608E-02  0.1745283E+00
          2   -1    0    0  501    0  0.00000000000E+00  0.00000000000E+00  0.20756184197E+02  0.20756184360E+02  0.26000000000E-02 0. -1.
         -2   -1    0    0    0  501 -0.00000000000E+00 -0.00000000000E+00 -0.48189426541E+01  0.48189433555E+01  0.26000000000E-02 0.  1.
       1023    2    1    2    0    0  0.00000000000E+00  0.00000000000E+00  0.15937241543E+02  0.25575127715E+02  0.20002287111E+02 0.  0.
        -13    1    3    3    0    0  0.99982615147E+01  0.19813656764E+00  0.78600630075E+01  0.12719915660E+02  0.10570000000E+00 0.  1.
         13    1    3    3    0    0 -0.99982615147E+01 -0.19813656764E+00  0.80771785351E+01  0.12855212056E+02  0.10570000000E+00 0. -1.
<mgrwt>
<rscale>  0 0.20002287E+02</rscale>
<asrwt>0</asrwt>
<pdfrwt beam="1">  1        2 0.31932592E-02 0.20002287E+02</pdfrwt>
<pdfrwt beam="2">  1       -2 0.74137586E-03 0.20002287E+02</pdfrwt>
<totfact> 0.41805419E+06</totfact>
</mgrwt>
</event>
<event>
 4    1  0.1607476E-006  0.2001887E+02  0.7818608E-02  0.1744953E+00
          2   -1    0    0  501    0  0.00000000000E+00  0.00000000000E+00  0.26240504382E+02  0.26240504511E+02  0.26000000000E-02 0.  1.
         -2   -1    0    0    0  501 -0.00000000000E+00 -0.00000000000E+00 -0.38180953859E+01  0.38180962712E+01  0.26000000000E-02 0. -1.
        -13    1    1    2    0    0 -0.38817333352E+01 -0.92231709236E+01  0.11522042777E+02  0.15261172229E+02  0.10570000000E+00 0. -1.
         13    1    1    2    0    0  0.38817333352E+01  0.92231709236E+01  0.10900366220E+02  0.14797428553E+02  0.10570000000E+00 0.  1.
<mgrwt>
<rscale>  0 0.20018867E+02</rscale>
<asrwt>0</asrwt>
<pdfrwt beam="1">  1        2 0.40370008E-02 0.20018867E+02</pdfrwt>
<pdfrwt beam="2">  1       -2 0.58739936E-03 0.20018867E+02</pdfrwt>
<totfact> 0.42673598E+06</totfact>
</mgrwt>
</event>
<event>
 5    1  0.1607476E-006  0.2000835E+02  0.7818608E-02  0.1745162E+00
          2   -1    0    0  501    0  0.00000000000E+00  0.00000000000E+00  0.16783706519E+01  0.16783726658E+01  0.26000000000E-02 0.  1.
         -2   -1    0    0    0  501 -0.00000000000E+00 -0.00000000000E+00 -0.59631320330E+02  0.59631320386E+02  0.26000000000E-02 0. -1.
       1023    2    1    2    0    0  0.00000000000E+00  0.00000000000E+00 -0.57952949678E+02  0.61309693052E+02  0.20008350402E+02 0.  0.
        -13    1    3    3    0    0 -0.52918452398E+01  0.84869812336E+01 -0.29588338075E+02  0.31233209874E+02  0.10570000000E+00 0. -1.
         13    1    3    3    0    0  0.52918452398E+01 -0.84869812336E+01 -0.28364611603E+02  0.30076483178E+02  0.10570000000E+00 0.  1.
<mgrwt>
<rscale>  0 0.20008350E+02</rscale>
<asrwt>0</asrwt>
<pdfrwt beam="1">  1        2 0.25821107E-03 0.20008350E+02</pdfrwt>
<pdfrwt beam="2">  1       -2 0.91740478E-02 0.20008350E+02</pdfrwt>
<totfact> 0.32963350E+06</totfact>
</mgrwt>
</event>
<event>
 5    1  0.1607476E-006  0.2000177E+02  0.7818608E-02  0.1745293E+00
         -2   -1    0    0    0  501 -0.00000000000E+00  0.00000000000E+00  0.20810568001E+01  0.20810584242E+01  0.26000000000E-02 0.  1.
          2   -1    0    0  501    0  0.00000000000E+00 -0.00000000000E+00 -0.48060986468E+02  0.48060986538E+02  0.26000000000E-02 0. -1.
       1023    2    1    2    0    0  0.00000000000E+00  0.00000000000E+00 -0.45979929668E+02  0.50142044962E+02  0.20001768441E+02 0.  0.
        -13    1    3    3    0    0  0.65034290957E+01  0.75966682287E+01 -0.22863261456E+02  0.24954836306E+02  0.10570000000E+00 0. -1.
         13    1    3    3    0    0 -0.65034290957E+01 -0.75966682287E+01 -0.23116668212E+02  0.25187208656E+02  0.10570000000E+00 0.  1.
<mgrwt>
<rscale>  0 0.20001768E+02</rscale>
<asrwt>0</asrwt>
<pdfrwt beam="2">  1        2 0.73939972E-02 0.20001768E+02</pdfrwt>
<pdfrwt beam="1">  1       -2 0.32016275E-03 0.20001768E+02</pdfrwt>
<totfact> 0.46046903E+06</totfact>
</mgrwt>
</event>
<event>
 4    1  0.1607476E-006  0.2022120E+02  0.7818608E-02  0.1740965E+00
         -2   -1    0    0    0  501 -0.00000000000E+00  0.00000000000E+00  0.16821864006E+01  0.16821884099E+01  0.26000000000E-02 0.  1.
          2   -1    0    0  501    0  0.00000000000E+00 -0.00000000000E+00 -0.60768648589E+02  0.60768648645E+02  0.26000000000E-02 0. -1.
        -13    1    1    2    0    0 -0.10081731781E+02 -0.40076463637E+00 -0.31523552933E+02  0.33099055727E+02  0.10570000000E+00 0. -1.
         13    1    1    2    0    0  0.10081731781E+02  0.40076463637E+00 -0.27562909256E+02  0.29351781328E+02  0.10570000000E+00 0.  1.
<mgrwt>
<rscale>  0 0.20221203E+02</rscale>
<asrwt>0</asrwt>
<pdfrwt beam="2">  1        2 0.93490213E-02 0.20221203E+02</pdfrwt>
<pdfrwt beam="1">  1       -2 0.25879811E-03 0.20221203E+02</pdfrwt>
<totfact> 0.46645975E+06</totfact>
</mgrwt>
</event>
<event>
 5    1  0.1607476E-006  0.2000607E+02  0.7818608E-02  0.1745207E+00
          2   -1    0    0  501    0  0.00000000000E+00  0.00000000000E+00  0.29978430262E+02  0.29978430375E+02  0.26000000000E-02 0.  1.
         -2   -1    0    0    0  501 -0.00000000000E+00 -0.00000000000E+00 -0.33377571326E+01  0.33377581453E+01  0.26000000000E-02 0. -1.
       1023    2    1    2    0    0  0.00000000000E+00  0.00000000000E+00  0.26640673129E+02  0.33316188520E+02  0.20006072896E+02 0.  0.
        -13    1    3    3    0    0  0.75373459535E+01  0.65755377311E+01  0.13292212508E+02  0.16635605379E+02  0.10570000000E+00 0. -1.
         13    1    3    3    0    0 -0.75373459535E+01 -0.65755377311E+01  0.13348460621E+02  0.16680583141E+02  0.10570000000E+00 0.  1.
<mgrwt>
<rscale>  0 0.20006073E+02</rscale>
<asrwt>0</asrwt>
<pdfrwt beam="1">  1        2 0.46120661E-02 0.20006073E+02</pdfrwt>
<pdfrwt beam="2">  1       -2 0.51350120E-03 0.20006073E+02</pdfrwt>
<totfact> 0.43340302E+06</totfact>
</mgrwt>
</event>
<event>
 5    1  0.1607476E-006  0.2000311E+02  0.7818608E-02  0.1745266E+00
         -2   -1    0    0    0  501 -0.00000000000E+00  0.00000000000E+00  0.35107330178E+02  0.35107330275E+02  0.26000000000E-02 0. -1.
          2   -1    0    0  501    0  0.00000000000E+00 -0.00000000000E+00 -0.28492923464E+01  0.28492935327E+01  0.26000000000E-02 0.  1.
       1023    2    1    2    0    0  0.00000000000E+00  0.00000000000E+00  0.32258037832E+02  0.37956623807E+02  0.20003106911E+02 0.  0.
        -13    1    3    3    0    0  0.17471510717E+01 -0.98465915681E+01  0.15921183200E+02  0.18801679429E+02  0.10570000000E+00 0.  1.
         13    1    3    3    0    0 -0.17471510717E+01  0.98465915681E+01  0.16336854632E+02  0.19154944378E+02  0.10570000000E+00 0. -1.
<mgrwt>
<rscale>  0 0.20003107E+02</rscale>
<asrwt>0</asrwt>
<pdfrwt beam="2">  1        2 0.43835276E-03 0.20003107E+02</pdfrwt>
<pdfrwt beam="1">  1       -2 0.54011279E-02 0.20003107E+02</pdfrwt>
<totfact> 0.35448677E+06</totfact>
</mgrwt>
</event>
<event>
 5    1  0.1607476E-006  0.2001026E+02  0.7818608E-02  0.1745124E+00
          2   -1    0    0  501    0  0.00000000000E+00  0.00000000000E+00  0.37071665359E+01  0.37071674476E+01  0.26000000000E-02 0.  1.
         -2   -1    0    0    0  501 -0.00000000000E+00 -0.00000000000E+00 -0.27002462213E+02  0.27002462338E+02  0.26000000000E-02 0. -1.
       1023    2    1    2    0    0  0.00000000000E+00  0.00000000000E+00 -0.23295295677E+02  0.30709629786E+02  0.20010261390E+02 0.  0.
        -13    1    3    3    0    0  0.99825429615E+01  0.60710473335E+00 -0.11236625933E+02  0.15043027454E+02  0.10570000000E+00 0. -1.
         13    1    3    3    0    0 -0.99825429615E+01 -0.60710473335E+00 -0.12058669745E+02  0.15666602332E+02  0.10570000000E+00 0.  1.
<mgrwt>
<rscale>  0 0.20010261E+02</rscale>
<asrwt>0</asrwt>
<pdfrwt beam="1">  1        2 0.57033341E-03 0.20010261E+02</pdfrwt>
<pdfrwt beam="2">  1       -2 0.41542249E-02 0.20010261E+02</pdfrwt>
<totfact> 0.36402518E+06</totfact>
</mgrwt>
</event>
<event>
 5    1  0.1607476E-006  0.2000677E+02  0.7818608E-02  0.1745193E+00
         -2   -1    0    0    0  501 -0.00000000000E+00  0.00000000000E+00  0.82331392610E+01  0.82331396716E+01  0.26000000000E-02 0. -1.
          2   -1    0    0  501    0  0.00000000000E+00 -0.00000000000E+00 -0.12154261875E+02  0.12154262153E+02  0.26000000000E-02 0.  1.
       1023    2    1    2    0    0  0.00000000000E+00  0.00000000000E+00 -0.39211226138E+01  0.20387401824E+02  0.20006772618E+02 0.  0.
        -13    1    3    3    0    0 -0.49739992287E+01 -0.86763424644E+01 -0.17646054886E+01  0.10156012599E+02  0.10570000000E+00 0. -1.
         13    1    3    3    0    0  0.49739992287E+01  0.86763424644E+01 -0.21565171252E+01  0.10231389226E+02  0.10570000000E+00 0.  1.
<mgrwt>
<rscale>  0 0.20006773E+02</rscale>
<asrwt>0</asrwt>
<pdfrwt beam="2">  1        2 0.18698865E-02 0.20006773E+02</pdfrwt>
<pdfrwt beam="1">  1       -2 0.12666369E-02 0.20006773E+02</pdfrwt>
<totfact> 0.40006228E+06</totfact>
</mgrwt>
</event>
<event>
 5    1  0.1607476E-006  0.2000313E+02  0.7818608E-02  0.1745266E+00
         -2   -1    0    0    0  501 -0.00000000000E+00  0.00000000000E+00  0.13431979222E+01  0.13432004386E+01  0.26000000000E-02 0.  1.
          2   -1    0    0  501    0  0.00000000000E+00 -0.00000000000E+00 -0.74472446614E+02  0.74472446659E+02  0.26000000000E-02 0. -1.
       1023    2    1    2    0    0  0.00000000000E+00  0.00000000000E+00 -0.73129248691E+02  0.75815647098E+02  0.20003133021E+02 0.  0.
        -13    1    3    3    0    0 -0.80058046629E+01 -0.59933126804E+01 -0.36237370770E+02  0.37592165647E+02  0.10570000000E+00 0. -1.
         13    1    3    3    0    0  0.80058046629E+01  0.59933126804E+01 -0.36891877921E+02  0.38223481451E+02  0.10570000000E+00 0.  1.
<mgrwt>
<rscale>  0 0.20003133E+02</rscale>
<asrwt>0</asrwt>
<pdfrwt beam="2">  1        2 0.11457296E-01 0.20003133E+02</pdfrwt>
<pdfrwt beam="1">  1       -2 0.20664609E-03 0.20003133E+02</pdfrwt>
<totfact> 0.49579823E+06</totfact>
</mgrwt>
</event>
<event>
 4    1  0.1607476E-006  0.2002229E+02  0.7818608E-02  0.1744885E+00
         -2   -1    0    0    0  501 -0.00000000000E+00  0.00000000000E+00  0.66650633076E+02  0.66650633127E+02  0.26000000000E-02 0. -1.
          2   -1    0    0  501    0  0.00000000000E+00 -0.00000000000E+00 -0.15037058441E+01  0.15037080919E+01  0.26000000000E-02 0.  1.
        -13    1    1    2    0    0 -0.98904456120E+01 -0.15392487885E+01  0.33074327179E+02  0.34555932806E+02  0.10570000000E+00 0. -1.
         13    1    1    2    0    0  0.98904456120E+01  0.15392487885E+01  0.32072600052E+02  0.33598408412E+02  0.10570000000E+00 0.  1.
<mgrwt>
<rscale>  0 0.20022290E+02</rscale>
<asrwt>0</asrwt>
<pdfrwt beam="2">  1        2 0.23133953E-03 0.20022290E+02</pdfrwt>
<pdfrwt beam="1">  1       -2 0.10253944E-01 0.20022290E+02</pdfrwt>
<totfact> 0.32291954E+06</totfact>
</mgrwt>
</event>
<event>
 4    1  0.1607476E-006  0.2007726E+02  0.7818608E-02  0.1743796E+00
         -2   -1    0    0    0  501 -0.00000000000E+00  0.00000000000E+00  0.11060761473E+02  0.11060761779E+02  0.26000000000E-02 0. -1.
          2   -1    0    0  501    0  0.00000000000E+00 -0.00000000000E+00 -0.91109578934E+01  0.91109582644E+01  0.26000000000E-02 0.  1.
        -13    1    1    2    0    0  0.68938216464E+01  0.72904215053E+01  0.12728500996E+01  0.10114659781E+02  0.10570000000E+00 0.  1.
         13    1    1    2    0    0 -0.68938216464E+01 -0.72904215053E+01  0.67695348033E+00  0.10057060262E+02  0.10570000000E+00 0. -1.
<mgrwt>
<rscale>  0 0.20077265E+02</rscale>
<asrwt>0</asrwt>
<pdfrwt beam="2">  1        2 0.14016859E-02 0.20077265E+02</pdfrwt>
<pdfrwt beam="1">  1       -2 0.17016557E-02 0.20077265E+02</pdfrwt>
<totfact> 0.38850648E+06</totfact>
</mgrwt>
</event>
<event>
 4    1  0.1607476E-006  0.2003337E+02  0.7818608E-02  0.1744665E+00
          2   -1    0    0  501    0  0.00000000000E+00  0.00000000000E+00  0.21214859814E+01  0.21214875746E+01  0.26000000000E-02 0. -1.
         -2   -1    0    0    0  501 -0.00000000000E+00 -0.00000000000E+00 -0.47294169488E+02  0.47294169559E+02  0.26000000000E-02 0.  1.
        -13    1    1    2    0    0  0.89455123959E+01  0.45055645649E+01 -0.22640504024E+02  0.24757340306E+02  0.10570000000E+00 0.  1.
         13    1    1    2    0    0 -0.89455123959E+01 -0.45055645649E+01 -0.22532179482E+02  0.24658316828E+02  0.10570000000E+00 0. -1.
<mgrwt>
<rscale>  0 0.20033368E+02</rscale>
<asrwt>0</asrwt>
<pdfrwt beam="1">  1        2 0.32638262E-03 0.20033368E+02</pdfrwt>
<pdfrwt beam="2">  1       -2 0.72760254E-02 0.20033368E+02</pdfrwt>
<totfact> 0.34041544E+06</totfact>
</mgrwt>
</event>
<event>
 4    1  0.1607476E-006  0.2001336E+02  0.7818608E-02  0.1745063E+00
         -2   -1    0    0    0  501 -0.00000000000E+00  0.00000000000E+00  0.31925683408E+02  0.31925683514E+02  0.26000000000E-02 0. -1.
          2   -1    0    0  501    0  0.00000000000E+00 -0.00000000000E+00 -0.31364588632E+01  0.31364599409E+01  0.26000000000E-02 0.  1.
        -13    1    1    2    0    0 -0.48493242719E+01 -0.87503255681E+01  0.14737461973E+02  0.17812582669E+02  0.10570000000E+00 0.  1.
         13    1    1    2    0    0  0.48493242719E+01  0.87503255681E+01  0.14051762573E+02  0.17249560787E+02  0.10570000000E+00 0. -1.
<mgrwt>
<rscale>  0 0.20013357E+02</rscale>
<asrwt>0</asrwt>
<pdfrwt beam="2">  1        2 0.48253225E-03 0.20013357E+02</pdfrwt>
<pdfrwt beam="1">  1       -2 0.49116434E-02 0.20013357E+02</pdfrwt>
<totfact> 0.35779048E+06</totfact>
</mgrwt>
</event>
<event>
 5    1  0.1607476E-006  0.2000361E+02  0.7818608E-02  0.1745256E+00
          2   -1    0    0  501    0  0.00000000000E+00  0.00000000000E+00  0.39036517816E+01  0.39036526475E+01  0.26000000000E-02 0. -1.
         -2   -1    0    0    0  501 -0.00000000000E+00 -0.00000000000E+00 -0.25626274246E+02  0.25626274378E+02  0.26000000000E-02 0.  1.
       1023    2    1    2    0    0  0.00000000000E+00  0.00000000000E+00 -0.21722622464E+02  0.29529927025E+02  0.20003606260E+02 0.  0.
        -13    1    3    3    0    0  0.99859884204E+01  0.54603177638E+00 -0.10982846530E+02  0.14854366557E+02  0.10570000000E+00 0.  1.
         13    1    3    3    0    0 -0.99859884204E+01 -0.54603177638E+00 -0.10739775934E+02  0.14675560468E+02  0.10570000000E+00 0. -1.
<mgrwt>
<rscale>  0 0.20003606E+02</rscale>
<asrwt>0</asrwt>
<pdfrwt beam="1">  1        2 0.60056190E-03 0.20003606E+02</pdfrwt>
<pdfrwt beam="2">  1       -2 0.39425037E-02 0.20003606E+02</pdfrwt>
<totfact> 0.36610218E+06</totfact>
</mgrwt>
</event>
<event>
 5    1  0.1607476E-006  0.2000212E+02  0.7818608E-02  0.1745286E+00
         -2   -1    0    0    0  501 -0.00000000000E+00  0.00000000000E+00  0.93778812807E+01  0.93778816411E+01  0.26000000000E-02 0. -1.
          2   -1    0    0  501    0  0.00000000000E+00 -0.00000000000E+00 -0.10665652527E+02  0.10665652844E+02  0.26000000000E-02 0.  1.
       1023    2    1    2    0    0  0.00000000000E+00  0.00000000000E+00 -0.12877712467E+01  0.20043534485E+02  0.20002122885E+02 0.  0.
        -13    1    3    3    0    0  0.10524298810E+01  0.99448688033E+01 -0.68907124463E+00  0.10024670361E+02  0.10570000000E+00 0. -1.
         13    1    3    3    0    0 -0.10524298810E+01 -0.99448688033E+01 -0.59870000211E+00  0.10018864125E+02  0.10570000000E+00 0.  1.
<mgrwt>
<rscale>  0 0.20002123E+02</rscale>
<asrwt>0</asrwt>
<pdfrwt beam="2">  1        2 0.16408697E-02 0.20002123E+02</pdfrwt>
<pdfrwt beam="1">  1       -2 0.14427510E-02 0.20002123E+02</pdfrwt>
<totfact> 0.39640820E+06</totfact>
</mgrwt>
</event>
<event>
 5    1  0.1607476E-006  0.2000661E+02  0.7818608E-02  0.1745197E+00
          2   -1    0    0  501    0  0.00000000000E+00  0.00000000000E+00  0.58657792803E+02  0.58657792860E+02  0.26000000000E-02 0. -1.
         -2   -1    0    0    0  501 -0.00000000000E+00 -0.00000000000E+00 -0.17059295455E+01  0.17059315268E+01  0.26000000000E-02 0.  1.
       1023    2    1    2    0    0  0.00000000000E+00  0.00000000000E+00  0.56951863257E+02  0.60363724387E+02  0.20006611243E+02 0.  0.
        -13    1    3    3    0    0 -0.14799039068E+01  0.98907173150E+01  0.29068302602E+02  0.30740751345E+02  0.10570000000E+00 0. -1.
         13    1    3    3    0    0  0.14799039068E+01 -0.98907173150E+01  0.27883560655E+02  0.29622973042E+02  0.10570000000E+00 0.  1.
<mgrwt>
<rscale>  0 0.20006611E+02</rscale>
<asrwt>0</asrwt>
<pdfrwt beam="1">  1        2 0.90242750E-02 0.20006611E+02</pdfrwt>
<pdfrwt beam="2">  1       -2 0.26245089E-03 0.20006611E+02</pdfrwt>
<totfact> 0.47481871E+06</totfact>
</mgrwt>
</event>
<event>
 5    1  0.1607476E-006  0.2000547E+02  0.7818608E-02  0.1745219E+00
         -2   -1    0    0    0  501 -0.00000000000E+00  0.00000000000E+00  0.31672188311E+01  0.31672198983E+01  0.26000000000E-02 0. -1.
          2   -1    0    0  501    0  0.00000000000E+00 -0.00000000000E+00 -0.31590698161E+02  0.31590698268E+02  0.26000000000E-02 0.  1.
       1023    2    1    2    0    0  0.00000000000E+00  0.00000000000E+00 -0.28423479330E+02  0.34757918166E+02  0.20005466704E+02 0.  0.
        -13    1    3    3    0    0 -0.63884717898E+01  0.76956665897E+01 -0.14059817629E+02  0.17254724000E+02  0.10570000000E+00 0.  1.
         13    1    3    3    0    0  0.63884717898E+01 -0.76956665897E+01 -0.14363661700E+02  0.17503194166E+02  0.10570000000E+00 0. -1.
<mgrwt>
<rscale>  0 0.20005467E+02</rscale>
<asrwt>0</asrwt>
<pdfrwt beam="2">  1        2 0.48601073E-02 0.20005467E+02</pdfrwt>
<pdfrwt beam="1">  1       -2 0.48726455E-03 0.20005467E+02</pdfrwt>
<totfact> 0.43597028E+06</totfact>
</mgrwt>
</event>
<event>
 5    1  0.1607476E-006  0.2000293E+02  0.7818608E-02  0.1745270E+00
          2   -1    0    0  501    0  0.00000000000E+00  0.00000000000E+00  0.82765034682E+02  0.82765034723E+02  0.26000000000E-02 0.  1.
         -2   -1    0    0    0  501 -0.00000000000E+00 -0.00000000000E+00 -0.12085922082E+01  0.12085950048E+01  0.26000000000E-02 0. -1.
       1023    2    1    2    0    0  0.00000000000E+00  0.00000000000E+00  0.81556442474E+02  0.83973629728E+02  0.20002929302E+02 0.  0.
        -13    1    3    3    0    0 -0.29055278496E+00  0.99962271062E+01  0.41179688849E+02  0.42376726201E+02  0.10570000000E+00 0.  1.
         13    1    3    3    0    0  0.29055278496E+00 -0.99962271062E+01  0.40376753624E+02  0.41596903527E+02  0.10570000000E+00 0. -1.
<mgrwt>
<rscale>  0 0.20002929E+02</rscale>
<asrwt>0</asrwt>
<pdfrwt beam="1">  1        2 0.12733082E-01 0.20002929E+02</pdfrwt>
<pdfrwt beam="2">  1       -2 0.18593748E-03 0.20002929E+02</pdfrwt>
<totfact> 0.50630457E+06</totfact>
</mgrwt>
</event>
<event>
 4    1  0.1607476E-006  0.2050335E+02  0.7818608E-02  0.1735500E+00
          2   -1    0    0  501    0  0.00000000000E+00  0.00000000000E+00  0.30763914802E+02  0.30763914912E+02  0.26000000000E-02 0. -1.
         -2   -1    0    0    0  501 -0.00000000000E+00 -0.00000000000E+00 -0.34162372770E+01  0.34162382664E+01  0.26000000000E-02 0.  1.
        -13    1    1    2    0    0  0.91129138580E+01  0.44143772764E+01  0.16337865691E+02  0.19221575210E+02  0.10570000000E+00 0. -1.
         13    1    1    2    0    0 -0.91129138580E+01 -0.44143772764E+01  0.11009811833E+02  0.14958577968E+02  0.10570000000E+00 0.  1.
<mgrwt>
<rscale>  0 0.20503351E+02</rscale>
<asrwt>0</asrwt>
<pdfrwt beam="1">  1        2 0.47329099E-02 0.20503351E+02</pdfrwt>
<pdfrwt beam="2">  1       -2 0.52557507E-03 0.20503351E+02</pdfrwt>
<totfact> 0.41130677E+06</totfact>
</mgrwt>
</event>
<event>
 5    1  0.1607476E-006  0.2000774E+02  0.7818608E-02  0.1745174E+00
          2   -1    0    0  501    0  0.00000000000E+00  0.00000000000E+00  0.86826927553E+01  0.86826931445E+01  0.26000000000E-02 0.  1.
         -2   -1    0    0    0  501 -0.00000000000E+00 -0.00000000000E+00 -0.11526074735E+02  0.11526075028E+02  0.26000000000E-02 0. -1.
       1023    2    1    2    0    0  0.00000000000E+00  0.00000000000E+00 -0.28433819796E+01  0.20208768173E+02  0.20007735753E+02 0.  0.
        -13    1    3    3    0    0 -0.64540949391E+01  0.76426382855E+01 -0.13907472787E+01  0.10100030293E+02  0.10570000000E+00 0.  1.
         13    1    3    3    0    0  0.64540949391E+01 -0.76426382855E+01 -0.14526347009E+01  0.10108737879E+02  0.10570000000E+00 0. -1.
<mgrwt>
<rscale>  0 0.20007736E+02</rscale>
<asrwt>0</asrwt>
<pdfrwt beam="1">  1        2 0.13357989E-02 0.20007736E+02</pdfrwt>
<pdfrwt beam="2">  1       -2 0.17732423E-02 0.20007736E+02</pdfrwt>
<totfact> 0.39022734E+06</totfact>
</mgrwt>
</event>
<event>
 4    1  0.1607476E-006  0.2003538E+02  0.7818608E-02  0.1744626E+00
         -2   -1    0    0    0  501 -0.00000000000E+00  0.00000000000E+00  0.72247197837E+01  0.72247202516E+01  0.26000000000E-02 0.  1.
          2   -1    0    0  501    0  0.00000000000E+00 -0.00000000000E+00 -0.13890374219E+02  0.13890374463E+02  0.26000000000E-02 0. -1.
        -13    1    1    2    0    0 -0.78925104523E+01  0.61572619353E+01 -0.37261708627E+01  0.10681718849E+02  0.10570000000E+00 0. -1.
         13    1    1    2    0    0  0.78925104523E+01 -0.61572619353E+01 -0.29394835728E+01  0.10433375865E+02  0.10570000000E+00 0.  1.
<mgrwt>
<rscale>  0 0.20035376E+02</rscale>
<asrwt>0</asrwt>
<pdfrwt beam="2">  1        2 0.21369807E-02 0.20035376E+02</pdfrwt>
<pdfrwt beam="1">  1       -2 0.11114954E-02 0.20035376E+02</pdfrwt>
<totfact> 0.40284092E+06</totfact>
</mgrwt>
</event>
<event>
 5    1  0.2379865E-006  0.2000565E+02  0.7818608E-02  0.1745216E+00
         -2   -1    0    0    0  501 -0.00000000000E+00  0.00000000000E+00  0.91304452561E+00  0.91304822750E+00  0.26000000000E-02 0. -1.
          2   -1    0    0  501    0  0.00000000000E+00 -0.00000000000E+00 -0.10958533993E+03  0.10958533996E+03  0.26000000000E-02 0.  1.
       1023    2    1    2    0    0  0.00000000000E+00  0.00000000000E+00 -0.10867229540E+03  0.11049838819E+03  0.20005649296E+02 0.  0.
        -13    1    3    3    0    0 -0.99405404425E+01 -0.11033679876E+01 -0.54979405567E+02  0.55881821500E+02  0.10570000000E+00 0.  1.
         13    1    3    3    0    0  0.99405404425E+01  0.11033679876E+01 -0.53692889837E+02  0.54616566688E+02  0.10570000000E+00 0. -1.
<mgrwt>
<rscale>  0 0.20005649E+02</rscale>
<asrwt>0</asrwt>
<pdfrwt beam="2">  1        2 0.16859273E-01 0.20005649E+02</pdfrwt>
<pdfrwt beam="1">  1       -2 0.14046876E-03 0.20005649E+02</pdfrwt>
<totfact> 0.53857641E+06</totfact>
</mgrwt>
</event>
<event>
 5    1  0.1607476E-006  0.2000123E+02  0.7818608E-02  0.1745304E+00
          2   -1    0    0  501    0  0.00000000000E+00  0.00000000000E+00  0.28235953840E+02  0.28235953960E+02  0.26000000000E-02 0.  1.
         -2   -1    0    0    0  501 -0.00000000000E+00 -0.00000000000E+00 -0.35420182757E+01  0.35420192299E+01  0.26000000000E-02 0. -1.
       1023    2    1    2    0    0  0.00000000000E+00  0.00000000000E+00  0.24693935564E+02  0.31777973190E+02  0.20001228122E+02 0.  0.
        -13    1    3    3    0    0 -0.66463252377E+01 -0.74717184368E+01  0.12299475065E+02  0.15852081091E+02  0.10570000000E+00 0. -1.
         13    1    3    3    0    0  0.66463252377E+01  0.74717184368E+01  0.12394460500E+02  0.15925892099E+02  0.10570000000E+00 0.  1.
<mgrwt>
<rscale>  0 0.20001228E+02</rscale>
<asrwt>0</asrwt>
<pdfrwt beam="1">  1        2 0.43439929E-02 0.20001228E+02</pdfrwt>
<pdfrwt beam="2">  1       -2 0.54492598E-03 0.20001228E+02</pdfrwt>
<totfact> 0.43084792E+06</totfact>
</mgrwt>
</event>
<event>
 4    1  0.1607476E-006  0.2001980E+02  0.7818608E-02  0.1744935E+00
         -2   -1    0    0    0  501 -0.00000000000E+00  0.00000000000E+00  0.37634850871E+01  0.37634859852E+01  0.26000000000E-02 0.  1.
          2   -1    0    0  501    0  0.00000000000E+00 -0.00000000000E+00 -0.26623740799E+02  0.26623740926E+02  0.26000000000E-02 0. -1.
        -13    1    1    2    0    0  0.93520507569E+00  0.99562295651E+01 -0.12084356488E+02  0.15685788469E+02  0.10570000000E+00 0.  1.
         13    1    1    2    0    0 -0.93520507569E+00 -0.99562295651E+01 -0.10775899224E+02  0.14701438442E+02  0.10570000000E+00 0. -1.
<mgrwt>
<rscale>  0 0.20019797E+02</rscale>
<asrwt>0</asrwt>
<pdfrwt beam="2">  1        2 0.40959601E-02 0.20019797E+02</pdfrwt>
<pdfrwt beam="1">  1       -2 0.57899780E-03 0.20019797E+02</pdfrwt>
<totfact> 0.42732415E+06</totfact>
</mgrwt>
</event>
<event>
 5    1  0.1624776E-006  0.2000125E+02  0.7818608E-02  0.1745303E+00
          2   -1    0    0  501    0  0.00000000000E+00  0.00000000000E+00  0.59954542991E+02  0.59954543047E+02  0.26000000000E-02 0. -1.
         -2   -1    0    0    0  501 -0.00000000000E+00 -0.00000000000E+00 -0.16681374890E+01  0.16681395152E+01  0.26000000000E-02 0.  1.
       1023    2    1    2    0    0  0.00000000000E+00  0.00000000000E+00  0.58286405502E+02  0.61622682562E+02  0.20001248458E+02 0.  0.
        -13    1    3    3    0    0  0.40164610720E+01  0.91580140123E+01  0.29178638160E+02  0.30844858203E+02  0.10570000000E+00 0.  1.
         13    1    3    3    0    0 -0.40164610720E+01 -0.91580140123E+01  0.29107767341E+02  0.30777824359E+02  0.10570000000E+00 0. -1.
<mgrwt>
<rscale>  0 0.20001248E+02</rscale>
<asrwt>0</asrwt>
<pdfrwt beam="1">  1        2 0.92237755E-02 0.20001248E+02</pdfrwt>
<pdfrwt beam="2">  1       -2 0.25663671E-03 0.20001248E+02</pdfrwt>
<totfact> 0.47685002E+06</totfact>
</mgrwt>
</event>
<event>
 5    1  0.1607476E-006  0.2000275E+02  0.7818608E-02  0.1745273E+00
          2   -1    0    0  501    0  0.00000000000E+00  0.00000000000E+00  0.64108839323E+01  0.64108844595E+01  0.26000000000E-02 0.  1.
         -2   -1    0    0    0  501 -0.00000000000E+00 -0.00000000000E+00 -0.15602764673E+02  0.15602764889E+02  0.26000000000E-02 0. -1.
       1023    2    1    2    0    0  0.00000000000E+00  0.00000000000E+00 -0.91918807405E+01  0.22013649349E+02  0.20002751963E+02 0.  0.
        -13    1    3    3    0    0 -0.95248757222E+01  0.30469924678E+01 -0.46999298759E+01  0.11050245877E+02  0.10570000000E+00 0. -1.
         13    1    3    3    0    0  0.95248757222E+01 -0.30469924678E+01 -0.44919508646E+01  0.10963403472E+02  0.10570000000E+00 0.  1.
<mgrwt>
<rscale>  0 0.20002752E+02</rscale>
<asrwt>0</asrwt>
<pdfrwt beam="1">  1        2 0.98628990E-03 0.20002752E+02</pdfrwt>
<pdfrwt beam="2">  1       -2 0.24004254E-02 0.20002752E+02</pdfrwt>
<totfact> 0.38171235E+06</totfact>
</mgrwt>
</event>
<event>
 5    1  0.1607476E-006  0.2000315E+02  0.7818608E-02  0.1745265E+00
         -2   -1    0    0    0  501 -0.00000000000E+00  0.00000000000E+00  0.11228056679E+02  0.11228056980E+02  0.26000000000E-02 0.  1.
          2   -1    0    0  501    0  0.00000000000E+00 -0.00000000000E+00 -0.89090640483E+01  0.89090644277E+01  0.26000000000E-02 0. -1.
       1023    2    1    2    0    0  0.00000000000E+00  0.00000000000E+00  0.23189926309E+01  0.20137121408E+02  0.20003148047E+02 0.  0.
        -13    1    3    3    0    0  0.92943037969E+01  0.36911493887E+01  0.10508682037E+01  0.10056051081E+02  0.10570000000E+00 0. -1.
         13    1    3    3    0    0 -0.92943037969E+01 -0.36911493887E+01  0.12681244273E+01  0.10081070327E+02  0.10570000000E+00 0.  1.
<mgrwt>
<rscale>  0 0.20003148E+02</rscale>
<asrwt>0</asrwt>
<pdfrwt beam="2">  1        2 0.13706253E-02 0.20003148E+02</pdfrwt>
<pdfrwt beam="1">  1       -2 0.17273934E-02 0.20003148E+02</pdfrwt>
<totfact> 0.39116944E+06</totfact>
</mgrwt>
</event>
<event>
 5    1  0.1607476E-006  0.2000259E+02  0.7818608E-02  0.1745277E+00
          2   -1    0    0  501    0  0.00000000000E+00  0.00000000000E+00  0.31040024166E+01  0.31040035055E+01  0.26000000000E-02 0. -1.
         -2   -1    0    0    0  501 -0.00000000000E+00 -0.00000000000E+00 -0.32224807725E+02  0.32224807830E+02  0.26000000000E-02 0.  1.
       1023    2    1    2    0    0  0.00000000000E+00  0.00000000000E+00 -0.29120805309E+02  0.35328811336E+02  0.20002590047E+02 0.  0.
        -13    1    3    3    0    0 -0.97227060378E+00 -0.99533571458E+01 -0.14542647622E+02  0.17649770564E+02  0.10570000000E+00 0. -1.
         13    1    3    3    0    0  0.97227060378E+00  0.99533571458E+01 -0.14578157686E+02  0.17679040772E+02  0.10570000000E+00 0.  1.
<mgrwt>
<rscale>  0 0.20002590E+02</rscale>
<asrwt>0</asrwt>
<pdfrwt beam="1">  1        2 0.47753895E-03 0.20002590E+02</pdfrwt>
<pdfrwt beam="2">  1       -2 0.49576626E-02 0.20002590E+02</pdfrwt>
<totfact> 0.35785494E+06</totfact>
</mgrwt>
</event>
<event>
 5    1  0.1607476E-006  0.2000152E+02  0.7818608E-02  0.1745298E+00
         -2   -1    0    0    0  501 -0.00000000000E+00  0.00000000000E+00  0.13252692061E+02  0.13252692316E+02  0.26000000000E-02 0.  1.
          2   -1    0    0  501    0  0.00000000000E+00 -0.00000000000E+00 -0.75467821945E+01  0.75467826423E+01  0.26000000000E-02 0. -1.
       1023    2    1    2    0    0  0.00000000000E+00  0.00000000000E+00  0.57059098662E+01  0.20799474958E+02  0.20001518721E+02 0.  0.
        -13    1    3    3    0    0  0.47822632351E+01 -0.87824244504E+01  0.27960505852E+01  0.10384126937E+02  0.10570000000E+00 0. -1.
         13    1    3    3    0    0 -0.47822632351E+01  0.87824244504E+01  0.29098592810E+01  0.10415348021E+02  0.10570000000E+00 0.  1.
<mgrwt>
<rscale>  0 0.20001519E+02</rscale>
<asrwt>0</asrwt>
<pdfrwt beam="2">  1        2 0.11610435E-02 0.20001519E+02</pdfrwt>
<pdfrwt beam="1">  1       -2 0.20388757E-02 0.20001519E+02</pdfrwt>
<totfact> 0.38649169E+06</totfact>
</mgrwt>
</event>
<event>
 5    1  0.1607476E-006  0.2000615E+02  0.7818608E-02  0.1745206E+00
         -2   -1    0    0    0  501 -0.00000000000E+00  0.00000000000E+00  0.27632085420E+02  0.27632085542E+02  0.26000000000E-02 0.  1.
          2   -1    0    0  501    0  0.00000000000E+00 -0.00000000000E+00 -0.36212063629E+01  0.36212072963E+01  0.26000000000E-02 0. -1.
       1023    2    1    2    0    0  0.00000000000E+00  0.00000000000E+00  0.24010879057E+02  0.31253292838E+02  0.20006149059E+02 0.  0.
        -13    1    3    3    0    0 -0.69789011532E+01 -0.71654656717E+01  0.11947660883E+02  0.15582256983E+02  0.10570000000E+00 0. -1.
         13    1    3    3    0    0  0.69789011532E+01  0.71654656717E+01  0.12063218173E+02  0.15671035856E+02  0.10570000000E+00 0.  1.
<mgrwt>
<rscale>  0 0.20006149E+02</rscale>
<asrwt>0</asrwt>
<pdfrwt beam="2">  1        2 0.55710876E-03 0.20006149E+02</pdfrwt>
<pdfrwt beam="1">  1       -2 0.42510901E-02 0.20006149E+02</pdfrwt>
<totfact> 0.36337558E+06</totfact>
</mgrwt>
</event>
<event>
 4    1  0.1607476E-006  0.2007176E+02  0.7818608E-02  0.1743905E+00
         -2   -1    0    0    0  501 -0.00000000000E+00  0.00000000000E+00  0.58900565098E+01  0.58900570837E+01  0.26000000000E-02 0.  1.
          2   -1    0    0  501    0  0.00000000000E+00 -0.00000000000E+00 -0.17099821818E+02  0.17099822016E+02  0.26000000000E-02 0. -1.
        -13    1    1    2    0    0 -0.90225552940E+01 -0.43729002160E+01 -0.60894665809E+01  0.11731220570E+02  0.10570000000E+00 0. -1.
         13    1    1    2    0    0  0.90225552940E+01  0.43729002160E+01 -0.51202987272E+01  0.11258658529E+02  0.10570000000E+00 0.  1.
<mgrwt>
<rscale>  0 0.20071764E+02</rscale>
<asrwt>0</asrwt>
<pdfrwt beam="2">  1        2 0.26307419E-02 0.20071764E+02</pdfrwt>
<pdfrwt beam="1">  1       -2 0.90616260E-03 0.20071764E+02</pdfrwt>
<totfact> 0.40791540E+06</totfact>
</mgrwt>
</event>
<event>
 4    1  0.1607476E-006  0.2003538E+02  0.7818608E-02  0.1744625E+00
          2   -1    0    0  501    0  0.00000000000E+00  0.00000000000E+00  0.34160161657E+01  0.34160171551E+01  0.26000000000E-02 0. -1.
         -2   -1    0    0    0  501 -0.00000000000E+00 -0.00000000000E+00 -0.29377529848E+02  0.29377529963E+02  0.26000000000E-02 0.  1.
        -13    1    1    2    0    0 -0.99577415178E+01 -0.10632012908E+01 -0.13367914946E+02  0.16703273200E+02  0.10570000000E+00 0. -1.
         13    1    1    2    0    0  0.99577415178E+01  0.10632012908E+01 -0.12593598737E+02  0.16090273918E+02  0.10570000000E+00 0.  1.
<mgrwt>
<rscale>  0 0.20035382E+02</rscale>
<asrwt>0</asrwt>
<pdfrwt beam="1">  1        2 0.52554105E-03 0.20035382E+02</pdfrwt>
<pdfrwt beam="2">  1       -2 0.45196199E-02 0.20035382E+02</pdfrwt>
<totfact> 0.36002362E+06</totfact>
</mgrwt>
</event>
<event>
 5    1  0.1607476E-006  0.2000765E+02  0.7818608E-02  0.1745176E+00
         -2   -1    0    0    0  501 -0.00000000000E+00  0.00000000000E+00  0.38163956830E+01  0.38163965686E+01  0.26000000000E-02 0.  1.
          2   -1    0    0  501    0  0.00000000000E+00 -0.00000000000E+00 -0.26222765670E+02  0.26222765799E+02  0.26000000000E-02 0. -1.
       1023    2    1    2    0    0  0.00000000000E+00  0.00000000000E+00 -0.22406369987E+02  0.30039162368E+02  0.20007645033E+02 0.  0.
        -13    1    3    3    0    0 -0.49199759435E+01 -0.87096206041E+01 -0.11142418886E+02  0.14974255423E+02  0.10570000000E+00 0. -1.
         13    1    3    3    0    0  0.49199759435E+01  0.87096206041E+01 -0.11263951101E+02  0.15064906944E+02  0.10570000000E+00 0.  1.
<mgrwt>
<rscale>  0 0.20007645E+02</rscale>
<asrwt>0</asrwt>
<pdfrwt beam="2">  1        2 0.40342716E-02 0.20007645E+02</pdfrwt>
<pdfrwt beam="1">  1       -2 0.58713789E-03 0.20007645E+02</pdfrwt>
<totfact> 0.42724429E+06</totfact>
</mgrwt>
</event>
<event>
 4    1  0.1607476E-006  0.2001980E+02  0.7818608E-02  0.1744935E+00
         -2   -1    0    0    0  501 -0.00000000000E+00  0.00000000000E+00  0.78614379729E+02  0.78614379772E+02  0.26000000000E-02 0. -1.
          2   -1    0    0  501    0  0.00000000000E+00 -0.00000000000E+00 -0.12745503103E+01  0.12745529622E+01  0.26000000000E-02 0.  1.
        -13    1    1    2    0    0 -0.76127589513E+01  0.64980543266E+01  0.39029244421E+02  0.40292330554E+02  0.10570000000E+00 0. -1.
         13    1    1    2    0    0  0.76127589513E+01 -0.64980543266E+01  0.38310584998E+02  0.39596602180E+02  0.10570000000E+00 0.  1.
<mgrwt>
<rscale>  0 0.20019799E+02</rscale>
<asrwt>0</asrwt>
<pdfrwt beam="2">  1        2 0.19608482E-03 0.20019799E+02</pdfrwt>
<pdfrwt beam="1">  1       -2 0.12094523E-01 0.20019799E+02</pdfrwt>
<totfact> 0.31301728E+06</totfact>
</mgrwt>
</event>
<event>
 5    1  0.1607476E-006  0.2000272E+02  0.7818608E-02  0.1745274E+00
          2   -1    0    0  501    0  0.00000000000E+00  0.00000000000E+00  0.24804263120E+02  0.24804263256E+02  0.26000000000E-02 0. -1.
         -2   -1    0    0    0  501 -0.00000000000E+00 -0.00000000000E+00 -0.40326592384E+01  0.40326600765E+01  0.26000000000E-02 0.  1.
       1023    2    1    2    0    0  0.00000000000E+00  0.00000000000E+00  0.20771603882E+02  0.28836923333E+02  0.20002715303E+02 0.  0.
        -13    1    3    3    0    0 -0.38139587342E+01 -0.92445690511E+01  0.10511847167E+02  0.14509253651E+02  0.10570000000E+00 0.  1.
         13    1    3    3    0    0  0.38139587342E+01  0.92445690511E+01  0.10259756715E+02  0.14327669682E+02  0.10570000000E+00 0. -1.
<mgrwt>
<rscale>  0 0.20002715E+02</rscale>
<asrwt>0</asrwt>
<pdfrwt beam="1">  1        2 0.38160406E-02 0.20002715E+02</pdfrwt>
<pdfrwt beam="2">  1       -2 0.62040919E-03 0.20002715E+02</pdfrwt>
<totfact> 0.42510630E+06</totfact>
</mgrwt>
</event>
<event>
 5    1  0.1607476E-006  0.2000536E+02  0.7818608E-02  0.1745221E+00
         -2   -1    0    0    0  501 -0.00000000000E+00  0.00000000000E+00  0.22707935009E+01  0.22707949894E+01  0.26000000000E-02 0. -1.
          2   -1    0    0  501    0  0.00000000000E+00 -0.00000000000E+00 -0.44061067462E+02  0.44061067538E+02  0.26000000000E-02 0.  1.
       1023    2    1    2    0    0  0.00000000000E+00  0.00000000000E+00 -0.41790273961E+02  0.46331862528E+02  0.20005361471E+02 0.  0.
        -13    1    3    3    0    0  0.80487527304E+01  0.59368237073E+01 -0.20619612593E+02  0.22917414606E+02  0.10570000000E+00 0.  1.
         13    1    3    3    0    0 -0.80487527304E+01 -0.59368237073E+01 -0.21170661368E+02  0.23414447922E+02  0.10570000000E+00 0. -1.
<mgrwt>
<rscale>  0 0.20005361E+02</rscale>
<asrwt>0</asrwt>
<pdfrwt beam="2">  1        2 0.67786252E-02 0.20005361E+02</pdfrwt>
<pdfrwt beam="1">  1       -2 0.34935300E-03 0.20005361E+02</pdfrwt>
<totfact> 0.45459469E+06</totfact>
</mgrwt>
</event>
<event>
 5    1  0.1607476E-006  0.2000166E+02  0.7818608E-02  0.1745295E+00
          2   -1    0    0  501    0  0.00000000000E+00  0.00000000000E+00  0.60314498058E+01  0.60314503662E+01  0.26000000000E-02 0. -1.
         -2   -1    0    0    0  501 -0.00000000000E+00 -0.00000000000E+00 -0.16582513769E+02  0.16582513973E+02  0.26000000000E-02 0.  1.
       1023    2    1    2    0    0  0.00000000000E+00  0.00000000000E+00 -0.10551063963E+02  0.22613964339E+02  0.20001660740E+02 0.  0.
        -13    1    3    3    0    0  0.69852801024E+00  0.99756625258E+01 -0.52072132432E+01  0.11275106494E+02  0.10570000000E+00 0.  1.
         13    1    3    3    0    0 -0.69852801024E+00 -0.99756625258E+01 -0.53438507198E+01  0.11338857844E+02  0.10570000000E+00 0. -1.
<mgrwt>
<rscale>  0 0.20001661E+02</rscale>
<asrwt>0</asrwt>
<pdfrwt beam="1">  1        2 0.92791542E-03 0.20001661E+02</pdfrwt>
<pdfrwt beam="2">  1       -2 0.25511560E-02 0.20001661E+02</pdfrwt>
<totfact> 0.37996264E+06</totfact>
</mgrwt>
</event>
<event>
 5    1  0.1607476E-006  0.2000470E+02  0.7818608E-02  0.1745235E+00
         -2   -1    0    0    0  501 -0.00000000000E+00  0.00000000000E+00  0.35223451914E+02  0.35223452010E+02  0.26000000000E-02 0.  1.
          2   -1    0    0  501    0  0.00000000000E+00 -0.00000000000E+00 -0.28403511969E+01  0.28403523869E+01  0.26000000000E-02 0. -1.
       1023    2    1    2    0    0  0.00000000000E+00  0.00000000000E+00  0.32383100717E+02  0.38063804397E+02  0.20004699276E+02 0.  0.
        -13    1    3    3    0    0  0.21602296187E+01  0.97657055952E+01  0.16162818853E+02  0.19007458629E+02  0.10570000000E+00 0.  1.
         13    1    3    3    0    0 -0.21602296187E+01 -0.97657055952E+01  0.16220281865E+02  0.19056345768E+02  0.10570000000E+00 0. -1.
<mgrwt>
<rscale>  0 0.20004699E+02</rscale>
<asrwt>0</asrwt>
<pdfrwt beam="2">  1        2 0.43697721E-03 0.20004699E+02</pdfrwt>
<pdfrwt beam="1">  1       -2 0.54189927E-02 0.20004699E+02</pdfrwt>
<totfact> 0.35429318E+06</totfact>
</mgrwt>
</event>
<event>
 4    1  0.1607476E-006  0.2021734E+02  0.7818608E-02  0.1741040E+00
          2   -1    0    0  501    0  0.00000000000E+00  0.00000000000E+00  0.12844167136E+02  0.12844167399E+02  0.26000000000E-02 0.  1.
         -2   -1    0    0    0  501 -0.00000000000E+00 -0.00000000000E+00 -0.79557685200E+01  0.79557689449E+01  0.26000000000E-02 0. -1.
        -13    1    1    2    0    0 -0.10310851364E+01 -0.99985829829E+01  0.13460818260E+01  0.10141888729E+02  0.10570000000E+00 0. -1.
         13    1    1    2    0    0  0.10310851364E+01  0.99985829829E+01  0.35423167897E+01  0.10658047614E+02  0.10570000000E+00 0.  1.
<mgrwt>
<rscale>  0 0.20217342E+02</rscale>
<asrwt>0</asrwt>
<pdfrwt beam="1">  1        2 0.19760258E-02 0.20217342E+02</pdfrwt>
<pdfrwt beam="2">  1       -2 0.12239644E-02 0.20217342E+02</pdfrwt>
<totfact> 0.39228288E+06</totfact>
</mgrwt>
</event>
<event>
 4    1  0.1607476E-006  0.2005502E+02  0.7818608E-02  0.1744236E+00
          2   -1    0    0  501    0  0.00000000000E+00  0.00000000000E+00  0.80910282460E+02  0.80910282502E+02  0.26000000000E-02 0. -1.
         -2   -1    0    0    0  501 -0.00000000000E+00 -0.00000000000E+00 -0.12427449078E+01  0.12427476276E+01  0.26000000000E-02 0.  1.
        -13    1    1    2    0    0  0.78078175366E+01 -0.62512974537E+01  0.36939948089E+02  0.38270245255E+02  0.10570000000E+00 0.  1.
         13    1    1    2    0    0 -0.78078175366E+01  0.62512974537E+01  0.42727589463E+02  0.43882784874E+02  0.10570000000E+00 0. -1.
<mgrwt>
<rscale>  0 0.20055020E+02</rscale>
<asrwt>0</asrwt>
<pdfrwt beam="1">  1        2 0.12447740E-01 0.20055020E+02</pdfrwt>
<pdfrwt beam="2">  1       -2 0.19119168E-03 0.20055020E+02</pdfrwt>
<totfact> 0.50108602E+06</totfact>
</mgrwt>
</event>
<event>
 5    1  0.1607476E-006  0.2000157E+02  0.7818608E-02  0.1745297E+00
         -2   -1    0    0    0  501 -0.00000000000E+00  0.00000000000E+00  0.22295903029E+02  0.22295903181E+02  0.26000000000E-02 0. -1.
          2   -1    0    0  501    0  0.00000000000E+00 -0.00000000000E+00 -0.44858314166E+01  0.44858321701E+01  0.26000000000E-02 0.  1.
       1023    2    1    2    0    0  0.00000000000E+00  0.00000000000E+00  0.17810071612E+02  0.26781735351E+02  0.20001567378E+02 0.  0.
        -13    1    3    3    0    0 -0.23279978650E+01 -0.97254747506E+01  0.88939363104E+01  0.13383486420E+02  0.10570000000E+00 0. -1.
         13    1    3    3    0    0  0.23279978650E+01  0.97254747506E+01  0.89161353019E+01  0.13398248930E+02  0.10570000000E+00 0.  1.
<mgrwt>
<rscale>  0 0.20001567E+02</rscale>
<asrwt>0</asrwt>
<pdfrwt beam="2">  1        2 0.69012799E-03 0.20001567E+02</pdfrwt>
<pdfrwt beam="1">  1       -2 0.34301389E-02 0.20001567E+02</pdfrwt>
<totfact> 0.37082045E+06</totfact>
</mgrwt>
</event>
<event>
 4    1  0.1607476E-006  0.2017019E+02  0.7818608E-02  0.1741965E+00
         -2   -1    0    0    0  501 -0.00000000000E+00  0.00000000000E+00  0.17327989158E+02  0.17327989353E+02  0.26000000000E-02 0.  1.
          2   -1    0    0  501    0  0.00000000000E+00 -0.00000000000E+00 -0.58696426158E+01  0.58696431917E+01  0.26000000000E-02 0. -1.
        -13    1    1    2    0    0  0.26222314925E+01  0.97365437103E+01  0.58980401021E+01  0.11682227140E+02  0.10570000000E+00 0.  1.
         13    1    1    2    0    0 -0.26222314925E+01 -0.97365437103E+01  0.55603064397E+01  0.11515405404E+02  0.10570000000E+00 0. -1.
<mgrwt>
<rscale>  0 0.20170187E+02</rscale>
<asrwt>0</asrwt>
<pdfrwt beam="2">  1        2 0.90302201E-03 0.20170187E+02</pdfrwt>
<pdfrwt beam="1">  1       -2 0.26658445E-02 0.20170187E+02</pdfrwt>
<totfact> 0.37183329E+06</totfact>
</mgrwt>
</event>
<event>
 4    1  0.1607476E-006  0.2001920E+02  0.7818608E-02  0.1744947E+00
          2   -1    0    0  501    0  0.00000000000E+00  0.00000000000E+00  0.10120278948E+03  0.10120278951E+03  0.26000000000E-02 0.  1.
         -2   -1    0    0    0  501 -0.00000000000E+00 -0.00000000000E+00 -0.99001129430E+00  0.99001470840E+00  0.26000000000E-02 0. -1.
        -13    1    1    2    0    0  0.96304396785E+01 -0.26967619974E+01  0.48045346991E+02  0.49075293516E+02  0.10570000000E+00 0. -1.
         13    1    1    2    0    0 -0.96304396785E+01  0.26967619974E+01  0.52167431193E+02  0.53117510704E+02  0.10570000000E+00 0.  1.
<mgrwt>
<rscale>  0 0.20019199E+02</rscale>
<asrwt>0</asrwt>
<pdfrwt beam="1">  1        2 0.15569664E-01 0.20019199E+02</pdfrwt>
<pdfrwt beam="2">  1       -2 0.15230966E-03 0.20019199E+02</pdfrwt>
<totfact> 0.52789888E+06</totfact>
</mgrwt>
</event>
<event>
 5    1  0.1607476E-006  0.2000699E+02  0.7818608E-02  0.1745189E+00
         -2   -1    0    0    0  501 -0.00000000000E+00  0.00000000000E+00  0.18119655858E+01  0.18119674512E+01  0.26000000000E-02 0.  1.
          2   -1    0    0  501    0  0.00000000000E+00 -0.00000000000E+00 -0.55227236760E+02  0.55227236821E+02  0.26000000000E-02 0. -1.
       1023    2    1    2    0    0  0.00000000000E+00  0.00000000000E+00 -0.53415271174E+02  0.57039204272E+02  0.20006989514E+02 0.  0.
        -13    1    3    3    0    0  0.91162653637E+01  0.41167632458E+01 -0.26512161266E+02  0.28336547095E+02  0.10570000000E+00 0. -1.
         13    1    3    3    0    0 -0.91162653637E+01 -0.41167632458E+01 -0.26903109908E+02  0.28702657177E+02  0.10570000000E+00 0.  1.
<mgrwt>
<rscale>  0 0.20006990E+02</rscale>
<asrwt>0</asrwt>
<pdfrwt beam="2">  1        2 0.84964968E-02 0.20006990E+02</pdfrwt>
<pdfrwt beam="1">  1       -2 0.27876413E-03 0.20006990E+02</pdfrwt>
<totfact> 0.47014006E+06</totfact>
</mgrwt>
</event>
<event>
 5    1  0.2745876E-006  0.2000134E+02  0.7818608E-02  0.1745301E+00
         -2   -1    0    0    0  501 -0.00000000000E+00  0.00000000000E+00  0.90352697477E+00  0.90353071566E+00  0.26000000000E-02 0. -1.
          2   -1    0    0  501    0  0.00000000000E+00 -0.00000000000E+00 -0.11069199472E+03  0.11069199475E+03  0.26000000000E-02 0.  1.
       1023    2    1    2    0    0  0.00000000000E+00  0.00000000000E+00 -0.10978846774E+03  0.11159552547E+03  0.20001341311E+02 0.  0.
        -13    1    3    3    0    0  0.92263326117E+00 -0.99574342145E+01 -0.55018091244E+02  0.55919614491E+02  0.10570000000E+00 0.  1.
         13    1    3    3    0    0 -0.92263326117E+00  0.99574342145E+01 -0.54770376501E+02  0.55675910974E+02  0.10570000000E+00 0. -1.
<mgrwt>
<rscale>  0 0.20001341E+02</rscale>
<asrwt>0</asrwt>
<pdfrwt beam="2">  1        2 0.17029527E-01 0.20001341E+02</pdfrwt>
<pdfrwt beam="1">  1       -2 0.13900453E-03 0.20001341E+02</pdfrwt>
<totfact> 0.54012242E+06</totfact>
</mgrwt>
</event>
<event>
 4    1  0.1607476E-006  0.2027651E+02  0.7818608E-02  0.1739885E+00
          2   -1    0    0  501    0  0.00000000000E+00  0.00000000000E+00  0.97782133162E+02  0.97782133197E+02  0.26000000000E-02 0.  1.
         -2   -1    0    0    0  501 -0.00000000000E+00 -0.00000000000E+00 -0.10511533906E+01  0.10511566061E+01  0.26000000000E-02 0. -1.
        -13    1    1    2    0    0  0.71018807506E+01 -0.71728746797E+01  0.43777018379E+02  0.44925776031E+02  0.10570000000E+00 0.  1.
         13    1    1    2    0    0 -0.71018807506E+01  0.71728746797E+01  0.52953961393E+02  0.53907513772E+02  0.10570000000E+00 0. -1.
<mgrwt>
<rscale>  0 0.20276507E+02</rscale>
<asrwt>0</asrwt>
<pdfrwt beam="1">  1        2 0.15043411E-01 0.20276507E+02</pdfrwt>
<pdfrwt beam="2">  1       -2 0.16171610E-03 0.20276507E+02</pdfrwt>
<totfact> 0.50922667E+06</totfact>
</mgrwt>
</event>
<event>
 5    1  0.1607476E-006  0.2000355E+02  0.7818608E-02  0.1745257E+00
         -2   -1    0    0    0  501 -0.00000000000E+00  0.00000000000E+00  0.11769190215E+01  0.11769218934E+01  0.26000000000E-02 0. -1.
          2   -1    0    0  501    0  0.00000000000E+00 -0.00000000000E+00 -0.84997686958E+02  0.84997686998E+02  0.26000000000E-02 0.  1.
       1023    2    1    2    0    0  0.00000000000E+00  0.00000000000E+00 -0.83820767936E+02  0.86174608891E+02  0.20003551687E+02 0.  0.
        -13    1    3    3    0    0 -0.60379979690E+01 -0.79724113191E+01 -0.42285593029E+02  0.43452264751E+02  0.10570000000E+00 0.  1.
         13    1    3    3    0    0  0.60379979690E+01  0.79724113191E+01 -0.41535174907E+02  0.42722344140E+02  0.10570000000E+00 0. -1.
<mgrwt>
<rscale>  0 0.20003552E+02</rscale>
<asrwt>0</asrwt>
<pdfrwt beam="2">  1        2 0.13076563E-01 0.20003552E+02</pdfrwt>
<pdfrwt beam="1">  1       -2 0.18106476E-03 0.20003552E+02</pdfrwt>
<totfact> 0.50905610E+06</totfact>
</mgrwt>
</event>
<event>
 5    1  0.1607476E-006  0.2000161E+02  0.7818608E-02  0.1745296E+00
         -2   -1    0    0    0  501 -0.00000000000E+00  0.00000000000E+00  0.44170985508E+01  0.44170993160E+01  0.26000000000E-02 0. -1.
          2   -1    0    0  501    0  0.00000000000E+00 -0.00000000000E+00 -0.22642939770E+02  0.22642939920E+02  0.26000000000E-02 0.  1.
       1023    2    1    2    0    0  0.00000000000E+00  0.00000000000E+00 -0.18225841220E+02  0.27060039236E+02  0.20001610817E+02 0.  0.
        -13    1    3    3    0    0  0.78292283365E+01 -0.62214613145E+01 -0.91659963717E+01  0.13565767918E+02  0.10570000000E+00 0.  1.
         13    1    3    3    0    0 -0.78292283365E+01  0.62214613145E+01 -0.90598448479E+01  0.13494271318E+02  0.10570000000E+00 0. -1.
<mgrwt>
<rscale>  0 0.20001611E+02</rscale>
<asrwt>0</asrwt>
<pdfrwt beam="2">  1        2 0.34835292E-02 0.20001611E+02</pdfrwt>
<pdfrwt beam="1">  1       -2 0.67955371E-03 0.20001611E+02</pdfrwt>
<totfact> 0.42144399E+06</totfact>
</mgrwt>
</event>
<event>
 5    1  0.1607476E-006  0.2000295E+02  0.7818608E-02  0.1745269E+00
         -2   -1    0    0    0  501 -0.00000000000E+00  0.00000000000E+00  0.11518233100E+01  0.11518262445E+01  0.26000000000E-02 0. -1.
          2   -1    0    0  501    0  0.00000000000E+00 -0.00000000000E+00 -0.86844403808E+02  0.86844403847E+02  0.26000000000E-02 0.  1.
       1023    2    1    2    0    0  0.00000000000E+00  0.00000000000E+00 -0.85692580498E+02  0.87996230091E+02  0.20002953729E+02 0.  0.
        -13    1    3    3    0    0  0.93072293204E+01 -0.36591417761E+01 -0.43142404036E+02  0.44286476882E+02  0.10570000000E+00 0. -1.
         13    1    3    3    0    0 -0.93072293204E+01  0.36591417761E+01 -0.42550176462E+02  0.43709753209E+02  0.10570000000E+00 0.  1.
<mgrwt>
<rscale>  0 0.20002954E+02</rscale>
<asrwt>0</asrwt>
<pdfrwt beam="2">  1        2 0.13360673E-01 0.20002954E+02</pdfrwt>
<pdfrwt beam="1">  1       -2 0.17720388E-03 0.20002954E+02</pdfrwt>
<totfact> 0.51138442E+06</totfact>
</mgrwt>
</event>
<event>
 5    1  0.1607476E-006  0.2000430E+02  0.7818608E-02  0.1745243E+00
          2   -1    0    0  501    0  0.00000000000E+00  0.00000000000E+00  0.12718626701E+02  0.12718626967E+02  0.26000000000E-02 0.  1.
         -2   -1    0    0    0  501 -0.00000000000E+00 -0.00000000000E+00 -0.78658630402E+01  0.78658634699E+01  0.26000000000E-02 0. -1.
       1023    2    1    2    0    0  0.00000000000E+00  0.00000000000E+00  0.48527636606E+01  0.20584490437E+02  0.20004297823E+02 0.  0.
        -13    1    3    3    0    0 -0.15977339890E+01  0.98730158931E+01  0.23737753718E+01  0.10279843322E+02  0.10570000000E+00 0. -1.
         13    1    3    3    0    0  0.15977339890E+01 -0.98730158931E+01  0.24789882888E+01  0.10304647114E+02  0.10570000000E+00 0.  1.
<mgrwt>
<rscale>  0 0.20004298E+02</rscale>
<asrwt>0</asrwt>
<pdfrwt beam="1">  1        2 0.19567119E-02 0.20004298E+02</pdfrwt>
<pdfrwt beam="2">  1       -2 0.12101328E-02 0.20004298E+02</pdfrwt>
<totfact> 0.40154661E+06</totfact>
</mgrwt>
</event>
<event>
 4    1  0.1607476E-006  0.2006150E+02  0.7818608E-02  0.1744108E+00
          2   -1    0    0  501    0  0.00000000000E+00  0.00000000000E+00  0.79220594002E+01  0.79220598269E+01  0.26000000000E-02 0.  1.
         -2   -1    0    0    0  501 -0.00000000000E+00 -0.00000000000E+00 -0.12700731778E+02  0.12700732044E+02  0.26000000000E-02 0. -1.
        -13    1    1    2    0    0  0.80251529357E+00  0.99936277833E+01 -0.20841128533E+01  0.10240670190E+02  0.10570000000E+00 0.  1.
         13    1    1    2    0    0 -0.80251529357E+00 -0.99936277833E+01 -0.26945595239E+01  0.10382121680E+02  0.10570000000E+00 0. -1.
<mgrwt>
<rscale>  0 0.20061501E+02</rscale>
<asrwt>0</asrwt>
<pdfrwt beam="1">  1        2 0.12187784E-02 0.20061501E+02</pdfrwt>
<pdfrwt beam="2">  1       -2 0.19539588E-02 0.20061501E+02</pdfrwt>
<totfact> 0.38522147E+06</totfact>
</mgrwt>
</event>
<event>
 5    1  0.1607476E-006  0.2000175E+02  0.7818608E-02  0.1745293E+00
          2   -1    0    0  501    0  0.00000000000E+00  0.00000000000E+00  0.62974451930E+02  0.62974451983E+02  0.26000000000E-02 0. -1.
         -2   -1    0    0    0  501 -0.00000000000E+00 -0.00000000000E+00 -0.15882228774E+01  0.15882250056E+01  0.26000000000E-02 0.  1.
       1023    2    1    2    0    0  0.00000000000E+00  0.00000000000E+00  0.61386229052E+02  0.64562676989E+02  0.20001753491E+02 0.  0.
        -13    1    3    3    0    0  0.69589560587E+00 -0.99760317370E+01  0.30597182758E+02  0.32190126516E+02  0.10570000000E+00 0. -1.
         13    1    3    3    0    0 -0.69589560587E+00  0.99760317370E+01  0.30789046294E+02  0.32372550473E+02  0.10570000000E+00 0.  1.
<mgrwt>
<rscale>  0 0.20001753E+02</rscale>
<asrwt>0</asrwt>
<pdfrwt beam="1">  1        2 0.96883763E-02 0.20001753E+02</pdfrwt>
<pdfrwt beam="2">  1       -2 0.24434218E-03 0.20001753E+02</pdfrwt>
<totfact> 0.48086329E+06</totfact>
</mgrwt>
</event>
<event>
 4    1  0.1607476E-006  0.2003439E+02  0.7818608E-02  0.1744645E+00
          2   -1    0    0  501    0  0.00000000000E+00  0.00000000000E+00  0.78395268249E+02  0.78395268292E+02  0.26000000000E-02 0. -1.
         -2   -1    0    0    0  501 -0.00000000000E+00 -0.00000000000E+00 -0.12799758875E+01  0.12799785282E+01  0.26000000000E-02 0.  1.
        -13    1    1    2    0    0 -0.99716491374E+01 -0.94512873847E+00  0.38863962991E+02  0.40134098305E+02  0.10570000000E+00 0. -1.
         13    1    1    2    0    0  0.99716491374E+01  0.94512873847E+00  0.38251329370E+02  0.39541148516E+02  0.10570000000E+00 0.  1.
<mgrwt>
<rscale>  0 0.20034386E+02</rscale>
<asrwt>0</asrwt>
<pdfrwt beam="1">  1        2 0.12060810E-01 0.20034386E+02</pdfrwt>
<pdfrwt beam="2">  1       -2 0.19691958E-03 0.20034386E+02</pdfrwt>
<totfact> 0.49906616E+06</totfact>
</mgrwt>
</event>
<event>
 5    1  0.1607476E-006  0.2000395E+02  0.7818608E-02  0.1745249E+00
         -2   -1    0    0    0  501 -0.00000000000E+00  0.00000000000E+00  0.22032595645E+02  0.22032595798E+02  0.26000000000E-02 0. -1.
          2   -1    0    0  501    0  0.00000000000E+00 -0.00000000000E+00 -0.45405244261E+01  0.45405251705E+01  0.26000000000E-02 0.  1.
       1023    2    1    2    0    0  0.00000000000E+00  0.00000000000E+00  0.17492071219E+02  0.26573120969E+02  0.20003954672E+02 0.  0.
        -13    1    3    3    0    0  0.15788411564E+01 -0.98748734060E+01  0.89453563946E+01  0.13417765749E+02  0.10570000000E+00 0.  1.
         13    1    3    3    0    0 -0.15788411564E+01  0.98748734060E+01  0.85467148244E+01  0.13155355220E+02  0.10570000000E+00 0. -1.
<mgrwt>
<rscale>  0 0.20003955E+02</rscale>
<asrwt>0</asrwt>
<pdfrwt beam="2">  1        2 0.69854231E-03 0.20003955E+02</pdfrwt>
<pdfrwt beam="1">  1       -2 0.33896301E-02 0.20003955E+02</pdfrwt>
<totfact> 0.37110837E+06</totfact>
</mgrwt>
</event>
<event>
 5    1  0.1607476E-006  0.2000147E+02  0.7818608E-02  0.1745299E+00
         -2   -1    0    0    0  501 -0.00000000000E+00  0.00000000000E+00  0.14211625027E+02  0.14211625265E+02  0.26000000000E-02 0. -1.
          2   -1    0    0  501    0  0.00000000000E+00 -0.00000000000E+00 -0.70375254635E+01  0.70375259438E+01  0.26000000000E-02 0.  1.
       1023    2    1    2    0    0  0.00000000000E+00  0.00000000000E+00  0.71740995634E+01  0.21249151209E+02  0.20001468010E+02 0.  0.
        -13    1    3    3    0    0  0.89843910156E+01 -0.43913498063E+01  0.35694931185E+01  0.10618648156E+02  0.10570000000E+00 0. -1.
         13    1    3    3    0    0 -0.89843910156E+01  0.43913498063E+01  0.36046064449E+01  0.10630503053E+02  0.10570000000E+00 0.  1.
<mgrwt>
<rscale>  0 0.20001468E+02</rscale>
<asrwt>0</asrwt>
<pdfrwt beam="2">  1        2 0.10826963E-02 0.20001468E+02</pdfrwt>
<pdfrwt beam="1">  1       -2 0.21864039E-02 0.20001468E+02</pdfrwt>
<totfact> 0.38448149E+06</totfact>
</mgrwt>
</event>
<event>
 5    1  0.1607476E-006  0.2001113E+02  0.7818608E-02  0.1745107E+00
          2   -1    0    0  501    0  0.00000000000E+00  0.00000000000E+00  0.19262867294E+01  0.19262884841E+01  0.26000000000E-02 0. -1.
         -2   -1    0    0    0  501 -0.00000000000E+00 -0.00000000000E+00 -0.51971129862E+02  0.51971129927E+02  0.26000000000E-02 0.  1.
       1023    2    1    2    0    0  0.00000000000E+00  0.00000000000E+00 -0.50044843132E+02  0.53897418411E+02  0.20011131583E+02 0.  0.
        -13    1    3    3    0    0  0.14096859265E+01  0.99010578112E+01 -0.25793752300E+02  0.27664905393E+02  0.10570000000E+00 0.  1.
         13    1    3    3    0    0 -0.14096859265E+01 -0.99010578112E+01 -0.24251090832E+02  0.26232513017E+02  0.10570000000E+00 0. -1.
<mgrwt>
<rscale>  0 0.20011132E+02</rscale>
<asrwt>0</asrwt>
<pdfrwt beam="1">  1        2 0.29635198E-03 0.20011132E+02</pdfrwt>
<pdfrwt beam="2">  1       -2 0.79955575E-02 0.20011132E+02</pdfrwt>
<totfact> 0.33666971E+06</totfact>
</mgrwt>
</event>
<event>
 5    1  0.1607476E-006  0.2000152E+02  0.7818608E-02  0.1745298E+00
          2   -1    0    0  501    0  0.00000000000E+00  0.00000000000E+00  0.91940056088E+02  0.91940056125E+02  0.26000000000E-02 0. -1.
         -2   -1    0    0    0  501 -0.00000000000E+00 -0.00000000000E+00 -0.10878291116E+01  0.10878322187E+01  0.26000000000E-02 0.  1.
       1023    2    1    2    0    0  0.00000000000E+00  0.00000000000E+00  0.90852226976E+02  0.93027888343E+02  0.20001521519E+02 0.  0.
        -13    1    3    3    0    0 -0.49837793131E+00 -0.99876859338E+01  0.45623023476E+02  0.46706248988E+02  0.10570000000E+00 0.  1.
         13    1    3    3    0    0  0.49837793131E+00  0.99876859338E+01  0.45229203500E+02  0.46321639356E+02  0.10570000000E+00 0. -1.
<mgrwt>
<rscale>  0 0.20001522E+02</rscale>
<asrwt>0</asrwt>
<pdfrwt beam="1">  1        2 0.14144634E-01 0.20001522E+02</pdfrwt>
<pdfrwt beam="2">  1       -2 0.16735846E-03 0.20001522E+02</pdfrwt>
<totfact> 0.51773907E+06</totfact>
</mgrwt>
</event>
<event>
 5    1  0.1607476E-006  0.2000149E+02  0.7818608E-02  0.1745298E+00
         -2   -1    0    0    0  501 -0.00000000000E+00  0.00000000000E+00  0.23721414702E+01  0.23721428951E+01  0.26000000000E-02 0.  1.
          2   -1    0    0  501    0  0.00000000000E+00 -0.00000000000E+00 -0.42162279979E+02  0.42162280059E+02  0.26000000000E-02 0. -1.
       1023    2    1    2    0    0  0.00000000000E+00  0.00000000000E+00 -0.39790138508E+02  0.44534422954E+02  0.20001492577E+02 0.  0.
        -13    1    3    3    0    0  0.10672662253E+01 -0.99430697829E+01 -0.19877831512E+02  0.22251810084E+02  0.10570000000E+00 0.  1.
         13    1    3    3    0    0 -0.10672662253E+01  0.99430697829E+01 -0.19912306997E+02  0.22282612870E+02  0.10570000000E+00 0. -1.
<mgrwt>
<rscale>  0 0.20001493E+02</rscale>
<asrwt>0</asrwt>
<pdfrwt beam="2">  1        2 0.64865042E-02 0.20001493E+02</pdfrwt>
<pdfrwt beam="1">  1       -2 0.36494499E-03 0.20001493E+02</pdfrwt>
<totfact> 0.45204772E+06</totfact>
</mgrwt>
</event>
<event>
 5    1  0.1607476E-006  0.2000308E+02  0.7818608E-02  0.1745267E+00
          2   -1    0    0  501    0  0.00000000000E+00  0.00000000000E+00  0.38969354804E+01  0.38969363478E+01  0.26000000000E-02 0. -1.
         -2   -1    0    0    0  501 -0.00000000000E+00 -0.00000000000E+00 -0.25669078206E+02  0.25669078337E+02  0.26000000000E-02 0.  1.
       1023    2    1    2    0    0  0.00000000000E+00  0.00000000000E+00 -0.21772142725E+02  0.29566014685E+02  0.20003075401E+02 0.  0.
        -13    1    3    3    0    0  0.11104588866E+01  0.99383683433E+01 -0.11068896693E+02  0.14917638243E+02  0.10570000000E+00 0.  1.
         13    1    3    3    0    0 -0.11104588866E+01 -0.99383683433E+01 -0.10703246032E+02  0.14648376442E+02  0.10570000000E+00 0. -1.
<mgrwt>
<rscale>  0 0.20003075E+02</rscale>
<asrwt>0</asrwt>
<pdfrwt beam="1">  1        2 0.59952863E-03 0.20003075E+02</pdfrwt>
<pdfrwt beam="2">  1       -2 0.39490889E-02 0.20003075E+02</pdfrwt>
<totfact> 0.36606611E+06</totfact>
</mgrwt>
</event>
<event>
 5    1  0.1607476E-006  0.2000247E+02  0.7818608E-02  0.1745279E+00
          2   -1    0    0  501    0  0.00000000000E+00  0.00000000000E+00  0.17179038852E+01  0.17179058528E+01  0.26000000000E-02 0. -1.
         -2   -1    0    0    0  501 -0.00000000000E+00 -0.00000000000E+00 -0.58224814932E+02  0.58224814990E+02  0.26000000000E-02 0.  1.
       1023    2    1    2    0    0  0.00000000000E+00  0.00000000000E+00 -0.56506911047E+02  0.59942720843E+02  0.20002469497E+02 0.  0.
        -13    1    3    3    0    0  0.64794994120E+01  0.76176537410E+01 -0.28160465885E+02  0.29883700783E+02  0.10570000000E+00 0. -1.
         13    1    3    3    0    0 -0.64794994120E+01 -0.76176537410E+01 -0.28346445162E+02  0.30059020060E+02  0.10570000000E+00 0.  1.
<mgrwt>
<rscale>  0 0.20002469E+02</rscale>
<asrwt>0</asrwt>
<pdfrwt beam="1">  1        2 0.26429311E-03 0.20002469E+02</pdfrwt>
<pdfrwt beam="2">  1       -2 0.89576625E-02 0.20002469E+02</pdfrwt>
<totfact> 0.33112897E+06</totfact>
</mgrwt>
</event>
<event>
 5    1  0.1608553E-006  0.2000150E+02  0.7818608E-02  0.1745298E+00
         -2   -1    0    0    0  501 -0.00000000000E+00  0.00000000000E+00  0.99762523411E+00  0.99762862215E+00  0.26000000000E-02 0.  1.
          2   -1    0    0  501    0  0.00000000000E+00 -0.00000000000E+00 -0.10025289785E+03  0.10025289788E+03  0.26000000000E-02 0. -1.
       1023    2    1    2    0    0  0.00000000000E+00  0.00000000000E+00 -0.99255272614E+02  0.10125052650E+03  0.20001499335E+02 0.  0.
        -13    1    3    3    0    0  0.56723926840E+00 -0.99840897836E+01 -0.49609934550E+02  0.50607910328E+02  0.10570000000E+00 0.  1.
         13    1    3    3    0    0 -0.56723926840E+00  0.99840897836E+01 -0.49645338064E+02  0.50642616177E+02  0.10570000000E+00 0. -1.
<mgrwt>
<rscale>  0 0.20001499E+02</rscale>
<asrwt>0</asrwt>
<pdfrwt beam="2">  1        2 0.15423515E-01 0.20001499E+02</pdfrwt>
<pdfrwt beam="1">  1       -2 0.15348115E-03 0.20001499E+02</pdfrwt>
<totfact> 0.52779494E+06</totfact>
</mgrwt>
</event>
<event>
 5    1  0.1607476E-006  0.2000368E+02  0.7818608E-02  0.1745255E+00
          2   -1    0    0  501    0  0.00000000000E+00  0.00000000000E+00  0.29171596455E+02  0.29171596571E+02  0.26000000000E-02 0.  1.
         -2   -1    0    0    0  501 -0.00000000000E+00 -0.00000000000E+00 -0.34292528075E+01  0.34292537932E+01  0.26000000000E-02 0. -1.
       1023    2    1    2    0    0  0.00000000000E+00  0.00000000000E+00  0.25742343648E+02  0.32600850364E+02  0.20003679362E+02 0.  0.
        -13    1    3    3    0    0 -0.93845439155E+01 -0.34560521954E+01  0.13047178222E+02  0.16439403679E+02  0.10570000000E+00 0.  1.
         13    1    3    3    0    0  0.93845439155E+01  0.34560521954E+01  0.12695165426E+02  0.16161446686E+02  0.10570000000E+00 0. -1.
<mgrwt>
<rscale>  0 0.20003679E+02</rscale>
<asrwt>0</asrwt>
<pdfrwt beam="1">  1        2 0.44879378E-02 0.20003679E+02</pdfrwt>
<pdfrwt beam="2">  1       -2 0.52757746E-03 0.20003679E+02</pdfrwt>
<totfact> 0.43223388E+06</totfact>
</mgrwt>
</event>
<event>
 5    1  0.1607476E-006  0.2000339E+02  0.7818608E-02  0.1745261E+00
         -2   -1    0    0    0  501 -0.00000000000E+00  0.00000000000E+00  0.64399620973E+02  0.64399621025E+02  0.26000000000E-02 0. -1.
          2   -1    0    0  501    0  0.00000000000E+00 -0.00000000000E+00 -0.15533300502E+01  0.15533322262E+01  0.26000000000E-02 0.  1.
       1023    2    1    2    0    0  0.00000000000E+00  0.00000000000E+00  0.62846290922E+02  0.65952953251E+02  0.20003393709E+02 0.  0.
        -13    1    3    3    0    0 -0.80330697089E+01  0.59563727377E+01  0.31815794434E+02  0.33350630175E+02  0.10570000000E+00 0.  1.
         13    1    3    3    0    0  0.80330697089E+01 -0.59563727377E+01  0.31030496489E+02  0.32602323076E+02  0.10570000000E+00 0. -1.
<mgrwt>
<rscale>  0 0.20003394E+02</rscale>
<asrwt>0</asrwt>
<pdfrwt beam="2">  1        2 0.23897401E-03 0.20003394E+02</pdfrwt>
<pdfrwt beam="1">  1       -2 0.99076348E-02 0.20003394E+02</pdfrwt>
<totfact> 0.32555150E+06</totfact>
</mgrwt>
</event>
<event>
 5    1  0.1607476E-006  0.2000939E+02  0.7818608E-02  0.1745141E+00
         -2   -1    0    0    0  501 -0.00000000000E+00  0.00000000000E+00  0.11315885427E+02  0.11315885726E+02  0.26000000000E-02 0. -1.
          2   -1    0    0  501    0  0.00000000000E+00 -0.00000000000E+00 -0.88454347153E+01  0.88454350974E+01  0.26000000000E-02 0.  1.
       1023    2    1    2    0    0  0.00000000000E+00  0.00000000000E+00  0.24704507121E+01  0.20161320824E+02  0.20009391061E+02 0.  0.
        -13    1    3    3    0    0 -0.55538849415E+01 -0.83205305671E+01  0.11578745863E+01  0.10071182299E+02  0.10570000000E+00 0.  1.
         13    1    3    3    0    0  0.55538849415E+01  0.83205305671E+01  0.13125761258E+01  0.10090138524E+02  0.10570000000E+00 0. -1.
<mgrwt>
<rscale>  0 0.20009391E+02</rscale>
<asrwt>0</asrwt>
<pdfrwt beam="2">  1        2 0.13608362E-02 0.20009391E+02</pdfrwt>
<pdfrwt beam="1">  1       -2 0.17409055E-02 0.20009391E+02</pdfrwt>
<totfact> 0.39068469E+06</totfact>
</mgrwt>
</event>
<event>
 5    1  0.1607476E-006  0.2000533E+02  0.7818608E-02  0.1745222E+00
         -2   -1    0    0    0  501 -0.00000000000E+00  0.00000000000E+00  0.92072310099E+02  0.92072310136E+02  0.26000000000E-02 0. -1.
          2   -1    0    0  501    0  0.00000000000E+00 -0.00000000000E+00 -0.10866805960E+01  0.10866837064E+01  0.26000000000E-02 0.  1.
       1023    2    1    2    0    0  0.00000000000E+00  0.00000000000E+00  0.90985629503E+02  0.93158993842E+02  0.20005333230E+02 0.  0.
        -13    1    3    3    0    0 -0.16353053825E+01  0.98674880001E+01  0.45609119862E+02  0.46693088677E+02  0.10570000000E+00 0.  1.
         13    1    3    3    0    0  0.16353053825E+01 -0.98674880001E+01  0.45376509641E+02  0.46465905165E+02  0.10570000000E+00 0. -1.
<mgrwt>
<rscale>  0 0.20005333E+02</rscale>
<asrwt>0</asrwt>
<pdfrwt beam="2">  1        2 0.16718188E-03 0.20005333E+02</pdfrwt>
<pdfrwt beam="1">  1       -2 0.14164970E-01 0.20005333E+02</pdfrwt>
<totfact> 0.30300334E+06</totfact>
</mgrwt>
</event>
<event>
 4    1  0.1607476E-006  0.2083282E+02  0.7818608E-02  0.1729256E+00
         -2   -1    0    0    0  501 -0.00000000000E+00  0.00000000000E+00  0.85133977640E+01  0.85133981610E+01  0.26000000000E-02 0.  1.
          2   -1    0    0  501    0  0.00000000000E+00 -0.00000000000E+00 -0.12744801945E+02  0.12744802210E+02  0.26000000000E-02 0. -1.
        -13    1    1    2    0    0 -0.99823069957E+01 -0.24465676925E+01 -0.38408608927E+01  0.10972489750E+02  0.10570000000E+00 0. -1.
         13    1    1    2    0    0  0.99823069957E+01  0.24465676925E+01 -0.39054328829E+00  0.10285710621E+02  0.10570000000E+00 0.  1.
<mgrwt>
<rscale>  0 0.20832818E+02</rscale>
<asrwt>0</asrwt>
<pdfrwt beam="2">  1        2 0.19607388E-02 0.20832818E+02</pdfrwt>
<pdfrwt beam="1">  1       -2 0.13097536E-02 0.20832818E+02</pdfrwt>
<totfact> 0.36605481E+06</totfact>
</mgrwt>
</event>
<event>
 5    1  0.1607476E-006  0.2000604E+02  0.7818608E-02  0.1745208E+00
         -2   -1    0    0    0  501 -0.00000000000E+00  0.00000000000E+00  0.99159290062E+00  0.99159630927E+00  0.26000000000E-02 0.  1.
          2   -1    0    0  501    0  0.00000000000E+00 -0.00000000000E+00 -0.10090857947E+03  0.10090857950E+03  0.26000000000E-02 0. -1.
       1023    2    1    2    0    0  0.00000000000E+00  0.00000000000E+00 -0.99916986565E+02  0.10190017581E+03  0.20006039727E+02 0.  0.
        -13    1    3    3    0    0 -0.33922007206E+01 -0.94085018924E+01 -0.50719115923E+02  0.51695907247E+02  0.10570000000E+00 0.  1.
         13    1    3    3    0    0  0.33922007206E+01  0.94085018924E+01 -0.49197870642E+02  0.50204268562E+02  0.10570000000E+00 0. -1.
<mgrwt>
<rscale>  0 0.20006040E+02</rscale>
<asrwt>0</asrwt>
<pdfrwt beam="2">  1        2 0.15524389E-01 0.20006040E+02</pdfrwt>
<pdfrwt beam="1">  1       -2 0.15255310E-03 0.20006040E+02</pdfrwt>
<totfact> 0.52831416E+06</totfact>
</mgrwt>
</event>
<event>
 5    1  0.1607476E-006  0.2000186E+02  0.7818608E-02  0.1745291E+00
         -2   -1    0    0    0  501 -0.00000000000E+00  0.00000000000E+00  0.79674691540E+01  0.79674695782E+01  0.26000000000E-02 0. -1.
          2   -1    0    0  501    0  0.00000000000E+00 -0.00000000000E+00 -0.12553370538E+02  0.12553370807E+02  0.26000000000E-02 0.  1.
       1023    2    1    2    0    0  0.00000000000E+00  0.00000000000E+00 -0.45859013841E+01  0.20520840386E+02  0.20001859879E+02 0.  0.
        -13    1    3    3    0    0 -0.95370253298E+01 -0.30085751954E+01 -0.22597011890E+01  0.10252989749E+02  0.10570000000E+00 0. -1.
         13    1    3    3    0    0  0.95370253298E+01  0.30085751954E+01 -0.23262001950E+01  0.10267850636E+02  0.10570000000E+00 0.  1.
<mgrwt>
<rscale>  0 0.20001860E+02</rscale>
<asrwt>0</asrwt>
<pdfrwt beam="2">  1        2 0.19312878E-02 0.20001860E+02</pdfrwt>
<pdfrwt beam="1">  1       -2 0.12257645E-02 0.20001860E+02</pdfrwt>
<totfact> 0.40126065E+06</totfact>
</mgrwt>
</event>
<event>
 4    1  0.1607476E-006  0.2007472E+02  0.7818608E-02  0.1743846E+00
         -2   -1    0    0    0  501 -0.00000000000E+00  0.00000000000E+00  0.18177281458E+01  0.18177300053E+01  0.26000000000E-02 0. -1.
          2   -1    0    0  501    0  0.00000000000E+00 -0.00000000000E+00 -0.55425550903E+02  0.55425550964E+02  0.26000000000E-02 0.  1.
        -13    1    1    2    0    0 -0.99983684753E+01 -0.68162540232E+00 -0.25227872137E+02  0.27145693772E+02  0.10570000000E+00 0. -1.
         13    1    1    2    0    0  0.99983684753E+01  0.68162540232E+00 -0.28379950621E+02  0.30097587197E+02  0.10570000000E+00 0.  1.
<mgrwt>
<rscale>  0 0.20074724E+02</rscale>
<asrwt>0</asrwt>
<pdfrwt beam="2">  1        2 0.85270067E-02 0.20074724E+02</pdfrwt>
<pdfrwt beam="1">  1       -2 0.27965067E-03 0.20074724E+02</pdfrwt>
<totfact> 0.46688661E+06</totfact>
</mgrwt>
</event>
<event>
 5    1  0.1607476E-006  0.2000548E+02  0.7818608E-02  0.1745219E+00
         -2   -1    0    0    0  501 -0.00000000000E+00  0.00000000000E+00  0.22310658234E+02  0.22310658385E+02  0.26000000000E-02 0. -1.
          2   -1    0    0  501    0  0.00000000000E+00 -0.00000000000E+00 -0.44846190869E+01  0.44846198405E+01  0.26000000000E-02 0.  1.
       1023    2    1    2    0    0  0.00000000000E+00  0.00000000000E+00  0.17826039147E+02  0.26795278226E+02  0.20005480837E+02 0.  0.
        -13    1    3    3    0    0  0.82655621258E+01  0.56307589409E+01  0.90960808096E+01  0.13519423882E+02  0.10570000000E+00 0.  1.
         13    1    3    3    0    0 -0.82655621258E+01 -0.56307589409E+01  0.87299583374E+01  0.13275854344E+02  0.10570000000E+00 0. -1.
<mgrwt>
<rscale>  0 0.20005481E+02</rscale>
<asrwt>0</asrwt>
<pdfrwt beam="2">  1        2 0.68994145E-03 0.20005481E+02</pdfrwt>
<pdfrwt beam="1">  1       -2 0.34324091E-02 0.20005481E+02</pdfrwt>
<totfact> 0.37064140E+06</totfact>
</mgrwt>
</event>
<event>
 5    1  0.1607476E-006  0.2000467E+02  0.7818608E-02  0.1745235E+00
         -2   -1    0    0    0  501 -0.00000000000E+00  0.00000000000E+00  0.37104901617E+01  0.37104910726E+01  0.26000000000E-02 0.  1.
          2   -1    0    0  501    0  0.00000000000E+00 -0.00000000000E+00 -0.26963197197E+02  0.26963197322E+02  0.26000000000E-02 0. -1.
       1023    2    1    2    0    0  0.00000000000E+00  0.00000000000E+00 -0.23252707035E+02  0.30673688395E+02  0.20004668837E+02 0.  0.
        -13    1    3    3    0    0  0.91118790604E+01  0.41231178326E+01 -0.11480239033E+02  0.15226079647E+02  0.10570000000E+00 0.  1.
         13    1    3    3    0    0 -0.91118790604E+01 -0.41231178326E+01 -0.11772468002E+02  0.15447608748E+02  0.10570000000E+00 0. -1.
<mgrwt>
<rscale>  0 0.20004669E+02</rscale>
<asrwt>0</asrwt>
<pdfrwt beam="2">  1        2 0.41481841E-02 0.20004669E+02</pdfrwt>
<pdfrwt beam="1">  1       -2 0.57084474E-03 0.20004669E+02</pdfrwt>
<totfact> 0.42860869E+06</totfact>
</mgrwt>
</event>
<event>
 4    1  0.1607476E-006  0.2039742E+02  0.7818608E-02  0.1737538E+00
          2   -1    0    0  501    0  0.00000000000E+00  0.00000000000E+00  0.91274638692E+02  0.91274638729E+02  0.26000000000E-02 0.  1.
         -2   -1    0    0    0  501 -0.00000000000E+00 -0.00000000000E+00 -0.11395664072E+01  0.11395693732E+01  0.26000000000E-02 0. -1.
        -13    1    1    2    0    0  0.62711801186E+01 -0.80171367396E+01  0.47934053822E+02  0.49002927157E+02  0.10570000000E+00 0.  1.
         13    1    1    2    0    0 -0.62711801186E+01  0.80171367396E+01  0.42201018463E+02  0.43411280946E+02  0.10570000000E+00 0. -1.
<mgrwt>
<rscale>  0 0.20397417E+02</rscale>
<asrwt>0</asrwt>
<pdfrwt beam="1">  1        2 0.14042256E-01 0.20397417E+02</pdfrwt>
<pdfrwt beam="2">  1       -2 0.17531810E-03 0.20397417E+02</pdfrwt>
<totfact> 0.49497954E+06</totfact>
</mgrwt>
</event>
<event>
 5    1  0.1607476E-006  0.2000155E+02  0.7818608E-02  0.1745297E+00
         -2   -1    0    0    0  501 -0.00000000000E+00  0.00000000000E+00  0.83765586534E+01  0.83765590569E+01  0.26000000000E-02 0.  1.
          2   -1    0    0  501    0  0.00000000000E+00 -0.00000000000E+00 -0.11939925114E+02  0.11939925397E+02  0.26000000000E-02 0. -1.
       1023    2    1    2    0    0  0.00000000000E+00  0.00000000000E+00 -0.35633664603E+01  0.20316484454E+02  0.20001548941E+02 0.  0.
        -13    1    3    3    0    0 -0.49417731216E+01 -0.86937528026E+01 -0.17378983779E+01  0.10150562676E+02  0.10570000000E+00 0. -1.
         13    1    3    3    0    0  0.49417731216E+01  0.86937528026E+01 -0.18254680824E+01  0.10165921778E+02  0.10570000000E+00 0.  1.
<mgrwt>
<rscale>  0 0.20001549E+02</rscale>
<asrwt>0</asrwt>
<pdfrwt beam="2">  1        2 0.18369116E-02 0.20001549E+02</pdfrwt>
<pdfrwt beam="1">  1       -2 0.12887014E-02 0.20001549E+02</pdfrwt>
<totfact> 0.39976666E+06</totfact>
</mgrwt>
</event>
<event>
 5    1  0.1607476E-006  0.2000238E+02  0.7818608E-02  0.1745281E+00
         -2   -1    0    0    0  501 -0.00000000000E+00  0.00000000000E+00  0.36425573502E+02  0.36425573595E+02  0.26000000000E-02 0. -1.
          2   -1    0    0  501    0  0.00000000000E+00 -0.00000000000E+00 -0.27459755599E+01  0.27459767908E+01  0.26000000000E-02 0.  1.
       1023    2    1    2    0    0  0.00000000000E+00  0.00000000000E+00  0.33679597942E+02  0.39171550386E+02  0.20002375911E+02 0.  0.
        -13    1    3    3    0    0  0.12276572848E+01 -0.99249845737E+01  0.16861853726E+02  0.19604737814E+02  0.10570000000E+00 0.  1.
         13    1    3    3    0    0 -0.12276572848E+01  0.99249845737E+01  0.16817744217E+02  0.19566812572E+02  0.10570000000E+00 0. -1.
<mgrwt>
<rscale>  0 0.20002376E+02</rscale>
<asrwt>0</asrwt>
<pdfrwt beam="2">  1        2 0.42245792E-03 0.20002376E+02</pdfrwt>
<pdfrwt beam="1">  1       -2 0.56039339E-02 0.20002376E+02</pdfrwt>
<totfact> 0.35302777E+06</totfact>
</mgrwt>
</event>
<event>
 5    1  0.1607476E-006  0.2000114E+02  0.7818608E-02  0.1745305E+00
         -2   -1    0    0    0  501 -0.00000000000E+00  0.00000000000E+00  0.10110483908E+03  0.10110483911E+03  0.26000000000E-02 0. -1.
          2   -1    0    0  501    0  0.00000000000E+00 -0.00000000000E+00 -0.98918317665E+00  0.98918659361E+00  0.26000000000E-02 0.  1.
       1023    2    1    2    0    0  0.00000000000E+00  0.00000000000E+00  0.10011565590E+03  0.10209402570E+03  0.20001138170E+02 0.  0.
        -13    1    3    3    0    0  0.64684330387E+01 -0.76262411728E+01  0.50085377980E+02  0.51074029020E+02  0.10570000000E+00 0.  1.
         13    1    3    3    0    0 -0.64684330387E+01  0.76262411728E+01  0.50030277919E+02  0.51019996683E+02  0.10570000000E+00 0. -1.
<mgrwt>
<rscale>  0 0.20001138E+02</rscale>
<asrwt>0</asrwt>
<pdfrwt beam="2">  1        2 0.15218226E-03 0.20001138E+02</pdfrwt>
<pdfrwt beam="1">  1       -2 0.15554594E-01 0.20001138E+02</pdfrwt>
<totfact> 0.29646994E+06</totfact>
</mgrwt>
</event>
<event>
 5    1  0.1607476E-006  0.2000724E+02  0.7818608E-02  0.1745184E+00
         -2   -1    0    0    0  501 -0.00000000000E+00  0.00000000000E+00  0.13528728943E+02  0.13528729193E+02  0.26000000000E-02 0.  1.
          2   -1    0    0  501    0  0.00000000000E+00 -0.00000000000E+00 -0.73970257129E+01  0.73970261698E+01  0.26000000000E-02 0. -1.
       1023    2    1    2    0    0  0.00000000000E+00  0.00000000000E+00  0.61317032304E+01  0.20925755363E+02  0.20007235016E+02 0.  0.
        -13    1    3    3    0    0  0.60088912770E+01  0.79937481152E+01  0.28218890077E+01  0.10391391311E+02  0.10570000000E+00 0. -1.
         13    1    3    3    0    0 -0.60088912770E+01 -0.79937481152E+01  0.33098142226E+01  0.10534364052E+02  0.10570000000E+00 0.  1.
<mgrwt>
<rscale>  0 0.20007235E+02</rscale>
<asrwt>0</asrwt>
<pdfrwt beam="2">  1        2 0.11380040E-02 0.20007235E+02</pdfrwt>
<pdfrwt beam="1">  1       -2 0.20813430E-02 0.20007235E+02</pdfrwt>
<totfact> 0.38566167E+06</totfact>
</mgrwt>
</event>
<event>
 4    1  0.1607476E-006  0.2003140E+02  0.7818608E-02  0.1744704E+00
          2   -1    0    0  501    0  0.00000000000E+00  0.00000000000E+00  0.35643558396E+01  0.35643567879E+01  0.26000000000E-02 0. -1.
         -2   -1    0    0    0  501 -0.00000000000E+00 -0.00000000000E+00 -0.28143727859E+02  0.28143727980E+02  0.26000000000E-02 0.  1.
        -13    1    1    2    0    0  0.10008768610E+02 -0.34325985968E+00 -0.12132755127E+02  0.15732393203E+02  0.10570000000E+00 0. -1.
         13    1    1    2    0    0 -0.10008768610E+02  0.34325985968E+00 -0.12446616893E+02  0.15975691565E+02  0.10570000000E+00 0.  1.
<mgrwt>
<rscale>  0 0.20031403E+02</rscale>
<asrwt>0</asrwt>
<pdfrwt beam="1">  1        2 0.54836254E-03 0.20031403E+02</pdfrwt>
<pdfrwt beam="2">  1       -2 0.43298042E-02 0.20031403E+02</pdfrwt>
<totfact> 0.36172634E+06</totfact>
</mgrwt>
</event>
<event>
 4    1  0.1607476E-006  0.2036604E+02  0.7818608E-02  0.1738145E+00
         -2   -1    0    0    0  501 -0.00000000000E+00  0.00000000000E+00  0.15893146275E+01  0.15893167542E+01  0.26000000000E-02 0. -1.
          2   -1    0    0  501    0  0.00000000000E+00 -0.00000000000E+00 -0.65244365863E+02  0.65244365915E+02  0.26000000000E-02 0.  1.
        -13    1    1    2    0    0 -0.85500658379E+01  0.54639432370E+01 -0.34620617059E+02  0.36077092449E+02  0.10570000000E+00 0.  1.
         13    1    1    2    0    0  0.85500658379E+01 -0.54639432370E+01 -0.29034434177E+02  0.30756590220E+02  0.10570000000E+00 0. -1.
<mgrwt>
<rscale>  0 0.20366040E+02</rscale>
<asrwt>0</asrwt>
<pdfrwt beam="2">  1        2 0.10037593E-01 0.20366040E+02</pdfrwt>
<pdfrwt beam="1">  1       -2 0.24451016E-03 0.20366040E+02</pdfrwt>
<totfact> 0.46483696E+06</totfact>
</mgrwt>
</event>
<event>
 5    1  0.1607476E-006  0.2001038E+02  0.7818608E-02  0.1745122E+00
         -2   -1    0    0    0  501 -0.00000000000E+00  0.00000000000E+00  0.48919087710E+02  0.48919087779E+02  0.26000000000E-02 0. -1.
          2   -1    0    0  501    0  0.00000000000E+00 -0.00000000000E+00 -0.20463136283E+01  0.20463152801E+01  0.26000000000E-02 0.  1.
       1023    2    1    2    0    0  0.00000000000E+00  0.00000000000E+00  0.46872774081E+02  0.50965403059E+02  0.20010381277E+02 0.  0.
        -13    1    3    3    0    0 -0.94665350216E+01 -0.32366987284E+01  0.23523254548E+02  0.25562593393E+02  0.10570000000E+00 0.  1.
         13    1    3    3    0    0  0.94665350216E+01  0.32366987284E+01  0.23349519533E+02  0.25402809665E+02  0.10570000000E+00 0. -1.
<mgrwt>
<rscale>  0 0.20010381E+02</rscale>
<asrwt>0</asrwt>
<pdfrwt beam="2">  1        2 0.31481760E-03 0.20010381E+02</pdfrwt>
<pdfrwt beam="1">  1       -2 0.75260140E-02 0.20010381E+02</pdfrwt>
<totfact> 0.33966087E+06</totfact>
</mgrwt>
</event>
<event>
 4    1  0.1607476E-006  0.2002107E+02  0.7818608E-02  0.1744909E+00
          2   -1    0    0  501    0  0.00000000000E+00  0.00000000000E+00  0.93725047670E+01  0.93725051276E+01  0.26000000000E-02 0. -1.
         -2   -1    0    0    0  501 -0.00000000000E+00 -0.00000000000E+00 -0.10692002439E+02  0.10692002755E+02  0.26000000000E-02 0.  1.
        -13    1    1    2    0    0 -0.99872351211E+01  0.63755312183E+00 -0.43941104975E+00  0.10017763918E+02  0.10570000000E+00 0. -1.
         13    1    1    2    0    0  0.99872351211E+01 -0.63755312183E+00 -0.88008662210E+00  0.10046743965E+02  0.10570000000E+00 0.  1.
<mgrwt>
<rscale>  0 0.20021074E+02</rscale>
<asrwt>0</asrwt>
<pdfrwt beam="1">  1        2 0.14419239E-02 0.20021074E+02</pdfrwt>
<pdfrwt beam="2">  1       -2 0.16449235E-02 0.20021074E+02</pdfrwt>
<totfact> 0.39181922E+06</totfact>
</mgrwt>
</event>
<event>
 5    1  0.1607476E-006  0.2000318E+02  0.7818608E-02  0.1745265E+00
          2   -1    0    0  501    0  0.00000000000E+00  0.00000000000E+00  0.40952212334E+01  0.40952220588E+01  0.26000000000E-02 0. -1.
         -2   -1    0    0    0  501 -0.00000000000E+00 -0.00000000000E+00 -0.24426478365E+02  0.24426478504E+02  0.26000000000E-02 0.  1.
       1023    2    1    2    0    0  0.00000000000E+00  0.00000000000E+00 -0.20331257132E+02  0.28521700563E+02  0.20003184407E+02 0.  0.
        -13    1    3    3    0    0  0.95875981388E+01 -0.28430273724E+01 -0.10345034157E+02  0.14388736807E+02  0.10570000000E+00 0.  1.
         13    1    3    3    0    0 -0.95875981388E+01  0.28430273724E+01 -0.99862229754E+01  0.14132963756E+02  0.10570000000E+00 0. -1.
<mgrwt>
<rscale>  0 0.20003184E+02</rscale>
<asrwt>0</asrwt>
<pdfrwt beam="1">  1        2 0.63003412E-03 0.20003184E+02</pdfrwt>
<pdfrwt beam="2">  1       -2 0.37579197E-02 0.20003184E+02</pdfrwt>
<totfact> 0.36774550E+06</totfact>
</mgrwt>
</event>
<event>
 5    1  0.2352720E-006  0.2000854E+02  0.7818608E-02  0.1745158E+00
         -2   -1    0    0    0  501 -0.00000000000E+00  0.00000000000E+00  0.91175960829E+00  0.91176331540E+00  0.26000000000E-02 0.  1.
          2   -1    0    0  501    0  0.00000000000E+00 -0.00000000000E+00 -0.10977152863E+03  0.10977152866E+03  0.26000000000E-02 0. -1.
       1023    2    1    2    0    0  0.00000000000E+00  0.00000000000E+00 -0.10885976902E+03  0.11068329197E+03  0.20008543455E+02 0.  0.
        -13    1    3    3    0    0  0.95978946576E+01  0.28089352958E+01 -0.55835669288E+02  0.56724270261E+02  0.10570000000E+00 0. -1.
         13    1    3    3    0    0 -0.95978946576E+01 -0.28089352958E+01 -0.53024099730E+02  0.53959021711E+02  0.10570000000E+00 0.  1.
<mgrwt>
<rscale>  0 0.20008543E+02</rscale>
<asrwt>0</asrwt>
<pdfrwt beam="2">  1        2 0.16887917E-01 0.20008543E+02</pdfrwt>
<pdfrwt beam="1">  1       -2 0.14027108E-03 0.20008543E+02</pdfrwt>
<totfact> 0.53862191E+06</totfact>
</mgrwt>
</event>
<event>
 5    1  0.1607476E-006  0.2000238E+02  0.7818608E-02  0.1745281E+00
          2   -1    0    0  501    0  0.00000000000E+00  0.00000000000E+00  0.15816384258E+01  0.15816405628E+01  0.26000000000E-02 0. -1.
         -2   -1    0    0    0  501 -0.00000000000E+00 -0.00000000000E+00 -0.63240604939E+02  0.63240604992E+02  0.26000000000E-02 0.  1.
       1023    2    1    2    0    0  0.00000000000E+00  0.00000000000E+00 -0.61658966513E+02  0.64822245555E+02  0.20002384042E+02 0.  0.
        -13    1    3    3    0    0 -0.33071544395E+01 -0.94379529298E+01 -0.30897720013E+02  0.32476029630E+02  0.10570000000E+00 0. -1.
         13    1    3    3    0    0  0.33071544395E+01  0.94379529298E+01 -0.30761246500E+02  0.32346215925E+02  0.10570000000E+00 0.  1.
<mgrwt>
<rscale>  0 0.20002384E+02</rscale>
<asrwt>0</asrwt>
<pdfrwt beam="1">  1        2 0.24332921E-03 0.20002384E+02</pdfrwt>
<pdfrwt beam="2">  1       -2 0.97293220E-02 0.20002384E+02</pdfrwt>
<totfact> 0.32661062E+06</totfact>
</mgrwt>
</event>
<event>
 5    1  0.1607476E-006  0.2000706E+02  0.7818608E-02  0.1745188E+00
         -2   -1    0    0    0  501 -0.00000000000E+00  0.00000000000E+00  0.14600513163E+01  0.14600536313E+01  0.26000000000E-02 0.  1.
          2   -1    0    0  501    0  0.00000000000E+00 -0.00000000000E+00 -0.68539039575E+02  0.68539039624E+02  0.26000000000E-02 0. -1.
       1023    2    1    2    0    0  0.00000000000E+00  0.00000000000E+00 -0.67078988258E+02  0.69999093255E+02  0.20007058524E+02 0.  0.
        -13    1    3    3    0    0 -0.81356985276E+01  0.58176426521E+01 -0.32987753117E+02  0.34470822224E+02  0.10570000000E+00 0.  1.
         13    1    3    3    0    0  0.81356985276E+01 -0.58176426521E+01 -0.34091235141E+02  0.35528271032E+02  0.10570000000E+00 0. -1.
<mgrwt>
<rscale>  0 0.20007059E+02</rscale>
<asrwt>0</asrwt>
<pdfrwt beam="2">  1        2 0.10544465E-01 0.20007059E+02</pdfrwt>
<pdfrwt beam="1">  1       -2 0.22462352E-03 0.20007059E+02</pdfrwt>
<totfact> 0.48791198E+06</totfact>
</mgrwt>
</event>
<event>
 5    1  0.1607476E-006  0.2000143E+02  0.7818608E-02  0.1745300E+00
          2   -1    0    0  501    0  0.00000000000E+00  0.00000000000E+00  0.10437349227E+02  0.10437349550E+02  0.26000000000E-02 0. -1.
         -2   -1    0    0    0  501 -0.00000000000E+00 -0.00000000000E+00 -0.95823493983E+01  0.95823497511E+01  0.26000000000E-02 0.  1.
       1023    2    1    2    0    0  0.00000000000E+00  0.00000000000E+00  0.85499982825E+00  0.20019699301E+02  0.20001433334E+02 0.  0.
        -13    1    3    3    0    0  0.77557262679E+01 -0.63128338661E+01  0.42750333446E+00  0.10009849797E+02  0.10570000000E+00 0.  1.
         13    1    3    3    0    0 -0.77557262679E+01  0.63128338661E+01  0.42749649379E+00  0.10009849505E+02  0.10570000000E+00 0. -1.
<mgrwt>
<rscale>  0 0.20001433E+02</rscale>
<asrwt>0</asrwt>
<pdfrwt beam="1">  1        2 0.16057461E-02 0.20001433E+02</pdfrwt>
<pdfrwt beam="2">  1       -2 0.14742077E-02 0.20001433E+02</pdfrwt>
<totfact> 0.39580860E+06</totfact>
</mgrwt>
</event>
<event>
 5    1  0.1607476E-006  0.2000472E+02  0.7818608E-02  0.1745234E+00
         -2   -1    0    0    0  501 -0.00000000000E+00  0.00000000000E+00  0.73302117591E+02  0.73302117638E+02  0.26000000000E-02 0.  1.
          2   -1    0    0  501    0  0.00000000000E+00 -0.00000000000E+00 -0.13648599177E+01  0.13648623941E+01  0.26000000000E-02 0. -1.
       1023    2    1    2    0    0  0.00000000000E+00  0.00000000000E+00  0.71937257674E+02  0.74666980032E+02  0.20004721079E+02 0.  0.
        -13    1    3    3    0    0  0.64399352939E+01 -0.76526600497E+01  0.35937080946E+02  0.37303095472E+02  0.10570000000E+00 0. -1.
         13    1    3    3    0    0 -0.64399352939E+01  0.76526600497E+01  0.36000176728E+02  0.37363884559E+02  0.10570000000E+00 0.  1.
<mgrwt>
<rscale>  0 0.20004721E+02</rscale>
<asrwt>0</asrwt>
<pdfrwt beam="2">  1        2 0.20997860E-03 0.20004721E+02</pdfrwt>
<pdfrwt beam="1">  1       -2 0.11277252E-01 0.20004721E+02</pdfrwt>
<totfact> 0.31789034E+06</totfact>
</mgrwt>
</event>
<event>
 5    1  0.1607476E-006  0.2000234E+02  0.7818608E-02  0.1745281E+00
         -2   -1    0    0    0  501 -0.00000000000E+00  0.00000000000E+00  0.10246273511E+02  0.10246273841E+02  0.26000000000E-02 0.  1.
          2   -1    0    0  501    0  0.00000000000E+00 -0.00000000000E+00 -0.97619315849E+01  0.97619319311E+01  0.26000000000E-02 0. -1.
       1023    2    1    2    0    0  0.00000000000E+00  0.00000000000E+00  0.48434192646E+00  0.20008205772E+02  0.20002342641E+02 0.  0.
        -13    1    3    3    0    0  0.95529180726E+01  0.29586917380E+01  0.22972586616E+00  0.10003801626E+02  0.10570000000E+00 0. -1.
         13    1    3    3    0    0 -0.95529180726E+01 -0.29586917380E+01  0.25461606030E+00  0.10004404147E+02  0.10570000000E+00 0.  1.
<mgrwt>
<rscale>  0 0.20002343E+02</rscale>
<asrwt>0</asrwt>
<pdfrwt beam="2">  1        2 0.15018357E-02 0.20002343E+02</pdfrwt>
<pdfrwt beam="1">  1       -2 0.15763498E-02 0.20002343E+02</pdfrwt>
<totfact> 0.39383043E+06</totfact>
</mgrwt>
</event>
<event>
 5    1  0.1607476E-006  0.2000469E+02  0.7818608E-02  0.1745235E+00
         -2   -1    0    0    0  501 -0.00000000000E+00  0.00000000000E+00  0.73901939067E+01  0.73901943641E+01  0.26000000000E-02 0. -1.
          2   -1    0    0  501    0  0.00000000000E+00 -0.00000000000E+00 -0.13537786540E+02  0.13537786790E+02  0.26000000000E-02 0.  1.
       1023    2    1    2    0    0  0.00000000000E+00  0.00000000000E+00 -0.61475926334E+01  0.20927981154E+02  0.20004686951E+02 0.  0.
        -13    1    3    3    0    0  0.84493382728E+01  0.53520430767E+01 -0.30784940815E+01  0.10465370545E+02  0.10570000000E+00 0.  1.
         13    1    3    3    0    0 -0.84493382728E+01 -0.53520430767E+01 -0.30690985519E+01  0.10462610609E+02  0.10570000000E+00 0. -1.
<mgrwt>
<rscale>  0 0.20004687E+02</rscale>
<asrwt>0</asrwt>
<pdfrwt beam="2">  1        2 0.20827364E-02 0.20004687E+02</pdfrwt>
<pdfrwt beam="1">  1       -2 0.11369530E-02 0.20004687E+02</pdfrwt>
<totfact> 0.40344415E+06</totfact>
</mgrwt>
</event>
<event>
 5    1  0.1607476E-006  0.2000210E+02  0.7818608E-02  0.1745286E+00
          2   -1    0    0  501    0  0.00000000000E+00  0.00000000000E+00  0.32405405561E+02  0.32405405665E+02  0.26000000000E-02 0.  1.
         -2   -1    0    0    0  501 -0.00000000000E+00 -0.00000000000E+00 -0.30865521856E+01  0.30865532807E+01  0.26000000000E-02 0. -1.
       1023    2    1    2    0    0  0.00000000000E+00  0.00000000000E+00  0.29318853375E+02  0.35491958946E+02  0.20002099554E+02 0.  0.
        -13    1    3    3    0    0  0.19886548545E+01  0.98006911237E+01  0.14590031077E+02  0.17688653820E+02  0.10570000000E+00 0. -1.
         13    1    3    3    0    0 -0.19886548545E+01 -0.98006911237E+01  0.14728822298E+02  0.17803305126E+02  0.10570000000E+00 0.  1.
<mgrwt>
<rscale>  0 0.20002100E+02</rscale>
<asrwt>0</asrwt>
<pdfrwt beam="1">  1        2 0.49854470E-02 0.20002100E+02</pdfrwt>
<pdfrwt beam="2">  1       -2 0.47485429E-03 0.20002100E+02</pdfrwt>
<totfact> 0.43740333E+06</totfact>
</mgrwt>
</event>
<event>
 5    1  0.1607476E-006  0.2001050E+02  0.7818608E-02  0.1745119E+00
          2   -1    0    0  501    0  0.00000000000E+00  0.00000000000E+00  0.49794106887E+01  0.49794113675E+01  0.26000000000E-02 0. -1.
         -2   -1    0    0    0  501 -0.00000000000E+00 -0.00000000000E+00 -0.20103779522E+02  0.20103779690E+02  0.26000000000E-02 0.  1.
       1023    2    1    2    0    0  0.00000000000E+00  0.00000000000E+00 -0.15124368833E+02  0.25083191058E+02  0.20010495772E+02 0.  0.
        -13    1    3    3    0    0  0.99871734541E+01  0.57472909336E+00 -0.77388598430E+01  0.12648125209E+02  0.10570000000E+00 0. -1.
         13    1    3    3    0    0 -0.99871734541E+01 -0.57472909336E+00 -0.73855089903E+01  0.12435065849E+02  0.10570000000E+00 0.  1.
<mgrwt>
<rscale>  0 0.20010496E+02</rscale>
<asrwt>0</asrwt>
<pdfrwt beam="1">  1        2 0.76606326E-03 0.20010496E+02</pdfrwt>
<pdfrwt beam="2">  1       -2 0.30928892E-02 0.20010496E+02</pdfrwt>
<totfact> 0.37375158E+06</totfact>
</mgrwt>
</event>
<event>
 4    1  0.1607476E-006  0.2003734E+02  0.7818608E-02  0.1744587E+00
         -2   -1    0    0    0  501 -0.00000000000E+00  0.00000000000E+00  0.20548718763E+02  0.20548718927E+02  0.26000000000E-02 0. -1.
          2   -1    0    0  501    0  0.00000000000E+00 -0.00000000000E+00 -0.48846694616E+01  0.48846701535E+01  0.26000000000E-02 0.  1.
        -13    1    1    2    0    0  0.23602401410E+00  0.10006663590E+02  0.83607515035E+01  0.13042329613E+02  0.10570000000E+00 0.  1.
         13    1    1    2    0    0 -0.23602401410E+00 -0.10006663590E+02  0.73032977975E+01  0.12391059468E+02  0.10570000000E+00 0. -1.
<mgrwt>
<rscale>  0 0.20037336E+02</rscale>
<asrwt>0</asrwt>
<pdfrwt beam="2">  1        2 0.75148768E-03 0.20037336E+02</pdfrwt>
<pdfrwt beam="1">  1       -2 0.31613414E-02 0.20037336E+02</pdfrwt>
<totfact> 0.37198120E+06</totfact>
</mgrwt>
</event>
<event>
 5    1  0.1607476E-006  0.2000400E+02  0.7818608E-02  0.1745248E+00
         -2   -1    0    0    0  501 -0.00000000000E+00  0.00000000000E+00  0.20699309159E+01  0.20699325488E+01  0.26000000000E-02 0.  1.
          2   -1    0    0  501    0  0.00000000000E+00 -0.00000000000E+00 -0.48330114649E+02  0.48330114719E+02  0.26000000000E-02 0. -1.
       1023    2    1    2    0    0  0.00000000000E+00  0.00000000000E+00 -0.46260183733E+02  0.50400047267E+02  0.20004003738E+02 0.  0.
        -13    1    3    3    0    0 -0.78834350436E+01 -0.61544049309E+01 -0.22978486730E+02  0.25060871354E+02  0.10570000000E+00 0. -1.
         13    1    3    3    0    0  0.78834350436E+01  0.61544049309E+01 -0.23281697003E+02  0.25339175913E+02  0.10570000000E+00 0.  1.
<mgrwt>
<rscale>  0 0.20004004E+02</rscale>
<asrwt>0</asrwt>
<pdfrwt beam="2">  1        2 0.74354015E-02 0.20004004E+02</pdfrwt>
<pdfrwt beam="1">  1       -2 0.31845108E-03 0.20004004E+02</pdfrwt>
<totfact> 0.46073337E+06</totfact>
</mgrwt>
</event>
<event>
 5    1  0.1607476E-006  0.2000578E+02  0.7818608E-02  0.1745213E+00
          2   -1    0    0  501    0  0.00000000000E+00  0.00000000000E+00  0.42544718118E+01  0.42544726063E+01  0.26000000000E-02 0.  1.
         -2   -1    0    0    0  501 -0.00000000000E+00 -0.00000000000E+00 -0.23518262749E+02  0.23518262893E+02  0.26000000000E-02 0. -1.
       1023    2    1    2    0    0  0.00000000000E+00  0.00000000000E+00 -0.19263790937E+02  0.27772735499E+02  0.20005779061E+02 0.  0.
        -13    1    3    3    0    0  0.53110877444E+01 -0.84736387183E+01 -0.98968278324E+01  0.14070130767E+02  0.10570000000E+00 0. -1.
         13    1    3    3    0    0 -0.53110877444E+01  0.84736387183E+01 -0.93669631051E+01  0.13702604733E+02  0.10570000000E+00 0.  1.
<mgrwt>
<rscale>  0 0.20005779E+02</rscale>
<asrwt>0</asrwt>
<pdfrwt beam="1">  1        2 0.65453421E-03 0.20005779E+02</pdfrwt>
<pdfrwt beam="2">  1       -2 0.36181943E-02 0.20005779E+02</pdfrwt>
<totfact> 0.36890413E+06</totfact>
</mgrwt>
</event>
<event>
 5    1  0.2587743E-006  0.2000390E+02  0.7818608E-02  0.1745250E+00
          2   -1    0    0  501    0  0.00000000000E+00  0.00000000000E+00  0.11632978619E+03  0.11632978622E+03  0.26000000000E-02 0. -1.
         -2   -1    0    0    0  501 -0.00000000000E+00 -0.00000000000E+00 -0.85995870113E+00  0.85996263154E+00  0.26000000000E-02 0.  1.
       1023    2    1    2    0    0  0.00000000000E+00  0.00000000000E+00  0.11546982749E+03  0.11718974885E+03  0.20003904003E+02 0.  0.
        -13    1    3    3    0    0 -0.40078790668E+01 -0.91619535492E+01  0.56839067780E+02  0.57712176237E+02  0.10570000000E+00 0. -1.
         13    1    3    3    0    0  0.40078790668E+01  0.91619535492E+01  0.58630759713E+02  0.59477572618E+02  0.10570000000E+00 0.  1.
<mgrwt>
<rscale>  0 0.20003904E+02</rscale>
<asrwt>0</asrwt>
<pdfrwt beam="1">  1        2 0.17896907E-01 0.20003904E+02</pdfrwt>
<pdfrwt beam="2">  1       -2 0.13230152E-03 0.20003904E+02</pdfrwt>
<totfact> 0.54648893E+06</totfact>
</mgrwt>
</event>
<event>
 5    1  0.1607476E-006  0.2000985E+02  0.7818608E-02  0.1745132E+00
         -2   -1    0    0    0  501 -0.00000000000E+00  0.00000000000E+00  0.54843129736E+01  0.54843135899E+01  0.26000000000E-02 0. -1.
          2   -1    0    0  501    0  0.00000000000E+00 -0.00000000000E+00 -0.18251795091E+02  0.18251795276E+02  0.26000000000E-02 0.  1.
       1023    2    1    2    0    0  0.00000000000E+00  0.00000000000E+00 -0.12767482118E+02  0.23736108866E+02  0.20009854185E+02 0.  0.
        -13    1    3    3    0    0 -0.73549609573E+01  0.67816179186E+01 -0.63362721400E+01  0.11842521243E+02  0.10570000000E+00 0. -1.
         13    1    3    3    0    0  0.73549609573E+01 -0.67816179186E+01 -0.64312099777E+01  0.11893587623E+02  0.10570000000E+00 0.  1.
<mgrwt>
<rscale>  0 0.20009854E+02</rscale>
<asrwt>0</asrwt>
<pdfrwt beam="2">  1        2 0.28079685E-02 0.20009854E+02</pdfrwt>
<pdfrwt beam="1">  1       -2 0.84374053E-03 0.20009854E+02</pdfrwt>
<totfact> 0.41302826E+06</totfact>
</mgrwt>
</event>
<event>
 5    1  0.1607476E-006  0.2000634E+02  0.7818608E-02  0.1745202E+00
         -2   -1    0    0    0  501 -0.00000000000E+00  0.00000000000E+00  0.40426542933E+01  0.40426551294E+01  0.26000000000E-02 0.  1.
          2   -1    0    0  501    0  0.00000000000E+00 -0.00000000000E+00 -0.24751911718E+02  0.24751911855E+02  0.26000000000E-02 0. -1.
       1023    2    1    2    0    0  0.00000000000E+00  0.00000000000E+00 -0.20709257425E+02  0.28794566984E+02  0.20006342612E+02 0.  0.
        -13    1    3    3    0    0  0.96709316403E+01 -0.25540328151E+01 -0.10286187189E+02  0.14348059862E+02  0.10570000000E+00 0. -1.
         13    1    3    3    0    0 -0.96709316403E+01  0.25540328151E+01 -0.10423070236E+02  0.14446507122E+02  0.10570000000E+00 0.  1.
<mgrwt>
<rscale>  0 0.20006343E+02</rscale>
<asrwt>0</asrwt>
<pdfrwt beam="2">  1        2 0.38079864E-02 0.20006343E+02</pdfrwt>
<pdfrwt beam="1">  1       -2 0.62194690E-03 0.20006343E+02</pdfrwt>
<totfact> 0.42484462E+06</totfact>
</mgrwt>
</event>
<event>
 5    1  0.2467481E-006  0.2000463E+02  0.7818608E-02  0.1745236E+00
         -2   -1    0    0    0  501 -0.00000000000E+00  0.00000000000E+00  0.87444522107E+00  0.87444908637E+00  0.26000000000E-02 0. -1.
          2   -1    0    0  501    0  0.00000000000E+00 -0.00000000000E+00 -0.11441092371E+03  0.11441092374E+03  0.26000000000E-02 0.  1.
       1023    2    1    2    0    0  0.00000000000E+00  0.00000000000E+00 -0.11353647849E+03  0.11528537282E+03  0.20004630462E+02 0.  0.
        -13    1    3    3    0    0  0.62827605629E+01  0.77815052266E+01 -0.56185253205E+02  0.57068544349E+02  0.10570000000E+00 0.  1.
         13    1    3    3    0    0 -0.62827605629E+01 -0.77815052266E+01 -0.57351225283E+02  0.58216828476E+02  0.10570000000E+00 0. -1.
<mgrwt>
<rscale>  0 0.20004630E+02</rscale>
<asrwt>0</asrwt>
<pdfrwt beam="2">  1        2 0.17601669E-01 0.20004630E+02</pdfrwt>
<pdfrwt beam="1">  1       -2 0.13453042E-03 0.20004630E+02</pdfrwt>
<totfact> 0.54423631E+06</totfact>
</mgrwt>
</event>
<event>
 5    1  0.1607476E-006  0.2000162E+02  0.7818608E-02  0.1745296E+00
         -2   -1    0    0    0  501 -0.00000000000E+00  0.00000000000E+00  0.85847453007E+02  0.85847453047E+02  0.26000000000E-02 0.  1.
          2   -1    0    0  501    0  0.00000000000E+00 -0.00000000000E+00 -0.11650441385E+01  0.11650470396E+01  0.26000000000E-02 0. -1.
       1023    2    1    2    0    0  0.00000000000E+00  0.00000000000E+00  0.84682408869E+02  0.87012500086E+02  0.20001619921E+02 0.  0.
        -13    1    3    3    0    0 -0.26925716536E+01  0.96309384299E+01  0.42386876333E+02  0.43550698903E+02  0.10570000000E+00 0. -1.
         13    1    3    3    0    0  0.26925716536E+01 -0.96309384299E+01  0.42295532536E+02  0.43461801184E+02  0.10570000000E+00 0.  1.
<mgrwt>
<rscale>  0 0.20001620E+02</rscale>
<asrwt>0</asrwt>
<pdfrwt beam="2">  1        2 0.17923772E-03 0.20001620E+02</pdfrwt>
<pdfrwt beam="1">  1       -2 0.13207306E-01 0.20001620E+02</pdfrwt>
<totfact> 0.30790164E+06</totfact>
</mgrwt>
</event>
<event>
 5    1  0.1607476E-006  0.2000504E+02  0.7818608E-02  0.1745228E+00
         -2   -1    0    0    0  501 -0.00000000000E+00  0.00000000000E+00  0.37631256155E+01  0.37631265137E+01  0.26000000000E-02 0. -1.
          2   -1    0    0  501    0  0.00000000000E+00 -0.00000000000E+00 -0.26587055620E+02  0.26587055747E+02  0.26000000000E-02 0.  1.
       1023    2    1    2    0    0  0.00000000000E+00  0.00000000000E+00 -0.22823930004E+02  0.30350182260E+02  0.20005043924E+02 0.  0.
        -13    1    3    3    0    0  0.82799385855E+01 -0.56100842136E+01 -0.11554649517E+02  0.15282392673E+02  0.10570000000E+00 0. -1.
         13    1    3    3    0    0 -0.82799385855E+01  0.56100842136E+01 -0.11269280487E+02  0.15067789588E+02  0.10570000000E+00 0.  1.
<mgrwt>
<rscale>  0 0.20005044E+02</rscale>
<asrwt>0</asrwt>
<pdfrwt beam="2">  1        2 0.40903162E-02 0.20005044E+02</pdfrwt>
<pdfrwt beam="1">  1       -2 0.57894250E-03 0.20005044E+02</pdfrwt>
<totfact> 0.42797149E+06</totfact>
</mgrwt>
</event>
<event>
 5    1  0.1607476E-006  0.2000664E+02  0.7818608E-02  0.1745196E+00
         -2   -1    0    0    0  501 -0.00000000000E+00  0.00000000000E+00  0.11781695950E+03  0.11781695953E+03  0.26000000000E-02 0. -1.
          2   -1    0    0  501    0  0.00000000000E+00 -0.00000000000E+00 -0.84933574174E+00  0.84933972131E+00  0.26000000000E-02 0.  1.
       1023    2    1    2    0    0  0.00000000000E+00  0.00000000000E+00  0.11696762376E+03  0.11866629925E+03  0.20006638149E+02 0.  0.
        -13    1    3    3    0    0  0.23975287968E+01 -0.97111744382E+01  0.58560396633E+02  0.59408638089E+02  0.10570000000E+00 0. -1.
         13    1    3    3    0    0 -0.23975287968E+01  0.97111744382E+01  0.58407227123E+02  0.59257661159E+02  0.10570000000E+00 0.  1.
<mgrwt>
<rscale>  0 0.20006638E+02</rscale>
<asrwt>0</asrwt>
<pdfrwt beam="2">  1        2 0.13066742E-03 0.20006638E+02</pdfrwt>
<pdfrwt beam="1">  1       -2 0.18125676E-01 0.20006638E+02</pdfrwt>
<totfact> 0.28466273E+06</totfact>
</mgrwt>
</event>
<event>
 5    1  0.1607476E-006  0.2000495E+02  0.7818608E-02  0.1745230E+00
          2   -1    0    0  501    0  0.00000000000E+00  0.00000000000E+00  0.16033964701E+02  0.16033964912E+02  0.26000000000E-02 0. -1.
         -2   -1    0    0    0  501 -0.00000000000E+00 -0.00000000000E+00 -0.62398505217E+01  0.62398510634E+01  0.26000000000E-02 0.  1.
       1023    2    1    2    0    0  0.00000000000E+00  0.00000000000E+00  0.97941141791E+01  0.22273815975E+02  0.20004954525E+02 0.  0.
        -13    1    3    3    0    0  0.43025856489E+01  0.90291800236E+01  0.48896942028E+01  0.11133670421E+02  0.10570000000E+00 0.  1.
         13    1    3    3    0    0 -0.43025856489E+01 -0.90291800236E+01  0.49044199763E+01  0.11140145554E+02  0.10570000000E+00 0. -1.
<mgrwt>
<rscale>  0 0.20004955E+02</rscale>
<asrwt>0</asrwt>
<pdfrwt beam="1">  1        2 0.24667639E-02 0.20004955E+02</pdfrwt>
<pdfrwt beam="2">  1       -2 0.95997706E-03 0.20004955E+02</pdfrwt>
<totfact> 0.40884148E+06</totfact>
</mgrwt>
</event>
<event>
 5    1  0.1607476E-006  0.2000144E+02  0.7818608E-02  0.1745299E+00
          2   -1    0    0  501    0  0.00000000000E+00  0.00000000000E+00  0.45522644375E+01  0.45522651800E+01  0.26000000000E-02 0. -1.
         -2   -1    0    0    0  501 -0.00000000000E+00 -0.00000000000E+00 -0.21970260946E+02  0.21970261099E+02  0.26000000000E-02 0.  1.
       1023    2    1    2    0    0  0.00000000000E+00  0.00000000000E+00 -0.17417996508E+02  0.26522526279E+02  0.20001444895E+02 0.  0.
        -13    1    3    3    0    0 -0.81820922889E+01  0.57492989970E+01 -0.87712482985E+01  0.13302144278E+02  0.10570000000E+00 0.  1.
         13    1    3    3    0    0  0.81820922889E+01 -0.57492989970E+01 -0.86467482095E+01  0.13220382002E+02  0.10570000000E+00 0. -1.
<mgrwt>
<rscale>  0 0.20001445E+02</rscale>
<asrwt>0</asrwt>
<pdfrwt beam="1">  1        2 0.70034846E-03 0.20001445E+02</pdfrwt>
<pdfrwt beam="2">  1       -2 0.33800402E-02 0.20001445E+02</pdfrwt>
<totfact> 0.37130093E+06</totfact>
</mgrwt>
</event>
<event>
 5    1  0.1607476E-006  0.2000126E+02  0.7818608E-02  0.1745303E+00
         -2   -1    0    0    0  501 -0.00000000000E+00  0.00000000000E+00  0.76060722004E+02  0.76060722048E+02  0.26000000000E-02 0.  1.
          2   -1    0    0  501    0  0.00000000000E+00 -0.00000000000E+00 -0.13149034146E+01  0.13149059852E+01  0.26000000000E-02 0. -1.
       1023    2    1    2    0    0  0.00000000000E+00  0.00000000000E+00  0.74745818589E+02  0.77375628033E+02  0.20001260385E+02 0.  0.
        -13    1    3    3    0    0 -0.98436785363E+01  0.17616089066E+01  0.37324175727E+02  0.38640736785E+02  0.10570000000E+00 0. -1.
         13    1    3    3    0    0  0.98436785363E+01 -0.17616089066E+01  0.37421642862E+02  0.38734891249E+02  0.10570000000E+00 0.  1.
<mgrwt>
<rscale>  0 0.20001260E+02</rscale>
<asrwt>0</asrwt>
<pdfrwt beam="2">  1        2 0.20229307E-03 0.20001260E+02</pdfrwt>
<pdfrwt beam="1">  1       -2 0.11701648E-01 0.20001260E+02</pdfrwt>
<totfact> 0.31573021E+06</totfact>
</mgrwt>
</event>
<event>
 5    1  0.1607476E-006  0.2001116E+02  0.7818608E-02  0.1745106E+00
         -2   -1    0    0    0  501 -0.00000000000E+00  0.00000000000E+00  0.78701242944E+01  0.78701247239E+01  0.26000000000E-02 0.  1.
          2   -1    0    0  501    0  0.00000000000E+00 -0.00000000000E+00 -0.12720457974E+02  0.12720458240E+02  0.26000000000E-02 0. -1.
       1023    2    1    2    0    0  0.00000000000E+00  0.00000000000E+00 -0.48503336796E+01  0.20590582964E+02  0.20011156138E+02 0.  0.
        -13    1    3    3    0    0 -0.25267117529E+01  0.96802257398E+01 -0.23255262001E+01  0.10271820056E+02  0.10570000000E+00 0. -1.
         13    1    3    3    0    0  0.25267117529E+01 -0.96802257398E+01 -0.25248074795E+01  0.10318762908E+02  0.10570000000E+00 0.  1.
<mgrwt>
<rscale>  0 0.20011156E+02</rscale>
<asrwt>0</asrwt>
<pdfrwt beam="2">  1        2 0.19569936E-02 0.20011156E+02</pdfrwt>
<pdfrwt beam="1">  1       -2 0.12107884E-02 0.20011156E+02</pdfrwt>
<totfact> 0.40123839E+06</totfact>
</mgrwt>
</event>
<event>
 5    1  0.1607476E-006  0.2000819E+02  0.7818608E-02  0.1745165E+00
          2   -1    0    0  501    0  0.00000000000E+00  0.00000000000E+00  0.60712107886E+02  0.60712107941E+02  0.26000000000E-02 0. -1.
         -2   -1    0    0    0  501 -0.00000000000E+00 -0.00000000000E+00 -0.16484665416E+01  0.16484685920E+01  0.26000000000E-02 0.  1.
       1023    2    1    2    0    0  0.00000000000E+00  0.00000000000E+00  0.59063641344E+02  0.62360576533E+02  0.20008192740E+02 0.  0.
        -13    1    3    3    0    0 -0.95029259431E+01  0.31193569618E+01  0.28950545483E+02  0.30629744458E+02  0.10570000000E+00 0. -1.
         13    1    3    3    0    0  0.95029259431E+01 -0.31193569618E+01  0.30113095861E+02  0.31730832075E+02  0.10570000000E+00 0.  1.
<mgrwt>
<rscale>  0 0.20008193E+02</rscale>
<asrwt>0</asrwt>
<pdfrwt beam="1">  1        2 0.93403244E-02 0.20008193E+02</pdfrwt>
<pdfrwt beam="2">  1       -2 0.25361040E-03 0.20008193E+02</pdfrwt>
<totfact> 0.47749920E+06</totfact>
</mgrwt>
</event>
<event>
 5    1  0.1607476E-006  0.2000169E+02  0.7818608E-02  0.1745295E+00
         -2   -1    0    0    0  501 -0.00000000000E+00  0.00000000000E+00  0.11516915916E+01  0.11516945264E+01  0.26000000000E-02 0. -1.
          2   -1    0    0  501    0  0.00000000000E+00 -0.00000000000E+00 -0.86843341706E+02  0.86843341745E+02  0.26000000000E-02 0.  1.
       1023    2    1    2    0    0  0.00000000000E+00  0.00000000000E+00 -0.85691650114E+02  0.87995036271E+02  0.20001687655E+02 0.  0.
        -13    1    3    3    0    0 -0.35815401156E+01  0.93368176775E+01 -0.42643700807E+02  0.43800684754E+02  0.10570000000E+00 0. -1.
         13    1    3    3    0    0  0.35815401156E+01 -0.93368176775E+01 -0.43047949308E+02  0.44194351517E+02  0.10570000000E+00 0.  1.
<mgrwt>
<rscale>  0 0.20001688E+02</rscale>
<asrwt>0</asrwt>
<pdfrwt beam="2">  1        2 0.13360509E-01 0.20001688E+02</pdfrwt>
<pdfrwt beam="1">  1       -2 0.17718362E-03 0.20001688E+02</pdfrwt>
<totfact> 0.51145467E+06</totfact>
</mgrwt>
</event>
<event>
 4    1  0.1607476E-006  0.2001436E+02  0.7818608E-02  0.1745043E+00
         -2   -1    0    0    0  501 -0.00000000000E+00  0.00000000000E+00  0.14543232585E+01  0.14543255826E+01  0.26000000000E-02 0.  1.
          2   -1    0    0  501    0  0.00000000000E+00 -0.00000000000E+00 -0.68859237960E+02  0.68859238009E+02  0.26000000000E-02 0. -1.
        -13    1    1    2    0    0  0.26917860666E+01 -0.96372845162E+01 -0.33359367603E+02  0.34827884582E+02  0.10570000000E+00 0.  1.
         13    1    1    2    0    0 -0.26917860666E+01  0.96372845162E+01 -0.34045547098E+02  0.35485679010E+02  0.10570000000E+00 0. -1.
<mgrwt>
<rscale>  0 0.20014362E+02</rscale>
<asrwt>0</asrwt>
<pdfrwt beam="2">  1        2 0.10593727E-01 0.20014362E+02</pdfrwt>
<pdfrwt beam="1">  1       -2 0.22374228E-03 0.20014362E+02</pdfrwt>
<totfact> 0.48793460E+06</totfact>
</mgrwt>
</event>
<event>
 5    1  0.1607476E-006  0.2000438E+02  0.7818608E-02  0.1745241E+00
         -2   -1    0    0    0  501 -0.00000000000E+00  0.00000000000E+00  0.24235076964E+01  0.24235090911E+01  0.26000000000E-02 0.  1.
          2   -1    0    0  501    0  0.00000000000E+00 -0.00000000000E+00 -0.41280548495E+02  0.41280548577E+02  0.26000000000E-02 0. -1.
       1023    2    1    2    0    0  0.00000000000E+00  0.00000000000E+00 -0.38857040799E+02  0.43704057668E+02  0.20004375447E+02 0.  0.
        -13    1    3    3    0    0 -0.74384692197E+01 -0.66845406614E+01 -0.19129934935E+02  0.21586558116E+02  0.10570000000E+00 0. -1.
         13    1    3    3    0    0  0.74384692197E+01  0.66845406614E+01 -0.19727105864E+02  0.22117499552E+02  0.10570000000E+00 0.  1.
<mgrwt>
<rscale>  0 0.20004375E+02</rscale>
<asrwt>0</asrwt>
<pdfrwt beam="2">  1        2 0.63508532E-02 0.20004375E+02</pdfrwt>
<pdfrwt beam="1">  1       -2 0.37284748E-03 0.20004375E+02</pdfrwt>
<totfact> 0.45061911E+06</totfact>
</mgrwt>
</event>
<event>
 5    1  0.1607476E-006  0.2001117E+02  0.7818608E-02  0.1745106E+00
         -2   -1    0    0    0  501 -0.00000000000E+00  0.00000000000E+00  0.28098292858E+02  0.28098292978E+02  0.26000000000E-02 0. -1.
          2   -1    0    0  501    0  0.00000000000E+00 -0.00000000000E+00 -0.35629100064E+01  0.35629109551E+01  0.26000000000E-02 0.  1.
       1023    2    1    2    0    0  0.00000000000E+00  0.00000000000E+00  0.24535382851E+02  0.31661203933E+02  0.20011167453E+02 0.  0.
        -13    1    3    3    0    0 -0.76101900875E+00  0.99751115063E+01  0.12052296065E+02  0.15663684510E+02  0.10570000000E+00 0.  1.
         13    1    3    3    0    0  0.76101900875E+00 -0.99751115063E+01  0.12483086786E+02  0.15997519423E+02  0.10570000000E+00 0. -1.
<mgrwt>
<rscale>  0 0.20011167E+02</rscale>
<asrwt>0</asrwt>
<pdfrwt beam="2">  1        2 0.54814007E-03 0.20011167E+02</pdfrwt>
<pdfrwt beam="1">  1       -2 0.43228145E-02 0.20011167E+02</pdfrwt>
<totfact> 0.36258156E+06</totfact>
</mgrwt>
</event>
<event>
 5    1  0.1607476E-006  0.2000167E+02  0.7818608E-02  0.1745295E+00
         -2   -1    0    0    0  501 -0.00000000000E+00  0.00000000000E+00  0.31968049655E+01  0.31968060228E+01  0.26000000000E-02 0. -1.
          2   -1    0    0  501    0  0.00000000000E+00 -0.00000000000E+00 -0.31286457538E+02  0.31286457646E+02  0.26000000000E-02 0.  1.
       1023    2    1    2    0    0  0.00000000000E+00  0.00000000000E+00 -0.28089652572E+02  0.34483263669E+02  0.20001672220E+02 0.  0.
        -13    1    3    3    0    0  0.51890672112E+01 -0.85483160510E+01 -0.13917849224E+02  0.17138197844E+02  0.10570000000E+00 0. -1.
         13    1    3    3    0    0 -0.51890672112E+01  0.85483160510E+01 -0.14171803348E+02  0.17345065825E+02  0.10570000000E+00 0.  1.
<mgrwt>
<rscale>  0 0.20001672E+02</rscale>
<asrwt>0</asrwt>
<pdfrwt beam="2">  1        2 0.48133010E-02 0.20001672E+02</pdfrwt>
<pdfrwt beam="1">  1       -2 0.49181626E-03 0.20001672E+02</pdfrwt>
<totfact> 0.43567943E+06</totfact>
</mgrwt>
</event>
<event>
 5    1  0.1607476E-006  0.2000350E+02  0.7818608E-02  0.1745259E+00
         -2   -1    0    0    0  501 -0.00000000000E+00  0.00000000000E+00  0.11347810105E+02  0.11347810402E+02  0.26000000000E-02 0. -1.
          2   -1    0    0  501    0  0.00000000000E+00 -0.00000000000E+00 -0.88153561008E+01  0.88153564843E+01  0.26000000000E-02 0.  1.
       1023    2    1    2    0    0  0.00000000000E+00  0.00000000000E+00  0.25324540037E+01  0.20163166887E+02  0.20003499084E+02 0.  0.
        -13    1    3    3    0    0 -0.99631652647E+01 -0.86070424471E+00  0.11296927804E+01  0.10064435014E+02  0.10570000000E+00 0. -1.
         13    1    3    3    0    0  0.99631652647E+01  0.86070424471E+00  0.14027612233E+01  0.10098731872E+02  0.10570000000E+00 0.  1.
<mgrwt>
<rscale>  0 0.20003499E+02</rscale>
<asrwt>0</asrwt>
<pdfrwt beam="2">  1        2 0.13562087E-02 0.20003499E+02</pdfrwt>
<pdfrwt beam="1">  1       -2 0.17458170E-02 0.20003499E+02</pdfrwt>
<totfact> 0.39085089E+06</totfact>
</mgrwt>
</event>
<event>
 5    1  0.1607476E-006  0.2000209E+02  0.7818608E-02  0.1745287E+00
         -2   -1    0    0    0  501 -0.00000000000E+00  0.00000000000E+00  0.60062649817E+02  0.60062649874E+02  0.26000000000E-02 0. -1.
          2   -1    0    0  501    0  0.00000000000E+00 -0.00000000000E+00 -0.16652746140E+01  0.16652766437E+01  0.26000000000E-02 0.  1.
       1023    2    1    2    0    0  0.00000000000E+00  0.00000000000E+00  0.58397375203E+02  0.61727926517E+02  0.20002086928E+02 0.  0.
        -13    1    3    3    0    0  0.48611306218E+01  0.87392612468E+01  0.28993520062E+02  0.30669865603E+02  0.10570000000E+00 0. -1.
         13    1    3    3    0    0 -0.48611306218E+01 -0.87392612468E+01  0.29403855142E+02  0.31058060914E+02  0.10570000000E+00 0.  1.
<mgrwt>
<rscale>  0 0.20002087E+02</rscale>
<asrwt>0</asrwt>
<pdfrwt beam="2">  1        2 0.25619629E-03 0.20002087E+02</pdfrwt>
<pdfrwt beam="1">  1       -2 0.92404064E-02 0.20002087E+02</pdfrwt>
<totfact> 0.32946790E+06</totfact>
</mgrwt>
</event>
<event>
 5    1  0.1607476E-006  0.2000357E+02  0.7818608E-02  0.1745257E+00
         -2   -1    0    0    0  501 -0.00000000000E+00  0.00000000000E+00  0.15878876608E+01  0.15878897895E+01  0.26000000000E-02 0.  1.
          2   -1    0    0  501    0  0.00000000000E+00 -0.00000000000E+00 -0.62999185280E+02  0.62999185334E+02  0.26000000000E-02 0. -1.
       1023    2    1    2    0    0  0.00000000000E+00  0.00000000000E+00 -0.61411297619E+02  0.64587075123E+02  0.20003569624E+02 0.  0.
        -13    1    3    3    0    0  0.69674638658E+01  0.71734123970E+01 -0.31174975737E+02  0.32739787458E+02  0.10570000000E+00 0.  1.
         13    1    3    3    0    0 -0.69674638658E+01 -0.71734123970E+01 -0.30236321882E+02  0.31847287665E+02  0.10570000000E+00 0. -1.
<mgrwt>
<rscale>  0 0.20003570E+02</rscale>
<asrwt>0</asrwt>
<pdfrwt beam="2">  1        2 0.96921806E-02 0.20003570E+02</pdfrwt>
<pdfrwt beam="1">  1       -2 0.24429063E-03 0.20003570E+02</pdfrwt>
<totfact> 0.48079925E+06</totfact>
</mgrwt>
</event>
<event>
 5    1  0.1607476E-006  0.2000510E+02  0.7818608E-02  0.1745227E+00
          2   -1    0    0  501    0  0.00000000000E+00  0.00000000000E+00  0.43037817347E+02  0.43037817426E+02  0.26000000000E-02 0. -1.
         -2   -1    0    0    0  501 -0.00000000000E+00 -0.00000000000E+00 -0.23247225871E+01  0.23247240410E+01  0.26000000000E-02 0.  1.
       1023    2    1    2    0    0  0.00000000000E+00  0.00000000000E+00  0.40713094760E+02  0.45362541467E+02  0.20005101434E+02 0.  0.
        -13    1    3    3    0    0  0.96276545045E+01  0.27107312520E+01  0.20373082693E+02  0.22696111255E+02  0.10570000000E+00 0.  1.
         13    1    3    3    0    0 -0.96276545045E+01 -0.27107312520E+01  0.20340012067E+02  0.22666430212E+02  0.10570000000E+00 0. -1.
<mgrwt>
<rscale>  0 0.20005101E+02</rscale>
<asrwt>0</asrwt>
<pdfrwt beam="1">  1        2 0.66212028E-02 0.20005101E+02</pdfrwt>
<pdfrwt beam="2">  1       -2 0.35764974E-03 0.20005101E+02</pdfrwt>
<totfact> 0.45313362E+06</totfact>
</mgrwt>
</event>
<event>
 4    1  0.1607476E-006  0.2007074E+02  0.7818608E-02  0.1743925E+00
         -2   -1    0    0    0  501 -0.00000000000E+00  0.00000000000E+00  0.15403964832E+02  0.15403965052E+02  0.26000000000E-02 0. -1.
          2   -1    0    0  501    0  0.00000000000E+00 -0.00000000000E+00 -0.65378381727E+01  0.65378386897E+01  0.26000000000E-02 0.  1.
        -13    1    1    2    0    0 -0.88271065372E+01 -0.47722534167E+01  0.43538337457E+01  0.10938887204E+02  0.10570000000E+00 0. -1.
         13    1    1    2    0    0  0.88271065372E+01  0.47722534167E+01  0.45122929138E+01  0.11002916537E+02  0.10570000000E+00 0.  1.
<mgrwt>
<rscale>  0 0.20070739E+02</rscale>
<asrwt>0</asrwt>
<pdfrwt beam="2">  1        2 0.10058213E-02 0.20070739E+02</pdfrwt>
<pdfrwt beam="1">  1       -2 0.23698408E-02 0.20070739E+02</pdfrwt>
<totfact> 0.37929660E+06</totfact>
</mgrwt>
</event>
<event>
 4    1  0.1607476E-006  0.2003034E+02  0.7818608E-02  0.1744725E+00
         -2   -1    0    0    0  501 -0.00000000000E+00  0.00000000000E+00  0.15518718121E+02  0.15518718338E+02  0.26000000000E-02 0.  1.
          2   -1    0    0  501    0  0.00000000000E+00 -0.00000000000E+00 -0.64633956416E+01  0.64633961646E+01  0.26000000000E-02 0. -1.
        -13    1    1    2    0    0  0.98698307948E+01  0.16459619819E+01  0.40755742376E+01  0.10804824322E+02  0.10570000000E+00 0.  1.
         13    1    1    2    0    0 -0.98698307948E+01 -0.16459619819E+01  0.49797482414E+01  0.11177290182E+02  0.10570000000E+00 0. -1.
<mgrwt>
<rscale>  0 0.20030339E+02</rscale>
<asrwt>0</asrwt>
<pdfrwt beam="2">  1        2 0.99436863E-03 0.20030339E+02</pdfrwt>
<pdfrwt beam="1">  1       -2 0.23874951E-02 0.20030339E+02</pdfrwt>
<totfact> 0.38073498E+06</totfact>
</mgrwt>
</event>
<event>
 5    1  0.1607476E-006  0.2000218E+02  0.7818608E-02  0.1745285E+00
          2   -1    0    0  501    0  0.00000000000E+00  0.00000000000E+00  0.16236886933E+02  0.16236887141E+02  0.26000000000E-02 0. -1.
         -2   -1    0    0    0  501 -0.00000000000E+00 -0.00000000000E+00 -0.61601582856E+01  0.61601588343E+01  0.26000000000E-02 0.  1.
       1023    2    1    2    0    0  0.00000000000E+00  0.00000000000E+00  0.10076728647E+02  0.22397045975E+02  0.20002180086E+02 0.  0.
        -13    1    3    3    0    0  0.68847329862E+01 -0.72533131026E+01  0.50125788678E+01  0.11186921768E+02  0.10570000000E+00 0. -1.
         13    1    3    3    0    0 -0.68847329862E+01  0.72533131026E+01  0.50641497793E+01  0.11210124207E+02  0.10570000000E+00 0.  1.
<mgrwt>
<rscale>  0 0.20002180E+02</rscale>
<asrwt>0</asrwt>
<pdfrwt beam="1">  1        2 0.24979827E-02 0.20002180E+02</pdfrwt>
<pdfrwt beam="2">  1       -2 0.94771671E-03 0.20002180E+02</pdfrwt>
<totfact> 0.40938695E+06</totfact>
</mgrwt>
</event>
<event>
 5    1  0.1607476E-006  0.2000307E+02  0.7818608E-02  0.1745267E+00
         -2   -1    0    0    0  501 -0.00000000000E+00  0.00000000000E+00  0.34262093232E+01  0.34262103097E+01  0.26000000000E-02 0.  1.
          2   -1    0    0  501    0  0.00000000000E+00 -0.00000000000E+00 -0.29195735511E+02  0.29195735627E+02  0.26000000000E-02 0. -1.
       1023    2    1    2    0    0  0.00000000000E+00  0.00000000000E+00 -0.25769526188E+02  0.32621945937E+02  0.20003071683E+02 0.  0.
        -13    1    3    3    0    0 -0.27494423719E+01 -0.96146610479E+01 -0.12663506555E+02  0.16136192586E+02  0.10570000000E+00 0. -1.
         13    1    3    3    0    0  0.27494423719E+01  0.96146610479E+01 -0.13106019633E+02  0.16485753350E+02  0.10570000000E+00 0.  1.
<mgrwt>
<rscale>  0 0.20003072E+02</rscale>
<asrwt>0</asrwt>
<pdfrwt beam="2">  1        2 0.44916515E-02 0.20003072E+02</pdfrwt>
<pdfrwt beam="1">  1       -2 0.52710923E-03 0.20003072E+02</pdfrwt>
<totfact> 0.43230194E+06</totfact>
</mgrwt>
</event>
<event>
 5    1  0.1607476E-006  0.2000209E+02  0.7818608E-02  0.1745287E+00
          2   -1    0    0  501    0  0.00000000000E+00  0.00000000000E+00  0.10098442666E+02  0.10098443000E+02  0.26000000000E-02 0.  1.
         -2   -1    0    0    0  501 -0.00000000000E+00 -0.00000000000E+00 -0.99045828980E+01  0.99045832393E+01  0.26000000000E-02 0. -1.
       1023    2    1    2    0    0  0.00000000000E+00  0.00000000000E+00  0.19385976757E+00  0.20003026240E+02  0.20002086819E+02 0.  0.
        -13    1    3    3    0    0  0.56370762101E+01  0.82598181360E+01  0.18898285690E+00  0.10002405253E+02  0.10570000000E+00 0.  1.
         13    1    3    3    0    0 -0.56370762101E+01 -0.82598181360E+01  0.48769106702E-02  0.10000620986E+02  0.10570000000E+00 0. -1.
<mgrwt>
<rscale>  0 0.20002087E+02</rscale>
<asrwt>0</asrwt>
<pdfrwt beam="1">  1        2 0.15536066E-02 0.20002087E+02</pdfrwt>
<pdfrwt beam="2">  1       -2 0.15237820E-02 0.20002087E+02</pdfrwt>
<totfact> 0.39482104E+06</totfact>
</mgrwt>
</event>
<event>
 5    1  0.1607476E-006  0.2000260E+02  0.7818608E-02  0.1745276E+00
          2   -1    0    0  501    0  0.00000000000E+00  0.00000000000E+00  0.69938306431E+01  0.69938311264E+01  0.26000000000E-02 0.  1.
         -2   -1    0    0    0  501 -0.00000000000E+00 -0.00000000000E+00 -0.14302031197E+02  0.14302031434E+02  0.26000000000E-02 0. -1.
       1023    2    1    2    0    0  0.00000000000E+00  0.00000000000E+00 -0.73082005544E+01  0.21295862560E+02  0.20002599002E+02 0.  0.
        -13    1    3    3    0    0  0.57541767432E+01  0.81795025508E+01 -0.36512338598E+01  0.10646947598E+02  0.10570000000E+00 0. -1.
         13    1    3    3    0    0 -0.57541767432E+01 -0.81795025508E+01 -0.36569666946E+01  0.10648914962E+02  0.10570000000E+00 0.  1.
<mgrwt>
<rscale>  0 0.20002599E+02</rscale>
<asrwt>0</asrwt>
<pdfrwt beam="1">  1        2 0.10759740E-02 0.20002599E+02</pdfrwt>
<pdfrwt beam="2">  1       -2 0.22003125E-02 0.20002599E+02</pdfrwt>
<totfact> 0.38425127E+06</totfact>
</mgrwt>
</event>
<event>
 4    1  0.1607476E-006  0.2001247E+02  0.7818608E-02  0.1745080E+00
         -2   -1    0    0    0  501 -0.00000000000E+00  0.00000000000E+00  0.13232997862E+02  0.13232998118E+02  0.26000000000E-02 0.  1.
          2   -1    0    0  501    0  0.00000000000E+00 -0.00000000000E+00 -0.75662893569E+01  0.75662898036E+01  0.26000000000E-02 0. -1.
        -13    1    1    2    0    0  0.89109939490E+01 -0.45454351445E+01  0.30580291281E+01  0.10460856009E+02  0.10570000000E+00 0. -1.
         13    1    1    2    0    0 -0.89109939490E+01  0.45454351445E+01  0.26086793772E+01  0.10338431912E+02  0.10570000000E+00 0.  1.
<mgrwt>
<rscale>  0 0.20012466E+02</rscale>
<asrwt>0</asrwt>
<pdfrwt beam="2">  1        2 0.11640446E-02 0.20012466E+02</pdfrwt>
<pdfrwt beam="1">  1       -2 0.20358459E-02 0.20012466E+02</pdfrwt>
<totfact> 0.38607925E+06</totfact>
</mgrwt>
</event>
<event>
 5    1  0.1607476E-006  0.2000323E+02  0.7818608E-02  0.1745264E+00
          2   -1    0    0  501    0  0.00000000000E+00  0.00000000000E+00  0.11347388330E+02  0.11347388628E+02  0.26000000000E-02 0.  1.
         -2   -1    0    0    0  501 -0.00000000000E+00 -0.00000000000E+00 -0.88154477733E+01  0.88154481567E+01  0.26000000000E-02 0. -1.
       1023    2    1    2    0    0  0.00000000000E+00  0.00000000000E+00  0.25319405565E+01  0.20162836784E+02  0.20003231344E+02 0.  0.
        -13    1    3    3    0    0 -0.10000071628E+02  0.62539975614E-01  0.13926702800E+01  0.10097328697E+02  0.10570000000E+00 0. -1.
         13    1    3    3    0    0  0.10000071628E+02 -0.62539975614E-01  0.11392702765E+01  0.10065508088E+02  0.10570000000E+00 0.  1.
<mgrwt>
<rscale>  0 0.20003231E+02</rscale>
<asrwt>0</asrwt>
<pdfrwt beam="1">  1        2 0.17457521E-02 0.20003231E+02</pdfrwt>
<pdfrwt beam="2">  1       -2 0.13562228E-02 0.20003231E+02</pdfrwt>
<totfact> 0.39817767E+06</totfact>
</mgrwt>
</event>
<event>
 5    1  0.1607476E-006  0.2000363E+02  0.7818608E-02  0.1745256E+00
         -2   -1    0    0    0  501 -0.00000000000E+00  0.00000000000E+00  0.38380562700E+01  0.38380571506E+01  0.26000000000E-02 0. -1.
          2   -1    0    0  501    0  0.00000000000E+00 -0.00000000000E+00 -0.26064299472E+02  0.26064299602E+02  0.26000000000E-02 0.  1.
       1023    2    1    2    0    0  0.00000000000E+00  0.00000000000E+00 -0.22226243202E+02  0.29902356752E+02  0.20003625983E+02 0.  0.
        -13    1    3    3    0    0  0.98270008870E+01  0.18549984498E+01 -0.11290781773E+02  0.15083232121E+02  0.10570000000E+00 0. -1.
         13    1    3    3    0    0 -0.98270008870E+01 -0.18549984498E+01 -0.10935461429E+02  0.14819124631E+02  0.10570000000E+00 0.  1.
<mgrwt>
<rscale>  0 0.20003626E+02</rscale>
<asrwt>0</asrwt>
<pdfrwt beam="2">  1        2 0.40098922E-02 0.20003626E+02</pdfrwt>
<pdfrwt beam="1">  1       -2 0.59047029E-03 0.20003626E+02</pdfrwt>
<totfact> 0.42717408E+06</totfact>
</mgrwt>
</event>
<event>
 5    1  0.1607476E-006  0.2000159E+02  0.7818608E-02  0.1745296E+00
          2   -1    0    0  501    0  0.00000000000E+00  0.00000000000E+00  0.64349012199E+01  0.64349017451E+01  0.26000000000E-02 0. -1.
         -2   -1    0    0    0  501 -0.00000000000E+00 -0.00000000000E+00 -0.15542723794E+02  0.15542724012E+02  0.26000000000E-02 0.  1.
       1023    2    1    2    0    0  0.00000000000E+00  0.00000000000E+00 -0.91078225744E+01  0.21977625757E+02  0.20001589983E+02 0.  0.
        -13    1    3    3    0    0  0.29501315928E+01  0.95550693790E+01 -0.46042730286E+01  0.11009683459E+02  0.10570000000E+00 0.  1.
         13    1    3    3    0    0 -0.29501315928E+01 -0.95550693790E+01 -0.45035495458E+01  0.10967942298E+02  0.10570000000E+00 0. -1.
<mgrwt>
<rscale>  0 0.20001590E+02</rscale>
<asrwt>0</asrwt>
<pdfrwt beam="1">  1        2 0.98998486E-03 0.20001590E+02</pdfrwt>
<pdfrwt beam="2">  1       -2 0.23911883E-02 0.20001590E+02</pdfrwt>
<totfact> 0.38187317E+06</totfact>
</mgrwt>
</event>
<event>
 5    1  0.1607476E-006  0.2000549E+02  0.7818608E-02  0.1745219E+00
         -2   -1    0    0    0  501 -0.00000000000E+00  0.00000000000E+00  0.81270880519E+02  0.81270880561E+02  0.26000000000E-02 0.  1.
          2   -1    0    0  501    0  0.00000000000E+00 -0.00000000000E+00 -0.12311275510E+01  0.12311302964E+01  0.26000000000E-02 0. -1.
       1023    2    1    2    0    0  0.00000000000E+00  0.00000000000E+00  0.80039752968E+02  0.82502010857E+02  0.20005492752E+02 0.  0.
        -13    1    3    3    0    0 -0.94902143740E+01  0.31572348155E+01  0.40461392126E+02  0.41679344114E+02  0.10570000000E+00 0.  1.
         13    1    3    3    0    0  0.94902143740E+01 -0.31572348155E+01  0.39578360842E+02  0.40822666743E+02  0.10570000000E+00 0. -1.
<mgrwt>
<rscale>  0 0.20005493E+02</rscale>
<asrwt>0</asrwt>
<pdfrwt beam="2">  1        2 0.18940440E-03 0.20005493E+02</pdfrwt>
<pdfrwt beam="1">  1       -2 0.12503216E-01 0.20005493E+02</pdfrwt>
<totfact> 0.31137547E+06</totfact>
</mgrwt>
</event>
<event>
 4    1  0.1607476E-006  0.2004273E+02  0.7818608E-02  0.1744480E+00
         -2   -1    0    0    0  501 -0.00000000000E+00  0.00000000000E+00  0.35722310018E+02  0.35722310112E+02  0.26000000000E-02 0.  1.
          2   -1    0    0  501    0  0.00000000000E+00 -0.00000000000E+00 -0.28113454878E+01  0.28113466901E+01  0.26000000000E-02 0. -1.
        -13    1    1    2    0    0  0.91742892634E+01 -0.40055352754E+01  0.15585612666E+02  0.18523887038E+02  0.10570000000E+00 0.  1.
         13    1    1    2    0    0 -0.91742892634E+01  0.40055352754E+01  0.17325351864E+02  0.20009769764E+02  0.10570000000E+00 0. -1.
<mgrwt>
<rscale>  0 0.20042732E+02</rscale>
<asrwt>0</asrwt>
<pdfrwt beam="2">  1        2 0.43251482E-03 0.20042732E+02</pdfrwt>
<pdfrwt beam="1">  1       -2 0.54957398E-02 0.20042732E+02</pdfrwt>
<totfact> 0.35226484E+06</totfact>
</mgrwt>
</event>
<event>
 5    1  0.1607476E-006  0.2000121E+02  0.7818608E-02  0.1745304E+00
         -2   -1    0    0    0  501 -0.00000000000E+00  0.00000000000E+00  0.48603408717E+01  0.48603415671E+01  0.26000000000E-02 0. -1.
          2   -1    0    0  501    0  0.00000000000E+00 -0.00000000000E+00 -0.20577170938E+02  0.20577171103E+02  0.26000000000E-02 0.  1.
       1023    2    1    2    0    0  0.00000000000E+00  0.00000000000E+00 -0.15716830067E+02  0.25437512670E+02  0.20001207551E+02 0.  0.
        -13    1    3    3    0    0  0.43623241312E+01 -0.89983904548E+01 -0.78572934717E+01  0.12718063366E+02  0.10570000000E+00 0. -1.
         13    1    3    3    0    0 -0.43623241312E+01  0.89983904548E+01 -0.78595365949E+01  0.12719449303E+02  0.10570000000E+00 0.  1.
<mgrwt>
<rscale>  0 0.20001208E+02</rscale>
<asrwt>0</asrwt>
<pdfrwt beam="2">  1        2 0.31657186E-02 0.20001208E+02</pdfrwt>
<pdfrwt beam="1">  1       -2 0.74774482E-03 0.20001208E+02</pdfrwt>
<totfact> 0.41777991E+06</totfact>
</mgrwt>
</event>
<event>
 4    1  0.1607476E-006  0.2005442E+02  0.7818608E-02  0.1744248E+00
          2   -1    0    0  501    0  0.00000000000E+00  0.00000000000E+00  0.23791711503E+02  0.23791711645E+02  0.26000000000E-02 0. -1.
         -2   -1    0    0    0  501 -0.00000000000E+00 -0.00000000000E+00 -0.42260464930E+01  0.42260472928E+01  0.26000000000E-02 0.  1.
        -13    1    1    2    0    0  0.71564646706E+01  0.70221897765E+01  0.96611669667E+01  0.13923916672E+02  0.10570000000E+00 0. -1.
         13    1    1    2    0    0 -0.71564646706E+01 -0.70221897765E+01  0.99044980437E+01  0.14093842266E+02  0.10570000000E+00 0.  1.
<mgrwt>
<rscale>  0 0.20054415E+02</rscale>
<asrwt>0</asrwt>
<pdfrwt beam="1">  1        2 0.36602634E-02 0.20054415E+02</pdfrwt>
<pdfrwt beam="2">  1       -2 0.65016107E-03 0.20054415E+02</pdfrwt>
<totfact> 0.42093102E+06</totfact>
</mgrwt>
</event>
<event>
 5    1  0.1607476E-006  0.2000273E+02  0.7818608E-02  0.1745274E+00
          2   -1    0    0  501    0  0.00000000000E+00  0.00000000000E+00  0.44761551044E+02  0.44761551120E+02  0.26000000000E-02 0. -1.
         -2   -1    0    0    0  501 -0.00000000000E+00 -0.00000000000E+00 -0.22346697296E+01  0.22346712421E+01  0.26000000000E-02 0.  1.
       1023    2    1    2    0    0  0.00000000000E+00  0.00000000000E+00  0.42526881314E+02  0.46996222362E+02  0.20002731862E+02 0.  0.
        -13    1    3    3    0    0 -0.71677391511E+01 -0.69742094177E+01  0.21244287850E+02  0.23480779805E+02  0.10570000000E+00 0.  1.
         13    1    3    3    0    0  0.71677391511E+01  0.69742094177E+01  0.21282593465E+02  0.23515442556E+02  0.10570000000E+00 0. -1.
<mgrwt>
<rscale>  0 0.20002732E+02</rscale>
<asrwt>0</asrwt>
<pdfrwt beam="1">  1        2 0.68863925E-02 0.20002732E+02</pdfrwt>
<pdfrwt beam="2">  1       -2 0.34379547E-03 0.20002732E+02</pdfrwt>
<totfact> 0.45573295E+06</totfact>
</mgrwt>
</event>
<event>
 5    1  0.1607476E-006  0.2000562E+02  0.7818608E-02  0.1745216E+00
          2   -1    0    0  501    0  0.00000000000E+00  0.00000000000E+00  0.28752524325E+01  0.28752536081E+01  0.26000000000E-02 0. -1.
         -2   -1    0    0    0  501 -0.00000000000E+00 -0.00000000000E+00 -0.34799102297E+02  0.34799102394E+02  0.26000000000E-02 0.  1.
       1023    2    1    2    0    0  0.00000000000E+00  0.00000000000E+00 -0.31923849864E+02  0.37674356002E+02  0.20005621960E+02 0.  0.
        -13    1    3    3    0    0  0.51332115972E+01  0.85842301651E+01 -0.16110042028E+02  0.18962686926E+02  0.10570000000E+00 0. -1.
         13    1    3    3    0    0 -0.51332115972E+01 -0.85842301651E+01 -0.15813807837E+02  0.18711669076E+02  0.10570000000E+00 0.  1.
<mgrwt>
<rscale>  0 0.20005622E+02</rscale>
<asrwt>0</asrwt>
<pdfrwt beam="1">  1        2 0.44234665E-03 0.20005622E+02</pdfrwt>
<pdfrwt beam="2">  1       -2 0.53537078E-02 0.20005622E+02</pdfrwt>
<totfact> 0.35474093E+06</totfact>
</mgrwt>
</event>
<event>
 5    1  0.1607476E-006  0.2000148E+02  0.7818608E-02  0.1745299E+00
          2   -1    0    0  501    0  0.00000000000E+00  0.00000000000E+00  0.11098563414E+02  0.11098563718E+02  0.26000000000E-02 0. -1.
         -2   -1    0    0    0  501 -0.00000000000E+00 -0.00000000000E+00 -0.90115036165E+01  0.90115039915E+01  0.26000000000E-02 0.  1.
       1023    2    1    2    0    0  0.00000000000E+00  0.00000000000E+00  0.20870597974E+01  0.20110067710E+02  0.20001475063E+02 0.  0.
        -13    1    3    3    0    0 -0.75793118844E+01  0.65236187062E+01  0.10405104147E+01  0.10054720487E+02  0.10570000000E+00 0.  1.
         13    1    3    3    0    0  0.75793118844E+01 -0.65236187062E+01  0.10465493827E+01  0.10055347223E+02  0.10570000000E+00 0. -1.
<mgrwt>
<rscale>  0 0.20001475E+02</rscale>
<asrwt>0</asrwt>
<pdfrwt beam="1">  1        2 0.17074713E-02 0.20001475E+02</pdfrwt>
<pdfrwt beam="2">  1       -2 0.13863852E-02 0.20001475E+02</pdfrwt>
<totfact> 0.39760377E+06</totfact>
</mgrwt>
</event>
<event>
 5    1  0.1607476E-006  0.2000197E+02  0.7818608E-02  0.1745289E+00
          2   -1    0    0  501    0  0.00000000000E+00  0.00000000000E+00  0.51657385607E+02  0.51657385673E+02  0.26000000000E-02 0.  1.
         -2   -1    0    0    0  501 -0.00000000000E+00 -0.00000000000E+00 -0.19362129668E+01  0.19362147124E+01  0.26000000000E-02 0. -1.
       1023    2    1    2    0    0  0.00000000000E+00  0.00000000000E+00  0.49721172641E+02  0.53593600385E+02  0.20001974740E+02 0.  0.
        -13    1    3    3    0    0  0.81708089042E+01  0.57655929526E+01  0.25038230533E+02  0.26961608649E+02  0.10570000000E+00 0. -1.
         13    1    3    3    0    0 -0.81708089042E+01 -0.57655929526E+01  0.24682942108E+02  0.26631991736E+02  0.10570000000E+00 0.  1.
<mgrwt>
<rscale>  0 0.20001975E+02</rscale>
<asrwt>0</asrwt>
<pdfrwt beam="1">  1        2 0.79472900E-02 0.20001975E+02</pdfrwt>
<pdfrwt beam="2">  1       -2 0.29787907E-03 0.20001975E+02</pdfrwt>
<totfact> 0.46548650E+06</totfact>
</mgrwt>
</event>
<event>
 4    1  0.1607476E-006  0.2008787E+02  0.7818608E-02  0.1743586E+00
         -2   -1    0    0    0  501 -0.00000000000E+00  0.00000000000E+00  0.29611124549E+02  0.29611124664E+02  0.26000000000E-02 0. -1.
          2   -1    0    0  501    0  0.00000000000E+00 -0.00000000000E+00 -0.34068486565E+01  0.34068496486E+01  0.26000000000E-02 0.  1.
        -13    1    1    2    0    0 -0.90792983506E+01  0.42880302806E+01  0.13464506077E+02  0.16796575800E+02  0.10570000000E+00 0. -1.
         13    1    1    2    0    0  0.90792983506E+01 -0.42880302806E+01  0.12739769816E+02  0.16221398512E+02  0.10570000000E+00 0.  1.
<mgrwt>
<rscale>  0 0.20087871E+02</rscale>
<asrwt>0</asrwt>
<pdfrwt beam="2">  1        2 0.52413065E-03 0.20087871E+02</pdfrwt>
<pdfrwt beam="1">  1       -2 0.45555577E-02 0.20087871E+02</pdfrwt>
<totfact> 0.35768839E+06</totfact>
</mgrwt>
</event>
<event>
 5    1  0.1607476E-006  0.2000122E+02  0.7818608E-02  0.1745304E+00
         -2   -1    0    0    0  501 -0.00000000000E+00  0.00000000000E+00  0.86265031429E+01  0.86265035347E+01  0.26000000000E-02 0.  1.
          2   -1    0    0  501    0  0.00000000000E+00 -0.00000000000E+00 -0.11593596444E+02  0.11593596736E+02  0.26000000000E-02 0. -1.
       1023    2    1    2    0    0  0.00000000000E+00  0.00000000000E+00 -0.29670933012E+01  0.20220100270E+02  0.20001220270E+02 0.  0.
        -13    1    3    3    0    0 -0.19155639549E+01  0.98148512059E+01 -0.14648750463E+01  0.10107310268E+02  0.10570000000E+00 0.  1.
         13    1    3    3    0    0  0.19155639549E+01 -0.98148512059E+01 -0.15022182549E+01  0.10112790003E+02  0.10570000000E+00 0. -1.
<mgrwt>
<rscale>  0 0.20001220E+02</rscale>
<asrwt>0</asrwt>
<pdfrwt beam="2">  1        2 0.17836303E-02 0.20001220E+02</pdfrwt>
<pdfrwt beam="1">  1       -2 0.13271544E-02 0.20001220E+02</pdfrwt>
<totfact> 0.39890459E+06</totfact>
</mgrwt>
</event>
<event>
 5    1  0.1607476E-006  0.2000402E+02  0.7818608E-02  0.1745248E+00
         -2   -1    0    0    0  501 -0.00000000000E+00  0.00000000000E+00  0.29707499359E+02  0.29707499473E+02  0.26000000000E-02 0.  1.
          2   -1    0    0  501    0  0.00000000000E+00 -0.00000000000E+00 -0.33675071991E+01  0.33675082028E+01  0.26000000000E-02 0. -1.
       1023    2    1    2    0    0  0.00000000000E+00  0.00000000000E+00  0.26339992160E+02  0.33075007676E+02  0.20004023239E+02 0.  0.
        -13    1    3    3    0    0 -0.43846191695E+01 -0.89879710207E+01  0.13407050401E+02  0.16726287133E+02  0.10570000000E+00 0. -1.
         13    1    3    3    0    0  0.43846191695E+01  0.89879710207E+01  0.12932941759E+02  0.16348720542E+02  0.10570000000E+00 0.  1.
<mgrwt>
<rscale>  0 0.20004023E+02</rscale>
<asrwt>0</asrwt>
<pdfrwt beam="2">  1        2 0.51807812E-03 0.20004023E+02</pdfrwt>
<pdfrwt beam="1">  1       -2 0.45703845E-02 0.20004023E+02</pdfrwt>
<totfact> 0.36084592E+06</totfact>
</mgrwt>
</event>
<event>
 5    1  0.1607476E-006  0.2000170E+02  0.7818608E-02  0.1745294E+00
          2   -1    0    0  501    0  0.00000000000E+00  0.00000000000E+00  0.17877172587E+02  0.17877172776E+02  0.26000000000E-02 0.  1.
         -2   -1    0    0    0  501 -0.00000000000E+00 -0.00000000000E+00 -0.55946736723E+01  0.55946742765E+01  0.26000000000E-02 0. -1.
       1023    2    1    2    0    0  0.00000000000E+00  0.00000000000E+00  0.12282498914E+02  0.23471847052E+02  0.20001695540E+02 0.  0.
        -13    1    3    3    0    0  0.87707455032E+01 -0.48040581081E+01  0.61751111625E+01  0.11753642897E+02  0.10570000000E+00 0. -1.
         13    1    3    3    0    0 -0.87707455032E+01  0.48040581081E+01  0.61073877519E+01  0.11718204155E+02  0.10570000000E+00 0.  1.
<mgrwt>
<rscale>  0 0.20001696E+02</rscale>
<asrwt>0</asrwt>
<pdfrwt beam="1">  1        2 0.27503344E-02 0.20001696E+02</pdfrwt>
<pdfrwt beam="2">  1       -2 0.86071907E-03 0.20001696E+02</pdfrwt>
<totfact> 0.41268300E+06</totfact>
</mgrwt>
</event>
<event>
 5    1  0.1607476E-006  0.2000486E+02  0.7818608E-02  0.1745231E+00
         -2   -1    0    0    0  501 -0.00000000000E+00  0.00000000000E+00  0.15561406174E+02  0.15561406391E+02  0.26000000000E-02 0. -1.
          2   -1    0    0  501    0  0.00000000000E+00 -0.00000000000E+00 -0.64292765308E+01  0.64292770565E+01  0.26000000000E-02 0.  1.
       1023    2    1    2    0    0  0.00000000000E+00  0.00000000000E+00  0.91321296431E+01  0.21990683448E+02  0.20004858577E+02 0.  0.
        -13    1    3    3    0    0  0.35743989101E+01  0.93412973196E+01  0.45271067384E+01  0.10979163497E+02  0.10570000000E+00 0. -1.
         13    1    3    3    0    0 -0.35743989101E+01 -0.93412973196E+01  0.46050229047E+01  0.11011519951E+02  0.10570000000E+00 0.  1.
<mgrwt>
<rscale>  0 0.20004859E+02</rscale>
<asrwt>0</asrwt>
<pdfrwt beam="2">  1        2 0.98911954E-03 0.20004859E+02</pdfrwt>
<pdfrwt beam="1">  1       -2 0.23940625E-02 0.20004859E+02</pdfrwt>
<totfact> 0.38170321E+06</totfact>
</mgrwt>
</event>
<event>
 5    1  0.1607476E-006  0.2000429E+02  0.7818608E-02  0.1745243E+00
         -2   -1    0    0    0  501 -0.00000000000E+00  0.00000000000E+00  0.20125247120E+02  0.20125247287E+02  0.26000000000E-02 0.  1.
          2   -1    0    0  501    0  0.00000000000E+00 -0.00000000000E+00 -0.49710121110E+01  0.49710127910E+01  0.26000000000E-02 0. -1.
       1023    2    1    2    0    0  0.00000000000E+00  0.00000000000E+00  0.15154235008E+02  0.25096260078E+02  0.20004285322E+02 0.  0.
        -13    1    3    3    0    0  0.98976642461E+01 -0.14356121024E+01  0.76816721668E+01  0.12611264782E+02  0.10570000000E+00 0. -1.
         13    1    3    3    0    0 -0.98976642461E+01  0.14356121024E+01  0.74725628417E+01  0.12484995296E+02  0.10570000000E+00 0.  1.
<mgrwt>
<rscale>  0 0.20004285E+02</rscale>
<asrwt>0</asrwt>
<pdfrwt beam="2">  1        2 0.76477115E-03 0.20004285E+02</pdfrwt>
<pdfrwt beam="1">  1       -2 0.30961920E-02 0.20004285E+02</pdfrwt>
<totfact> 0.37397005E+06</totfact>
</mgrwt>
</event>
<event>
 5    1  0.1607476E-006  0.2000409E+02  0.7818608E-02  0.1745247E+00
         -2   -1    0    0    0  501 -0.00000000000E+00  0.00000000000E+00  0.30687520924E+01  0.30687531938E+01  0.26000000000E-02 0. -1.
          2   -1    0    0  501    0  0.00000000000E+00 -0.00000000000E+00 -0.32599870037E+02  0.32599870140E+02  0.26000000000E-02 0.  1.
       1023    2    1    2    0    0  0.00000000000E+00  0.00000000000E+00 -0.29531117944E+02  0.35668623334E+02  0.20004093669E+02 0.  0.
        -13    1    3    3    0    0  0.87859135330E+01  0.47763407628E+01 -0.14488978466E+02  0.17605322411E+02  0.10570000000E+00 0.  1.
         13    1    3    3    0    0 -0.87859135330E+01 -0.47763407628E+01 -0.15042139478E+02  0.18063300924E+02  0.10570000000E+00 0. -1.
<mgrwt>
<rscale>  0 0.20004094E+02</rscale>
<asrwt>0</asrwt>
<pdfrwt beam="2">  1        2 0.50153645E-02 0.20004094E+02</pdfrwt>
<pdfrwt beam="1">  1       -2 0.47211582E-03 0.20004094E+02</pdfrwt>
<totfact> 0.43760711E+06</totfact>
</mgrwt>
</event>
<event>
 5    1  0.1607476E-006  0.2000342E+02  0.7818608E-02  0.1745260E+00
         -2   -1    0    0    0  501 -0.00000000000E+00  0.00000000000E+00  0.13596641267E+02  0.13596641516E+02  0.26000000000E-02 0.  1.
          2   -1    0    0  501    0  0.00000000000E+00 -0.00000000000E+00 -0.73572710347E+01  0.73572714941E+01  0.26000000000E-02 0. -1.
       1023    2    1    2    0    0  0.00000000000E+00  0.00000000000E+00  0.62393702325E+01  0.20953913010E+02  0.20003417946E+02 0.  0.
        -13    1    3    3    0    0 -0.19190698240E+01  0.98149705586E+01  0.30350120928E+01  0.10451743728E+02  0.10570000000E+00 0. -1.
         13    1    3    3    0    0  0.19190698240E+01 -0.98149705586E+01  0.32043581397E+01  0.10502169282E+02  0.10570000000E+00 0.  1.
<mgrwt>
<rscale>  0 0.20003418E+02</rscale>
<asrwt>0</asrwt>
<pdfrwt beam="2">  1        2 0.11318879E-02 0.20003418E+02</pdfrwt>
<pdfrwt beam="1">  1       -2 0.20917910E-02 0.20003418E+02</pdfrwt>
<totfact> 0.38567618E+06</totfact>
</mgrwt>
</event>
<event>
 4    1  0.1607476E-006  0.2001360E+02  0.7818608E-02  0.1745058E+00
          2   -1    0    0  501    0  0.00000000000E+00  0.00000000000E+00  0.98088536986E+01  0.98088540432E+01  0.26000000000E-02 0.  1.
         -2   -1    0    0    0  501 -0.00000000000E+00 -0.00000000000E+00 -0.10208745105E+02  0.10208745436E+02  0.26000000000E-02 0. -1.
        -13    1    1    2    0    0 -0.89720609952E+00 -0.99616166152E+01 -0.49349547874E+00  0.10014663981E+02  0.10570000000E+00 0. -1.
         13    1    1    2    0    0  0.89720609952E+00  0.99616166152E+01  0.93604072340E-01  0.10002935498E+02  0.10570000000E+00 0.  1.
<mgrwt>
<rscale>  0 0.20013605E+02</rscale>
<asrwt>0</asrwt>
<pdfrwt beam="1">  1        2 0.15090545E-02 0.20013605E+02</pdfrwt>
<pdfrwt beam="2">  1       -2 0.15705762E-02 0.20013605E+02</pdfrwt>
<totfact> 0.39346224E+06</totfact>
</mgrwt>
</event>
<event>
 4    1  0.1607476E-006  0.2006168E+02  0.7818608E-02  0.1744104E+00
          2   -1    0    0  501    0  0.00000000000E+00  0.00000000000E+00  0.19547303326E+02  0.19547303499E+02  0.26000000000E-02 0.  1.
         -2   -1    0    0    0  501 -0.00000000000E+00 -0.00000000000E+00 -0.51473962692E+01  0.51473969258E+01  0.26000000000E-02 0. -1.
        -13    1    1    2    0    0 -0.11571103315E+01 -0.99527183654E+01  0.77654447757E+01  0.12677097942E+02  0.10570000000E+00 0.  1.
         13    1    1    2    0    0  0.11571103315E+01  0.99527183654E+01  0.66344622812E+01  0.12017602483E+02  0.10570000000E+00 0. -1.
<mgrwt>
<rscale>  0 0.20061678E+02</rscale>
<asrwt>0</asrwt>
<pdfrwt beam="1">  1        2 0.30072775E-02 0.20061678E+02</pdfrwt>
<pdfrwt beam="2">  1       -2 0.79190719E-03 0.20061678E+02</pdfrwt>
<totfact> 0.41306292E+06</totfact>
</mgrwt>
</event>
<event>
 5    1  0.1607476E-006  0.2000419E+02  0.7818608E-02  0.1745245E+00
         -2   -1    0    0    0  501 -0.00000000000E+00  0.00000000000E+00  0.40098841774E+02  0.40098841858E+02  0.26000000000E-02 0.  1.
          2   -1    0    0  501    0  0.00000000000E+00 -0.00000000000E+00 -0.24948808765E+01  0.24948822313E+01  0.26000000000E-02 0. -1.
       1023    2    1    2    0    0  0.00000000000E+00  0.00000000000E+00  0.37603960897E+02  0.42593724089E+02  0.20004185978E+02 0.  0.
        -13    1    3    3    0    0  0.51278800539E+00 -0.99878615529E+01  0.18585239535E+02  0.21105511863E+02  0.10570000000E+00 0.  1.
         13    1    3    3    0    0 -0.51278800539E+00  0.99878615529E+01  0.19018721363E+02  0.21488212227E+02  0.10570000000E+00 0. -1.
<mgrwt>
<rscale>  0 0.20004186E+02</rscale>
<asrwt>0</asrwt>
<pdfrwt beam="2">  1        2 0.38382795E-03 0.20004186E+02</pdfrwt>
<pdfrwt beam="1">  1       -2 0.61690524E-02 0.20004186E+02</pdfrwt>
<totfact> 0.34893957E+06</totfact>
</mgrwt>
</event>
<event>
 4    1  0.1607476E-006  0.2009519E+02  0.7818608E-02  0.1743442E+00
         -2   -1    0    0    0  501 -0.00000000000E+00  0.00000000000E+00  0.73881211504E+02  0.73881211550E+02  0.26000000000E-02 0.  1.
          2   -1    0    0  501    0  0.00000000000E+00 -0.00000000000E+00 -0.13664372953E+01  0.13664397689E+01  0.26000000000E-02 0. -1.
        -13    1    1    2    0    0 -0.79496196399E+01 -0.61429764374E+01  0.36638398526E+02  0.37990999342E+02  0.10570000000E+00 0. -1.
         13    1    1    2    0    0  0.79496196399E+01  0.61429764374E+01  0.35876375683E+02  0.37256651977E+02  0.10570000000E+00 0.  1.
<mgrwt>
<rscale>  0 0.20095187E+02</rscale>
<asrwt>0</asrwt>
<pdfrwt beam="2">  1        2 0.21022122E-03 0.20095187E+02</pdfrwt>
<pdfrwt beam="1">  1       -2 0.11366346E-01 0.20095187E+02</pdfrwt>
<totfact> 0.31429574E+06</totfact>
</mgrwt>
</event>
<event>
 5    1  0.1627487E-006  0.2000191E+02  0.7818608E-02  0.1745290E+00
          2   -1    0    0  501    0  0.00000000000E+00  0.00000000000E+00  0.10604737538E+03  0.10604737541E+03  0.26000000000E-02 0.  1.
         -2   -1    0    0    0  501 -0.00000000000E+00 -0.00000000000E+00 -0.94315316517E+00  0.94315674889E+00  0.26000000000E-02 0. -1.
       1023    2    1    2    0    0  0.00000000000E+00  0.00000000000E+00  0.10510422221E+03  0.10699053216E+03  0.20001911025E+02 0.  0.
        -13    1    3    3    0    0 -0.79936597373E+01  0.60090909585E+01  0.52621551718E+02  0.53563482410E+02  0.10570000000E+00 0.  1.
         13    1    3    3    0    0  0.79936597373E+01 -0.60090909585E+01  0.52482670495E+02  0.53427049750E+02  0.10570000000E+00 0. -1.
<mgrwt>
<rscale>  0 0.20001911E+02</rscale>
<asrwt>0</asrwt>
<pdfrwt beam="1">  1        2 0.16314964E-01 0.20001911E+02</pdfrwt>
<pdfrwt beam="2">  1       -2 0.14510092E-03 0.20001911E+02</pdfrwt>
<totfact> 0.53464971E+06</totfact>
</mgrwt>
</event>
<event>
 4    1  0.1607476E-006  0.2010253E+02  0.7818608E-02  0.1743297E+00
          2   -1    0    0  501    0  0.00000000000E+00  0.00000000000E+00  0.42681764202E+01  0.42681772122E+01  0.26000000000E-02 0. -1.
         -2   -1    0    0    0  501 -0.00000000000E+00 -0.00000000000E+00 -0.23670051718E+02  0.23670051861E+02  0.26000000000E-02 0.  1.
        -13    1    1    2    0    0 -0.85496994590E+01 -0.51932036754E+01 -0.83462901254E+01  0.13028371218E+02  0.10570000000E+00 0. -1.
         13    1    1    2    0    0  0.85496994590E+01  0.51932036754E+01 -0.11055585172E+02  0.14909857855E+02  0.10570000000E+00 0.  1.
<mgrwt>
<rscale>  0 0.20102534E+02</rscale>
<asrwt>0</asrwt>
<pdfrwt beam="1">  1        2 0.65664261E-03 0.20102534E+02</pdfrwt>
<pdfrwt beam="2">  1       -2 0.36415464E-02 0.20102534E+02</pdfrwt>
<totfact> 0.36484179E+06</totfact>
</mgrwt>
</event>
<event>
 4    1  0.1607476E-006  0.2004054E+02  0.7818608E-02  0.1744523E+00
          2   -1    0    0  501    0  0.00000000000E+00  0.00000000000E+00  0.61585473667E+02  0.61585473721E+02  0.26000000000E-02 0. -1.
         -2   -1    0    0    0  501 -0.00000000000E+00 -0.00000000000E+00 -0.16303474549E+01  0.16303495281E+01  0.26000000000E-02 0.  1.
        -13    1    1    2    0    0 -0.94973479031E+01  0.31431406542E+01  0.31749831160E+02  0.33288765395E+02  0.10570000000E+00 0. -1.
         13    1    1    2    0    0  0.94973479031E+01 -0.31431406542E+01  0.28205295052E+02  0.29927057854E+02  0.10570000000E+00 0.  1.
<mgrwt>
<rscale>  0 0.20040538E+02</rscale>
<asrwt>0</asrwt>
<pdfrwt beam="1">  1        2 0.94746896E-02 0.20040538E+02</pdfrwt>
<pdfrwt beam="2">  1       -2 0.25082282E-03 0.20040538E+02</pdfrwt>
<totfact> 0.47695343E+06</totfact>
</mgrwt>
</event>
<event>
 5    1  0.1607476E-006  0.2000202E+02  0.7818608E-02  0.1745288E+00
          2   -1    0    0  501    0  0.00000000000E+00  0.00000000000E+00  0.44132348579E+01  0.44132356237E+01  0.26000000000E-02 0.  1.
         -2   -1    0    0    0  501 -0.00000000000E+00 -0.00000000000E+00 -0.22663680173E+02  0.22663680322E+02  0.26000000000E-02 0. -1.
       1023    2    1    2    0    0  0.00000000000E+00  0.00000000000E+00 -0.18250445315E+02  0.27076915946E+02  0.20002015472E+02 0.  0.
        -13    1    3    3    0    0  0.97655585975E+01  0.21540324483E+01 -0.90511667641E+01  0.13488542649E+02  0.10570000000E+00 0. -1.
         13    1    3    3    0    0 -0.97655585975E+01 -0.21540324483E+01 -0.91992785512E+01  0.13588373297E+02  0.10570000000E+00 0.  1.
<mgrwt>
<rscale>  0 0.20002015E+02</rscale>
<asrwt>0</asrwt>
<pdfrwt beam="1">  1        2 0.67895929E-03 0.20002015E+02</pdfrwt>
<pdfrwt beam="2">  1       -2 0.34867200E-02 0.20002015E+02</pdfrwt>
<totfact> 0.37027058E+06</totfact>
</mgrwt>
</event>
<event>
 5    1  0.1607476E-006  0.2000218E+02  0.7818608E-02  0.1745285E+00
         -2   -1    0    0    0  501 -0.00000000000E+00  0.00000000000E+00  0.73923951989E+02  0.73923952035E+02  0.26000000000E-02 0. -1.
          2   -1    0    0  501    0  0.00000000000E+00 -0.00000000000E+00 -0.13530345305E+01  0.13530370286E+01  0.26000000000E-02 0.  1.
       1023    2    1    2    0    0  0.00000000000E+00  0.00000000000E+00  0.72570917458E+02  0.75276989063E+02  0.20002175423E+02 0.  0.
        -13    1    3    3    0    0 -0.99476932164E+01  0.10261304411E+01  0.36406762756E+02  0.37755437898E+02  0.10570000000E+00 0.  1.
         13    1    3    3    0    0  0.99476932164E+01 -0.10261304411E+01  0.36164154703E+02  0.37521551166E+02  0.10570000000E+00 0. -1.
<mgrwt>
<rscale>  0 0.20002175E+02</rscale>
<asrwt>0</asrwt>
<pdfrwt beam="2">  1        2 0.20815935E-03 0.20002175E+02</pdfrwt>
<pdfrwt beam="1">  1       -2 0.11372916E-01 0.20002175E+02</pdfrwt>
<totfact> 0.31746156E+06</totfact>
</mgrwt>
</event>
<event>
 4    1  0.1607476E-006  0.2004070E+02  0.7818608E-02  0.1744520E+00
          2   -1    0    0  501    0  0.00000000000E+00  0.00000000000E+00  0.16275938798E+02  0.16275939006E+02  0.26000000000E-02 0.  1.
         -2   -1    0    0    0  501 -0.00000000000E+00 -0.00000000000E+00 -0.61690681294E+01  0.61690686773E+01  0.26000000000E-02 0. -1.
        -13    1    1    2    0    0  0.70225976730E+01  0.71423987188E+01  0.53400118568E+01  0.11351547765E+02  0.10570000000E+00 0.  1.
         13    1    1    2    0    0 -0.70225976730E+01 -0.71423987188E+01  0.47668588120E+01  0.11093459918E+02  0.10570000000E+00 0. -1.
<mgrwt>
<rscale>  0 0.20040697E+02</rscale>
<asrwt>0</asrwt>
<pdfrwt beam="1">  1        2 0.25039906E-02 0.20040697E+02</pdfrwt>
<pdfrwt beam="2">  1       -2 0.94908748E-03 0.20040697E+02</pdfrwt>
<totfact> 0.40768913E+06</totfact>
</mgrwt>
</event>
<event>
 5    1  0.1607476E-006  0.2000457E+02  0.7818608E-02  0.1745237E+00
          2   -1    0    0  501    0  0.00000000000E+00  0.00000000000E+00  0.11012750629E+01  0.11012781321E+01  0.26000000000E-02 0.  1.
         -2   -1    0    0    0  501 -0.00000000000E+00 -0.00000000000E+00 -0.90845214689E+02  0.90845214726E+02  0.26000000000E-02 0. -1.
       1023    2    1    2    0    0  0.00000000000E+00  0.00000000000E+00 -0.89743939626E+02  0.91946492858E+02  0.20004570711E+02 0.  0.
        -13    1    3    3    0    0  0.68105183064E+00 -0.99785009208E+01 -0.44941313632E+02  0.46040929136E+02  0.10570000000E+00 0.  1.
         13    1    3    3    0    0 -0.68105183064E+00  0.99785009208E+01 -0.44802625994E+02  0.45905563722E+02  0.10570000000E+00 0. -1.
<mgrwt>
<rscale>  0 0.20004571E+02</rscale>
<asrwt>0</asrwt>
<pdfrwt beam="1">  1        2 0.16942724E-03 0.20004571E+02</pdfrwt>
<pdfrwt beam="2">  1       -2 0.13976181E-01 0.20004571E+02</pdfrwt>
<totfact> 0.30395774E+06</totfact>
</mgrwt>
</event>
<event>
 5    1  0.1607476E-006  0.2000362E+02  0.7818608E-02  0.1745256E+00
          2   -1    0    0  501    0  0.00000000000E+00  0.00000000000E+00  0.89782153295E+02  0.89782153333E+02  0.26000000000E-02 0. -1.
         -2   -1    0    0    0  501 -0.00000000000E+00 -0.00000000000E+00 -0.11142091241E+01  0.11142121576E+01  0.26000000000E-02 0.  1.
       1023    2    1    2    0    0  0.00000000000E+00  0.00000000000E+00  0.88667944171E+02  0.90896365490E+02  0.20003623068E+02 0.  0.
        -13    1    3    3    0    0 -0.33449308460E+01 -0.94244121828E+01  0.43742307700E+02  0.44871023643E+02  0.10570000000E+00 0. -1.
         13    1    3    3    0    0  0.33449308460E+01  0.94244121828E+01  0.44925636471E+02  0.46025341847E+02  0.10570000000E+00 0.  1.
<mgrwt>
<rscale>  0 0.20003623E+02</rscale>
<asrwt>0</asrwt>
<pdfrwt beam="1">  1        2 0.13812634E-01 0.20003623E+02</pdfrwt>
<pdfrwt beam="2">  1       -2 0.17141708E-03 0.20003623E+02</pdfrwt>
<totfact> 0.51497311E+06</totfact>
</mgrwt>
</event>
<event>
 4    1  0.1607476E-006  0.2011663E+02  0.7818608E-02  0.1743019E+00
          2   -1    0    0  501    0  0.00000000000E+00  0.00000000000E+00  0.29571633884E+02  0.29571633998E+02  0.26000000000E-02 0.  1.
         -2   -1    0    0    0  501 -0.00000000000E+00 -0.00000000000E+00 -0.34211744838E+01  0.34211754718E+01  0.26000000000E-02 0. -1.
        -13    1    1    2    0    0 -0.97721235061E+01  0.23747327781E+01  0.13333568485E+02  0.16701166864E+02  0.10570000000E+00 0. -1.
         13    1    1    2    0    0  0.97721235061E+01 -0.23747327781E+01  0.12816890915E+02  0.16291642606E+02  0.10570000000E+00 0.  1.
<mgrwt>
<rscale>  0 0.20116634E+02</rscale>
<asrwt>0</asrwt>
<pdfrwt beam="1">  1        2 0.45494822E-02 0.20116634E+02</pdfrwt>
<pdfrwt beam="2">  1       -2 0.52633462E-03 0.20116634E+02</pdfrwt>
<totfact> 0.42743976E+06</totfact>
</mgrwt>
</event>
<event>
 4    1  0.1607476E-006  0.2006884E+02  0.7818608E-02  0.1743963E+00
          2   -1    0    0  501    0  0.00000000000E+00  0.00000000000E+00  0.19491190714E+01  0.19491208055E+01  0.26000000000E-02 0.  1.
         -2   -1    0    0    0  501 -0.00000000000E+00 -0.00000000000E+00 -0.51659012280E+02  0.51659012345E+02  0.26000000000E-02 0. -1.
        -13    1    1    2    0    0  0.10019687819E+02 -0.51120223515E+00 -0.25259792370E+02  0.27179473041E+02  0.10570000000E+00 0. -1.
         13    1    1    2    0    0 -0.10019687819E+02  0.51120223515E+00 -0.24450100838E+02  0.26428660109E+02  0.10570000000E+00 0.  1.
<mgrwt>
<rscale>  0 0.20068843E+02</rscale>
<asrwt>0</asrwt>
<pdfrwt beam="1">  1        2 0.29986465E-03 0.20068843E+02</pdfrwt>
<pdfrwt beam="2">  1       -2 0.79475395E-02 0.20068843E+02</pdfrwt>
<totfact> 0.33485522E+06</totfact>
</mgrwt>
</event>
<event>
 5    1  0.1607476E-006  0.2000598E+02  0.7818608E-02  0.1745209E+00
          2   -1    0    0  501    0  0.00000000000E+00  0.00000000000E+00  0.17225619425E+01  0.17225639046E+01  0.26000000000E-02 0. -1.
         -2   -1    0    0    0  501 -0.00000000000E+00 -0.00000000000E+00 -0.58087723116E+02  0.58087723175E+02  0.26000000000E-02 0.  1.
       1023    2    1    2    0    0  0.00000000000E+00  0.00000000000E+00 -0.56365161174E+02  0.59810287079E+02  0.20005975266E+02 0.  0.
        -13    1    3    3    0    0  0.95268159737E+01  0.30467344144E+01 -0.28409789950E+02  0.30119265441E+02  0.10570000000E+00 0.  1.
         13    1    3    3    0    0 -0.95268159737E+01 -0.30467344144E+01 -0.27955371224E+02  0.29691021638E+02  0.10570000000E+00 0. -1.
<mgrwt>
<rscale>  0 0.20005975E+02</rscale>
<asrwt>0</asrwt>
<pdfrwt beam="1">  1        2 0.26500973E-03 0.20005975E+02</pdfrwt>
<pdfrwt beam="2">  1       -2 0.89365714E-02 0.20005975E+02</pdfrwt>
<totfact> 0.33112796E+06</totfact>
</mgrwt>
</event>
<event>
 4    1  0.1607476E-006  0.2001865E+02  0.7818608E-02  0.1744957E+00
          2   -1    0    0  501    0  0.00000000000E+00  0.00000000000E+00  0.10272957342E+03  0.10272957346E+03  0.26000000000E-02 0. -1.
         -2   -1    0    0    0  501 -0.00000000000E+00 -0.00000000000E+00 -0.97524410664E+00  0.97524757244E+00  0.26000000000E-02 0.  1.
        -13    1    1    2    0    0  0.85555148854E+01  0.51865158736E+01  0.52329880660E+02  0.53277803673E+02  0.10570000000E+00 0. -1.
         13    1    1    2    0    0 -0.85555148854E+01 -0.51865158736E+01  0.49424448658E+02  0.50427017357E+02  0.10570000000E+00 0.  1.
<mgrwt>
<rscale>  0 0.20018651E+02</rscale>
<asrwt>0</asrwt>
<pdfrwt beam="1">  1        2 0.15804554E-01 0.20018651E+02</pdfrwt>
<pdfrwt beam="2">  1       -2 0.15003779E-03 0.20018651E+02</pdfrwt>
<totfact> 0.52974642E+06</totfact>
</mgrwt>
</event>
<event>
 5    1  0.1607476E-006  0.2000311E+02  0.7818608E-02  0.1745266E+00
         -2   -1    0    0    0  501 -0.00000000000E+00  0.00000000000E+00  0.33862010015E+01  0.33862019997E+01  0.26000000000E-02 0.  1.
          2   -1    0    0  501    0  0.00000000000E+00 -0.00000000000E+00 -0.29540800804E+02  0.29540800918E+02  0.26000000000E-02 0. -1.
       1023    2    1    2    0    0  0.00000000000E+00  0.00000000000E+00 -0.26154599802E+02  0.32927002918E+02  0.20003110516E+02 0.  0.
        -13    1    3    3    0    0  0.70359415307E+01  0.71065900436E+01 -0.13256412968E+02  0.16605774675E+02  0.10570000000E+00 0. -1.
         13    1    3    3    0    0 -0.70359415307E+01 -0.71065900436E+01 -0.12898186834E+02  0.16321228243E+02  0.10570000000E+00 0.  1.
<mgrwt>
<rscale>  0 0.20003111E+02</rscale>
<asrwt>0</asrwt>
<pdfrwt beam="2">  1        2 0.45447385E-02 0.20003111E+02</pdfrwt>
<pdfrwt beam="1">  1       -2 0.52095410E-03 0.20003111E+02</pdfrwt>
<totfact> 0.43285099E+06</totfact>
</mgrwt>
</event>
<event>
 5    1  0.1607476E-006  0.2000566E+02  0.7818608E-02  0.1745216E+00
         -2   -1    0    0    0  501 -0.00000000000E+00  0.00000000000E+00  0.95911009085E+00  0.95911361494E+00  0.26000000000E-02 0.  1.
          2   -1    0    0  501    0  0.00000000000E+00 -0.00000000000E+00 -0.10432210713E+03  0.10432210716E+03  0.26000000000E-02 0. -1.
       1023    2    1    2    0    0  0.00000000000E+00  0.00000000000E+00 -0.10336299704E+03  0.10528122078E+03  0.20005656487E+02 0.  0.
        -13    1    3    3    0    0 -0.18555582049E+01 -0.98286448544E+01 -0.51716584140E+02  0.52675056749E+02  0.10570000000E+00 0.  1.
         13    1    3    3    0    0  0.18555582049E+01  0.98286448544E+01 -0.51646412900E+02  0.52606164029E+02  0.10570000000E+00 0. -1.
<mgrwt>
<rscale>  0 0.20005656E+02</rscale>
<asrwt>0</asrwt>
<pdfrwt beam="2">  1        2 0.16049546E-01 0.20005656E+02</pdfrwt>
<pdfrwt beam="1">  1       -2 0.14755576E-03 0.20005656E+02</pdfrwt>
<totfact> 0.53239370E+06</totfact>
</mgrwt>
</event>
<event>
 5    1  0.2345572E-006  0.2000636E+02  0.7818608E-02  0.1745202E+00
          2   -1    0    0  501    0  0.00000000000E+00  0.00000000000E+00  0.11628469459E+03  0.11628469462E+03  0.26000000000E-02 0.  1.
         -2   -1    0    0    0  501 -0.00000000000E+00 -0.00000000000E+00 -0.86050346673E+00  0.86050739465E+00  0.26000000000E-02 0. -1.
       1023    2    1    2    0    0  0.00000000000E+00  0.00000000000E+00  0.11542419112E+03  0.11714520201E+03  0.20006360448E+02 0.  0.
        -13    1    3    3    0    0  0.93630270147E+01 -0.35183710120E+01  0.57214123411E+02  0.58081944695E+02  0.10570000000E+00 0. -1.
         13    1    3    3    0    0 -0.93630270147E+01  0.35183710120E+01  0.58210067712E+02  0.59063257317E+02  0.10570000000E+00 0.  1.
<mgrwt>
<rscale>  0 0.20006360E+02</rscale>
<asrwt>0</asrwt>
<pdfrwt beam="1">  1        2 0.17889955E-01 0.20006360E+02</pdfrwt>
<pdfrwt beam="2">  1       -2 0.13238544E-03 0.20006360E+02</pdfrwt>
<totfact> 0.54628928E+06</totfact>
</mgrwt>
</event>
<event>
 5    1  0.1607476E-006  0.2000552E+02  0.7818608E-02  0.1745218E+00
         -2   -1    0    0    0  501 -0.00000000000E+00  0.00000000000E+00  0.28337811977E+01  0.28337823904E+01  0.26000000000E-02 0. -1.
          2   -1    0    0  501    0  0.00000000000E+00 -0.00000000000E+00 -0.35308022020E+02  0.35308022116E+02  0.26000000000E-02 0.  1.
       1023    2    1    2    0    0  0.00000000000E+00  0.00000000000E+00 -0.32474240822E+02  0.38141804506E+02  0.20005522588E+02 0.  0.
        -13    1    3    3    0    0  0.47701328885E+01  0.87907577381E+01 -0.16024202157E+02  0.18889621929E+02  0.10570000000E+00 0.  1.
         13    1    3    3    0    0 -0.47701328885E+01 -0.87907577381E+01 -0.16450038666E+02  0.19252182577E+02  0.10570000000E+00 0. -1.
<mgrwt>
<rscale>  0 0.20005523E+02</rscale>
<asrwt>0</asrwt>
<pdfrwt beam="2">  1        2 0.54320032E-02 0.20005523E+02</pdfrwt>
<pdfrwt beam="1">  1       -2 0.43596646E-03 0.20005523E+02</pdfrwt>
<totfact> 0.44168583E+06</totfact>
</mgrwt>
</event>
<event>
 5    1  0.1607476E-006  0.2000502E+02  0.7818608E-02  0.1745228E+00
         -2   -1    0    0    0  501 -0.00000000000E+00  0.00000000000E+00  0.93813440252E+02  0.93813440288E+02  0.26000000000E-02 0. -1.
          2   -1    0    0  501    0  0.00000000000E+00 -0.00000000000E+00 -0.10664787875E+01  0.10664819568E+01  0.26000000000E-02 0.  1.
       1023    2    1    2    0    0  0.00000000000E+00  0.00000000000E+00  0.92746961464E+02  0.94879922245E+02  0.20005018977E+02 0.  0.
        -13    1    3    3    0    0 -0.98463165375E+01 -0.17575762107E+01  0.46374883391E+02  0.47441332248E+02  0.10570000000E+00 0.  1.
         13    1    3    3    0    0  0.98463165375E+01  0.17575762107E+01  0.46372078074E+02  0.47438589996E+02  0.10570000000E+00 0. -1.
<mgrwt>
<rscale>  0 0.20005019E+02</rscale>
<asrwt>0</asrwt>
<pdfrwt beam="2">  1        2 0.16407393E-03 0.20005019E+02</pdfrwt>
<pdfrwt beam="1">  1       -2 0.14432835E-01 0.20005019E+02</pdfrwt>
<totfact> 0.30170513E+06</totfact>
</mgrwt>
</event>
<event>
 5    1  0.1607476E-006  0.2000126E+02  0.7818608E-02  0.1745303E+00
          2   -1    0    0  501    0  0.00000000000E+00  0.00000000000E+00  0.31837362546E+02  0.31837362652E+02  0.26000000000E-02 0.  1.
         -2   -1    0    0    0  501 -0.00000000000E+00 -0.00000000000E+00 -0.31413578562E+01  0.31413589322E+01  0.26000000000E-02 0. -1.
       1023    2    1    2    0    0  0.00000000000E+00  0.00000000000E+00  0.28696004690E+02  0.34978721584E+02  0.20001256923E+02 0.  0.
        -13    1    3    3    0    0 -0.70087179628E+01 -0.71329289184E+01  0.14390650086E+02  0.17524348342E+02  0.10570000000E+00 0. -1.
         13    1    3    3    0    0  0.70087179628E+01  0.71329289184E+01  0.14305354604E+02  0.17454373242E+02  0.10570000000E+00 0.  1.
<mgrwt>
<rscale>  0 0.20001257E+02</rscale>
<asrwt>0</asrwt>
<pdfrwt beam="1">  1        2 0.48980560E-02 0.20001257E+02</pdfrwt>
<pdfrwt beam="2">  1       -2 0.48328590E-03 0.20001257E+02</pdfrwt>
<totfact> 0.43656095E+06</totfact>
</mgrwt>
</event>
<event>
 5    1  0.1607476E-006  0.2000138E+02  0.7818608E-02  0.1745301E+00
         -2   -1    0    0    0  501 -0.00000000000E+00  0.00000000000E+00  0.18310813091E+02  0.18310813276E+02  0.26000000000E-02 0.  1.
          2   -1    0    0  501    0  0.00000000000E+00 -0.00000000000E+00 -0.54620095479E+01  0.54620101668E+01  0.26000000000E-02 0. -1.
       1023    2    1    2    0    0  0.00000000000E+00  0.00000000000E+00  0.12848803543E+02  0.23772823442E+02  0.20001384500E+02 0.  0.
        -13    1    3    3    0    0 -0.99044759155E+01 -0.13795159167E+01  0.63874670515E+01  0.11866449138E+02  0.10570000000E+00 0.  1.
         13    1    3    3    0    0  0.99044759155E+01  0.13795159167E+01  0.64613364916E+01  0.11906374304E+02  0.10570000000E+00 0. -1.
<mgrwt>
<rscale>  0 0.20001385E+02</rscale>
<asrwt>0</asrwt>
<pdfrwt beam="2">  1        2 0.84030923E-03 0.20001385E+02</pdfrwt>
<pdfrwt beam="1">  1       -2 0.28170482E-02 0.20001385E+02</pdfrwt>
<totfact> 0.37699956E+06</totfact>
</mgrwt>
</event>
<event>
 5    1  0.1607476E-006  0.2000567E+02  0.7818608E-02  0.1745215E+00
          2   -1    0    0  501    0  0.00000000000E+00  0.00000000000E+00  0.49829176203E+01  0.49829182986E+01  0.26000000000E-02 0. -1.
         -2   -1    0    0    0  501 -0.00000000000E+00 -0.00000000000E+00 -0.20079933204E+02  0.20079933372E+02  0.26000000000E-02 0.  1.
       1023    2    1    2    0    0  0.00000000000E+00  0.00000000000E+00 -0.15097015583E+02  0.25062851670E+02  0.20005665556E+02 0.  0.
        -13    1    3    3    0    0  0.53592265324E+00 -0.99878575734E+01 -0.75093073997E+01  0.12507812843E+02  0.10570000000E+00 0. -1.
         13    1    3    3    0    0 -0.53592265324E+00  0.99878575734E+01 -0.75877081835E+01  0.12555038828E+02  0.10570000000E+00 0.  1.
<mgrwt>
<rscale>  0 0.20005666E+02</rscale>
<asrwt>0</asrwt>
<pdfrwt beam="1">  1        2 0.76660278E-03 0.20005666E+02</pdfrwt>
<pdfrwt beam="2">  1       -2 0.30892205E-02 0.20005666E+02</pdfrwt>
<totfact> 0.37398452E+06</totfact>
</mgrwt>
</event>
<event>
 4    1  0.1607476E-006  0.2001534E+02  0.7818608E-02  0.1745023E+00
          2   -1    0    0  501    0  0.00000000000E+00  0.00000000000E+00  0.14493264320E+02  0.14493264553E+02  0.26000000000E-02 0.  1.
         -2   -1    0    0    0  501 -0.00000000000E+00 -0.00000000000E+00 -0.69103425572E+01  0.69103430463E+01  0.26000000000E-02 0. -1.
        -13    1    1    2    0    0  0.32294076114E+01  0.94662397342E+01  0.41354696900E+01  0.10823680071E+02  0.10570000000E+00 0.  1.
         13    1    1    2    0    0 -0.32294076114E+01 -0.94662397342E+01  0.34474520727E+01  0.10579927529E+02  0.10570000000E+00 0. -1.
<mgrwt>
<rscale>  0 0.20015337E+02</rscale>
<asrwt>0</asrwt>
<pdfrwt beam="1">  1        2 0.22297330E-02 0.20015337E+02</pdfrwt>
<pdfrwt beam="2">  1       -2 0.10631297E-02 0.20015337E+02</pdfrwt>
<totfact> 0.40509304E+06</totfact>
</mgrwt>
</event>
<event>
 5    1  0.1607476E-006  0.2000525E+02  0.7818608E-02  0.1745224E+00
          2   -1    0    0  501    0  0.00000000000E+00  0.00000000000E+00  0.72013974402E+01  0.72013979095E+01  0.26000000000E-02 0.  1.
         -2   -1    0    0    0  501 -0.00000000000E+00 -0.00000000000E+00 -0.13893488220E+02  0.13893488463E+02  0.26000000000E-02 0. -1.
       1023    2    1    2    0    0  0.00000000000E+00  0.00000000000E+00 -0.66920907800E+01  0.21094886373E+02  0.20005253112E+02 0.  0.
        -13    1    3    3    0    0 -0.89284141824E+01  0.45076875830E+01 -0.32675716781E+01  0.10522548376E+02  0.10570000000E+00 0.  1.
         13    1    3    3    0    0  0.89284141824E+01 -0.45076875830E+01 -0.34245191018E+01  0.10572337997E+02  0.10570000000E+00 0. -1.
<mgrwt>
<rscale>  0 0.20005253E+02</rscale>
<asrwt>0</asrwt>
<pdfrwt beam="1">  1        2 0.11079074E-02 0.20005253E+02</pdfrwt>
<pdfrwt beam="2">  1       -2 0.21374598E-02 0.20005253E+02</pdfrwt>
<totfact> 0.38497801E+06</totfact>
</mgrwt>
</event>
<event>
 5    1  0.2760705E-006  0.2000166E+02  0.7818608E-02  0.1745295E+00
          2   -1    0    0  501    0  0.00000000000E+00  0.00000000000E+00  0.11714810787E+03  0.11714810790E+03  0.26000000000E-02 0. -1.
         -2   -1    0    0    0  501 -0.00000000000E+00 -0.00000000000E+00 -0.85376037443E+00  0.85376433338E+00  0.26000000000E-02 0.  1.
       1023    2    1    2    0    0  0.00000000000E+00  0.00000000000E+00  0.11629434749E+03  0.11800187223E+03  0.20001664703E+02 0.  0.
        -13    1    3    3    0    0 -0.23581990798E+01  0.97182390528E+01  0.58063315822E+02  0.58918291641E+02  0.10570000000E+00 0. -1.
         13    1    3    3    0    0  0.23581990798E+01 -0.97182390528E+01  0.58231031670E+02  0.59083580588E+02  0.10570000000E+00 0.  1.
<mgrwt>
<rscale>  0 0.20001665E+02</rscale>
<asrwt>0</asrwt>
<pdfrwt beam="1">  1        2 0.18022784E-01 0.20001665E+02</pdfrwt>
<pdfrwt beam="2">  1       -2 0.13134807E-03 0.20001665E+02</pdfrwt>
<totfact> 0.54756272E+06</totfact>
</mgrwt>
</event>
<event>
 5    1  0.1607476E-006  0.2000168E+02  0.7818608E-02  0.1745295E+00
         -2   -1    0    0    0  501 -0.00000000000E+00  0.00000000000E+00  0.85770128789E+01  0.85770132730E+01  0.26000000000E-02 0.  1.
          2   -1    0    0  501    0  0.00000000000E+00 -0.00000000000E+00 -0.11661028885E+02  0.11661029175E+02  0.26000000000E-02 0. -1.
       1023    2    1    2    0    0  0.00000000000E+00  0.00000000000E+00 -0.30840160057E+01  0.20238042448E+02  0.20001680114E+02 0.  0.
        -13    1    3    3    0    0 -0.60219115793E+01  0.79838642540E+01 -0.15531774849E+01  0.10120723308E+02  0.10570000000E+00 0. -1.
         13    1    3    3    0    0  0.60219115793E+01 -0.79838642540E+01 -0.15308385208E+01  0.10117319139E+02  0.10570000000E+00 0.  1.
<mgrwt>
<rscale>  0 0.20001680E+02</rscale>
<asrwt>0</asrwt>
<pdfrwt beam="2">  1        2 0.17940045E-02 0.20001680E+02</pdfrwt>
<pdfrwt beam="1">  1       -2 0.13195405E-02 0.20001680E+02</pdfrwt>
<totfact> 0.39905601E+06</totfact>
</mgrwt>
</event>
<event>
 5    1  0.1607476E-006  0.2000116E+02  0.7818608E-02  0.1745305E+00
          2   -1    0    0  501    0  0.00000000000E+00  0.00000000000E+00  0.13567184885E+02  0.13567185134E+02  0.26000000000E-02 0.  1.
         -2   -1    0    0    0  501 -0.00000000000E+00 -0.00000000000E+00 -0.73715824224E+01  0.73715828809E+01  0.26000000000E-02 0. -1.
       1023    2    1    2    0    0  0.00000000000E+00  0.00000000000E+00  0.61956024624E+01  0.20938768015E+02  0.20001162869E+02 0.  0.
        -13    1    3    3    0    0 -0.61868082053E+01  0.78564512327E+01  0.30916259587E+01  0.10467556797E+02  0.10570000000E+00 0. -1.
         13    1    3    3    0    0  0.61868082053E+01 -0.78564512327E+01  0.31039765037E+01  0.10471211218E+02  0.10570000000E+00 0.  1.
<mgrwt>
<rscale>  0 0.20001163E+02</rscale>
<asrwt>0</asrwt>
<pdfrwt beam="1">  1        2 0.20872592E-02 0.20001163E+02</pdfrwt>
<pdfrwt beam="2">  1       -2 0.11340897E-02 0.20001163E+02</pdfrwt>
<totfact> 0.40367269E+06</totfact>
</mgrwt>
</event>
<event>
 4    1  0.1607476E-006  0.2008072E+02  0.7818608E-02  0.1743728E+00
          2   -1    0    0  501    0  0.00000000000E+00  0.00000000000E+00  0.32032920938E+01  0.32032931490E+01  0.26000000000E-02 0.  1.
         -2   -1    0    0    0  501 -0.00000000000E+00 -0.00000000000E+00 -0.31470381577E+02  0.31470381685E+02  0.26000000000E-02 0. -1.
        -13    1    1    2    0    0  0.86378722092E+01  0.50682130735E+01 -0.15352135683E+02  0.18330271754E+02  0.10570000000E+00 0. -1.
         13    1    1    2    0    0 -0.86378722092E+01 -0.50682130735E+01 -0.12914953800E+02  0.16343403079E+02  0.10570000000E+00 0.  1.
<mgrwt>
<rscale>  0 0.20080722E+02</rscale>
<asrwt>0</asrwt>
<pdfrwt beam="1">  1        2 0.49281428E-03 0.20080722E+02</pdfrwt>
<pdfrwt beam="2">  1       -2 0.48415970E-02 0.20080722E+02</pdfrwt>
<totfact> 0.35571760E+06</totfact>
</mgrwt>
</event>
<event>
 5    1  0.1607476E-006  0.2000516E+02  0.7818608E-02  0.1745226E+00
          2   -1    0    0  501    0  0.00000000000E+00  0.00000000000E+00  0.19389767488E+01  0.19389784920E+01  0.26000000000E-02 0.  1.
         -2   -1    0    0    0  501 -0.00000000000E+00 -0.00000000000E+00 -0.51600177801E+02  0.51600177867E+02  0.26000000000E-02 0. -1.
       1023    2    1    2    0    0  0.00000000000E+00  0.00000000000E+00 -0.49661201052E+02  0.53539156359E+02  0.20005158675E+02 0.  0.
        -13    1    3    3    0    0 -0.99549613783E+01  0.96900058249E+00 -0.24868707467E+02  0.26804924953E+02  0.10570000000E+00 0.  1.
         13    1    3    3    0    0  0.99549613783E+01 -0.96900058249E+00 -0.24792493586E+02  0.26734231406E+02  0.10570000000E+00 0. -1.
<mgrwt>
<rscale>  0 0.20005159E+02</rscale>
<asrwt>0</asrwt>
<pdfrwt beam="1">  1        2 0.29830429E-03 0.20005159E+02</pdfrwt>
<pdfrwt beam="2">  1       -2 0.79384880E-02 0.20005159E+02</pdfrwt>
<totfact> 0.33724580E+06</totfact>
</mgrwt>
</event>
<event>
 5    1  0.1607476E-006  0.2000146E+02  0.7818608E-02  0.1745299E+00
         -2   -1    0    0    0  501 -0.00000000000E+00  0.00000000000E+00  0.20597755308E+01  0.20597771718E+01  0.26000000000E-02 0.  1.
          2   -1    0    0  501    0  0.00000000000E+00 -0.00000000000E+00 -0.48556065276E+02  0.48556065345E+02  0.26000000000E-02 0. -1.
       1023    2    1    2    0    0  0.00000000000E+00  0.00000000000E+00 -0.46496289745E+02  0.50615842517E+02  0.20001463788E+02 0.  0.
        -13    1    3    3    0    0 -0.50356932275E+01  0.86397400949E+01 -0.23279214609E+02  0.25336462272E+02  0.10570000000E+00 0. -1.
         13    1    3    3    0    0  0.50356932275E+01 -0.86397400949E+01 -0.23217075136E+02  0.25279380245E+02  0.10570000000E+00 0.  1.
<mgrwt>
<rscale>  0 0.20001464E+02</rscale>
<asrwt>0</asrwt>
<pdfrwt beam="2">  1        2 0.74701632E-02 0.20001464E+02</pdfrwt>
<pdfrwt beam="1">  1       -2 0.31688871E-03 0.20001464E+02</pdfrwt>
<totfact> 0.46118165E+06</totfact>
</mgrwt>
</event>
<event>
 4    1  0.1607476E-006  0.2006551E+02  0.7818608E-02  0.1744028E+00
          2   -1    0    0  501    0  0.00000000000E+00  0.00000000000E+00  0.12293398287E+01  0.12293425781E+01  0.26000000000E-02 0. -1.
         -2   -1    0    0    0  501 -0.00000000000E+00 -0.00000000000E+00 -0.81878171048E+02  0.81878171090E+02  0.26000000000E-02 0.  1.
        -13    1    1    2    0    0  0.43226796172E+01 -0.90210510232E+01 -0.37169783113E+02  0.38492452114E+02  0.10570000000E+00 0. -1.
         13    1    1    2    0    0 -0.43226796172E+01  0.90210510232E+01 -0.43479048107E+02  0.44615061553E+02  0.10570000000E+00 0.  1.
<mgrwt>
<rscale>  0 0.20065514E+02</rscale>
<asrwt>0</asrwt>
<pdfrwt beam="1">  1        2 0.18912948E-03 0.20065514E+02</pdfrwt>
<pdfrwt beam="2">  1       -2 0.12596638E-01 0.20065514E+02</pdfrwt>
<totfact> 0.30886574E+06</totfact>
</mgrwt>
</event>
<event>
 5    1  0.1607476E-006  0.2000135E+02  0.7818608E-02  0.1745301E+00
          2   -1    0    0  501    0  0.00000000000E+00  0.00000000000E+00  0.97805935427E+01  0.97805938883E+01  0.26000000000E-02 0. -1.
         -2   -1    0    0    0  501 -0.00000000000E+00 -0.00000000000E+00 -0.10225712558E+02  0.10225712889E+02  0.26000000000E-02 0.  1.
       1023    2    1    2    0    0  0.00000000000E+00  0.00000000000E+00 -0.44511901538E+00  0.20006306777E+02  0.20001354452E+02 0.  0.
        -13    1    3    3    0    0 -0.17768110149E+01  0.98409633928E+01 -0.25003640864E+00  0.10003764720E+02  0.10570000000E+00 0. -1.
         13    1    3    3    0    0  0.17768110149E+01 -0.98409633928E+01 -0.19508260674E+00  0.10002542057E+02  0.10570000000E+00 0.  1.
<mgrwt>
<rscale>  0 0.20001354E+02</rscale>
<asrwt>0</asrwt>
<pdfrwt beam="1">  1        2 0.15047067E-02 0.20001354E+02</pdfrwt>
<pdfrwt beam="2">  1       -2 0.15731866E-02 0.20001354E+02</pdfrwt>
<totfact> 0.39392997E+06</totfact>
</mgrwt>
</event>
<event>
 4    1  0.1607476E-006  0.2002399E+02  0.7818608E-02  0.1744851E+00
         -2   -1    0    0    0  501 -0.00000000000E+00  0.00000000000E+00  0.23051593083E+02  0.23051593229E+02  0.26000000000E-02 0.  1.
          2   -1    0    0  501    0  0.00000000000E+00 -0.00000000000E+00 -0.43485062206E+01  0.43485069979E+01  0.26000000000E-02 0. -1.
        -13    1    1    2    0    0  0.65273423988E+01 -0.75844195651E+01  0.97825610113E+01  0.13994259229E+02  0.10570000000E+00 0.  1.
         13    1    1    2    0    0 -0.65273423988E+01  0.75844195651E+01  0.89205258507E+01  0.13405840998E+02  0.10570000000E+00 0. -1.
<mgrwt>
<rscale>  0 0.20023986E+02</rscale>
<asrwt>0</asrwt>
<pdfrwt beam="2">  1        2 0.66900103E-03 0.20023986E+02</pdfrwt>
<pdfrwt beam="1">  1       -2 0.35463990E-02 0.20023986E+02</pdfrwt>
<totfact> 0.36883402E+06</totfact>
</mgrwt>
</event>
<event>
 5    1  0.1607476E-006  0.2000407E+02  0.7818608E-02  0.1745247E+00
         -2   -1    0    0    0  501 -0.00000000000E+00  0.00000000000E+00  0.93077364410E+02  0.93077364447E+02  0.26000000000E-02 0.  1.
          2   -1    0    0  501    0  0.00000000000E+00 -0.00000000000E+00 -0.10748112647E+01  0.10748144094E+01  0.26000000000E-02 0. -1.
       1023    2    1    2    0    0  0.00000000000E+00  0.00000000000E+00  0.92002553146E+02  0.94152178856E+02  0.20004074536E+02 0.  0.
        -13    1    3    3    0    0  0.20056786839E+01  0.97979708578E+01  0.46383562789E+02  0.47449647516E+02  0.10570000000E+00 0.  1.
         13    1    3    3    0    0 -0.20056786839E+01 -0.97979708578E+01  0.45618990356E+02  0.46702531340E+02  0.10570000000E+00 0. -1.
<mgrwt>
<rscale>  0 0.20004075E+02</rscale>
<asrwt>0</asrwt>
<pdfrwt beam="2">  1        2 0.16535581E-03 0.20004075E+02</pdfrwt>
<pdfrwt beam="1">  1       -2 0.14319596E-01 0.20004075E+02</pdfrwt>
<totfact> 0.30228810E+06</totfact>
</mgrwt>
</event>
<event>
 4    1  0.1607476E-006  0.2001403E+02  0.7818608E-02  0.1745049E+00
         -2   -1    0    0    0  501 -0.00000000000E+00  0.00000000000E+00  0.32392460262E+02  0.32392460367E+02  0.26000000000E-02 0.  1.
          2   -1    0    0  501    0  0.00000000000E+00 -0.00000000000E+00 -0.30914693807E+01  0.30914704740E+01  0.26000000000E-02 0. -1.
        -13    1    1    2    0    0  0.69363346926E+01 -0.72061276744E+01  0.14124155877E+02  0.17307338523E+02  0.10570000000E+00 0.  1.
         13    1    1    2    0    0 -0.69363346926E+01  0.72061276744E+01  0.15176835005E+02  0.18176592318E+02  0.10570000000E+00 0. -1.
<mgrwt>
<rscale>  0 0.20014027E+02</rscale>
<asrwt>0</asrwt>
<pdfrwt beam="2">  1        2 0.47561076E-03 0.20014027E+02</pdfrwt>
<pdfrwt beam="1">  1       -2 0.49834556E-02 0.20014027E+02</pdfrwt>
<totfact> 0.35721065E+06</totfact>
</mgrwt>
</event>
<event>
 5    1  0.1607476E-006  0.2000195E+02  0.7818608E-02  0.1745289E+00
         -2   -1    0    0    0  501 -0.00000000000E+00  0.00000000000E+00  0.26382380191E+02  0.26382380319E+02  0.26000000000E-02 0. -1.
          2   -1    0    0  501    0  0.00000000000E+00 -0.00000000000E+00 -0.37911489883E+01  0.37911498798E+01  0.26000000000E-02 0.  1.
       1023    2    1    2    0    0  0.00000000000E+00  0.00000000000E+00  0.22591231203E+02  0.30173530199E+02  0.20001954840E+02 0.  0.
        -13    1    3    3    0    0 -0.28973045174E-01  0.10000125313E+02  0.11188614780E+02  0.15006652488E+02  0.10570000000E+00 0.  1.
         13    1    3    3    0    0  0.28973045174E-01 -0.10000125313E+02  0.11402616423E+02  0.15166877711E+02  0.10570000000E+00 0. -1.
<mgrwt>
<rscale>  0 0.20001955E+02</rscale>
<asrwt>0</asrwt>
<pdfrwt beam="2">  1        2 0.58325375E-03 0.20001955E+02</pdfrwt>
<pdfrwt beam="1">  1       -2 0.40588279E-02 0.20001955E+02</pdfrwt>
<totfact> 0.36516507E+06</totfact>
</mgrwt>
</event>
<event>
 5    1  0.1607476E-006  0.2000164E+02  0.7818608E-02  0.1745295E+00
          2   -1    0    0  501    0  0.00000000000E+00  0.00000000000E+00  0.16349048482E+01  0.16349069156E+01  0.26000000000E-02 0.  1.
         -2   -1    0    0    0  501 -0.00000000000E+00 -0.00000000000E+00 -0.61175620598E+02  0.61175620653E+02  0.26000000000E-02 0. -1.
       1023    2    1    2    0    0  0.00000000000E+00  0.00000000000E+00 -0.59540715749E+02  0.62810527568E+02  0.20001638470E+02 0.  0.
        -13    1    3    3    0    0 -0.95098506713E+01 -0.30931168274E+01 -0.29846075513E+02  0.31477039688E+02  0.10570000000E+00 0. -1.
         13    1    3    3    0    0  0.95098506713E+01  0.30931168274E+01 -0.29694640237E+02  0.31333487881E+02  0.10570000000E+00 0.  1.
<mgrwt>
<rscale>  0 0.20001638E+02</rscale>
<asrwt>0</asrwt>
<pdfrwt beam="1">  1        2 0.25152403E-03 0.20001638E+02</pdfrwt>
<pdfrwt beam="2">  1       -2 0.94116324E-02 0.20001638E+02</pdfrwt>
<totfact> 0.32848005E+06</totfact>
</mgrwt>
</event>
<event>
 5    1  0.1607476E-006  0.2000228E+02  0.7818608E-02  0.1745283E+00
          2   -1    0    0  501    0  0.00000000000E+00  0.00000000000E+00  0.18692624752E+01  0.18692642834E+01  0.26000000000E-02 0.  1.
         -2   -1    0    0    0  501 -0.00000000000E+00 -0.00000000000E+00 -0.53509230809E+02  0.53509230872E+02  0.26000000000E-02 0. -1.
       1023    2    1    2    0    0  0.00000000000E+00  0.00000000000E+00 -0.51639968333E+02  0.55378495155E+02  0.20002284774E+02 0.  0.
        -13    1    3    3    0    0  0.81916763624E+01  0.57358252748E+01 -0.26074083704E+02  0.27926193201E+02  0.10570000000E+00 0. -1.
         13    1    3    3    0    0 -0.81916763624E+01 -0.57358252748E+01 -0.25565884630E+02  0.27452301954E+02  0.10570000000E+00 0.  1.
<mgrwt>
<rscale>  0 0.20002285E+02</rscale>
<asrwt>0</asrwt>
<pdfrwt beam="1">  1        2 0.28757903E-03 0.20002285E+02</pdfrwt>
<pdfrwt beam="2">  1       -2 0.82321883E-02 0.20002285E+02</pdfrwt>
<totfact> 0.33552808E+06</totfact>
</mgrwt>
</event>
<event>
 5    1  0.1607476E-006  0.2000916E+02  0.7818608E-02  0.1745146E+00
          2   -1    0    0  501    0  0.00000000000E+00  0.00000000000E+00  0.37463793237E+01  0.37463802259E+01  0.26000000000E-02 0. -1.
         -2   -1    0    0    0  501 -0.00000000000E+00 -0.00000000000E+00 -0.26716893965E+02  0.26716894091E+02  0.26000000000E-02 0.  1.
       1023    2    1    2    0    0  0.00000000000E+00  0.00000000000E+00 -0.22970514641E+02  0.30463274317E+02  0.20009161383E+02 0.  0.
        -13    1    3    3    0    0 -0.59540695066E+01 -0.80392472887E+01 -0.11492343608E+02  0.15236980500E+02  0.10570000000E+00 0. -1.
         13    1    3    3    0    0  0.59540695066E+01  0.80392472887E+01 -0.11478171033E+02  0.15226293818E+02  0.10570000000E+00 0.  1.
<mgrwt>
<rscale>  0 0.20009161E+02</rscale>
<asrwt>0</asrwt>
<pdfrwt beam="1">  1        2 0.57636615E-03 0.20009161E+02</pdfrwt>
<pdfrwt beam="2">  1       -2 0.41102913E-02 0.20009161E+02</pdfrwt>
<totfact> 0.36444051E+06</totfact>
</mgrwt>
</event>
<event>
 5    1  0.1607476E-006  0.2001153E+02  0.7818608E-02  0.1745099E+00
          2   -1    0    0  501    0  0.00000000000E+00  0.00000000000E+00  0.34497107767E+01  0.34497117564E+01  0.26000000000E-02 0.  1.
         -2   -1    0    0    0  501 -0.00000000000E+00 -0.00000000000E+00 -0.29021366982E+02  0.29021367099E+02  0.26000000000E-02 0. -1.
       1023    2    1    2    0    0  0.00000000000E+00  0.00000000000E+00 -0.25571656206E+02  0.32471078855E+02  0.20011530699E+02 0.  0.
        -13    1    3    3    0    0  0.88475866905E+01 -0.46679685118E+01 -0.12484669650E+02  0.15998370824E+02  0.10570000000E+00 0. -1.
         13    1    3    3    0    0 -0.88475866905E+01  0.46679685118E+01 -0.13086986556E+02  0.16472708031E+02  0.10570000000E+00 0.  1.
<mgrwt>
<rscale>  0 0.20011531E+02</rscale>
<asrwt>0</asrwt>
<pdfrwt beam="1">  1        2 0.53072484E-03 0.20011531E+02</pdfrwt>
<pdfrwt beam="2">  1       -2 0.44648256E-02 0.20011531E+02</pdfrwt>
<totfact> 0.36140344E+06</totfact>
</mgrwt>
</event>
<event>
 5    1  0.1607476E-006  0.2000730E+02  0.7818608E-02  0.1745183E+00
         -2   -1    0    0    0  501 -0.00000000000E+00  0.00000000000E+00  0.22159330344E+02  0.22159330497E+02  0.26000000000E-02 0.  1.
          2   -1    0    0  501    0  0.00000000000E+00 -0.00000000000E+00 -0.45160681151E+01  0.45160688636E+01  0.26000000000E-02 0. -1.
       1023    2    1    2    0    0  0.00000000000E+00  0.00000000000E+00  0.17643262229E+02  0.26675399360E+02  0.20007304390E+02 0.  0.
        -13    1    3    3    0    0  0.51379260334E+01  0.85792448913E+01  0.84946153055E+01  0.13121409547E+02  0.10570000000E+00 0. -1.
         13    1    3    3    0    0 -0.51379260334E+01 -0.85792448913E+01  0.91486469237E+01  0.13553989813E+02  0.10570000000E+00 0.  1.
<mgrwt>
<rscale>  0 0.20007304E+02</rscale>
<asrwt>0</asrwt>
<pdfrwt beam="2">  1        2 0.69477977E-03 0.20007304E+02</pdfrwt>
<pdfrwt beam="1">  1       -2 0.34091279E-02 0.20007304E+02</pdfrwt>
<totfact> 0.37078821E+06</totfact>
</mgrwt>
</event>
<event>
 5    1  0.1607476E-006  0.2000163E+02  0.7818608E-02  0.1745296E+00
         -2   -1    0    0    0  501 -0.00000000000E+00  0.00000000000E+00  0.38478333037E+02  0.38478333125E+02  0.26000000000E-02 0. -1.
          2   -1    0    0  501    0  0.00000000000E+00 -0.00000000000E+00 -0.25992892376E+01  0.25992905379E+01  0.26000000000E-02 0.  1.
       1023    2    1    2    0    0  0.00000000000E+00  0.00000000000E+00  0.35879043799E+02  0.41077623662E+02  0.20001634479E+02 0.  0.
        -13    1    3    3    0    0 -0.50028737242E+01 -0.86588657005E+01  0.17894892298E+02  0.20499830330E+02  0.10570000000E+00 0.  1.
         13    1    3    3    0    0  0.50028737242E+01  0.86588657005E+01  0.17984151502E+02  0.20577793333E+02  0.10570000000E+00 0. -1.
<mgrwt>
<rscale>  0 0.20001634E+02</rscale>
<asrwt>0</asrwt>
<pdfrwt beam="2">  1        2 0.39989074E-03 0.20001634E+02</pdfrwt>
<pdfrwt beam="1">  1       -2 0.59197439E-02 0.20001634E+02</pdfrwt>
<totfact> 0.35078880E+06</totfact>
</mgrwt>
</event>
<event>
 4    1  0.1607476E-006  0.2002811E+02  0.7818608E-02  0.1744770E+00
         -2   -1    0    0    0  501 -0.00000000000E+00  0.00000000000E+00  0.29224524092E+02  0.29224524207E+02  0.26000000000E-02 0.  1.
          2   -1    0    0  501    0  0.00000000000E+00 -0.00000000000E+00 -0.34314079115E+01  0.34314088965E+01  0.26000000000E-02 0. -1.
        -13    1    1    2    0    0  0.14527795543E+01 -0.98968695237E+01  0.12146678422E+02  0.15735678059E+02  0.10570000000E+00 0.  1.
         13    1    1    2    0    0 -0.14527795543E+01  0.98968695237E+01  0.13646437759E+02  0.16920255045E+02  0.10570000000E+00 0. -1.
<mgrwt>
<rscale>  0 0.20028108E+02</rscale>
<asrwt>0</asrwt>
<pdfrwt beam="2">  1        2 0.52790900E-03 0.20028108E+02</pdfrwt>
<pdfrwt beam="1">  1       -2 0.44960807E-02 0.20028108E+02</pdfrwt>
<totfact> 0.36049871E+06</totfact>
</mgrwt>
</event>
<event>
 5    1  0.1607476E-006  0.2000140E+02  0.7818608E-02  0.1745300E+00
         -2   -1    0    0    0  501 -0.00000000000E+00  0.00000000000E+00  0.23299132193E+02  0.23299132338E+02  0.26000000000E-02 0.  1.
          2   -1    0    0  501    0  0.00000000000E+00 -0.00000000000E+00 -0.42926046343E+01  0.42926054217E+01  0.26000000000E-02 0. -1.
       1023    2    1    2    0    0  0.00000000000E+00  0.00000000000E+00  0.19006527558E+02  0.27591737760E+02  0.20001397520E+02 0.  0.
        -13    1    3    3    0    0  0.73702270452E+01  0.67586800844E+01  0.95762598056E+01  0.13846152084E+02  0.10570000000E+00 0.  1.
         13    1    3    3    0    0 -0.73702270452E+01 -0.67586800844E+01  0.94302677528E+01  0.13745585675E+02  0.10570000000E+00 0. -1.
<mgrwt>
<rscale>  0 0.20001398E+02</rscale>
<asrwt>0</asrwt>
<pdfrwt beam="2">  1        2 0.66040080E-03 0.20001398E+02</pdfrwt>
<pdfrwt beam="1">  1       -2 0.35844819E-02 0.20001398E+02</pdfrwt>
<totfact> 0.36938896E+06</totfact>
</mgrwt>
</event>
<event>
 4    1  0.1607476E-006  0.2002228E+02  0.7818608E-02  0.1744885E+00
          2   -1    0    0  501    0  0.00000000000E+00  0.00000000000E+00  0.84884154350E+00  0.84884552539E+00  0.26000000000E-02 0.  1.
         -2   -1    0    0    0  501 -0.00000000000E+00 -0.00000000000E+00 -0.11807001674E+03  0.11807001677E+03  0.26000000000E-02 0. -1.
        -13    1    1    2    0    0  0.97366180558E+01  0.23196127291E+01 -0.59630126857E+02  0.60464415451E+02  0.10570000000E+00 0. -1.
         13    1    1    2    0    0 -0.97366180558E+01 -0.23196127291E+01 -0.57591048343E+02  0.58454446847E+02  0.10570000000E+00 0.  1.
<mgrwt>
<rscale>  0 0.20022285E+02</rscale>
<asrwt>0</asrwt>
<pdfrwt beam="1">  1        2 0.13059141E-03 0.20022285E+02</pdfrwt>
<pdfrwt beam="2">  1       -2 0.18164605E-01 0.20022285E+02</pdfrwt>
<totfact> 0.28400881E+06</totfact>
</mgrwt>
</event>
<event>
 5    1  0.1607476E-006  0.2000543E+02  0.7818608E-02  0.1745220E+00
          2   -1    0    0  501    0  0.00000000000E+00  0.00000000000E+00  0.70808148961E+01  0.70808153734E+01  0.26000000000E-02 0. -1.
         -2   -1    0    0    0  501 -0.00000000000E+00 -0.00000000000E+00 -0.14130337303E+02  0.14130337542E+02  0.26000000000E-02 0.  1.
       1023    2    1    2    0    0  0.00000000000E+00  0.00000000000E+00 -0.70495224069E+01  0.21211152916E+02  0.20005430309E+02 0.  0.
        -13    1    3    3    0    0  0.63631096544E+01 -0.77166452435E+01 -0.36157202554E+01  0.10635806680E+02  0.10570000000E+00 0. -1.
         13    1    3    3    0    0 -0.63631096544E+01  0.77166452435E+01 -0.34338021515E+01  0.10575346235E+02  0.10570000000E+00 0.  1.
<mgrwt>
<rscale>  0 0.20005430E+02</rscale>
<asrwt>0</asrwt>
<pdfrwt beam="1">  1        2 0.10893562E-02 0.20005430E+02</pdfrwt>
<pdfrwt beam="2">  1       -2 0.21738981E-02 0.20005430E+02</pdfrwt>
<totfact> 0.38448297E+06</totfact>
</mgrwt>
</event>
<event>
 5    1  0.1607476E-006  0.2000513E+02  0.7818608E-02  0.1745226E+00
         -2   -1    0    0    0  501 -0.00000000000E+00  0.00000000000E+00  0.28318161602E+02  0.28318161721E+02  0.26000000000E-02 0. -1.
          2   -1    0    0  501    0  0.00000000000E+00 -0.00000000000E+00 -0.35331155056E+01  0.35331164623E+01  0.26000000000E-02 0.  1.
       1023    2    1    2    0    0  0.00000000000E+00  0.00000000000E+00  0.24785046096E+02  0.31851278183E+02  0.20005134639E+02 0.  0.
        -13    1    3    3    0    0  0.76616036565E+01 -0.64276818905E+01  0.12643838659E+02  0.16121200129E+02  0.10570000000E+00 0.  1.
         13    1    3    3    0    0 -0.76616036565E+01  0.64276818905E+01  0.12141207437E+02  0.15730078054E+02  0.10570000000E+00 0. -1.
<mgrwt>
<rscale>  0 0.20005135E+02</rscale>
<asrwt>0</asrwt>
<pdfrwt beam="2">  1        2 0.54355633E-03 0.20005135E+02</pdfrwt>
<pdfrwt beam="1">  1       -2 0.43566402E-02 0.20005135E+02</pdfrwt>
<totfact> 0.36254063E+06</totfact>
</mgrwt>
</event>
<event>
 5    1  0.1607476E-006  0.2000292E+02  0.7818608E-02  0.1745270E+00
          2   -1    0    0  501    0  0.00000000000E+00  0.00000000000E+00  0.19429941830E+01  0.19429959226E+01  0.26000000000E-02 0.  1.
         -2   -1    0    0    0  501 -0.00000000000E+00 -0.00000000000E+00 -0.51481951920E+02  0.51481951986E+02  0.26000000000E-02 0. -1.
       1023    2    1    2    0    0  0.00000000000E+00  0.00000000000E+00 -0.49538957737E+02  0.53424947908E+02  0.20002917920E+02 0.  0.
        -13    1    3    3    0    0 -0.43788089039E+01  0.89912129807E+01 -0.24646197415E+02  0.26598159670E+02  0.10570000000E+00 0.  1.
         13    1    3    3    0    0  0.43788089039E+01 -0.89912129807E+01 -0.24892760322E+02  0.26826788239E+02  0.10570000000E+00 0. -1.
<mgrwt>
<rscale>  0 0.20002918E+02</rscale>
<asrwt>0</asrwt>
<pdfrwt beam="1">  1        2 0.29892236E-03 0.20002918E+02</pdfrwt>
<pdfrwt beam="2">  1       -2 0.79202994E-02 0.20002918E+02</pdfrwt>
<totfact> 0.33744219E+06</totfact>
</mgrwt>
</event>
<event>
 5    1  0.1607476E-006  0.2000264E+02  0.7818608E-02  0.1745276E+00
         -2   -1    0    0    0  501 -0.00000000000E+00  0.00000000000E+00  0.11286356458E+03  0.11286356461E+03  0.26000000000E-02 0.  1.
          2   -1    0    0  501    0  0.00000000000E+00 -0.00000000000E+00 -0.88625787186E+00  0.88626168564E+00  0.26000000000E-02 0. -1.
       1023    2    1    2    0    0  0.00000000000E+00  0.00000000000E+00  0.11197730671E+03  0.11374982630E+03  0.20002643942E+02 0.  0.
        -13    1    3    3    0    0  0.53667069492E+01  0.84387462710E+01  0.56192630204E+02  0.57075711505E+02  0.10570000000E+00 0.  1.
         13    1    3    3    0    0 -0.53667069492E+01 -0.84387462710E+01  0.55784676508E+02  0.56674114794E+02  0.10570000000E+00 0. -1.
<mgrwt>
<rscale>  0 0.20002644E+02</rscale>
<asrwt>0</asrwt>
<pdfrwt beam="2">  1        2 0.13634773E-03 0.20002644E+02</pdfrwt>
<pdfrwt beam="1">  1       -2 0.17363617E-01 0.20002644E+02</pdfrwt>
<totfact> 0.28814477E+06</totfact>
</mgrwt>
</event>
<event>
 4    1  0.1607476E-006  0.2009156E+02  0.7818608E-02  0.1743513E+00
         -2   -1    0    0    0  501 -0.00000000000E+00  0.00000000000E+00  0.81623995981E+02  0.81623996022E+02  0.26000000000E-02 0. -1.
          2   -1    0    0  501    0  0.00000000000E+00 -0.00000000000E+00 -0.12363720638E+01  0.12363747976E+01  0.26000000000E-02 0.  1.
        -13    1    1    2    0    0 -0.93803555042E+01  0.35847923756E+01  0.39144260840E+02  0.40411955347E+02  0.10570000000E+00 0.  1.
         13    1    1    2    0    0  0.93803555042E+01 -0.35847923756E+01  0.41243363077E+02  0.42448415473E+02  0.10570000000E+00 0. -1.
<mgrwt>
<rscale>  0 0.20091565E+02</rscale>
<asrwt>0</asrwt>
<pdfrwt beam="2">  1        2 0.19021136E-03 0.20091565E+02</pdfrwt>
<pdfrwt beam="1">  1       -2 0.12557534E-01 0.20091565E+02</pdfrwt>
<totfact> 0.30819163E+06</totfact>
</mgrwt>
</event>
<event>
 5    1  0.1607476E-006  0.2001071E+02  0.7818608E-02  0.1745115E+00
          2   -1    0    0  501    0  0.00000000000E+00  0.00000000000E+00  0.11026688336E+02  0.11026688643E+02  0.26000000000E-02 0.  1.
         -2   -1    0    0    0  501 -0.00000000000E+00 -0.00000000000E+00 -0.90786240166E+01  0.90786243890E+01  0.26000000000E-02 0. -1.
       1023    2    1    2    0    0  0.00000000000E+00  0.00000000000E+00  0.19480643197E+01  0.20105313032E+02  0.20010713568E+02 0.  0.
        -13    1    3    3    0    0  0.22008718093E+01 -0.97563295695E+01  0.71554467093E+00  0.10027610885E+02  0.10570000000E+00 0.  1.
         13    1    3    3    0    0 -0.22008718093E+01  0.97563295695E+01  0.12325196487E+01  0.10077702147E+02  0.10570000000E+00 0. -1.
<mgrwt>
<rscale>  0 0.20010714E+02</rscale>
<asrwt>0</asrwt>
<pdfrwt beam="1">  1        2 0.16964136E-02 0.20010714E+02</pdfrwt>
<pdfrwt beam="2">  1       -2 0.13967114E-02 0.20010714E+02</pdfrwt>
<totfact> 0.39699469E+06</totfact>
</mgrwt>
</event>
<event>
 5    1  0.1607476E-006  0.2000491E+02  0.7818608E-02  0.1745231E+00
          2   -1    0    0  501    0  0.00000000000E+00  0.00000000000E+00  0.98445364507E+01  0.98445367941E+01  0.26000000000E-02 0.  1.
         -2   -1    0    0    0  501 -0.00000000000E+00 -0.00000000000E+00 -0.10162902356E+02  0.10162902688E+02  0.26000000000E-02 0. -1.
       1023    2    1    2    0    0  0.00000000000E+00  0.00000000000E+00 -0.31836590501E+00  0.20007439482E+02  0.20004906343E+02 0.  0.
        -13    1    3    3    0    0  0.11141759612E+01 -0.99385993665E+01 -0.15110838623E-01  0.10001427212E+02  0.10570000000E+00 0.  1.
         13    1    3    3    0    0 -0.11141759612E+01  0.99385993665E+01 -0.30325506638E+00  0.10006012271E+02  0.10570000000E+00 0. -1.
<mgrwt>
<rscale>  0 0.20004906E+02</rscale>
<asrwt>0</asrwt>
<pdfrwt beam="1">  1        2 0.15145441E-02 0.20004906E+02</pdfrwt>
<pdfrwt beam="2">  1       -2 0.15635235E-02 0.20004906E+02</pdfrwt>
<totfact> 0.39395808E+06</totfact>
</mgrwt>
</event>
<event>
 5    1  0.1607476E-006  0.2000128E+02  0.7818608E-02  0.1745303E+00
         -2   -1    0    0    0  501 -0.00000000000E+00  0.00000000000E+00  0.43163811455E+01  0.43163819285E+01  0.26000000000E-02 0.  1.
          2   -1    0    0  501    0  0.00000000000E+00 -0.00000000000E+00 -0.23170523512E+02  0.23170523658E+02  0.26000000000E-02 0. -1.
       1023    2    1    2    0    0  0.00000000000E+00  0.00000000000E+00 -0.18854142367E+02  0.27486905587E+02  0.20001282317E+02 0.  0.
        -13    1    3    3    0    0 -0.54220958659E+01  0.84025121318E+01 -0.94025881518E+01  0.13726659104E+02  0.10570000000E+00 0. -1.
         13    1    3    3    0    0  0.54220958659E+01 -0.84025121318E+01 -0.94515542149E+01  0.13760246483E+02  0.10570000000E+00 0.  1.
<mgrwt>
<rscale>  0 0.20001282E+02</rscale>
<asrwt>0</asrwt>
<pdfrwt beam="2">  1        2 0.35646959E-02 0.20001282E+02</pdfrwt>
<pdfrwt beam="1">  1       -2 0.66405872E-03 0.20001282E+02</pdfrwt>
<totfact> 0.42237825E+06</totfact>
</mgrwt>
</event>
<event>
 5    1  0.1607476E-006  0.2000171E+02  0.7818608E-02  0.1745294E+00
         -2   -1    0    0    0  501 -0.00000000000E+00  0.00000000000E+00  0.26571208668E+01  0.26571221389E+01  0.26000000000E-02 0. -1.
          2   -1    0    0  501    0  0.00000000000E+00 -0.00000000000E+00 -0.37641131800E+02  0.37641131890E+02  0.26000000000E-02 0.  1.
       1023    2    1    2    0    0  0.00000000000E+00  0.00000000000E+00 -0.34984010934E+02  0.40298254029E+02  0.20001706347E+02 0.  0.
        -13    1    3    3    0    0 -0.24578790157E+01 -0.96932463097E+01 -0.17644094126E+02  0.20281159318E+02  0.10570000000E+00 0. -1.
         13    1    3    3    0    0  0.24578790157E+01  0.96932463097E+01 -0.17339916808E+02  0.20017094711E+02  0.10570000000E+00 0.  1.
<mgrwt>
<rscale>  0 0.20001706E+02</rscale>
<asrwt>0</asrwt>
<pdfrwt beam="2">  1        2 0.57909430E-02 0.20001706E+02</pdfrwt>
<pdfrwt beam="1">  1       -2 0.40878796E-03 0.20001706E+02</pdfrwt>
<totfact> 0.44538402E+06</totfact>
</mgrwt>
</event>
<event>
 5    1  0.1607476E-006  0.2000971E+02  0.7818608E-02  0.1745135E+00
         -2   -1    0    0    0  501 -0.00000000000E+00  0.00000000000E+00  0.93885836566E+02  0.93885836602E+02  0.26000000000E-02 0.  1.
          2   -1    0    0  501    0  0.00000000000E+00 -0.00000000000E+00 -0.10661559545E+01  0.10661591247E+01  0.26000000000E-02 0. -1.
       1023    2    1    2    0    0  0.00000000000E+00  0.00000000000E+00  0.92819680611E+02  0.94951995727E+02  0.20009707236E+02 0.  0.
        -13    1    3    3    0    0  0.97585960829E+01 -0.22020896416E+01  0.46793215816E+02  0.47850763998E+02  0.10570000000E+00 0. -1.
         13    1    3    3    0    0 -0.97585960829E+01  0.22020896416E+01  0.46026464796E+02  0.47101231729E+02  0.10570000000E+00 0.  1.
<mgrwt>
<rscale>  0 0.20009707E+02</rscale>
<asrwt>0</asrwt>
<pdfrwt beam="2">  1        2 0.16402426E-03 0.20009707E+02</pdfrwt>
<pdfrwt beam="1">  1       -2 0.14443973E-01 0.20009707E+02</pdfrwt>
<totfact> 0.30149677E+06</totfact>
</mgrwt>
</event>
<event>
 5    1  0.1607476E-006  0.2000211E+02  0.7818608E-02  0.1745286E+00
          2   -1    0    0  501    0  0.00000000000E+00  0.00000000000E+00  0.24434482492E+02  0.24434482630E+02  0.26000000000E-02 0.  1.
         -2   -1    0    0    0  501 -0.00000000000E+00 -0.00000000000E+00 -0.40934401459E+01  0.40934409716E+01  0.26000000000E-02 0. -1.
       1023    2    1    2    0    0  0.00000000000E+00  0.00000000000E+00  0.20341042346E+02  0.28527923602E+02  0.20002110422E+02 0.  0.
        -13    1    3    3    0    0  0.97827362295E+01 -0.20747074340E+01  0.10085020559E+02  0.14202997967E+02  0.10570000000E+00 0.  1.
         13    1    3    3    0    0 -0.97827362295E+01  0.20747074340E+01  0.10256021787E+02  0.14324925635E+02  0.10570000000E+00 0. -1.
<mgrwt>
<rscale>  0 0.20002110E+02</rscale>
<asrwt>0</asrwt>
<pdfrwt beam="1">  1        2 0.37591513E-02 0.20002110E+02</pdfrwt>
<pdfrwt beam="2">  1       -2 0.62976009E-03 0.20002110E+02</pdfrwt>
<totfact> 0.42450835E+06</totfact>
</mgrwt>
</event>
<event>
 4    1  0.1607476E-006  0.2083570E+02  0.7818608E-02  0.1729202E+00
          2   -1    0    0  501    0  0.00000000000E+00  0.00000000000E+00  0.28847907960E+01  0.28847919677E+01  0.26000000000E-02 0.  1.
         -2   -1    0    0    0  501 -0.00000000000E+00 -0.00000000000E+00 -0.37621995884E+02  0.37621995974E+02  0.26000000000E-02 0. -1.
        -13    1    1    2    0    0  0.50722197222E+01  0.88247956091E+01 -0.21679086803E+02  0.23949914562E+02  0.10570000000E+00 0.  1.
         13    1    1    2    0    0 -0.50722197222E+01 -0.88247956091E+01 -0.13058118285E+02  0.16556873379E+02  0.10570000000E+00 0. -1.
<mgrwt>
<rscale>  0 0.20835701E+02</rscale>
<asrwt>0</asrwt>
<pdfrwt beam="1">  1        2 0.44381409E-03 0.20835701E+02</pdfrwt>
<pdfrwt beam="2">  1       -2 0.57879991E-02 0.20835701E+02</pdfrwt>
<totfact> 0.32159730E+06</totfact>
</mgrwt>
</event>
<event>
 5    1  0.1607476E-006  0.2000968E+02  0.7818608E-02  0.1745136E+00
          2   -1    0    0  501    0  0.00000000000E+00  0.00000000000E+00  0.27192065529E+01  0.27192077959E+01  0.26000000000E-02 0.  1.
         -2   -1    0    0    0  501 -0.00000000000E+00 -0.00000000000E+00 -0.36811013968E+02  0.36811014060E+02  0.26000000000E-02 0. -1.
       1023    2    1    2    0    0  0.00000000000E+00  0.00000000000E+00 -0.34091807415E+02  0.39530221856E+02  0.20009675338E+02 0.  0.
        -13    1    3    3    0    0  0.38436980791E+01  0.92335165316E+01 -0.16587839629E+02  0.19370065527E+02  0.10570000000E+00 0. -1.
         13    1    3    3    0    0 -0.38436980791E+01 -0.92335165316E+01 -0.17503967786E+02  0.20160156329E+02  0.10570000000E+00 0.  1.
<mgrwt>
<rscale>  0 0.20009675E+02</rscale>
<asrwt>0</asrwt>
<pdfrwt beam="1">  1        2 0.41833960E-03 0.20009675E+02</pdfrwt>
<pdfrwt beam="2">  1       -2 0.56632326E-02 0.20009675E+02</pdfrwt>
<totfact> 0.35231694E+06</totfact>
</mgrwt>
</event>
<event>
 5    1  0.1607476E-006  0.2000525E+02  0.7818608E-02  0.1745224E+00
         -2   -1    0    0    0  501 -0.00000000000E+00  0.00000000000E+00  0.12663953042E+01  0.12663979732E+01  0.26000000000E-02 0.  1.
          2   -1    0    0  501    0  0.00000000000E+00 -0.00000000000E+00 -0.79005628934E+02  0.79005628977E+02  0.26000000000E-02 0. -1.
       1023    2    1    2    0    0  0.00000000000E+00  0.00000000000E+00 -0.77739233630E+02  0.80272026950E+02  0.20005245945E+02 0.  0.
        -13    1    3    3    0    0  0.96684531795E+01  0.25545155727E+01 -0.38100324826E+02  0.39390994669E+02  0.10570000000E+00 0. -1.
         13    1    3    3    0    0 -0.96684531795E+01 -0.25545155727E+01 -0.39638908804E+02  0.40881032281E+02  0.10570000000E+00 0.  1.
<mgrwt>
<rscale>  0 0.20005246E+02</rscale>
<asrwt>0</asrwt>
<pdfrwt beam="2">  1        2 0.12154708E-01 0.20005246E+02</pdfrwt>
<pdfrwt beam="1">  1       -2 0.19483032E-03 0.20005246E+02</pdfrwt>
<totfact> 0.50144916E+06</totfact>
</mgrwt>
</event>
<event>
 4    1  0.1607476E-006  0.2001653E+02  0.7818608E-02  0.1745000E+00
          2   -1    0    0  501    0  0.00000000000E+00  0.00000000000E+00  0.83479425488E+02  0.83479425528E+02  0.26000000000E-02 0.  1.
         -2   -1    0    0    0  501 -0.00000000000E+00 -0.00000000000E+00 -0.11998797194E+01  0.11998825364E+01  0.26000000000E-02 0. -1.
        -13    1    1    2    0    0 -0.10837312918E+01 -0.99432614929E+01  0.39728447176E+02  0.40968324473E+02  0.10570000000E+00 0. -1.
         13    1    1    2    0    0  0.10837312918E+01  0.99432614929E+01  0.42551098592E+02  0.43710983592E+02  0.10570000000E+00 0.  1.
<mgrwt>
<rscale>  0 0.20016532E+02</rscale>
<asrwt>0</asrwt>
<pdfrwt beam="1">  1        2 0.12842991E-01 0.20016532E+02</pdfrwt>
<pdfrwt beam="2">  1       -2 0.18459706E-03 0.20016532E+02</pdfrwt>
<totfact> 0.50643503E+06</totfact>
</mgrwt>
</event>
<event>
 4    1  0.1607476E-006  0.2001420E+02  0.7818608E-02  0.1745046E+00
         -2   -1    0    0    0  501 -0.00000000000E+00  0.00000000000E+00  0.43742840834E+02  0.43742840911E+02  0.26000000000E-02 0.  1.
          2   -1    0    0  501    0  0.00000000000E+00 -0.00000000000E+00 -0.22893344773E+01  0.22893359538E+01  0.26000000000E-02 0. -1.
        -13    1    1    2    0    0  0.89707854174E+01 -0.44211260134E+01  0.19965635879E+02  0.22330676988E+02  0.10570000000E+00 0. -1.
         13    1    1    2    0    0 -0.89707854174E+01  0.44211260134E+01  0.21487870478E+02  0.23701499876E+02  0.10570000000E+00 0.  1.
<mgrwt>
<rscale>  0 0.20014198E+02</rscale>
<asrwt>0</asrwt>
<pdfrwt beam="2">  1        2 0.35220544E-03 0.20014198E+02</pdfrwt>
<pdfrwt beam="1">  1       -2 0.67296675E-02 0.20014198E+02</pdfrwt>
<totfact> 0.34472916E+06</totfact>
</mgrwt>
</event>
<event>
 5    1  0.1607476E-006  0.2000215E+02  0.7818608E-02  0.1745285E+00
          2   -1    0    0  501    0  0.00000000000E+00  0.00000000000E+00  0.19971475680E+01  0.19971492604E+01  0.26000000000E-02 0. -1.
         -2   -1    0    0    0  501 -0.00000000000E+00 -0.00000000000E+00 -0.50082163131E+02  0.50082163198E+02  0.26000000000E-02 0.  1.
       1023    2    1    2    0    0  0.00000000000E+00  0.00000000000E+00 -0.48085015563E+02  0.52079312459E+02  0.20002151497E+02 0.  0.
        -13    1    3    3    0    0 -0.53749367537E+01  0.84328089406E+01 -0.23807715111E+02  0.25822871316E+02  0.10570000000E+00 0.  1.
         13    1    3    3    0    0  0.53749367537E+01 -0.84328089406E+01 -0.24277300452E+02  0.26256441143E+02  0.10570000000E+00 0. -1.
<mgrwt>
<rscale>  0 0.20002151E+02</rscale>
<asrwt>0</asrwt>
<pdfrwt beam="1">  1        2 0.30725365E-03 0.20002151E+02</pdfrwt>
<pdfrwt beam="2">  1       -2 0.77049473E-02 0.20002151E+02</pdfrwt>
<totfact> 0.33882697E+06</totfact>
</mgrwt>
</event>
<event>
 5    1  0.1607476E-006  0.2000140E+02  0.7818608E-02  0.1745300E+00
          2   -1    0    0  501    0  0.00000000000E+00  0.00000000000E+00  0.16933179888E+02  0.16933180088E+02  0.26000000000E-02 0. -1.
         -2   -1    0    0    0  501 -0.00000000000E+00 -0.00000000000E+00 -0.59063898258E+01  0.59063903981E+01  0.26000000000E-02 0.  1.
       1023    2    1    2    0    0  0.00000000000E+00  0.00000000000E+00  0.11026790062E+02  0.22839570486E+02  0.20001396974E+02 0.  0.
        -13    1    3    3    0    0 -0.54520357886E+01  0.83832036389E+01  0.55128302918E+01  0.11419512591E+02  0.10570000000E+00 0.  1.
         13    1    3    3    0    0  0.54520357886E+01 -0.83832036389E+01  0.55139597706E+01  0.11420057895E+02  0.10570000000E+00 0. -1.
<mgrwt>
<rscale>  0 0.20001397E+02</rscale>
<asrwt>0</asrwt>
<pdfrwt beam="1">  1        2 0.26051046E-02 0.20001397E+02</pdfrwt>
<pdfrwt beam="2">  1       -2 0.90867543E-03 0.20001397E+02</pdfrwt>
<totfact> 0.41083330E+06</totfact>
</mgrwt>
</event>
<event>
 5    1  0.1607476E-006  0.2001032E+02  0.7818608E-02  0.1745123E+00
          2   -1    0    0  501    0  0.00000000000E+00  0.00000000000E+00  0.78005170034E+01  0.78005174367E+01  0.26000000000E-02 0.  1.
         -2   -1    0    0    0  501 -0.00000000000E+00 -0.00000000000E+00 -0.12832892225E+02  0.12832892488E+02  0.26000000000E-02 0. -1.
       1023    2    1    2    0    0  0.00000000000E+00  0.00000000000E+00 -0.50323752215E+01  0.20633409925E+02  0.20010317458E+02 0.  0.
        -13    1    3    3    0    0  0.31659304628E+01  0.94888084918E+01 -0.26989826579E+01  0.10361287669E+02  0.10570000000E+00 0.  1.
         13    1    3    3    0    0 -0.31659304628E+01 -0.94888084918E+01 -0.23333925635E+01  0.10272122256E+02  0.10570000000E+00 0. -1.
<mgrwt>
<rscale>  0 0.20010317E+02</rscale>
<asrwt>0</asrwt>
<pdfrwt beam="1">  1        2 0.12000796E-02 0.20010317E+02</pdfrwt>
<pdfrwt beam="2">  1       -2 0.19742912E-02 0.20010317E+02</pdfrwt>
<totfact> 0.38704837E+06</totfact>
</mgrwt>
</event>
<event>
 5    1  0.1607476E-006  0.2000206E+02  0.7818608E-02  0.1745287E+00
          2   -1    0    0  501    0  0.00000000000E+00  0.00000000000E+00  0.21433072128E+01  0.21433087898E+01  0.26000000000E-02 0.  1.
         -2   -1    0    0    0  501 -0.00000000000E+00 -0.00000000000E+00 -0.46666445335E+02  0.46666445407E+02  0.26000000000E-02 0. -1.
       1023    2    1    2    0    0  0.00000000000E+00  0.00000000000E+00 -0.44523138122E+02  0.48809754197E+02  0.20002056808E+02 0.  0.
        -13    1    3    3    0    0  0.86985702627E+01 -0.49335669102E+01 -0.22103620073E+02  0.24260799655E+02  0.10570000000E+00 0. -1.
         13    1    3    3    0    0 -0.86985702627E+01  0.49335669102E+01 -0.22419518049E+02  0.24548954542E+02  0.10570000000E+00 0.  1.
<mgrwt>
<rscale>  0 0.20002057E+02</rscale>
<asrwt>0</asrwt>
<pdfrwt beam="1">  1        2 0.32973973E-03 0.20002057E+02</pdfrwt>
<pdfrwt beam="2">  1       -2 0.71794525E-02 0.20002057E+02</pdfrwt>
<totfact> 0.34220945E+06</totfact>
</mgrwt>
</event>
<event>
 5    1  0.1607476E-006  0.2000162E+02  0.7818608E-02  0.1745296E+00
         -2   -1    0    0    0  501 -0.00000000000E+00  0.00000000000E+00  0.15846832064E+02  0.15846832278E+02  0.26000000000E-02 0.  1.
          2   -1    0    0  501    0  0.00000000000E+00 -0.00000000000E+00 -0.63114298943E+01  0.63114304298E+01  0.26000000000E-02 0. -1.
       1023    2    1    2    0    0  0.00000000000E+00  0.00000000000E+00  0.95354021700E+01  0.22158262707E+02  0.20001617726E+02 0.  0.
        -13    1    3    3    0    0  0.74070315569E+01 -0.67186841021E+01  0.47531351094E+01  0.11072863153E+02  0.10570000000E+00 0.  1.
         13    1    3    3    0    0 -0.74070315569E+01  0.67186841021E+01  0.47822670606E+01  0.11085399554E+02  0.10570000000E+00 0. -1.
<mgrwt>
<rscale>  0 0.20001618E+02</rscale>
<asrwt>0</asrwt>
<pdfrwt beam="2">  1        2 0.97098927E-03 0.20001618E+02</pdfrwt>
<pdfrwt beam="1">  1       -2 0.24379742E-02 0.20001618E+02</pdfrwt>
<totfact> 0.38130380E+06</totfact>
</mgrwt>
</event>
<event>
 5    1  0.1607476E-006  0.2000700E+02  0.7818608E-02  0.1745189E+00
          2   -1    0    0  501    0  0.00000000000E+00  0.00000000000E+00  0.59086217417E+02  0.59086217474E+02  0.26000000000E-02 0. -1.
         -2   -1    0    0    0  501 -0.00000000000E+00 -0.00000000000E+00 -0.16936265296E+01  0.16936285253E+01  0.26000000000E-02 0.  1.
       1023    2    1    2    0    0  0.00000000000E+00  0.00000000000E+00  0.57392590887E+02  0.60779846000E+02  0.20007003548E+02 0.  0.
        -13    1    3    3    0    0  0.17987858003E+00 -0.10001238727E+02  0.28569468886E+02  0.30270164475E+02  0.10570000000E+00 0.  1.
         13    1    3    3    0    0 -0.17987858003E+00  0.10001238727E+02  0.28823122001E+02  0.30509681525E+02  0.10570000000E+00 0. -1.
<mgrwt>
<rscale>  0 0.20007004E+02</rscale>
<asrwt>0</asrwt>
<pdfrwt beam="1">  1        2 0.90901879E-02 0.20007004E+02</pdfrwt>
<pdfrwt beam="2">  1       -2 0.26055807E-03 0.20007004E+02</pdfrwt>
<totfact> 0.47537620E+06</totfact>
</mgrwt>
</event>
<event>
 5    1  0.1607476E-006  0.2000236E+02  0.7818608E-02  0.1745281E+00
          2   -1    0    0  501    0  0.00000000000E+00  0.00000000000E+00  0.41462251545E+02  0.41462251627E+02  0.26000000000E-02 0. -1.
         -2   -1    0    0    0  501 -0.00000000000E+00 -0.00000000000E+00 -0.24124019283E+01  0.24124033294E+01  0.26000000000E-02 0.  1.
       1023    2    1    2    0    0  0.00000000000E+00  0.00000000000E+00  0.39049849617E+02  0.43874654956E+02  0.20002364671E+02 0.  0.
        -13    1    3    3    0    0  0.23679597094E+01 -0.97161914455E+01  0.19460367182E+02  0.21879869120E+02  0.10570000000E+00 0. -1.
         13    1    3    3    0    0 -0.23679597094E+01  0.97161914455E+01  0.19589482435E+02  0.21994785836E+02  0.10570000000E+00 0.  1.
<mgrwt>
<rscale>  0 0.20002365E+02</rscale>
<asrwt>0</asrwt>
<pdfrwt beam="1">  1        2 0.63788082E-02 0.20002365E+02</pdfrwt>
<pdfrwt beam="2">  1       -2 0.37113886E-03 0.20002365E+02</pdfrwt>
<totfact> 0.45098528E+06</totfact>
</mgrwt>
</event>
<event>
 5    1  0.1607476E-006  0.2001182E+02  0.7818608E-02  0.1745093E+00
         -2   -1    0    0    0  501 -0.00000000000E+00  0.00000000000E+00  0.17945575528E+01  0.17945594363E+01  0.26000000000E-02 0. -1.
          2   -1    0    0  501    0  0.00000000000E+00 -0.00000000000E+00 -0.55789872770E+02  0.55789872830E+02  0.26000000000E-02 0.  1.
       1023    2    1    2    0    0  0.00000000000E+00  0.00000000000E+00 -0.53995315217E+02  0.57584432266E+02  0.20011815862E+02 0.  0.
        -13    1    3    3    0    0  0.17336062368E+00 -0.10000751710E+02 -0.27713763771E+02  0.29463688898E+02  0.10570000000E+00 0. -1.
         13    1    3    3    0    0 -0.17336062368E+00  0.10000751710E+02 -0.26281551446E+02  0.28120743368E+02  0.10570000000E+00 0.  1.
<mgrwt>
<rscale>  0 0.20011816E+02</rscale>
<asrwt>0</asrwt>
<pdfrwt beam="2">  1        2 0.85830562E-02 0.20011816E+02</pdfrwt>
<pdfrwt beam="1">  1       -2 0.27608597E-03 0.20011816E+02</pdfrwt>
<totfact> 0.47065550E+06</totfact>
</mgrwt>
</event>
<event>
 4    1  0.1607476E-006  0.2002199E+02  0.7818608E-02  0.1744891E+00
          2   -1    0    0  501    0  0.00000000000E+00  0.00000000000E+00  0.10313231522E+02  0.10313231850E+02  0.26000000000E-02 0. -1.
         -2   -1    0    0    0  501 -0.00000000000E+00 -0.00000000000E+00 -0.97176112193E+01  0.97176115672E+01  0.26000000000E-02 0.  1.
        -13    1    1    2    0    0  0.52065776596E+01  0.85454549214E+01  0.22810605221E-01  0.10007244553E+02  0.10570000000E+00 0.  1.
         13    1    1    2    0    0 -0.52065776596E+01 -0.85454549214E+01  0.57280969769E+00  0.10023598864E+02  0.10570000000E+00 0. -1.
<mgrwt>
<rscale>  0 0.20021986E+02</rscale>
<asrwt>0</asrwt>
<pdfrwt beam="1">  1        2 0.15866511E-02 0.20021986E+02</pdfrwt>
<pdfrwt beam="2">  1       -2 0.14950172E-02 0.20021986E+02</pdfrwt>
<totfact> 0.39453481E+06</totfact>
</mgrwt>
</event>
<event>
 5    1  0.1607476E-006  0.2000217E+02  0.7818608E-02  0.1745285E+00
         -2   -1    0    0    0  501 -0.00000000000E+00  0.00000000000E+00  0.27886284924E+01  0.27886297045E+01  0.26000000000E-02 0.  1.
          2   -1    0    0  501    0  0.00000000000E+00 -0.00000000000E+00 -0.35867697273E+02  0.35867697367E+02  0.26000000000E-02 0. -1.
       1023    2    1    2    0    0  0.00000000000E+00  0.00000000000E+00 -0.33079068780E+02  0.38656327071E+02  0.20002170664E+02 0.  0.
        -13    1    3    3    0    0  0.55919034511E+01  0.82910190514E+01 -0.16515534890E+02  0.19307626636E+02  0.10570000000E+00 0. -1.
         13    1    3    3    0    0 -0.55919034511E+01 -0.82910190514E+01 -0.16563533890E+02  0.19348700436E+02  0.10570000000E+00 0.  1.
<mgrwt>
<rscale>  0 0.20002171E+02</rscale>
<asrwt>0</asrwt>
<pdfrwt beam="2">  1        2 0.55181070E-02 0.20002171E+02</pdfrwt>
<pdfrwt beam="1">  1       -2 0.42901989E-03 0.20002171E+02</pdfrwt>
<totfact> 0.44269857E+06</totfact>
</mgrwt>
</event>
<event>
 5    1  0.1607476E-006  0.2000377E+02  0.7818608E-02  0.1745253E+00
         -2   -1    0    0    0  501 -0.00000000000E+00  0.00000000000E+00  0.19440249811E+02  0.19440249985E+02  0.26000000000E-02 0.  1.
          2   -1    0    0  501    0  0.00000000000E+00 -0.00000000000E+00 -0.51459051032E+01  0.51459057600E+01  0.26000000000E-02 0. -1.
       1023    2    1    2    0    0  0.00000000000E+00  0.00000000000E+00  0.14294344708E+02  0.24586155745E+02  0.20003768737E+02 0.  0.
        -13    1    3    3    0    0  0.97369425519E+01  0.22801324872E+01  0.73186450537E+01  0.12392771778E+02  0.10570000000E+00 0. -1.
         13    1    3    3    0    0 -0.97369425519E+01 -0.22801324872E+01  0.69756996538E+01  0.12193383967E+02  0.10570000000E+00 0.  1.
<mgrwt>
<rscale>  0 0.20003769E+02</rscale>
<asrwt>0</asrwt>
<pdfrwt beam="2">  1        2 0.79167778E-03 0.20003769E+02</pdfrwt>
<pdfrwt beam="1">  1       -2 0.29908077E-02 0.20003769E+02</pdfrwt>
<totfact> 0.37506803E+06</totfact>
</mgrwt>
</event>
<event>
 4    1  0.1607476E-006  0.2003102E+02  0.7818608E-02  0.1744712E+00
          2   -1    0    0  501    0  0.00000000000E+00  0.00000000000E+00  0.63886347582E+01  0.63886352872E+01  0.26000000000E-02 0.  1.
         -2   -1    0    0    0  501 -0.00000000000E+00 -0.00000000000E+00 -0.15701380409E+02  0.15701380624E+02  0.26000000000E-02 0. -1.
        -13    1    1    2    0    0  0.90033671254E+01  0.43642622183E+01 -0.51393599437E+01  0.11248626468E+02  0.10570000000E+00 0.  1.
         13    1    1    2    0    0 -0.90033671254E+01 -0.43642622183E+01 -0.41733857070E+01  0.10841389443E+02  0.10570000000E+00 0. -1.
<mgrwt>
<rscale>  0 0.20031015E+02</rscale>
<asrwt>0</asrwt>
<pdfrwt beam="1">  1        2 0.98286694E-03 0.20031015E+02</pdfrwt>
<pdfrwt beam="2">  1       -2 0.24155970E-02 0.20031015E+02</pdfrwt>
<totfact> 0.38036521E+06</totfact>
</mgrwt>
</event>
<event>
 5    1  0.1607476E-006  0.2000290E+02  0.7818608E-02  0.1745270E+00
         -2   -1    0    0    0  501 -0.00000000000E+00  0.00000000000E+00  0.18351743465E+01  0.18351761883E+01  0.26000000000E-02 0.  1.
          2   -1    0    0  501    0  0.00000000000E+00 -0.00000000000E+00 -0.54506493178E+02  0.54506493240E+02  0.26000000000E-02 0. -1.
       1023    2    1    2    0    0  0.00000000000E+00  0.00000000000E+00 -0.52671318831E+02  0.56341669428E+02  0.20002896953E+02 0.  0.
        -13    1    3    3    0    0  0.99438873825E+01 -0.10603288802E+01 -0.26651899787E+02  0.28466473760E+02  0.10570000000E+00 0. -1.
         13    1    3    3    0    0 -0.99438873825E+01  0.10603288802E+01 -0.26019419044E+02  0.27875195668E+02  0.10570000000E+00 0.  1.
<mgrwt>
<rscale>  0 0.20002897E+02</rscale>
<asrwt>0</asrwt>
<pdfrwt beam="2">  1        2 0.83856133E-02 0.20002897E+02</pdfrwt>
<pdfrwt beam="1">  1       -2 0.28233470E-03 0.20002897E+02</pdfrwt>
<totfact> 0.46936735E+06</totfact>
</mgrwt>
</event>
<event>
 5    1  0.1607476E-006  0.2000347E+02  0.7818608E-02  0.1745259E+00
          2   -1    0    0  501    0  0.00000000000E+00  0.00000000000E+00  0.49892064393E+01  0.49892071168E+01  0.26000000000E-02 0. -1.
         -2   -1    0    0    0  501 -0.00000000000E+00 -0.00000000000E+00 -0.20050215710E+02  0.20050215879E+02  0.26000000000E-02 0.  1.
       1023    2    1    2    0    0  0.00000000000E+00  0.00000000000E+00 -0.15061009271E+02  0.25039422996E+02  0.20003467292E+02 0.  0.
        -13    1    3    3    0    0  0.25271072845E+01 -0.96766145736E+01 -0.75066686118E+01  0.12505374323E+02  0.10570000000E+00 0. -1.
         13    1    3    3    0    0 -0.25271072845E+01  0.96766145736E+01 -0.75543406593E+01  0.12534048672E+02  0.10570000000E+00 0.  1.
<mgrwt>
<rscale>  0 0.20003467E+02</rscale>
<asrwt>0</asrwt>
<pdfrwt beam="1">  1        2 0.76757030E-03 0.20003467E+02</pdfrwt>
<pdfrwt beam="2">  1       -2 0.30846486E-02 0.20003467E+02</pdfrwt>
<totfact> 0.37411998E+06</totfact>
</mgrwt>
</event>
<event>
 5    1  0.1607476E-006  0.2000795E+02  0.7818608E-02  0.1745170E+00
          2   -1    0    0  501    0  0.00000000000E+00  0.00000000000E+00  0.20914952170E+02  0.20914952331E+02  0.26000000000E-02 0. -1.
         -2   -1    0    0    0  501 -0.00000000000E+00 -0.00000000000E+00 -0.47850703297E+01  0.47850710361E+01  0.26000000000E-02 0.  1.
       1023    2    1    2    0    0  0.00000000000E+00  0.00000000000E+00  0.16129881840E+02  0.25700023367E+02  0.20007951242E+02 0.  0.
        -13    1    3    3    0    0 -0.63541276310E+01  0.77260179022E+01  0.81233133764E+01  0.12886647480E+02  0.10570000000E+00 0. -1.
         13    1    3    3    0    0  0.63541276310E+01 -0.77260179022E+01  0.80065684635E+01  0.12813375887E+02  0.10570000000E+00 0.  1.
<mgrwt>
<rscale>  0 0.20007951E+02</rscale>
<asrwt>0</asrwt>
<pdfrwt beam="1">  1        2 0.32176850E-02 0.20007951E+02</pdfrwt>
<pdfrwt beam="2">  1       -2 0.73616473E-03 0.20007951E+02</pdfrwt>
<totfact> 0.41807479E+06</totfact>
</mgrwt>
</event>
<event>
 5    1  0.1607476E-006  0.2000125E+02  0.7818608E-02  0.1745303E+00
          2   -1    0    0  501    0  0.00000000000E+00  0.00000000000E+00  0.38479089831E+02  0.38479089919E+02  0.26000000000E-02 0. -1.
         -2   -1    0    0    0  501 -0.00000000000E+00 -0.00000000000E+00 -0.25991382314E+01  0.25991395318E+01  0.26000000000E-02 0.  1.
       1023    2    1    2    0    0  0.00000000000E+00  0.00000000000E+00  0.35879951599E+02  0.41078229450E+02  0.20001250161E+02 0.  0.
        -13    1    3    3    0    0 -0.35151007536E+01  0.93618819422E+01  0.17891257239E+02  0.20496561294E+02  0.10570000000E+00 0.  1.
         13    1    3    3    0    0  0.35151007536E+01 -0.93618819422E+01  0.17988694360E+02  0.20581668156E+02  0.10570000000E+00 0. -1.
<mgrwt>
<rscale>  0 0.20001250E+02</rscale>
<asrwt>0</asrwt>
<pdfrwt beam="1">  1        2 0.59198598E-02 0.20001250E+02</pdfrwt>
<pdfrwt beam="2">  1       -2 0.39986755E-03 0.20001250E+02</pdfrwt>
<totfact> 0.44665381E+06</totfact>
</mgrwt>
</event>
<event>
 5    1  0.1607476E-006  0.2000943E+02  0.7818608E-02  0.1745141E+00
         -2   -1    0    0    0  501 -0.00000000000E+00  0.00000000000E+00  0.69037112059E+02  0.69037112108E+02  0.26000000000E-02 0.  1.
          2   -1    0    0  501    0  0.00000000000E+00 -0.00000000000E+00 -0.14498610747E+01  0.14498634059E+01  0.26000000000E-02 0. -1.
       1023    2    1    2    0    0  0.00000000000E+00  0.00000000000E+00  0.67587250984E+02  0.70486975513E+02  0.20009428315E+02 0.  0.
        -13    1    3    3    0    0  0.52703065114E+01 -0.85019441017E+01  0.33248477163E+02  0.34720765982E+02  0.10570000000E+00 0.  1.
         13    1    3    3    0    0 -0.52703065114E+01  0.85019441017E+01  0.34338773821E+02  0.35766209531E+02  0.10570000000E+00 0. -1.
<mgrwt>
<rscale>  0 0.20009428E+02</rscale>
<asrwt>0</asrwt>
<pdfrwt beam="2">  1        2 0.22305568E-03 0.20009428E+02</pdfrwt>
<pdfrwt beam="1">  1       -2 0.10621097E-01 0.20009428E+02</pdfrwt>
<totfact> 0.32132145E+06</totfact>
</mgrwt>
</event>
<event>
 5    1  0.1607476E-006  0.2000330E+02  0.7818608E-02  0.1745262E+00
         -2   -1    0    0    0  501 -0.00000000000E+00  0.00000000000E+00  0.50756415345E+01  0.50756422004E+01  0.26000000000E-02 0. -1.
          2   -1    0    0  501    0  0.00000000000E+00 -0.00000000000E+00 -0.19708447166E+02  0.19708447338E+02  0.26000000000E-02 0.  1.
       1023    2    1    2    0    0  0.00000000000E+00  0.00000000000E+00 -0.14632805632E+02  0.24784089538E+02  0.20003302067E+02 0.  0.
        -13    1    3    3    0    0 -0.99963517554E+01 -0.28818164377E+00 -0.71820765602E+01  0.12312737035E+02  0.10570000000E+00 0.  1.
         13    1    3    3    0    0  0.99963517554E+01  0.28818164377E+00 -0.74507290713E+01  0.12471352503E+02  0.10570000000E+00 0. -1.
<mgrwt>
<rscale>  0 0.20003302E+02</rscale>
<asrwt>0</asrwt>
<pdfrwt beam="2">  1        2 0.30320688E-02 0.20003302E+02</pdfrwt>
<pdfrwt beam="1">  1       -2 0.78086800E-03 0.20003302E+02</pdfrwt>
<totfact> 0.41608593E+06</totfact>
</mgrwt>
</event>
<event>
 4    1  0.1734047E-006  0.2064775E+02  0.7818608E-02  0.1732745E+00
          2   -1    0    0  501    0  0.00000000000E+00  0.00000000000E+00  0.56226201077E+02  0.56226201137E+02  0.26000000000E-02 0.  1.
         -2   -1    0    0    0  501 -0.00000000000E+00 -0.00000000000E+00 -0.18955993204E+01  0.18956011035E+01  0.26000000000E-02 0. -1.
        -13    1    1    2    0    0  0.11987861379E+01  0.99916795661E+01  0.33646031359E+02  0.35118902994E+02  0.10570000000E+00 0.  1.
         13    1    1    2    0    0 -0.11987861379E+01 -0.99916795661E+01  0.20684570397E+02  0.23002899247E+02  0.10570000000E+00 0. -1.
<mgrwt>
<rscale>  0 0.20647751E+02</rscale>
<asrwt>0</asrwt>
<pdfrwt beam="1">  1        2 0.86501842E-02 0.20647751E+02</pdfrwt>
<pdfrwt beam="2">  1       -2 0.29163083E-03 0.20647751E+02</pdfrwt>
<totfact> 0.43947262E+06</totfact>
</mgrwt>
</event>
<event>
 5    1  0.1607476E-006  0.2000202E+02  0.7818608E-02  0.1745288E+00
         -2   -1    0    0    0  501 -0.00000000000E+00  0.00000000000E+00  0.16400734029E+02  0.16400734235E+02  0.26000000000E-02 0.  1.
          2   -1    0    0  501    0  0.00000000000E+00 -0.00000000000E+00 -0.60985174684E+01  0.60985180227E+01  0.26000000000E-02 0. -1.
       1023    2    1    2    0    0  0.00000000000E+00  0.00000000000E+00  0.10302216560E+02  0.22499252257E+02  0.20002017051E+02 0.  0.
        -13    1    3    3    0    0 -0.49845171487E+01  0.86696704237E+01  0.51285391030E+01  0.11239291894E+02  0.10570000000E+00 0.  1.
         13    1    3    3    0    0  0.49845171487E+01 -0.86696704237E+01  0.51736774573E+01  0.11259960363E+02  0.10570000000E+00 0. -1.
<mgrwt>
<rscale>  0 0.20002017E+02</rscale>
<asrwt>0</asrwt>
<pdfrwt beam="2">  1        2 0.93823354E-03 0.20002017E+02</pdfrwt>
<pdfrwt beam="1">  1       -2 0.25231899E-02 0.20002017E+02</pdfrwt>
<totfact> 0.38027452E+06</totfact>
</mgrwt>
</event>
<event>
 5    1  0.1607476E-006  0.2000358E+02  0.7818608E-02  0.1745257E+00
          2   -1    0    0  501    0  0.00000000000E+00  0.00000000000E+00  0.12848462795E+02  0.12848463058E+02  0.26000000000E-02 0.  1.
         -2   -1    0    0    0  501 -0.00000000000E+00 -0.00000000000E+00 -0.77858209767E+01  0.77858214108E+01  0.26000000000E-02 0. -1.
       1023    2    1    2    0    0  0.00000000000E+00  0.00000000000E+00  0.50626418179E+01  0.20634284468E+02  0.20003583513E+02 0.  0.
        -13    1    3    3    0    0  0.38533856026E+01 -0.92287215914E+01  0.24463650061E+01  0.10296298221E+02  0.10570000000E+00 0.  1.
         13    1    3    3    0    0 -0.38533856026E+01  0.92287215914E+01  0.26162768117E+01  0.10337986248E+02  0.10570000000E+00 0. -1.
<mgrwt>
<rscale>  0 0.20003584E+02</rscale>
<asrwt>0</asrwt>
<pdfrwt beam="1">  1        2 0.19766866E-02 0.20003584E+02</pdfrwt>
<pdfrwt beam="2">  1       -2 0.11978187E-02 0.20003584E+02</pdfrwt>
<totfact> 0.40188862E+06</totfact>
</mgrwt>
</event>
<event>
 5    1  0.1607476E-006  0.2000298E+02  0.7818608E-02  0.1745269E+00
          2   -1    0    0  501    0  0.00000000000E+00  0.00000000000E+00  0.12640207013E+02  0.12640207280E+02  0.26000000000E-02 0. -1.
         -2   -1    0    0    0  501 -0.00000000000E+00 -0.00000000000E+00 -0.79136204860E+01  0.79136209132E+01  0.26000000000E-02 0.  1.
       1023    2    1    2    0    0  0.00000000000E+00  0.00000000000E+00  0.47265865270E+01  0.20553828194E+02  0.20002980608E+02 0.  0.
        -13    1    3    3    0    0 -0.99845681650E+01 -0.57186910327E+00  0.23636195267E+01  0.10276989125E+02  0.10570000000E+00 0.  1.
         13    1    3    3    0    0  0.99845681650E+01  0.57186910327E+00  0.23629670003E+01  0.10276839069E+02  0.10570000000E+00 0. -1.
<mgrwt>
<rscale>  0 0.20002981E+02</rscale>
<asrwt>0</asrwt>
<pdfrwt beam="1">  1        2 0.19446473E-02 0.20002981E+02</pdfrwt>
<pdfrwt beam="2">  1       -2 0.12174801E-02 0.20002981E+02</pdfrwt>
<totfact> 0.40141869E+06</totfact>
</mgrwt>
</event>
<event>
 5    1  0.1607476E-006  0.2000315E+02  0.7818608E-02  0.1745265E+00
         -2   -1    0    0    0  501 -0.00000000000E+00  0.00000000000E+00  0.12149608477E+01  0.12149636297E+01  0.26000000000E-02 0. -1.
          2   -1    0    0  501    0  0.00000000000E+00 -0.00000000000E+00 -0.82333037585E+02  0.82333037626E+02  0.26000000000E-02 0.  1.
       1023    2    1    2    0    0  0.00000000000E+00  0.00000000000E+00 -0.81118076737E+02  0.83548001255E+02  0.20003153258E+02 0.  0.
        -13    1    3    3    0    0  0.48254149893E+01  0.87594887522E+01 -0.40207358750E+02  0.41432549320E+02  0.10570000000E+00 0. -1.
         13    1    3    3    0    0 -0.48254149893E+01 -0.87594887522E+01 -0.40910717987E+02  0.42115451936E+02  0.10570000000E+00 0.  1.
<mgrwt>
<rscale>  0 0.20003153E+02</rscale>
<asrwt>0</asrwt>
<pdfrwt beam="2">  1        2 0.12666617E-01 0.20003153E+02</pdfrwt>
<pdfrwt beam="1">  1       -2 0.18691734E-03 0.20003153E+02</pdfrwt>
<totfact> 0.50575138E+06</totfact>
</mgrwt>
</event>
<event>
 5    1  0.1607476E-006  0.2000874E+02  0.7818608E-02  0.1745154E+00
          2   -1    0    0  501    0  0.00000000000E+00  0.00000000000E+00  0.11877106002E+01  0.11877134460E+01  0.26000000000E-02 0.  1.
         -2   -1    0    0    0  501 -0.00000000000E+00 -0.00000000000E+00 -0.84269083542E+02  0.84269083582E+02  0.26000000000E-02 0. -1.
       1023    2    1    2    0    0  0.00000000000E+00  0.00000000000E+00 -0.83081372942E+02  0.85456797029E+02  0.20008738801E+02 0.  0.
        -13    1    3    3    0    0  0.79243630395E+01  0.61053828182E+01 -0.41842861309E+02  0.43022173864E+02  0.10570000000E+00 0. -1.
         13    1    3    3    0    0 -0.79243630395E+01 -0.61053828182E+01 -0.41238511633E+02  0.42434623165E+02  0.10570000000E+00 0.  1.
<mgrwt>
<rscale>  0 0.20008739E+02</rscale>
<asrwt>0</asrwt>
<pdfrwt beam="1">  1        2 0.18272500E-03 0.20008739E+02</pdfrwt>
<pdfrwt beam="2">  1       -2 0.12964470E-01 0.20008739E+02</pdfrwt>
<totfact> 0.30889711E+06</totfact>
</mgrwt>
</event>
<event>
 5    1  0.1607476E-006  0.2000286E+02  0.7818608E-02  0.1745271E+00
          2   -1    0    0  501    0  0.00000000000E+00  0.00000000000E+00  0.22634534096E+02  0.22634534245E+02  0.26000000000E-02 0.  1.
         -2   -1    0    0    0  501 -0.00000000000E+00 -0.00000000000E+00 -0.44192910926E+01  0.44192918574E+01  0.26000000000E-02 0. -1.
       1023    2    1    2    0    0  0.00000000000E+00  0.00000000000E+00  0.18215243003E+02  0.27053826102E+02  0.20002860523E+02 0.  0.
        -13    1    3    3    0    0  0.98842631002E+01 -0.15224735092E+01  0.91471035584E+01  0.13553496177E+02  0.10570000000E+00 0. -1.
         13    1    3    3    0    0 -0.98842631002E+01  0.15224735092E+01  0.90681394446E+01  0.13500329925E+02  0.10570000000E+00 0.  1.
<mgrwt>
<rscale>  0 0.20002861E+02</rscale>
<asrwt>0</asrwt>
<pdfrwt beam="1">  1        2 0.34822361E-02 0.20002861E+02</pdfrwt>
<pdfrwt beam="2">  1       -2 0.67989101E-03 0.20002861E+02</pdfrwt>
<totfact> 0.42137005E+06</totfact>
</mgrwt>
</event>
<event>
 4    1  0.1607476E-006  0.2091691E+02  0.7818608E-02  0.1727686E+00
          2   -1    0    0  501    0  0.00000000000E+00  0.00000000000E+00  0.78911732665E+01  0.78911736948E+01  0.26000000000E-02 0.  1.
         -2   -1    0    0    0  501 -0.00000000000E+00 -0.00000000000E+00 -0.13860958680E+02  0.13860958924E+02  0.26000000000E-02 0. -1.
        -13    1    1    2    0    0 -0.99804771357E+01  0.30610670174E+01 -0.23371183119E+01  0.10698287229E+02  0.10570000000E+00 0.  1.
         13    1    1    2    0    0  0.99804771357E+01 -0.30610670174E+01 -0.36326671020E+01  0.11053845390E+02  0.10570000000E+00 0. -1.
<mgrwt>
<rscale>  0 0.20916905E+02</rscale>
<asrwt>0</asrwt>
<pdfrwt beam="1">  1        2 0.12140267E-02 0.20916905E+02</pdfrwt>
<pdfrwt beam="2">  1       -2 0.21324552E-02 0.20916905E+02</pdfrwt>
<totfact> 0.34963825E+06</totfact>
</mgrwt>
</event>
<event>
 5    1  0.1607476E-006  0.2000145E+02  0.7818608E-02  0.1745299E+00
         -2   -1    0    0    0  501 -0.00000000000E+00  0.00000000000E+00  0.11865319120E+03  0.11865319123E+03  0.26000000000E-02 0.  1.
          2   -1    0    0  501    0  0.00000000000E+00 -0.00000000000E+00 -0.84291261511E+00  0.84291662501E+00  0.26000000000E-02 0. -1.
       1023    2    1    2    0    0  0.00000000000E+00  0.00000000000E+00  0.11781027859E+03  0.11949610786E+03  0.20001451245E+02 0.  0.
        -13    1    3    3    0    0 -0.73876132273E+01 -0.67397329055E+01  0.59204553049E+02  0.60043243608E+02  0.10570000000E+00 0. -1.
         13    1    3    3    0    0  0.73876132273E+01  0.67397329055E+01  0.58605725538E+02  0.59452864247E+02  0.10570000000E+00 0.  1.
<mgrwt>
<rscale>  0 0.20001451E+02</rscale>
<asrwt>0</asrwt>
<pdfrwt beam="2">  1        2 0.12967918E-03 0.20001451E+02</pdfrwt>
<pdfrwt beam="1">  1       -2 0.18254336E-01 0.20001451E+02</pdfrwt>
<totfact> 0.28426376E+06</totfact>
</mgrwt>
</event>
<event>
 5    1  0.1607476E-006  0.2000225E+02  0.7818608E-02  0.1745283E+00
         -2   -1    0    0    0  501 -0.00000000000E+00  0.00000000000E+00  0.73499787750E+01  0.73499792348E+01  0.26000000000E-02 0.  1.
          2   -1    0    0  501    0  0.00000000000E+00 -0.00000000000E+00 -0.13608541667E+02  0.13608541915E+02  0.26000000000E-02 0. -1.
       1023    2    1    2    0    0  0.00000000000E+00  0.00000000000E+00 -0.62585628917E+01  0.20958521150E+02  0.20002249856E+02 0.  0.
        -13    1    3    3    0    0  0.17796172735E+01  0.98407772708E+01 -0.31903103741E+01  0.10497484828E+02  0.10570000000E+00 0.  1.
         13    1    3    3    0    0 -0.17796172735E+01 -0.98407772708E+01 -0.30682525176E+01  0.10461036322E+02  0.10570000000E+00 0. -1.
<mgrwt>
<rscale>  0 0.20002250E+02</rscale>
<asrwt>0</asrwt>
<pdfrwt beam="2">  1        2 0.20936219E-02 0.20002250E+02</pdfrwt>
<pdfrwt beam="1">  1       -2 0.11307660E-02 0.20002250E+02</pdfrwt>
<totfact> 0.40371733E+06</totfact>
</mgrwt>
</event>
<event>
 4    1  0.1607476E-006  0.2009777E+02  0.7818608E-02  0.1743391E+00
         -2   -1    0    0    0  501 -0.00000000000E+00  0.00000000000E+00  0.46087533681E+01  0.46087541015E+01  0.26000000000E-02 0.  1.
          2   -1    0    0  501    0  0.00000000000E+00 -0.00000000000E+00 -0.21910504283E+02  0.21910504437E+02  0.26000000000E-02 0. -1.
        -13    1    1    2    0    0 -0.45060818893E+01  0.89813048816E+01 -0.86266050427E+01  0.13243794714E+02  0.10570000000E+00 0. -1.
         13    1    1    2    0    0  0.45060818893E+01 -0.89813048816E+01 -0.86751458719E+01  0.13275463825E+02  0.10570000000E+00 0.  1.
<mgrwt>
<rscale>  0 0.20097773E+02</rscale>
<asrwt>0</asrwt>
<pdfrwt beam="2">  1        2 0.33708468E-02 0.20097773E+02</pdfrwt>
<pdfrwt beam="1">  1       -2 0.70903906E-03 0.20097773E+02</pdfrwt>
<totfact> 0.41564117E+06</totfact>
</mgrwt>
</event>
<event>
 5    1  0.1607476E-006  0.2000322E+02  0.7818608E-02  0.1745264E+00
          2   -1    0    0  501    0  0.00000000000E+00  0.00000000000E+00  0.94382540341E+02  0.94382540377E+02  0.26000000000E-02 0. -1.
         -2   -1    0    0    0  501 -0.00000000000E+00 -0.00000000000E+00 -0.10598579090E+01  0.10598610981E+01  0.26000000000E-02 0.  1.
       1023    2    1    2    0    0  0.00000000000E+00  0.00000000000E+00  0.93322682432E+02  0.95442401475E+02  0.20003223315E+02 0.  0.
        -13    1    3    3    0    0  0.58834519267E+01 -0.80874010730E+01  0.46657742766E+02  0.47717682207E+02  0.10570000000E+00 0. -1.
         13    1    3    3    0    0 -0.58834519267E+01  0.80874010730E+01  0.46664939666E+02  0.47724719268E+02  0.10570000000E+00 0.  1.
<mgrwt>
<rscale>  0 0.20003223E+02</rscale>
<asrwt>0</asrwt>
<pdfrwt beam="1">  1        2 0.14520393E-01 0.20003223E+02</pdfrwt>
<pdfrwt beam="2">  1       -2 0.16305529E-03 0.20003223E+02</pdfrwt>
<totfact> 0.52061818E+06</totfact>
</mgrwt>
</event>
<event>
 5    1  0.1607476E-006  0.2000295E+02  0.7818608E-02  0.1745270E+00
         -2   -1    0    0    0  501 -0.00000000000E+00  0.00000000000E+00  0.82634570773E+02  0.82634570814E+02  0.26000000000E-02 0.  1.
          2   -1    0    0  501    0  0.00000000000E+00 -0.00000000000E+00 -0.12105023067E+01  0.12105050989E+01  0.26000000000E-02 0. -1.
       1023    2    1    2    0    0  0.00000000000E+00  0.00000000000E+00  0.81424068466E+02  0.83845075913E+02  0.20002945513E+02 0.  0.
        -13    1    3    3    0    0  0.25501553331E+00 -0.99975410094E+01  0.40918476334E+02  0.42123019089E+02  0.10570000000E+00 0. -1.
         13    1    3    3    0    0 -0.25501553331E+00  0.99975410094E+01  0.40505592132E+02  0.41722056824E+02  0.10570000000E+00 0.  1.
<mgrwt>
<rscale>  0 0.20002946E+02</rscale>
<asrwt>0</asrwt>
<pdfrwt beam="2">  1        2 0.18623131E-03 0.20002946E+02</pdfrwt>
<pdfrwt beam="1">  1       -2 0.12713013E-01 0.20002946E+02</pdfrwt>
<totfact> 0.31037983E+06</totfact>
</mgrwt>
</event>
<event>
 5    1  0.1607476E-006  0.2000452E+02  0.7818608E-02  0.1745238E+00
         -2   -1    0    0    0  501 -0.00000000000E+00  0.00000000000E+00  0.18116037195E+01  0.18116055852E+01  0.26000000000E-02 0.  1.
          2   -1    0    0  501    0  0.00000000000E+00 -0.00000000000E+00 -0.55224654239E+02  0.55224654300E+02  0.26000000000E-02 0. -1.
       1023    2    1    2    0    0  0.00000000000E+00  0.00000000000E+00 -0.53413050520E+02  0.57036259886E+02  0.20004523886E+02 0.  0.
        -13    1    3    3    0    0 -0.92447631251E+01 -0.38167758559E+01 -0.26779121863E+02  0.28586114871E+02  0.10570000000E+00 0. -1.
         13    1    3    3    0    0  0.92447631251E+01  0.38167758559E+01 -0.26633928656E+02  0.28450145014E+02  0.10570000000E+00 0.  1.
<mgrwt>
<rscale>  0 0.20004524E+02</rscale>
<asrwt>0</asrwt>
<pdfrwt beam="2">  1        2 0.84960995E-02 0.20004524E+02</pdfrwt>
<pdfrwt beam="1">  1       -2 0.27870845E-03 0.20004524E+02</pdfrwt>
<totfact> 0.47026544E+06</totfact>
</mgrwt>
</event>
<event>
 5    1  0.1607476E-006  0.2000127E+02  0.7818608E-02  0.1745303E+00
          2   -1    0    0  501    0  0.00000000000E+00  0.00000000000E+00  0.14595862380E+02  0.14595862612E+02  0.26000000000E-02 0. -1.
         -2   -1    0    0    0  501 -0.00000000000E+00 -0.00000000000E+00 -0.68521271671E+01  0.68521276603E+01  0.26000000000E-02 0.  1.
       1023    2    1    2    0    0  0.00000000000E+00  0.00000000000E+00  0.77437352133E+01  0.21447990272E+02  0.20001271251E+02 0.  0.
        -13    1    3    3    0    0  0.51079416066E+01 -0.85970781790E+01  0.39006363641E+01  0.10734382013E+02  0.10570000000E+00 0.  1.
         13    1    3    3    0    0 -0.51079416066E+01  0.85970781790E+01  0.38430988492E+01  0.10713608259E+02  0.10570000000E+00 0. -1.
<mgrwt>
<rscale>  0 0.20001271E+02</rscale>
<asrwt>0</asrwt>
<pdfrwt beam="1">  1        2 0.22455173E-02 0.20001271E+02</pdfrwt>
<pdfrwt beam="2">  1       -2 0.10541735E-02 0.20001271E+02</pdfrwt>
<totfact> 0.40596317E+06</totfact>
</mgrwt>
</event>
<event>
 5    1  0.1607476E-006  0.2000447E+02  0.7818608E-02  0.1745239E+00
          2   -1    0    0  501    0  0.00000000000E+00  0.00000000000E+00  0.91250275541E+02  0.91250275578E+02  0.26000000000E-02 0.  1.
         -2   -1    0    0    0  501 -0.00000000000E+00 -0.00000000000E+00 -0.10963753600E+01  0.10963784428E+01  0.26000000000E-02 0. -1.
       1023    2    1    2    0    0  0.00000000000E+00  0.00000000000E+00  0.90153900181E+02  0.92346654021E+02  0.20004469276E+02 0.  0.
        -13    1    3    3    0    0 -0.43645427095E+01 -0.89987966117E+01  0.45433086208E+02  0.46521006743E+02  0.10570000000E+00 0.  1.
         13    1    3    3    0    0  0.43645427095E+01  0.89987966117E+01  0.44720813973E+02  0.45825647278E+02  0.10570000000E+00 0. -1.
<mgrwt>
<rscale>  0 0.20004469E+02</rscale>
<asrwt>0</asrwt>
<pdfrwt beam="1">  1        2 0.14038505E-01 0.20004469E+02</pdfrwt>
<pdfrwt beam="2">  1       -2 0.16867336E-03 0.20004469E+02</pdfrwt>
<totfact> 0.51672650E+06</totfact>
</mgrwt>
</event>
<event>
 5    1  0.1607476E-006  0.2000706E+02  0.7818608E-02  0.1745188E+00
          2   -1    0    0  501    0  0.00000000000E+00  0.00000000000E+00  0.32446083940E+01  0.32446094357E+01  0.26000000000E-02 0.  1.
         -2   -1    0    0    0  501 -0.00000000000E+00 -0.00000000000E+00 -0.30842124947E+02  0.30842125057E+02  0.26000000000E-02 0. -1.
       1023    2    1    2    0    0  0.00000000000E+00  0.00000000000E+00 -0.27597516553E+02  0.34086734492E+02  0.20007062464E+02 0.  0.
        -13    1    3    3    0    0 -0.99081952512E+01 -0.13737215798E+01 -0.13806473797E+02  0.17049613934E+02  0.10570000000E+00 0. -1.
         13    1    3    3    0    0  0.99081952512E+01  0.13737215798E+01 -0.13791042756E+02  0.17037120558E+02  0.10570000000E+00 0.  1.
<mgrwt>
<rscale>  0 0.20007062E+02</rscale>
<asrwt>0</asrwt>
<pdfrwt beam="1">  1        2 0.49917063E-03 0.20007062E+02</pdfrwt>
<pdfrwt beam="2">  1       -2 0.47449422E-02 0.20007062E+02</pdfrwt>
<totfact> 0.35933802E+06</totfact>
</mgrwt>
</event>
<event>
 5    1  0.1607476E-006  0.2000199E+02  0.7818608E-02  0.1745289E+00
         -2   -1    0    0    0  501 -0.00000000000E+00  0.00000000000E+00  0.27808912632E+01  0.27808924786E+01  0.26000000000E-02 0.  1.
          2   -1    0    0  501    0  0.00000000000E+00 -0.00000000000E+00 -0.35966826527E+02  0.35966826621E+02  0.26000000000E-02 0. -1.
       1023    2    1    2    0    0  0.00000000000E+00  0.00000000000E+00 -0.33185935263E+02  0.38747719099E+02  0.20001985803E+02 0.  0.
        -13    1    3    3    0    0 -0.22030425086E+01  0.97544462322E+01 -0.16442053690E+02  0.19244607547E+02  0.10570000000E+00 0.  1.
         13    1    3    3    0    0  0.22030425086E+01 -0.97544462322E+01 -0.16743881573E+02  0.19503111552E+02  0.10570000000E+00 0. -1.
<mgrwt>
<rscale>  0 0.20001986E+02</rscale>
<asrwt>0</asrwt>
<pdfrwt beam="2">  1        2 0.55333577E-02 0.20001986E+02</pdfrwt>
<pdfrwt beam="1">  1       -2 0.42782955E-03 0.20001986E+02</pdfrwt>
<totfact> 0.44285741E+06</totfact>
</mgrwt>
</event>
<event>
 5    1  0.1607476E-006  0.2000372E+02  0.7818608E-02  0.1745254E+00
         -2   -1    0    0    0  501 -0.00000000000E+00  0.00000000000E+00  0.68996349833E+01  0.68996354732E+01  0.26000000000E-02 0.  1.
          2   -1    0    0  501    0  0.00000000000E+00 -0.00000000000E+00 -0.14498915062E+02  0.14498915295E+02  0.26000000000E-02 0. -1.
       1023    2    1    2    0    0  0.00000000000E+00  0.00000000000E+00 -0.75992800787E+01  0.21398550768E+02  0.20003722585E+02 0.  0.
        -13    1    3    3    0    0  0.92047870689E+01  0.39111259048E+01 -0.37650429443E+01  0.10686988897E+02  0.10570000000E+00 0.  1.
         13    1    3    3    0    0 -0.92047870689E+01 -0.39111259048E+01 -0.38342371344E+01  0.10711561871E+02  0.10570000000E+00 0. -1.
<mgrwt>
<rscale>  0 0.20003723E+02</rscale>
<asrwt>0</asrwt>
<pdfrwt beam="2">  1        2 0.22306024E-02 0.20003723E+02</pdfrwt>
<pdfrwt beam="1">  1       -2 0.10614824E-02 0.20003723E+02</pdfrwt>
<totfact> 0.40563864E+06</totfact>
</mgrwt>
</event>
<event>
 5    1  0.1607476E-006  0.2000535E+02  0.7818608E-02  0.1745222E+00
         -2   -1    0    0    0  501 -0.00000000000E+00  0.00000000000E+00  0.55930256891E+01  0.55930262935E+01  0.26000000000E-02 0. -1.
          2   -1    0    0  501    0  0.00000000000E+00 -0.00000000000E+00 -0.17888968375E+02  0.17888968564E+02  0.26000000000E-02 0.  1.
       1023    2    1    2    0    0  0.00000000000E+00  0.00000000000E+00 -0.12295942686E+02  0.23481994857E+02  0.20005346184E+02 0.  0.
        -13    1    3    3    0    0 -0.81215173208E+01 -0.58360466325E+01 -0.63291021847E+01  0.11835843478E+02  0.10570000000E+00 0.  1.
         13    1    3    3    0    0  0.81215173208E+01  0.58360466325E+01 -0.59668405012E+01  0.11646151379E+02  0.10570000000E+00 0. -1.
<mgrwt>
<rscale>  0 0.20005346E+02</rscale>
<asrwt>0</asrwt>
<pdfrwt beam="2">  1        2 0.27521490E-02 0.20005346E+02</pdfrwt>
<pdfrwt beam="1">  1       -2 0.86046556E-03 0.20005346E+02</pdfrwt>
<totfact> 0.41253594E+06</totfact>
</mgrwt>
</event>
<event>
 4    1  0.1607476E-006  0.2001654E+02  0.7818608E-02  0.1744999E+00
         -2   -1    0    0    0  501 -0.00000000000E+00  0.00000000000E+00  0.64619475513E+01  0.64619480743E+01  0.26000000000E-02 0.  1.
          2   -1    0    0  501    0  0.00000000000E+00 -0.00000000000E+00 -0.15500812894E+02  0.15500813112E+02  0.26000000000E-02 0. -1.
        -13    1    1    2    0    0  0.45908631833E+01 -0.88850690455E+01 -0.41180818308E+01  0.10816202992E+02  0.10570000000E+00 0.  1.
         13    1    1    2    0    0 -0.45908631833E+01  0.88850690455E+01 -0.49207835115E+01  0.11146558194E+02  0.10570000000E+00 0. -1.
<mgrwt>
<rscale>  0 0.20016538E+02</rscale>
<asrwt>0</asrwt>
<pdfrwt beam="2">  1        2 0.23847405E-02 0.20016538E+02</pdfrwt>
<pdfrwt beam="1">  1       -2 0.99414584E-03 0.20016538E+02</pdfrwt>
<totfact> 0.40719717E+06</totfact>
</mgrwt>
</event>
<event>
 5    1  0.1607476E-006  0.2000128E+02  0.7818608E-02  0.1745303E+00
          2   -1    0    0  501    0  0.00000000000E+00  0.00000000000E+00  0.24929243998E+01  0.24929257556E+01  0.26000000000E-02 0. -1.
         -2   -1    0    0    0  501 -0.00000000000E+00 -0.00000000000E+00 -0.40118635538E+02  0.40118635623E+02  0.26000000000E-02 0.  1.
       1023    2    1    2    0    0  0.00000000000E+00  0.00000000000E+00 -0.37625711139E+02  0.42611561378E+02  0.20001275570E+02 0.  0.
        -13    1    3    3    0    0  0.84725854914E+01 -0.53119205963E+01 -0.18854291501E+02  0.21342368328E+02  0.10570000000E+00 0.  1.
         13    1    3    3    0    0 -0.84725854914E+01  0.53119205963E+01 -0.18771419637E+02  0.21269193050E+02  0.10570000000E+00 0. -1.
<mgrwt>
<rscale>  0 0.20001276E+02</rscale>
<asrwt>0</asrwt>
<pdfrwt beam="1">  1        2 0.38352697E-03 0.20001276E+02</pdfrwt>
<pdfrwt beam="2">  1       -2 0.61720974E-02 0.20001276E+02</pdfrwt>
<totfact> 0.34902922E+06</totfact>
</mgrwt>
</event>
<event>
 4    1  0.1607476E-006  0.2021490E+02  0.7818608E-02  0.1741088E+00
         -2   -1    0    0    0  501 -0.00000000000E+00  0.00000000000E+00  0.63112043335E+01  0.63112048690E+01  0.26000000000E-02 0.  1.
          2   -1    0    0  501    0  0.00000000000E+00 -0.00000000000E+00 -0.16187174350E+02  0.16187174559E+02  0.26000000000E-02 0. -1.
        -13    1    1    2    0    0 -0.17267022524E+01 -0.99477373897E+01 -0.44274517219E+01  0.11025084176E+02  0.10570000000E+00 0. -1.
         13    1    1    2    0    0  0.17267022524E+01  0.99477373897E+01 -0.54485182947E+01  0.11473295252E+02  0.10570000000E+00 0.  1.
<mgrwt>
<rscale>  0 0.20214903E+02</rscale>
<asrwt>0</asrwt>
<pdfrwt beam="2">  1        2 0.24903346E-02 0.20214903E+02</pdfrwt>
<pdfrwt beam="1">  1       -2 0.97095458E-03 0.20214903E+02</pdfrwt>
<totfact> 0.39960017E+06</totfact>
</mgrwt>
</event>
<event>
 5    1  0.1607476E-006  0.2000226E+02  0.7818608E-02  0.1745283E+00
         -2   -1    0    0    0  501 -0.00000000000E+00  0.00000000000E+00  0.79289294412E+02  0.79289294455E+02  0.26000000000E-02 0. -1.
          2   -1    0    0  501    0  0.00000000000E+00 -0.00000000000E+00 -0.12614875047E+01  0.12614901840E+01  0.26000000000E-02 0.  1.
       1023    2    1    2    0    0  0.00000000000E+00  0.00000000000E+00  0.78027806908E+02  0.80550784639E+02  0.20002256251E+02 0.  0.
        -13    1    3    3    0    0 -0.38842346321E+01 -0.92152789758E+01  0.39224932523E+02  0.40479811625E+02  0.10570000000E+00 0. -1.
         13    1    3    3    0    0  0.38842346321E+01  0.92152789758E+01  0.38802874385E+02  0.40070973014E+02  0.10570000000E+00 0.  1.
<mgrwt>
<rscale>  0 0.20002256E+02</rscale>
<asrwt>0</asrwt>
<pdfrwt beam="2">  1        2 0.19407518E-03 0.20002256E+02</pdfrwt>
<pdfrwt beam="1">  1       -2 0.12198355E-01 0.20002256E+02</pdfrwt>
<totfact> 0.31307250E+06</totfact>
</mgrwt>
</event>
<event>
 5    1  0.1607476E-006  0.2000836E+02  0.7818608E-02  0.1745162E+00
         -2   -1    0    0    0  501 -0.00000000000E+00  0.00000000000E+00  0.11840425540E+02  0.11840425825E+02  0.26000000000E-02 0. -1.
          2   -1    0    0  501    0  0.00000000000E+00 -0.00000000000E+00 -0.84527041880E+01  0.84527045879E+01  0.26000000000E-02 0.  1.
       1023    2    1    2    0    0  0.00000000000E+00  0.00000000000E+00  0.33877213517E+01  0.20293130413E+02  0.20008360403E+02 0.  0.
        -13    1    3    3    0    0  0.56150016952E+01 -0.82788838745E+01  0.16274554180E+01  0.10135479558E+02  0.10570000000E+00 0.  1.
         13    1    3    3    0    0 -0.56150016952E+01  0.82788838745E+01  0.17602659337E+01  0.10157650855E+02  0.10570000000E+00 0. -1.
<mgrwt>
<rscale>  0 0.20008360E+02</rscale>
<asrwt>0</asrwt>
<pdfrwt beam="2">  1        2 0.13004161E-02 0.20008360E+02</pdfrwt>
<pdfrwt beam="1">  1       -2 0.18216040E-02 0.20008360E+02</pdfrwt>
<totfact> 0.38943172E+06</totfact>
</mgrwt>
</event>
<event>
 5    1  0.1607476E-006  0.2001161E+02  0.7818608E-02  0.1745097E+00
          2   -1    0    0  501    0  0.00000000000E+00  0.00000000000E+00  0.23397213470E+01  0.23397227916E+01  0.26000000000E-02 0. -1.
         -2   -1    0    0    0  501 -0.00000000000E+00 -0.00000000000E+00 -0.42789732808E+02  0.42789732887E+02  0.26000000000E-02 0.  1.
       1023    2    1    2    0    0  0.00000000000E+00  0.00000000000E+00 -0.40450011461E+02  0.45129455679E+02  0.20011605199E+02 0.  0.
        -13    1    3    3    0    0  0.61372422885E+01  0.79014589797E+01 -0.20401374224E+02  0.22722808797E+02  0.10570000000E+00 0. -1.
         13    1    3    3    0    0 -0.61372422885E+01 -0.79014589797E+01 -0.20048637237E+02  0.22406646882E+02  0.10570000000E+00 0.  1.
<mgrwt>
<rscale>  0 0.20011605E+02</rscale>
<asrwt>0</asrwt>
<pdfrwt beam="1">  1        2 0.35995728E-03 0.20011605E+02</pdfrwt>
<pdfrwt beam="2">  1       -2 0.65830354E-02 0.20011605E+02</pdfrwt>
<totfact> 0.34581467E+06</totfact>
</mgrwt>
</event>
<event>
 5    1  0.1607476E-006  0.2000176E+02  0.7818608E-02  0.1745293E+00
         -2   -1    0    0    0  501 -0.00000000000E+00  0.00000000000E+00  0.94210015522E+00  0.94210374294E+00  0.26000000000E-02 0. -1.
          2   -1    0    0  501    0  0.00000000000E+00 -0.00000000000E+00 -0.10616431760E+03  0.10616431763E+03  0.26000000000E-02 0.  1.
       1023    2    1    2    0    0  0.00000000000E+00  0.00000000000E+00 -0.10522221744E+03  0.10710642137E+03  0.20001761315E+02 0.  0.
        -13    1    3    3    0    0 -0.99948969976E+01 -0.32074662218E+00 -0.52210494134E+02  0.53159643665E+02  0.10570000000E+00 0. -1.
         13    1    3    3    0    0  0.99948969976E+01  0.32074662218E+00 -0.53011723307E+02  0.53946777706E+02  0.10570000000E+00 0.  1.
<mgrwt>
<rscale>  0 0.20001761E+02</rscale>
<asrwt>0</asrwt>
<pdfrwt beam="2">  1        2 0.16332963E-01 0.20001761E+02</pdfrwt>
<pdfrwt beam="1">  1       -2 0.14493885E-03 0.20001761E+02</pdfrwt>
<totfact> 0.53479630E+06</totfact>
</mgrwt>
</event>
<event>
 5    1  0.1607476E-006  0.2000152E+02  0.7818608E-02  0.1745298E+00
         -2   -1    0    0    0  501 -0.00000000000E+00  0.00000000000E+00  0.79123111410E+02  0.79123111452E+02  0.26000000000E-02 0. -1.
          2   -1    0    0  501    0  0.00000000000E+00 -0.00000000000E+00 -0.12640444515E+01  0.12640471254E+01  0.26000000000E-02 0.  1.
       1023    2    1    2    0    0  0.00000000000E+00  0.00000000000E+00  0.77859066958E+02  0.80387158578E+02  0.20001523857E+02 0.  0.
        -13    1    3    3    0    0 -0.65000692299E+01  0.75995468971E+01  0.38900101189E+02  0.40165072614E+02  0.10570000000E+00 0. -1.
         13    1    3    3    0    0  0.65000692299E+01 -0.75995468971E+01  0.38958965769E+02  0.40222085964E+02  0.10570000000E+00 0.  1.
<mgrwt>
<rscale>  0 0.20001524E+02</rscale>
<asrwt>0</asrwt>
<pdfrwt beam="2">  1        2 0.19446858E-03 0.20001524E+02</pdfrwt>
<pdfrwt beam="1">  1       -2 0.12172787E-01 0.20001524E+02</pdfrwt>
<totfact> 0.31323143E+06</totfact>
</mgrwt>
</event>
<event>
 5    1  0.1607476E-006  0.2000483E+02  0.7818608E-02  0.1745232E+00
          2   -1    0    0  501    0  0.00000000000E+00  0.00000000000E+00  0.35974517411E+02  0.35974517505E+02  0.26000000000E-02 0.  1.
         -2   -1    0    0    0  501 -0.00000000000E+00 -0.00000000000E+00 -0.27810871458E+01  0.27810883611E+01  0.26000000000E-02 0. -1.
       1023    2    1    2    0    0  0.00000000000E+00  0.00000000000E+00  0.33193430265E+02  0.38755605866E+02  0.20004828749E+02 0.  0.
        -13    1    3    3    0    0  0.71189309764E+01 -0.70249613206E+01  0.16424948316E+02  0.19230687962E+02  0.10570000000E+00 0. -1.
         13    1    3    3    0    0 -0.71189309764E+01  0.70249613206E+01  0.16768481949E+02  0.19524917904E+02  0.10570000000E+00 0.  1.
<mgrwt>
<rscale>  0 0.20004829E+02</rscale>
<asrwt>0</asrwt>
<pdfrwt beam="1">  1        2 0.55345414E-02 0.20004829E+02</pdfrwt>
<pdfrwt beam="2">  1       -2 0.42785965E-03 0.20004829E+02</pdfrwt>
<totfact> 0.44272828E+06</totfact>
</mgrwt>
</event>
<event>
 5    1  0.1607476E-006  0.2000722E+02  0.7818608E-02  0.1745185E+00
         -2   -1    0    0    0  501 -0.00000000000E+00  0.00000000000E+00  0.15119553366E+02  0.15119553589E+02  0.26000000000E-02 0.  1.
          2   -1    0    0  501    0  0.00000000000E+00 -0.00000000000E+00 -0.66187269621E+01  0.66187274728E+01  0.26000000000E-02 0. -1.
       1023    2    1    2    0    0  0.00000000000E+00  0.00000000000E+00  0.85008264037E+01  0.21738281062E+02  0.20007219047E+02 0.  0.
        -13    1    3    3    0    0  0.57403027049E+01  0.81915313462E+01  0.41486619097E+01  0.10829350353E+02  0.10570000000E+00 0. -1.
         13    1    3    3    0    0 -0.57403027049E+01 -0.81915313462E+01  0.43521644940E+01  0.10908930709E+02  0.10570000000E+00 0.  1.
<mgrwt>
<rscale>  0 0.20007219E+02</rscale>
<asrwt>0</asrwt>
<pdfrwt beam="2">  1        2 0.10182658E-02 0.20007219E+02</pdfrwt>
<pdfrwt beam="1">  1       -2 0.23260852E-02 0.20007219E+02</pdfrwt>
<totfact> 0.38244696E+06</totfact>
</mgrwt>
</event>
<event>
 5    1  0.1607476E-006  0.2000702E+02  0.7818608E-02  0.1745189E+00
          2   -1    0    0  501    0  0.00000000000E+00  0.00000000000E+00  0.10499892615E+03  0.10499892618E+03  0.26000000000E-02 0. -1.
         -2   -1    0    0    0  501 -0.00000000000E+00 -0.00000000000E+00 -0.95305749977E+00  0.95306104625E+00  0.26000000000E-02 0.  1.
       1023    2    1    2    0    0  0.00000000000E+00  0.00000000000E+00  0.10404586865E+03  0.10595198723E+03  0.20007019130E+02 0.  0.
        -13    1    3    3    0    0 -0.33636311650E+01 -0.94203232870E+01  0.52289077848E+02  0.53237349109E+02  0.10570000000E+00 0. -1.
         13    1    3    3    0    0  0.33636311650E+01  0.94203232870E+01  0.51756790799E+02  0.52714638117E+02  0.10570000000E+00 0.  1.
<mgrwt>
<rscale>  0 0.20007019E+02</rscale>
<asrwt>0</asrwt>
<pdfrwt beam="1">  1        2 0.16153681E-01 0.20007019E+02</pdfrwt>
<pdfrwt beam="2">  1       -2 0.14662450E-03 0.20007019E+02</pdfrwt>
<totfact> 0.53311324E+06</totfact>
</mgrwt>
</event>
<event>
 4    1  0.1607476E-006  0.2003415E+02  0.7818608E-02  0.1744650E+00
          2   -1    0    0  501    0  0.00000000000E+00  0.00000000000E+00  0.47061797120E+02  0.47061797191E+02  0.26000000000E-02 0.  1.
         -2   -1    0    0    0  501 -0.00000000000E+00 -0.00000000000E+00 -0.21321264652E+01  0.21321280505E+01  0.26000000000E-02 0. -1.
        -13    1    1    2    0    0  0.96978518067E+01  0.24410375731E+01  0.23861620737E+02  0.25872671118E+02  0.10570000000E+00 0. -1.
         13    1    1    2    0    0 -0.96978518067E+01 -0.24410375731E+01  0.21068049918E+02  0.23321254124E+02  0.10570000000E+00 0.  1.
<mgrwt>
<rscale>  0 0.20034145E+02</rscale>
<asrwt>0</asrwt>
<pdfrwt beam="1">  1        2 0.72402766E-02 0.20034145E+02</pdfrwt>
<pdfrwt beam="2">  1       -2 0.32801958E-03 0.20034145E+02</pdfrwt>
<totfact> 0.45740528E+06</totfact>
</mgrwt>
</event>
<event>
 5    1  0.1607476E-006  0.2000241E+02  0.7818608E-02  0.1745280E+00
         -2   -1    0    0    0  501 -0.00000000000E+00  0.00000000000E+00  0.13244473549E+01  0.13244499069E+01  0.26000000000E-02 0. -1.
          2   -1    0    0  501    0  0.00000000000E+00 -0.00000000000E+00 -0.75521301136E+02  0.75521301181E+02  0.26000000000E-02 0.  1.
       1023    2    1    2    0    0  0.00000000000E+00  0.00000000000E+00 -0.74196853781E+02  0.76845751087E+02  0.20002408585E+02 0.  0.
        -13    1    3    3    0    0  0.98925137300E+01  0.14654714492E+01 -0.36871780539E+02  0.38204041763E+02  0.10570000000E+00 0. -1.
         13    1    3    3    0    0 -0.98925137300E+01 -0.14654714492E+01 -0.37325073242E+02  0.38641709324E+02  0.10570000000E+00 0.  1.
<mgrwt>
<rscale>  0 0.20002409E+02</rscale>
<asrwt>0</asrwt>
<pdfrwt beam="2">  1        2 0.11618659E-01 0.20002409E+02</pdfrwt>
<pdfrwt beam="1">  1       -2 0.20376139E-03 0.20002409E+02</pdfrwt>
<totfact> 0.49717960E+06</totfact>
</mgrwt>
</event>
<event>
 5    1  0.1607476E-006  0.2000376E+02  0.7818608E-02  0.1745253E+00
          2   -1    0    0  501    0  0.00000000000E+00  0.00000000000E+00  0.20424935666E+02  0.20424935832E+02  0.26000000000E-02 0. -1.
         -2   -1    0    0    0  501 -0.00000000000E+00 -0.00000000000E+00 -0.48978148987E+01  0.48978155888E+01  0.26000000000E-02 0.  1.
       1023    2    1    2    0    0  0.00000000000E+00  0.00000000000E+00  0.15527120768E+02  0.25322751420E+02  0.20003756152E+02 0.  0.
        -13    1    3    3    0    0  0.44035242317E+01 -0.89796828093E+01  0.77961689794E+01  0.12681370283E+02  0.10570000000E+00 0.  1.
         13    1    3    3    0    0 -0.44035242317E+01  0.89796828093E+01  0.77309517881E+01  0.12641381137E+02  0.10570000000E+00 0. -1.
<mgrwt>
<rscale>  0 0.20003756E+02</rscale>
<asrwt>0</asrwt>
<pdfrwt beam="1">  1        2 0.31422978E-02 0.20003756E+02</pdfrwt>
<pdfrwt beam="2">  1       -2 0.75351008E-03 0.20003756E+02</pdfrwt>
<totfact> 0.41738261E+06</totfact>
</mgrwt>
</event>
<event>
 4    1  0.1607476E-006  0.2002924E+02  0.7818608E-02  0.1744747E+00
          2   -1    0    0  501    0  0.00000000000E+00  0.00000000000E+00  0.89303412550E+02  0.89303412588E+02  0.26000000000E-02 0. -1.
         -2   -1    0    0    0  501 -0.00000000000E+00 -0.00000000000E+00 -0.11230532956E+01  0.11230563052E+01  0.26000000000E-02 0.  1.
        -13    1    1    2    0    0  0.88044493675E+01  0.47530209315E+01  0.45962132050E+02  0.47038689307E+02  0.10570000000E+00 0. -1.
         13    1    1    2    0    0 -0.88044493675E+01 -0.47530209315E+01  0.42218227205E+02  0.43387779586E+02  0.10570000000E+00 0.  1.
<mgrwt>
<rscale>  0 0.20029242E+02</rscale>
<asrwt>0</asrwt>
<pdfrwt beam="1">  1        2 0.13738984E-01 0.20029242E+02</pdfrwt>
<pdfrwt beam="2">  1       -2 0.17277770E-03 0.20029242E+02</pdfrwt>
<totfact> 0.51293102E+06</totfact>
</mgrwt>
</event>
<event>
 4    1  0.1607476E-006  0.2001389E+02  0.7818608E-02  0.1745052E+00
         -2   -1    0    0    0  501 -0.00000000000E+00  0.00000000000E+00  0.31990369512E+01  0.31990380078E+01  0.26000000000E-02 0.  1.
          2   -1    0    0  501    0  0.00000000000E+00 -0.00000000000E+00 -0.31302829425E+02  0.31302829533E+02  0.26000000000E-02 0. -1.
        -13    1    1    2    0    0 -0.99158939520E+01  0.13358774245E+01 -0.13819111192E+02  0.17061316713E+02  0.10570000000E+00 0. -1.
         13    1    1    2    0    0  0.99158939520E+01 -0.13358774245E+01 -0.14284681282E+02  0.17440550828E+02  0.10570000000E+00 0.  1.
<mgrwt>
<rscale>  0 0.20013888E+02</rscale>
<asrwt>0</asrwt>
<pdfrwt beam="2">  1        2 0.48158198E-02 0.20013888E+02</pdfrwt>
<pdfrwt beam="1">  1       -2 0.49215964E-03 0.20013888E+02</pdfrwt>
<totfact> 0.43510950E+06</totfact>
</mgrwt>
</event>
<event>
 4    1  0.1607476E-006  0.2003171E+02  0.7818608E-02  0.1744698E+00
         -2   -1    0    0    0  501 -0.00000000000E+00  0.00000000000E+00  0.64328884287E+01  0.64328889541E+01  0.26000000000E-02 0.  1.
          2   -1    0    0  501    0  0.00000000000E+00 -0.00000000000E+00 -0.15594440929E+02  0.15594441145E+02  0.26000000000E-02 0. -1.
        -13    1    1    2    0    0  0.51186415105E+01 -0.86056662293E+01 -0.43394794025E+01  0.10913305463E+02  0.10570000000E+00 0.  1.
         13    1    1    2    0    0 -0.51186415105E+01  0.86056662293E+01 -0.48220730973E+01  0.11114024636E+02  0.10570000000E+00 0. -1.
<mgrwt>
<rscale>  0 0.20031706E+02</rscale>
<asrwt>0</asrwt>
<pdfrwt beam="2">  1        2 0.23991448E-02 0.20031706E+02</pdfrwt>
<pdfrwt beam="1">  1       -2 0.98967520E-03 0.20031706E+02</pdfrwt>
<totfact> 0.40669565E+06</totfact>
</mgrwt>
</event>
<event>
 5    1  0.1607476E-006  0.2000341E+02  0.7818608E-02  0.1745260E+00
         -2   -1    0    0    0  501 -0.00000000000E+00  0.00000000000E+00  0.10591624839E+02  0.10591625158E+02  0.26000000000E-02 0. -1.
          2   -1    0    0  501    0  0.00000000000E+00 -0.00000000000E+00 -0.94446406216E+01  0.94446409795E+01  0.26000000000E-02 0.  1.
       1023    2    1    2    0    0  0.00000000000E+00  0.00000000000E+00  0.11469842169E+01  0.20036266137E+02  0.20003409408E+02 0.  0.
        -13    1    3    3    0    0  0.81224856614E+01 -0.58345711651E+01  0.49635593291E+00  0.10013717377E+02  0.10570000000E+00 0. -1.
         13    1    3    3    0    0 -0.81224856614E+01  0.58345711651E+01  0.65062828400E+00  0.10022548760E+02  0.10570000000E+00 0.  1.
<mgrwt>
<rscale>  0 0.20003409E+02</rscale>
<asrwt>0</asrwt>
<pdfrwt beam="2">  1        2 0.14530217E-02 0.20003409E+02</pdfrwt>
<pdfrwt beam="1">  1       -2 0.16294808E-02 0.20003409E+02</pdfrwt>
<totfact> 0.39283156E+06</totfact>
</mgrwt>
</event>
<event>
 5    1  0.1607476E-006  0.2000131E+02  0.7818608E-02  0.1745302E+00
         -2   -1    0    0    0  501 -0.00000000000E+00  0.00000000000E+00  0.11881694164E+02  0.11881694449E+02  0.26000000000E-02 0. -1.
          2   -1    0    0  501    0  0.00000000000E+00 -0.00000000000E+00 -0.84174094573E+01  0.84174098588E+01  0.26000000000E-02 0.  1.
       1023    2    1    2    0    0  0.00000000000E+00  0.00000000000E+00  0.34642847071E+01  0.20299104308E+02  0.20001309136E+02 0.  0.
        -13    1    3    3    0    0 -0.89817576250E+01 -0.43965632067E+01  0.17184794931E+01  0.10147220423E+02  0.10570000000E+00 0.  1.
         13    1    3    3    0    0  0.89817576250E+01  0.43965632067E+01  0.17458052141E+01  0.10151883884E+02  0.10570000000E+00 0. -1.
<mgrwt>
<rscale>  0 0.20001309E+02</rscale>
<asrwt>0</asrwt>
<pdfrwt beam="2">  1        2 0.12949861E-02 0.20001309E+02</pdfrwt>
<pdfrwt beam="1">  1       -2 0.18279530E-02 0.20001309E+02</pdfrwt>
<totfact> 0.38962708E+06</totfact>
</mgrwt>
</event>
<event>
 5    1  0.1607476E-006  0.2000607E+02  0.7818608E-02  0.1745207E+00
         -2   -1    0    0    0  501 -0.00000000000E+00  0.00000000000E+00  0.10120664681E+01  0.10120698078E+01  0.26000000000E-02 0.  1.
          2   -1    0    0  501    0  0.00000000000E+00 -0.00000000000E+00 -0.98867516672E+02  0.98867516706E+02  0.26000000000E-02 0. -1.
       1023    2    1    2    0    0  0.00000000000E+00  0.00000000000E+00 -0.97855450204E+02  0.99879586514E+02  0.20006065770E+02 0.  0.
        -13    1    3    3    0    0 -0.71245080091E+01 -0.70201215921E+01 -0.49395337292E+02  0.50397928928E+02  0.10570000000E+00 0.  1.
         13    1    3    3    0    0  0.71245080091E+01  0.70201215921E+01 -0.48460112912E+02  0.49481657586E+02  0.10570000000E+00 0. -1.
<mgrwt>
<rscale>  0 0.20006066E+02</rscale>
<asrwt>0</asrwt>
<pdfrwt beam="2">  1        2 0.15210380E-01 0.20006066E+02</pdfrwt>
<pdfrwt beam="1">  1       -2 0.15570287E-03 0.20006066E+02</pdfrwt>
<totfact> 0.52586930E+06</totfact>
</mgrwt>
</event>
<event>
 5    1  0.1607476E-006  0.2000341E+02  0.7818608E-02  0.1745260E+00
         -2   -1    0    0    0  501 -0.00000000000E+00  0.00000000000E+00  0.27924793870E+01  0.27924805974E+01  0.26000000000E-02 0.  1.
          2   -1    0    0  501    0  0.00000000000E+00 -0.00000000000E+00 -0.35822670180E+02  0.35822670275E+02  0.26000000000E-02 0. -1.
       1023    2    1    2    0    0  0.00000000000E+00  0.00000000000E+00 -0.33030190793E+02  0.38615150872E+02  0.20003409035E+02 0.  0.
        -13    1    3    3    0    0 -0.72744960016E+01 -0.68632079496E+01 -0.16576303459E+02  0.19359930895E+02  0.10570000000E+00 0. -1.
         13    1    3    3    0    0  0.72744960016E+01  0.68632079496E+01 -0.16453887335E+02  0.19255219977E+02  0.10570000000E+00 0.  1.
<mgrwt>
<rscale>  0 0.20003409E+02</rscale>
<asrwt>0</asrwt>
<pdfrwt beam="2">  1        2 0.55111798E-02 0.20003409E+02</pdfrwt>
<pdfrwt beam="1">  1       -2 0.42961234E-03 0.20003409E+02</pdfrwt>
<totfact> 0.44256925E+06</totfact>
</mgrwt>
</event>
<event>
 5    1  0.1607476E-006  0.2000185E+02  0.7818608E-02  0.1745291E+00
         -2   -1    0    0    0  501 -0.00000000000E+00  0.00000000000E+00  0.13794350353E+02  0.13794350598E+02  0.26000000000E-02 0. -1.
          2   -1    0    0  501    0  0.00000000000E+00 -0.00000000000E+00 -0.72506836110E+01  0.72506840771E+01  0.26000000000E-02 0.  1.
       1023    2    1    2    0    0  0.00000000000E+00  0.00000000000E+00  0.65436667423E+01  0.21045034675E+02  0.20001847666E+02 0.  0.
        -13    1    3    3    0    0  0.84676475733E+01 -0.53202972626E+01  0.32994037642E+01  0.10531089976E+02  0.10570000000E+00 0.  1.
         13    1    3    3    0    0 -0.84676475733E+01  0.53202972626E+01  0.32442629782E+01  0.10513944700E+02  0.10570000000E+00 0. -1.
<mgrwt>
<rscale>  0 0.20001848E+02</rscale>
<asrwt>0</asrwt>
<pdfrwt beam="2">  1        2 0.11154898E-02 0.20001848E+02</pdfrwt>
<pdfrwt beam="1">  1       -2 0.21222078E-02 0.20001848E+02</pdfrwt>
<totfact> 0.38532572E+06</totfact>
</mgrwt>
</event>
<event>
 4    1  0.1607476E-006  0.2007702E+02  0.7818608E-02  0.1743801E+00
          2   -1    0    0  501    0  0.00000000000E+00  0.00000000000E+00  0.95177894619E+00  0.95178249743E+00  0.26000000000E-02 0. -1.
         -2   -1    0    0    0  501 -0.00000000000E+00 -0.00000000000E+00 -0.10587699716E+03  0.10587699719E+03  0.26000000000E-02 0.  1.
        -13    1    1    2    0    0 -0.94753659358E+01 -0.32886725874E+01 -0.54608136973E+02  0.55521686962E+02  0.10570000000E+00 0. -1.
         13    1    1    2    0    0  0.94753659358E+01  0.32886725874E+01 -0.50317081242E+02  0.51307092728E+02  0.10570000000E+00 0.  1.
<mgrwt>
<rscale>  0 0.20077021E+02</rscale>
<asrwt>0</asrwt>
<pdfrwt beam="1">  1        2 0.14642789E-03 0.20077021E+02</pdfrwt>
<pdfrwt beam="2">  1       -2 0.16288760E-01 0.20077021E+02</pdfrwt>
<totfact> 0.29064720E+06</totfact>
</mgrwt>
</event>
<event>
 5    1  0.1607476E-006  0.2000566E+02  0.7818608E-02  0.1745216E+00
         -2   -1    0    0    0  501 -0.00000000000E+00  0.00000000000E+00  0.33614653804E+02  0.33614653905E+02  0.26000000000E-02 0. -1.
          2   -1    0    0  501    0  0.00000000000E+00 -0.00000000000E+00 -0.29765754001E+01  0.29765765357E+01  0.26000000000E-02 0.  1.
       1023    2    1    2    0    0  0.00000000000E+00  0.00000000000E+00  0.30638078404E+02  0.36591230440E+02  0.20005656621E+02 0.  0.
        -13    1    3    3    0    0  0.55845638535E+01 -0.82965747068E+01  0.15030441628E+02  0.18053970570E+02  0.10570000000E+00 0.  1.
         13    1    3    3    0    0 -0.55845638535E+01  0.82965747068E+01  0.15607636775E+02  0.18537259870E+02  0.10570000000E+00 0. -1.
<mgrwt>
<rscale>  0 0.20005657E+02</rscale>
<asrwt>0</asrwt>
<pdfrwt beam="2">  1        2 0.45793473E-03 0.20005657E+02</pdfrwt>
<pdfrwt beam="1">  1       -2 0.51714858E-02 0.20005657E+02</pdfrwt>
<totfact> 0.35610400E+06</totfact>
</mgrwt>
</event>
<event>
 5    1  0.1607476E-006  0.2000138E+02  0.7818608E-02  0.1745301E+00
         -2   -1    0    0    0  501 -0.00000000000E+00  0.00000000000E+00  0.19488570496E+02  0.19488570670E+02  0.26000000000E-02 0.  1.
          2   -1    0    0  501    0  0.00000000000E+00 -0.00000000000E+00 -0.51319203096E+01  0.51319209682E+01  0.26000000000E-02 0. -1.
       1023    2    1    2    0    0  0.00000000000E+00  0.00000000000E+00  0.14356650187E+02  0.24620491638E+02  0.20001380050E+02 0.  0.
        -13    1    3    3    0    0 -0.55842238993E+01 -0.82955859638E+01  0.71189656405E+01  0.12275632257E+02  0.10570000000E+00 0.  1.
         13    1    3    3    0    0  0.55842238993E+01  0.82955859638E+01  0.72376845461E+01  0.12344859380E+02  0.10570000000E+00 0. -1.
<mgrwt>
<rscale>  0 0.20001380E+02</rscale>
<asrwt>0</asrwt>
<pdfrwt beam="2">  1        2 0.78952625E-03 0.20001380E+02</pdfrwt>
<pdfrwt beam="1">  1       -2 0.29982417E-02 0.20001380E+02</pdfrwt>
<totfact> 0.37508835E+06</totfact>
</mgrwt>
</event>
<event>
 4    1  0.1607476E-006  0.2023356E+02  0.7818608E-02  0.1740723E+00
         -2   -1    0    0    0  501 -0.00000000000E+00  0.00000000000E+00  0.33240771249E+01  0.33240781417E+01  0.26000000000E-02 0. -1.
          2   -1    0    0  501    0  0.00000000000E+00 -0.00000000000E+00 -0.30790273244E+02  0.30790273353E+02  0.26000000000E-02 0.  1.
        -13    1    1    2    0    0 -0.97241763552E+01  0.27288017463E+01 -0.14704760696E+02  0.17839482178E+02  0.10570000000E+00 0. -1.
         13    1    1    2    0    0  0.97241763552E+01 -0.27288017463E+01 -0.12761435423E+02  0.16274869317E+02  0.10570000000E+00 0.  1.
<mgrwt>
<rscale>  0 0.20233562E+02</rscale>
<asrwt>0</asrwt>
<pdfrwt beam="2">  1        2 0.47369650E-02 0.20233562E+02</pdfrwt>
<pdfrwt beam="1">  1       -2 0.51139659E-03 0.20233562E+02</pdfrwt>
<totfact> 0.42380029E+06</totfact>
</mgrwt>
</event>
<event>
 5    1  0.1607476E-006  0.2000173E+02  0.7818608E-02  0.1745294E+00
          2   -1    0    0  501    0  0.00000000000E+00  0.00000000000E+00  0.22685198331E+02  0.22685198480E+02  0.26000000000E-02 0. -1.
         -2   -1    0    0    0  501 -0.00000000000E+00 -0.00000000000E+00 -0.44089210469E+01  0.44089218136E+01  0.26000000000E-02 0.  1.
       1023    2    1    2    0    0  0.00000000000E+00  0.00000000000E+00  0.18276277284E+02  0.27094120293E+02  0.20001726003E+02 0.  0.
        -13    1    3    3    0    0  0.80224781696E+01  0.59703151505E+01  0.90898781720E+01  0.13514506156E+02  0.10570000000E+00 0. -1.
         13    1    3    3    0    0 -0.80224781696E+01 -0.59703151505E+01  0.91863991116E+01  0.13579614137E+02  0.10570000000E+00 0.  1.
<mgrwt>
<rscale>  0 0.20001726E+02</rscale>
<asrwt>0</asrwt>
<pdfrwt beam="1">  1        2 0.34900306E-02 0.20001726E+02</pdfrwt>
<pdfrwt beam="2">  1       -2 0.67829561E-03 0.20001726E+02</pdfrwt>
<totfact> 0.42151242E+06</totfact>
</mgrwt>
</event>
<event>
 4    1  0.1607476E-006  0.2003426E+02  0.7818608E-02  0.1744648E+00
         -2   -1    0    0    0  501 -0.00000000000E+00  0.00000000000E+00  0.85418781563E+02  0.85418781602E+02  0.26000000000E-02 0.  1.
          2   -1    0    0  501    0  0.00000000000E+00 -0.00000000000E+00 -0.11747154913E+01  0.11747183686E+01  0.26000000000E-02 0. -1.
        -13    1    1    2    0    0 -0.37284940538E+01  0.92945552761E+01  0.41243706961E+02  0.42442254441E+02  0.10570000000E+00 0. -1.
         13    1    1    2    0    0  0.37284940538E+01 -0.92945552761E+01  0.43000359110E+02  0.44151245529E+02  0.10570000000E+00 0.  1.
<mgrwt>
<rscale>  0 0.20034260E+02</rscale>
<asrwt>0</asrwt>
<pdfrwt beam="2">  1        2 0.18072563E-03 0.20034260E+02</pdfrwt>
<pdfrwt beam="1">  1       -2 0.13141355E-01 0.20034260E+02</pdfrwt>
<totfact> 0.30714102E+06</totfact>
</mgrwt>
</event>
<event>
 4    1  0.1607476E-006  0.2001286E+02  0.7818608E-02  0.1745073E+00
          2   -1    0    0  501    0  0.00000000000E+00  0.00000000000E+00  0.15212964805E+02  0.15212965027E+02  0.26000000000E-02 0.  1.
         -2   -1    0    0    0  501 -0.00000000000E+00 -0.00000000000E+00 -0.65817928879E+01  0.65817934014E+01  0.26000000000E-02 0. -1.
        -13    1    1    2    0    0 -0.94712391354E+01 -0.32269151844E+01  0.43244811607E+01  0.10900901897E+02  0.10570000000E+00 0. -1.
         13    1    1    2    0    0  0.94712391354E+01  0.32269151844E+01  0.43066907559E+01  0.10893856531E+02  0.10570000000E+00 0.  1.
<mgrwt>
<rscale>  0 0.20012855E+02</rscale>
<asrwt>0</asrwt>
<pdfrwt beam="1">  1        2 0.23404562E-02 0.20012855E+02</pdfrwt>
<pdfrwt beam="2">  1       -2 0.10125836E-02 0.20012855E+02</pdfrwt>
<totfact> 0.40675854E+06</totfact>
</mgrwt>
</event>
<event>
 4    1  0.1607476E-006  0.2001715E+02  0.7818608E-02  0.1744987E+00
         -2   -1    0    0    0  501 -0.00000000000E+00  0.00000000000E+00  0.13207136867E+01  0.13207162459E+01  0.26000000000E-02 0. -1.
          2   -1    0    0  501    0  0.00000000000E+00 -0.00000000000E+00 -0.75846436241E+02  0.75846436285E+02  0.26000000000E-02 0.  1.
        -13    1    1    2    0    0 -0.95896853366E+01  0.28409641648E+01 -0.38637835810E+02  0.39911485450E+02  0.10570000000E+00 0. -1.
         13    1    1    2    0    0  0.95896853366E+01 -0.28409641648E+01 -0.35887886744E+02  0.37255667081E+02  0.10570000000E+00 0.  1.
<mgrwt>
<rscale>  0 0.20017145E+02</rscale>
<asrwt>0</asrwt>
<pdfrwt beam="2">  1        2 0.11668679E-01 0.20017145E+02</pdfrwt>
<pdfrwt beam="1">  1       -2 0.20318698E-03 0.20017145E+02</pdfrwt>
<totfact> 0.49678359E+06</totfact>
</mgrwt>
</event>
<event>
 5    1  0.1607476E-006  0.2000292E+02  0.7818608E-02  0.1745270E+00
         -2   -1    0    0    0  501 -0.00000000000E+00  0.00000000000E+00  0.52891884797E+02  0.52891884861E+02  0.26000000000E-02 0.  1.
          2   -1    0    0  501    0  0.00000000000E+00 -0.00000000000E+00 -0.18912009817E+01  0.18912027689E+01  0.26000000000E-02 0. -1.
       1023    2    1    2    0    0  0.00000000000E+00  0.00000000000E+00  0.51000683815E+02  0.54783087630E+02  0.20002923302E+02 0.  0.
        -13    1    3    3    0    0 -0.54121367329E+00 -0.99861532334E+01  0.25381150261E+02  0.27280581550E+02  0.10570000000E+00 0. -1.
         13    1    3    3    0    0  0.54121367329E+00  0.99861532334E+01  0.25619533554E+02  0.27502506080E+02  0.10570000000E+00 0.  1.
<mgrwt>
<rscale>  0 0.20002923E+02</rscale>
<asrwt>0</asrwt>
<pdfrwt beam="2">  1        2 0.29095415E-03 0.20002923E+02</pdfrwt>
<pdfrwt beam="1">  1       -2 0.81372128E-02 0.20002923E+02</pdfrwt>
<totfact> 0.33609132E+06</totfact>
</mgrwt>
</event>
<event>
 4    1  0.1607476E-006  0.2001496E+02  0.7818608E-02  0.1745031E+00
         -2   -1    0    0    0  501 -0.00000000000E+00  0.00000000000E+00  0.12991104916E+02  0.12991105176E+02  0.26000000000E-02 0.  1.
          2   -1    0    0  501    0  0.00000000000E+00 -0.00000000000E+00 -0.77090943089E+01  0.77090947473E+01  0.26000000000E-02 0. -1.
        -13    1    1    2    0    0  0.98346197539E+01  0.18178063884E+01  0.29906964226E+01  0.10439329641E+02  0.10570000000E+00 0.  1.
         13    1    1    2    0    0 -0.98346197539E+01 -0.18178063884E+01  0.22913141842E+01  0.10260870282E+02  0.10570000000E+00 0. -1.
<mgrwt>
<rscale>  0 0.20014960E+02</rscale>
<asrwt>0</asrwt>
<pdfrwt beam="2">  1        2 0.11860146E-02 0.20014960E+02</pdfrwt>
<pdfrwt beam="1">  1       -2 0.19986316E-02 0.20014960E+02</pdfrwt>
<totfact> 0.38650449E+06</totfact>
</mgrwt>
</event>
<event>
 4    1  0.1607476E-006  0.2001449E+02  0.7818608E-02  0.1745040E+00
          2   -1    0    0  501    0  0.00000000000E+00  0.00000000000E+00  0.22577129292E+02  0.22577129442E+02  0.26000000000E-02 0.  1.
         -2   -1    0    0    0  501 -0.00000000000E+00 -0.00000000000E+00 -0.44356803123E+01  0.44356810743E+01  0.26000000000E-02 0. -1.
        -13    1    1    2    0    0 -0.72502134024E+00  0.99790592678E+01  0.92903835887E+01  0.13653925426E+02  0.10570000000E+00 0. -1.
         13    1    1    2    0    0  0.72502134024E+00 -0.99790592678E+01  0.88510653913E+01  0.13358885091E+02  0.10570000000E+00 0.  1.
<mgrwt>
<rscale>  0 0.20014489E+02</rscale>
<asrwt>0</asrwt>
<pdfrwt beam="1">  1        2 0.34734045E-02 0.20014489E+02</pdfrwt>
<pdfrwt beam="2">  1       -2 0.68241244E-03 0.20014489E+02</pdfrwt>
<totfact> 0.42071907E+06</totfact>
</mgrwt>
</event>
<event>
 5    1  0.2699109E-006  0.2000212E+02  0.7818608E-02  0.1745286E+00
          2   -1    0    0  501    0  0.00000000000E+00  0.00000000000E+00  0.11561590047E+03  0.11561590050E+03  0.26000000000E-02 0.  1.
         -2   -1    0    0    0  501 -0.00000000000E+00 -0.00000000000E+00 -0.86511471776E+00  0.86511862475E+00  0.26000000000E-02 0. -1.
       1023    2    1    2    0    0  0.00000000000E+00  0.00000000000E+00  0.11475078575E+03  0.11648101912E+03  0.20002124522E+02 0.  0.
        -13    1    3    3    0    0 -0.36644167952E+00 -0.99936041175E+01  0.57728232334E+02  0.58588107869E+02  0.10570000000E+00 0. -1.
         13    1    3    3    0    0  0.36644167952E+00  0.99936041175E+01  0.57022553418E+02  0.57892911255E+02  0.10570000000E+00 0.  1.
<mgrwt>
<rscale>  0 0.20002125E+02</rscale>
<asrwt>0</asrwt>
<pdfrwt beam="1">  1        2 0.17787049E-01 0.20002125E+02</pdfrwt>
<pdfrwt beam="2">  1       -2 0.13309497E-03 0.20002125E+02</pdfrwt>
<totfact> 0.54577502E+06</totfact>
</mgrwt>
</event>
<event>
 5    1  0.1607476E-006  0.2000302E+02  0.7818608E-02  0.1745268E+00
          2   -1    0    0  501    0  0.00000000000E+00  0.00000000000E+00  0.20154378105E+02  0.20154378273E+02  0.26000000000E-02 0. -1.
         -2   -1    0    0    0  501 -0.00000000000E+00 -0.00000000000E+00 -0.49631986733E+01  0.49631993544E+01  0.26000000000E-02 0.  1.
       1023    2    1    2    0    0  0.00000000000E+00  0.00000000000E+00  0.15191179431E+02  0.25117577627E+02  0.20003019105E+02 0.  0.
        -13    1    3    3    0    0  0.22549473719E+01 -0.97433404234E+01  0.75461438617E+01  0.12528883826E+02  0.10570000000E+00 0. -1.
         13    1    3    3    0    0 -0.22549473719E+01  0.97433404234E+01  0.76450355698E+01  0.12588693801E+02  0.10570000000E+00 0.  1.
<mgrwt>
<rscale>  0 0.20003019E+02</rscale>
<asrwt>0</asrwt>
<pdfrwt beam="1">  1        2 0.31006737E-02 0.20003019E+02</pdfrwt>
<pdfrwt beam="2">  1       -2 0.76356908E-03 0.20003019E+02</pdfrwt>
<totfact> 0.41692200E+06</totfact>
</mgrwt>
</event>
<event>
 5    1  0.1607476E-006  0.2000748E+02  0.7818608E-02  0.1745179E+00
         -2   -1    0    0    0  501 -0.00000000000E+00  0.00000000000E+00  0.32008275135E+01  0.32008285695E+01  0.26000000000E-02 0.  1.
          2   -1    0    0  501    0  0.00000000000E+00 -0.00000000000E+00 -0.31265296050E+02  0.31265296158E+02  0.26000000000E-02 0. -1.
       1023    2    1    2    0    0  0.00000000000E+00  0.00000000000E+00 -0.28064468536E+02  0.34466124727E+02  0.20007482588E+02 0.  0.
        -13    1    3    3    0    0 -0.18676540126E+01  0.98267446261E+01 -0.13854658617E+02  0.17088469192E+02  0.10570000000E+00 0. -1.
         13    1    3    3    0    0  0.18676540126E+01 -0.98267446261E+01 -0.14209809919E+02  0.17377655535E+02  0.10570000000E+00 0.  1.
<mgrwt>
<rscale>  0 0.20007483E+02</rscale>
<asrwt>0</asrwt>
<pdfrwt beam="2">  1        2 0.48100454E-02 0.20007483E+02</pdfrwt>
<pdfrwt beam="1">  1       -2 0.49243511E-03 0.20007483E+02</pdfrwt>
<totfact> 0.43536287E+06</totfact>
</mgrwt>
</event>
<event>
 5    1  0.1607476E-006  0.2001074E+02  0.7818608E-02  0.1745114E+00
         -2   -1    0    0    0  501 -0.00000000000E+00  0.00000000000E+00  0.30986560769E+01  0.30986571677E+01  0.26000000000E-02 0.  1.
          2   -1    0    0  501    0  0.00000000000E+00 -0.00000000000E+00 -0.32306734001E+02  0.32306734106E+02  0.26000000000E-02 0. -1.
       1023    2    1    2    0    0  0.00000000000E+00  0.00000000000E+00 -0.29208077924E+02  0.35405391273E+02  0.20010744994E+02 0.  0.
        -13    1    3    3    0    0 -0.59781331605E+01  0.80215904895E+01 -0.14407682470E+02  0.17540709128E+02  0.10570000000E+00 0. -1.
         13    1    3    3    0    0  0.59781331605E+01 -0.80215904895E+01 -0.14800395454E+02  0.17864682145E+02  0.10570000000E+00 0.  1.
<mgrwt>
<rscale>  0 0.20010745E+02</rscale>
<asrwt>0</asrwt>
<pdfrwt beam="2">  1        2 0.49702666E-02 0.20010745E+02</pdfrwt>
<pdfrwt beam="1">  1       -2 0.47671643E-03 0.20010745E+02</pdfrwt>
<totfact> 0.43682721E+06</totfact>
</mgrwt>
</event>
<event>
 5    1  0.1607476E-006  0.2000995E+02  0.7818608E-02  0.1745130E+00
         -2   -1    0    0    0  501 -0.00000000000E+00  0.00000000000E+00  0.96429222846E+00  0.96429573361E+00  0.26000000000E-02 0. -1.
          2   -1    0    0  501    0  0.00000000000E+00 -0.00000000000E+00 -0.10380600315E+03  0.10380600318E+03  0.26000000000E-02 0.  1.
       1023    2    1    2    0    0  0.00000000000E+00  0.00000000000E+00 -0.10284171092E+03  0.10477029892E+03  0.20009948269E+02 0.  0.
        -13    1    3    3    0    0 -0.25123322634E+01  0.96829631811E+01 -0.50743304153E+02  0.51720070362E+02  0.10570000000E+00 0. -1.
         13    1    3    3    0    0  0.25123322634E+01 -0.96829631811E+01 -0.52098406769E+02  0.53050228555E+02  0.10570000000E+00 0.  1.
<mgrwt>
<rscale>  0 0.20009948E+02</rscale>
<asrwt>0</asrwt>
<pdfrwt beam="2">  1        2 0.15970146E-01 0.20009948E+02</pdfrwt>
<pdfrwt beam="1">  1       -2 0.14835300E-03 0.20009948E+02</pdfrwt>
<totfact> 0.53153161E+06</totfact>
</mgrwt>
</event>
<event>
 5    1  0.1711639E-006  0.2000283E+02  0.7818608E-02  0.1745272E+00
         -2   -1    0    0    0  501 -0.00000000000E+00  0.00000000000E+00  0.93609815599E+00  0.93610176672E+00  0.26000000000E-02 0.  1.
          2   -1    0    0  501    0  0.00000000000E+00 -0.00000000000E+00 -0.10685640185E+03  0.10685640188E+03  0.26000000000E-02 0. -1.
       1023    2    1    2    0    0  0.00000000000E+00  0.00000000000E+00 -0.10592030369E+03  0.10779250365E+03  0.20002827504E+02 0.  0.
        -13    1    3    3    0    0 -0.82701984297E+01  0.56219256247E+01 -0.52302914809E+02  0.53250430044E+02  0.10570000000E+00 0. -1.
         13    1    3    3    0    0  0.82701984297E+01 -0.56219256247E+01 -0.53617388885E+02  0.54542073605E+02  0.10570000000E+00 0.  1.
<mgrwt>
<rscale>  0 0.20002828E+02</rscale>
<asrwt>0</asrwt>
<pdfrwt beam="2">  1        2 0.16439437E-01 0.20002828E+02</pdfrwt>
<pdfrwt beam="1">  1       -2 0.14401547E-03 0.20002828E+02</pdfrwt>
<totfact> 0.53554751E+06</totfact>
</mgrwt>
</event>
<event>
 5    1  0.1607476E-006  0.2000252E+02  0.7818608E-02  0.1745278E+00
         -2   -1    0    0    0  501 -0.00000000000E+00  0.00000000000E+00  0.14998523684E+02  0.14998523909E+02  0.26000000000E-02 0. -1.
          2   -1    0    0  501    0  0.00000000000E+00 -0.00000000000E+00 -0.66690031653E+01  0.66690036722E+01  0.26000000000E-02 0.  1.
       1023    2    1    2    0    0  0.00000000000E+00  0.00000000000E+00  0.83295205185E+01  0.21667527581E+02  0.20002520827E+02 0.  0.
        -13    1    3    3    0    0  0.86258790853E+01 -0.50601278554E+01  0.42274896475E+01  0.10857878481E+02  0.10570000000E+00 0. -1.
         13    1    3    3    0    0 -0.86258790853E+01  0.50601278554E+01  0.41020308710E+01  0.10809649100E+02  0.10570000000E+00 0.  1.
<mgrwt>
<rscale>  0 0.20002521E+02</rscale>
<asrwt>0</asrwt>
<pdfrwt beam="2">  1        2 0.10260005E-02 0.20002521E+02</pdfrwt>
<pdfrwt beam="1">  1       -2 0.23074652E-02 0.20002521E+02</pdfrwt>
<totfact> 0.38287504E+06</totfact>
</mgrwt>
</event>
<event>
 5    1  0.1607476E-006  0.2000337E+02  0.7818608E-02  0.1745261E+00
         -2   -1    0    0    0  501 -0.00000000000E+00  0.00000000000E+00  0.16597188838E+02  0.16597189042E+02  0.26000000000E-02 0.  1.
          2   -1    0    0  501    0  0.00000000000E+00 -0.00000000000E+00 -0.60271473453E+01  0.60271479061E+01  0.26000000000E-02 0. -1.
       1023    2    1    2    0    0  0.00000000000E+00  0.00000000000E+00  0.10570041493E+02  0.22624336948E+02  0.20003370845E+02 0.  0.
        -13    1    3    3    0    0  0.83230565049E+01 -0.55448189831E+01  0.52112724119E+01  0.11277713411E+02  0.10570000000E+00 0. -1.
         13    1    3    3    0    0 -0.83230565049E+01  0.55448189831E+01  0.53587690813E+01  0.11346623537E+02  0.10570000000E+00 0.  1.
<mgrwt>
<rscale>  0 0.20003371E+02</rscale>
<asrwt>0</asrwt>
<pdfrwt beam="2">  1        2 0.92725349E-03 0.20003371E+02</pdfrwt>
<pdfrwt beam="1">  1       -2 0.25534137E-02 0.20003371E+02</pdfrwt>
<totfact> 0.37986614E+06</totfact>
</mgrwt>
</event>
<event>
 4    1  0.1607476E-006  0.2041169E+02  0.7818608E-02  0.1737263E+00
         -2   -1    0    0    0  501 -0.00000000000E+00  0.00000000000E+00  0.20209173440E+02  0.20209173607E+02  0.26000000000E-02 0.  1.
          2   -1    0    0  501    0  0.00000000000E+00 -0.00000000000E+00 -0.51540580781E+01  0.51540587339E+01  0.26000000000E-02 0. -1.
        -13    1    1    2    0    0  0.25047450670E+01  0.98925872548E+01  0.76582425361E+01  0.12759188128E+02  0.10570000000E+00 0. -1.
         13    1    1    2    0    0 -0.25047450670E+01 -0.98925872548E+01  0.73968728256E+01  0.12604044213E+02  0.10570000000E+00 0.  1.
<mgrwt>
<rscale>  0 0.20411689E+02</rscale>
<asrwt>0</asrwt>
<pdfrwt beam="2">  1        2 0.79293209E-03 0.20411689E+02</pdfrwt>
<pdfrwt beam="1">  1       -2 0.31091036E-02 0.20411689E+02</pdfrwt>
<totfact> 0.35780081E+06</totfact>
</mgrwt>
</event>
<event>
 4    1  0.1607476E-006  0.2003229E+02  0.7818608E-02  0.1744687E+00
          2   -1    0    0  501    0  0.00000000000E+00  0.00000000000E+00  0.35004334858E+02  0.35004334954E+02  0.26000000000E-02 0. -1.
         -2   -1    0    0    0  501 -0.00000000000E+00 -0.00000000000E+00 -0.28660194346E+01  0.28660206139E+01  0.26000000000E-02 0.  1.
        -13    1    1    2    0    0  0.10003587762E+02 -0.47473022519E+00  0.15839026906E+02  0.18739879475E+02  0.10570000000E+00 0. -1.
         13    1    1    2    0    0 -0.10003587762E+02  0.47473022519E+00  0.16299288517E+02  0.19130476093E+02  0.10570000000E+00 0.  1.
<mgrwt>
<rscale>  0 0.20032287E+02</rscale>
<asrwt>0</asrwt>
<pdfrwt beam="1">  1        2 0.53852823E-02 0.20032287E+02</pdfrwt>
<pdfrwt beam="2">  1       -2 0.44092617E-03 0.20032287E+02</pdfrwt>
<totfact> 0.43990691E+06</totfact>
</mgrwt>
</event>
<event>
 5    1  0.1607476E-006  0.2000248E+02  0.7818608E-02  0.1745279E+00
          2   -1    0    0  501    0  0.00000000000E+00  0.00000000000E+00  0.16133238246E+01  0.16133259197E+01  0.26000000000E-02 0. -1.
         -2   -1    0    0    0  501 -0.00000000000E+00 -0.00000000000E+00 -0.61999167610E+02  0.61999167664E+02  0.26000000000E-02 0.  1.
       1023    2    1    2    0    0  0.00000000000E+00  0.00000000000E+00 -0.60385843785E+02  0.63612493584E+02  0.20002480104E+02 0.  0.
        -13    1    3    3    0    0 -0.81362489482E+01  0.58147010060E+01 -0.30402319130E+02  0.32005022663E+02  0.10570000000E+00 0.  1.
         13    1    3    3    0    0  0.81362489482E+01 -0.58147010060E+01 -0.29983524656E+02  0.31607470921E+02  0.10570000000E+00 0. -1.
<mgrwt>
<rscale>  0 0.20002480E+02</rscale>
<asrwt>0</asrwt>
<pdfrwt beam="1">  1        2 0.24820388E-03 0.20002480E+02</pdfrwt>
<pdfrwt beam="2">  1       -2 0.95383318E-02 0.20002480E+02</pdfrwt>
<totfact> 0.32771191E+06</totfact>
</mgrwt>
</event>
<event>
 4    1  0.1607476E-006  0.2002256E+02  0.7818608E-02  0.1744880E+00
         -2   -1    0    0    0  501 -0.00000000000E+00  0.00000000000E+00  0.99738656829E+02  0.99738656863E+02  0.26000000000E-02 0. -1.
          2   -1    0    0  501    0  0.00000000000E+00 -0.00000000000E+00 -0.10048812877E+01  0.10048846513E+01  0.26000000000E-02 0.  1.
        -13    1    1    2    0    0  0.37991053585E+01  0.92590273033E+01  0.50511158445E+02  0.51493214001E+02  0.10570000000E+00 0. -1.
         13    1    1    2    0    0 -0.37991053585E+01 -0.92590273033E+01  0.48222617096E+02  0.49250327514E+02  0.10570000000E+00 0.  1.
<mgrwt>
<rscale>  0 0.20022555E+02</rscale>
<asrwt>0</asrwt>
<pdfrwt beam="2">  1        2 0.15459741E-03 0.20022555E+02</pdfrwt>
<pdfrwt beam="1">  1       -2 0.15344406E-01 0.20022555E+02</pdfrwt>
<totfact> 0.29676683E+06</totfact>
</mgrwt>
</event>
<event>
 5    1  0.1607476E-006  0.2000152E+02  0.7818608E-02  0.1745298E+00
          2   -1    0    0  501    0  0.00000000000E+00  0.00000000000E+00  0.43910885405E+01  0.43910893102E+01  0.26000000000E-02 0. -1.
         -2   -1    0    0    0  501 -0.00000000000E+00 -0.00000000000E+00 -0.22776862896E+02  0.22776863044E+02  0.26000000000E-02 0.  1.
       1023    2    1    2    0    0  0.00000000000E+00  0.00000000000E+00 -0.18385774355E+02  0.27167952354E+02  0.20001523354E+02 0.  0.
        -13    1    3    3    0    0  0.98468518762E+01 -0.17445657528E+01 -0.92034167538E+01  0.13591102015E+02  0.10570000000E+00 0.  1.
         13    1    3    3    0    0 -0.98468518762E+01  0.17445657528E+01 -0.91823576013E+01  0.13576850340E+02  0.10570000000E+00 0. -1.
<mgrwt>
<rscale>  0 0.20001523E+02</rscale>
<asrwt>0</asrwt>
<pdfrwt beam="1">  1        2 0.67555217E-03 0.20001523E+02</pdfrwt>
<pdfrwt beam="2">  1       -2 0.35041327E-02 0.20001523E+02</pdfrwt>
<totfact> 0.37012779E+06</totfact>
</mgrwt>
</event>
<event>
 4    1  0.1607476E-006  0.2001508E+02  0.7818608E-02  0.1745028E+00
          2   -1    0    0  501    0  0.00000000000E+00  0.00000000000E+00  0.24961997400E+02  0.24961997535E+02  0.26000000000E-02 0.  1.
         -2   -1    0    0    0  501 -0.00000000000E+00 -0.00000000000E+00 -0.40121330827E+01  0.40121339252E+01  0.26000000000E-02 0. -1.
        -13    1    1    2    0    0  0.50076354235E+01  0.86634399659E+01  0.10605158595E+02  0.14581226488E+02  0.10570000000E+00 0.  1.
         13    1    1    2    0    0 -0.50076354235E+01 -0.86634399659E+01  0.10344705721E+02  0.14392904972E+02  0.10570000000E+00 0. -1.
<mgrwt>
<rscale>  0 0.20015081E+02</rscale>
<asrwt>0</asrwt>
<pdfrwt beam="1">  1        2 0.38403074E-02 0.20015081E+02</pdfrwt>
<pdfrwt beam="2">  1       -2 0.61725131E-03 0.20015081E+02</pdfrwt>
<totfact> 0.42478233E+06</totfact>
</mgrwt>
</event>
<event>
 5    1  0.1607476E-006  0.2000259E+02  0.7818608E-02  0.1745277E+00
         -2   -1    0    0    0  501 -0.00000000000E+00  0.00000000000E+00  0.26322647975E+01  0.26322660816E+01  0.26000000000E-02 0.  1.
          2   -1    0    0  501    0  0.00000000000E+00 -0.00000000000E+00 -0.37999922590E+02  0.37999922679E+02  0.26000000000E-02 0. -1.
       1023    2    1    2    0    0  0.00000000000E+00  0.00000000000E+00 -0.35367657793E+02  0.40632188761E+02  0.20002588476E+02 0.  0.
        -13    1    3    3    0    0  0.29175188258E+01  0.95657013202E+01 -0.17658449025E+02  0.20294002865E+02  0.10570000000E+00 0.  1.
         13    1    3    3    0    0 -0.29175188258E+01 -0.95657013202E+01 -0.17709208768E+02  0.20338185896E+02  0.10570000000E+00 0. -1.
<mgrwt>
<rscale>  0 0.20002588E+02</rscale>
<asrwt>0</asrwt>
<pdfrwt beam="2">  1        2 0.58461416E-02 0.20002588E+02</pdfrwt>
<pdfrwt beam="1">  1       -2 0.40496395E-03 0.20002588E+02</pdfrwt>
<totfact> 0.44587485E+06</totfact>
</mgrwt>
</event>
<event>
 4    1  0.1607476E-006  0.2003179E+02  0.7818608E-02  0.1744697E+00
         -2   -1    0    0    0  501 -0.00000000000E+00  0.00000000000E+00  0.94303116980E+00  0.94303475398E+00  0.26000000000E-02 0. -1.
          2   -1    0    0  501    0  0.00000000000E+00 -0.00000000000E+00 -0.10637817407E+03  0.10637817411E+03  0.26000000000E-02 0.  1.
        -13    1    1    2    0    0 -0.62553194133E+01  0.78187119622E+01 -0.51572537652E+02  0.52535693486E+02  0.10570000000E+00 0.  1.
         13    1    1    2    0    0  0.62553194133E+01 -0.78187119622E+01 -0.53862605252E+02  0.54785515374E+02  0.10570000000E+00 0. -1.
<mgrwt>
<rscale>  0 0.20031788E+02</rscale>
<asrwt>0</asrwt>
<pdfrwt beam="2">  1        2 0.16365864E-01 0.20031788E+02</pdfrwt>
<pdfrwt beam="1">  1       -2 0.14508208E-03 0.20031788E+02</pdfrwt>
<totfact> 0.53328138E+06</totfact>
</mgrwt>
</event>
<event>
 5    1  0.1607476E-006  0.2000169E+02  0.7818608E-02  0.1745295E+00
          2   -1    0    0  501    0  0.00000000000E+00  0.00000000000E+00  0.62024763051E+01  0.62024768500E+01  0.26000000000E-02 0.  1.
         -2   -1    0    0    0  501 -0.00000000000E+00 -0.00000000000E+00 -0.16125309193E+02  0.16125309403E+02  0.26000000000E-02 0. -1.
       1023    2    1    2    0    0  0.00000000000E+00  0.00000000000E+00 -0.99228328883E+01  0.22327786253E+02  0.20001685590E+02 0.  0.
        -13    1    3    3    0    0  0.83827582035E+01 -0.54529645836E+01 -0.49782080759E+01  0.11171355602E+02  0.10570000000E+00 0. -1.
         13    1    3    3    0    0 -0.83827582035E+01  0.54529645836E+01 -0.49446248124E+01  0.11156430651E+02  0.10570000000E+00 0.  1.
<mgrwt>
<rscale>  0 0.20001686E+02</rscale>
<asrwt>0</asrwt>
<pdfrwt beam="1">  1        2 0.95422719E-03 0.20001686E+02</pdfrwt>
<pdfrwt beam="2">  1       -2 0.24808168E-02 0.20001686E+02</pdfrwt>
<totfact> 0.38078842E+06</totfact>
</mgrwt>
</event>
<event>
 5    1  0.1607476E-006  0.2000316E+02  0.7818608E-02  0.1745265E+00
          2   -1    0    0  501    0  0.00000000000E+00  0.00000000000E+00  0.17868380665E+02  0.17868380854E+02  0.26000000000E-02 0.  1.
         -2   -1    0    0    0  501 -0.00000000000E+00 -0.00000000000E+00 -0.55982472427E+01  0.55982478464E+01  0.26000000000E-02 0. -1.
       1023    2    1    2    0    0  0.00000000000E+00  0.00000000000E+00  0.12270133422E+02  0.23466628700E+02  0.20003161959E+02 0.  0.
        -13    1    3    3    0    0  0.99124633140E+01  0.13225650178E+01  0.59945709130E+01  0.11659852490E+02  0.10570000000E+00 0. -1.
         13    1    3    3    0    0 -0.99124633140E+01 -0.13225650178E+01  0.62755625091E+01  0.11806776210E+02  0.10570000000E+00 0.  1.
<mgrwt>
<rscale>  0 0.20003162E+02</rscale>
<asrwt>0</asrwt>
<pdfrwt beam="1">  1        2 0.27489817E-02 0.20003162E+02</pdfrwt>
<pdfrwt beam="2">  1       -2 0.86126886E-03 0.20003162E+02</pdfrwt>
<totfact> 0.41259758E+06</totfact>
</mgrwt>
</event>
<event>
 5    1  0.1607476E-006  0.2000192E+02  0.7818608E-02  0.1745290E+00
         -2   -1    0    0    0  501 -0.00000000000E+00  0.00000000000E+00  0.30275228132E+01  0.30275239296E+01  0.26000000000E-02 0.  1.
          2   -1    0    0  501    0  0.00000000000E+00 -0.00000000000E+00 -0.33036629462E+02  0.33036629564E+02  0.26000000000E-02 0. -1.
       1023    2    1    2    0    0  0.00000000000E+00  0.00000000000E+00 -0.30009106648E+02  0.36064153494E+02  0.20001917042E+02 0.  0.
        -13    1    3    3    0    0  0.76930217382E+01 -0.63893099774E+01 -0.14921273412E+02  0.17962779244E+02  0.10570000000E+00 0. -1.
         13    1    3    3    0    0 -0.76930217382E+01  0.63893099774E+01 -0.15087833236E+02  0.18101374249E+02  0.10570000000E+00 0.  1.
<mgrwt>
<rscale>  0 0.20001917E+02</rscale>
<asrwt>0</asrwt>
<pdfrwt beam="2">  1        2 0.50825582E-02 0.20001917E+02</pdfrwt>
<pdfrwt beam="1">  1       -2 0.46577286E-03 0.20001917E+02</pdfrwt>
<totfact> 0.43838908E+06</totfact>
</mgrwt>
</event>
<event>
 5    1  0.1607476E-006  0.2000189E+02  0.7818608E-02  0.1745291E+00
         -2   -1    0    0    0  501 -0.00000000000E+00  0.00000000000E+00  0.46248775697E+01  0.46248783005E+01  0.26000000000E-02 0. -1.
          2   -1    0    0  501    0  0.00000000000E+00 -0.00000000000E+00 -0.21626268661E+02  0.21626268817E+02  0.26000000000E-02 0.  1.
       1023    2    1    2    0    0  0.00000000000E+00  0.00000000000E+00 -0.17001391091E+02  0.26251147118E+02  0.20001885560E+02 0.  0.
        -13    1    3    3    0    0  0.72338106278E+01 -0.69047115622E+01 -0.84114303433E+01  0.13067761509E+02  0.10570000000E+00 0. -1.
         13    1    3    3    0    0 -0.72338106278E+01  0.69047115622E+01 -0.85899607478E+01  0.13183385608E+02  0.10570000000E+00 0.  1.
<mgrwt>
<rscale>  0 0.20001886E+02</rscale>
<asrwt>0</asrwt>
<pdfrwt beam="2">  1        2 0.33271183E-02 0.20001886E+02</pdfrwt>
<pdfrwt beam="1">  1       -2 0.71151971E-03 0.20001886E+02</pdfrwt>
<totfact> 0.41963653E+06</totfact>
</mgrwt>
</event>
<event>
 4    1  0.1607476E-006  0.2004435E+02  0.7818608E-02  0.1744448E+00
         -2   -1    0    0    0  501 -0.00000000000E+00  0.00000000000E+00  0.55981050521E+02  0.55981050582E+02  0.26000000000E-02 0.  1.
          2   -1    0    0  501    0  0.00000000000E+00 -0.00000000000E+00 -0.17942491887E+01  0.17942510725E+01  0.26000000000E-02 0. -1.
        -13    1    1    2    0    0  0.21763371341E+01 -0.97802226458E+01  0.27695532710E+02  0.29452383654E+02  0.10570000000E+00 0. -1.
         13    1    1    2    0    0 -0.21763371341E+01  0.97802226458E+01  0.26491268622E+02  0.28322918000E+02  0.10570000000E+00 0.  1.
<mgrwt>
<rscale>  0 0.20044352E+02</rscale>
<asrwt>0</asrwt>
<pdfrwt beam="2">  1        2 0.27603848E-03 0.20044352E+02</pdfrwt>
<pdfrwt beam="1">  1       -2 0.86124695E-02 0.20044352E+02</pdfrwt>
<totfact> 0.33168058E+06</totfact>
</mgrwt>
</event>
<event>
 5    1  0.1607476E-006  0.2000472E+02  0.7818608E-02  0.1745234E+00
          2   -1    0    0  501    0  0.00000000000E+00  0.00000000000E+00  0.68034294664E+02  0.68034294713E+02  0.26000000000E-02 0. -1.
         -2   -1    0    0    0  501 -0.00000000000E+00 -0.00000000000E+00 -0.14705391098E+01  0.14705414083E+01  0.26000000000E-02 0.  1.
       1023    2    1    2    0    0  0.00000000000E+00  0.00000000000E+00  0.66563755554E+02  0.69504836122E+02  0.20004716715E+02 0.  0.
        -13    1    3    3    0    0  0.77110924694E+01 -0.63696528935E+01  0.33458191246E+02  0.34921270867E+02  0.10570000000E+00 0. -1.
         13    1    3    3    0    0 -0.77110924694E+01  0.63696528935E+01  0.33105564308E+02  0.34583565254E+02  0.10570000000E+00 0.  1.
<mgrwt>
<rscale>  0 0.20004717E+02</rscale>
<asrwt>0</asrwt>
<pdfrwt beam="1">  1        2 0.10466816E-01 0.20004717E+02</pdfrwt>
<pdfrwt beam="2">  1       -2 0.22623693E-03 0.20004717E+02</pdfrwt>
<totfact> 0.48737908E+06</totfact>
</mgrwt>
</event>
<event>
 5    1  0.1607476E-006  0.2000258E+02  0.7818608E-02  0.1745277E+00
         -2   -1    0    0    0  501 -0.00000000000E+00  0.00000000000E+00  0.68461379147E+01  0.68461384084E+01  0.26000000000E-02 0. -1.
          2   -1    0    0  501    0  0.00000000000E+00 -0.00000000000E+00 -0.14610547980E+02  0.14610548211E+02  0.26000000000E-02 0.  1.
       1023    2    1    2    0    0  0.00000000000E+00  0.00000000000E+00 -0.77644100652E+01  0.21456686620E+02  0.20002583259E+02 0.  0.
        -13    1    3    3    0    0 -0.96069504059E+01  0.27784238772E+01 -0.38402953293E+01  0.10713177682E+02  0.10570000000E+00 0. -1.
         13    1    3    3    0    0  0.96069504059E+01 -0.27784238772E+01 -0.39241147359E+01  0.10743508938E+02  0.10570000000E+00 0.  1.
<mgrwt>
<rscale>  0 0.20002583E+02</rscale>
<asrwt>0</asrwt>
<pdfrwt beam="2">  1        2 0.22477767E-02 0.20002583E+02</pdfrwt>
<pdfrwt beam="1">  1       -2 0.10532520E-02 0.20002583E+02</pdfrwt>
<totfact> 0.40593486E+06</totfact>
</mgrwt>
</event>
<event>
 5    1  0.1607476E-006  0.2000176E+02  0.7818608E-02  0.1745293E+00
          2   -1    0    0  501    0  0.00000000000E+00  0.00000000000E+00  0.11020083662E+01  0.11020114333E+01  0.26000000000E-02 0. -1.
         -2   -1    0    0    0  501 -0.00000000000E+00 -0.00000000000E+00 -0.90759298193E+02  0.90759298230E+02  0.26000000000E-02 0.  1.
       1023    2    1    2    0    0  0.00000000000E+00  0.00000000000E+00 -0.89657289827E+02  0.91861309664E+02  0.20001764772E+02 0.  0.
        -13    1    3    3    0    0 -0.97236693606E+01 -0.23358292497E+01 -0.44713196826E+02  0.45817976679E+02  0.10570000000E+00 0.  1.
         13    1    3    3    0    0  0.97236693606E+01  0.23358292497E+01 -0.44944093001E+02  0.46043332984E+02  0.10570000000E+00 0. -1.
<mgrwt>
<rscale>  0 0.20001765E+02</rscale>
<asrwt>0</asrwt>
<pdfrwt beam="1">  1        2 0.16954006E-03 0.20001765E+02</pdfrwt>
<pdfrwt beam="2">  1       -2 0.13962963E-01 0.20001765E+02</pdfrwt>
<totfact> 0.30411609E+06</totfact>
</mgrwt>
</event>
<event>
 4    1  0.1607476E-006  0.2001394E+02  0.7818608E-02  0.1745051E+00
         -2   -1    0    0    0  501 -0.00000000000E+00  0.00000000000E+00  0.12576641507E+01  0.12576668382E+01  0.26000000000E-02 0. -1.
          2   -1    0    0  501    0  0.00000000000E+00 -0.00000000000E+00 -0.79623281495E+02  0.79623281538E+02  0.26000000000E-02 0.  1.
        -13    1    1    2    0    0 -0.56383824942E+01  0.82664679224E+01 -0.38983368833E+02  0.40247236764E+02  0.10570000000E+00 0. -1.
         13    1    1    2    0    0  0.56383824942E+01 -0.82664679224E+01 -0.39382248512E+02  0.40633711612E+02  0.10570000000E+00 0.  1.
<mgrwt>
<rscale>  0 0.20013941E+02</rscale>
<asrwt>0</asrwt>
<pdfrwt beam="2">  1        2 0.12249732E-01 0.20013941E+02</pdfrwt>
<pdfrwt beam="1">  1       -2 0.19348707E-03 0.20013941E+02</pdfrwt>
<totfact> 0.50174620E+06</totfact>
</mgrwt>
</event>
<event>
 5    1  0.1607476E-006  0.2000706E+02  0.7818608E-02  0.1745188E+00
         -2   -1    0    0    0  501 -0.00000000000E+00  0.00000000000E+00  0.17992731506E+02  0.17992731694E+02  0.26000000000E-02 0.  1.
          2   -1    0    0  501    0  0.00000000000E+00 -0.00000000000E+00 -0.55617233155E+01  0.55617239232E+01  0.26000000000E-02 0. -1.
       1023    2    1    2    0    0  0.00000000000E+00  0.00000000000E+00  0.12431008190E+02  0.23554455617E+02  0.20007059124E+02 0.  0.
        -13    1    3    3    0    0  0.52267663108E+01  0.85261837480E+01  0.59670508910E+01  0.11646105108E+02  0.10570000000E+00 0. -1.
         13    1    3    3    0    0 -0.52267663108E+01 -0.85261837480E+01  0.64639572994E+01  0.11908350508E+02  0.10570000000E+00 0.  1.
<mgrwt>
<rscale>  0 0.20007059E+02</rscale>
<asrwt>0</asrwt>
<pdfrwt beam="2">  1        2 0.85564979E-03 0.20007059E+02</pdfrwt>
<pdfrwt beam="1">  1       -2 0.27681126E-02 0.20007059E+02</pdfrwt>
<totfact> 0.37729871E+06</totfact>
</mgrwt>
</event>
<event>
 5    1  0.1607476E-006  0.2000349E+02  0.7818608E-02  0.1745259E+00
          2   -1    0    0  501    0  0.00000000000E+00  0.00000000000E+00  0.14214727482E+02  0.14214727720E+02  0.26000000000E-02 0.  1.
         -2   -1    0    0    0  501 -0.00000000000E+00 -0.00000000000E+00 -0.70374151193E+01  0.70374155996E+01  0.26000000000E-02 0. -1.
       1023    2    1    2    0    0  0.00000000000E+00  0.00000000000E+00  0.71773123627E+01  0.21252143319E+02  0.20003494268E+02 0.  0.
        -13    1    3    3    0    0 -0.76843807274E+01  0.64003293184E+01  0.34832101519E+01  0.10590460235E+02  0.10570000000E+00 0.  1.
         13    1    3    3    0    0  0.76843807274E+01 -0.64003293184E+01  0.36941022109E+01  0.10661683084E+02  0.10570000000E+00 0. -1.
<mgrwt>
<rscale>  0 0.20003494E+02</rscale>
<asrwt>0</asrwt>
<pdfrwt beam="1">  1        2 0.21868812E-02 0.20003494E+02</pdfrwt>
<pdfrwt beam="2">  1       -2 0.10826793E-02 0.20003494E+02</pdfrwt>
<totfact> 0.40502304E+06</totfact>
</mgrwt>
</event>
<event>
 4    1  0.1607476E-006  0.2006861E+02  0.7818608E-02  0.1743967E+00
         -2   -1    0    0    0  501 -0.00000000000E+00  0.00000000000E+00  0.98689116805E+02  0.98689116839E+02  0.26000000000E-02 0. -1.
          2   -1    0    0  501    0  0.00000000000E+00 -0.00000000000E+00 -0.10202448343E+01  0.10202481473E+01  0.26000000000E-02 0.  1.
        -13    1    1    2    0    0 -0.64343312761E+01  0.76912850315E+01  0.50552474052E+02  0.51537561930E+02  0.10570000000E+00 0. -1.
         13    1    1    2    0    0  0.64343312761E+01 -0.76912850315E+01  0.47116397919E+02  0.48171803057E+02  0.10570000000E+00 0.  1.
<mgrwt>
<rscale>  0 0.20068605E+02</rscale>
<asrwt>0</asrwt>
<pdfrwt beam="2">  1        2 0.15696105E-03 0.20068605E+02</pdfrwt>
<pdfrwt beam="1">  1       -2 0.15182937E-01 0.20068605E+02</pdfrwt>
<totfact> 0.29604253E+06</totfact>
</mgrwt>
</event>
<event>
 4    1  0.1607476E-006  0.2155570E+02  0.7818608E-02  0.1716051E+00
          2   -1    0    0  501    0  0.00000000000E+00  0.00000000000E+00  0.44518917997E+01  0.44518925589E+01  0.26000000000E-02 0.  1.
         -2   -1    0    0    0  501 -0.00000000000E+00 -0.00000000000E+00 -0.26092738045E+02  0.26092738174E+02  0.26000000000E-02 0. -1.
        -13    1    1    2    0    0 -0.10076641646E+02  0.32909908360E+01 -0.80648735260E+01  0.13320010699E+02  0.10570000000E+00 0. -1.
         13    1    1    2    0    0  0.10076641646E+02 -0.32909908360E+01 -0.13575972719E+02  0.17224620034E+02  0.10570000000E+00 0.  1.
<mgrwt>
<rscale>  0 0.21555701E+02</rscale>
<asrwt>0</asrwt>
<pdfrwt beam="1">  1        2 0.68490651E-03 0.21555701E+02</pdfrwt>
<pdfrwt beam="2">  1       -2 0.40142674E-02 0.21555701E+02</pdfrwt>
<totfact> 0.31027411E+06</totfact>
</mgrwt>
</event>
<event>
 5    1  0.1660154E-006  0.2000154E+02  0.7818608E-02  0.1745298E+00
         -2   -1    0    0    0  501 -0.00000000000E+00  0.00000000000E+00  0.10291711048E+01  0.10291743890E+01  0.26000000000E-02 0. -1.
          2   -1    0    0  501    0  0.00000000000E+00 -0.00000000000E+00 -0.97180350172E+02  0.97180350207E+02  0.26000000000E-02 0.  1.
       1023    2    1    2    0    0  0.00000000000E+00  0.00000000000E+00 -0.96151179067E+02  0.98209524596E+02  0.20001537073E+02 0.  0.
        -13    1    3    3    0    0  0.42409740795E+01  0.90563671470E+01 -0.47960250167E+02  0.48991840296E+02  0.10570000000E+00 0. -1.
         13    1    3    3    0    0 -0.42409740795E+01 -0.90563671470E+01 -0.48190928901E+02  0.49217684300E+02  0.10570000000E+00 0.  1.
<mgrwt>
<rscale>  0 0.20001537E+02</rscale>
<asrwt>0</asrwt>
<pdfrwt beam="2">  1        2 0.14950816E-01 0.20001537E+02</pdfrwt>
<pdfrwt beam="1">  1       -2 0.15833435E-03 0.20001537E+02</pdfrwt>
<totfact> 0.52410174E+06</totfact>
</mgrwt>
</event>
<event>
 4    1  0.1607476E-006  0.2001292E+02  0.7818608E-02  0.1745071E+00
         -2   -1    0    0    0  501 -0.00000000000E+00  0.00000000000E+00  0.56319059166E+01  0.56319065167E+01  0.26000000000E-02 0.  1.
          2   -1    0    0  501    0  0.00000000000E+00 -0.00000000000E+00 -0.17778930274E+02  0.17778930464E+02  0.26000000000E-02 0. -1.
        -13    1    1    2    0    0  0.46222929521E+01 -0.88742361214E+01 -0.60980633679E+01  0.11718157202E+02  0.10570000000E+00 0. -1.
         13    1    1    2    0    0 -0.46222929521E+01  0.88742361214E+01 -0.60489609892E+01  0.11692679779E+02  0.10570000000E+00 0.  1.
<mgrwt>
<rscale>  0 0.20012923E+02</rscale>
<asrwt>0</asrwt>
<pdfrwt beam="2">  1        2 0.27352201E-02 0.20012923E+02</pdfrwt>
<pdfrwt beam="1">  1       -2 0.86644713E-03 0.20012923E+02</pdfrwt>
<totfact> 0.41196907E+06</totfact>
</mgrwt>
</event>
<event>
 4    1  0.1607476E-006  0.2066492E+02  0.7818608E-02  0.1732420E+00
         -2   -1    0    0    0  501 -0.00000000000E+00  0.00000000000E+00  0.71618198857E+01  0.71618203576E+01  0.26000000000E-02 0.  1.
          2   -1    0    0  501    0  0.00000000000E+00 -0.00000000000E+00 -0.14906791036E+02  0.14906791263E+02  0.26000000000E-02 0. -1.
        -13    1    1    2    0    0  0.10026380576E+02 -0.19485893356E+01 -0.55349141924E+01  0.11617734523E+02  0.10570000000E+00 0. -1.
         13    1    1    2    0    0 -0.10026380576E+02  0.19485893356E+01 -0.22100569577E+01  0.10450877097E+02  0.10570000000E+00 0.  1.
<mgrwt>
<rscale>  0 0.20664923E+02</rscale>
<asrwt>0</asrwt>
<pdfrwt beam="2">  1        2 0.22933525E-02 0.20664923E+02</pdfrwt>
<pdfrwt beam="1">  1       -2 0.11018185E-02 0.20664923E+02</pdfrwt>
<totfact> 0.37753413E+06</totfact>
</mgrwt>
</event>
<event>
 4    1  0.1607476E-006  0.2001453E+02  0.7818608E-02  0.1745039E+00
         -2   -1    0    0    0  501 -0.00000000000E+00  0.00000000000E+00  0.47610580967E+01  0.47610588067E+01  0.26000000000E-02 0. -1.
          2   -1    0    0  501    0  0.00000000000E+00 -0.00000000000E+00 -0.21034268601E+02  0.21034268762E+02  0.26000000000E-02 0.  1.
        -13    1    1    2    0    0  0.40935842411E+01  0.91250891345E+01 -0.77100630958E+01  0.12628575893E+02  0.10570000000E+00 0. -1.
         13    1    1    2    0    0 -0.40935842411E+01 -0.91250891345E+01 -0.85631474084E+01  0.13166751675E+02  0.10570000000E+00 0.  1.
<mgrwt>
<rscale>  0 0.20014533E+02</rscale>
<asrwt>0</asrwt>
<pdfrwt beam="2">  1        2 0.32360413E-02 0.20014533E+02</pdfrwt>
<pdfrwt beam="1">  1       -2 0.73247056E-03 0.20014533E+02</pdfrwt>
<totfact> 0.41798019E+06</totfact>
</mgrwt>
</event>
<event>
 4    1  0.1607476E-006  0.2017378E+02  0.7818608E-02  0.1741894E+00
          2   -1    0    0  501    0  0.00000000000E+00  0.00000000000E+00  0.11254350764E+02  0.11254351065E+02  0.26000000000E-02 0.  1.
         -2   -1    0    0    0  501 -0.00000000000E+00 -0.00000000000E+00 -0.90405335844E+01  0.90405339583E+01  0.26000000000E-02 0. -1.
        -13    1    1    2    0    0 -0.80072920959E+01  0.60287979494E+01  0.22410801829E+01  0.10271160806E+02  0.10570000000E+00 0. -1.
         13    1    1    2    0    0  0.80072920959E+01 -0.60287979494E+01 -0.27263002809E-01  0.10023724217E+02  0.10570000000E+00 0.  1.
<mgrwt>
<rscale>  0 0.20173779E+02</rscale>
<asrwt>0</asrwt>
<pdfrwt beam="1">  1        2 0.17314386E-02 0.20173779E+02</pdfrwt>
<pdfrwt beam="2">  1       -2 0.13908514E-02 0.20173779E+02</pdfrwt>
<totfact> 0.39030741E+06</totfact>
</mgrwt>
</event>
<event>
 5    1  0.1607476E-006  0.2000254E+02  0.7818608E-02  0.1745278E+00
          2   -1    0    0  501    0  0.00000000000E+00  0.00000000000E+00  0.49508660531E+02  0.49508660599E+02  0.26000000000E-02 0.  1.
         -2   -1    0    0    0  501 -0.00000000000E+00 -0.00000000000E+00 -0.20203606607E+01  0.20203623337E+01  0.26000000000E-02 0. -1.
       1023    2    1    2    0    0  0.00000000000E+00  0.00000000000E+00  0.47488299870E+02  0.51529022933E+02  0.20002539335E+02 0.  0.
        -13    1    3    3    0    0 -0.94471999429E+01 -0.32794807919E+01  0.23491198029E+02  0.25531395151E+02  0.10570000000E+00 0.  1.
         13    1    3    3    0    0  0.94471999429E+01  0.32794807919E+01  0.23997101841E+02  0.25997627782E+02  0.10570000000E+00 0. -1.
<mgrwt>
<rscale>  0 0.20002539E+02</rscale>
<asrwt>0</asrwt>
<pdfrwt beam="1">  1        2 0.76167164E-02 0.20002539E+02</pdfrwt>
<pdfrwt beam="2">  1       -2 0.31082488E-03 0.20002539E+02</pdfrwt>
<totfact> 0.46246296E+06</totfact>
</mgrwt>
</event>
<event>
 4    1  0.1607476E-006  0.2005309E+02  0.7818608E-02  0.1744274E+00
          2   -1    0    0  501    0  0.00000000000E+00  0.00000000000E+00  0.29617420584E+02  0.29617420698E+02  0.26000000000E-02 0.  1.
         -2   -1    0    0    0  501 -0.00000000000E+00 -0.00000000000E+00 -0.33943389592E+01  0.33943399550E+01  0.26000000000E-02 0. -1.
        -13    1    1    2    0    0  0.56234325701E+01  0.82793169856E+01  0.14085911238E+02  0.17279877069E+02  0.10570000000E+00 0. -1.
         13    1    1    2    0    0 -0.56234325701E+01 -0.82793169856E+01  0.12137170386E+02  0.15731883584E+02  0.10570000000E+00 0.  1.
<mgrwt>
<rscale>  0 0.20053088E+02</rscale>
<asrwt>0</asrwt>
<pdfrwt beam="1">  1        2 0.45565264E-02 0.20053088E+02</pdfrwt>
<pdfrwt beam="2">  1       -2 0.52220608E-03 0.20053088E+02</pdfrwt>
<totfact> 0.43055712E+06</totfact>
</mgrwt>
</event>
<event>
 4    1  0.1607476E-006  0.2002307E+02  0.7818608E-02  0.1744870E+00
         -2   -1    0    0    0  501 -0.00000000000E+00  0.00000000000E+00  0.67818834419E+02  0.67818834469E+02  0.26000000000E-02 0. -1.
          2   -1    0    0  501    0  0.00000000000E+00 -0.00000000000E+00 -0.14779186754E+01  0.14779209624E+01  0.26000000000E-02 0.  1.
        -13    1    1    2    0    0  0.40707465984E+01  0.91434952859E+01  0.32435107441E+02  0.33944393516E+02  0.10570000000E+00 0. -1.
         13    1    1    2    0    0 -0.40707465984E+01 -0.91434952859E+01  0.33905808303E+02  0.35352361916E+02  0.10570000000E+00 0.  1.
<mgrwt>
<rscale>  0 0.20023067E+02</rscale>
<asrwt>0</asrwt>
<pdfrwt beam="2">  1        2 0.22737233E-03 0.20023067E+02</pdfrwt>
<pdfrwt beam="1">  1       -2 0.10433665E-01 0.20023067E+02</pdfrwt>
<totfact> 0.32188555E+06</totfact>
</mgrwt>
</event>
<event>
 4    1  0.1607476E-006  0.2003990E+02  0.7818608E-02  0.1744536E+00
          2   -1    0    0  501    0  0.00000000000E+00  0.00000000000E+00  0.10044744115E+02  0.10044744452E+02  0.26000000000E-02 0.  1.
         -2   -1    0    0    0  501 -0.00000000000E+00 -0.00000000000E+00 -0.99952180565E+01  0.99952183946E+01  0.26000000000E-02 0. -1.
        -13    1    1    2    0    0  0.73883037554E+01  0.67468692568E+01  0.55482584581E+00  0.10021291402E+02  0.10570000000E+00 0. -1.
         13    1    1    2    0    0 -0.73883037554E+01 -0.67468692568E+01 -0.50529978703E+00  0.10018671445E+02  0.10570000000E+00 0.  1.
<mgrwt>
<rscale>  0 0.20039902E+02</rscale>
<asrwt>0</asrwt>
<pdfrwt beam="1">  1        2 0.15453453E-02 0.20039902E+02</pdfrwt>
<pdfrwt beam="2">  1       -2 0.15377259E-02 0.20039902E+02</pdfrwt>
<totfact> 0.39296761E+06</totfact>
</mgrwt>
</event>
<event>
 5    1  0.1607476E-006  0.2000446E+02  0.7818608E-02  0.1745239E+00
          2   -1    0    0  501    0  0.00000000000E+00  0.00000000000E+00  0.10008461330E+03  0.10008461333E+03  0.26000000000E-02 0. -1.
         -2   -1    0    0    0  501 -0.00000000000E+00 -0.00000000000E+00 -0.99959894541E+00  0.99960232676E+00  0.26000000000E-02 0.  1.
       1023    2    1    2    0    0  0.00000000000E+00  0.00000000000E+00  0.99085014351E+02  0.10108421566E+03  0.20004464153E+02 0.  0.
        -13    1    3    3    0    0 -0.65931403597E+01 -0.75192970470E+01  0.48757307252E+02  0.49772437260E+02  0.10570000000E+00 0.  1.
         13    1    3    3    0    0  0.65931403597E+01  0.75192970470E+01  0.50327707100E+02  0.51311778397E+02  0.10570000000E+00 0. -1.
<mgrwt>
<rscale>  0 0.20004464E+02</rscale>
<asrwt>0</asrwt>
<pdfrwt beam="1">  1        2 0.15397638E-01 0.20004464E+02</pdfrwt>
<pdfrwt beam="2">  1       -2 0.15378467E-03 0.20004464E+02</pdfrwt>
<totfact> 0.52742110E+06</totfact>
</mgrwt>
</event>
<event>
 5    1  0.1607476E-006  0.2001139E+02  0.7818608E-02  0.1745102E+00
         -2   -1    0    0    0  501 -0.00000000000E+00  0.00000000000E+00  0.38004337676E+01  0.38004346570E+01  0.26000000000E-02 0.  1.
          2   -1    0    0  501    0  0.00000000000E+00 -0.00000000000E+00 -0.26342772486E+02  0.26342772615E+02  0.26000000000E-02 0. -1.
       1023    2    1    2    0    0  0.00000000000E+00  0.00000000000E+00 -0.22542338719E+02  0.30143207272E+02  0.20011394497E+02 0.  0.
        -13    1    3    3    0    0  0.54020105281E+01 -0.84206084850E+01 -0.11452176100E+02  0.15206967973E+02  0.10570000000E+00 0. -1.
         13    1    3    3    0    0 -0.54020105281E+01  0.84206084850E+01 -0.11090162619E+02  0.14936239299E+02  0.10570000000E+00 0.  1.
<mgrwt>
<rscale>  0 0.20011394E+02</rscale>
<asrwt>0</asrwt>
<pdfrwt beam="2">  1        2 0.40527342E-02 0.20011394E+02</pdfrwt>
<pdfrwt beam="1">  1       -2 0.58468221E-03 0.20011394E+02</pdfrwt>
<totfact> 0.42726320E+06</totfact>
</mgrwt>
</event>
<event>
 5    1  0.1607476E-006  0.2000294E+02  0.7818608E-02  0.1745270E+00
         -2   -1    0    0    0  501 -0.00000000000E+00  0.00000000000E+00  0.69973131522E+01  0.69973136352E+01  0.26000000000E-02 0. -1.
          2   -1    0    0  501    0  0.00000000000E+00 -0.00000000000E+00 -0.14295400188E+02  0.14295400424E+02  0.26000000000E-02 0.  1.
       1023    2    1    2    0    0  0.00000000000E+00  0.00000000000E+00 -0.72980870359E+01  0.21292714060E+02  0.20002939725E+02 0.  0.
        -13    1    3    3    0    0  0.39126743282E+01 -0.92030480642E+01 -0.37709384759E+01  0.10688136580E+02  0.10570000000E+00 0. -1.
         13    1    3    3    0    0 -0.39126743282E+01  0.92030480642E+01 -0.35271485600E+01  0.10604577480E+02  0.10570000000E+00 0.  1.
<mgrwt>
<rscale>  0 0.20002940E+02</rscale>
<asrwt>0</asrwt>
<pdfrwt beam="2">  1        2 0.21992924E-02 0.20002940E+02</pdfrwt>
<pdfrwt beam="1">  1       -2 0.10765098E-02 0.20002940E+02</pdfrwt>
<totfact> 0.40522702E+06</totfact>
</mgrwt>
</event>
<event>
 5    1  0.1607476E-006  0.2000443E+02  0.7818608E-02  0.1745240E+00
          2   -1    0    0  501    0  0.00000000000E+00  0.00000000000E+00  0.39751371478E+01  0.39751379981E+01  0.26000000000E-02 0.  1.
         -2   -1    0    0    0  501 -0.00000000000E+00 -0.00000000000E+00 -0.25167510911E+02  0.25167511045E+02  0.26000000000E-02 0. -1.
       1023    2    1    2    0    0  0.00000000000E+00  0.00000000000E+00 -0.21192373763E+02  0.29142649043E+02  0.20004431698E+02 0.  0.
        -13    1    3    3    0    0  0.99042446451E+01 -0.13828859498E+01 -0.10834293295E+02  0.14744474193E+02  0.10570000000E+00 0. -1.
         13    1    3    3    0    0 -0.99042446451E+01  0.13828859498E+01 -0.10358080468E+02  0.14398174850E+02  0.10570000000E+00 0.  1.
<mgrwt>
<rscale>  0 0.20004432E+02</rscale>
<asrwt>0</asrwt>
<pdfrwt beam="1">  1        2 0.61155965E-03 0.20004432E+02</pdfrwt>
<pdfrwt beam="2">  1       -2 0.38719247E-02 0.20004432E+02</pdfrwt>
<totfact> 0.36668585E+06</totfact>
</mgrwt>
</event>
<event>
 5    1  0.1607476E-006  0.2000141E+02  0.7818608E-02  0.1745300E+00
         -2   -1    0    0    0  501 -0.00000000000E+00  0.00000000000E+00  0.15679792462E+02  0.15679792678E+02  0.26000000000E-02 0.  1.
          2   -1    0    0  501    0  0.00000000000E+00 -0.00000000000E+00 -0.63785326755E+01  0.63785332054E+01  0.26000000000E-02 0. -1.
       1023    2    1    2    0    0  0.00000000000E+00  0.00000000000E+00  0.93012597868E+01  0.22058325883E+02  0.20001407629E+02 0.  0.
        -13    1    3    3    0    0  0.46749754549E+01 -0.88399924519E+01  0.46007913026E+01  0.11008147671E+02  0.10570000000E+00 0. -1.
         13    1    3    3    0    0 -0.46749754549E+01  0.88399924519E+01  0.47004684842E+01  0.11050178212E+02  0.10570000000E+00 0.  1.
<mgrwt>
<rscale>  0 0.20001408E+02</rscale>
<asrwt>0</asrwt>
<pdfrwt beam="2">  1        2 0.98131278E-03 0.20001408E+02</pdfrwt>
<pdfrwt beam="1">  1       -2 0.24122758E-02 0.20001408E+02</pdfrwt>
<totfact> 0.38162346E+06</totfact>
</mgrwt>
</event>
<event>
 5    1  0.1607476E-006  0.2000594E+02  0.7818608E-02  0.1745210E+00
         -2   -1    0    0    0  501 -0.00000000000E+00  0.00000000000E+00  0.45572691560E+01  0.45572698977E+01  0.26000000000E-02 0. -1.
          2   -1    0    0  501    0  0.00000000000E+00 -0.00000000000E+00 -0.21956003899E+02  0.21956004053E+02  0.26000000000E-02 0.  1.
       1023    2    1    2    0    0  0.00000000000E+00  0.00000000000E+00 -0.17398734743E+02  0.26513273950E+02  0.20005942240E+02 0.  0.
        -13    1    3    3    0    0 -0.60168717253E+01  0.79902936179E+01 -0.86637750471E+01  0.13233280320E+02  0.10570000000E+00 0. -1.
         13    1    3    3    0    0  0.60168717253E+01 -0.79902936179E+01 -0.87349596956E+01  0.13279993631E+02  0.10570000000E+00 0.  1.
<mgrwt>
<rscale>  0 0.20005942E+02</rscale>
<asrwt>0</asrwt>
<pdfrwt beam="2">  1        2 0.33778468E-02 0.20005942E+02</pdfrwt>
<pdfrwt beam="1">  1       -2 0.70111841E-03 0.20005942E+02</pdfrwt>
<totfact> 0.42003039E+06</totfact>
</mgrwt>
</event>
<event>
 5    1  0.2774248E-006  0.2000137E+02  0.7818608E-02  0.1745301E+00
          2   -1    0    0  501    0  0.00000000000E+00  0.00000000000E+00  0.11639325194E+03  0.11639325197E+03  0.26000000000E-02 0.  1.
         -2   -1    0    0    0  501 -0.00000000000E+00 -0.00000000000E+00 -0.85927221700E+00  0.85927615055E+00  0.26000000000E-02 0. -1.
       1023    2    1    2    0    0  0.00000000000E+00  0.00000000000E+00  0.11553397972E+03  0.11725252812E+03  0.20001371948E+02 0.  0.
        -13    1    3    3    0    0  0.46783600588E+01 -0.88382276406E+01  0.57561662026E+02  0.58423945676E+02  0.10570000000E+00 0. -1.
         13    1    3    3    0    0 -0.46783600588E+01  0.88382276406E+01  0.57972317695E+02  0.58828582442E+02  0.10570000000E+00 0.  1.
<mgrwt>
<rscale>  0 0.20001372E+02</rscale>
<asrwt>0</asrwt>
<pdfrwt beam="1">  1        2 0.17906637E-01 0.20001372E+02</pdfrwt>
<pdfrwt beam="2">  1       -2 0.13219616E-03 0.20001372E+02</pdfrwt>
<totfact> 0.54671395E+06</totfact>
</mgrwt>
</event>
<event>
 5    1  0.1607476E-006  0.2000744E+02  0.7818608E-02  0.1745180E+00
          2   -1    0    0  501    0  0.00000000000E+00  0.00000000000E+00  0.15866908506E+02  0.15866908719E+02  0.26000000000E-02 0. -1.
         -2   -1    0    0    0  501 -0.00000000000E+00 -0.00000000000E+00 -0.63071141073E+01  0.63071146432E+01  0.26000000000E-02 0.  1.
       1023    2    1    2    0    0  0.00000000000E+00  0.00000000000E+00  0.95597943989E+01  0.22174023362E+02  0.20007439695E+02 0.  0.
        -13    1    3    3    0    0  0.78939624599E+01 -0.61434294844E+01  0.46880418774E+01  0.11047410479E+02  0.10570000000E+00 0.  1.
         13    1    3    3    0    0 -0.78939624599E+01  0.61434294844E+01  0.48717525216E+01  0.11126612884E+02  0.10570000000E+00 0. -1.
<mgrwt>
<rscale>  0 0.20007440E+02</rscale>
<asrwt>0</asrwt>
<pdfrwt beam="1">  1        2 0.24410629E-02 0.20007440E+02</pdfrwt>
<pdfrwt beam="2">  1       -2 0.97032530E-03 0.20007440E+02</pdfrwt>
<totfact> 0.40838105E+06</totfact>
</mgrwt>
</event>
<event>
 5    1  0.1607476E-006  0.2000129E+02  0.7818608E-02  0.1745302E+00
          2   -1    0    0  501    0  0.00000000000E+00  0.00000000000E+00  0.33665667773E+02  0.33665667874E+02  0.26000000000E-02 0. -1.
         -2   -1    0    0    0  501 -0.00000000000E+00 -0.00000000000E+00 -0.29707690146E+01  0.29707701524E+01  0.26000000000E-02 0.  1.
       1023    2    1    2    0    0  0.00000000000E+00  0.00000000000E+00  0.30694898759E+02  0.36636438026E+02  0.20001294494E+02 0.  0.
        -13    1    3    3    0    0  0.92051837637E+01 -0.39070583093E+01  0.15282427453E+02  0.18263742062E+02  0.10570000000E+00 0.  1.
         13    1    3    3    0    0 -0.92051837637E+01  0.39070583093E+01  0.15412471306E+02  0.18372695964E+02  0.10570000000E+00 0. -1.
<mgrwt>
<rscale>  0 0.20001294E+02</rscale>
<asrwt>0</asrwt>
<pdfrwt beam="1">  1        2 0.51793334E-02 0.20001294E+02</pdfrwt>
<pdfrwt beam="2">  1       -2 0.45704150E-03 0.20001294E+02</pdfrwt>
<totfact> 0.43938805E+06</totfact>
</mgrwt>
</event>
<event>
 5    1  0.1607476E-006  0.2000518E+02  0.7818608E-02  0.1745225E+00
         -2   -1    0    0    0  501 -0.00000000000E+00  0.00000000000E+00  0.61631474339E+01  0.61631479823E+01  0.26000000000E-02 0. -1.
          2   -1    0    0  501    0  0.00000000000E+00 -0.00000000000E+00 -0.16233886021E+02  0.16233886229E+02  0.26000000000E-02 0.  1.
       1023    2    1    2    0    0  0.00000000000E+00  0.00000000000E+00 -0.10070738587E+02  0.22397034211E+02  0.20005183472E+02 0.  0.
        -13    1    3    3    0    0 -0.10001805958E+02 -0.48739772695E-01 -0.49832048551E+01  0.11175061570E+02  0.10570000000E+00 0. -1.
         13    1    3    3    0    0  0.10001805958E+02  0.48739772695E-01 -0.50875337316E+01  0.11221972641E+02  0.10570000000E+00 0.  1.
<mgrwt>
<rscale>  0 0.20005183E+02</rscale>
<asrwt>0</asrwt>
<pdfrwt beam="2">  1        2 0.24975210E-02 0.20005183E+02</pdfrwt>
<pdfrwt beam="1">  1       -2 0.94817660E-03 0.20005183E+02</pdfrwt>
<totfact> 0.40924183E+06</totfact>
</mgrwt>
</event>
<event>
 4    1  0.1607476E-006  0.2039826E+02  0.7818608E-02  0.1737522E+00
         -2   -1    0    0    0  501 -0.00000000000E+00  0.00000000000E+00  0.13898901367E+02  0.13898901610E+02  0.26000000000E-02 0.  1.
          2   -1    0    0  501    0  0.00000000000E+00 -0.00000000000E+00 -0.74842037211E+01  0.74842041727E+01  0.26000000000E-02 0. -1.
        -13    1    1    2    0    0  0.65968156004E+01  0.77770974345E+01  0.31034489040E+01  0.10660384053E+02  0.10570000000E+00 0.  1.
         13    1    1    2    0    0 -0.65968156004E+01 -0.77770974345E+01  0.33112487419E+01  0.10722721730E+02  0.10570000000E+00 0. -1.
<mgrwt>
<rscale>  0 0.20398256E+02</rscale>
<asrwt>0</asrwt>
<pdfrwt beam="2">  1        2 0.11514160E-02 0.20398256E+02</pdfrwt>
<pdfrwt beam="1">  1       -2 0.21382925E-02 0.20398256E+02</pdfrwt>
<totfact> 0.36912400E+06</totfact>
</mgrwt>
</event>
<event>
 5    1  0.1607476E-006  0.2000203E+02  0.7818608E-02  0.1745288E+00
          2   -1    0    0  501    0  0.00000000000E+00  0.00000000000E+00  0.93124105667E+01  0.93124109297E+01  0.26000000000E-02 0. -1.
         -2   -1    0    0    0  501 -0.00000000000E+00 -0.00000000000E+00 -0.10740532780E+02  0.10740533095E+02  0.26000000000E-02 0.  1.
       1023    2    1    2    0    0  0.00000000000E+00  0.00000000000E+00 -0.14281222136E+01  0.20052944025E+02  0.20002025672E+02 0.  0.
        -13    1    3    3    0    0  0.86207573658E+01 -0.50686716280E+01 -0.72808338736E+00  0.10027470645E+02  0.10570000000E+00 0.  1.
         13    1    3    3    0    0 -0.86207573658E+01  0.50686716280E+01 -0.70003882619E+00  0.10025473379E+02  0.10570000000E+00 0. -1.
<mgrwt>
<rscale>  0 0.20002026E+02</rscale>
<asrwt>0</asrwt>
<pdfrwt beam="1">  1        2 0.14326786E-02 0.20002026E+02</pdfrwt>
<pdfrwt beam="2">  1       -2 0.16523897E-02 0.20002026E+02</pdfrwt>
<totfact> 0.39248885E+06</totfact>
</mgrwt>
</event>
<event>
 5    1  0.2594165E-006  0.2000230E+02  0.7818608E-02  0.1745282E+00
          2   -1    0    0  501    0  0.00000000000E+00  0.00000000000E+00  0.10955510993E+03  0.10955510996E+03  0.26000000000E-02 0.  1.
         -2   -1    0    0    0  501 -0.00000000000E+00 -0.00000000000E+00 -0.91299067621E+00  0.91299437832E+00  0.26000000000E-02 0. -1.
       1023    2    1    2    0    0  0.00000000000E+00  0.00000000000E+00  0.10864211926E+03  0.11046810434E+03  0.20002299876E+02 0.  0.
        -13    1    3    3    0    0  0.89596049706E+01 -0.44419807643E+01  0.53889249033E+02  0.54809379199E+02  0.10570000000E+00 0.  1.
         13    1    3    3    0    0 -0.89596049706E+01  0.44419807643E+01  0.54752870224E+02  0.55658725144E+02  0.10570000000E+00 0. -1.
<mgrwt>
<rscale>  0 0.20002300E+02</rscale>
<asrwt>0</asrwt>
<pdfrwt beam="1">  1        2 0.16854636E-01 0.20002300E+02</pdfrwt>
<pdfrwt beam="2">  1       -2 0.14046036E-03 0.20002300E+02</pdfrwt>
<totfact> 0.53873999E+06</totfact>
</mgrwt>
</event>
<event>
 5    1  0.1628093E-006  0.2000159E+02  0.7818608E-02  0.1745296E+00
         -2   -1    0    0    0  501 -0.00000000000E+00  0.00000000000E+00  0.15908410428E+01  0.15908431675E+01  0.26000000000E-02 0.  1.
          2   -1    0    0  501    0  0.00000000000E+00 -0.00000000000E+00 -0.62869808825E+02  0.62869808878E+02  0.26000000000E-02 0. -1.
       1023    2    1    2    0    0  0.00000000000E+00  0.00000000000E+00 -0.61278967782E+02  0.64460652046E+02  0.20001594181E+02 0.  0.
        -13    1    3    3    0    0  0.49897208578E+01 -0.86664294908E+01 -0.30570694819E+02  0.32164932280E+02  0.10570000000E+00 0.  1.
         13    1    3    3    0    0 -0.49897208578E+01  0.86664294908E+01 -0.30708272963E+02  0.32295719766E+02  0.10570000000E+00 0. -1.
<mgrwt>
<rscale>  0 0.20001594E+02</rscale>
<asrwt>0</asrwt>
<pdfrwt beam="2">  1        2 0.96722765E-02 0.20001594E+02</pdfrwt>
<pdfrwt beam="1">  1       -2 0.24474499E-03 0.20001594E+02</pdfrwt>
<totfact> 0.48073250E+06</totfact>
</mgrwt>
</event>
<event>
 5    1  0.1607476E-006  0.2000139E+02  0.7818608E-02  0.1745301E+00
         -2   -1    0    0    0  501 -0.00000000000E+00  0.00000000000E+00  0.14124109631E+02  0.14124109870E+02  0.26000000000E-02 0. -1.
          2   -1    0    0  501    0  0.00000000000E+00 -0.00000000000E+00 -0.70810735043E+01  0.70810739816E+01  0.26000000000E-02 0.  1.
       1023    2    1    2    0    0  0.00000000000E+00  0.00000000000E+00  0.70430361268E+01  0.21205183852E+02  0.20001386560E+02 0.  0.
        -13    1    3    3    0    0 -0.99868546676E+01 -0.51427586978E+00  0.35541567435E+01  0.10613432455E+02  0.10570000000E+00 0. -1.
         13    1    3    3    0    0  0.99868546676E+01  0.51427586978E+00  0.34888793833E+01  0.10591751397E+02  0.10570000000E+00 0.  1.
<mgrwt>
<rscale>  0 0.20001387E+02</rscale>
<asrwt>0</asrwt>
<pdfrwt beam="2">  1        2 0.10893960E-02 0.20001387E+02</pdfrwt>
<pdfrwt beam="1">  1       -2 0.21729400E-02 0.20001387E+02</pdfrwt>
<totfact> 0.38466335E+06</totfact>
</mgrwt>
</event>
<event>
 5    1  0.1607476E-006  0.2000176E+02  0.7818608E-02  0.1745293E+00
         -2   -1    0    0    0  501 -0.00000000000E+00  0.00000000000E+00  0.52567557777E+01  0.52567564206E+01  0.26000000000E-02 0. -1.
          2   -1    0    0  501    0  0.00000000000E+00 -0.00000000000E+00 -0.19026493611E+02  0.19026493789E+02  0.26000000000E-02 0.  1.
       1023    2    1    2    0    0  0.00000000000E+00  0.00000000000E+00 -0.13769737834E+02  0.24283250210E+02  0.20001763941E+02 0.  0.
        -13    1    3    3    0    0 -0.44561842121E+01  0.89522584957E+01 -0.69785778607E+01  0.12194762456E+02  0.10570000000E+00 0. -1.
         13    1    3    3    0    0  0.44561842121E+01 -0.89522584957E+01 -0.67911599730E+01  0.12088487754E+02  0.10570000000E+00 0.  1.
<mgrwt>
<rscale>  0 0.20001764E+02</rscale>
<asrwt>0</asrwt>
<pdfrwt beam="2">  1        2 0.29271529E-02 0.20001764E+02</pdfrwt>
<pdfrwt beam="1">  1       -2 0.80873173E-03 0.20001764E+02</pdfrwt>
<totfact> 0.41488296E+06</totfact>
</mgrwt>
</event>
<event>
 5    1  0.1607476E-006  0.2000200E+02  0.7818608E-02  0.1745288E+00
          2   -1    0    0  501    0  0.00000000000E+00  0.00000000000E+00  0.11148641847E+01  0.11148672165E+01  0.26000000000E-02 0.  1.
         -2   -1    0    0    0  501 -0.00000000000E+00 -0.00000000000E+00 -0.89714806263E+02  0.89714806300E+02  0.26000000000E-02 0. -1.
       1023    2    1    2    0    0  0.00000000000E+00  0.00000000000E+00 -0.88599942078E+02  0.90829673517E+02  0.20001996274E+02 0.  0.
        -13    1    3    3    0    0 -0.91535041818E+01  0.40272241244E+01 -0.44026817696E+02  0.45148388918E+02  0.10570000000E+00 0. -1.
         13    1    3    3    0    0  0.91535041818E+01 -0.40272241244E+01 -0.44573124382E+02  0.45681284599E+02  0.10570000000E+00 0.  1.
<mgrwt>
<rscale>  0 0.20001996E+02</rscale>
<asrwt>0</asrwt>
<pdfrwt beam="1">  1        2 0.17151787E-03 0.20001996E+02</pdfrwt>
<pdfrwt beam="2">  1       -2 0.13802272E-01 0.20001996E+02</pdfrwt>
<totfact> 0.30490443E+06</totfact>
</mgrwt>
</event>
<event>
 5    1  0.1607476E-006  0.2000151E+02  0.7818608E-02  0.1745298E+00
         -2   -1    0    0    0  501 -0.00000000000E+00  0.00000000000E+00  0.16002597383E+02  0.16002597594E+02  0.26000000000E-02 0. -1.
          2   -1    0    0  501    0  0.00000000000E+00 -0.00000000000E+00 -0.62499262240E+01  0.62499267648E+01  0.26000000000E-02 0.  1.
       1023    2    1    2    0    0  0.00000000000E+00  0.00000000000E+00  0.97526711589E+01  0.22252524359E+02  0.20001506084E+02 0.  0.
        -13    1    3    3    0    0 -0.14446208327E+01 -0.98951595146E+01  0.49349713508E+01  0.11151960630E+02  0.10570000000E+00 0.  1.
         13    1    3    3    0    0  0.14446208327E+01  0.98951595146E+01  0.48176998081E+01  0.11100563729E+02  0.10570000000E+00 0. -1.
<mgrwt>
<rscale>  0 0.20001506E+02</rscale>
<asrwt>0</asrwt>
<pdfrwt beam="2">  1        2 0.96152718E-03 0.20001506E+02</pdfrwt>
<pdfrwt beam="1">  1       -2 0.24619381E-02 0.20001506E+02</pdfrwt>
<totfact> 0.38102080E+06</totfact>
</mgrwt>
</event>
<event>
 5    1  0.1607476E-006  0.2000134E+02  0.7818608E-02  0.1745301E+00
         -2   -1    0    0    0  501 -0.00000000000E+00  0.00000000000E+00  0.73709684754E+02  0.73709684799E+02  0.26000000000E-02 0.  1.
          2   -1    0    0  501    0  0.00000000000E+00 -0.00000000000E+00 -0.13568545198E+01  0.13568570108E+01  0.26000000000E-02 0. -1.
       1023    2    1    2    0    0  0.00000000000E+00  0.00000000000E+00  0.72352830234E+02  0.75066541810E+02  0.20001341368E+02 0.  0.
        -13    1    3    3    0    0 -0.70266359700E+01  0.71153038684E+01  0.36053108221E+02  0.37414421646E+02  0.10570000000E+00 0. -1.
         13    1    3    3    0    0  0.70266359700E+01 -0.71153038684E+01  0.36299722013E+02  0.37652120165E+02  0.10570000000E+00 0.  1.
<mgrwt>
<rscale>  0 0.20001341E+02</rscale>
<asrwt>0</asrwt>
<pdfrwt beam="2">  1        2 0.20874701E-03 0.20001341E+02</pdfrwt>
<pdfrwt beam="1">  1       -2 0.11339953E-01 0.20001341E+02</pdfrwt>
<totfact> 0.31766846E+06</totfact>
</mgrwt>
</event>
<event>
 5    1  0.1607476E-006  0.2000159E+02  0.7818608E-02  0.1745296E+00
          2   -1    0    0  501    0  0.00000000000E+00  0.00000000000E+00  0.41205708025E+01  0.41205716228E+01  0.26000000000E-02 0. -1.
         -2   -1    0    0    0  501 -0.00000000000E+00 -0.00000000000E+00 -0.24272339717E+02  0.24272339857E+02  0.26000000000E-02 0.  1.
       1023    2    1    2    0    0  0.00000000000E+00  0.00000000000E+00 -0.20151768915E+02  0.28392911479E+02  0.20001590734E+02 0.  0.
        -13    1    3    3    0    0 -0.82938226191E+01  0.55872217655E+01 -0.10056072629E+02  0.14182394364E+02  0.10570000000E+00 0. -1.
         13    1    3    3    0    0  0.82938226191E+01 -0.55872217655E+01 -0.10095696286E+02  0.14210517115E+02  0.10570000000E+00 0.  1.
<mgrwt>
<rscale>  0 0.20001591E+02</rscale>
<asrwt>0</asrwt>
<pdfrwt beam="1">  1        2 0.63393406E-03 0.20001591E+02</pdfrwt>
<pdfrwt beam="2">  1       -2 0.37342061E-02 0.20001591E+02</pdfrwt>
<totfact> 0.36802159E+06</totfact>
</mgrwt>
</event>
<event>
 4    1  0.1607476E-006  0.2004538E+02  0.7818608E-02  0.1744427E+00
         -2   -1    0    0    0  501 -0.00000000000E+00  0.00000000000E+00  0.31919999658E+01  0.31920010247E+01  0.26000000000E-02 0.  1.
          2   -1    0    0  501    0  0.00000000000E+00 -0.00000000000E+00 -0.31470632704E+02  0.31470632812E+02  0.26000000000E-02 0. -1.
        -13    1    1    2    0    0 -0.99436859851E+01 -0.12341897890E+01 -0.14497854437E+02  0.17623821129E+02  0.10570000000E+00 0. -1.
         13    1    1    2    0    0  0.99436859851E+01  0.12341897890E+01 -0.13780778301E+02  0.17038812707E+02  0.10570000000E+00 0.  1.
<mgrwt>
<rscale>  0 0.20045376E+02</rscale>
<asrwt>0</asrwt>
<pdfrwt beam="2">  1        2 0.48416357E-02 0.20045376E+02</pdfrwt>
<pdfrwt beam="1">  1       -2 0.49107703E-03 0.20045376E+02</pdfrwt>
<totfact> 0.43384101E+06</totfact>
</mgrwt>
</event>
<event>
 5    1  0.1607476E-006  0.2000233E+02  0.7818608E-02  0.1745282E+00
          2   -1    0    0  501    0  0.00000000000E+00  0.00000000000E+00  0.14948296470E+01  0.14948319081E+01  0.26000000000E-02 0. -1.
         -2   -1    0    0    0  501 -0.00000000000E+00 -0.00000000000E+00 -0.66912786049E+02  0.66912786099E+02  0.26000000000E-02 0.  1.
       1023    2    1    2    0    0  0.00000000000E+00  0.00000000000E+00 -0.65417956402E+02  0.68407618007E+02  0.20002329406E+02 0.  0.
        -13    1    3    3    0    0 -0.69165151861E+01 -0.72228570611E+01 -0.32485329108E+02  0.33989934189E+02  0.10570000000E+00 0.  1.
         13    1    3    3    0    0  0.69165151861E+01  0.72228570611E+01 -0.32932627294E+02  0.34417683818E+02  0.10570000000E+00 0. -1.
<mgrwt>
<rscale>  0 0.20002329E+02</rscale>
<asrwt>0</asrwt>
<pdfrwt beam="1">  1        2 0.22997402E-03 0.20002329E+02</pdfrwt>
<pdfrwt beam="2">  1       -2 0.10294273E-01 0.20002329E+02</pdfrwt>
<totfact> 0.32339690E+06</totfact>
</mgrwt>
</event>
<event>
 4    1  0.1607476E-006  0.2001719E+02  0.7818608E-02  0.1744986E+00
         -2   -1    0    0    0  501 -0.00000000000E+00  0.00000000000E+00  0.13057219575E+02  0.13057219833E+02  0.26000000000E-02 0. -1.
          2   -1    0    0  501    0  0.00000000000E+00 -0.00000000000E+00 -0.76717674500E+01  0.76717678906E+01  0.26000000000E-02 0.  1.
        -13    1    1    2    0    0  0.14694586247E+01 -0.98982764803E+01  0.25270334901E+01  0.10321446443E+02  0.10570000000E+00 0.  1.
         13    1    1    2    0    0 -0.14694586247E+01  0.98982764803E+01  0.28584186345E+01  0.10407541281E+02  0.10570000000E+00 0. -1.
<mgrwt>
<rscale>  0 0.20017189E+02</rscale>
<asrwt>0</asrwt>
<pdfrwt beam="2">  1        2 0.11802720E-02 0.20017189E+02</pdfrwt>
<pdfrwt beam="1">  1       -2 0.20088030E-02 0.20017189E+02</pdfrwt>
<totfact> 0.38626656E+06</totfact>
</mgrwt>
</event>
<event>
 5    1  0.1607476E-006  0.2000365E+02  0.7818608E-02  0.1745255E+00
          2   -1    0    0  501    0  0.00000000000E+00  0.00000000000E+00  0.45179568091E+01  0.45179575572E+01  0.26000000000E-02 0. -1.
         -2   -1    0    0    0  501 -0.00000000000E+00 -0.00000000000E+00 -0.22141983901E+02  0.22141984054E+02  0.26000000000E-02 0.  1.
       1023    2    1    2    0    0  0.00000000000E+00  0.00000000000E+00 -0.17624027092E+02  0.26659941611E+02  0.20003653560E+02 0.  0.
        -13    1    3    3    0    0  0.55656727915E+01 -0.83087670979E+01 -0.89642169294E+01  0.13430587551E+02  0.10570000000E+00 0.  1.
         13    1    3    3    0    0 -0.55656727915E+01  0.83087670979E+01 -0.86598101626E+01  0.13229354060E+02  0.10570000000E+00 0. -1.
<mgrwt>
<rscale>  0 0.20003654E+02</rscale>
<asrwt>0</asrwt>
<pdfrwt beam="1">  1        2 0.69507036E-03 0.20003654E+02</pdfrwt>
<pdfrwt beam="2">  1       -2 0.34064591E-02 0.20003654E+02</pdfrwt>
<totfact> 0.37096059E+06</totfact>
</mgrwt>
</event>
<event>
 5    1  0.1607476E-006  0.2000559E+02  0.7818608E-02  0.1745217E+00
          2   -1    0    0  501    0  0.00000000000E+00  0.00000000000E+00  0.50910549667E+01  0.50910556306E+01  0.26000000000E-02 0. -1.
         -2   -1    0    0    0  501 -0.00000000000E+00 -0.00000000000E+00 -0.19653271189E+02  0.19653271361E+02  0.26000000000E-02 0.  1.
       1023    2    1    2    0    0  0.00000000000E+00  0.00000000000E+00 -0.14562216222E+02  0.24744326992E+02  0.20005588643E+02 0.  0.
        -13    1    3    3    0    0  0.77838356868E+01  0.62791558036E+01 -0.70711089319E+01  0.12248577453E+02  0.10570000000E+00 0. -1.
         13    1    3    3    0    0 -0.77838356868E+01 -0.62791558036E+01 -0.74911072904E+01  0.12495749539E+02  0.10570000000E+00 0.  1.
<mgrwt>
<rscale>  0 0.20005589E+02</rscale>
<asrwt>0</asrwt>
<pdfrwt beam="1">  1        2 0.78323930E-03 0.20005589E+02</pdfrwt>
<pdfrwt beam="2">  1       -2 0.30235802E-02 0.20005589E+02</pdfrwt>
<totfact> 0.37465639E+06</totfact>
</mgrwt>
</event>
