<event>
 5    1  0.1270834E+001  0.9536324E+02  0.7546771E-02  0.1290360E+00
          1   -1    0    0  501    0  0.00000000000E+00  0.00000000000E+00  0.20433392108E+02  0.20433392108E+02  0.00000000000E+00 0. -1.
         -1   -1    0    0    0  501 -0.00000000000E+00 -0.00000000000E+00 -0.11126575924E+03  0.11126575924E+03  0.00000000000E+00 0.  1.
         23    2    1    2    0    0  0.00000000000E+00  0.00000000000E+00 -0.90832367137E+02  0.13169915135E+03  0.95363240021E+02 0.  0.
        -11    1    3    3    0    0  0.39483438467E+02  0.23591872230E+02 -0.62776434505E+02  0.77822869889E+02  0.00000000000E+00 0.  1.
         11    1    3    3    0    0 -0.39483438467E+02 -0.23591872230E+02 -0.28055932632E+02  0.53876281464E+02  0.00000000000E+00 0. -1.
<mgrwt>
<rscale>  0 0.95363240E+02</rscale>
<asrwt>0</asrwt>
<pdfrwt beam="1">  1        1 0.31435988E-02 0.95363240E+02</pdfrwt>
<pdfrwt beam="2">  1       -1 0.17117809E-01 0.95363240E+02</pdfrwt>
<totfact> 0.70991037E+04</totfact>
</mgrwt>
</event>
<event>
 5    1  0.1270834E+001  0.9264763E+02  0.7546771E-02  0.1296564E+00
         -1   -1    0    0    0  501 -0.00000000000E+00  0.00000000000E+00  0.58078599719E+02  0.58078599719E+02  0.00000000000E+00 0.  1.
          1   -1    0    0  501    0  0.00000000000E+00 -0.00000000000E+00 -0.36948132035E+02  0.36948132035E+02  0.00000000000E+00 0. -1.
         23    2    1    2    0    0  0.00000000000E+00  0.00000000000E+00  0.21130467684E+02  0.95026731755E+02  0.92647628590E+02 0.  0.
        -13    1    3    3    0    0  0.31627036552E+01 -0.31072699444E+02  0.45654558535E+02  0.55315947612E+02  0.00000000000E+00 0.  1.
         13    1    3    3    0    0 -0.31627036552E+01  0.31072699444E+02 -0.24524090851E+02  0.39710784143E+02  0.00000000000E+00 0. -1.
<mgrwt>
<rscale>  0 0.92647629E+02</rscale>
<asrwt>0</asrwt>
<pdfrwt beam="2">  1        1 0.56843280E-02 0.92647629E+02</pdfrwt>
<pdfrwt beam="1">  1       -1 0.89351691E-02 0.92647629E+02</pdfrwt>
<totfact> 0.85586656E+04</totfact>
</mgrwt>
</event>
<event>
 5    1  0.1270834E+001  0.9267390E+02  0.7546771E-02  0.1296503E+00
          2   -1    0    0  501    0  0.00000000000E+00  0.00000000000E+00  0.50325567021E+03  0.50325567021E+03  0.00000000000E+00 0. -1.
         -2   -1    0    0    0  501 -0.00000000000E+00 -0.00000000000E+00 -0.42664458217E+01  0.42664458217E+01  0.00000000000E+00 0.  1.
         23    2    1    2    0    0  0.00000000000E+00  0.00000000000E+00  0.49898922439E+03  0.50752211604E+03  0.92673902506E+02 0.  0.
        -11    1    3    3    0    0 -0.44100361028E+02 -0.13882176639E+02  0.26642411626E+03  0.27040592892E+03  0.00000000000E+00 0. -1.
         11    1    3    3    0    0  0.44100361028E+02  0.13882176639E+02  0.23256510813E+03  0.23711618711E+03  0.00000000000E+00 0.  1.
<mgrwt>
<rscale>  0 0.92673903E+02</rscale>
<asrwt>0</asrwt>
<pdfrwt beam="1">  1        2 0.77423902E-01 0.92673903E+02</pdfrwt>
<pdfrwt beam="2">  1       -2 0.65637668E-03 0.92673903E+02</pdfrwt>
<totfact> 0.20683016E+05</totfact>
</mgrwt>
</event>
<event>
 5    1  0.1270834E+001  0.8917881E+02  0.7546771E-02  0.1304853E+00
         -1   -1    0    0    0  501 -0.00000000000E+00  0.00000000000E+00  0.27609860819E+03  0.27609860819E+03  0.00000000000E+00 0.  1.
          1   -1    0    0  501    0  0.00000000000E+00 -0.00000000000E+00 -0.72011046550E+01  0.72011046550E+01  0.00000000000E+00 0. -1.
         23    2    1    2    0    0  0.00000000000E+00  0.00000000000E+00  0.26889750353E+03  0.28329971284E+03  0.89178808529E+02 0.  0.
        -13    1    3    3    0    0  0.37648006167E+02 -0.15286155784E+02  0.19278155202E+03  0.19701717115E+03  0.00000000000E+00 0. -1.
         13    1    3    3    0    0 -0.37648006167E+02  0.15286155784E+02  0.76115951511E+02  0.86282541696E+02  0.00000000000E+00 0.  1.
<mgrwt>
<rscale>  0 0.89178809E+02</rscale>
<asrwt>0</asrwt>
<pdfrwt beam="2">  1        1 0.11078625E-02 0.89178809E+02</pdfrwt>
<pdfrwt beam="1">  1       -1 0.42476701E-01 0.89178809E+02</pdfrwt>
<totfact> 0.66254501E+04</totfact>
</mgrwt>
</event>
<event>
 5    1  0.1270834E+001  0.9058601E+02  0.7546771E-02  0.1301439E+00
          4   -1    0    0  501    0  0.00000000000E+00  0.00000000000E+00  0.49375678984E+02  0.49375678984E+02  0.00000000000E+00 0. -1.
         -4   -1    0    0    0  501 -0.00000000000E+00 -0.00000000000E+00 -0.41547911074E+02  0.41547911074E+02  0.00000000000E+00 0.  1.
         23    2    1    2    0    0  0.00000000000E+00  0.00000000000E+00  0.78277679102E+01  0.90923590058E+02  0.90586010391E+02 0.  0.
        -11    1    3    3    0    0 -0.14072628707E+01 -0.21931382865E+02 -0.35837876955E+02  0.42039497711E+02  0.00000000000E+00 0.  1.
         11    1    3    3    0    0  0.14072628707E+01  0.21931382865E+02  0.43665644865E+02  0.48884092347E+02  0.00000000000E+00 0. -1.
<mgrwt>
<rscale>  0 0.90586010E+02</rscale>
<asrwt>0</asrwt>
<pdfrwt beam="1">  1        4 0.75962583E-02 0.90586010E+02</pdfrwt>
<pdfrwt beam="2">  1       -4 0.63919864E-02 0.90586010E+02</pdfrwt>
<totfact> 0.27513319E+04</totfact>
</mgrwt>
</event>
<event>
 4    1  0.1270834E+001  0.1551278E+03  0.7546771E-02  0.1194310E+00
          1   -1    0    0  501    0  0.00000000000E+00  0.00000000000E+00  0.47652425955E+03  0.47652425955E+03  0.00000000000E+00 0. -1.
         -1   -1    0    0    0  501 -0.00000000000E+00 -0.00000000000E+00 -0.12625091198E+02  0.12625091198E+02  0.00000000000E+00 0.  1.
        -11    1    1    2    0    0 -0.54299616403E+02  0.55097458114E+02  0.24978232608E+03  0.26148688046E+03  0.00000000000E+00 0.  1.
         11    1    1    2    0    0  0.54299616403E+02 -0.55097458114E+02  0.21411684228E+03  0.22766247029E+03  0.00000000000E+00 0. -1.
<mgrwt>
<rscale>  0 0.15512785E+03</rscale>
<asrwt>0</asrwt>
<pdfrwt beam="1">  1        1 0.73311411E-01 0.15512785E+03</pdfrwt>
<pdfrwt beam="2">  1       -1 0.19423221E-02 0.15512785E+03</pdfrwt>
<totfact> 0.32575997E+04</totfact>
</mgrwt>
</event>
<event>
 5    1  0.1270834E+001  0.9340003E+02  0.7546771E-02  0.1294821E+00
          3   -1    0    0  501    0  0.00000000000E+00  0.00000000000E+00  0.21603567375E+03  0.21603567375E+03  0.00000000000E+00 0.  1.
         -3   -1    0    0    0  501 -0.00000000000E+00 -0.00000000000E+00 -0.10095052493E+02  0.10095052493E+02  0.00000000000E+00 0. -1.
         23    2    1    2    0    0  0.00000000000E+00  0.00000000000E+00  0.20594062126E+03  0.22613072625E+03  0.93400031413E+02 0.  0.
        -11    1    3    3    0    0 -0.80793894663E+01 -0.45698685816E+02  0.11560767013E+03  0.12457439469E+03  0.00000000000E+00 0. -1.
         11    1    3    3    0    0  0.80793894663E+01  0.45698685816E+02  0.90332951131E+02  0.10155633156E+03  0.00000000000E+00 0.  1.
<mgrwt>
<rscale>  0 0.93400031E+02</rscale>
<asrwt>0</asrwt>
<pdfrwt beam="1">  1        3 0.33236254E-01 0.93400031E+02</pdfrwt>
<pdfrwt beam="2">  1       -3 0.15530852E-02 0.93400031E+02</pdfrwt>
<totfact> 0.25487940E+04</totfact>
</mgrwt>
</event>
<event>
 5    1  0.1270834E+001  0.9188459E+02  0.7546771E-02  0.1298351E+00
         -2   -1    0    0    0  501 -0.00000000000E+00  0.00000000000E+00  0.25192935020E+03  0.25192935020E+03  0.00000000000E+00 0.  1.
          2   -1    0    0  501    0  0.00000000000E+00 -0.00000000000E+00 -0.83781204272E+01  0.83781204272E+01  0.00000000000E+00 0. -1.
         23    2    1    2    0    0  0.00000000000E+00  0.00000000000E+00  0.24355122977E+03  0.26030747062E+03  0.91884589243E+02 0.  0.
        -13    1    3    3    0    0 -0.28918741892E+02 -0.30592356884E+02  0.17389853577E+03  0.17892145393E+03  0.00000000000E+00 0.  1.
         13    1    3    3    0    0  0.28918741892E+02  0.30592356884E+02  0.69652693998E+02  0.81386016695E+02  0.00000000000E+00 0. -1.
<mgrwt>
<rscale>  0 0.91884589E+02</rscale>
<asrwt>0</asrwt>
<pdfrwt beam="2">  1        2 0.12889418E-02 0.91884589E+02</pdfrwt>
<pdfrwt beam="1">  1       -2 0.38758356E-01 0.91884589E+02</pdfrwt>
<totfact> 0.54860514E+04</totfact>
</mgrwt>
</event>
<event>
 5    1  0.1270834E+001  0.9161209E+02  0.7546771E-02  0.1298994E+00
         -4   -1    0    0    0  501 -0.00000000000E+00  0.00000000000E+00  0.81769348596E+01  0.81769348596E+01  0.00000000000E+00 0.  1.
          4   -1    0    0  501    0  0.00000000000E+00 -0.00000000000E+00 -0.25659906055E+03  0.25659906055E+03  0.00000000000E+00 0. -1.
         23    2    1    2    0    0  0.00000000000E+00  0.00000000000E+00 -0.24842212569E+03  0.26477599541E+03  0.91612090974E+02 0.  0.
        -13    1    3    3    0    0  0.45429529374E+02  0.49231832950E+01 -0.13340255015E+03  0.14101177348E+03  0.00000000000E+00 0. -1.
         13    1    3    3    0    0 -0.45429529374E+02 -0.49231832950E+01 -0.11501957554E+03  0.12376422193E+03  0.00000000000E+00 0.  1.
<mgrwt>
<rscale>  0 0.91612091E+02</rscale>
<asrwt>0</asrwt>
<pdfrwt beam="2">  1        4 0.39476778E-01 0.91612091E+02</pdfrwt>
<pdfrwt beam="1">  1       -4 0.12579900E-02 0.91612091E+02</pdfrwt>
<totfact> 0.18712684E+04</totfact>
</mgrwt>
</event>
<event>
 5    1  0.1270834E+001  0.9388546E+02  0.7546771E-02  0.1293706E+00
          4   -1    0    0  501    0  0.00000000000E+00  0.00000000000E+00  0.38569166242E+02  0.38569166242E+02  0.00000000000E+00 0. -1.
         -4   -1    0    0    0  501 -0.00000000000E+00 -0.00000000000E+00 -0.57134242837E+02  0.57134242837E+02  0.00000000000E+00 0.  1.
         23    2    1    2    0    0  0.00000000000E+00  0.00000000000E+00 -0.18565076595E+02  0.95703409079E+02  0.93885464478E+02 0.  0.
        -13    1    3    3    0    0  0.10310044766E+02 -0.29775019070E+02  0.26187373840E+02  0.40971054811E+02  0.00000000000E+00 0. -1.
         13    1    3    3    0    0 -0.10310044766E+02  0.29775019070E+02 -0.44752450435E+02  0.54732354267E+02  0.00000000000E+00 0.  1.
<mgrwt>
<rscale>  0 0.93885464E+02</rscale>
<asrwt>0</asrwt>
<pdfrwt beam="1">  1        4 0.59337179E-02 0.93885464E+02</pdfrwt>
<pdfrwt beam="2">  1       -4 0.87898834E-02 0.93885464E+02</pdfrwt>
<totfact> 0.24680094E+04</totfact>
</mgrwt>
</event>
<event>
 5    1  0.1270834E+001  0.8939116E+02  0.7546771E-02  0.1304333E+00
          2   -1    0    0  501    0  0.00000000000E+00  0.00000000000E+00  0.47361187858E+03  0.47361187858E+03  0.00000000000E+00 0.  1.
         -2   -1    0    0    0  501 -0.00000000000E+00 -0.00000000000E+00 -0.42180002877E+01  0.42180002877E+01  0.00000000000E+00 0. -1.
         23    2    1    2    0    0  0.00000000000E+00  0.00000000000E+00  0.46939387829E+03  0.47782987886E+03  0.89391163771E+02 0.  0.
        -13    1    3    3    0    0 -0.32793072031E+02  0.30322851742E+02  0.22569805786E+03  0.23007493178E+03  0.00000000000E+00 0.  1.
         13    1    3    3    0    0  0.32793072031E+02 -0.30322851742E+02  0.24369582043E+03  0.24775494708E+03  0.00000000000E+00 0. -1.
<mgrwt>
<rscale>  0 0.89391164E+02</rscale>
<asrwt>0</asrwt>
<pdfrwt beam="1">  1        2 0.72863324E-01 0.89391164E+02</pdfrwt>
<pdfrwt beam="2">  1       -2 0.64892350E-03 0.89391164E+02</pdfrwt>
<totfact> 0.22304391E+05</totfact>
</mgrwt>
</event>
<event>
 5    1  0.1270834E+001  0.9199496E+02  0.7546771E-02  0.1298091E+00
          2   -1    0    0  501    0  0.00000000000E+00  0.00000000000E+00  0.18600207549E+02  0.18600207549E+02  0.00000000000E+00 0. -1.
         -2   -1    0    0    0  501 -0.00000000000E+00 -0.00000000000E+00 -0.11374970388E+03  0.11374970388E+03  0.00000000000E+00 0.  1.
         23    2    1    2    0    0  0.00000000000E+00  0.00000000000E+00 -0.95149496331E+02  0.13234991143E+03  0.91994958576E+02 0.  0.
        -11    1    3    3    0    0 -0.28175199196E+02  0.28260346994E+02 -0.80484627962E+02  0.89834650332E+02  0.00000000000E+00 0.  1.
         11    1    3    3    0    0  0.28175199196E+02 -0.28260346994E+02 -0.14664868369E+02  0.42515261098E+02  0.00000000000E+00 0. -1.
<mgrwt>
<rscale>  0 0.91994959E+02</rscale>
<asrwt>0</asrwt>
<pdfrwt beam="1">  1        2 0.28615704E-02 0.91994959E+02</pdfrwt>
<pdfrwt beam="2">  1       -2 0.17499954E-01 0.91994959E+02</pdfrwt>
<totfact> 0.75017636E+04</totfact>
</mgrwt>
</event>
<event>
 5    1  0.1270834E+001  0.9130988E+02  0.7546771E-02  0.1299710E+00
          1   -1    0    0  501    0  0.00000000000E+00  0.00000000000E+00  0.95729125610E+01  0.95729125610E+01  0.00000000000E+00 0. -1.
         -1   -1    0    0    0  501 -0.00000000000E+00 -0.00000000000E+00 -0.21773662150E+03  0.21773662150E+03  0.00000000000E+00 0.  1.
         23    2    1    2    0    0  0.00000000000E+00  0.00000000000E+00 -0.20816370893E+03  0.22730953406E+03  0.91309882026E+02 0.  0.
        -11    1    3    3    0    0 -0.10733405102E+02 -0.33270631146E+02 -0.17718097116E+03  0.18059689206E+03  0.00000000000E+00 0.  1.
         11    1    3    3    0    0  0.10733405102E+02  0.33270631146E+02 -0.30982737775E+02  0.46712641993E+02  0.00000000000E+00 0. -1.
<mgrwt>
<rscale>  0 0.91309882E+02</rscale>
<asrwt>0</asrwt>
<pdfrwt beam="1">  1        1 0.14727559E-02 0.91309882E+02</pdfrwt>
<pdfrwt beam="2">  1       -1 0.33497939E-01 0.91309882E+02</pdfrwt>
<totfact> 0.67447773E+04</totfact>
</mgrwt>
</event>
<event>
 5    1  0.1270834E+001  0.9144803E+02  0.7546771E-02  0.1299383E+00
         -1   -1    0    0    0  501 -0.00000000000E+00  0.00000000000E+00  0.20889223304E+02  0.20889223304E+02  0.00000000000E+00 0.  1.
          1   -1    0    0  501    0  0.00000000000E+00 -0.00000000000E+00 -0.10008439786E+03  0.10008439786E+03  0.00000000000E+00 0. -1.
         23    2    1    2    0    0  0.00000000000E+00  0.00000000000E+00 -0.79195174555E+02  0.12097362116E+03  0.91448025373E+02 0.  0.
        -13    1    3    3    0    0 -0.50882662197E+01  0.45429416392E+02 -0.40895757336E+02  0.61336655394E+02  0.00000000000E+00 0. -1.
         13    1    3    3    0    0  0.50882662197E+01 -0.45429416392E+02 -0.38299417219E+02  0.59636965769E+02  0.00000000000E+00 0.  1.
<mgrwt>
<rscale>  0 0.91448025E+02</rscale>
<asrwt>0</asrwt>
<pdfrwt beam="2">  1        1 0.15397600E-01 0.91448025E+02</pdfrwt>
<pdfrwt beam="1">  1       -1 0.32137266E-02 0.91448025E+02</pdfrwt>
<totfact> 0.10362309E+05</totfact>
</mgrwt>
</event>
<event>
 5    1  0.1270834E+001  0.9321237E+02  0.7546771E-02  0.1295254E+00
         -1   -1    0    0    0  501 -0.00000000000E+00  0.00000000000E+00  0.11947792172E+03  0.11947792172E+03  0.00000000000E+00 0.  1.
          1   -1    0    0  501    0  0.00000000000E+00 -0.00000000000E+00 -0.18180231757E+02  0.18180231757E+02  0.00000000000E+00 0. -1.
         23    2    1    2    0    0  0.00000000000E+00  0.00000000000E+00  0.10129768997E+03  0.13765815348E+03  0.93212366277E+02 0.  0.
        -11    1    3    3    0    0 -0.76668921043E+01  0.18908991141E+02 -0.11233471557E+02  0.23292103034E+02  0.00000000000E+00 0. -1.
         11    1    3    3    0    0  0.76668921043E+01 -0.18908991141E+02  0.11253116152E+03  0.11436605045E+03  0.00000000000E+00 0.  1.
<mgrwt>
<rscale>  0 0.93212366E+02</rscale>
<asrwt>0</asrwt>
<pdfrwt beam="2">  1        1 0.27969588E-02 0.93212366E+02</pdfrwt>
<pdfrwt beam="1">  1       -1 0.18381218E-01 0.93212366E+02</pdfrwt>
<totfact> 0.74234426E+04</totfact>
</mgrwt>
</event>
<event>
 5    1  0.1270834E+001  0.8805157E+02  0.7546771E-02  0.1307640E+00
          3   -1    0    0  501    0  0.00000000000E+00  0.00000000000E+00  0.13511097593E+03  0.13511097593E+03  0.00000000000E+00 0. -1.
         -3   -1    0    0    0  501 -0.00000000000E+00 -0.00000000000E+00 -0.14345759481E+02  0.14345759481E+02  0.00000000000E+00 0.  1.
         23    2    1    2    0    0  0.00000000000E+00  0.00000000000E+00  0.12076521645E+03  0.14945673541E+03  0.88051565890E+02 0.  0.
        -13    1    3    3    0    0  0.20419520851E+02 -0.35377952015E+02  0.88258549678E+02  0.97252906959E+02  0.00000000000E+00 0. -1.
         13    1    3    3    0    0 -0.20419520851E+02  0.35377952015E+02  0.32506666774E+02  0.52203828455E+02  0.00000000000E+00 0.  1.
<mgrwt>
<rscale>  0 0.88051566E+02</rscale>
<asrwt>0</asrwt>
<pdfrwt beam="1">  1        3 0.20786303E-01 0.88051566E+02</pdfrwt>
<pdfrwt beam="2">  1       -3 0.22070400E-02 0.88051566E+02</pdfrwt>
<totfact> 0.34433563E+04</totfact>
</mgrwt>
</event>
<event>
 5    1  0.1270834E+001  0.8860571E+02  0.7546771E-02  0.1306264E+00
         -1   -1    0    0    0  501 -0.00000000000E+00  0.00000000000E+00  0.12274408094E+03  0.12274408094E+03  0.00000000000E+00 0.  1.
          1   -1    0    0  501    0  0.00000000000E+00 -0.00000000000E+00 -0.15990528949E+02  0.15990528949E+02  0.00000000000E+00 0. -1.
         23    2    1    2    0    0  0.00000000000E+00  0.00000000000E+00  0.10675355199E+03  0.13873460989E+03  0.88605705903E+02 0.  0.
        -13    1    3    3    0    0  0.10714311601E+02  0.26383562893E+02  0.23674187282E+00  0.28477094492E+02  0.00000000000E+00 0. -1.
         13    1    3    3    0    0 -0.10714311601E+02 -0.26383562893E+02  0.10651681012E+03  0.11025751540E+03  0.00000000000E+00 0.  1.
<mgrwt>
<rscale>  0 0.88605706E+02</rscale>
<asrwt>0</asrwt>
<pdfrwt beam="2">  1        1 0.24600815E-02 0.88605706E+02</pdfrwt>
<pdfrwt beam="1">  1       -1 0.18883704E-01 0.88605706E+02</pdfrwt>
<totfact> 0.84159051E+04</totfact>
</mgrwt>
</event>
<event>
 5    1  0.1270834E+001  0.9307422E+02  0.7546771E-02  0.1295573E+00
          1   -1    0    0  501    0  0.00000000000E+00  0.00000000000E+00  0.23707344284E+03  0.23707344284E+03  0.00000000000E+00 0. -1.
         -1   -1    0    0    0  501 -0.00000000000E+00 -0.00000000000E+00 -0.91351544667E+01  0.91351544667E+01  0.00000000000E+00 0.  1.
         23    2    1    2    0    0  0.00000000000E+00  0.00000000000E+00  0.22793828838E+03  0.24620859731E+03  0.93074218134E+02 0.  0.
        -13    1    3    3    0    0 -0.19733429561E+02  0.39806348507E+02  0.15059942551E+03  0.15701637044E+03  0.00000000000E+00 0. -1.
         13    1    3    3    0    0  0.19733429561E+02 -0.39806348507E+02  0.77338862867E+02  0.89192226866E+02  0.00000000000E+00 0.  1.
<mgrwt>
<rscale>  0 0.93074218E+02</rscale>
<asrwt>0</asrwt>
<pdfrwt beam="1">  1        1 0.36472833E-01 0.93074218E+02</pdfrwt>
<pdfrwt beam="2">  1       -1 0.14054086E-02 0.93074218E+02</pdfrwt>
<totfact> 0.11582676E+05</totfact>
</mgrwt>
</event>
<event>
 5    1  0.1270834E+001  0.9077306E+02  0.7546771E-02  0.1300990E+00
          2   -1    0    0  501    0  0.00000000000E+00  0.00000000000E+00  0.49006532135E+03  0.49006532135E+03  0.00000000000E+00 0. -1.
         -2   -1    0    0    0  501 -0.00000000000E+00 -0.00000000000E+00 -0.42033928104E+01  0.42033928104E+01  0.00000000000E+00 0.  1.
         23    2    1    2    0    0  0.00000000000E+00  0.00000000000E+00  0.48586192854E+03  0.49426871416E+03  0.90773058744E+02 0.  0.
        -13    1    3    3    0    0  0.31286467331E+02  0.32758505296E+02  0.25830732490E+03  0.26224918838E+03  0.00000000000E+00 0. -1.
         13    1    3    3    0    0 -0.31286467331E+02 -0.32758505296E+02  0.22755460364E+03  0.23201952578E+03  0.00000000000E+00 0.  1.
<mgrwt>
<rscale>  0 0.90773059E+02</rscale>
<asrwt>0</asrwt>
<pdfrwt beam="1">  1        2 0.75394620E-01 0.90773059E+02</pdfrwt>
<pdfrwt beam="2">  1       -2 0.64667621E-03 0.90773059E+02</pdfrwt>
<totfact> 0.21661731E+05</totfact>
</mgrwt>
</event>
<event>
 5    1  0.1270834E+001  0.8138681E+02  0.7546771E-02  0.1325161E+00
         -3   -1    0    0    0  501 -0.00000000000E+00  0.00000000000E+00  0.97989486953E+02  0.97989486953E+02  0.00000000000E+00 0.  1.
          3   -1    0    0  501    0  0.00000000000E+00 -0.00000000000E+00 -0.16899295586E+02  0.16899295586E+02  0.00000000000E+00 0. -1.
         23    2    1    2    0    0  0.00000000000E+00  0.00000000000E+00  0.81090191368E+02  0.11488878254E+03  0.81386812305E+02 0.  0.
        -11    1    3    3    0    0  0.32954905407E+02 -0.23717060242E+02  0.36697617886E+02  0.54728784889E+02  0.00000000000E+00 0. -1.
         11    1    3    3    0    0 -0.32954905407E+02  0.23717060242E+02  0.44392573481E+02  0.60159997649E+02  0.00000000000E+00 0.  1.
<mgrwt>
<rscale>  0 0.81386812E+02</rscale>
<asrwt>0</asrwt>
<pdfrwt beam="2">  1        3 0.25998917E-02 0.81386812E+02</pdfrwt>
<pdfrwt beam="1">  1       -3 0.15075305E-01 0.81386812E+02</pdfrwt>
<totfact> 0.45639064E+04</totfact>
</mgrwt>
</event>
<event>
 5    1  0.1270834E+001  0.8492004E+02  0.7546771E-02  0.1315642E+00
          1   -1    0    0  501    0  0.00000000000E+00  0.00000000000E+00  0.66942859192E+02  0.66942859192E+02  0.00000000000E+00 0. -1.
         -1   -1    0    0    0  501 -0.00000000000E+00 -0.00000000000E+00 -0.26931226445E+02  0.26931226445E+02  0.00000000000E+00 0.  1.
         23    2    1    2    0    0  0.00000000000E+00  0.00000000000E+00  0.40011632747E+02  0.93874085637E+02  0.84920040033E+02 0.  0.
        -13    1    3    3    0    0 -0.11108177509E+02 -0.19236354586E+02  0.60007266609E+02  0.63986725117E+02  0.00000000000E+00 0. -1.
         13    1    3    3    0    0  0.11108177509E+02  0.19236354586E+02 -0.19995633862E+02  0.29887360521E+02  0.00000000000E+00 0.  1.
<mgrwt>
<rscale>  0 0.84920040E+02</rscale>
<asrwt>0</asrwt>
<pdfrwt beam="1">  1        1 0.10298901E-01 0.84920040E+02</pdfrwt>
<pdfrwt beam="2">  1       -1 0.41432656E-02 0.84920040E+02</pdfrwt>
<totfact> 0.11911636E+05</totfact>
</mgrwt>
</event>
<event>
 5    1  0.1270834E+001  0.8717652E+02  0.7546771E-02  0.1309837E+00
          2   -1    0    0  501    0  0.00000000000E+00  0.00000000000E+00  0.15229695240E+03  0.15229695240E+03  0.00000000000E+00 0. -1.
         -2   -1    0    0    0  501 -0.00000000000E+00 -0.00000000000E+00 -0.12475210876E+02  0.12475210876E+02  0.00000000000E+00 0.  1.
         23    2    1    2    0    0  0.00000000000E+00  0.00000000000E+00  0.13982174153E+03  0.16477216328E+03  0.87176524292E+02 0.  0.
        -11    1    3    3    0    0 -0.15864043757E+02  0.29789148510E+02  0.12204727187E+03  0.12662779246E+03  0.00000000000E+00 0. -1.
         11    1    3    3    0    0  0.15864043757E+02 -0.29789148510E+02  0.17774469657E+02  0.38144370815E+02  0.00000000000E+00 0.  1.
<mgrwt>
<rscale>  0 0.87176524E+02</rscale>
<asrwt>0</asrwt>
<pdfrwt beam="1">  1        2 0.23430299E-01 0.87176524E+02</pdfrwt>
<pdfrwt beam="2">  1       -2 0.19192633E-02 0.87176524E+02</pdfrwt>
<totfact> 0.15865547E+05</totfact>
</mgrwt>
</event>
<event>
 5    1  0.1270834E+001  0.9118912E+02  0.7546771E-02  0.1299997E+00
          3   -1    0    0  501    0  0.00000000000E+00  0.00000000000E+00  0.16794156194E+03  0.16794156194E+03  0.00000000000E+00 0. -1.
         -3   -1    0    0    0  501 -0.00000000000E+00 -0.00000000000E+00 -0.12378494905E+02  0.12378494905E+02  0.00000000000E+00 0.  1.
         23    2    1    2    0    0  0.00000000000E+00  0.00000000000E+00  0.15556306703E+03  0.18032005684E+03  0.91189117087E+02 0.  0.
        -11    1    3    3    0    0  0.23249356212E+02  0.26993222819E+02  0.13404964300E+03  0.13870282416E+03  0.00000000000E+00 0. -1.
         11    1    3    3    0    0 -0.23249356212E+02 -0.26993222819E+02  0.21513424038E+02  0.41617232684E+02  0.00000000000E+00 0.  1.
<mgrwt>
<rscale>  0 0.91189117E+02</rscale>
<asrwt>0</asrwt>
<pdfrwt beam="1">  1        3 0.25837162E-01 0.91189117E+02</pdfrwt>
<pdfrwt beam="2">  1       -3 0.19043839E-02 0.91189117E+02</pdfrwt>
<totfact> 0.29537712E+04</totfact>
</mgrwt>
</event>
<event>
 4    1  0.1270834E+001  0.4577661E+02  0.7546771E-02  0.1469551E+00
          3   -1    0    0  501    0  0.00000000000E+00  0.00000000000E+00  0.17423618453E+02  0.17423618453E+02  0.00000000000E+00 0. -1.
         -3   -1    0    0    0  501 -0.00000000000E+00 -0.00000000000E+00 -0.30066918739E+02  0.30066918739E+02  0.00000000000E+00 0.  1.
        -13    1    1    2    0    0  0.88016570049E+01  0.18446112115E+02  0.43668282260E+01  0.20899698728E+02  0.00000000000E+00 0. -1.
         13    1    1    2    0    0 -0.88016570049E+01 -0.18446112115E+02 -0.17010128512E+02  0.26590838463E+02  0.00000000000E+00 0.  1.
<mgrwt>
<rscale>  0 0.45776611E+02</rscale>
<asrwt>0</asrwt>
<pdfrwt beam="1">  1        3 0.26805567E-02 0.45776611E+02</pdfrwt>
<pdfrwt beam="2">  1       -3 0.46256797E-02 0.45776611E+02</pdfrwt>
<totfact> 0.23752171E+05</totfact>
</mgrwt>
</event>
<event>
 5    1  0.1270834E+001  0.9865838E+02  0.7546771E-02  0.1283143E+00
         -3   -1    0    0    0  501 -0.00000000000E+00  0.00000000000E+00  0.15501754353E+03  0.15501754353E+03  0.00000000000E+00 0.  1.
          3   -1    0    0  501    0  0.00000000000E+00 -0.00000000000E+00 -0.15697379448E+02  0.15697379448E+02  0.00000000000E+00 0. -1.
         23    2    1    2    0    0  0.00000000000E+00  0.00000000000E+00  0.13932016408E+03  0.17071492298E+03  0.98658384374E+02 0.  0.
        -11    1    3    3    0    0 -0.44652338466E+02  0.33685403419E+01  0.10546611087E+03  0.11457870193E+03  0.00000000000E+00 0.  1.
         11    1    3    3    0    0  0.44652338466E+02 -0.33685403419E+01  0.33854053217E+02  0.56136221049E+02  0.00000000000E+00 0. -1.
<mgrwt>
<rscale>  0 0.98658384E+02</rscale>
<asrwt>0</asrwt>
<pdfrwt beam="2">  1        3 0.24149816E-02 0.98658384E+02</pdfrwt>
<pdfrwt beam="1">  1       -3 0.23848852E-01 0.98658384E+02</pdfrwt>
<totfact> 0.24278582E+04</totfact>
</mgrwt>
</event>
<event>
 5    1  0.1270834E+001  0.9267635E+02  0.7546771E-02  0.1296497E+00
         -2   -1    0    0    0  501 -0.00000000000E+00  0.00000000000E+00  0.20936897439E+02  0.20936897439E+02  0.00000000000E+00 0. -1.
          2   -1    0    0  501    0  0.00000000000E+00 -0.00000000000E+00 -0.10255705071E+03  0.10255705071E+03  0.00000000000E+00 0.  1.
         23    2    1    2    0    0  0.00000000000E+00  0.00000000000E+00 -0.81620153267E+02  0.12349394815E+03  0.92676349784E+02 0.  0.
        -13    1    3    3    0    0  0.94523936291E+01  0.40911515698E+02 -0.14693638786E+02  0.44485985240E+02  0.00000000000E+00 0. -1.
         13    1    3    3    0    0 -0.94523936291E+01 -0.40911515698E+02 -0.66926514481E+02  0.79007962906E+02  0.00000000000E+00 0.  1.
<mgrwt>
<rscale>  0 0.92676350E+02</rscale>
<asrwt>0</asrwt>
<pdfrwt beam="2">  1        2 0.15778008E-01 0.92676350E+02</pdfrwt>
<pdfrwt beam="1">  1       -2 0.32210612E-02 0.92676350E+02</pdfrwt>
<totfact> 0.11819157E+05</totfact>
</mgrwt>
</event>
<event>
 5    1  0.1270834E+001  0.9128032E+02  0.7546771E-02  0.1299781E+00
          2   -1    0    0  501    0  0.00000000000E+00  0.00000000000E+00  0.44702404369E+02  0.44702404369E+02  0.00000000000E+00 0. -1.
         -2   -1    0    0    0  501 -0.00000000000E+00 -0.00000000000E+00 -0.46597588540E+02  0.46597588540E+02  0.00000000000E+00 0.  1.
         23    2    1    2    0    0  0.00000000000E+00  0.00000000000E+00 -0.18951841711E+01  0.91299992909E+02  0.91280320892E+02 0.  0.
        -13    1    3    3    0    0  0.39927959489E+02 -0.22051866937E+02 -0.25282684360E+01  0.45682807769E+02  0.00000000000E+00 0.  1.
         13    1    3    3    0    0 -0.39927959489E+02  0.22051866937E+02  0.63308426482E+00  0.45617185140E+02  0.00000000000E+00 0. -1.
<mgrwt>
<rscale>  0 0.91280321E+02</rscale>
<asrwt>0</asrwt>
<pdfrwt beam="1">  1        2 0.68772930E-02 0.91280321E+02</pdfrwt>
<pdfrwt beam="2">  1       -2 0.71688598E-02 0.91280321E+02</pdfrwt>
<totfact> 0.97853627E+04</totfact>
</mgrwt>
</event>
<event>
 5    1  0.1270834E+001  0.9375083E+02  0.7546771E-02  0.1294015E+00
          1   -1    0    0  501    0  0.00000000000E+00  0.00000000000E+00  0.26639123725E+02  0.26639123725E+02  0.00000000000E+00 0. -1.
         -1   -1    0    0    0  501 -0.00000000000E+00 -0.00000000000E+00 -0.82484119364E+02  0.82484119364E+02  0.00000000000E+00 0.  1.
         23    2    1    2    0    0  0.00000000000E+00  0.00000000000E+00 -0.55844995639E+02  0.10912324309E+03  0.93750832766E+02 0.  0.
        -13    1    3    3    0    0  0.22771390038E+01 -0.46728730961E+02 -0.31324998411E+02  0.56302887890E+02  0.00000000000E+00 0.  1.
         13    1    3    3    0    0 -0.22771390038E+01  0.46728730961E+02 -0.24519997229E+02  0.52820355199E+02  0.00000000000E+00 0. -1.
<mgrwt>
<rscale>  0 0.93750833E+02</rscale>
<asrwt>0</asrwt>
<pdfrwt beam="1">  1        1 0.40983266E-02 0.93750833E+02</pdfrwt>
<pdfrwt beam="2">  1       -1 0.12689865E-01 0.93750833E+02</pdfrwt>
<totfact> 0.78407074E+04</totfact>
</mgrwt>
</event>
<event>
 5    1  0.1270834E+001  0.9137913E+02  0.7546771E-02  0.1299546E+00
         -1   -1    0    0    0  501 -0.00000000000E+00  0.00000000000E+00  0.69648662649E+02  0.69648662649E+02  0.00000000000E+00 0.  1.
          1   -1    0    0  501    0  0.00000000000E+00 -0.00000000000E+00 -0.29972383228E+02  0.29972383228E+02  0.00000000000E+00 0. -1.
         23    2    1    2    0    0  0.00000000000E+00  0.00000000000E+00  0.39676279420E+02  0.99621045877E+02  0.91379131277E+02 0.  0.
        -11    1    3    3    0    0 -0.37185899345E+02 -0.21082044190E+02  0.37426893725E+02  0.56815632279E+02  0.00000000000E+00 0.  1.
         11    1    3    3    0    0  0.37185899345E+02  0.21082044190E+02  0.22493856951E+01  0.42805413598E+02  0.00000000000E+00 0. -1.
<mgrwt>
<rscale>  0 0.91379131E+02</rscale>
<asrwt>0</asrwt>
<pdfrwt beam="2">  1        1 0.46111359E-02 0.91379131E+02</pdfrwt>
<pdfrwt beam="1">  1       -1 0.10715179E-01 0.91379131E+02</pdfrwt>
<totfact> 0.86121286E+04</totfact>
</mgrwt>
</event>
<event>
 5    1  0.1270834E+001  0.9148505E+02  0.7546771E-02  0.1299295E+00
          1   -1    0    0  501    0  0.00000000000E+00  0.00000000000E+00  0.16318196466E+03  0.16318196466E+03  0.00000000000E+00 0. -1.
         -1   -1    0    0    0  501 -0.00000000000E+00 -0.00000000000E+00 -0.12822363792E+02  0.12822363792E+02  0.00000000000E+00 0.  1.
         23    2    1    2    0    0  0.00000000000E+00  0.00000000000E+00  0.15035960086E+03  0.17600432845E+03  0.91485048287E+02 0.  0.
        -13    1    3    3    0    0  0.31219943206E+01  0.24741271328E+02  0.14895423889E+03  0.15102729104E+03  0.00000000000E+00 0. -1.
         13    1    3    3    0    0 -0.31219943206E+01 -0.24741271328E+02  0.14053619752E+01  0.24977037409E+02  0.00000000000E+00 0.  1.
<mgrwt>
<rscale>  0 0.91485048E+02</rscale>
<asrwt>0</asrwt>
<pdfrwt beam="1">  1        1 0.25104916E-01 0.91485048E+02</pdfrwt>
<pdfrwt beam="2">  1       -1 0.19726715E-02 0.91485048E+02</pdfrwt>
<totfact> 0.11286635E+05</totfact>
</mgrwt>
</event>
<event>
 5    1  0.1270834E+001  0.9519674E+02  0.7546771E-02  0.1290734E+00
         -1   -1    0    0    0  501 -0.00000000000E+00  0.00000000000E+00  0.52278664375E+02  0.52278664375E+02  0.00000000000E+00 0.  1.
          1   -1    0    0  501    0  0.00000000000E+00 -0.00000000000E+00 -0.43337086574E+02  0.43337086574E+02  0.00000000000E+00 0. -1.
         23    2    1    2    0    0  0.00000000000E+00  0.00000000000E+00  0.89415778013E+01  0.95615750949E+02  0.95196743726E+02 0.  0.
        -11    1    3    3    0    0 -0.98294822986E+01 -0.45977233005E+02  0.11925067179E+02  0.48504967831E+02  0.00000000000E+00 0.  1.
         11    1    3    3    0    0  0.98294822986E+01  0.45977233005E+02 -0.29834893776E+01  0.47110783118E+02  0.00000000000E+00 0. -1.
<mgrwt>
<rscale>  0 0.95196744E+02</rscale>
<asrwt>0</asrwt>
<pdfrwt beam="2">  1        1 0.66672441E-02 0.95196744E+02</pdfrwt>
<pdfrwt beam="1">  1       -1 0.80428715E-02 0.95196744E+02</pdfrwt>
<totfact> 0.81234711E+04</totfact>
</mgrwt>
</event>
<event>
 5    1  0.1270834E+001  0.7721283E+02  0.7546771E-02  0.1337152E+00
         -2   -1    0    0    0  501 -0.00000000000E+00  0.00000000000E+00  0.14058355956E+02  0.14058355956E+02  0.00000000000E+00 0. -1.
          2   -1    0    0  501    0  0.00000000000E+00 -0.00000000000E+00 -0.10601916842E+03  0.10601916842E+03  0.00000000000E+00 0.  1.
         23    2    1    2    0    0  0.00000000000E+00  0.00000000000E+00 -0.91960812463E+02  0.12007752437E+03  0.77212828152E+02 0.  0.
        -13    1    3    3    0    0  0.12433601310E+01  0.38572268991E+02 -0.44357282382E+02  0.58795700352E+02  0.00000000000E+00 0.  1.
         13    1    3    3    0    0 -0.12433601310E+01 -0.38572268991E+02 -0.47603530080E+02  0.61281824023E+02  0.00000000000E+00 0. -1.
<mgrwt>
<rscale>  0 0.77212828E+02</rscale>
<asrwt>0</asrwt>
<pdfrwt beam="2">  1        2 0.16310642E-01 0.77212828E+02</pdfrwt>
<pdfrwt beam="1">  1       -2 0.21628239E-02 0.77212828E+02</pdfrwt>
<totfact> 0.19608404E+05</totfact>
</mgrwt>
</event>
<event>
 5    1  0.1270834E+001  0.9221365E+02  0.7546771E-02  0.1297578E+00
          4   -1    0    0  501    0  0.00000000000E+00  0.00000000000E+00  0.10083642538E+03  0.10083642538E+03  0.00000000000E+00 0. -1.
         -4   -1    0    0    0  501 -0.00000000000E+00 -0.00000000000E+00 -0.21082058904E+02  0.21082058904E+02  0.00000000000E+00 0.  1.
         23    2    1    2    0    0  0.00000000000E+00  0.00000000000E+00  0.79754366474E+02  0.12191848428E+03  0.92213653207E+02 0.  0.
        -11    1    3    3    0    0 -0.72989911607E+01  0.15502284457E+02  0.96470598833E+02  0.97980470169E+02  0.00000000000E+00 0. -1.
         11    1    3    3    0    0  0.72989911607E+01 -0.15502284457E+02 -0.16716232359E+02  0.23938014112E+02  0.00000000000E+00 0.  1.
<mgrwt>
<rscale>  0 0.92213653E+02</rscale>
<asrwt>0</asrwt>
<pdfrwt beam="1">  1        4 0.15513296E-01 0.92213653E+02</pdfrwt>
<pdfrwt beam="2">  1       -4 0.32433937E-02 0.92213653E+02</pdfrwt>
<totfact> 0.24405443E+04</totfact>
</mgrwt>
</event>
<event>
 5    1  0.1270834E+001  0.9528147E+02  0.7546771E-02  0.1290543E+00
          3   -1    0    0  501    0  0.00000000000E+00  0.00000000000E+00  0.13428071257E+03  0.13428071257E+03  0.00000000000E+00 0. -1.
         -3   -1    0    0    0  501 -0.00000000000E+00 -0.00000000000E+00 -0.16902202329E+02  0.16902202329E+02  0.00000000000E+00 0.  1.
         23    2    1    2    0    0  0.00000000000E+00  0.00000000000E+00  0.11737851024E+03  0.15118291490E+03  0.95281472969E+02 0.  0.
        -13    1    3    3    0    0  0.19282530371E+02  0.13700614838E+02  0.12430486318E+03  0.12653545683E+03  0.00000000000E+00 0. -1.
         13    1    3    3    0    0 -0.19282530371E+02 -0.13700614838E+02 -0.69263529377E+01  0.24647458073E+02  0.00000000000E+00 0.  1.
<mgrwt>
<rscale>  0 0.95281473E+02</rscale>
<asrwt>0</asrwt>
<pdfrwt beam="1">  1        3 0.20658570E-01 0.95281473E+02</pdfrwt>
<pdfrwt beam="2">  1       -3 0.26003389E-02 0.95281473E+02</pdfrwt>
<totfact> 0.27710864E+04</totfact>
</mgrwt>
</event>
<event>
 5    1  0.1270834E+001  0.9062936E+02  0.7546771E-02  0.1301335E+00
          1   -1    0    0  501    0  0.00000000000E+00  0.00000000000E+00  0.46645696483E+02  0.46645696483E+02  0.00000000000E+00 0. -1.
         -1   -1    0    0    0  501 -0.00000000000E+00 -0.00000000000E+00 -0.44021643972E+02  0.44021643972E+02  0.00000000000E+00 0.  1.
         23    2    1    2    0    0  0.00000000000E+00  0.00000000000E+00  0.26240525106E+01  0.90667340455E+02  0.90629360439E+02 0.  0.
        -11    1    3    3    0    0 -0.48685865110E+01 -0.21000168377E+02  0.41187355424E+02  0.46487723683E+02  0.00000000000E+00 0. -1.
         11    1    3    3    0    0  0.48685865110E+01  0.21000168377E+02 -0.38563302913E+02  0.44179616771E+02  0.00000000000E+00 0.  1.
<mgrwt>
<rscale>  0 0.90629360E+02</rscale>
<asrwt>0</asrwt>
<pdfrwt beam="1">  1        1 0.71762610E-02 0.90629360E+02</pdfrwt>
<pdfrwt beam="2">  1       -1 0.67725606E-02 0.90629360E+02</pdfrwt>
<totfact> 0.94370218E+04</totfact>
</mgrwt>
</event>
<event>
 4    1  0.1270834E+001  0.4452537E+02  0.7546771E-02  0.1477327E+00
          1   -1    0    0  501    0  0.00000000000E+00  0.00000000000E+00  0.35344600454E+02  0.35344600454E+02  0.00000000000E+00 0.  1.
         -1   -1    0    0    0  501 -0.00000000000E+00 -0.00000000000E+00 -0.14022713668E+02  0.14022713668E+02  0.00000000000E+00 0. -1.
        -13    1    1    2    0    0  0.72328906688E+01 -0.13913292932E+02 -0.68604932307E+01  0.17116097540E+02  0.00000000000E+00 0. -1.
         13    1    1    2    0    0 -0.72328906688E+01  0.13913292932E+02  0.28182380016E+02  0.32251216582E+02  0.00000000000E+00 0.  1.
<mgrwt>
<rscale>  0 0.44525373E+02</rscale>
<asrwt>0</asrwt>
<pdfrwt beam="1">  1        1 0.54376308E-02 0.44525373E+02</pdfrwt>
<pdfrwt beam="2">  1       -1 0.21573406E-02 0.44525373E+02</pdfrwt>
<totfact> 0.60665294E+05</totfact>
</mgrwt>
</event>
<event>
 5    1  0.1270834E+001  0.9111949E+02  0.7546771E-02  0.1300163E+00
          1   -1    0    0  501    0  0.00000000000E+00  0.00000000000E+00  0.26334847067E+03  0.26334847067E+03  0.00000000000E+00 0. -1.
         -1   -1    0    0    0  501 -0.00000000000E+00 -0.00000000000E+00 -0.78819154009E+01  0.78819154009E+01  0.00000000000E+00 0.  1.
         23    2    1    2    0    0  0.00000000000E+00  0.00000000000E+00  0.25546655526E+03  0.27123038607E+03  0.91119490050E+02 0.  0.
        -13    1    3    3    0    0 -0.37693146947E+02  0.16116108307E+01  0.51708120650E+02  0.64008595965E+02  0.00000000000E+00 0.  1.
         13    1    3    3    0    0  0.37693146947E+02 -0.16116108307E+01  0.20375843461E+03  0.20722179010E+03  0.00000000000E+00 0. -1.
<mgrwt>
<rscale>  0 0.91119490E+02</rscale>
<asrwt>0</asrwt>
<pdfrwt beam="1">  1        1 0.40515143E-01 0.91119490E+02</pdfrwt>
<pdfrwt beam="2">  1       -1 0.12126026E-02 0.91119490E+02</pdfrwt>
<totfact> 0.12514239E+05</totfact>
</mgrwt>
</event>
<event>
 5    1  0.1270834E+001  0.9026858E+02  0.7546771E-02  0.1302203E+00
          1   -1    0    0  501    0  0.00000000000E+00  0.00000000000E+00  0.11092784810E+03  0.11092784810E+03  0.00000000000E+00 0. -1.
         -1   -1    0    0    0  501 -0.00000000000E+00 -0.00000000000E+00 -0.18364225514E+02  0.18364225514E+02  0.00000000000E+00 0.  1.
         23    2    1    2    0    0  0.00000000000E+00  0.00000000000E+00  0.92563622583E+02  0.12929207361E+03  0.90268577439E+02 0.  0.
        -11    1    3    3    0    0 -0.40977627521E+02 -0.18112067453E+02  0.38451012615E+02  0.59039760465E+02  0.00000000000E+00 0.  1.
         11    1    3    3    0    0  0.40977627521E+02  0.18112067453E+02  0.54112609969E+02  0.70252313146E+02  0.00000000000E+00 0. -1.
<mgrwt>
<rscale>  0 0.90268577E+02</rscale>
<asrwt>0</asrwt>
<pdfrwt beam="1">  1        1 0.17065822E-01 0.90268577E+02</pdfrwt>
<pdfrwt beam="2">  1       -1 0.28252655E-02 0.90268577E+02</pdfrwt>
<totfact> 0.10921952E+05</totfact>
</mgrwt>
</event>
<event>
 5    1  0.1270834E+001  0.7697075E+02  0.7546771E-02  0.1337875E+00
         -4   -1    0    0    0  501 -0.00000000000E+00  0.00000000000E+00  0.26572191176E+02  0.26572191176E+02  0.00000000000E+00 0.  1.
          4   -1    0    0  501    0  0.00000000000E+00 -0.00000000000E+00 -0.55739625994E+02  0.55739625994E+02  0.00000000000E+00 0. -1.
         23    2    1    2    0    0  0.00000000000E+00  0.00000000000E+00 -0.29167434818E+02  0.82311817171E+02  0.76970747639E+02 0.  0.
        -13    1    3    3    0    0 -0.32461380939E+02 -0.81483903553E+01 -0.34901764052E+02  0.48355668249E+02  0.00000000000E+00 0. -1.
         13    1    3    3    0    0  0.32461380939E+02  0.81483903553E+01  0.57343292346E+01  0.33956148922E+02  0.00000000000E+00 0.  1.
<mgrwt>
<rscale>  0 0.76970748E+02</rscale>
<asrwt>0</asrwt>
<pdfrwt beam="2">  1        4 0.85753270E-02 0.76970748E+02</pdfrwt>
<pdfrwt beam="1">  1       -4 0.40880294E-02 0.76970748E+02</pdfrwt>
<totfact> 0.43488085E+04</totfact>
</mgrwt>
</event>
<event>
 5    1  0.1270834E+001  0.8147224E+02  0.7546771E-02  0.1324925E+00
         -1   -1    0    0    0  501 -0.00000000000E+00  0.00000000000E+00  0.11870719708E+03  0.11870719708E+03  0.00000000000E+00 0.  1.
          1   -1    0    0  501    0  0.00000000000E+00 -0.00000000000E+00 -0.13979199309E+02  0.13979199309E+02  0.00000000000E+00 0. -1.
         23    2    1    2    0    0  0.00000000000E+00  0.00000000000E+00  0.10472799777E+03  0.13268639639E+03  0.81472242326E+02 0.  0.
        -11    1    3    3    0    0 -0.26212861454E+02 -0.21337836562E+02  0.15332783805E+02  0.37114843849E+02  0.00000000000E+00 0. -1.
         11    1    3    3    0    0  0.26212861454E+02  0.21337836562E+02  0.89395213970E+02  0.95571552543E+02  0.00000000000E+00 0.  1.
<mgrwt>
<rscale>  0 0.81472242E+02</rscale>
<asrwt>0</asrwt>
<pdfrwt beam="2">  1        1 0.21506461E-02 0.81472242E+02</pdfrwt>
<pdfrwt beam="1">  1       -1 0.18262645E-01 0.81472242E+02</pdfrwt>
<totfact> 0.10518016E+05</totfact>
</mgrwt>
</event>
<event>
 5    1  0.1270834E+001  0.9137212E+02  0.7546771E-02  0.1299563E+00
         -3   -1    0    0    0  501 -0.00000000000E+00  0.00000000000E+00  0.81508311565E+02  0.81508311565E+02  0.00000000000E+00 0.  1.
          3   -1    0    0  501    0  0.00000000000E+00 -0.00000000000E+00 -0.25607401941E+02  0.25607401941E+02  0.00000000000E+00 0. -1.
         23    2    1    2    0    0  0.00000000000E+00  0.00000000000E+00  0.55900909625E+02  0.10711571351E+03  0.91372120382E+02 0.  0.
        -13    1    3    3    0    0  0.66158201617E+01 -0.32668388715E+02  0.64578529244E+02  0.72673097753E+02  0.00000000000E+00 0.  1.
         13    1    3    3    0    0 -0.66158201617E+01  0.32668388715E+02 -0.86776196196E+01  0.34442615753E+02  0.00000000000E+00 0. -1.
<mgrwt>
<rscale>  0 0.91372120E+02</rscale>
<asrwt>0</asrwt>
<pdfrwt beam="2">  1        3 0.39396003E-02 0.91372120E+02</pdfrwt>
<pdfrwt beam="1">  1       -3 0.12539740E-01 0.91372120E+02</pdfrwt>
<totfact> 0.33954480E+04</totfact>
</mgrwt>
</event>
<event>
 5    1  0.1270834E+001  0.7598228E+02  0.7546771E-02  0.1340856E+00
          2   -1    0    0  501    0  0.00000000000E+00  0.00000000000E+00  0.12879662227E+03  0.12879662227E+03  0.00000000000E+00 0. -1.
         -2   -1    0    0    0  501 -0.00000000000E+00 -0.00000000000E+00 -0.11206246542E+02  0.11206246542E+02  0.00000000000E+00 0.  1.
         23    2    1    2    0    0  0.00000000000E+00  0.00000000000E+00  0.11759037573E+03  0.14000286881E+03  0.75982279589E+02 0.  0.
        -13    1    3    3    0    0  0.27604293130E+01  0.22197832950E+02  0.11537635862E+03  0.11752475436E+03  0.00000000000E+00 0. -1.
         13    1    3    3    0    0 -0.27604293130E+01 -0.22197832950E+02  0.22140171048E+01  0.22478114454E+02  0.00000000000E+00 0.  1.
<mgrwt>
<rscale>  0 0.75982280E+02</rscale>
<asrwt>0</asrwt>
<pdfrwt beam="1">  1        2 0.19814864E-01 0.75982280E+02</pdfrwt>
<pdfrwt beam="2">  1       -2 0.17240380E-02 0.75982280E+02</pdfrwt>
<totfact> 0.21712103E+05</totfact>
</mgrwt>
</event>
<event>
 5    1  0.1270834E+001  0.1119634E+03  0.7546771E-02  0.1256977E+00
         -1   -1    0    0    0  501 -0.00000000000E+00  0.00000000000E+00  0.28558726375E+02  0.28558726375E+02  0.00000000000E+00 0.  1.
          1   -1    0    0  501    0  0.00000000000E+00 -0.00000000000E+00 -0.10973704781E+03  0.10973704781E+03  0.00000000000E+00 0. -1.
         23    2    1    2    0    0  0.00000000000E+00  0.00000000000E+00 -0.81178321431E+02  0.13829577418E+03  0.11196339262E+03 0.  0.
        -11    1    3    3    0    0 -0.52988258458E+02 -0.17537397768E+02 -0.45921175489E+02  0.72277729718E+02  0.00000000000E+00 0. -1.
         11    1    3    3    0    0  0.52988258458E+02  0.17537397768E+02 -0.35257145942E+02  0.66018044464E+02  0.00000000000E+00 0.  1.
<mgrwt>
<rscale>  0 0.11196339E+03</rscale>
<asrwt>0</asrwt>
<pdfrwt beam="2">  1        1 0.16882623E-01 0.11196339E+03</pdfrwt>
<pdfrwt beam="1">  1       -1 0.43936501E-02 0.11196339E+03</pdfrwt>
<totfact> 0.60232128E+04</totfact>
</mgrwt>
</event>
<event>
 5    1  0.1270834E+001  0.9367445E+02  0.7546771E-02  0.1294190E+00
          1   -1    0    0  501    0  0.00000000000E+00  0.00000000000E+00  0.10151334316E+03  0.10151334316E+03  0.00000000000E+00 0. -1.
         -1   -1    0    0    0  501 -0.00000000000E+00 -0.00000000000E+00 -0.21610219628E+02  0.21610219628E+02  0.00000000000E+00 0.  1.
         23    2    1    2    0    0  0.00000000000E+00  0.00000000000E+00  0.79903123537E+02  0.12312356279E+03  0.93674449898E+02 0.  0.
        -13    1    3    3    0    0 -0.10783146388E+02 -0.38988822293E+02  0.89222046598E+01  0.41424754022E+02  0.00000000000E+00 0.  1.
         13    1    3    3    0    0  0.10783146388E+02  0.38988822293E+02  0.70980918878E+02  0.81698808770E+02  0.00000000000E+00 0. -1.
<mgrwt>
<rscale>  0 0.93674450E+02</rscale>
<asrwt>0</asrwt>
<pdfrwt beam="1">  1        1 0.15617437E-01 0.93674450E+02</pdfrwt>
<pdfrwt beam="2">  1       -1 0.33246492E-02 0.93674450E+02</pdfrwt>
<totfact> 0.97260638E+04</totfact>
</mgrwt>
</event>
<event>
 5    1  0.1270834E+001  0.9126829E+02  0.7546771E-02  0.1299809E+00
          2   -1    0    0  501    0  0.00000000000E+00  0.00000000000E+00  0.47717174036E+02  0.47717174036E+02  0.00000000000E+00 0. -1.
         -2   -1    0    0    0  501 -0.00000000000E+00 -0.00000000000E+00 -0.43642045817E+02  0.43642045817E+02  0.00000000000E+00 0.  1.
         23    2    1    2    0    0  0.00000000000E+00  0.00000000000E+00  0.40751282190E+01  0.91359219853E+02  0.91268287933E+02 0.  0.
        -13    1    3    3    0    0 -0.18235721053E+02  0.19745938963E+02 -0.34877783050E+02  0.44032980575E+02  0.00000000000E+00 0.  1.
         13    1    3    3    0    0  0.18235721053E+02 -0.19745938963E+02  0.38952911269E+02  0.47326239278E+02  0.00000000000E+00 0. -1.
<mgrwt>
<rscale>  0 0.91268288E+02</rscale>
<asrwt>0</asrwt>
<pdfrwt beam="1">  1        2 0.73411037E-02 0.91268288E+02</pdfrwt>
<pdfrwt beam="2">  1       -2 0.67141609E-02 0.91268288E+02</pdfrwt>
<totfact> 0.99565924E+04</totfact>
</mgrwt>
</event>
<event>
 5    1  0.1270834E+001  0.8041818E+02  0.7546771E-02  0.1327869E+00
          2   -1    0    0  501    0  0.00000000000E+00  0.00000000000E+00  0.92929354171E+02  0.92929354171E+02  0.00000000000E+00 0.  1.
         -2   -1    0    0    0  501 -0.00000000000E+00 -0.00000000000E+00 -0.17397848571E+02  0.17397848571E+02  0.00000000000E+00 0. -1.
         23    2    1    2    0    0  0.00000000000E+00  0.00000000000E+00  0.75531505600E+02  0.11032720274E+03  0.80418177838E+02 0.  0.
        -13    1    3    3    0    0 -0.22976399315E+02 -0.16519131020E+02  0.76954970736E+02  0.81993073708E+02  0.00000000000E+00 0.  1.
         13    1    3    3    0    0  0.22976399315E+02  0.16519131020E+02 -0.14234651351E+01  0.28334129035E+02  0.00000000000E+00 0. -1.
<mgrwt>
<rscale>  0 0.80418178E+02</rscale>
<asrwt>0</asrwt>
<pdfrwt beam="1">  1        2 0.14296823E-01 0.80418178E+02</pdfrwt>
<pdfrwt beam="2">  1       -2 0.26765921E-02 0.80418178E+02</pdfrwt>
<totfact> 0.16913921E+05</totfact>
</mgrwt>
</event>
<event>
 5    1  0.1270834E+001  0.9023085E+02  0.7546771E-02  0.1302294E+00
          2   -1    0    0  501    0  0.00000000000E+00  0.00000000000E+00  0.30998487453E+02  0.30998487453E+02  0.00000000000E+00 0. -1.
         -2   -1    0    0    0  501 -0.00000000000E+00 -0.00000000000E+00 -0.65661326117E+02  0.65661326117E+02  0.00000000000E+00 0.  1.
         23    2    1    2    0    0  0.00000000000E+00  0.00000000000E+00 -0.34662838664E+02  0.96659813570E+02  0.90230854895E+02 0.  0.
        -13    1    3    3    0    0 -0.31942108654E+02  0.14097638301E+02 -0.47939194432E+02  0.59306054276E+02  0.00000000000E+00 0.  1.
         13    1    3    3    0    0  0.31942108654E+02 -0.14097638301E+02  0.13276355768E+02  0.37353759294E+02  0.00000000000E+00 0. -1.
<mgrwt>
<rscale>  0 0.90230855E+02</rscale>
<asrwt>0</asrwt>
<pdfrwt beam="1">  1        2 0.47689981E-02 0.90230855E+02</pdfrwt>
<pdfrwt beam="2">  1       -2 0.10101742E-01 0.90230855E+02</pdfrwt>
<totfact> 0.92031910E+04</totfact>
</mgrwt>
</event>
<event>
 5    1  0.1270834E+001  0.9214500E+02  0.7546771E-02  0.1297739E+00
         -1   -1    0    0    0  501 -0.00000000000E+00  0.00000000000E+00  0.78996189690E+02  0.78996189690E+02  0.00000000000E+00 0.  1.
          1   -1    0    0  501    0  0.00000000000E+00 -0.00000000000E+00 -0.26870603348E+02  0.26870603348E+02  0.00000000000E+00 0. -1.
         23    2    1    2    0    0  0.00000000000E+00  0.00000000000E+00  0.52125586342E+02  0.10586679304E+03  0.92145000498E+02 0.  0.
        -11    1    3    3    0    0 -0.14298206537E+02  0.21631371869E+02 -0.17691426878E+02  0.31390150431E+02  0.00000000000E+00 0. -1.
         11    1    3    3    0    0  0.14298206537E+02 -0.21631371869E+02  0.69817013220E+02  0.74476642607E+02  0.00000000000E+00 0.  1.
<mgrwt>
<rscale>  0 0.92145000E+02</rscale>
<asrwt>0</asrwt>
<pdfrwt beam="2">  1        1 0.41339390E-02 0.92145000E+02</pdfrwt>
<pdfrwt beam="1">  1       -1 0.12153260E-01 0.92145000E+02</pdfrwt>
<totfact> 0.82566452E+04</totfact>
</mgrwt>
</event>
<event>
 5    1  0.1270834E+001  0.9132844E+02  0.7546771E-02  0.1299666E+00
         -1   -1    0    0    0  501 -0.00000000000E+00  0.00000000000E+00  0.12888529392E+02  0.12888529392E+02  0.00000000000E+00 0.  1.
          1   -1    0    0  501    0  0.00000000000E+00 -0.00000000000E+00 -0.16178891251E+03  0.16178891251E+03  0.00000000000E+00 0. -1.
         23    2    1    2    0    0  0.00000000000E+00  0.00000000000E+00 -0.14890038312E+03  0.17467744190E+03  0.91328443633E+02 0.  0.
        -11    1    3    3    0    0  0.88396016166E+01 -0.32823964255E+02 -0.16133192519E+02  0.37627530971E+02  0.00000000000E+00 0.  1.
         11    1    3    3    0    0 -0.88396016166E+01  0.32823964255E+02 -0.13276719060E+03  0.13704991093E+03  0.00000000000E+00 0. -1.
<mgrwt>
<rscale>  0 0.91328444E+02</rscale>
<asrwt>0</asrwt>
<pdfrwt beam="2">  1        1 0.24890605E-01 0.91328444E+02</pdfrwt>
<pdfrwt beam="1">  1       -1 0.19828504E-02 0.91328444E+02</pdfrwt>
<totfact> 0.11320736E+05</totfact>
</mgrwt>
</event>
<event>
 5    1  0.1270834E+001  0.9243951E+02  0.7546771E-02  0.1297049E+00
         -2   -1    0    0    0  501 -0.00000000000E+00  0.00000000000E+00  0.11009361819E+02  0.11009361819E+02  0.00000000000E+00 0.  1.
          2   -1    0    0  501    0  0.00000000000E+00 -0.00000000000E+00 -0.19404083319E+03  0.19404083319E+03  0.00000000000E+00 0. -1.
         23    2    1    2    0    0  0.00000000000E+00  0.00000000000E+00 -0.18303147137E+03  0.20505019501E+03  0.92439509741E+02 0.  0.
        -11    1    3    3    0    0 -0.26312642785E+00 -0.46218881033E+02 -0.91754033886E+02  0.10273780674E+03  0.00000000000E+00 0.  1.
         11    1    3    3    0    0  0.26312642785E+00  0.46218881033E+02 -0.91277437481E+02  0.10231238827E+03  0.00000000000E+00 0. -1.
<mgrwt>
<rscale>  0 0.92439510E+02</rscale>
<asrwt>0</asrwt>
<pdfrwt beam="2">  1        2 0.29852433E-01 0.92439510E+02</pdfrwt>
<pdfrwt beam="1">  1       -2 0.16937481E-02 0.92439510E+02</pdfrwt>
<totfact> 0.14742595E+05</totfact>
</mgrwt>
</event>
<event>
 5    1  0.1270834E+001  0.9054347E+02  0.7546771E-02  0.1301541E+00
          1   -1    0    0  501    0  0.00000000000E+00  0.00000000000E+00  0.38104837142E+02  0.38104837142E+02  0.00000000000E+00 0. -1.
         -1   -1    0    0    0  501 -0.00000000000E+00 -0.00000000000E+00 -0.53786609914E+02  0.53786609914E+02  0.00000000000E+00 0.  1.
         23    2    1    2    0    0  0.00000000000E+00  0.00000000000E+00 -0.15681772772E+02  0.91891447056E+02  0.90543470470E+02 0.  0.
        -11    1    3    3    0    0  0.12538535014E+02 -0.43469497524E+02 -0.95140467081E+01  0.46231257392E+02  0.00000000000E+00 0. -1.
         11    1    3    3    0    0 -0.12538535014E+02  0.43469497524E+02 -0.61677260641E+01  0.45660189663E+02  0.00000000000E+00 0.  1.
<mgrwt>
<rscale>  0 0.90543470E+02</rscale>
<asrwt>0</asrwt>
<pdfrwt beam="1">  1        1 0.58622826E-02 0.90543470E+02</pdfrwt>
<pdfrwt beam="2">  1       -1 0.82748631E-02 0.90543470E+02</pdfrwt>
<totfact> 0.91787210E+04</totfact>
</mgrwt>
</event>
<event>
 5    1  0.1270834E+001  0.9182752E+02  0.7546771E-02  0.1298485E+00
          3   -1    0    0  501    0  0.00000000000E+00  0.00000000000E+00  0.26065013759E+03  0.26065013759E+03  0.00000000000E+00 0. -1.
         -3   -1    0    0    0  501 -0.00000000000E+00 -0.00000000000E+00 -0.80877499627E+01  0.80877499627E+01  0.00000000000E+00 0.  1.
         23    2    1    2    0    0  0.00000000000E+00  0.00000000000E+00  0.25256238762E+03  0.26873788755E+03  0.91827515278E+02 0.  0.
        -11    1    3    3    0    0 -0.63133003718E+01 -0.44702851069E+02  0.10181857513E+03  0.11137874526E+03  0.00000000000E+00 0.  1.
         11    1    3    3    0    0  0.63133003718E+01  0.44702851069E+02  0.15074381249E+03  0.15735914228E+03  0.00000000000E+00 0. -1.
<mgrwt>
<rscale>  0 0.91827515E+02</rscale>
<asrwt>0</asrwt>
<pdfrwt beam="1">  1        3 0.40100015E-01 0.91827515E+02</pdfrwt>
<pdfrwt beam="2">  1       -3 0.12442694E-02 0.91827515E+02</pdfrwt>
<totfact> 0.24813741E+04</totfact>
</mgrwt>
</event>
<event>
 5    1  0.1270834E+001  0.9038118E+02  0.7546771E-02  0.1301931E+00
         -1   -1    0    0    0  501 -0.00000000000E+00  0.00000000000E+00  0.38680525061E+02  0.38680525061E+02  0.00000000000E+00 0.  1.
          1   -1    0    0  501    0  0.00000000000E+00 -0.00000000000E+00 -0.52796321482E+02  0.52796321482E+02  0.00000000000E+00 0. -1.
         23    2    1    2    0    0  0.00000000000E+00  0.00000000000E+00 -0.14115796421E+02  0.91476846542E+02  0.90381180258E+02 0.  0.
        -11    1    3    3    0    0 -0.80068292118E+01  0.24199470573E+02 -0.44826024256E+02  0.51566424548E+02  0.00000000000E+00 0. -1.
         11    1    3    3    0    0  0.80068292118E+01 -0.24199470573E+02  0.30710227835E+02  0.39910421994E+02  0.00000000000E+00 0.  1.
<mgrwt>
<rscale>  0 0.90381180E+02</rscale>
<asrwt>0</asrwt>
<pdfrwt beam="2">  1        1 0.81225110E-02 0.90381180E+02</pdfrwt>
<pdfrwt beam="1">  1       -1 0.59508500E-02 0.90381180E+02</pdfrwt>
<totfact> 0.96868458E+04</totfact>
</mgrwt>
</event>
<event>
 5    1  0.1270834E+001  0.1023542E+03  0.7546771E-02  0.1275422E+00
          1   -1    0    0  501    0  0.00000000000E+00  0.00000000000E+00  0.53638245839E+02  0.53638245839E+02  0.00000000000E+00 0. -1.
         -1   -1    0    0    0  501 -0.00000000000E+00 -0.00000000000E+00 -0.48828861558E+02  0.48828861558E+02  0.00000000000E+00 0.  1.
         23    2    1    2    0    0  0.00000000000E+00  0.00000000000E+00  0.48093842810E+01  0.10246710740E+03  0.10235417882E+03 0.  0.
        -11    1    3    3    0    0 -0.33194084036E+02 -0.13615439581E+02  0.38939711246E+02  0.52948357122E+02  0.00000000000E+00 0. -1.
         11    1    3    3    0    0  0.33194084036E+02  0.13615439581E+02 -0.34130326965E+02  0.49518750274E+02  0.00000000000E+00 0.  1.
<mgrwt>
<rscale>  0 0.10235418E+03</rscale>
<asrwt>0</asrwt>
<pdfrwt beam="1">  1        1 0.82520378E-02 0.10235418E+03</pdfrwt>
<pdfrwt beam="2">  1       -1 0.75121326E-02 0.10235418E+03</pdfrwt>
<totfact> 0.68435999E+04</totfact>
</mgrwt>
</event>
<event>
 5    1  0.1270834E+001  0.9143381E+02  0.7546771E-02  0.1299416E+00
          1   -1    0    0  501    0  0.00000000000E+00  0.00000000000E+00  0.55077813836E+02  0.55077813836E+02  0.00000000000E+00 0.  1.
         -1   -1    0    0    0  501 -0.00000000000E+00 -0.00000000000E+00 -0.37946956133E+02  0.37946956133E+02  0.00000000000E+00 0. -1.
         23    2    1    2    0    0  0.00000000000E+00  0.00000000000E+00  0.17130857703E+02  0.93024769970E+02  0.91433809623E+02 0.  0.
        -11    1    3    3    0    0 -0.17278442118E+02  0.31277750619E+02 -0.20447304244E+02  0.41169582177E+02  0.00000000000E+00 0. -1.
         11    1    3    3    0    0  0.17278442118E+02 -0.31277750619E+02  0.37578161946E+02  0.51855187793E+02  0.00000000000E+00 0.  1.
<mgrwt>
<rscale>  0 0.91433810E+02</rscale>
<asrwt>0</asrwt>
<pdfrwt beam="1">  1        1 0.84735099E-02 0.91433810E+02</pdfrwt>
<pdfrwt beam="2">  1       -1 0.58379932E-02 0.91433810E+02</pdfrwt>
<totfact> 0.94392155E+04</totfact>
</mgrwt>
</event>
<event>
 5    1  0.1270834E+001  0.9107405E+02  0.7546771E-02  0.1300271E+00
         -2   -1    0    0    0  501 -0.00000000000E+00  0.00000000000E+00  0.36948317005E+03  0.36948317005E+03  0.00000000000E+00 0.  1.
          2   -1    0    0  501    0  0.00000000000E+00 -0.00000000000E+00 -0.56122193501E+01  0.56122193501E+01  0.00000000000E+00 0. -1.
         23    2    1    2    0    0  0.00000000000E+00  0.00000000000E+00  0.36387095070E+03  0.37509538940E+03  0.91074048917E+02 0.  0.
        -13    1    3    3    0    0 -0.45487909286E+02 -0.20892467459E+01  0.18327482576E+03  0.18884696608E+03  0.00000000000E+00 0.  1.
         13    1    3    3    0    0  0.45487909286E+02  0.20892467459E+01  0.18059612495E+03  0.18624842332E+03  0.00000000000E+00 0. -1.
<mgrwt>
<rscale>  0 0.91074049E+02</rscale>
<asrwt>0</asrwt>
<pdfrwt beam="2">  1        2 0.86341865E-03 0.91074049E+02</pdfrwt>
<pdfrwt beam="1">  1       -2 0.56843546E-01 0.91074049E+02</pdfrwt>
<totfact> 0.45118266E+04</totfact>
</mgrwt>
</event>
<event>
 5    1  0.1270834E+001  0.8937423E+02  0.7546771E-02  0.1304374E+00
         -3   -1    0    0    0  501 -0.00000000000E+00  0.00000000000E+00  0.50476209625E+01  0.50476209625E+01  0.00000000000E+00 0.  1.
          3   -1    0    0  501    0  0.00000000000E+00 -0.00000000000E+00 -0.39561967236E+03  0.39561967236E+03  0.00000000000E+00 0. -1.
         23    2    1    2    0    0  0.00000000000E+00  0.00000000000E+00 -0.39057205140E+03  0.40066729332E+03  0.89374227859E+02 0.  0.
        -13    1    3    3    0    0  0.31592247896E+02 -0.30911664665E+02 -0.16577386067E+03  0.17156507226E+03  0.00000000000E+00 0.  1.
         13    1    3    3    0    0 -0.31592247896E+02  0.30911664665E+02 -0.22479819073E+03  0.22910222106E+03  0.00000000000E+00 0. -1.
<mgrwt>
<rscale>  0 0.89374228E+02</rscale>
<asrwt>0</asrwt>
<pdfrwt beam="2">  1        3 0.60864550E-01 0.89374228E+02</pdfrwt>
<pdfrwt beam="1">  1       -3 0.77655726E-03 0.89374228E+02</pdfrwt>
<totfact> 0.21721825E+04</totfact>
</mgrwt>
</event>
<event>
 5    1  0.1270834E+001  0.9182609E+02  0.7546771E-02  0.1298489E+00
          2   -1    0    0  501    0  0.00000000000E+00  0.00000000000E+00  0.83104041163E+02  0.83104041163E+02  0.00000000000E+00 0. -1.
         -2   -1    0    0    0  501 -0.00000000000E+00 -0.00000000000E+00 -0.25365887420E+02  0.25365887420E+02  0.00000000000E+00 0.  1.
         23    2    1    2    0    0  0.00000000000E+00  0.00000000000E+00  0.57738153743E+02  0.10846992858E+03  0.91826091114E+02 0.  0.
        -13    1    3    3    0    0  0.33460828857E+01  0.26110930478E+02 -0.15566027218E+02  0.30582317840E+02  0.00000000000E+00 0.  1.
         13    1    3    3    0    0 -0.33460828857E+01 -0.26110930478E+02  0.73304180961E+02  0.77887610744E+02  0.00000000000E+00 0. -1.
<mgrwt>
<rscale>  0 0.91826091E+02</rscale>
<asrwt>0</asrwt>
<pdfrwt beam="1">  1        2 0.12785237E-01 0.91826091E+02</pdfrwt>
<pdfrwt beam="2">  1       -2 0.39024443E-02 0.91826091E+02</pdfrwt>
<totfact> 0.11385252E+05</totfact>
</mgrwt>
</event>
<event>
 5    1  0.1270834E+001  0.9581909E+02  0.7546771E-02  0.1289342E+00
         -2   -1    0    0    0  501 -0.00000000000E+00  0.00000000000E+00  0.35768355340E+02  0.35768355340E+02  0.00000000000E+00 0.  1.
          2   -1    0    0  501    0  0.00000000000E+00 -0.00000000000E+00 -0.64171931601E+02  0.64171931601E+02  0.00000000000E+00 0. -1.
         23    2    1    2    0    0  0.00000000000E+00  0.00000000000E+00 -0.28403576261E+02  0.99940286941E+02  0.95819088962E+02 0.  0.
        -11    1    3    3    0    0 -0.13974718199E+02  0.87676827723E+00  0.33586555554E+02  0.36388434774E+02  0.00000000000E+00 0.  1.
         11    1    3    3    0    0  0.13974718199E+02 -0.87676827723E+00 -0.61990131815E+02  0.63551852167E+02  0.00000000000E+00 0. -1.
<mgrwt>
<rscale>  0 0.95819089E+02</rscale>
<asrwt>0</asrwt>
<pdfrwt beam="2">  1        2 0.98726047E-02 0.95819089E+02</pdfrwt>
<pdfrwt beam="1">  1       -2 0.55028240E-02 0.95819089E+02</pdfrwt>
<totfact> 0.93873856E+04</totfact>
</mgrwt>
</event>
<event>
 5    1  0.1270834E+001  0.9394477E+02  0.7546771E-02  0.1293571E+00
          1   -1    0    0  501    0  0.00000000000E+00  0.00000000000E+00  0.15687366124E+02  0.15687366124E+02  0.00000000000E+00 0.  1.
         -1   -1    0    0    0  501 -0.00000000000E+00 -0.00000000000E+00 -0.14064853533E+03  0.14064853533E+03  0.00000000000E+00 0. -1.
         23    2    1    2    0    0  0.00000000000E+00  0.00000000000E+00 -0.12496116921E+03  0.15633590146E+03  0.93944772469E+02 0.  0.
        -13    1    3    3    0    0 -0.45968638670E+02  0.93328126780E+01 -0.66620190247E+02  0.81476787383E+02  0.00000000000E+00 0.  1.
         13    1    3    3    0    0  0.45968638670E+02 -0.93328126780E+01 -0.58340978963E+02  0.74859114074E+02  0.00000000000E+00 0. -1.
<mgrwt>
<rscale>  0 0.93944772E+02</rscale>
<asrwt>0</asrwt>
<pdfrwt beam="1">  1        1 0.24134409E-02 0.93944772E+02</pdfrwt>
<pdfrwt beam="2">  1       -1 0.21638237E-01 0.93944772E+02</pdfrwt>
<totfact> 0.70229828E+04</totfact>
</mgrwt>
</event>
<event>
 5    1  0.1270834E+001  0.9048851E+02  0.7546771E-02  0.1301673E+00
         -3   -1    0    0    0  501 -0.00000000000E+00  0.00000000000E+00  0.37736879280E+02  0.37736879280E+02  0.00000000000E+00 0.  1.
          3   -1    0    0  501    0  0.00000000000E+00 -0.00000000000E+00 -0.54245148299E+02  0.54245148299E+02  0.00000000000E+00 0. -1.
         23    2    1    2    0    0  0.00000000000E+00  0.00000000000E+00 -0.16508269019E+02  0.91982027578E+02  0.90488510052E+02 0.  0.
        -13    1    3    3    0    0  0.29154989807E+02  0.34219414247E+02 -0.30648915742E+01  0.45059686000E+02  0.00000000000E+00 0. -1.
         13    1    3    3    0    0 -0.29154989807E+02 -0.34219414247E+02 -0.13443377445E+02  0.46922341578E+02  0.00000000000E+00 0.  1.
<mgrwt>
<rscale>  0 0.90488510E+02</rscale>
<asrwt>0</asrwt>
<pdfrwt beam="2">  1        3 0.83454074E-02 0.90488510E+02</pdfrwt>
<pdfrwt beam="1">  1       -3 0.58056738E-02 0.90488510E+02</pdfrwt>
<totfact> 0.36011655E+04</totfact>
</mgrwt>
</event>
<event>
 5    1  0.1270834E+001  0.9092071E+02  0.7546771E-02  0.1300637E+00
         -1   -1    0    0    0  501 -0.00000000000E+00  0.00000000000E+00  0.16734675018E+03  0.16734675018E+03  0.00000000000E+00 0.  1.
          1   -1    0    0  501    0  0.00000000000E+00 -0.00000000000E+00 -0.12349471762E+02  0.12349471762E+02  0.00000000000E+00 0. -1.
         23    2    1    2    0    0  0.00000000000E+00  0.00000000000E+00  0.15499727842E+03  0.17969622194E+03  0.90920711960E+02 0.  0.
        -11    1    3    3    0    0 -0.24952177074E+01  0.33504415990E+02  0.13802546449E+03  0.14205562590E+03  0.00000000000E+00 0.  1.
         11    1    3    3    0    0  0.24952177074E+01 -0.33504415990E+02  0.16971813926E+02  0.37640596039E+02  0.00000000000E+00 0. -1.
<mgrwt>
<rscale>  0 0.90920712E+02</rscale>
<asrwt>0</asrwt>
<pdfrwt beam="2">  1        1 0.18999189E-02 0.90920712E+02</pdfrwt>
<pdfrwt beam="1">  1       -1 0.25745652E-01 0.90920712E+02</pdfrwt>
<totfact> 0.73362303E+04</totfact>
</mgrwt>
</event>
<event>
 5    1  0.1270834E+001  0.9167643E+02  0.7546771E-02  0.1298842E+00
         -2   -1    0    0    0  501 -0.00000000000E+00  0.00000000000E+00  0.11798874690E+02  0.11798874690E+02  0.00000000000E+00 0. -1.
          2   -1    0    0  501    0  0.00000000000E+00 -0.00000000000E+00 -0.17807985902E+03  0.17807985902E+03  0.00000000000E+00 0.  1.
         23    2    1    2    0    0  0.00000000000E+00  0.00000000000E+00 -0.16628098433E+03  0.18987873371E+03  0.91676429714E+02 0.  0.
        -11    1    3    3    0    0  0.78434770347E+01  0.40526524529E+02 -0.12442010548E+03  0.13108883236E+03  0.00000000000E+00 0.  1.
         11    1    3    3    0    0 -0.78434770347E+01 -0.40526524529E+02 -0.41860878853E+02  0.58789901350E+02  0.00000000000E+00 0. -1.
<mgrwt>
<rscale>  0 0.91676430E+02</rscale>
<asrwt>0</asrwt>
<pdfrwt beam="2">  1        2 0.27396900E-01 0.91676430E+02</pdfrwt>
<pdfrwt beam="1">  1       -2 0.18152116E-02 0.91676430E+02</pdfrwt>
<totfact> 0.14620496E+05</totfact>
</mgrwt>
</event>
<event>
 5    1  0.1270834E+001  0.8995632E+02  0.7546771E-02  0.1302958E+00
         -1   -1    0    0    0  501 -0.00000000000E+00  0.00000000000E+00  0.10673916627E+02  0.10673916627E+02  0.00000000000E+00 0.  1.
          1   -1    0    0  501    0  0.00000000000E+00 -0.00000000000E+00 -0.18953067953E+03  0.18953067953E+03  0.00000000000E+00 0. -1.
         23    2    1    2    0    0  0.00000000000E+00  0.00000000000E+00 -0.17885676290E+03  0.20020459615E+03  0.89956315434E+02 0.  0.
        -13    1    3    3    0    0 -0.11902688136E+02  0.26681500585E+02 -0.13319605197E+02  0.32109007162E+02  0.00000000000E+00 0.  1.
         13    1    3    3    0    0  0.11902688136E+02 -0.26681500585E+02 -0.16553715770E+03  0.16809558899E+03  0.00000000000E+00 0. -1.
<mgrwt>
<rscale>  0 0.89956315E+02</rscale>
<asrwt>0</asrwt>
<pdfrwt beam="2">  1        1 0.29158565E-01 0.89956315E+02</pdfrwt>
<pdfrwt beam="1">  1       -1 0.16421411E-02 0.89956315E+02</pdfrwt>
<totfact> 0.12149249E+05</totfact>
</mgrwt>
</event>
<event>
 5    1  0.1270834E+001  0.8935122E+02  0.7546771E-02  0.1304430E+00
         -1   -1    0    0    0  501 -0.00000000000E+00  0.00000000000E+00  0.38540892068E+03  0.38540892068E+03  0.00000000000E+00 0. -1.
          1   -1    0    0  501    0  0.00000000000E+00 -0.00000000000E+00 -0.51786816401E+01  0.51786816401E+01  0.00000000000E+00 0.  1.
         23    2    1    2    0    0  0.00000000000E+00  0.00000000000E+00  0.38023023904E+03  0.39058760232E+03  0.89351219386E+02 0.  0.
        -11    1    3    3    0    0  0.40913878997E+02  0.10732060135E+02  0.12725429060E+03  0.13409987728E+03  0.00000000000E+00 0.  1.
         11    1    3    3    0    0 -0.40913878997E+02 -0.10732060135E+02  0.25297594843E+03  0.25648772504E+03  0.00000000000E+00 0. -1.
<mgrwt>
<rscale>  0 0.89351219E+02</rscale>
<asrwt>0</asrwt>
<pdfrwt beam="2">  1        1 0.79672055E-03 0.89351219E+02</pdfrwt>
<pdfrwt beam="1">  1       -1 0.59293658E-01 0.89351219E+02</pdfrwt>
<totfact> 0.57233041E+04</totfact>
</mgrwt>
</event>
<event>
 5    1  0.1270834E+001  0.8976191E+02  0.7546771E-02  0.1303429E+00
         -1   -1    0    0    0  501 -0.00000000000E+00  0.00000000000E+00  0.54346695007E+01  0.54346695007E+01  0.00000000000E+00 0.  1.
          1   -1    0    0  501    0  0.00000000000E+00 -0.00000000000E+00 -0.37063891661E+03  0.37063891661E+03  0.00000000000E+00 0. -1.
         23    2    1    2    0    0  0.00000000000E+00  0.00000000000E+00 -0.36520424711E+03  0.37607358612E+03  0.89761907642E+02 0.  0.
        -13    1    3    3    0    0  0.42529276789E+02  0.97490060410E+01 -0.13855715450E+03  0.14526481875E+03  0.00000000000E+00 0.  1.
         13    1    3    3    0    0 -0.42529276789E+02 -0.97490060410E+01 -0.22664709261E+03  0.23080876736E+03  0.00000000000E+00 0. -1.
<mgrwt>
<rscale>  0 0.89761908E+02</rscale>
<asrwt>0</asrwt>
<pdfrwt beam="2">  1        1 0.57021364E-01 0.89761908E+02</pdfrwt>
<pdfrwt beam="1">  1       -1 0.83610312E-03 0.89761908E+02</pdfrwt>
<totfact> 0.13880915E+05</totfact>
</mgrwt>
</event>
<event>
 5    1  0.1270834E+001  0.8889068E+02  0.7546771E-02  0.1305561E+00
          2   -1    0    0  501    0  0.00000000000E+00  0.00000000000E+00  0.48806683029E+02  0.48806683029E+02  0.00000000000E+00 0. -1.
         -2   -1    0    0    0  501 -0.00000000000E+00 -0.00000000000E+00 -0.40473721549E+02  0.40473721549E+02  0.00000000000E+00 0.  1.
         23    2    1    2    0    0  0.00000000000E+00  0.00000000000E+00  0.83329614797E+01  0.89280404578E+02  0.88890676646E+02 0.  0.
        -13    1    3    3    0    0  0.58466082397E+01  0.43523572660E+02  0.11045149330E+02  0.45282220889E+02  0.00000000000E+00 0. -1.
         13    1    3    3    0    0 -0.58466082397E+01 -0.43523572660E+02 -0.27121878499E+01  0.43998183689E+02  0.00000000000E+00 0.  1.
<mgrwt>
<rscale>  0 0.88890677E+02</rscale>
<asrwt>0</asrwt>
<pdfrwt beam="1">  1        2 0.75087205E-02 0.88890677E+02</pdfrwt>
<pdfrwt beam="2">  1       -2 0.62267264E-02 0.88890677E+02</pdfrwt>
<totfact> 0.10797256E+05</totfact>
</mgrwt>
</event>
<event>
 5    1  0.1270834E+001  0.9230827E+02  0.7546771E-02  0.1297356E+00
         -1   -1    0    0    0  501 -0.00000000000E+00  0.00000000000E+00  0.88233345472E+01  0.88233345472E+01  0.00000000000E+00 0.  1.
          1   -1    0    0  501    0  0.00000000000E+00 -0.00000000000E+00 -0.24142848139E+03  0.24142848139E+03  0.00000000000E+00 0. -1.
         23    2    1    2    0    0  0.00000000000E+00  0.00000000000E+00 -0.23260514684E+03  0.25025181593E+03  0.92308271796E+02 0.  0.
        -11    1    3    3    0    0  0.37962708063E+02 -0.17256449125E+02 -0.16992727819E+03  0.17496923190E+03  0.00000000000E+00 0.  1.
         11    1    3    3    0    0 -0.37962708063E+02  0.17256449125E+02 -0.62677868654E+02  0.75282584034E+02  0.00000000000E+00 0. -1.
<mgrwt>
<rscale>  0 0.92308272E+02</rscale>
<asrwt>0</asrwt>
<pdfrwt beam="2">  1        1 0.37142850E-01 0.92308272E+02</pdfrwt>
<pdfrwt beam="1">  1       -1 0.13574358E-02 0.92308272E+02</pdfrwt>
<totfact> 0.11884345E+05</totfact>
</mgrwt>
</event>
<event>
 5    1  0.1270834E+001  0.8899781E+02  0.7546771E-02  0.1305297E+00
         -2   -1    0    0    0  501 -0.00000000000E+00  0.00000000000E+00  0.24734394114E+03  0.24734394114E+03  0.00000000000E+00 0.  1.
          2   -1    0    0  501    0  0.00000000000E+00 -0.00000000000E+00 -0.80056641318E+01  0.80056641318E+01  0.00000000000E+00 0. -1.
         23    2    1    2    0    0  0.00000000000E+00  0.00000000000E+00  0.23933827701E+03  0.25534960527E+03  0.88997809362E+02 0.  0.
        -11    1    3    3    0    0 -0.40454219915E+02  0.39158583507E+01  0.17165372043E+03  0.17639976642E+03  0.00000000000E+00 0.  1.
         11    1    3    3    0    0  0.40454219915E+02 -0.39158583507E+01  0.67684556580E+02  0.78949838853E+02  0.00000000000E+00 0. -1.
<mgrwt>
<rscale>  0 0.88997809E+02</rscale>
<asrwt>0</asrwt>
<pdfrwt beam="2">  1        2 0.12316408E-02 0.88997809E+02</pdfrwt>
<pdfrwt beam="1">  1       -2 0.38052908E-01 0.88997809E+02</pdfrwt>
<totfact> 0.60088361E+04</totfact>
</mgrwt>
</event>
<event>
 5    1  0.1270834E+001  0.9128502E+02  0.7546771E-02  0.1299769E+00
         -1   -1    0    0    0  501 -0.00000000000E+00  0.00000000000E+00  0.10186338475E+03  0.10186338475E+03  0.00000000000E+00 0.  1.
          1   -1    0    0  501    0  0.00000000000E+00 -0.00000000000E+00 -0.20451300050E+02  0.20451300050E+02  0.00000000000E+00 0. -1.
         23    2    1    2    0    0  0.00000000000E+00  0.00000000000E+00  0.81412084702E+02  0.12231468480E+03  0.91285018392E+02 0.  0.
        -13    1    3    3    0    0  0.31287516944E+02 -0.27118076100E+02  0.14969103369E+02  0.44026955647E+02  0.00000000000E+00 0. -1.
         13    1    3    3    0    0 -0.31287516944E+02  0.27118076100E+02  0.66442981333E+02  0.78287729155E+02  0.00000000000E+00 0.  1.
<mgrwt>
<rscale>  0 0.91285018E+02</rscale>
<asrwt>0</asrwt>
<pdfrwt beam="2">  1        1 0.31463539E-02 0.91285018E+02</pdfrwt>
<pdfrwt beam="1">  1       -1 0.15671290E-01 0.91285018E+02</pdfrwt>
<totfact> 0.80842843E+04</totfact>
</mgrwt>
</event>
<event>
 5    1  0.1270834E+001  0.9169234E+02  0.7546771E-02  0.1298804E+00
          1   -1    0    0  501    0  0.00000000000E+00  0.00000000000E+00  0.16967955066E+02  0.16967955066E+02  0.00000000000E+00 0. -1.
         -1   -1    0    0    0  501 -0.00000000000E+00 -0.00000000000E+00 -0.12387298703E+03  0.12387298703E+03  0.00000000000E+00 0.  1.
         23    2    1    2    0    0  0.00000000000E+00  0.00000000000E+00 -0.10690503196E+03  0.14084094210E+03  0.91692339436E+02 0.  0.
        -13    1    3    3    0    0  0.42862260674E+02 -0.14570473704E+02 -0.42333710592E+02  0.61980764327E+02  0.00000000000E+00 0.  1.
         13    1    3    3    0    0 -0.42862260674E+02  0.14570473704E+02 -0.64571321372E+02  0.78860177769E+02  0.00000000000E+00 0. -1.
<mgrwt>
<rscale>  0 0.91692339E+02</rscale>
<asrwt>0</asrwt>
<pdfrwt beam="1">  1        1 0.26104547E-02 0.91692339E+02</pdfrwt>
<pdfrwt beam="2">  1       -1 0.19057382E-01 0.91692339E+02</pdfrwt>
<totfact> 0.76886439E+04</totfact>
</mgrwt>
</event>
<event>
 5    1  0.1270834E+001  0.1008844E+03  0.7546771E-02  0.1278447E+00
          3   -1    0    0  501    0  0.00000000000E+00  0.00000000000E+00  0.23976449015E+03  0.23976449015E+03  0.00000000000E+00 0. -1.
         -3   -1    0    0    0  501 -0.00000000000E+00 -0.00000000000E+00 -0.10612135520E+02  0.10612135520E+02  0.00000000000E+00 0.  1.
         23    2    1    2    0    0  0.00000000000E+00  0.00000000000E+00  0.22915235463E+03  0.25037662567E+03  0.10088435483E+03 0.  0.
        -11    1    3    3    0    0 -0.77360319738E+01 -0.46138927276E+02  0.16138766714E+03  0.16803162175E+03  0.00000000000E+00 0.  1.
         11    1    3    3    0    0  0.77360319738E+01  0.46138927276E+02  0.67764687485E+02  0.82345003921E+02  0.00000000000E+00 0. -1.
<mgrwt>
<rscale>  0 0.10088435E+03</rscale>
<asrwt>0</asrwt>
<pdfrwt beam="1">  1        3 0.36886841E-01 0.10088435E+03</pdfrwt>
<pdfrwt beam="2">  1       -3 0.16326364E-02 0.10088435E+03</pdfrwt>
<totfact> 0.19834007E+04</totfact>
</mgrwt>
</event>
<event>
 5    1  0.1270834E+001  0.9089063E+02  0.7546771E-02  0.1300709E+00
         -3   -1    0    0    0  501 -0.00000000000E+00  0.00000000000E+00  0.28417301413E+02  0.28417301413E+02  0.00000000000E+00 0.  1.
          3   -1    0    0  501    0  0.00000000000E+00 -0.00000000000E+00 -0.72676729591E+02  0.72676729591E+02  0.00000000000E+00 0. -1.
         23    2    1    2    0    0  0.00000000000E+00  0.00000000000E+00 -0.44259428179E+02  0.10109403100E+03  0.90890627250E+02 0.  0.
        -13    1    3    3    0    0  0.23439958341E+02  0.38861628568E+02 -0.19493232974E+02  0.49392752036E+02  0.00000000000E+00 0.  1.
         13    1    3    3    0    0 -0.23439958341E+02 -0.38861628568E+02 -0.24766195205E+02  0.51701278968E+02  0.00000000000E+00 0. -1.
<mgrwt>
<rscale>  0 0.90890627E+02</rscale>
<asrwt>0</asrwt>
<pdfrwt beam="2">  1        3 0.11181035E-01 0.90890627E+02</pdfrwt>
<pdfrwt beam="1">  1       -3 0.43718926E-02 0.90890627E+02</pdfrwt>
<totfact> 0.34887365E+04</totfact>
</mgrwt>
</event>
<event>
 5    1  0.1270834E+001  0.9248317E+02  0.7546771E-02  0.1296947E+00
          1   -1    0    0  501    0  0.00000000000E+00  0.00000000000E+00  0.22870909197E+02  0.22870909197E+02  0.00000000000E+00 0. -1.
         -1   -1    0    0    0  501 -0.00000000000E+00 -0.00000000000E+00 -0.93493628095E+02  0.93493628095E+02  0.00000000000E+00 0.  1.
         23    2    1    2    0    0  0.00000000000E+00  0.00000000000E+00 -0.70622718898E+02  0.11636453729E+03  0.92483172061E+02 0.  0.
        -11    1    3    3    0    0 -0.28565769705E+02  0.23195855387E+02 -0.75847198931E-01  0.36797508866E+02  0.00000000000E+00 0. -1.
         11    1    3    3    0    0  0.28565769705E+02 -0.23195855387E+02 -0.70546871699E+02  0.79567028426E+02  0.00000000000E+00 0.  1.
<mgrwt>
<rscale>  0 0.92483172E+02</rscale>
<asrwt>0</asrwt>
<pdfrwt beam="1">  1        1 0.35186014E-02 0.92483172E+02</pdfrwt>
<pdfrwt beam="2">  1       -1 0.14383635E-01 0.92483172E+02</pdfrwt>
<totfact> 0.79417215E+04</totfact>
</mgrwt>
</event>
<event>
 5    1  0.1270834E+001  0.9557954E+02  0.7546771E-02  0.1289876E+00
          3   -1    0    0  501    0  0.00000000000E+00  0.00000000000E+00  0.66931651744E+01  0.66931651744E+01  0.00000000000E+00 0. -1.
         -3   -1    0    0    0  501 -0.00000000000E+00 -0.00000000000E+00 -0.34122303125E+03  0.34122303125E+03  0.00000000000E+00 0.  1.
         23    2    1    2    0    0  0.00000000000E+00  0.00000000000E+00 -0.33452986608E+03  0.34791619642E+03  0.95579539850E+02 0.  0.
        -13    1    3    3    0    0  0.38608187966E+02 -0.16046147004E+02 -0.83007648562E+02  0.92942674437E+02  0.00000000000E+00 0. -1.
         13    1    3    3    0    0 -0.38608187966E+02  0.16046147004E+02 -0.25152221751E+03  0.25497352199E+03  0.00000000000E+00 0.  1.
<mgrwt>
<rscale>  0 0.95579540E+02</rscale>
<asrwt>0</asrwt>
<pdfrwt beam="1">  1        3 0.10297177E-02 0.95579540E+02</pdfrwt>
<pdfrwt beam="2">  1       -3 0.52495854E-01 0.95579540E+02</pdfrwt>
<totfact> 0.19623760E+04</totfact>
</mgrwt>
</event>
<event>
 5    1  0.1270834E+001  0.8799307E+02  0.7546771E-02  0.1307786E+00
          1   -1    0    0  501    0  0.00000000000E+00  0.00000000000E+00  0.35876978369E+03  0.35876978369E+03  0.00000000000E+00 0. -1.
         -1   -1    0    0    0  501 -0.00000000000E+00 -0.00000000000E+00 -0.53953682364E+01  0.53953682364E+01  0.00000000000E+00 0.  1.
         23    2    1    2    0    0  0.00000000000E+00  0.00000000000E+00  0.35337441545E+03  0.36416515192E+03  0.87993070070E+02 0.  0.
        -11    1    3    3    0    0 -0.29419228628E+02 -0.30762672488E+02  0.13062772362E+03  0.13738790052E+03  0.00000000000E+00 0. -1.
         11    1    3    3    0    0  0.29419228628E+02  0.30762672488E+02  0.22274669183E+03  0.22677725140E+03  0.00000000000E+00 0.  1.
<mgrwt>
<rscale>  0 0.87993070E+02</rscale>
<asrwt>0</asrwt>
<pdfrwt beam="1">  1        1 0.55195332E-01 0.87993070E+02</pdfrwt>
<pdfrwt beam="2">  1       -1 0.83005694E-03 0.87993070E+02</pdfrwt>
<totfact> 0.14550258E+05</totfact>
</mgrwt>
</event>
<event>
 5    1  0.1270834E+001  0.9308656E+02  0.7546771E-02  0.1295545E+00
         -1   -1    0    0    0  501 -0.00000000000E+00  0.00000000000E+00  0.80252002020E+01  0.80252002020E+01  0.00000000000E+00 0.  1.
          1   -1    0    0  501    0  0.00000000000E+00 -0.00000000000E+00 -0.26993431784E+03  0.26993431784E+03  0.00000000000E+00 0. -1.
         23    2    1    2    0    0  0.00000000000E+00  0.00000000000E+00 -0.26190911764E+03  0.27795951804E+03  0.93086560621E+02 0.  0.
        -11    1    3    3    0    0  0.24451809207E+02 -0.29127472668E+02 -0.21107690674E+03  0.21447554918E+03  0.00000000000E+00 0. -1.
         11    1    3    3    0    0 -0.24451809207E+02  0.29127472668E+02 -0.50832210895E+02  0.63483968859E+02  0.00000000000E+00 0.  1.
<mgrwt>
<rscale>  0 0.93086561E+02</rscale>
<asrwt>0</asrwt>
<pdfrwt beam="2">  1        1 0.41528349E-01 0.93086561E+02</pdfrwt>
<pdfrwt beam="1">  1       -1 0.12346464E-02 0.93086561E+02</pdfrwt>
<totfact> 0.11876966E+05</totfact>
</mgrwt>
</event>
<event>
 5    1  0.1270834E+001  0.8787973E+02  0.7546771E-02  0.1308069E+00
          2   -1    0    0  501    0  0.00000000000E+00  0.00000000000E+00  0.12885528528E+02  0.12885528528E+02  0.00000000000E+00 0. -1.
         -2   -1    0    0    0  501 -0.00000000000E+00 -0.00000000000E+00 -0.14983566091E+03  0.14983566091E+03  0.00000000000E+00 0.  1.
         23    2    1    2    0    0  0.00000000000E+00  0.00000000000E+00 -0.13695013238E+03  0.16272118943E+03  0.87879728793E+02 0.  0.
        -13    1    3    3    0    0 -0.30157140949E+02 -0.25067358227E+02 -0.10517698124E+03  0.11224982397E+03  0.00000000000E+00 0.  1.
         13    1    3    3    0    0  0.30157140949E+02  0.25067358227E+02 -0.31773151142E+02  0.50471365468E+02  0.00000000000E+00 0. -1.
<mgrwt>
<rscale>  0 0.87879729E+02</rscale>
<asrwt>0</asrwt>
<pdfrwt beam="1">  1        2 0.19823891E-02 0.87879729E+02</pdfrwt>
<pdfrwt beam="2">  1       -2 0.23051639E-01 0.87879729E+02</pdfrwt>
<totfact> 0.76706374E+04</totfact>
</mgrwt>
</event>
<event>
 5    1  0.1270834E+001  0.9194831E+02  0.7546771E-02  0.1298201E+00
         -1   -1    0    0    0  501 -0.00000000000E+00  0.00000000000E+00  0.13887259970E+02  0.13887259970E+02  0.00000000000E+00 0.  1.
          1   -1    0    0  501    0  0.00000000000E+00 -0.00000000000E+00 -0.15219871415E+03  0.15219871415E+03  0.00000000000E+00 0. -1.
         23    2    1    2    0    0  0.00000000000E+00  0.00000000000E+00 -0.13831145418E+03  0.16608597412E+03  0.91948313970E+02 0.  0.
        -13    1    3    3    0    0  0.43406098179E+02 -0.96321296558E+01 -0.90279043874E+02  0.10063385635E+03  0.00000000000E+00 0. -1.
         13    1    3    3    0    0 -0.43406098179E+02  0.96321296558E+01 -0.48032410306E+02  0.65452117771E+02  0.00000000000E+00 0.  1.
<mgrwt>
<rscale>  0 0.91948314E+02</rscale>
<asrwt>0</asrwt>
<pdfrwt beam="2">  1        1 0.23415187E-01 0.91948314E+02</pdfrwt>
<pdfrwt beam="1">  1       -1 0.21365015E-02 0.91948314E+02</pdfrwt>
<totfact> 0.10990413E+05</totfact>
</mgrwt>
</event>
<event>
 5    1  0.1270834E+001  0.9123280E+02  0.7546771E-02  0.1299893E+00
         -2   -1    0    0    0  501 -0.00000000000E+00  0.00000000000E+00  0.16915605557E+02  0.16915605557E+02  0.00000000000E+00 0.  1.
          2   -1    0    0  501    0  0.00000000000E+00 -0.00000000000E+00 -0.12301397962E+03  0.12301397962E+03  0.00000000000E+00 0. -1.
         23    2    1    2    0    0  0.00000000000E+00  0.00000000000E+00 -0.10609837407E+03  0.13992958518E+03  0.91232800182E+02 0.  0.
        -11    1    3    3    0    0 -0.13737693301E+02  0.21472045307E+02  0.49725805212E+01  0.25971128276E+02  0.00000000000E+00 0.  1.
         11    1    3    3    0    0  0.13737693301E+02 -0.21472045307E+02 -0.11107095459E+03  0.11395845690E+03  0.00000000000E+00 0. -1.
<mgrwt>
<rscale>  0 0.91232800E+02</rscale>
<asrwt>0</asrwt>
<pdfrwt beam="2">  1        2 0.18925227E-01 0.91232800E+02</pdfrwt>
<pdfrwt beam="1">  1       -2 0.26024010E-02 0.91232800E+02</pdfrwt>
<totfact> 0.13068502E+05</totfact>
</mgrwt>
</event>
<event>
 5    1  0.1270834E+001  0.9253409E+02  0.7546771E-02  0.1296829E+00
         -1   -1    0    0    0  501 -0.00000000000E+00  0.00000000000E+00  0.34748407295E+02  0.34748407295E+02  0.00000000000E+00 0.  1.
          1   -1    0    0  501    0  0.00000000000E+00 -0.00000000000E+00 -0.61603959878E+02  0.61603959878E+02  0.00000000000E+00 0. -1.
         23    2    1    2    0    0  0.00000000000E+00  0.00000000000E+00 -0.26855552584E+02  0.96352367173E+02  0.92534090773E+02 0.  0.
        -11    1    3    3    0    0 -0.41963651039E+02  0.19435637271E+02 -0.11974669309E+02  0.47771170278E+02  0.00000000000E+00 0.  1.
         11    1    3    3    0    0  0.41963651039E+02 -0.19435637271E+02 -0.14880883275E+02  0.48581196895E+02  0.00000000000E+00 0. -1.
<mgrwt>
<rscale>  0 0.92534091E+02</rscale>
<asrwt>0</asrwt>
<pdfrwt beam="2">  1        1 0.94775322E-02 0.92534091E+02</pdfrwt>
<pdfrwt beam="1">  1       -1 0.53459089E-02 0.92534091E+02</pdfrwt>
<totfact> 0.92867815E+04</totfact>
</mgrwt>
</event>
<event>
 5    1  0.1270834E+001  0.9029983E+02  0.7546771E-02  0.1302127E+00
         -1   -1    0    0    0  501 -0.00000000000E+00  0.00000000000E+00  0.55608609919E+01  0.55608609919E+01  0.00000000000E+00 0.  1.
          1   -1    0    0  501    0  0.00000000000E+00 -0.00000000000E+00 -0.36658261174E+03  0.36658261174E+03  0.00000000000E+00 0. -1.
         23    2    1    2    0    0  0.00000000000E+00  0.00000000000E+00 -0.36102175075E+03  0.37214347273E+03  0.90299832689E+02 0.  0.
        -11    1    3    3    0    0 -0.23581794278E+02  0.38110239097E+02 -0.20309248247E+03  0.20797847913E+03  0.00000000000E+00 0.  1.
         11    1    3    3    0    0  0.23581794278E+02 -0.38110239097E+02 -0.15792926828E+03  0.16416499360E+03  0.00000000000E+00 0. -1.
<mgrwt>
<rscale>  0 0.90299833E+02</rscale>
<asrwt>0</asrwt>
<pdfrwt beam="2">  1        1 0.56397316E-01 0.90299833E+02</pdfrwt>
<pdfrwt beam="1">  1       -1 0.85551721E-03 0.90299833E+02</pdfrwt>
<totfact> 0.13636714E+05</totfact>
</mgrwt>
</event>
<event>
 5    1  0.1270834E+001  0.9072896E+02  0.7546771E-02  0.1301096E+00
         -2   -1    0    0    0  501 -0.00000000000E+00  0.00000000000E+00  0.19647870583E+03  0.19647870583E+03  0.00000000000E+00 0.  1.
          2   -1    0    0  501    0  0.00000000000E+00 -0.00000000000E+00 -0.10474091946E+02  0.10474091946E+02  0.00000000000E+00 0. -1.
         23    2    1    2    0    0  0.00000000000E+00  0.00000000000E+00  0.18600461388E+03  0.20695279777E+03  0.90728959661E+02 0.  0.
        -11    1    3    3    0    0  0.29365086228E+02  0.31671441992E+00  0.17187109076E+03  0.17436192370E+03  0.00000000000E+00 0.  1.
         11    1    3    3    0    0 -0.29365086228E+02 -0.31671441992E+00  0.14133523124E+02  0.32590874077E+02  0.00000000000E+00 0. -1.
<mgrwt>
<rscale>  0 0.90728960E+02</rscale>
<asrwt>0</asrwt>
<pdfrwt beam="2">  1        2 0.16113989E-02 0.90728960E+02</pdfrwt>
<pdfrwt beam="1">  1       -2 0.30227490E-01 0.90728960E+02</pdfrwt>
<totfact> 0.63591699E+04</totfact>
</mgrwt>
</event>
<event>
 5    1  0.1270834E+001  0.8965921E+02  0.7546771E-02  0.1303679E+00
          2   -1    0    0  501    0  0.00000000000E+00  0.00000000000E+00  0.30710406229E+03  0.30710406229E+03  0.00000000000E+00 0. -1.
         -2   -1    0    0    0  501 -0.00000000000E+00 -0.00000000000E+00 -0.65440145925E+01  0.65440145925E+01  0.00000000000E+00 0.  1.
         23    2    1    2    0    0  0.00000000000E+00  0.00000000000E+00  0.30056004769E+03  0.31364807688E+03  0.89659209566E+02 0.  0.
        -13    1    3    3    0    0 -0.38036900449E+02 -0.23646603691E+02  0.14352763143E+03  0.15035341249E+03  0.00000000000E+00 0.  1.
         13    1    3    3    0    0  0.38036900449E+02  0.23646603691E+02  0.15703241626E+03  0.16329466439E+03  0.00000000000E+00 0. -1.
<mgrwt>
<rscale>  0 0.89659210E+02</rscale>
<asrwt>0</asrwt>
<pdfrwt beam="1">  1        2 0.47246768E-01 0.89659210E+02</pdfrwt>
<pdfrwt beam="2">  1       -2 0.10067717E-02 0.89659210E+02</pdfrwt>
<totfact> 0.18951662E+05</totfact>
</mgrwt>
</event>
<event>
 5    1  0.1270834E+001  0.8970183E+02  0.7546771E-02  0.1303575E+00
         -2   -1    0    0    0  501 -0.00000000000E+00  0.00000000000E+00  0.86852300485E+01  0.86852300485E+01  0.00000000000E+00 0.  1.
          2   -1    0    0  501    0  0.00000000000E+00 -0.00000000000E+00 -0.23161213092E+03  0.23161213092E+03  0.00000000000E+00 0. -1.
         23    2    1    2    0    0  0.00000000000E+00  0.00000000000E+00 -0.22292690087E+03  0.24029736097E+03  0.89701831398E+02 0.  0.
        -11    1    3    3    0    0 -0.28178986092E+02 -0.31011926967E+02 -0.68617848071E+02  0.80400273291E+02  0.00000000000E+00 0.  1.
         11    1    3    3    0    0  0.28178986092E+02  0.31011926967E+02 -0.15430905280E+03  0.15989708768E+03  0.00000000000E+00 0. -1.
<mgrwt>
<rscale>  0 0.89701831E+02</rscale>
<asrwt>0</asrwt>
<pdfrwt beam="2">  1        2 0.35632631E-01 0.89701831E+02</pdfrwt>
<pdfrwt beam="1">  1       -2 0.13361894E-02 0.89701831E+02</pdfrwt>
<totfact> 0.17048050E+05</totfact>
</mgrwt>
</event>
<event>
 5    1  0.1270834E+001  0.9607716E+02  0.7546771E-02  0.1288768E+00
          4   -1    0    0  501    0  0.00000000000E+00  0.00000000000E+00  0.93756609780E+02  0.93756609780E+02  0.00000000000E+00 0. -1.
         -4   -1    0    0    0  501 -0.00000000000E+00 -0.00000000000E+00 -0.24613785051E+02  0.24613785051E+02  0.00000000000E+00 0.  1.
         23    2    1    2    0    0  0.00000000000E+00  0.00000000000E+00  0.69142824729E+02  0.11837039483E+03  0.96077157331E+02 0.  0.
        -13    1    3    3    0    0 -0.23894477226E+02 -0.27135936172E+02  0.73539562114E+02  0.81947375002E+02  0.00000000000E+00 0. -1.
         13    1    3    3    0    0  0.23894477226E+02  0.27135936172E+02 -0.43967373846E+01  0.36423019829E+02  0.00000000000E+00 0.  1.
<mgrwt>
<rscale>  0 0.96077157E+02</rscale>
<asrwt>0</asrwt>
<pdfrwt beam="1">  1        4 0.14424094E-01 0.96077157E+02</pdfrwt>
<pdfrwt beam="2">  1       -4 0.37867362E-02 0.96077157E+02</pdfrwt>
<totfact> 0.22003081E+04</totfact>
</mgrwt>
</event>
<event>
 5    1  0.1270834E+001  0.9259536E+02  0.7546771E-02  0.1296686E+00
          3   -1    0    0  501    0  0.00000000000E+00  0.00000000000E+00  0.98454912911E+02  0.98454912911E+02  0.00000000000E+00 0. -1.
         -3   -1    0    0    0  501 -0.00000000000E+00 -0.00000000000E+00 -0.21771133324E+02  0.21771133324E+02  0.00000000000E+00 0.  1.
         23    2    1    2    0    0  0.00000000000E+00  0.00000000000E+00  0.76683779587E+02  0.12022604624E+03  0.92595357020E+02 0.  0.
        -13    1    3    3    0    0 -0.55364972351E+01  0.29302831470E+02 -0.76400108082E+01  0.30784387259E+02  0.00000000000E+00 0.  1.
         13    1    3    3    0    0  0.55364972351E+01 -0.29302831470E+02  0.84323790395E+02  0.89441658976E+02  0.00000000000E+00 0. -1.
<mgrwt>
<rscale>  0 0.92595357E+02</rscale>
<asrwt>0</asrwt>
<pdfrwt beam="1">  1        3 0.15146909E-01 0.92595357E+02</pdfrwt>
<pdfrwt beam="2">  1       -3 0.33494052E-02 0.92595357E+02</pdfrwt>
<totfact> 0.31863034E+04</totfact>
</mgrwt>
</event>
<event>
 5    1  0.1270834E+001  0.9338150E+02  0.7546771E-02  0.1294864E+00
          1   -1    0    0  501    0  0.00000000000E+00  0.00000000000E+00  0.58632081269E+02  0.58632081269E+02  0.00000000000E+00 0. -1.
         -1   -1    0    0    0  501 -0.00000000000E+00 -0.00000000000E+00 -0.37181452725E+02  0.37181452725E+02  0.00000000000E+00 0.  1.
         23    2    1    2    0    0  0.00000000000E+00  0.00000000000E+00  0.21450628544E+02  0.95813533995E+02  0.93381496195E+02 0.  0.
        -11    1    3    3    0    0 -0.43931223729E+01 -0.44073304398E+02  0.25884062051E+02  0.51300490767E+02  0.00000000000E+00 0. -1.
         11    1    3    3    0    0  0.43931223729E+01  0.44073304398E+02 -0.44334335073E+01  0.44513043227E+02  0.00000000000E+00 0.  1.
<mgrwt>
<rscale>  0 0.93381496E+02</rscale>
<asrwt>0</asrwt>
<pdfrwt beam="1">  1        1 0.90203202E-02 0.93381496E+02</pdfrwt>
<pdfrwt beam="2">  1       -1 0.57202235E-02 0.93381496E+02</pdfrwt>
<totfact> 0.89855858E+04</totfact>
</mgrwt>
</event>
<event>
 5    1  0.1270834E+001  0.9015304E+02  0.7546771E-02  0.1302482E+00
          2   -1    0    0  501    0  0.00000000000E+00  0.00000000000E+00  0.90145568036E+02  0.90145568036E+02  0.00000000000E+00 0.  1.
         -2   -1    0    0    0  501 -0.00000000000E+00 -0.00000000000E+00 -0.22540126957E+02  0.22540126957E+02  0.00000000000E+00 0. -1.
         23    2    1    2    0    0  0.00000000000E+00  0.00000000000E+00  0.67605441079E+02  0.11268569499E+03  0.90153037622E+02 0.  0.
        -13    1    3    3    0    0 -0.23390216055E+02 -0.38478729404E+02  0.31247912228E+02  0.54810097995E+02  0.00000000000E+00 0. -1.
         13    1    3    3    0    0  0.23390216055E+02  0.38478729404E+02  0.36357528851E+02  0.57875596997E+02  0.00000000000E+00 0.  1.
<mgrwt>
<rscale>  0 0.90153038E+02</rscale>
<asrwt>0</asrwt>
<pdfrwt beam="1">  1        2 0.13868549E-01 0.90153038E+02</pdfrwt>
<pdfrwt beam="2">  1       -2 0.34677119E-02 0.90153038E+02</pdfrwt>
<totfact> 0.12268029E+05</totfact>
</mgrwt>
</event>
<event>
 5    1  0.1270834E+001  0.9014677E+02  0.7546771E-02  0.1302497E+00
         -2   -1    0    0    0  501 -0.00000000000E+00  0.00000000000E+00  0.94485193447E+01  0.94485193447E+01  0.00000000000E+00 0.  1.
          2   -1    0    0  501    0  0.00000000000E+00 -0.00000000000E+00 -0.21501889957E+03  0.21501889957E+03  0.00000000000E+00 0. -1.
         23    2    1    2    0    0  0.00000000000E+00  0.00000000000E+00 -0.20557038023E+03  0.22446741892E+03  0.90146774365E+02 0.  0.
        -13    1    3    3    0    0 -0.32381543985E+02 -0.51656227038E+01 -0.25781006875E+02  0.41712208815E+02  0.00000000000E+00 0.  1.
         13    1    3    3    0    0  0.32381543985E+02  0.51656227038E+01 -0.17978937336E+03  0.18275521010E+03  0.00000000000E+00 0. -1.
<mgrwt>
<rscale>  0 0.90146774E+02</rscale>
<asrwt>0</asrwt>
<pdfrwt beam="2">  1        2 0.33079827E-01 0.90146774E+02</pdfrwt>
<pdfrwt beam="1">  1       -2 0.14536185E-02 0.90146774E+02</pdfrwt>
<totfact> 0.16372249E+05</totfact>
</mgrwt>
</event>
<event>
 5    1  0.1270834E+001  0.8998024E+02  0.7546771E-02  0.1302900E+00
         -1   -1    0    0    0  501 -0.00000000000E+00  0.00000000000E+00  0.31879249342E+02  0.31879249342E+02  0.00000000000E+00 0.  1.
          1   -1    0    0  501    0  0.00000000000E+00 -0.00000000000E+00 -0.63493058457E+02  0.63493058457E+02  0.00000000000E+00 0. -1.
         23    2    1    2    0    0  0.00000000000E+00  0.00000000000E+00 -0.31613809115E+02  0.95372307798E+02  0.89980243210E+02 0.  0.
        -13    1    3    3    0    0  0.18282584317E+02  0.24612078862E+02  0.19091899765E+02  0.36117972698E+02  0.00000000000E+00 0.  1.
         13    1    3    3    0    0 -0.18282584317E+02 -0.24612078862E+02 -0.50705708879E+02  0.59254335100E+02  0.00000000000E+00 0. -1.
<mgrwt>
<rscale>  0 0.89980243E+02</rscale>
<asrwt>0</asrwt>
<pdfrwt beam="2">  1        1 0.97681628E-02 0.89980243E+02</pdfrwt>
<pdfrwt beam="1">  1       -1 0.49044999E-02 0.89980243E+02</pdfrwt>
<totfact> 0.10081614E+05</totfact>
</mgrwt>
</event>
<event>
 5    1  0.1270834E+001  0.9173461E+02  0.7546771E-02  0.1298705E+00
          2   -1    0    0  501    0  0.00000000000E+00  0.00000000000E+00  0.14032772620E+02  0.14032772620E+02  0.00000000000E+00 0. -1.
         -2   -1    0    0    0  501 -0.00000000000E+00 -0.00000000000E+00 -0.14992116541E+03  0.14992116541E+03  0.00000000000E+00 0.  1.
         23    2    1    2    0    0  0.00000000000E+00  0.00000000000E+00 -0.13588839279E+03  0.16395393803E+03  0.91734609066E+02 0.  0.
        -11    1    3    3    0    0  0.30137377485E+02  0.12619238416E+01 -0.61876877109E+01  0.30791905635E+02  0.00000000000E+00 0. -1.
         11    1    3    3    0    0 -0.30137377485E+02 -0.12619238416E+01 -0.12970070508E+03  0.13316203240E+03  0.00000000000E+00 0.  1.
<mgrwt>
<rscale>  0 0.91734609E+02</rscale>
<asrwt>0</asrwt>
<pdfrwt beam="1">  1        2 0.21588880E-02 0.91734609E+02</pdfrwt>
<pdfrwt beam="2">  1       -2 0.23064795E-01 0.91734609E+02</pdfrwt>
<totfact> 0.68798380E+04</totfact>
</mgrwt>
</event>
<event>
 5    1  0.1270834E+001  0.9328977E+02  0.7546771E-02  0.1295075E+00
          4   -1    0    0  501    0  0.00000000000E+00  0.00000000000E+00  0.10623629770E+03  0.10623629770E+03  0.00000000000E+00 0. -1.
         -4   -1    0    0    0  501 -0.00000000000E+00 -0.00000000000E+00 -0.20480243875E+02  0.20480243875E+02  0.00000000000E+00 0.  1.
         23    2    1    2    0    0  0.00000000000E+00  0.00000000000E+00  0.85756053830E+02  0.12671654158E+03  0.93289769757E+02 0.  0.
        -13    1    3    3    0    0  0.37467809659E+02  0.27102054463E+02  0.51183427391E+02  0.68978992137E+02  0.00000000000E+00 0. -1.
         13    1    3    3    0    0 -0.37467809659E+02 -0.27102054463E+02  0.34572626439E+02  0.57737549443E+02  0.00000000000E+00 0.  1.
<mgrwt>
<rscale>  0 0.93289770E+02</rscale>
<asrwt>0</asrwt>
<pdfrwt beam="1">  1        4 0.16344045E-01 0.93289770E+02</pdfrwt>
<pdfrwt beam="2">  1       -4 0.31508068E-02 0.93289770E+02</pdfrwt>
<totfact> 0.23399503E+04</totfact>
</mgrwt>
</event>
<event>
 5    1  0.1270834E+001  0.9496888E+02  0.7546771E-02  0.1291246E+00
         -2   -1    0    0    0  501 -0.00000000000E+00  0.00000000000E+00  0.17653781296E+02  0.17653781296E+02  0.00000000000E+00 0.  1.
          2   -1    0    0  501    0  0.00000000000E+00 -0.00000000000E+00 -0.12772176614E+03  0.12772176614E+03  0.00000000000E+00 0. -1.
         23    2    1    2    0    0  0.00000000000E+00  0.00000000000E+00 -0.11006798484E+03  0.14537554744E+03  0.94968881771E+02 0.  0.
        -13    1    3    3    0    0  0.17912979654E+02  0.25812431448E+02 -0.10953491302E+03  0.11395197948E+03  0.00000000000E+00 0. -1.
         13    1    3    3    0    0 -0.17912979654E+02 -0.25812431448E+02 -0.53307182233E+00  0.31423567953E+02  0.00000000000E+00 0.  1.
<mgrwt>
<rscale>  0 0.94968882E+02</rscale>
<asrwt>0</asrwt>
<pdfrwt beam="2">  1        2 0.19649503E-01 0.94968882E+02</pdfrwt>
<pdfrwt beam="1">  1       -2 0.27159662E-02 0.94968882E+02</pdfrwt>
<totfact> 0.11852291E+05</totfact>
</mgrwt>
</event>
<event>
 5    1  0.1270834E+001  0.9200068E+02  0.7546771E-02  0.1298078E+00
         -2   -1    0    0    0  501 -0.00000000000E+00  0.00000000000E+00  0.38624167369E+02  0.38624167369E+02  0.00000000000E+00 0.  1.
          2   -1    0    0  501    0  0.00000000000E+00 -0.00000000000E+00 -0.54785164735E+02  0.54785164735E+02  0.00000000000E+00 0. -1.
         23    2    1    2    0    0  0.00000000000E+00  0.00000000000E+00 -0.16160997366E+02  0.93409332104E+02  0.92000681999E+02 0.  0.
        -11    1    3    3    0    0  0.34729371665E+02  0.28826397046E+02  0.94041219132E+00  0.45143934232E+02  0.00000000000E+00 0.  1.
         11    1    3    3    0    0 -0.34729371665E+02 -0.28826397046E+02 -0.17101409558E+02  0.48265397872E+02  0.00000000000E+00 0. -1.
<mgrwt>
<rscale>  0 0.92000682E+02</rscale>
<asrwt>0</asrwt>
<pdfrwt beam="2">  1        2 0.84284869E-02 0.92000682E+02</pdfrwt>
<pdfrwt beam="1">  1       -2 0.59421796E-02 0.92000682E+02</pdfrwt>
<totfact> 0.10092148E+05</totfact>
</mgrwt>
</event>
<event>
 5    1  0.1270834E+001  0.8994923E+02  0.7546771E-02  0.1302975E+00
          2   -1    0    0  501    0  0.00000000000E+00  0.00000000000E+00  0.21651402505E+02  0.21651402505E+02  0.00000000000E+00 0. -1.
         -2   -1    0    0    0  501 -0.00000000000E+00 -0.00000000000E+00 -0.93421935503E+02  0.93421935503E+02  0.00000000000E+00 0.  1.
         23    2    1    2    0    0  0.00000000000E+00  0.00000000000E+00 -0.71770532998E+02  0.11507333801E+03  0.89949228532E+02 0.  0.
        -11    1    3    3    0    0 -0.13847150158E+01  0.33434325972E+02 -0.74327424392E+02  0.81512806390E+02  0.00000000000E+00 0.  1.
         11    1    3    3    0    0  0.13847150158E+01 -0.33434325972E+02  0.25568913938E+01  0.33560531618E+02  0.00000000000E+00 0. -1.
<mgrwt>
<rscale>  0 0.89949229E+02</rscale>
<asrwt>0</asrwt>
<pdfrwt beam="1">  1        2 0.33309850E-02 0.89949229E+02</pdfrwt>
<pdfrwt beam="2">  1       -2 0.14372606E-01 0.89949229E+02</pdfrwt>
<totfact> 0.84202952E+04</totfact>
</mgrwt>
</event>
<event>
 5    1  0.1270834E+001  0.9043459E+02  0.7546771E-02  0.1301803E+00
          1   -1    0    0  501    0  0.00000000000E+00  0.00000000000E+00  0.89264000657E+02  0.89264000657E+02  0.00000000000E+00 0. -1.
         -1   -1    0    0    0  501 -0.00000000000E+00 -0.00000000000E+00 -0.22905134848E+02  0.22905134848E+02  0.00000000000E+00 0.  1.
         23    2    1    2    0    0  0.00000000000E+00  0.00000000000E+00  0.66358865809E+02  0.11216913551E+03  0.90434594534E+02 0.  0.
        -11    1    3    3    0    0 -0.26874645405E+02 -0.13819668473E+02  0.74899203009E+02  0.80765836923E+02  0.00000000000E+00 0. -1.
         11    1    3    3    0    0  0.26874645405E+02  0.13819668473E+02 -0.85403372000E+01  0.31403298583E+02  0.00000000000E+00 0.  1.
<mgrwt>
<rscale>  0 0.90434595E+02</rscale>
<asrwt>0</asrwt>
<pdfrwt beam="1">  1        1 0.13732923E-01 0.90434595E+02</pdfrwt>
<pdfrwt beam="2">  1       -1 0.35238670E-02 0.90434595E+02</pdfrwt>
<totfact> 0.10483926E+05</totfact>
</mgrwt>
</event>
<event>
 5    1  0.1270834E+001  0.8603370E+02  0.7546771E-02  0.1312751E+00
          2   -1    0    0  501    0  0.00000000000E+00  0.00000000000E+00  0.15360450890E+02  0.15360450890E+02  0.00000000000E+00 0. -1.
         -2   -1    0    0    0  501 -0.00000000000E+00 -0.00000000000E+00 -0.12046842547E+03  0.12046842547E+03  0.00000000000E+00 0.  1.
         23    2    1    2    0    0  0.00000000000E+00  0.00000000000E+00 -0.10510797458E+03  0.13582887636E+03  0.86033698822E+02 0.  0.
        -13    1    3    3    0    0  0.18443827188E+02  0.12856732134E+02 -0.11045434765E+03  0.11271926737E+03  0.00000000000E+00 0.  1.
         13    1    3    3    0    0 -0.18443827188E+02 -0.12856732134E+02  0.53463730704E+01  0.23109608987E+02  0.00000000000E+00 0. -1.
<mgrwt>
<rscale>  0 0.86033699E+02</rscale>
<asrwt>0</asrwt>
<pdfrwt beam="1">  1        2 0.23631463E-02 0.86033699E+02</pdfrwt>
<pdfrwt beam="2">  1       -2 0.18533604E-01 0.86033699E+02</pdfrwt>
<totfact> 0.87129302E+04</totfact>
</mgrwt>
</event>
<event>
 5    1  0.1270834E+001  0.9222522E+02  0.7546771E-02  0.1297551E+00
         -3   -1    0    0    0  501 -0.00000000000E+00  0.00000000000E+00  0.40176338077E+02  0.40176338077E+02  0.00000000000E+00 0.  1.
          3   -1    0    0  501    0  0.00000000000E+00 -0.00000000000E+00 -0.52925992789E+02  0.52925992789E+02  0.00000000000E+00 0. -1.
         23    2    1    2    0    0  0.00000000000E+00  0.00000000000E+00 -0.12749654712E+02  0.93102330866E+02  0.92225215193E+02 0.  0.
        -11    1    3    3    0    0  0.41939461428E+02 -0.14752628854E+02 -0.18731092420E+02  0.48243261771E+02  0.00000000000E+00 0. -1.
         11    1    3    3    0    0 -0.41939461428E+02  0.14752628854E+02  0.59814377085E+01  0.44859069095E+02  0.00000000000E+00 0.  1.
<mgrwt>
<rscale>  0 0.92225215E+02</rscale>
<asrwt>0</asrwt>
<pdfrwt beam="2">  1        3 0.81424604E-02 0.92225215E+02</pdfrwt>
<pdfrwt beam="1">  1       -3 0.61809751E-02 0.92225215E+02</pdfrwt>
<totfact> 0.34109861E+04</totfact>
</mgrwt>
</event>
<event>
 5    1  0.1270834E+001  0.9332477E+02  0.7546771E-02  0.1294994E+00
         -1   -1    0    0    0  501 -0.00000000000E+00  0.00000000000E+00  0.91664404579E+02  0.91664404579E+02  0.00000000000E+00 0.  1.
          1   -1    0    0  501    0  0.00000000000E+00 -0.00000000000E+00 -0.23753801064E+02  0.23753801064E+02  0.00000000000E+00 0. -1.
         23    2    1    2    0    0  0.00000000000E+00  0.00000000000E+00  0.67910603515E+02  0.11541820564E+03  0.93324766939E+02 0.  0.
        -11    1    3    3    0    0  0.23746420308E+02  0.40057071654E+02  0.37648275094E+02  0.59882001340E+02  0.00000000000E+00 0.  1.
         11    1    3    3    0    0 -0.23746420308E+02 -0.40057071654E+02  0.30262328421E+02  0.55536204303E+02  0.00000000000E+00 0. -1.
<mgrwt>
<rscale>  0 0.93324767E+02</rscale>
<asrwt>0</asrwt>
<pdfrwt beam="2">  1        1 0.36544310E-02 0.93324767E+02</pdfrwt>
<pdfrwt beam="1">  1       -1 0.14102216E-01 0.93324767E+02</pdfrwt>
<totfact> 0.77864605E+04</totfact>
</mgrwt>
</event>
<event>
 5    1  0.1270834E+001  0.8956579E+02  0.7546771E-02  0.1303907E+00
         -1   -1    0    0    0  501 -0.00000000000E+00  0.00000000000E+00  0.67604243803E+02  0.67604243803E+02  0.00000000000E+00 0.  1.
          1   -1    0    0  501    0  0.00000000000E+00 -0.00000000000E+00 -0.29665413584E+02  0.29665413584E+02  0.00000000000E+00 0. -1.
         23    2    1    2    0    0  0.00000000000E+00  0.00000000000E+00  0.37938830219E+02  0.97269657387E+02  0.89565793749E+02 0.  0.
        -11    1    3    3    0    0  0.31119274926E+02 -0.32166935259E+02  0.17291583517E+02  0.47980411174E+02  0.00000000000E+00 0. -1.
         11    1    3    3    0    0 -0.31119274926E+02  0.32166935259E+02  0.20647246702E+02  0.49289246213E+02  0.00000000000E+00 0.  1.
<mgrwt>
<rscale>  0 0.89565794E+02</rscale>
<asrwt>0</asrwt>
<pdfrwt beam="2">  1        1 0.45639098E-02 0.89565794E+02</pdfrwt>
<pdfrwt beam="1">  1       -1 0.10400653E-01 0.89565794E+02</pdfrwt>
<totfact> 0.91063160E+04</totfact>
</mgrwt>
</event>
<event>
 5    1  0.1270834E+001  0.9101020E+02  0.7546771E-02  0.1300424E+00
         -1   -1    0    0    0  501 -0.00000000000E+00  0.00000000000E+00  0.87095994577E+02  0.87095994577E+02  0.00000000000E+00 0.  1.
          1   -1    0    0  501    0  0.00000000000E+00 -0.00000000000E+00 -0.23775078263E+02  0.23775078263E+02  0.00000000000E+00 0. -1.
         23    2    1    2    0    0  0.00000000000E+00  0.00000000000E+00  0.63320916314E+02  0.11087107284E+03  0.91010199152E+02 0.  0.
        -11    1    3    3    0    0  0.84647717253E+01 -0.11922490015E+02 -0.20835311765E+02  0.25454043782E+02  0.00000000000E+00 0. -1.
         11    1    3    3    0    0 -0.84647717253E+01  0.11922490015E+02  0.84156228079E+02  0.85417029057E+02  0.00000000000E+00 0.  1.
<mgrwt>
<rscale>  0 0.91010199E+02</rscale>
<asrwt>0</asrwt>
<pdfrwt beam="2">  1        1 0.36577044E-02 0.91010199E+02</pdfrwt>
<pdfrwt beam="1">  1       -1 0.13399384E-01 0.91010199E+02</pdfrwt>
<totfact> 0.83815534E+04</totfact>
</mgrwt>
</event>
<event>
 5    1  0.1270834E+001  0.8988431E+02  0.7546771E-02  0.1303132E+00
          2   -1    0    0  501    0  0.00000000000E+00  0.00000000000E+00  0.98895605027E+01  0.98895605027E+01  0.00000000000E+00 0. -1.
         -2   -1    0    0    0  501 -0.00000000000E+00 -0.00000000000E+00 -0.20423527876E+03  0.20423527876E+03  0.00000000000E+00 0.  1.
         23    2    1    2    0    0  0.00000000000E+00  0.00000000000E+00 -0.19434571826E+03  0.21412483926E+03  0.89884306663E+02 0.  0.
        -13    1    3    3    0    0 -0.30177988044E+02 -0.33222202360E+02 -0.10269400361E+03  0.11207356544E+03  0.00000000000E+00 0. -1.
         13    1    3    3    0    0  0.30177988044E+02  0.33222202360E+02 -0.91651714649E+02  0.10205127383E+03  0.00000000000E+00 0.  1.
<mgrwt>
<rscale>  0 0.89884307E+02</rscale>
<asrwt>0</asrwt>
<pdfrwt beam="1">  1        2 0.15214710E-02 0.89884307E+02</pdfrwt>
<pdfrwt beam="2">  1       -2 0.31420809E-01 0.89884307E+02</pdfrwt>
<totfact> 0.64044831E+04</totfact>
</mgrwt>
</event>
<event>
 5    1  0.1270834E+001  0.9065835E+02  0.7546771E-02  0.1301265E+00
          1   -1    0    0  501    0  0.00000000000E+00  0.00000000000E+00  0.19226567251E+03  0.19226567251E+03  0.00000000000E+00 0. -1.
         -1   -1    0    0    0  501 -0.00000000000E+00 -0.00000000000E+00 -0.10686952542E+02  0.10686952542E+02  0.00000000000E+00 0.  1.
         23    2    1    2    0    0  0.00000000000E+00  0.00000000000E+00  0.18157871996E+03  0.20295262505E+03  0.90658350252E+02 0.  0.
        -11    1    3    3    0    0 -0.26033544742E+02  0.30131676453E+02  0.42304512617E+02  0.58097634766E+02  0.00000000000E+00 0.  1.
         11    1    3    3    0    0  0.26033544742E+02 -0.30131676453E+02  0.13927420735E+03  0.14485499028E+03  0.00000000000E+00 0. -1.
<mgrwt>
<rscale>  0 0.90658350E+02</rscale>
<asrwt>0</asrwt>
<pdfrwt beam="1">  1        1 0.29579332E-01 0.90658350E+02</pdfrwt>
<pdfrwt beam="2">  1       -1 0.16441467E-02 0.90658350E+02</pdfrwt>
<totfact> 0.11931678E+05</totfact>
</mgrwt>
</event>
<event>
 5    1  0.1270834E+001  0.9010686E+02  0.7546771E-02  0.1302593E+00
          2   -1    0    0  501    0  0.00000000000E+00  0.00000000000E+00  0.54094479092E+02  0.54094479092E+02  0.00000000000E+00 0. -1.
         -2   -1    0    0    0  501 -0.00000000000E+00 -0.00000000000E+00 -0.37523449362E+02  0.37523449362E+02  0.00000000000E+00 0.  1.
         23    2    1    2    0    0  0.00000000000E+00  0.00000000000E+00  0.16571029730E+02  0.91617928455E+02  0.90106857608E+02 0.  0.
        -13    1    3    3    0    0 -0.26416193183E+02  0.16675041341E+02 -0.24723335468E+02  0.39838619237E+02  0.00000000000E+00 0.  1.
         13    1    3    3    0    0  0.26416193183E+02 -0.16675041341E+02  0.41294365198E+02  0.51779309218E+02  0.00000000000E+00 0. -1.
<mgrwt>
<rscale>  0 0.90106858E+02</rscale>
<asrwt>0</asrwt>
<pdfrwt beam="1">  1        2 0.83222276E-02 0.90106858E+02</pdfrwt>
<pdfrwt beam="2">  1       -2 0.57728384E-02 0.90106858E+02</pdfrwt>
<totfact> 0.10669597E+05</totfact>
</mgrwt>
</event>
<event>
 5    1  0.1270834E+001  0.8983123E+02  0.7546771E-02  0.1303261E+00
          1   -1    0    0  501    0  0.00000000000E+00  0.00000000000E+00  0.10652792056E+02  0.10652792056E+02  0.00000000000E+00 0. -1.
         -1   -1    0    0    0  501 -0.00000000000E+00 -0.00000000000E+00 -0.18937876813E+03  0.18937876813E+03  0.00000000000E+00 0.  1.
         23    2    1    2    0    0  0.00000000000E+00  0.00000000000E+00 -0.17872597607E+03  0.20003156019E+03  0.89831233693E+02 0.  0.
        -13    1    3    3    0    0  0.37277062399E+02 -0.67528280713E+01 -0.35632670668E+02  0.52008338629E+02  0.00000000000E+00 0. -1.
         13    1    3    3    0    0 -0.37277062399E+02  0.67528280713E+01 -0.14309330541E+03  0.14802322156E+03  0.00000000000E+00 0.  1.
<mgrwt>
<rscale>  0 0.89831234E+02</rscale>
<asrwt>0</asrwt>
<pdfrwt beam="1">  1        1 0.16388912E-02 0.89831234E+02</pdfrwt>
<pdfrwt beam="2">  1       -1 0.29135192E-01 0.89831234E+02</pdfrwt>
<totfact> 0.73274845E+04</totfact>
</mgrwt>
</event>
<event>
 5    1  0.1270834E+001  0.8981309E+02  0.7546771E-02  0.1303305E+00
          4   -1    0    0  501    0  0.00000000000E+00  0.00000000000E+00  0.39083189955E+02  0.39083189955E+02  0.00000000000E+00 0. -1.
         -4   -1    0    0    0  501 -0.00000000000E+00 -0.00000000000E+00 -0.51597571448E+02  0.51597571448E+02  0.00000000000E+00 0.  1.
         23    2    1    2    0    0  0.00000000000E+00  0.00000000000E+00 -0.12514381493E+02  0.90680761403E+02  0.89813087824E+02 0.  0.
        -11    1    3    3    0    0 -0.15441144127E+02  0.30440490958E+02 -0.35720355831E+02  0.49406439281E+02  0.00000000000E+00 0.  1.
         11    1    3    3    0    0  0.15441144127E+02 -0.30440490958E+02  0.23205974338E+02  0.41274322122E+02  0.00000000000E+00 0. -1.
<mgrwt>
<rscale>  0 0.89813088E+02</rscale>
<asrwt>0</asrwt>
<pdfrwt beam="1">  1        4 0.60127985E-02 0.89813088E+02</pdfrwt>
<pdfrwt beam="2">  1       -4 0.79380879E-02 0.89813088E+02</pdfrwt>
<totfact> 0.28175024E+04</totfact>
</mgrwt>
</event>
<event>
 5    1  0.1270834E+001  0.9405889E+02  0.7546771E-02  0.1293310E+00
          1   -1    0    0  501    0  0.00000000000E+00  0.00000000000E+00  0.86169727919E+02  0.86169727919E+02  0.00000000000E+00 0. -1.
         -1   -1    0    0    0  501 -0.00000000000E+00 -0.00000000000E+00 -0.25667583999E+02  0.25667583999E+02  0.00000000000E+00 0.  1.
         23    2    1    2    0    0  0.00000000000E+00  0.00000000000E+00  0.60502143921E+02  0.11183731192E+03  0.94058890691E+02 0.  0.
        -13    1    3    3    0    0 -0.37527816414E+02  0.28236022398E+02  0.33201830306E+02  0.57514967629E+02  0.00000000000E+00 0.  1.
         13    1    3    3    0    0  0.37527816414E+02 -0.28236022398E+02  0.27300313615E+02  0.54322344289E+02  0.00000000000E+00 0. -1.
<mgrwt>
<rscale>  0 0.94058891E+02</rscale>
<asrwt>0</asrwt>
<pdfrwt beam="1">  1        1 0.13256881E-01 0.94058891E+02</pdfrwt>
<pdfrwt beam="2">  1       -1 0.39488591E-02 0.94058891E+02</pdfrwt>
<totfact> 0.93591428E+04</totfact>
</mgrwt>
</event>
<event>
 5    1  0.1270834E+001  0.9340664E+02  0.7546771E-02  0.1294806E+00
          3   -1    0    0  501    0  0.00000000000E+00  0.00000000000E+00  0.86458518797E+02  0.86458518797E+02  0.00000000000E+00 0. -1.
         -3   -1    0    0    0  501 -0.00000000000E+00 -0.00000000000E+00 -0.25228282510E+02  0.25228282510E+02  0.00000000000E+00 0.  1.
         23    2    1    2    0    0  0.00000000000E+00  0.00000000000E+00  0.61230236287E+02  0.11168680131E+03  0.93406636543E+02 0.  0.
        -11    1    3    3    0    0  0.29961385389E+01  0.17079375694E+02 -0.21236566187E+02  0.27416667625E+02  0.00000000000E+00 0.  1.
         11    1    3    3    0    0 -0.29961385389E+01 -0.17079375694E+02  0.82466802474E+02  0.84270133681E+02  0.00000000000E+00 0. -1.
<mgrwt>
<rscale>  0 0.93406637E+02</rscale>
<asrwt>0</asrwt>
<pdfrwt beam="1">  1        3 0.13301310E-01 0.93406637E+02</pdfrwt>
<pdfrwt beam="2">  1       -3 0.38812743E-02 0.93406637E+02</pdfrwt>
<totfact> 0.31668875E+04</totfact>
</mgrwt>
</event>
<event>
 5    1  0.1270834E+001  0.6974623E+02  0.7546771E-02  0.1360958E+00
         -2   -1    0    0    0  501 -0.00000000000E+00  0.00000000000E+00  0.42271787987E+01  0.42271787987E+01  0.00000000000E+00 0. -1.
          2   -1    0    0  501    0  0.00000000000E+00 -0.00000000000E+00 -0.28769400567E+03  0.28769400567E+03  0.00000000000E+00 0.  1.
         23    2    1    2    0    0  0.00000000000E+00  0.00000000000E+00 -0.28346682687E+03  0.29192118447E+03  0.69746225740E+02 0.  0.
        -13    1    3    3    0    0  0.27248075909E+02 -0.20838543767E+02 -0.16801589075E+03  0.17148190019E+03  0.00000000000E+00 0.  1.
         13    1    3    3    0    0 -0.27248075909E+02  0.20838543767E+02 -0.11545093612E+03  0.12043928428E+03  0.00000000000E+00 0. -1.
<mgrwt>
<rscale>  0 0.69746226E+02</rscale>
<asrwt>0</asrwt>
<pdfrwt beam="2">  1        2 0.44260627E-01 0.69746226E+02</pdfrwt>
<pdfrwt beam="1">  1       -2 0.65033504E-03 0.69746226E+02</pdfrwt>
<totfact> 0.35783841E+05</totfact>
</mgrwt>
</event>
<event>
 5    1  0.1270834E+001  0.9161735E+02  0.7546771E-02  0.1298982E+00
          3   -1    0    0  501    0  0.00000000000E+00  0.00000000000E+00  0.96314412671E+02  0.96314412671E+02  0.00000000000E+00 0. -1.
         -3   -1    0    0    0  501 -0.00000000000E+00 -0.00000000000E+00 -0.21787340778E+02  0.21787340778E+02  0.00000000000E+00 0.  1.
         23    2    1    2    0    0  0.00000000000E+00  0.00000000000E+00  0.74527071894E+02  0.11810175345E+03  0.91617354920E+02 0.  0.
        -13    1    3    3    0    0  0.23812398942E+02  0.28269339407E+02  0.72146067922E+02  0.81063191465E+02  0.00000000000E+00 0. -1.
         13    1    3    3    0    0 -0.23812398942E+02 -0.28269339407E+02  0.23810039713E+01  0.37038561983E+02  0.00000000000E+00 0.  1.
<mgrwt>
<rscale>  0 0.91617355E+02</rscale>
<asrwt>0</asrwt>
<pdfrwt beam="1">  1        3 0.14817602E-01 0.91617355E+02</pdfrwt>
<pdfrwt beam="2">  1       -3 0.33518986E-02 0.91617355E+02</pdfrwt>
<totfact> 0.32941650E+04</totfact>
</mgrwt>
</event>
<event>
 5    1  0.1270834E+001  0.9210815E+02  0.7546771E-02  0.1297825E+00
         -1   -1    0    0    0  501 -0.00000000000E+00  0.00000000000E+00  0.24164988019E+02  0.24164988019E+02  0.00000000000E+00 0.  1.
          1   -1    0    0  501    0  0.00000000000E+00 -0.00000000000E+00 -0.87770689288E+02  0.87770689288E+02  0.00000000000E+00 0. -1.
         23    2    1    2    0    0  0.00000000000E+00  0.00000000000E+00 -0.63605701268E+02  0.11193567731E+03  0.92108146330E+02 0.  0.
        -11    1    3    3    0    0  0.13289437155E+02  0.43669122308E+02 -0.24373198497E+02  0.51746054806E+02  0.00000000000E+00 0.  1.
         11    1    3    3    0    0 -0.13289437155E+02 -0.43669122308E+02 -0.39232502772E+02  0.60189622501E+02  0.00000000000E+00 0. -1.
<mgrwt>
<rscale>  0 0.92108146E+02</rscale>
<asrwt>0</asrwt>
<pdfrwt beam="2">  1        1 0.13503183E-01 0.92108146E+02</pdfrwt>
<pdfrwt beam="1">  1       -1 0.37176904E-02 0.92108146E+02</pdfrwt>
<totfact> 0.99435932E+04</totfact>
</mgrwt>
</event>
<event>
 5    1  0.1270834E+001  0.9217500E+02  0.7546771E-02  0.1297668E+00
         -2   -1    0    0    0  501 -0.00000000000E+00  0.00000000000E+00  0.88046650614E+02  0.88046650614E+02  0.00000000000E+00 0.  1.
          2   -1    0    0  501    0  0.00000000000E+00 -0.00000000000E+00 -0.24124228620E+02  0.24124228620E+02  0.00000000000E+00 0. -1.
         23    2    1    2    0    0  0.00000000000E+00  0.00000000000E+00  0.63922421995E+02  0.11217087923E+03  0.92174997231E+02 0.  0.
        -13    1    3    3    0    0  0.11855443650E+02 -0.40563049739E+02  0.54339066398E+02  0.68837828882E+02  0.00000000000E+00 0.  1.
         13    1    3    3    0    0 -0.11855443650E+02  0.40563049739E+02  0.95833555971E+01  0.43333050352E+02  0.00000000000E+00 0. -1.
<mgrwt>
<rscale>  0 0.92174997E+02</rscale>
<asrwt>0</asrwt>
<pdfrwt beam="2">  1        2 0.37114198E-02 0.92174997E+02</pdfrwt>
<pdfrwt beam="1">  1       -2 0.13545638E-01 0.92174997E+02</pdfrwt>
<totfact> 0.80622024E+04</totfact>
</mgrwt>
</event>
<event>
 5    1  0.1270834E+001  0.8899745E+02  0.7546771E-02  0.1305298E+00
          1   -1    0    0  501    0  0.00000000000E+00  0.00000000000E+00  0.18602737187E+02  0.18602737187E+02  0.00000000000E+00 0. -1.
         -1   -1    0    0    0  501 -0.00000000000E+00 -0.00000000000E+00 -0.10644328817E+03  0.10644328817E+03  0.00000000000E+00 0.  1.
         23    2    1    2    0    0  0.00000000000E+00  0.00000000000E+00 -0.87840550981E+02  0.12504602536E+03  0.88997449742E+02 0.  0.
        -11    1    3    3    0    0  0.34710527408E+02  0.27551771379E+01 -0.49893152876E+01  0.35175346211E+02  0.00000000000E+00 0. -1.
         11    1    3    3    0    0 -0.34710527408E+02 -0.27551771379E+01 -0.82851235693E+02  0.89870679145E+02  0.00000000000E+00 0.  1.
<mgrwt>
<rscale>  0 0.88997450E+02</rscale>
<asrwt>0</asrwt>
<pdfrwt beam="1">  1        1 0.28619595E-02 0.88997450E+02</pdfrwt>
<pdfrwt beam="2">  1       -1 0.16375891E-01 0.88997450E+02</pdfrwt>
<totfact> 0.85586884E+04</totfact>
</mgrwt>
</event>
<event>
 5    1  0.1270834E+001  0.9101453E+02  0.7546771E-02  0.1300413E+00
          1   -1    0    0  501    0  0.00000000000E+00  0.00000000000E+00  0.64390230557E+01  0.64390230557E+01  0.00000000000E+00 0. -1.
         -1   -1    0    0    0  501 -0.00000000000E+00 -0.00000000000E+00 -0.32161883178E+03  0.32161883178E+03  0.00000000000E+00 0.  1.
         23    2    1    2    0    0  0.00000000000E+00  0.00000000000E+00 -0.31517980873E+03  0.32805785484E+03  0.91014527918E+02 0.  0.
        -11    1    3    3    0    0 -0.25387844063E+02  0.32404589729E+02 -0.87668010439E+02  0.96851846219E+02  0.00000000000E+00 0.  1.
         11    1    3    3    0    0  0.25387844063E+02 -0.32404589729E+02 -0.22751179829E+03  0.23120600862E+03  0.00000000000E+00 0. -1.
<mgrwt>
<rscale>  0 0.91014528E+02</rscale>
<asrwt>0</asrwt>
<pdfrwt beam="1">  1        1 0.99061892E-03 0.91014528E+02</pdfrwt>
<pdfrwt beam="2">  1       -1 0.49479821E-01 0.91014528E+02</pdfrwt>
<totfact> 0.59177138E+04</totfact>
</mgrwt>
</event>
<event>
 5    1  0.1270834E+001  0.8921783E+02  0.7546771E-02  0.1304757E+00
          3   -1    0    0  501    0  0.00000000000E+00  0.00000000000E+00  0.31168723587E+03  0.31168723587E+03  0.00000000000E+00 0. -1.
         -3   -1    0    0    0  501 -0.00000000000E+00 -0.00000000000E+00 -0.63844626363E+01  0.63844626363E+01  0.00000000000E+00 0.  1.
         23    2    1    2    0    0  0.00000000000E+00  0.00000000000E+00  0.30530277323E+03  0.31807169850E+03  0.89217834800E+02 0.  0.
        -11    1    3    3    0    0 -0.66074116931E-01 -0.44180335443E+02  0.13066035632E+03  0.13792764451E+03  0.00000000000E+00 0.  1.
         11    1    3    3    0    0  0.66074116931E-01  0.44180335443E+02  0.17464241691E+03  0.18014405400E+03  0.00000000000E+00 0. -1.
<mgrwt>
<rscale>  0 0.89217835E+02</rscale>
<asrwt>0</asrwt>
<pdfrwt beam="1">  1        3 0.47951870E-01 0.89217835E+02</pdfrwt>
<pdfrwt beam="2">  1       -3 0.98222527E-03 0.89217835E+02</pdfrwt>
<totfact> 0.24745548E+04</totfact>
</mgrwt>
</event>
<event>
 5    1  0.1270834E+001  0.9280814E+02  0.7546771E-02  0.1296190E+00
         -2   -1    0    0    0  501 -0.00000000000E+00  0.00000000000E+00  0.84027223317E+02  0.84027223317E+02  0.00000000000E+00 0.  1.
          2   -1    0    0  501    0  0.00000000000E+00 -0.00000000000E+00 -0.25626665346E+02  0.25626665346E+02  0.00000000000E+00 0. -1.
         23    2    1    2    0    0  0.00000000000E+00  0.00000000000E+00  0.58400557971E+02  0.10965388866E+03  0.92808136107E+02 0.  0.
        -13    1    3    3    0    0  0.94239160517E+01 -0.32808795406E+02  0.66340176096E+02  0.74607279901E+02  0.00000000000E+00 0.  1.
         13    1    3    3    0    0 -0.94239160517E+01  0.32808795406E+02 -0.79396181249E+01  0.35046608762E+02  0.00000000000E+00 0. -1.
<mgrwt>
<rscale>  0 0.92808136E+02</rscale>
<asrwt>0</asrwt>
<pdfrwt beam="2">  1        2 0.39425639E-02 0.92808136E+02</pdfrwt>
<pdfrwt beam="1">  1       -2 0.12927265E-01 0.92808136E+02</pdfrwt>
<totfact> 0.80333415E+04</totfact>
</mgrwt>
</event>
<event>
 5    1  0.1270834E+001  0.9054960E+02  0.7546771E-02  0.1301526E+00
         -3   -1    0    0    0  501 -0.00000000000E+00  0.00000000000E+00  0.21942017898E+02  0.21942017898E+02  0.00000000000E+00 0.  1.
          3   -1    0    0  501    0  0.00000000000E+00 -0.00000000000E+00 -0.93419273073E+02  0.93419273073E+02  0.00000000000E+00 0. -1.
         23    2    1    2    0    0  0.00000000000E+00  0.00000000000E+00 -0.71477255175E+02  0.11536129097E+03  0.90549596616E+02 0.  0.
        -11    1    3    3    0    0  0.21014178845E+02  0.35733773998E+02 -0.58928066140E+02  0.72048700860E+02  0.00000000000E+00 0. -1.
         11    1    3    3    0    0 -0.21014178845E+02 -0.35733773998E+02 -0.12549189035E+02  0.43312590111E+02  0.00000000000E+00 0.  1.
<mgrwt>
<rscale>  0 0.90549597E+02</rscale>
<asrwt>0</asrwt>
<pdfrwt beam="2">  1        3 0.14372196E-01 0.90549597E+02</pdfrwt>
<pdfrwt beam="1">  1       -3 0.33756950E-02 0.90549597E+02</pdfrwt>
<totfact> 0.34201218E+04</totfact>
</mgrwt>
</event>
<event>
 5    1  0.1270834E+001  0.8694169E+02  0.7546771E-02  0.1310432E+00
         -2   -1    0    0    0  501 -0.00000000000E+00  0.00000000000E+00  0.48449383069E+02  0.48449383069E+02  0.00000000000E+00 0. -1.
          2   -1    0    0  501    0  0.00000000000E+00 -0.00000000000E+00 -0.39003886910E+02  0.39003886910E+02  0.00000000000E+00 0.  1.
         23    2    1    2    0    0  0.00000000000E+00  0.00000000000E+00  0.94454961585E+01  0.87453269979E+02  0.86941687540E+02 0.  0.
        -13    1    3    3    0    0  0.16897556644E+02 -0.31249499282E+02 -0.20477725505E+02  0.41004827372E+02  0.00000000000E+00 0.  1.
         13    1    3    3    0    0 -0.16897556644E+02  0.31249499282E+02  0.29923221664E+02  0.46448442607E+02  0.00000000000E+00 0. -1.
<mgrwt>
<rscale>  0 0.86941688E+02</rscale>
<asrwt>0</asrwt>
<pdfrwt beam="2">  1        2 0.60005980E-02 0.86941688E+02</pdfrwt>
<pdfrwt beam="1">  1       -2 0.74537512E-02 0.86941688E+02</pdfrwt>
<totfact> 0.10870572E+05</totfact>
</mgrwt>
</event>
<event>
 5    1  0.1270834E+001  0.8692695E+02  0.7546771E-02  0.1310469E+00
         -3   -1    0    0    0  501 -0.00000000000E+00  0.00000000000E+00  0.32914604762E+03  0.32914604762E+03  0.00000000000E+00 0.  1.
          3   -1    0    0  501    0  0.00000000000E+00 -0.00000000000E+00 -0.57393168257E+01  0.57393168257E+01  0.00000000000E+00 0. -1.
         23    2    1    2    0    0  0.00000000000E+00  0.00000000000E+00  0.32340673079E+03  0.33488536445E+03  0.86926945172E+02 0.  0.
        -11    1    3    3    0    0 -0.36273726878E+02 -0.22827162244E+02  0.13386638406E+03  0.14055984982E+03  0.00000000000E+00 0.  1.
         11    1    3    3    0    0  0.36273726878E+02  0.22827162244E+02  0.18954034673E+03  0.19432551463E+03  0.00000000000E+00 0. -1.
<mgrwt>
<rscale>  0 0.86926945E+02</rscale>
<asrwt>0</asrwt>
<pdfrwt beam="2">  1        3 0.88297207E-03 0.86926945E+02</pdfrwt>
<pdfrwt beam="1">  1       -3 0.50637839E-01 0.86926945E+02</pdfrwt>
<totfact> 0.25820713E+04</totfact>
</mgrwt>
</event>
<event>
 5    1  0.1270834E+001  0.9003486E+02  0.7546771E-02  0.1302767E+00
          1   -1    0    0  501    0  0.00000000000E+00  0.00000000000E+00  0.10367237442E+02  0.10367237442E+02  0.00000000000E+00 0. -1.
         -1   -1    0    0    0  501 -0.00000000000E+00 -0.00000000000E+00 -0.19547822161E+03  0.19547822161E+03  0.00000000000E+00 0.  1.
         23    2    1    2    0    0  0.00000000000E+00  0.00000000000E+00 -0.18511098417E+03  0.20584545906E+03  0.90034862984E+02 0.  0.
        -11    1    3    3    0    0 -0.16863845838E+02 -0.37517416662E+02 -0.50733119715E+02  0.65313056011E+02  0.00000000000E+00 0. -1.
         11    1    3    3    0    0  0.16863845838E+02  0.37517416662E+02 -0.13437786446E+03  0.14053240304E+03  0.00000000000E+00 0.  1.
<mgrwt>
<rscale>  0 0.90034863E+02</rscale>
<asrwt>0</asrwt>
<pdfrwt beam="1">  1        1 0.15949597E-02 0.90034863E+02</pdfrwt>
<pdfrwt beam="2">  1       -1 0.30073571E-01 0.90034863E+02</pdfrwt>
<totfact> 0.72206196E+04</totfact>
</mgrwt>
</event>
<event>
 5    1  0.1270834E+001  0.9132664E+02  0.7546771E-02  0.1299670E+00
          2   -1    0    0  501    0  0.00000000000E+00  0.00000000000E+00  0.22755143207E+03  0.22755143207E+03  0.00000000000E+00 0. -1.
         -2   -1    0    0    0  501 -0.00000000000E+00 -0.00000000000E+00 -0.91633732134E+01  0.91633732134E+01  0.00000000000E+00 0.  1.
         23    2    1    2    0    0  0.00000000000E+00  0.00000000000E+00  0.21838805886E+03  0.23671480529E+03  0.91326637896E+02 0.  0.
        -13    1    3    3    0    0 -0.40254792616E+02  0.21464777471E+02  0.10404020481E+03  0.11360259336E+03  0.00000000000E+00 0.  1.
         13    1    3    3    0    0  0.40254792616E+02 -0.21464777471E+02  0.11434785405E+03  0.12311221193E+03  0.00000000000E+00 0. -1.
<mgrwt>
<rscale>  0 0.91326638E+02</rscale>
<asrwt>0</asrwt>
<pdfrwt beam="1">  1        2 0.35007908E-01 0.91326638E+02</pdfrwt>
<pdfrwt beam="2">  1       -2 0.14097499E-02 0.91326638E+02</pdfrwt>
<totfact> 0.16142181E+05</totfact>
</mgrwt>
</event>
<event>
 5    1  0.1270834E+001  0.7859765E+02  0.7546771E-02  0.1333079E+00
         -1   -1    0    0    0  501 -0.00000000000E+00  0.00000000000E+00  0.83858504892E+02  0.83858504892E+02  0.00000000000E+00 0.  1.
          1   -1    0    0  501    0  0.00000000000E+00 -0.00000000000E+00 -0.18416709792E+02  0.18416709792E+02  0.00000000000E+00 0. -1.
         23    2    1    2    0    0  0.00000000000E+00  0.00000000000E+00  0.65441795100E+02  0.10227521468E+03  0.78597652590E+02 0.  0.
        -13    1    3    3    0    0  0.45742050029E+01  0.32338933822E+02  0.42812776738E+01  0.32940238777E+02  0.00000000000E+00 0. -1.
         13    1    3    3    0    0 -0.45742050029E+01 -0.32338933822E+02  0.61160517427E+02  0.69334975907E+02  0.00000000000E+00 0.  1.
<mgrwt>
<rscale>  0 0.78597653E+02</rscale>
<asrwt>0</asrwt>
<pdfrwt beam="2">  1        1 0.28333400E-02 0.78597653E+02</pdfrwt>
<pdfrwt beam="1">  1       -1 0.12901308E-01 0.78597653E+02</pdfrwt>
<totfact> 0.12273343E+05</totfact>
</mgrwt>
</event>
<event>
 5    1  0.1270834E+001  0.8966037E+02  0.7546771E-02  0.1303676E+00
          1   -1    0    0  501    0  0.00000000000E+00  0.00000000000E+00  0.13920695090E+02  0.13920695090E+02  0.00000000000E+00 0. -1.
         -1   -1    0    0    0  501 -0.00000000000E+00 -0.00000000000E+00 -0.14437104602E+03  0.14437104602E+03  0.00000000000E+00 0.  1.
         23    2    1    2    0    0  0.00000000000E+00  0.00000000000E+00 -0.13045035093E+03  0.15829174111E+03  0.89660366084E+02 0.  0.
        -11    1    3    3    0    0  0.43966707517E+02 -0.70663312649E+01 -0.56095700718E+02  0.71622147737E+02  0.00000000000E+00 0.  1.
         11    1    3    3    0    0 -0.43966707517E+02  0.70663312649E+01 -0.74354650216E+02  0.86669593378E+02  0.00000000000E+00 0. -1.
<mgrwt>
<rscale>  0 0.89660366E+02</rscale>
<asrwt>0</asrwt>
<pdfrwt beam="1">  1        1 0.21416453E-02 0.89660366E+02</pdfrwt>
<pdfrwt beam="2">  1       -1 0.22210931E-01 0.89660366E+02</pdfrwt>
<totfact> 0.78804202E+04</totfact>
</mgrwt>
</event>
<event>
 5    1  0.1270834E+001  0.9254013E+02  0.7546771E-02  0.1296814E+00
         -2   -1    0    0    0  501 -0.00000000000E+00  0.00000000000E+00  0.71843223737E+02  0.71843223737E+02  0.00000000000E+00 0.  1.
          2   -1    0    0  501    0  0.00000000000E+00 -0.00000000000E+00 -0.29799873610E+02  0.29799873610E+02  0.00000000000E+00 0. -1.
         23    2    1    2    0    0  0.00000000000E+00  0.00000000000E+00  0.42043350127E+02  0.10164309735E+03  0.92540131557E+02 0.  0.
        -13    1    3    3    0    0  0.41042199260E+02  0.14064898983E+02  0.38685787974E+02  0.58128080088E+02  0.00000000000E+00 0.  1.
         13    1    3    3    0    0 -0.41042199260E+02 -0.14064898983E+02  0.33575621527E+01  0.43515017260E+02  0.00000000000E+00 0. -1.
<mgrwt>
<rscale>  0 0.92540132E+02</rscale>
<asrwt>0</asrwt>
<pdfrwt beam="2">  1        2 0.45845960E-02 0.92540132E+02</pdfrwt>
<pdfrwt beam="1">  1       -2 0.11052804E-01 0.92540132E+02</pdfrwt>
<totfact> 0.84490159E+04</totfact>
</mgrwt>
</event>
<event>
 5    1  0.1270834E+001  0.8553595E+02  0.7546771E-02  0.1314037E+00
         -1   -1    0    0    0  501 -0.00000000000E+00  0.00000000000E+00  0.21512761026E+02  0.21512761026E+02  0.00000000000E+00 0.  1.
          1   -1    0    0  501    0  0.00000000000E+00 -0.00000000000E+00 -0.85023931872E+02  0.85023931872E+02  0.00000000000E+00 0. -1.
         23    2    1    2    0    0  0.00000000000E+00  0.00000000000E+00 -0.63511170846E+02  0.10653669290E+03  0.85535946311E+02 0.  0.
        -13    1    3    3    0    0  0.42399294046E+02 -0.43663167600E+00 -0.24797516937E+02  0.49120338243E+02  0.00000000000E+00 0.  1.
         13    1    3    3    0    0 -0.42399294046E+02  0.43663167600E+00 -0.38713653909E+02  0.57416354655E+02  0.00000000000E+00 0. -1.
<mgrwt>
<rscale>  0 0.85535946E+02</rscale>
<asrwt>0</asrwt>
<pdfrwt beam="2">  1        1 0.13080605E-01 0.85535946E+02</pdfrwt>
<pdfrwt beam="1">  1       -1 0.33096555E-02 0.85535946E+02</pdfrwt>
<totfact> 0.12106519E+05</totfact>
</mgrwt>
</event>
<event>
 5    1  0.1270834E+001  0.9825707E+02  0.7546771E-02  0.1284004E+00
         -2   -1    0    0    0  501 -0.00000000000E+00  0.00000000000E+00  0.22132261305E+02  0.22132261305E+02  0.00000000000E+00 0.  1.
          2   -1    0    0  501    0  0.00000000000E+00 -0.00000000000E+00 -0.10905406152E+03  0.10905406152E+03  0.00000000000E+00 0. -1.
         23    2    1    2    0    0  0.00000000000E+00  0.00000000000E+00 -0.86921800215E+02  0.13118632283E+03  0.98257070706E+02 0.  0.
        -13    1    3    3    0    0 -0.28701335457E+02  0.22296806188E+02  0.67327075062E+00  0.36350619207E+02  0.00000000000E+00 0.  1.
         13    1    3    3    0    0  0.28701335457E+02 -0.22296806188E+02 -0.87595070966E+02  0.94835703618E+02  0.00000000000E+00 0. -1.
<mgrwt>
<rscale>  0 0.98257071E+02</rscale>
<asrwt>0</asrwt>
<pdfrwt beam="2">  1        2 0.16777548E-01 0.98257071E+02</pdfrwt>
<pdfrwt beam="1">  1       -2 0.34049633E-02 0.98257071E+02</pdfrwt>
<totfact> 0.10249393E+05</totfact>
</mgrwt>
</event>
<event>
 5    1  0.1270834E+001  0.9067366E+02  0.7546771E-02  0.1301228E+00
          1   -1    0    0  501    0  0.00000000000E+00  0.00000000000E+00  0.56980749878E+02  0.56980749878E+02  0.00000000000E+00 0. -1.
         -1   -1    0    0    0  501 -0.00000000000E+00 -0.00000000000E+00 -0.36072325189E+02  0.36072325189E+02  0.00000000000E+00 0.  1.
         23    2    1    2    0    0  0.00000000000E+00  0.00000000000E+00  0.20908424689E+02  0.93053075068E+02  0.90673659663E+02 0.  0.
        -13    1    3    3    0    0 -0.32165660319E+02 -0.11515981279E+02  0.41038630939E+02  0.53398658766E+02  0.00000000000E+00 0. -1.
         13    1    3    3    0    0  0.32165660319E+02  0.11515981279E+02 -0.20130206250E+02  0.39654416302E+02  0.00000000000E+00 0.  1.
<mgrwt>
<rscale>  0 0.90673660E+02</rscale>
<asrwt>0</asrwt>
<pdfrwt beam="1">  1        1 0.87662692E-02 0.90673660E+02</pdfrwt>
<pdfrwt beam="2">  1       -1 0.55495885E-02 0.90673660E+02</pdfrwt>
<totfact> 0.97103824E+04</totfact>
</mgrwt>
</event>
<event>
 5    1  0.1270834E+001  0.9114355E+02  0.7546771E-02  0.1300106E+00
          2   -1    0    0  501    0  0.00000000000E+00  0.00000000000E+00  0.81574556526E+01  0.81574556526E+01  0.00000000000E+00 0. -1.
         -2   -1    0    0    0  501 -0.00000000000E+00 -0.00000000000E+00 -0.25458756930E+03  0.25458756930E+03  0.00000000000E+00 0.  1.
         23    2    1    2    0    0  0.00000000000E+00  0.00000000000E+00 -0.24643011365E+03  0.26274502495E+03  0.91143552844E+02 0.  0.
        -13    1    3    3    0    0  0.12462314939E+02  0.38323627868E+02 -0.61874070457E+02  0.73840438389E+02  0.00000000000E+00 0. -1.
         13    1    3    3    0    0 -0.12462314939E+02 -0.38323627868E+02 -0.18455604319E+03  0.18890458656E+03  0.00000000000E+00 0.  1.
<mgrwt>
<rscale>  0 0.91143553E+02</rscale>
<asrwt>0</asrwt>
<pdfrwt beam="1">  1        2 0.12549932E-02 0.91143553E+02</pdfrwt>
<pdfrwt beam="2">  1       -2 0.39167319E-01 0.91143553E+02</pdfrwt>
<totfact> 0.55718814E+04</totfact>
</mgrwt>
</event>
<event>
 5    1  0.1270834E+001  0.9427938E+02  0.7546771E-02  0.1292807E+00
          2   -1    0    0  501    0  0.00000000000E+00  0.00000000000E+00  0.16645376259E+03  0.16645376259E+03  0.00000000000E+00 0.  1.
         -2   -1    0    0    0  501 -0.00000000000E+00 -0.00000000000E+00 -0.13349954851E+02  0.13349954851E+02  0.00000000000E+00 0. -1.
         23    2    1    2    0    0  0.00000000000E+00  0.00000000000E+00  0.15310380774E+03  0.17980371744E+03  0.94279376651E+02 0.  0.
        -11    1    3    3    0    0 -0.31396941931E+00 -0.42931306374E+02  0.11367767982E+03  0.12151465151E+03  0.00000000000E+00 0.  1.
         11    1    3    3    0    0  0.31396941931E+00  0.42931306374E+02  0.39426127920E+02  0.58289065926E+02  0.00000000000E+00 0. -1.
<mgrwt>
<rscale>  0 0.94279377E+02</rscale>
<asrwt>0</asrwt>
<pdfrwt beam="1">  1        2 0.25608270E-01 0.94279377E+02</pdfrwt>
<pdfrwt beam="2">  1       -2 0.20538393E-02 0.94279377E+02</pdfrwt>
<totfact> 0.13233138E+05</totfact>
</mgrwt>
</event>
<event>
 5    1  0.1270834E+001  0.9471368E+02  0.7546771E-02  0.1291822E+00
          2   -1    0    0  501    0  0.00000000000E+00  0.00000000000E+00  0.88340024299E+02  0.88340024299E+02  0.00000000000E+00 0.  1.
         -2   -1    0    0    0  501 -0.00000000000E+00 -0.00000000000E+00 -0.25386795560E+02  0.25386795560E+02  0.00000000000E+00 0. -1.
         23    2    1    2    0    0  0.00000000000E+00  0.00000000000E+00  0.62953228739E+02  0.11372681986E+03  0.94713676661E+02 0.  0.
        -11    1    3    3    0    0  0.35408252842E+02 -0.30410975492E+02  0.21863290353E+02  0.51541975755E+02  0.00000000000E+00 0. -1.
         11    1    3    3    0    0 -0.35408252842E+02  0.30410975492E+02  0.41089938386E+02  0.62184844104E+02  0.00000000000E+00 0.  1.
<mgrwt>
<rscale>  0 0.94713677E+02</rscale>
<asrwt>0</asrwt>
<pdfrwt beam="1">  1        2 0.13590773E-01 0.94713677E+02</pdfrwt>
<pdfrwt beam="2">  1       -2 0.39056609E-02 0.94713677E+02</pdfrwt>
<totfact> 0.10634992E+05</totfact>
</mgrwt>
</event>
<event>
 5    1  0.1270834E+001  0.9290633E+02  0.7546771E-02  0.1295962E+00
          1   -1    0    0  501    0  0.00000000000E+00  0.00000000000E+00  0.20177472255E+02  0.20177472255E+02  0.00000000000E+00 0. -1.
         -1   -1    0    0    0  501 -0.00000000000E+00 -0.00000000000E+00 -0.10694582028E+03  0.10694582028E+03  0.00000000000E+00 0.  1.
         23    2    1    2    0    0  0.00000000000E+00  0.00000000000E+00 -0.86768348024E+02  0.12712329253E+03  0.92906325328E+02 0.  0.
        -13    1    3    3    0    0  0.28285749384E+02 -0.35444886529E+02 -0.29600832862E+02  0.54153789390E+02  0.00000000000E+00 0. -1.
         13    1    3    3    0    0 -0.28285749384E+02  0.35444886529E+02 -0.57167515162E+02  0.72969503144E+02  0.00000000000E+00 0.  1.
<mgrwt>
<rscale>  0 0.92906325E+02</rscale>
<asrwt>0</asrwt>
<pdfrwt beam="1">  1        1 0.31042265E-02 0.92906325E+02</pdfrwt>
<pdfrwt beam="2">  1       -1 0.16453203E-01 0.92906325E+02</pdfrwt>
<totfact> 0.76538371E+04</totfact>
</mgrwt>
</event>
<event>
 5    1  0.1270834E+001  0.8943161E+02  0.7546771E-02  0.1304234E+00
         -2   -1    0    0    0  501 -0.00000000000E+00  0.00000000000E+00  0.50536717976E+02  0.50536717976E+02  0.00000000000E+00 0. -1.
          2   -1    0    0  501    0  0.00000000000E+00 -0.00000000000E+00 -0.39565359945E+02  0.39565359945E+02  0.00000000000E+00 0.  1.
         23    2    1    2    0    0  0.00000000000E+00  0.00000000000E+00  0.10971358031E+02  0.90102077920E+02  0.89431614927E+02 0.  0.
        -13    1    3    3    0    0 -0.14153400965E+02 -0.70239224703E+01 -0.36659125537E+02  0.39919240110E+02  0.00000000000E+00 0.  1.
         13    1    3    3    0    0  0.14153400965E+02  0.70239224703E+01  0.47630483569E+02  0.50182837811E+02  0.00000000000E+00 0. -1.
<mgrwt>
<rscale>  0 0.89431615E+02</rscale>
<asrwt>0</asrwt>
<pdfrwt beam="2">  1        2 0.60869785E-02 0.89431615E+02</pdfrwt>
<pdfrwt beam="1">  1       -2 0.77748797E-02 0.89431615E+02</pdfrwt>
<totfact> 0.10058427E+05</totfact>
</mgrwt>
</event>
<event>
 5    1  0.1270834E+001  0.9049491E+02  0.7546771E-02  0.1301658E+00
          1   -1    0    0  501    0  0.00000000000E+00  0.00000000000E+00  0.18541608550E+03  0.18541608550E+03  0.00000000000E+00 0. -1.
         -1   -1    0    0    0  501 -0.00000000000E+00 -0.00000000000E+00 -0.11041825489E+02  0.11041825489E+02  0.00000000000E+00 0.  1.
         23    2    1    2    0    0  0.00000000000E+00  0.00000000000E+00  0.17437426001E+03  0.19645791099E+03  0.90494907236E+02 0.  0.
        -11    1    3    3    0    0 -0.32782381677E+01  0.31104084177E+02  0.15817086470E+03  0.16123347462E+03  0.00000000000E+00 0. -1.
         11    1    3    3    0    0  0.32782381677E+01 -0.31104084177E+02  0.16203395312E+02  0.35224436370E+02  0.00000000000E+00 0.  1.
<mgrwt>
<rscale>  0 0.90494907E+02</rscale>
<asrwt>0</asrwt>
<pdfrwt beam="1">  1        1 0.28525549E-01 0.90494907E+02</pdfrwt>
<pdfrwt beam="2">  1       -1 0.16987425E-02 0.90494907E+02</pdfrwt>
<totfact> 0.11906185E+05</totfact>
</mgrwt>
</event>
<event>
 5    1  0.1270834E+001  0.9192744E+02  0.7546771E-02  0.1298250E+00
         -1   -1    0    0    0  501 -0.00000000000E+00  0.00000000000E+00  0.15439926678E+02  0.15439926678E+02  0.00000000000E+00 0. -1.
          1   -1    0    0  501    0  0.00000000000E+00 -0.00000000000E+00 -0.13683120174E+03  0.13683120174E+03  0.00000000000E+00 0.  1.
         23    2    1    2    0    0  0.00000000000E+00  0.00000000000E+00 -0.12139127507E+03  0.15227112842E+03  0.91927443610E+02 0.  0.
        -13    1    3    3    0    0 -0.30918880980E+02 -0.32556239253E+01 -0.11677218389E+03  0.12084005635E+03  0.00000000000E+00 0.  1.
         13    1    3    3    0    0  0.30918880980E+02  0.32556239253E+01 -0.46190911742E+01  0.31431072070E+02  0.00000000000E+00 0. -1.
<mgrwt>
<rscale>  0 0.91927444E+02</rscale>
<asrwt>0</asrwt>
<pdfrwt beam="2">  1        1 0.21050954E-01 0.91927444E+02</pdfrwt>
<pdfrwt beam="1">  1       -1 0.23753734E-02 0.91927444E+02</pdfrwt>
<totfact> 0.10785269E+05</totfact>
</mgrwt>
</event>
<event>
 5    1  0.1270834E+001  0.9177499E+02  0.7546771E-02  0.1298609E+00
         -2   -1    0    0    0  501 -0.00000000000E+00  0.00000000000E+00  0.23555884159E+02  0.23555884159E+02  0.00000000000E+00 0.  1.
          2   -1    0    0  501    0  0.00000000000E+00 -0.00000000000E+00 -0.89390081290E+02  0.89390081290E+02  0.00000000000E+00 0. -1.
         23    2    1    2    0    0  0.00000000000E+00  0.00000000000E+00 -0.65834197131E+02  0.11294596545E+03  0.91774994412E+02 0.  0.
        -11    1    3    3    0    0 -0.19692873796E+02  0.20285779710E+02  0.11563898294E+02  0.30545799720E+02  0.00000000000E+00 0.  1.
         11    1    3    3    0    0  0.19692873796E+02 -0.20285779710E+02 -0.77398095424E+02  0.82400165729E+02  0.00000000000E+00 0. -1.
<mgrwt>
<rscale>  0 0.91774994E+02</rscale>
<asrwt>0</asrwt>
<pdfrwt beam="2">  1        2 0.13752320E-01 0.91774994E+02</pdfrwt>
<pdfrwt beam="1">  1       -2 0.36239822E-02 0.91774994E+02</pdfrwt>
<totfact> 0.11649088E+05</totfact>
</mgrwt>
</event>
<event>
 5    1  0.1270834E+001  0.9043582E+02  0.7546771E-02  0.1301800E+00
         -2   -1    0    0    0  501 -0.00000000000E+00  0.00000000000E+00  0.54325619550E+02  0.54325619550E+02  0.00000000000E+00 0.  1.
          2   -1    0    0  501    0  0.00000000000E+00 -0.00000000000E+00 -0.37637109744E+02  0.37637109744E+02  0.00000000000E+00 0. -1.
         23    2    1    2    0    0  0.00000000000E+00  0.00000000000E+00  0.16688509806E+02  0.91962729294E+02  0.90435818234E+02 0.  0.
        -13    1    3    3    0    0 -0.35619967073E+02 -0.23402600900E+02  0.23705447637E+02  0.48768965858E+02  0.00000000000E+00 0.  1.
         13    1    3    3    0    0  0.35619967073E+02  0.23402600900E+02 -0.70169378310E+01  0.43193763435E+02  0.00000000000E+00 0. -1.
<mgrwt>
<rscale>  0 0.90435818E+02</rscale>
<asrwt>0</asrwt>
<pdfrwt beam="2">  1        2 0.57903246E-02 0.90435818E+02</pdfrwt>
<pdfrwt beam="1">  1       -2 0.83577877E-02 0.90435818E+02</pdfrwt>
<totfact> 0.96148695E+04</totfact>
</mgrwt>
</event>
<event>
 5    1  0.1270834E+001  0.9017941E+02  0.7546771E-02  0.1302418E+00
         -2   -1    0    0    0  501 -0.00000000000E+00  0.00000000000E+00  0.32018841481E+02  0.32018841481E+02  0.00000000000E+00 0.  1.
          2   -1    0    0  501    0  0.00000000000E+00 -0.00000000000E+00 -0.63496409846E+02  0.63496409846E+02  0.00000000000E+00 0. -1.
         23    2    1    2    0    0  0.00000000000E+00  0.00000000000E+00 -0.31477568365E+02  0.95515251328E+02  0.90179409657E+02 0.  0.
        -13    1    3    3    0    0 -0.15147779420E+00 -0.36270318172E+02 -0.44110337505E+02  0.57107624716E+02  0.00000000000E+00 0. -1.
         13    1    3    3    0    0  0.15147779420E+00  0.36270318172E+02  0.12632769140E+02  0.38407626612E+02  0.00000000000E+00 0.  1.
<mgrwt>
<rscale>  0 0.90179410E+02</rscale>
<asrwt>0</asrwt>
<pdfrwt beam="2">  1        2 0.97686783E-02 0.90179410E+02</pdfrwt>
<pdfrwt beam="1">  1       -2 0.49259757E-02 0.90179410E+02</pdfrwt>
<totfact> 0.11107994E+05</totfact>
</mgrwt>
</event>
<event>
 5    1  0.1270834E+001  0.9046857E+02  0.7546771E-02  0.1301721E+00
         -4   -1    0    0    0  501 -0.00000000000E+00  0.00000000000E+00  0.32217337200E+03  0.32217337200E+03  0.00000000000E+00 0.  1.
          4   -1    0    0  501    0  0.00000000000E+00 -0.00000000000E+00 -0.63510543461E+01  0.63510543461E+01  0.00000000000E+00 0. -1.
         23    2    1    2    0    0  0.00000000000E+00  0.00000000000E+00  0.31582231766E+03  0.32852442635E+03  0.90468571216E+02 0.  0.
        -13    1    3    3    0    0 -0.23292190860E+02 -0.36346579619E+02  0.10884866060E+03  0.11709667340E+03  0.00000000000E+00 0. -1.
         13    1    3    3    0    0  0.23292190860E+02  0.36346579619E+02  0.20697365705E+03  0.21142775295E+03  0.00000000000E+00 0.  1.
<mgrwt>
<rscale>  0 0.90468571E+02</rscale>
<asrwt>0</asrwt>
<pdfrwt beam="2">  1        4 0.97708553E-03 0.90468571E+02</pdfrwt>
<pdfrwt beam="1">  1       -4 0.49565122E-01 0.90468571E+02</pdfrwt>
<totfact> 0.17338729E+04</totfact>
</mgrwt>
</event>
<event>
 5    1  0.1270834E+001  0.9165889E+02  0.7546771E-02  0.1298883E+00
         -1   -1    0    0    0  501 -0.00000000000E+00  0.00000000000E+00  0.20647347034E+02  0.20647347034E+02  0.00000000000E+00 0.  1.
          1   -1    0    0  501    0  0.00000000000E+00 -0.00000000000E+00 -0.10172435258E+03  0.10172435258E+03  0.00000000000E+00 0. -1.
         23    2    1    2    0    0  0.00000000000E+00  0.00000000000E+00 -0.81077005551E+02  0.12237169962E+03  0.91658889577E+02 0.  0.
        -11    1    3    3    0    0  0.20201433931E+02  0.32550814855E+02 -0.69570092112E+01  0.38936531147E+02  0.00000000000E+00 0.  1.
         11    1    3    3    0    0 -0.20201433931E+02 -0.32550814855E+02 -0.74119996339E+02  0.83435168472E+02  0.00000000000E+00 0. -1.
<mgrwt>
<rscale>  0 0.91658890E+02</rscale>
<asrwt>0</asrwt>
<pdfrwt beam="2">  1        1 0.15649900E-01 0.91658890E+02</pdfrwt>
<pdfrwt beam="1">  1       -1 0.31765149E-02 0.91658890E+02</pdfrwt>
<totfact> 0.10325351E+05</totfact>
</mgrwt>
</event>
<event>
 5    1  0.1270834E+001  0.9054741E+02  0.7546771E-02  0.1301531E+00
          2   -1    0    0  501    0  0.00000000000E+00  0.00000000000E+00  0.19213600487E+03  0.19213600487E+03  0.00000000000E+00 0. -1.
         -2   -1    0    0    0  501 -0.00000000000E+00 -0.00000000000E+00 -0.10668007558E+02  0.10668007558E+02  0.00000000000E+00 0.  1.
         23    2    1    2    0    0  0.00000000000E+00  0.00000000000E+00  0.18146799731E+03  0.20280401243E+03  0.90547409729E+02 0.  0.
        -11    1    3    3    0    0  0.34274166556E+02 -0.17644191486E+02  0.37558216808E+02  0.53820587475E+02  0.00000000000E+00 0.  1.
         11    1    3    3    0    0 -0.34274166556E+02  0.17644191486E+02  0.14390978050E+03  0.14898342495E+03  0.00000000000E+00 0. -1.
<mgrwt>
<rscale>  0 0.90547410E+02</rscale>
<asrwt>0</asrwt>
<pdfrwt beam="1">  1        2 0.29559383E-01 0.90547410E+02</pdfrwt>
<pdfrwt beam="2">  1       -2 0.16412321E-02 0.90547410E+02</pdfrwt>
<totfact> 0.15532968E+05</totfact>
</mgrwt>
</event>
<event>
 4    1  0.1270834E+001  0.1357785E+03  0.7546771E-02  0.1219125E+00
          1   -1    0    0  501    0  0.00000000000E+00  0.00000000000E+00  0.76690427599E+02  0.76690427599E+02  0.00000000000E+00 0. -1.
         -1   -1    0    0    0  501 -0.00000000000E+00 -0.00000000000E+00 -0.60098151065E+02  0.60098151065E+02  0.00000000000E+00 0.  1.
        -13    1    1    2    0    0  0.26238307313E+02 -0.58276998146E+02 -0.14771695906E+02  0.65596191074E+02  0.00000000000E+00 0.  1.
         13    1    1    2    0    0 -0.26238307313E+02  0.58276998146E+02  0.31363972439E+02  0.71192387590E+02  0.00000000000E+00 0. -1.
<mgrwt>
<rscale>  0 0.13577854E+03</rscale>
<asrwt>0</asrwt>
<pdfrwt beam="1">  1        1 0.11798527E-01 0.13577854E+03</pdfrwt>
<pdfrwt beam="2">  1       -1 0.92458694E-02 0.13577854E+03</pdfrwt>
<totfact> 0.32373780E+04</totfact>
</mgrwt>
</event>
<event>
 5    1  0.1270834E+001  0.8989616E+02  0.7546771E-02  0.1303103E+00
         -1   -1    0    0    0  501 -0.00000000000E+00  0.00000000000E+00  0.14829433532E+03  0.14829433532E+03  0.00000000000E+00 0.  1.
          1   -1    0    0  501    0  0.00000000000E+00 -0.00000000000E+00 -0.13623784550E+02  0.13623784550E+02  0.00000000000E+00 0. -1.
         23    2    1    2    0    0  0.00000000000E+00  0.00000000000E+00  0.13467055077E+03  0.16191811988E+03  0.89896163979E+02 0.  0.
        -11    1    3    3    0    0  0.17574466287E+02  0.31896839935E+02  0.19883469927E+02  0.41492440751E+02  0.00000000000E+00 0. -1.
         11    1    3    3    0    0 -0.17574466287E+02 -0.31896839935E+02  0.11478708085E+03  0.12042567912E+03  0.00000000000E+00 0.  1.
<mgrwt>
<rscale>  0 0.89896164E+02</rscale>
<asrwt>0</asrwt>
<pdfrwt beam="2">  1        1 0.20959669E-02 0.89896164E+02</pdfrwt>
<pdfrwt beam="1">  1       -1 0.22814512E-01 0.89896164E+02</pdfrwt>
<totfact> 0.77789079E+04</totfact>
</mgrwt>
</event>
<event>
 5    1  0.1270834E+001  0.9413868E+02  0.7546771E-02  0.1293128E+00
          1   -1    0    0  501    0  0.00000000000E+00  0.00000000000E+00  0.10434547381E+03  0.10434547381E+03  0.00000000000E+00 0. -1.
         -1   -1    0    0    0  501 -0.00000000000E+00 -0.00000000000E+00 -0.21232570050E+02  0.21232570050E+02  0.00000000000E+00 0.  1.
         23    2    1    2    0    0  0.00000000000E+00  0.00000000000E+00  0.83112903757E+02  0.12557804386E+03  0.94138676047E+02 0.  0.
        -13    1    3    3    0    0 -0.30557040785E+02 -0.18070164620E+01 -0.61415471431E+01  0.31220452453E+02  0.00000000000E+00 0.  1.
         13    1    3    3    0    0  0.30557040785E+02  0.18070164620E+01  0.89254450900E+02  0.94357591404E+02  0.00000000000E+00 0. -1.
<mgrwt>
<rscale>  0 0.94138676E+02</rscale>
<asrwt>0</asrwt>
<pdfrwt beam="1">  1        1 0.16053149E-01 0.94138676E+02</pdfrwt>
<pdfrwt beam="2">  1       -1 0.32665493E-02 0.94138676E+02</pdfrwt>
<totfact> 0.96403112E+04</totfact>
</mgrwt>
</event>
<event>
 5    1  0.1270834E+001  0.9029536E+02  0.7546771E-02  0.1302138E+00
         -4   -1    0    0    0  501 -0.00000000000E+00  0.00000000000E+00  0.11074553965E+03  0.11074553965E+03  0.00000000000E+00 0.  1.
          4   -1    0    0  501    0  0.00000000000E+00 -0.00000000000E+00 -0.18405373502E+02  0.18405373502E+02  0.00000000000E+00 0. -1.
         23    2    1    2    0    0  0.00000000000E+00  0.00000000000E+00  0.92340166147E+02  0.12915091315E+03  0.90295360256E+02 0.  0.
        -11    1    3    3    0    0 -0.33534708689E+02  0.14899752638E+02  0.85515795735E+01  0.37679023724E+02  0.00000000000E+00 0. -1.
         11    1    3    3    0    0  0.33534708689E+02 -0.14899752638E+02  0.83788586574E+02  0.91471889428E+02  0.00000000000E+00 0.  1.
<mgrwt>
<rscale>  0 0.90295360E+02</rscale>
<asrwt>0</asrwt>
<pdfrwt beam="2">  1        4 0.28315960E-02 0.90295360E+02</pdfrwt>
<pdfrwt beam="1">  1       -4 0.17037775E-01 0.90295360E+02</pdfrwt>
<totfact> 0.25420277E+04</totfact>
</mgrwt>
</event>
<event>
 5    1  0.1270834E+001  0.9080906E+02  0.7546771E-02  0.1300904E+00
          2   -1    0    0  501    0  0.00000000000E+00  0.00000000000E+00  0.25457336452E+03  0.25457336452E+03  0.00000000000E+00 0.  1.
         -2   -1    0    0    0  501 -0.00000000000E+00 -0.00000000000E+00 -0.80981426768E+01  0.80981426768E+01  0.00000000000E+00 0. -1.
         23    2    1    2    0    0  0.00000000000E+00  0.00000000000E+00  0.24647522184E+03  0.26267150720E+03  0.90809061830E+02 0.  0.
        -13    1    3    3    0    0 -0.38623425885E+02 -0.20058817749E+02  0.16066775212E+03  0.16645795796E+03  0.00000000000E+00 0.  1.
         13    1    3    3    0    0  0.38623425885E+02  0.20058817749E+02  0.85807469718E+02  0.96213549233E+02  0.00000000000E+00 0. -1.
<mgrwt>
<rscale>  0 0.90809062E+02</rscale>
<asrwt>0</asrwt>
<pdfrwt beam="1">  1        2 0.39165127E-01 0.90809062E+02</pdfrwt>
<pdfrwt beam="2">  1       -2 0.12458683E-02 0.90809062E+02</pdfrwt>
<totfact> 0.17082860E+05</totfact>
</mgrwt>
</event>
<event>
 5    1  0.1270834E+001  0.9152680E+02  0.7546771E-02  0.1299196E+00
          1   -1    0    0  501    0  0.00000000000E+00  0.00000000000E+00  0.98149162891E+01  0.98149162891E+01  0.00000000000E+00 0. -1.
         -1   -1    0    0    0  501 -0.00000000000E+00 -0.00000000000E+00 -0.21337814571E+03  0.21337814571E+03  0.00000000000E+00 0.  1.
         23    2    1    2    0    0  0.00000000000E+00  0.00000000000E+00 -0.20356322943E+03  0.22319306200E+03  0.91526796909E+02 0.  0.
        -13    1    3    3    0    0  0.15368796249E+02  0.41761523766E+02 -0.12782554251E+03  0.13534989503E+03  0.00000000000E+00 0.  1.
         13    1    3    3    0    0 -0.15368796249E+02 -0.41761523766E+02 -0.75737686914E+02  0.87843166977E+02  0.00000000000E+00 0. -1.
<mgrwt>
<rscale>  0 0.91526797E+02</rscale>
<asrwt>0</asrwt>
<pdfrwt beam="1">  1        1 0.15099871E-02 0.91526797E+02</pdfrwt>
<pdfrwt beam="2">  1       -1 0.32827407E-01 0.91526797E+02</pdfrwt>
<totfact> 0.67442415E+04</totfact>
</mgrwt>
</event>
<event>
 5    1  0.1270834E+001  0.9892046E+02  0.7546771E-02  0.1282583E+00
         -2   -1    0    0    0  501 -0.00000000000E+00  0.00000000000E+00  0.11893141788E+02  0.11893141788E+02  0.00000000000E+00 0.  1.
          2   -1    0    0  501    0  0.00000000000E+00 -0.00000000000E+00 -0.20569119515E+03  0.20569119515E+03  0.00000000000E+00 0. -1.
         23    2    1    2    0    0  0.00000000000E+00  0.00000000000E+00 -0.19379805336E+03  0.21758433693E+03  0.98920463978E+02 0.  0.
        -11    1    3    3    0    0 -0.34617649371E+02 -0.92315477809E+01 -0.21896230540E+02  0.41988665545E+02  0.00000000000E+00 0.  1.
         11    1    3    3    0    0  0.34617649371E+02  0.92315477809E+01 -0.17190182282E+03  0.17559567139E+03  0.00000000000E+00 0. -1.
<mgrwt>
<rscale>  0 0.98920464E+02</rscale>
<asrwt>0</asrwt>
<pdfrwt beam="2">  1        2 0.31644794E-01 0.98920464E+02</pdfrwt>
<pdfrwt beam="1">  1       -2 0.18297144E-02 0.98920464E+02</pdfrwt>
<totfact> 0.12533708E+05</totfact>
</mgrwt>
</event>
<event>
 5    1  0.1270834E+001  0.9216750E+02  0.7546771E-02  0.1297686E+00
          1   -1    0    0  501    0  0.00000000000E+00  0.00000000000E+00  0.69144002605E+02  0.69144002605E+02  0.00000000000E+00 0. -1.
         -1   -1    0    0    0  501 -0.00000000000E+00 -0.00000000000E+00 -0.30714336371E+02  0.30714336371E+02  0.00000000000E+00 0.  1.
         23    2    1    2    0    0  0.00000000000E+00  0.00000000000E+00  0.38429666234E+02  0.99858338976E+02  0.92167503037E+02 0.  0.
        -11    1    3    3    0    0 -0.47279003125E+01 -0.44211614749E+02  0.32337136585E+02  0.54979180811E+02  0.00000000000E+00 0. -1.
         11    1    3    3    0    0  0.47279003125E+01  0.44211614749E+02  0.60925296499E+01  0.44879158165E+02  0.00000000000E+00 0.  1.
<mgrwt>
<rscale>  0 0.92167503E+02</rscale>
<asrwt>0</asrwt>
<pdfrwt beam="1">  1        1 0.10637539E-01 0.92167503E+02</pdfrwt>
<pdfrwt beam="2">  1       -1 0.47252825E-02 0.92167503E+02</pdfrwt>
<totfact> 0.95581953E+04</totfact>
</mgrwt>
</event>
<event>
 5    1  0.1270834E+001  0.8910761E+02  0.7546771E-02  0.1305027E+00
         -1   -1    0    0    0  501 -0.00000000000E+00  0.00000000000E+00  0.50671847845E+01  0.50671847845E+01  0.00000000000E+00 0.  1.
          1   -1    0    0  501    0  0.00000000000E+00 -0.00000000000E+00 -0.39174443530E+03  0.39174443530E+03  0.00000000000E+00 0. -1.
         23    2    1    2    0    0  0.00000000000E+00  0.00000000000E+00 -0.38667725051E+03  0.39681162008E+03  0.89107607800E+02 0.  0.
        -13    1    3    3    0    0 -0.39938224024E+02  0.14870239984E+02 -0.25120515207E+03  0.25479445481E+03  0.00000000000E+00 0. -1.
         13    1    3    3    0    0  0.39938224024E+02 -0.14870239984E+02 -0.13547209844E+03  0.14201716527E+03  0.00000000000E+00 0.  1.
<mgrwt>
<rscale>  0 0.89107608E+02</rscale>
<asrwt>0</asrwt>
<pdfrwt beam="2">  1        1 0.60268370E-01 0.89107608E+02</pdfrwt>
<pdfrwt beam="1">  1       -1 0.77956695E-03 0.89107608E+02</pdfrwt>
<totfact> 0.14286454E+05</totfact>
</mgrwt>
</event>
<event>
 5    1  0.1270834E+001  0.9088778E+02  0.7546771E-02  0.1300716E+00
         -3   -1    0    0    0  501 -0.00000000000E+00  0.00000000000E+00  0.34989594671E+03  0.34989594671E+03  0.00000000000E+00 0.  1.
          3   -1    0    0  501    0  0.00000000000E+00 -0.00000000000E+00 -0.59021751078E+01  0.59021751078E+01  0.00000000000E+00 0. -1.
         23    2    1    2    0    0  0.00000000000E+00  0.00000000000E+00  0.34399377160E+03  0.35579812182E+03  0.90887780190E+02 0.  0.
        -11    1    3    3    0    0 -0.34362995172E+02  0.27370055343E+02  0.21751721774E+03  0.22190916020E+03  0.00000000000E+00 0.  1.
         11    1    3    3    0    0  0.34362995172E+02 -0.27370055343E+02  0.12647655386E+03  0.13388896162E+03  0.00000000000E+00 0. -1.
<mgrwt>
<rscale>  0 0.90887780E+02</rscale>
<asrwt>0</asrwt>
<pdfrwt beam="2">  1        3 0.90802721E-03 0.90887780E+02</pdfrwt>
<pdfrwt beam="1">  1       -3 0.53830130E-01 0.90887780E+02</pdfrwt>
<totfact> 0.22197719E+04</totfact>
</mgrwt>
</event>
<event>
 5    1  0.1270834E+001  0.9113196E+02  0.7546771E-02  0.1300133E+00
         -1   -1    0    0    0  501 -0.00000000000E+00  0.00000000000E+00  0.11566207957E+02  0.11566207957E+02  0.00000000000E+00 0.  1.
          1   -1    0    0  501    0  0.00000000000E+00 -0.00000000000E+00 -0.17951072188E+03  0.17951072188E+03  0.00000000000E+00 0. -1.
         23    2    1    2    0    0  0.00000000000E+00  0.00000000000E+00 -0.16794451392E+03  0.19107692984E+03  0.91131955752E+02 0.  0.
        -13    1    3    3    0    0  0.24213576119E+02  0.36474251505E+02 -0.57484787606E+02  0.72257657708E+02  0.00000000000E+00 0.  1.
         13    1    3    3    0    0 -0.24213576119E+02 -0.36474251505E+02 -0.11045972632E+03  0.11881927213E+03  0.00000000000E+00 0. -1.
<mgrwt>
<rscale>  0 0.91131956E+02</rscale>
<asrwt>0</asrwt>
<pdfrwt beam="2">  1        1 0.27617030E-01 0.91131956E+02</pdfrwt>
<pdfrwt beam="1">  1       -1 0.17794169E-02 0.91131956E+02</pdfrwt>
<totfact> 0.11611944E+05</totfact>
</mgrwt>
</event>
<event>
 5    1  0.1270834E+001  0.9250750E+02  0.7546771E-02  0.1296891E+00
         -3   -1    0    0    0  501 -0.00000000000E+00  0.00000000000E+00  0.11976135913E+02  0.11976135913E+02  0.00000000000E+00 0.  1.
          3   -1    0    0  501    0  0.00000000000E+00 -0.00000000000E+00 -0.17863936298E+03  0.17863936298E+03  0.00000000000E+00 0. -1.
         23    2    1    2    0    0  0.00000000000E+00  0.00000000000E+00 -0.16666322707E+03  0.19061549889E+03  0.92507497867E+02 0.  0.
        -13    1    3    3    0    0 -0.42534768369E+02 -0.12004605380E+02 -0.55222614276E+02  0.70730857467E+02  0.00000000000E+00 0. -1.
         13    1    3    3    0    0  0.42534768369E+02  0.12004605380E+02 -0.11144061279E+03  0.11988464142E+03  0.00000000000E+00 0.  1.
<mgrwt>
<rscale>  0 0.92507498E+02</rscale>
<asrwt>0</asrwt>
<pdfrwt beam="2">  1        3 0.27482978E-01 0.92507498E+02</pdfrwt>
<pdfrwt beam="1">  1       -3 0.18424825E-02 0.92507498E+02</pdfrwt>
<totfact> 0.27876603E+04</totfact>
</mgrwt>
</event>
<event>
 5    1  0.1270834E+001  0.9120341E+02  0.7546771E-02  0.1299963E+00
         -2   -1    0    0    0  501 -0.00000000000E+00  0.00000000000E+00  0.13769753256E+03  0.13769753256E+03  0.00000000000E+00 0.  1.
          2   -1    0    0  501    0  0.00000000000E+00 -0.00000000000E+00 -0.15102054849E+02  0.15102054849E+02  0.00000000000E+00 0. -1.
         23    2    1    2    0    0  0.00000000000E+00  0.00000000000E+00  0.12259547771E+03  0.15279958741E+03  0.91203414175E+02 0.  0.
        -11    1    3    3    0    0 -0.50259122660E+01  0.32786189196E+02  0.88684734706E+01  0.34334295067E+02  0.00000000000E+00 0. -1.
         11    1    3    3    0    0  0.50259122660E+01 -0.32786189196E+02  0.11372700424E+03  0.11846529234E+03  0.00000000000E+00 0.  1.
<mgrwt>
<rscale>  0 0.91203414E+02</rscale>
<asrwt>0</asrwt>
<pdfrwt beam="2">  1        2 0.23233931E-02 0.91203414E+02</pdfrwt>
<pdfrwt beam="1">  1       -2 0.21184235E-01 0.91203414E+02</pdfrwt>
<totfact> 0.71962465E+04</totfact>
</mgrwt>
</event>
<event>
 5    1  0.1270834E+001  0.8481645E+02  0.7546771E-02  0.1315913E+00
          1   -1    0    0  501    0  0.00000000000E+00  0.00000000000E+00  0.64105870819E+02  0.64105870819E+02  0.00000000000E+00 0. -1.
         -1   -1    0    0    0  501 -0.00000000000E+00 -0.00000000000E+00 -0.28054490343E+02  0.28054490343E+02  0.00000000000E+00 0.  1.
         23    2    1    2    0    0  0.00000000000E+00  0.00000000000E+00  0.36051380475E+02  0.92160361162E+02  0.84816449674E+02 0.  0.
        -11    1    3    3    0    0 -0.61053280213E+01 -0.18293310465E+02 -0.23014148335E+02  0.30026176274E+02  0.00000000000E+00 0.  1.
         11    1    3    3    0    0  0.61053280213E+01  0.18293310465E+02  0.59065528811E+02  0.62134184888E+02  0.00000000000E+00 0. -1.
<mgrwt>
<rscale>  0 0.84816450E+02</rscale>
<asrwt>0</asrwt>
<pdfrwt beam="1">  1        1 0.98624416E-02 0.84816450E+02</pdfrwt>
<pdfrwt beam="2">  1       -1 0.43160755E-02 0.84816450E+02</pdfrwt>
<totfact> 0.11876267E+05</totfact>
</mgrwt>
</event>
<event>
 5    1  0.1270834E+001  0.8959594E+02  0.7546771E-02  0.1303833E+00
          1   -1    0    0  501    0  0.00000000000E+00  0.00000000000E+00  0.11232312502E+02  0.11232312502E+02  0.00000000000E+00 0. -1.
         -1   -1    0    0    0  501 -0.00000000000E+00 -0.00000000000E+00 -0.17866830167E+03  0.17866830167E+03  0.00000000000E+00 0.  1.
         23    2    1    2    0    0  0.00000000000E+00  0.00000000000E+00 -0.16743598916E+03  0.18990061417E+03  0.89595941841E+02 0.  0.
        -13    1    3    3    0    0  0.16036709337E+02  0.21635552866E+02 -0.78407172819E+01  0.28049064898E+02  0.00000000000E+00 0. -1.
         13    1    3    3    0    0 -0.16036709337E+02 -0.21635552866E+02 -0.15959527188E+03  0.16185154927E+03  0.00000000000E+00 0.  1.
<mgrwt>
<rscale>  0 0.89595942E+02</rscale>
<asrwt>0</asrwt>
<pdfrwt beam="1">  1        1 0.17280482E-02 0.89595942E+02</pdfrwt>
<pdfrwt beam="2">  1       -1 0.27487430E-01 0.89595942E+02</pdfrwt>
<totfact> 0.74939906E+04</totfact>
</mgrwt>
</event>
<event>
 5    1  0.1270834E+001  0.8930261E+02  0.7546771E-02  0.1304549E+00
          3   -1    0    0  501    0  0.00000000000E+00  0.00000000000E+00  0.19269085175E+02  0.19269085175E+02  0.00000000000E+00 0. -1.
         -3   -1    0    0    0  501 -0.00000000000E+00 -0.00000000000E+00 -0.10346827203E+03  0.10346827203E+03  0.00000000000E+00 0.  1.
         23    2    1    2    0    0  0.00000000000E+00  0.00000000000E+00 -0.84199186853E+02  0.12273735720E+03  0.89302607949E+02 0.  0.
        -11    1    3    3    0    0  0.35573274021E+02 -0.26650961893E+02 -0.36267324305E+02  0.57367677368E+02  0.00000000000E+00 0.  1.
         11    1    3    3    0    0 -0.35573274021E+02  0.26650961893E+02 -0.47931862549E+02  0.65369679835E+02  0.00000000000E+00 0. -1.
<mgrwt>
<rscale>  0 0.89302608E+02</rscale>
<asrwt>0</asrwt>
<pdfrwt beam="1">  1        3 0.29644747E-02 0.89302608E+02</pdfrwt>
<pdfrwt beam="2">  1       -3 0.15918196E-01 0.89302608E+02</pdfrwt>
<totfact> 0.34974756E+04</totfact>
</mgrwt>
</event>
<event>
 5    1  0.1270834E+001  0.8901636E+02  0.7546771E-02  0.1305251E+00
          2   -1    0    0  501    0  0.00000000000E+00  0.00000000000E+00  0.94223132199E+02  0.94223132199E+02  0.00000000000E+00 0. -1.
         -2   -1    0    0    0  501 -0.00000000000E+00 -0.00000000000E+00 -0.21024327356E+02  0.21024327356E+02  0.00000000000E+00 0.  1.
         23    2    1    2    0    0  0.00000000000E+00  0.00000000000E+00  0.73198804842E+02  0.11524745955E+03  0.89016357505E+02 0.  0.
        -11    1    3    3    0    0 -0.76727511799E+01  0.41405430787E+02  0.17940898098E+02  0.45772880987E+02  0.00000000000E+00 0.  1.
         11    1    3    3    0    0  0.76727511799E+01 -0.41405430787E+02  0.55257906745E+02  0.69474578567E+02  0.00000000000E+00 0. -1.
<mgrwt>
<rscale>  0 0.89016358E+02</rscale>
<asrwt>0</asrwt>
<pdfrwt beam="1">  1        2 0.14495866E-01 0.89016358E+02</pdfrwt>
<pdfrwt beam="2">  1       -2 0.32345120E-02 0.89016358E+02</pdfrwt>
<totfact> 0.12871297E+05</totfact>
</mgrwt>
</event>
<event>
 5    1  0.1270834E+001  0.9197598E+02  0.7546771E-02  0.1298136E+00
          2   -1    0    0  501    0  0.00000000000E+00  0.00000000000E+00  0.32329222414E+03  0.32329222414E+03  0.00000000000E+00 0. -1.
         -2   -1    0    0    0  501 -0.00000000000E+00 -0.00000000000E+00 -0.65417441765E+01  0.65417441765E+01  0.00000000000E+00 0.  1.
         23    2    1    2    0    0  0.00000000000E+00  0.00000000000E+00  0.31675047996E+03  0.32983396832E+03  0.91975975658E+02 0.  0.
        -11    1    3    3    0    0  0.22721218627E+02  0.37434543612E+02  0.20874621174E+03  0.21328989602E+03  0.00000000000E+00 0. -1.
         11    1    3    3    0    0 -0.22721218627E+02 -0.37434543612E+02  0.10800426823E+03  0.11654407229E+03  0.00000000000E+00 0.  1.
<mgrwt>
<rscale>  0 0.91975976E+02</rscale>
<asrwt>0</asrwt>
<pdfrwt beam="1">  1        2 0.49737253E-01 0.91975976E+02</pdfrwt>
<pdfrwt beam="2">  1       -2 0.10064224E-02 0.91975976E+02</pdfrwt>
<totfact> 0.18046877E+05</totfact>
</mgrwt>
</event>
<event>
 5    1  0.1270834E+001  0.9047678E+02  0.7546771E-02  0.1301701E+00
          1   -1    0    0  501    0  0.00000000000E+00  0.00000000000E+00  0.18485151492E+03  0.18485151492E+03  0.00000000000E+00 0. -1.
         -1   -1    0    0    0  501 -0.00000000000E+00 -0.00000000000E+00 -0.11071112054E+02  0.11071112054E+02  0.00000000000E+00 0.  1.
         23    2    1    2    0    0  0.00000000000E+00  0.00000000000E+00  0.17378040286E+03  0.19592262697E+03  0.90476777906E+02 0.  0.
        -11    1    3    3    0    0 -0.40140691108E+02  0.38261362990E+01  0.42480200891E+02  0.58570315599E+02  0.00000000000E+00 0.  1.
         11    1    3    3    0    0  0.40140691108E+02 -0.38261362990E+01  0.13130020197E+03  0.13735231137E+03  0.00000000000E+00 0. -1.
<mgrwt>
<rscale>  0 0.90476778E+02</rscale>
<asrwt>0</asrwt>
<pdfrwt beam="1">  1        1 0.28438692E-01 0.90476778E+02</pdfrwt>
<pdfrwt beam="2">  1       -1 0.17032481E-02 0.90476778E+02</pdfrwt>
<totfact> 0.11905620E+05</totfact>
</mgrwt>
</event>
<event>
 5    1  0.1270834E+001  0.9190412E+02  0.7546771E-02  0.1298305E+00
         -2   -1    0    0    0  501 -0.00000000000E+00  0.00000000000E+00  0.12340574457E+03  0.12340574457E+03  0.00000000000E+00 0. -1.
          2   -1    0    0  501    0  0.00000000000E+00 -0.00000000000E+00 -0.17110969624E+02  0.17110969624E+02  0.00000000000E+00 0.  1.
         23    2    1    2    0    0  0.00000000000E+00  0.00000000000E+00  0.10629477494E+03  0.14051671419E+03  0.91904122797E+02 0.  0.
        -11    1    3    3    0    0 -0.10086488906E+02 -0.37550043824E+02  0.15700655346E+02  0.41931535006E+02  0.00000000000E+00 0.  1.
         11    1    3    3    0    0  0.10086488906E+02  0.37550043824E+02  0.90594119596E+02  0.98585179185E+02  0.00000000000E+00 0. -1.
<mgrwt>
<rscale>  0 0.91904123E+02</rscale>
<asrwt>0</asrwt>
<pdfrwt beam="2">  1        2 0.26324569E-02 0.91904123E+02</pdfrwt>
<pdfrwt beam="1">  1       -2 0.18985499E-01 0.91904123E+02</pdfrwt>
<totfact> 0.73253442E+04</totfact>
</mgrwt>
</event>
<event>
 5    1  0.1270834E+001  0.8107518E+02  0.7546771E-02  0.1326028E+00
          4   -1    0    0  501    0  0.00000000000E+00  0.00000000000E+00  0.31592808211E+02  0.31592808211E+02  0.00000000000E+00 0. -1.
         -4   -1    0    0    0  501 -0.00000000000E+00 -0.00000000000E+00 -0.52014887070E+02  0.52014887070E+02  0.00000000000E+00 0.  1.
         23    2    1    2    0    0  0.00000000000E+00  0.00000000000E+00 -0.20422078859E+02  0.83607695281E+02  0.81075183659E+02 0.  0.
        -13    1    3    3    0    0 -0.33561333336E+02  0.12167121401E+02  0.95955340539E+01  0.36965879027E+02  0.00000000000E+00 0. -1.
         13    1    3    3    0    0  0.33561333336E+02 -0.12167121401E+02 -0.30017612913E+02  0.46641816254E+02  0.00000000000E+00 0.  1.
<mgrwt>
<rscale>  0 0.81075184E+02</rscale>
<asrwt>0</asrwt>
<pdfrwt beam="1">  1        4 0.48604321E-02 0.81075184E+02</pdfrwt>
<pdfrwt beam="2">  1       -4 0.80022902E-02 0.81075184E+02</pdfrwt>
<totfact> 0.37744402E+04</totfact>
</mgrwt>
</event>
<event>
 5    1  0.1270834E+001  0.9733007E+02  0.7546771E-02  0.1286013E+00
          2   -1    0    0  501    0  0.00000000000E+00  0.00000000000E+00  0.18190282146E+03  0.18190282146E+03  0.00000000000E+00 0. -1.
         -2   -1    0    0    0  501 -0.00000000000E+00 -0.00000000000E+00 -0.13019511432E+02  0.13019511432E+02  0.00000000000E+00 0.  1.
         23    2    1    2    0    0  0.00000000000E+00  0.00000000000E+00  0.16888331003E+03  0.19492233289E+03  0.97330074768E+02 0.  0.
        -11    1    3    3    0    0 -0.26854129942E+02 -0.39371850932E+02  0.64717518519E+02  0.80371911412E+02  0.00000000000E+00 0.  1.
         11    1    3    3    0    0  0.26854129942E+02  0.39371850932E+02  0.10416579151E+03  0.11455042148E+03  0.00000000000E+00 0. -1.
<mgrwt>
<rscale>  0 0.97330075E+02</rscale>
<asrwt>0</asrwt>
<pdfrwt beam="1">  1        2 0.27985048E-01 0.97330075E+02</pdfrwt>
<pdfrwt beam="2">  1       -2 0.20030019E-02 0.97330075E+02</pdfrwt>
<totfact> 0.12524063E+05</totfact>
</mgrwt>
</event>
<event>
 5    1  0.1270834E+001  0.8944653E+02  0.7546771E-02  0.1304198E+00
          1   -1    0    0  501    0  0.00000000000E+00  0.00000000000E+00  0.37208481194E+02  0.37208481194E+02  0.00000000000E+00 0. -1.
         -1   -1    0    0    0  501 -0.00000000000E+00 -0.00000000000E+00 -0.53755770414E+02  0.53755770414E+02  0.00000000000E+00 0.  1.
         23    2    1    2    0    0  0.00000000000E+00  0.00000000000E+00 -0.16547289220E+02  0.90964251608E+02  0.89446533136E+02 0.  0.
        -11    1    3    3    0    0  0.96245221318E+01  0.41499393044E+02  0.55713011647E+01  0.42963594426E+02  0.00000000000E+00 0.  1.
         11    1    3    3    0    0 -0.96245221318E+01 -0.41499393044E+02 -0.22118590385E+02  0.48000657182E+02  0.00000000000E+00 0. -1.
<mgrwt>
<rscale>  0 0.89446533E+02</rscale>
<asrwt>0</asrwt>
<pdfrwt beam="1">  1        1 0.57243818E-02 0.89446533E+02</pdfrwt>
<pdfrwt beam="2">  1       -1 0.82701185E-02 0.89446533E+02</pdfrwt>
<totfact> 0.94660459E+04</totfact>
</mgrwt>
</event>
<event>
 5    1  0.1270834E+001  0.8305639E+02  0.7546771E-02  0.1320595E+00
         -2   -1    0    0    0  501 -0.00000000000E+00  0.00000000000E+00  0.15505794226E+02  0.15505794226E+02  0.00000000000E+00 0.  1.
          2   -1    0    0  501    0  0.00000000000E+00 -0.00000000000E+00 -0.11122236652E+03  0.11122236652E+03  0.00000000000E+00 0. -1.
         23    2    1    2    0    0  0.00000000000E+00  0.00000000000E+00 -0.95716572291E+02  0.12672816074E+03  0.83056393577E+02 0.  0.
        -11    1    3    3    0    0  0.29353821872E+02 -0.28536698999E+02 -0.58495380795E+02  0.71398176605E+02  0.00000000000E+00 0. -1.
         11    1    3    3    0    0 -0.29353821872E+02  0.28536698999E+02 -0.37221191496E+02  0.55329984137E+02  0.00000000000E+00 0.  1.
<mgrwt>
<rscale>  0 0.83056394E+02</rscale>
<asrwt>0</asrwt>
<pdfrwt beam="2">  1        2 0.17111133E-01 0.83056394E+02</pdfrwt>
<pdfrwt beam="1">  1       -2 0.23855069E-02 0.83056394E+02</pdfrwt>
<totfact> 0.16341885E+05</totfact>
</mgrwt>
</event>
<event>
 5    1  0.1270834E+001  0.9150081E+02  0.7546771E-02  0.1299257E+00
         -3   -1    0    0    0  501 -0.00000000000E+00  0.00000000000E+00  0.45399369988E+02  0.45399369988E+02  0.00000000000E+00 0.  1.
          3   -1    0    0  501    0  0.00000000000E+00 -0.00000000000E+00 -0.46104157060E+02  0.46104157060E+02  0.00000000000E+00 0. -1.
         23    2    1    2    0    0  0.00000000000E+00  0.00000000000E+00 -0.70478707207E+00  0.91503527048E+02  0.91500812769E+02 0.  0.
        -13    1    3    3    0    0 -0.70143947872E+01  0.15206908795E+02  0.42224071998E+02  0.45423827067E+02  0.00000000000E+00 0.  1.
         13    1    3    3    0    0  0.70143947872E+01 -0.15206908795E+02 -0.42928859070E+02  0.46079699981E+02  0.00000000000E+00 0. -1.
<mgrwt>
<rscale>  0 0.91500813E+02</rscale>
<asrwt>0</asrwt>
<pdfrwt beam="2">  1        3 0.70929473E-02 0.91500813E+02</pdfrwt>
<pdfrwt beam="1">  1       -3 0.69845184E-02 0.91500813E+02</pdfrwt>
<totfact> 0.34973118E+04</totfact>
</mgrwt>
</event>
<event>
 5    1  0.1270834E+001  0.7281183E+02  0.7546771E-02  0.1350784E+00
          2   -1    0    0  501    0  0.00000000000E+00  0.00000000000E+00  0.24936124778E+02  0.24936124778E+02  0.00000000000E+00 0.  1.
         -2   -1    0    0    0  501 -0.00000000000E+00 -0.00000000000E+00 -0.53151424201E+02  0.53151424201E+02  0.00000000000E+00 0. -1.
         23    2    1    2    0    0  0.00000000000E+00  0.00000000000E+00 -0.28215299423E+02  0.78087548979E+02  0.72811827226E+02 0.  0.
        -13    1    3    3    0    0 -0.17038632461E+02  0.23761361414E+02  0.91543652592E+01  0.30638532858E+02  0.00000000000E+00 0.  1.
         13    1    3    3    0    0  0.17038632461E+02 -0.23761361414E+02 -0.37369664682E+02  0.47449016121E+02  0.00000000000E+00 0. -1.
<mgrwt>
<rscale>  0 0.72811827E+02</rscale>
<asrwt>0</asrwt>
<pdfrwt beam="1">  1        2 0.38363269E-02 0.72811827E+02</pdfrwt>
<pdfrwt beam="2">  1       -2 0.81771422E-02 0.72811827E+02</pdfrwt>
<totfact> 0.16273663E+05</totfact>
</mgrwt>
</event>
<event>
 5    1  0.1270834E+001  0.9024671E+02  0.7546771E-02  0.1302255E+00
          1   -1    0    0  501    0  0.00000000000E+00  0.00000000000E+00  0.36769511013E+02  0.36769511013E+02  0.00000000000E+00 0. -1.
         -1   -1    0    0    0  501 -0.00000000000E+00 -0.00000000000E+00 -0.55375154984E+02  0.55375154984E+02  0.00000000000E+00 0.  1.
         23    2    1    2    0    0  0.00000000000E+00  0.00000000000E+00 -0.18605643971E+02  0.92144665997E+02  0.90246714534E+02 0.  0.
        -11    1    3    3    0    0 -0.11846835264E+02 -0.37413165231E+02 -0.32042826855E+02  0.50663943700E+02  0.00000000000E+00 0.  1.
         11    1    3    3    0    0  0.11846835264E+02  0.37413165231E+02  0.13437182884E+02  0.41480722297E+02  0.00000000000E+00 0. -1.
<mgrwt>
<rscale>  0 0.90246715E+02</rscale>
<asrwt>0</asrwt>
<pdfrwt beam="1">  1        1 0.56568478E-02 0.90246715E+02</pdfrwt>
<pdfrwt beam="2">  1       -1 0.85192546E-02 0.90246715E+02</pdfrwt>
<totfact> 0.92141722E+04</totfact>
</mgrwt>
</event>
<event>
 5    1  0.1270834E+001  0.9107874E+02  0.7546771E-02  0.1300260E+00
          1   -1    0    0  501    0  0.00000000000E+00  0.00000000000E+00  0.68491231889E+02  0.68491231889E+02  0.00000000000E+00 0. -1.
         -1   -1    0    0    0  501 -0.00000000000E+00 -0.00000000000E+00 -0.30278829465E+02  0.30278829465E+02  0.00000000000E+00 0.  1.
         23    2    1    2    0    0  0.00000000000E+00  0.00000000000E+00  0.38212402424E+02  0.98770061354E+02  0.91078742421E+02 0.  0.
        -11    1    3    3    0    0 -0.60546163454E+01 -0.33080584179E+02  0.52405095174E+02  0.62267788052E+02  0.00000000000E+00 0. -1.
         11    1    3    3    0    0  0.60546163454E+01  0.33080584179E+02 -0.14192692750E+02  0.36502273302E+02  0.00000000000E+00 0.  1.
<mgrwt>
<rscale>  0 0.91078742E+02</rscale>
<asrwt>0</asrwt>
<pdfrwt beam="1">  1        1 0.10537113E-01 0.91078742E+02</pdfrwt>
<pdfrwt beam="2">  1       -1 0.46582815E-02 0.91078742E+02</pdfrwt>
<totfact> 0.98629127E+04</totfact>
</mgrwt>
</event>
<event>
 5    1  0.1270834E+001  0.9888893E+02  0.7546771E-02  0.1282650E+00
         -1   -1    0    0    0  501 -0.00000000000E+00  0.00000000000E+00  0.10179177602E+02  0.10179177602E+02  0.00000000000E+00 0.  1.
          1   -1    0    0  501    0  0.00000000000E+00 -0.00000000000E+00 -0.24017217956E+03  0.24017217956E+03  0.00000000000E+00 0. -1.
         23    2    1    2    0    0  0.00000000000E+00  0.00000000000E+00 -0.22999300195E+03  0.25035135716E+03  0.98888933066E+02 0.  0.
        -11    1    3    3    0    0  0.45496517077E+02 -0.36457602654E+01 -0.66859967474E+02  0.80953566226E+02  0.00000000000E+00 0.  1.
         11    1    3    3    0    0 -0.45496517077E+02  0.36457602654E+01 -0.16313303448E+03  0.16939779093E+03  0.00000000000E+00 0. -1.
<mgrwt>
<rscale>  0 0.98888933E+02</rscale>
<asrwt>0</asrwt>
<pdfrwt beam="2">  1        1 0.36949564E-01 0.98888933E+02</pdfrwt>
<pdfrwt beam="1">  1       -1 0.15660274E-02 0.98888933E+02</pdfrwt>
<totfact> 0.98658756E+04</totfact>
</mgrwt>
</event>
<event>
 5    1  0.1270834E+001  0.9206771E+02  0.7546771E-02  0.1297920E+00
          3   -1    0    0  501    0  0.00000000000E+00  0.00000000000E+00  0.87896793682E+01  0.87896793682E+01  0.00000000000E+00 0. -1.
         -3   -1    0    0    0  501 -0.00000000000E+00 -0.00000000000E+00 -0.24109139030E+03  0.24109139030E+03  0.00000000000E+00 0.  1.
         23    2    1    2    0    0  0.00000000000E+00  0.00000000000E+00 -0.23230171093E+03  0.24988106967E+03  0.92067714628E+02 0.  0.
        -11    1    3    3    0    0  0.43021444051E+02 -0.87120838506E+01 -0.78506856195E+02  0.89944824881E+02  0.00000000000E+00 0. -1.
         11    1    3    3    0    0 -0.43021444051E+02  0.87120838506E+01 -0.15379485474E+03  0.15993624479E+03  0.00000000000E+00 0.  1.
<mgrwt>
<rscale>  0 0.92067715E+02</rscale>
<asrwt>0</asrwt>
<pdfrwt beam="1">  1        3 0.13522583E-02 0.92067715E+02</pdfrwt>
<pdfrwt beam="2">  1       -3 0.37090986E-01 0.92067715E+02</pdfrwt>
<totfact> 0.25429509E+04</totfact>
</mgrwt>
</event>
<event>
 5    1  0.1270834E+001  0.9096774E+02  0.7546771E-02  0.1300525E+00
          1   -1    0    0  501    0  0.00000000000E+00  0.00000000000E+00  0.20974983531E+03  0.20974983531E+03  0.00000000000E+00 0. -1.
         -1   -1    0    0    0  501 -0.00000000000E+00 -0.00000000000E+00 -0.98630937543E+01  0.98630937543E+01  0.00000000000E+00 0.  1.
         23    2    1    2    0    0  0.00000000000E+00  0.00000000000E+00  0.19988674156E+03  0.21961292907E+03  0.90967736932E+02 0.  0.
        -11    1    3    3    0    0  0.32007604779E+02 -0.46865816303E+01  0.22752421713E+02  0.39549001313E+02  0.00000000000E+00 0.  1.
         11    1    3    3    0    0 -0.32007604779E+02  0.46865816303E+01  0.17713431985E+03  0.18006392775E+03  0.00000000000E+00 0. -1.
<mgrwt>
<rscale>  0 0.90967737E+02</rscale>
<asrwt>0</asrwt>
<pdfrwt beam="1">  1        1 0.32269202E-01 0.90967737E+02</pdfrwt>
<pdfrwt beam="2">  1       -1 0.15173992E-02 0.90967737E+02</pdfrwt>
<totfact> 0.12024406E+05</totfact>
</mgrwt>
</event>
<event>
 5    1  0.1270834E+001  0.9837630E+02  0.7546771E-02  0.1283748E+00
          1   -1    0    0  501    0  0.00000000000E+00  0.00000000000E+00  0.89498192704E+02  0.89498192704E+02  0.00000000000E+00 0. -1.
         -1   -1    0    0    0  501 -0.00000000000E+00 -0.00000000000E+00 -0.27033778453E+02  0.27033778453E+02  0.00000000000E+00 0.  1.
         23    2    1    2    0    0  0.00000000000E+00  0.00000000000E+00  0.62464414251E+02  0.11653197116E+03  0.98376304332E+02 0.  0.
        -13    1    3    3    0    0 -0.22767578789E+02  0.22159784156E+02 -0.13248605568E+02  0.34423018857E+02  0.00000000000E+00 0.  1.
         13    1    3    3    0    0  0.22767578789E+02 -0.22159784156E+02  0.75713019819E+02  0.82108952300E+02  0.00000000000E+00 0. -1.
<mgrwt>
<rscale>  0 0.98376304E+02</rscale>
<asrwt>0</asrwt>
<pdfrwt beam="1">  1        1 0.13768953E-01 0.98376304E+02</pdfrwt>
<pdfrwt beam="2">  1       -1 0.41590429E-02 0.98376304E+02</pdfrwt>
<totfact> 0.83216297E+04</totfact>
</mgrwt>
</event>
<event>
 5    1  0.1270834E+001  0.7548924E+02  0.7546771E-02  0.1342363E+00
         -2   -1    0    0    0  501 -0.00000000000E+00  0.00000000000E+00  0.60369261320E+01  0.60369261320E+01  0.00000000000E+00 0.  1.
          2   -1    0    0  501    0  0.00000000000E+00 -0.00000000000E+00 -0.23599034312E+03  0.23599034312E+03  0.00000000000E+00 0. -1.
         23    2    1    2    0    0  0.00000000000E+00  0.00000000000E+00 -0.22995341699E+03  0.24202726925E+03  0.75489238155E+02 0.  0.
        -13    1    3    3    0    0  0.16149481238E+02  0.34052584360E+02 -0.10835002736E+03  0.11471753429E+03  0.00000000000E+00 0. -1.
         13    1    3    3    0    0 -0.16149481238E+02 -0.34052584360E+02 -0.12160338963E+03  0.12730973496E+03  0.00000000000E+00 0.  1.
<mgrwt>
<rscale>  0 0.75489238E+02</rscale>
<asrwt>0</asrwt>
<pdfrwt beam="2">  1        2 0.36306202E-01 0.75489238E+02</pdfrwt>
<pdfrwt beam="1">  1       -2 0.92875800E-03 0.75489238E+02</pdfrwt>
<totfact> 0.27111783E+05</totfact>
</mgrwt>
</event>
<event>
 5    1  0.1270834E+001  0.9097057E+02  0.7546771E-02  0.1300518E+00
         -2   -1    0    0    0  501 -0.00000000000E+00  0.00000000000E+00  0.11425902124E+03  0.11425902124E+03  0.00000000000E+00 0.  1.
          2   -1    0    0  501    0  0.00000000000E+00 -0.00000000000E+00 -0.18107201718E+02  0.18107201718E+02  0.00000000000E+00 0. -1.
         23    2    1    2    0    0  0.00000000000E+00  0.00000000000E+00  0.96151819522E+02  0.13236622296E+03  0.90970569871E+02 0.  0.
        -13    1    3    3    0    0 -0.35050080581E+02 -0.16662651192E+02  0.13558555012E+02  0.41109445478E+02  0.00000000000E+00 0. -1.
         13    1    3    3    0    0  0.35050080581E+02  0.16662651192E+02  0.82593264511E+02  0.91256777480E+02  0.00000000000E+00 0.  1.
<mgrwt>
<rscale>  0 0.90970570E+02</rscale>
<asrwt>0</asrwt>
<pdfrwt beam="2">  1        2 0.27857234E-02 0.90970570E+02</pdfrwt>
<pdfrwt beam="1">  1       -2 0.17578311E-01 0.90970570E+02</pdfrwt>
<totfact> 0.77043688E+04</totfact>
</mgrwt>
</event>
<event>
 5    1  0.1270834E+001  0.9376272E+02  0.7546771E-02  0.1293987E+00
         -3   -1    0    0    0  501 -0.00000000000E+00  0.00000000000E+00  0.10590494710E+03  0.10590494710E+03  0.00000000000E+00 0.  1.
          3   -1    0    0  501    0  0.00000000000E+00 -0.00000000000E+00 -0.20753155373E+02  0.20753155373E+02  0.00000000000E+00 0. -1.
         23    2    1    2    0    0  0.00000000000E+00  0.00000000000E+00  0.85151791728E+02  0.12665810247E+03  0.93762718005E+02 0.  0.
        -13    1    3    3    0    0  0.31886871333E+02  0.30126688581E+02  0.64914659765E+02  0.78347322741E+02  0.00000000000E+00 0.  1.
         13    1    3    3    0    0 -0.31886871333E+02 -0.30126688581E+02  0.20237131963E+02  0.48310779732E+02  0.00000000000E+00 0. -1.
<mgrwt>
<rscale>  0 0.93762718E+02</rscale>
<asrwt>0</asrwt>
<pdfrwt beam="2">  1        3 0.31927932E-02 0.93762718E+02</pdfrwt>
<pdfrwt beam="1">  1       -3 0.16293068E-01 0.93762718E+02</pdfrwt>
<totfact> 0.30393820E+04</totfact>
</mgrwt>
</event>
<event>
 5    1  0.1270834E+001  0.8912120E+02  0.7546771E-02  0.1304994E+00
          1   -1    0    0  501    0  0.00000000000E+00  0.00000000000E+00  0.14380029844E+03  0.14380029844E+03  0.00000000000E+00 0. -1.
         -1   -1    0    0    0  501 -0.00000000000E+00 -0.00000000000E+00 -0.13808365848E+02  0.13808365848E+02  0.00000000000E+00 0.  1.
         23    2    1    2    0    0  0.00000000000E+00  0.00000000000E+00  0.12999193260E+03  0.15760866429E+03  0.89121201293E+02 0.  0.
        -11    1    3    3    0    0  0.35919421145E+02  0.25926977004E+02  0.56471588038E+02  0.71773624734E+02  0.00000000000E+00 0.  1.
         11    1    3    3    0    0 -0.35919421145E+02 -0.25926977004E+02  0.73520344558E+02  0.85835039558E+02  0.00000000000E+00 0. -1.
<mgrwt>
<rscale>  0 0.89121201E+02</rscale>
<asrwt>0</asrwt>
<pdfrwt beam="1">  1        1 0.22123122E-01 0.89121201E+02</pdfrwt>
<pdfrwt beam="2">  1       -1 0.21243641E-02 0.89121201E+02</pdfrwt>
<totfact> 0.11832186E+05</totfact>
</mgrwt>
</event>
<event>
 5    1  0.1270834E+001  0.9149714E+02  0.7546771E-02  0.1299266E+00
          2   -1    0    0  501    0  0.00000000000E+00  0.00000000000E+00  0.27745908885E+03  0.27745908885E+03  0.00000000000E+00 0. -1.
         -2   -1    0    0    0  501 -0.00000000000E+00 -0.00000000000E+00 -0.75432078278E+01  0.75432078278E+01  0.00000000000E+00 0.  1.
         23    2    1    2    0    0  0.00000000000E+00  0.00000000000E+00  0.26991588102E+03  0.28500229668E+03  0.91497138117E+02 0.  0.
        -11    1    3    3    0    0  0.33504928194E+02  0.30253930409E+02  0.15806920260E+03  0.16438903044E+03  0.00000000000E+00 0. -1.
         11    1    3    3    0    0 -0.33504928194E+02 -0.30253930409E+02  0.11184667843E+03  0.12061326624E+03  0.00000000000E+00 0.  1.
<mgrwt>
<rscale>  0 0.91497138E+02</rscale>
<asrwt>0</asrwt>
<pdfrwt beam="1">  1        2 0.42686006E-01 0.91497138E+02</pdfrwt>
<pdfrwt beam="2">  1       -2 0.11604937E-02 0.91497138E+02</pdfrwt>
<totfact> 0.17287326E+05</totfact>
</mgrwt>
</event>
<event>
 5    1  0.1270834E+001  0.8918437E+02  0.7546771E-02  0.1304839E+00
         -1   -1    0    0    0  501 -0.00000000000E+00  0.00000000000E+00  0.90420049416E+01  0.90420049416E+01  0.00000000000E+00 0.  1.
          1   -1    0    0  501    0  0.00000000000E+00 -0.00000000000E+00 -0.21991396475E+03  0.21991396475E+03  0.00000000000E+00 0. -1.
         23    2    1    2    0    0  0.00000000000E+00  0.00000000000E+00 -0.21087195981E+03  0.22895596969E+03  0.89184374327E+02 0.  0.
        -11    1    3    3    0    0  0.42010000303E+02 -0.25856131021E+01 -0.67623892527E+02  0.79652472410E+02  0.00000000000E+00 0.  1.
         11    1    3    3    0    0 -0.42010000303E+02  0.25856131021E+01 -0.14324806728E+03  0.14930349728E+03  0.00000000000E+00 0. -1.
<mgrwt>
<rscale>  0 0.89184374E+02</rscale>
<asrwt>0</asrwt>
<pdfrwt beam="2">  1        1 0.33832917E-01 0.89184374E+02</pdfrwt>
<pdfrwt beam="1">  1       -1 0.13910777E-02 0.89184374E+02</pdfrwt>
<totfact> 0.12795072E+05</totfact>
</mgrwt>
</event>
<event>
 5    1  0.1270834E+001  0.9608460E+02  0.7546771E-02  0.1288752E+00
          3   -1    0    0  501    0  0.00000000000E+00  0.00000000000E+00  0.34879572865E+03  0.34879572865E+03  0.00000000000E+00 0. -1.
         -3   -1    0    0    0  501 -0.00000000000E+00 -0.00000000000E+00 -0.66172328775E+01  0.66172328775E+01  0.00000000000E+00 0.  1.
         23    2    1    2    0    0  0.00000000000E+00  0.00000000000E+00  0.34217849577E+03  0.35541296153E+03  0.96084599456E+02 0.  0.
        -11    1    3    3    0    0 -0.14056529071E+02  0.42292258928E+02  0.23744833830E+03  0.24159456645E+03  0.00000000000E+00 0. -1.
         11    1    3    3    0    0  0.14056529071E+02 -0.42292258928E+02  0.10473015747E+03  0.11381839508E+03  0.00000000000E+00 0.  1.
<mgrwt>
<rscale>  0 0.96084599E+02</rscale>
<asrwt>0</asrwt>
<pdfrwt beam="1">  1        3 0.53660867E-01 0.96084599E+02</pdfrwt>
<pdfrwt beam="2">  1       -3 0.10180361E-02 0.96084599E+02</pdfrwt>
<totfact> 0.19136553E+04</totfact>
</mgrwt>
</event>
<event>
 5    1  0.1270834E+001  0.9113506E+02  0.7546771E-02  0.1300126E+00
          3   -1    0    0  501    0  0.00000000000E+00  0.00000000000E+00  0.14056289859E+03  0.14056289859E+03  0.00000000000E+00 0. -1.
         -3   -1    0    0    0  501 -0.00000000000E+00 -0.00000000000E+00 -0.14772033841E+02  0.14772033841E+02  0.00000000000E+00 0.  1.
         23    2    1    2    0    0  0.00000000000E+00  0.00000000000E+00  0.12579086475E+03  0.15533493243E+03  0.91135062291E+02 0.  0.
        -13    1    3    3    0    0 -0.28926935354E+02 -0.34850127023E+02  0.54356005244E+02  0.70752203136E+02  0.00000000000E+00 0.  1.
         13    1    3    3    0    0  0.28926935354E+02  0.34850127023E+02  0.71434859503E+02  0.84582729293E+02  0.00000000000E+00 0. -1.
<mgrwt>
<rscale>  0 0.91135062E+02</rscale>
<asrwt>0</asrwt>
<pdfrwt beam="1">  1        3 0.21625061E-01 0.91135062E+02</pdfrwt>
<pdfrwt beam="2">  1       -3 0.22726207E-02 0.91135062E+02</pdfrwt>
<totfact> 0.31022331E+04</totfact>
</mgrwt>
</event>
<event>
 5    1  0.1270834E+001  0.9093136E+02  0.7546771E-02  0.1300612E+00
          2   -1    0    0  501    0  0.00000000000E+00  0.00000000000E+00  0.36603802356E+03  0.36603802356E+03  0.00000000000E+00 0. -1.
         -2   -1    0    0    0  501 -0.00000000000E+00 -0.00000000000E+00 -0.56473046891E+01  0.56473046891E+01  0.00000000000E+00 0.  1.
         23    2    1    2    0    0  0.00000000000E+00  0.00000000000E+00  0.36039071887E+03  0.37168532825E+03  0.90931364156E+02 0.  0.
        -13    1    3    3    0    0  0.19306256067E+02 -0.41158297063E+02  0.17763842176E+03  0.18336342554E+03  0.00000000000E+00 0.  1.
         13    1    3    3    0    0 -0.19306256067E+02  0.41158297063E+02  0.18275229711E+03  0.18832190271E+03  0.00000000000E+00 0. -1.
<mgrwt>
<rscale>  0 0.90931364E+02</rscale>
<asrwt>0</asrwt>
<pdfrwt beam="1">  1        2 0.56313524E-01 0.90931364E+02</pdfrwt>
<pdfrwt beam="2">  1       -2 0.86881639E-03 0.90931364E+02</pdfrwt>
<totfact> 0.19471944E+05</totfact>
</mgrwt>
</event>
<event>
 5    1  0.1270834E+001  0.9478964E+02  0.7546771E-02  0.1291651E+00
          2   -1    0    0  501    0  0.00000000000E+00  0.00000000000E+00  0.13866013533E+03  0.13866013533E+03  0.00000000000E+00 0. -1.
         -2   -1    0    0    0  501 -0.00000000000E+00 -0.00000000000E+00 -0.16199818478E+02  0.16199818478E+02  0.00000000000E+00 0.  1.
         23    2    1    2    0    0  0.00000000000E+00  0.00000000000E+00  0.12246031685E+03  0.15485995381E+03  0.94789641257E+02 0.  0.
        -13    1    3    3    0    0 -0.15266048909E+02  0.22955804636E+02 -0.17529164125E+01  0.27624154860E+02  0.00000000000E+00 0.  1.
         13    1    3    3    0    0  0.15266048909E+02 -0.22955804636E+02  0.12421323326E+03  0.12723579895E+03  0.00000000000E+00 0. -1.
<mgrwt>
<rscale>  0 0.94789641E+02</rscale>
<asrwt>0</asrwt>
<pdfrwt beam="1">  1        2 0.21332328E-01 0.94789641E+02</pdfrwt>
<pdfrwt beam="2">  1       -2 0.24922799E-02 0.94789641E+02</pdfrwt>
<totfact> 0.12245111E+05</totfact>
</mgrwt>
</event>
<event>
 5    1  0.1270834E+001  0.8898915E+02  0.7546771E-02  0.1305318E+00
         -2   -1    0    0    0  501 -0.00000000000E+00  0.00000000000E+00  0.24806721770E+02  0.24806721770E+02  0.00000000000E+00 0.  1.
          2   -1    0    0  501    0  0.00000000000E+00 -0.00000000000E+00 -0.79807693038E+02  0.79807693038E+02  0.00000000000E+00 0. -1.
         23    2    1    2    0    0  0.00000000000E+00  0.00000000000E+00 -0.55000971267E+02  0.10461441481E+03  0.88989150717E+02 0.  0.
        -13    1    3    3    0    0  0.29551018590E+02 -0.86200186893E+01  0.10268590032E+02  0.32450136566E+02  0.00000000000E+00 0.  1.
         13    1    3    3    0    0 -0.29551018590E+02  0.86200186893E+01 -0.65269561300E+02  0.72164278242E+02  0.00000000000E+00 0. -1.
<mgrwt>
<rscale>  0 0.88989151E+02</rscale>
<asrwt>0</asrwt>
<pdfrwt beam="2">  1        2 0.12278107E-01 0.88989151E+02</pdfrwt>
<pdfrwt beam="1">  1       -2 0.38164188E-02 0.88989151E+02</pdfrwt>
<totfact> 0.12276954E+05</totfact>
</mgrwt>
</event>
<event>
 5    1  0.1270834E+001  0.9146059E+02  0.7546771E-02  0.1299353E+00
          1   -1    0    0  501    0  0.00000000000E+00  0.00000000000E+00  0.36113503012E+03  0.36113503012E+03  0.00000000000E+00 0. -1.
         -1   -1    0    0    0  501 -0.00000000000E+00 -0.00000000000E+00 -0.57907975289E+01  0.57907975289E+01  0.00000000000E+00 0.  1.
         23    2    1    2    0    0  0.00000000000E+00  0.00000000000E+00  0.35534423259E+03  0.36692582765E+03  0.91460589108E+02 0.  0.
        -11    1    3    3    0    0 -0.41846801797E+02 -0.41109518206E+01  0.24979671121E+03  0.25331097820E+03  0.00000000000E+00 0. -1.
         11    1    3    3    0    0  0.41846801797E+02  0.41109518206E+01  0.10554752138E+03  0.11361484945E+03  0.00000000000E+00 0.  1.
<mgrwt>
<rscale>  0 0.91460589E+02</rscale>
<asrwt>0</asrwt>
<pdfrwt beam="1">  1        1 0.55559218E-01 0.91460589E+02</pdfrwt>
<pdfrwt beam="2">  1       -1 0.89089221E-03 0.91460589E+02</pdfrwt>
<totfact> 0.13147385E+05</totfact>
</mgrwt>
</event>
<event>
 5    1  0.1270834E+001  0.9311426E+02  0.7546771E-02  0.1295481E+00
          2   -1    0    0  501    0  0.00000000000E+00  0.00000000000E+00  0.13544882131E+03  0.13544882131E+03  0.00000000000E+00 0. -1.
         -2   -1    0    0    0  501 -0.00000000000E+00 -0.00000000000E+00 -0.16002845349E+02  0.16002845349E+02  0.00000000000E+00 0.  1.
         23    2    1    2    0    0  0.00000000000E+00  0.00000000000E+00  0.11944597596E+03  0.15145166666E+03  0.93114264002E+02 0.  0.
        -13    1    3    3    0    0  0.17288602635E+02  0.42166064795E+02  0.44233163558E+02  0.63509413158E+02  0.00000000000E+00 0.  1.
         13    1    3    3    0    0 -0.17288602635E+02 -0.42166064795E+02  0.75212812402E+02  0.87942253500E+02  0.00000000000E+00 0. -1.
<mgrwt>
<rscale>  0 0.93114264E+02</rscale>
<asrwt>0</asrwt>
<pdfrwt beam="1">  1        2 0.20838279E-01 0.93114264E+02</pdfrwt>
<pdfrwt beam="2">  1       -2 0.24619763E-02 0.93114264E+02</pdfrwt>
<totfact> 0.12756438E+05</totfact>
</mgrwt>
</event>
<event>
 5    1  0.1270834E+001  0.9044582E+02  0.7546771E-02  0.1301776E+00
          3   -1    0    0  501    0  0.00000000000E+00  0.00000000000E+00  0.12769457924E+02  0.12769457924E+02  0.00000000000E+00 0. -1.
         -3   -1    0    0    0  501 -0.00000000000E+00 -0.00000000000E+00 -0.16015650430E+03  0.16015650430E+03  0.00000000000E+00 0.  1.
         23    2    1    2    0    0  0.00000000000E+00  0.00000000000E+00 -0.14738704637E+03  0.17292596222E+03  0.90445823405E+02 0.  0.
        -11    1    3    3    0    0 -0.41583405926E+02  0.10994901550E+02 -0.46991864369E+02  0.63704810065E+02  0.00000000000E+00 0. -1.
         11    1    3    3    0    0  0.41583405926E+02 -0.10994901550E+02 -0.10039518201E+03  0.10922115216E+03  0.00000000000E+00 0.  1.
<mgrwt>
<rscale>  0 0.90445823E+02</rscale>
<asrwt>0</asrwt>
<pdfrwt beam="1">  1        3 0.19645321E-02 0.90445823E+02</pdfrwt>
<pdfrwt beam="2">  1       -3 0.24639460E-01 0.90445823E+02</pdfrwt>
<totfact> 0.30618826E+04</totfact>
</mgrwt>
</event>
<event>
 5    1  0.1270834E+001  0.9352994E+02  0.7546771E-02  0.1294522E+00
          4   -1    0    0  501    0  0.00000000000E+00  0.00000000000E+00  0.21470306830E+03  0.21470306830E+03  0.00000000000E+00 0. -1.
         -4   -1    0    0    0  501 -0.00000000000E+00 -0.00000000000E+00 -0.10185986032E+02  0.10185986032E+02  0.00000000000E+00 0.  1.
         23    2    1    2    0    0  0.00000000000E+00  0.00000000000E+00  0.20451708227E+03  0.22488905433E+03  0.93529940760E+02 0.  0.
        -13    1    3    3    0    0  0.30364687111E+02 -0.32403883327E+02  0.13750965324E+03  0.14450235504E+03  0.00000000000E+00 0.  1.
         13    1    3    3    0    0 -0.30364687111E+02  0.32403883327E+02  0.67007429032E+02  0.80386699295E+02  0.00000000000E+00 0. -1.
<mgrwt>
<rscale>  0 0.93529941E+02</rscale>
<asrwt>0</asrwt>
<pdfrwt beam="1">  1        4 0.33031238E-01 0.93529941E+02</pdfrwt>
<pdfrwt beam="2">  1       -4 0.15670749E-02 0.93529941E+02</pdfrwt>
<totfact> 0.19043385E+04</totfact>
</mgrwt>
</event>
<event>
 5    1  0.1270834E+001  0.8393593E+02  0.7546771E-02  0.1318239E+00
         -1   -1    0    0    0  501 -0.00000000000E+00  0.00000000000E+00  0.70629399910E+01  0.70629399910E+01  0.00000000000E+00 0.  1.
          1   -1    0    0  501    0  0.00000000000E+00 -0.00000000000E+00 -0.24937350552E+03  0.24937350552E+03  0.00000000000E+00 0. -1.
         23    2    1    2    0    0  0.00000000000E+00  0.00000000000E+00 -0.24231056553E+03  0.25643644551E+03  0.83935930443E+02 0.  0.
        -13    1    3    3    0    0 -0.97136625087E+01  0.36011076780E+02 -0.17993465571E+03  0.18375971597E+03  0.00000000000E+00 0. -1.
         13    1    3    3    0    0  0.97136625087E+01 -0.36011076780E+02 -0.62375909821E+02  0.72676729537E+02  0.00000000000E+00 0.  1.
<mgrwt>
<rscale>  0 0.83935930E+02</rscale>
<asrwt>0</asrwt>
<pdfrwt beam="2">  1        1 0.38365149E-01 0.83935930E+02</pdfrwt>
<pdfrwt beam="1">  1       -1 0.10866063E-02 0.83935930E+02</pdfrwt>
<totfact> 0.15402582E+05</totfact>
</mgrwt>
</event>
<event>
 5    1  0.1270834E+001  0.8550220E+02  0.7546771E-02  0.1314124E+00
         -1   -1    0    0    0  501 -0.00000000000E+00  0.00000000000E+00  0.28662536875E+02  0.28662536875E+02  0.00000000000E+00 0.  1.
          1   -1    0    0  501    0  0.00000000000E+00 -0.00000000000E+00 -0.63764640997E+02  0.63764640997E+02  0.00000000000E+00 0. -1.
         23    2    1    2    0    0  0.00000000000E+00  0.00000000000E+00 -0.35102104122E+02  0.92427177872E+02  0.85502195853E+02 0.  0.
        -13    1    3    3    0    0  0.23167593301E+02 -0.49559887726E+01 -0.56019133885E+02  0.60823043046E+02  0.00000000000E+00 0. -1.
         13    1    3    3    0    0 -0.23167593301E+02  0.49559887726E+01  0.20917029763E+02  0.31604134827E+02  0.00000000000E+00 0.  1.
<mgrwt>
<rscale>  0 0.85502196E+02</rscale>
<asrwt>0</asrwt>
<pdfrwt beam="2">  1        1 0.98099447E-02 0.85502196E+02</pdfrwt>
<pdfrwt beam="1">  1       -1 0.44096211E-02 0.85502196E+02</pdfrwt>
<totfact> 0.11608251E+05</totfact>
</mgrwt>
</event>
<event>
 5    1  0.1270834E+001  0.9287321E+02  0.7546771E-02  0.1296039E+00
         -1   -1    0    0    0  501 -0.00000000000E+00  0.00000000000E+00  0.91400186031E+01  0.91400186031E+01  0.00000000000E+00 0.  1.
          1   -1    0    0  501    0  0.00000000000E+00 -0.00000000000E+00 -0.23592493638E+03  0.23592493638E+03  0.00000000000E+00 0. -1.
         23    2    1    2    0    0  0.00000000000E+00  0.00000000000E+00 -0.22678491778E+03  0.24506495499E+03  0.92873210508E+02 0.  0.
        -13    1    3    3    0    0  0.13524803853E+01 -0.39874317003E+02 -0.50695155725E+02  0.64511930475E+02  0.00000000000E+00 0.  1.
         13    1    3    3    0    0 -0.13524803853E+01  0.39874317003E+02 -0.17608976206E+03  0.18055302451E+03  0.00000000000E+00 0. -1.
<mgrwt>
<rscale>  0 0.92873211E+02</rscale>
<asrwt>0</asrwt>
<pdfrwt beam="2">  1        1 0.36296139E-01 0.92873211E+02</pdfrwt>
<pdfrwt beam="1">  1       -1 0.14061569E-02 0.92873211E+02</pdfrwt>
<totfact> 0.11638926E+05</totfact>
</mgrwt>
</event>
<event>
 5    1  0.1270834E+001  0.9388776E+02  0.7546771E-02  0.1293701E+00
         -2   -1    0    0    0  501 -0.00000000000E+00  0.00000000000E+00  0.20693223153E+02  0.20693223153E+02  0.00000000000E+00 0.  1.
          2   -1    0    0  501    0  0.00000000000E+00 -0.00000000000E+00 -0.10649515212E+03  0.10649515212E+03  0.00000000000E+00 0. -1.
         23    2    1    2    0    0  0.00000000000E+00  0.00000000000E+00 -0.85801928964E+02  0.12718837527E+03  0.93887761661E+02 0.  0.
        -11    1    3    3    0    0  0.23872250747E+02  0.37775773849E+02 -0.62383699624E+02  0.76737340482E+02  0.00000000000E+00 0. -1.
         11    1    3    3    0    0 -0.23872250747E+02 -0.37775773849E+02 -0.23418229340E+02  0.50451034787E+02  0.00000000000E+00 0.  1.
<mgrwt>
<rscale>  0 0.93887762E+02</rscale>
<asrwt>0</asrwt>
<pdfrwt beam="2">  1        2 0.16383870E-01 0.93887762E+02</pdfrwt>
<pdfrwt beam="1">  1       -2 0.31835728E-02 0.93887762E+02</pdfrwt>
<totfact> 0.11537381E+05</totfact>
</mgrwt>
</event>
<event>
 5    1  0.1270834E+001  0.9143902E+02  0.7546771E-02  0.1299404E+00
         -1   -1    0    0    0  501 -0.00000000000E+00  0.00000000000E+00  0.46705025737E+02  0.46705025737E+02  0.00000000000E+00 0.  1.
          1   -1    0    0  501    0  0.00000000000E+00 -0.00000000000E+00 -0.44754785501E+02  0.44754785501E+02  0.00000000000E+00 0. -1.
         23    2    1    2    0    0  0.00000000000E+00  0.00000000000E+00  0.19502402359E+01  0.91459811237E+02  0.91439015932E+02 0.  0.
        -13    1    3    3    0    0 -0.12909693173E+02  0.32502362216E+02  0.30430241444E+02  0.46357990916E+02  0.00000000000E+00 0.  1.
         13    1    3    3    0    0  0.12909693173E+02 -0.32502362216E+02 -0.28480001208E+02  0.45101820321E+02  0.00000000000E+00 0. -1.
<mgrwt>
<rscale>  0 0.91439016E+02</rscale>
<asrwt>0</asrwt>
<pdfrwt beam="2">  1        1 0.68853517E-02 0.91439016E+02</pdfrwt>
<pdfrwt beam="1">  1       -1 0.71853885E-02 0.91439016E+02</pdfrwt>
<totfact> 0.91474128E+04</totfact>
</mgrwt>
</event>
<event>
 5    1  0.1270834E+001  0.9173669E+02  0.7546771E-02  0.1298700E+00
          3   -1    0    0  501    0  0.00000000000E+00  0.00000000000E+00  0.33016230235E+02  0.33016230235E+02  0.00000000000E+00 0. -1.
         -3   -1    0    0    0  501 -0.00000000000E+00 -0.00000000000E+00 -0.63723352877E+02  0.63723352877E+02  0.00000000000E+00 0.  1.
         23    2    1    2    0    0  0.00000000000E+00  0.00000000000E+00 -0.30707122642E+02  0.96739583113E+02  0.91736686008E+02 0.  0.
        -13    1    3    3    0    0  0.32436635749E+02 -0.27568439657E+02  0.26586530628E+01  0.42652346242E+02  0.00000000000E+00 0. -1.
         13    1    3    3    0    0 -0.32436635749E+02  0.27568439657E+02 -0.33365775705E+02  0.54087236870E+02  0.00000000000E+00 0.  1.
<mgrwt>
<rscale>  0 0.91736686E+02</rscale>
<asrwt>0</asrwt>
<pdfrwt beam="1">  1        3 0.50794201E-02 0.91736686E+02</pdfrwt>
<pdfrwt beam="2">  1       -3 0.98035926E-02 0.91736686E+02</pdfrwt>
<totfact> 0.34337454E+04</totfact>
</mgrwt>
</event>
<event>
 5    1  0.1270834E+001  0.9016904E+02  0.7546771E-02  0.1302443E+00
          1   -1    0    0  501    0  0.00000000000E+00  0.00000000000E+00  0.20762071533E+03  0.20762071533E+03  0.00000000000E+00 0. -1.
         -1   -1    0    0    0  501 -0.00000000000E+00 -0.00000000000E+00 -0.97900350256E+01  0.97900350256E+01  0.00000000000E+00 0.  1.
         23    2    1    2    0    0  0.00000000000E+00  0.00000000000E+00  0.19783068030E+03  0.21741075035E+03  0.90169042915E+02 0.  0.
        -11    1    3    3    0    0 -0.35121362118E+02 -0.21576127526E+01  0.16687582769E+03  0.17054532311E+03  0.00000000000E+00 0. -1.
         11    1    3    3    0    0  0.35121362118E+02  0.21576127526E+01  0.30954852613E+02  0.46865427237E+02  0.00000000000E+00 0.  1.
<mgrwt>
<rscale>  0 0.90169043E+02</rscale>
<asrwt>0</asrwt>
<pdfrwt beam="1">  1        1 0.31941645E-01 0.90169043E+02</pdfrwt>
<pdfrwt beam="2">  1       -1 0.15061594E-02 0.90169043E+02</pdfrwt>
<totfact> 0.12287134E+05</totfact>
</mgrwt>
</event>
<event>
 5    1  0.1270834E+001  0.9069570E+02  0.7546771E-02  0.1301176E+00
         -2   -1    0    0    0  501 -0.00000000000E+00  0.00000000000E+00  0.11433130523E+03  0.11433130523E+03  0.00000000000E+00 0. -1.
          2   -1    0    0  501    0  0.00000000000E+00 -0.00000000000E+00 -0.17986564414E+02  0.17986564414E+02  0.00000000000E+00 0.  1.
         23    2    1    2    0    0  0.00000000000E+00  0.00000000000E+00  0.96344740812E+02  0.13231786964E+03  0.90695697494E+02 0.  0.
        -11    1    3    3    0    0 -0.43634841721E+02  0.38976922760E+01  0.65263304175E+02  0.78603373267E+02  0.00000000000E+00 0.  1.
         11    1    3    3    0    0  0.43634841721E+02 -0.38976922760E+01  0.31081436637E+02  0.53714496373E+02  0.00000000000E+00 0. -1.
<mgrwt>
<rscale>  0 0.90695697E+02</rscale>
<asrwt>0</asrwt>
<pdfrwt beam="2">  1        2 0.27671638E-02 0.90695697E+02</pdfrwt>
<pdfrwt beam="1">  1       -2 0.17589431E-01 0.90695697E+02</pdfrwt>
<totfact> 0.77613603E+04</totfact>
</mgrwt>
</event>
<event>
 5    1  0.1270834E+001  0.9059820E+02  0.7546771E-02  0.1301410E+00
          2   -1    0    0  501    0  0.00000000000E+00  0.00000000000E+00  0.67223114919E+02  0.67223114919E+02  0.00000000000E+00 0. -1.
         -2   -1    0    0    0  501 -0.00000000000E+00 -0.00000000000E+00 -0.30525337817E+02  0.30525337817E+02  0.00000000000E+00 0.  1.
         23    2    1    2    0    0  0.00000000000E+00  0.00000000000E+00  0.36697777102E+02  0.97748452736E+02  0.90598196274E+02 0.  0.
        -11    1    3    3    0    0 -0.42391016343E+02 -0.40118405728E+01  0.35025668372E+02  0.55135202696E+02  0.00000000000E+00 0. -1.
         11    1    3    3    0    0  0.42391016343E+02  0.40118405728E+01  0.16721087296E+01  0.42613250040E+02  0.00000000000E+00 0.  1.
<mgrwt>
<rscale>  0 0.90598196E+02</rscale>
<asrwt>0</asrwt>
<pdfrwt beam="1">  1        2 0.10342018E-01 0.90598196E+02</pdfrwt>
<pdfrwt beam="2">  1       -2 0.46962058E-02 0.90598196E+02</pdfrwt>
<totfact> 0.11135949E+05</totfact>
</mgrwt>
</event>
<event>
 5    1  0.1270834E+001  0.9389189E+02  0.7546771E-02  0.1293692E+00
         -1   -1    0    0    0  501 -0.00000000000E+00  0.00000000000E+00  0.49048924556E+02  0.49048924556E+02  0.00000000000E+00 0.  1.
          1   -1    0    0  501    0  0.00000000000E+00 -0.00000000000E+00 -0.44933133088E+02  0.44933133088E+02  0.00000000000E+00 0. -1.
         23    2    1    2    0    0  0.00000000000E+00  0.00000000000E+00  0.41157914677E+01  0.93982057644E+02  0.93891892193E+02 0.  0.
        -11    1    3    3    0    0  0.15171586276E+02 -0.82031814299E+01  0.45762769302E+02  0.48905012728E+02  0.00000000000E+00 0.  1.
         11    1    3    3    0    0 -0.15171586276E+02  0.82031814299E+01 -0.41646977834E+02  0.45077044917E+02  0.00000000000E+00 0. -1.
<mgrwt>
<rscale>  0 0.93891892E+02</rscale>
<asrwt>0</asrwt>
<pdfrwt beam="2">  1        1 0.69127897E-02 0.93891892E+02</pdfrwt>
<pdfrwt beam="1">  1       -1 0.75459884E-02 0.93891892E+02</pdfrwt>
<totfact> 0.84947680E+04</totfact>
</mgrwt>
</event>
<event>
 5    1  0.1270834E+001  0.8711709E+02  0.7546771E-02  0.1309987E+00
         -1   -1    0    0    0  501 -0.00000000000E+00  0.00000000000E+00  0.10182305717E+02  0.10182305717E+02  0.00000000000E+00 0.  1.
          1   -1    0    0  501    0  0.00000000000E+00 -0.00000000000E+00 -0.18633762283E+03  0.18633762283E+03  0.00000000000E+00 0. -1.
         23    2    1    2    0    0  0.00000000000E+00  0.00000000000E+00 -0.17615531711E+03  0.19651992855E+03  0.87117085401E+02 0.  0.
        -11    1    3    3    0    0  0.36876292134E+02 -0.13915930636E+02 -0.46248725892E+02  0.60765604528E+02  0.00000000000E+00 0.  1.
         11    1    3    3    0    0 -0.36876292134E+02  0.13915930636E+02 -0.12990659122E+03  0.13575432402E+03  0.00000000000E+00 0. -1.
<mgrwt>
<rscale>  0 0.87117085E+02</rscale>
<asrwt>0</asrwt>
<pdfrwt beam="2">  1        1 0.28667328E-01 0.87117085E+02</pdfrwt>
<pdfrwt beam="1">  1       -1 0.15665085E-02 0.87117085E+02</pdfrwt>
<totfact> 0.13194366E+05</totfact>
</mgrwt>
</event>
<event>
 5    1  0.1270834E+001  0.9196270E+02  0.7546771E-02  0.1298167E+00
         -2   -1    0    0    0  501 -0.00000000000E+00  0.00000000000E+00  0.80418002521E+02  0.80418002521E+02  0.00000000000E+00 0.  1.
          2   -1    0    0  501    0  0.00000000000E+00 -0.00000000000E+00 -0.26291182272E+02  0.26291182272E+02  0.00000000000E+00 0. -1.
         23    2    1    2    0    0  0.00000000000E+00  0.00000000000E+00  0.54126820249E+02  0.10670918479E+03  0.91962695964E+02 0.  0.
        -11    1    3    3    0    0 -0.19633472293E+02 -0.32937002812E+02  0.56509065889E+02  0.68290511172E+02  0.00000000000E+00 0.  1.
         11    1    3    3    0    0  0.19633472293E+02  0.32937002812E+02 -0.23822456405E+01  0.38418673621E+02  0.00000000000E+00 0. -1.
<mgrwt>
<rscale>  0 0.91962696E+02</rscale>
<asrwt>0</asrwt>
<pdfrwt beam="2">  1        2 0.40447973E-02 0.91962696E+02</pdfrwt>
<pdfrwt beam="1">  1       -2 0.12372000E-01 0.91962696E+02</pdfrwt>
<totfact> 0.83181531E+04</totfact>
</mgrwt>
</event>
<event>
 5    1  0.1270834E+001  0.8989961E+02  0.7546771E-02  0.1303095E+00
         -1   -1    0    0    0  501 -0.00000000000E+00  0.00000000000E+00  0.29003116052E+02  0.29003116052E+02  0.00000000000E+00 0.  1.
          1   -1    0    0  501    0  0.00000000000E+00 -0.00000000000E+00 -0.69664410566E+02  0.69664410566E+02  0.00000000000E+00 0. -1.
         23    2    1    2    0    0  0.00000000000E+00  0.00000000000E+00 -0.40661294514E+02  0.98667526618E+02  0.89899610330E+02 0.  0.
        -13    1    3    3    0    0 -0.42329622028E+02 -0.12832295446E+02 -0.29112278703E+02  0.52952709834E+02  0.00000000000E+00 0.  1.
         13    1    3    3    0    0  0.42329622028E+02  0.12832295446E+02 -0.11549015811E+02  0.45714816785E+02  0.00000000000E+00 0. -1.
<mgrwt>
<rscale>  0 0.89899610E+02</rscale>
<asrwt>0</asrwt>
<pdfrwt beam="2">  1        1 0.10717601E-01 0.89899610E+02</pdfrwt>
<pdfrwt beam="1">  1       -1 0.44620179E-02 0.89899610E+02</pdfrwt>
<totfact> 0.10249893E+05</totfact>
</mgrwt>
</event>
<event>
 5    1  0.1270834E+001  0.9111512E+02  0.7546771E-02  0.1300174E+00
          4   -1    0    0  501    0  0.00000000000E+00  0.00000000000E+00  0.43328586544E+02  0.43328586544E+02  0.00000000000E+00 0.  1.
         -4   -1    0    0    0  501 -0.00000000000E+00 -0.00000000000E+00 -0.47901200497E+02  0.47901200497E+02  0.00000000000E+00 0. -1.
         23    2    1    2    0    0  0.00000000000E+00  0.00000000000E+00 -0.45726139528E+01  0.91229787041E+02  0.91115120837E+02 0.  0.
        -11    1    3    3    0    0  0.21607912715E+02 -0.32591322203E+02 -0.25690820479E+02  0.46787973152E+02  0.00000000000E+00 0. -1.
         11    1    3    3    0    0 -0.21607912715E+02  0.32591322203E+02  0.21118206526E+02  0.44441813889E+02  0.00000000000E+00 0.  1.
<mgrwt>
<rscale>  0 0.91115121E+02</rscale>
<asrwt>0</asrwt>
<pdfrwt beam="1">  1        4 0.66659364E-02 0.91115121E+02</pdfrwt>
<pdfrwt beam="2">  1       -4 0.73694155E-02 0.91115121E+02</pdfrwt>
<totfact> 0.27062642E+04</totfact>
</mgrwt>
</event>
<event>
 5    1  0.1270834E+001  0.9132968E+02  0.7546771E-02  0.1299663E+00
         -1   -1    0    0    0  501 -0.00000000000E+00  0.00000000000E+00  0.11690716531E+02  0.11690716531E+02  0.00000000000E+00 0. -1.
          1   -1    0    0  501    0  0.00000000000E+00 -0.00000000000E+00 -0.17837038355E+03  0.17837038355E+03  0.00000000000E+00 0.  1.
         23    2    1    2    0    0  0.00000000000E+00  0.00000000000E+00 -0.16667966702E+03  0.19006110008E+03  0.91329679550E+02 0.  0.
        -13    1    3    3    0    0 -0.22368027080E+02  0.24747885564E+02 -0.14823675956E+03  0.15194381646E+03  0.00000000000E+00 0.  1.
         13    1    3    3    0    0  0.22368027080E+02 -0.24747885564E+02 -0.18442907462E+02  0.38117283625E+02  0.00000000000E+00 0. -1.
<mgrwt>
<rscale>  0 0.91329680E+02</rscale>
<asrwt>0</asrwt>
<pdfrwt beam="2">  1        1 0.27441593E-01 0.91329680E+02</pdfrwt>
<pdfrwt beam="1">  1       -1 0.17985720E-02 0.91329680E+02</pdfrwt>
<totfact> 0.11530394E+05</totfact>
</mgrwt>
</event>
<event>
 5    1  0.1270834E+001  0.9168660E+02  0.7546771E-02  0.1298818E+00
         -2   -1    0    0    0  501 -0.00000000000E+00  0.00000000000E+00  0.28764684059E+02  0.28764684059E+02  0.00000000000E+00 0.  1.
          2   -1    0    0  501    0  0.00000000000E+00 -0.00000000000E+00 -0.73062092910E+02  0.73062092910E+02  0.00000000000E+00 0. -1.
         23    2    1    2    0    0  0.00000000000E+00  0.00000000000E+00 -0.44297408851E+02  0.10182677697E+03  0.91686597041E+02 0.  0.
        -13    1    3    3    0    0 -0.12439265348E+02  0.27885303243E+01  0.26756591126E+02  0.29638258931E+02  0.00000000000E+00 0.  1.
         13    1    3    3    0    0  0.12439265348E+02 -0.27885303243E+01 -0.71053999977E+02  0.72188518038E+02  0.00000000000E+00 0. -1.
<mgrwt>
<rscale>  0 0.91686597E+02</rscale>
<asrwt>0</asrwt>
<pdfrwt beam="2">  1        2 0.11240322E-01 0.91686597E+02</pdfrwt>
<pdfrwt beam="1">  1       -2 0.44253360E-02 0.91686597E+02</pdfrwt>
<totfact> 0.11021469E+05</totfact>
</mgrwt>
</event>
<event>
 5    1  0.1270834E+001  0.9615062E+02  0.7546771E-02  0.1288605E+00
          1   -1    0    0  501    0  0.00000000000E+00  0.00000000000E+00  0.47612608210E+03  0.47612608210E+03  0.00000000000E+00 0. -1.
         -1   -1    0    0    0  501 -0.00000000000E+00 -0.00000000000E+00 -0.48542507278E+01  0.48542507278E+01  0.00000000000E+00 0.  1.
         23    2    1    2    0    0  0.00000000000E+00  0.00000000000E+00  0.47127183137E+03  0.48098033282E+03  0.96150618938E+02 0.  0.
        -13    1    3    3    0    0  0.29453335085E+01 -0.47491799432E+02  0.26996298367E+03  0.27412434871E+03  0.00000000000E+00 0.  1.
         13    1    3    3    0    0 -0.29453335085E+01  0.47491799432E+02  0.20130884770E+03  0.20685598412E+03  0.00000000000E+00 0. -1.
<mgrwt>
<rscale>  0 0.96150619E+02</rscale>
<asrwt>0</asrwt>
<pdfrwt beam="1">  1        1 0.73250129E-01 0.96150619E+02</pdfrwt>
<pdfrwt beam="2">  1       -1 0.74680818E-03 0.96150619E+02</pdfrwt>
<totfact> 0.12018961E+05</totfact>
</mgrwt>
</event>
<event>
 5    1  0.1270834E+001  0.9192616E+02  0.7546771E-02  0.1298253E+00
          3   -1    0    0  501    0  0.00000000000E+00  0.00000000000E+00  0.42288709861E+02  0.42288709861E+02  0.00000000000E+00 0. -1.
         -3   -1    0    0    0  501 -0.00000000000E+00 -0.00000000000E+00 -0.49956709037E+02  0.49956709037E+02  0.00000000000E+00 0.  1.
         23    2    1    2    0    0  0.00000000000E+00  0.00000000000E+00 -0.76679991760E+01  0.92245418898E+02  0.91926161109E+02 0.  0.
        -13    1    3    3    0    0 -0.30486349111E+02 -0.30397997805E+02  0.12320014968E+02  0.44779889699E+02  0.00000000000E+00 0.  1.
         13    1    3    3    0    0  0.30486349111E+02  0.30397997805E+02 -0.19988014144E+02  0.47465529199E+02  0.00000000000E+00 0. -1.
<mgrwt>
<rscale>  0 0.91926161E+02</rscale>
<asrwt>0</asrwt>
<pdfrwt beam="1">  1        3 0.65059553E-02 0.91926161E+02</pdfrwt>
<pdfrwt beam="2">  1       -3 0.76856476E-02 0.91926161E+02</pdfrwt>
<totfact> 0.34477747E+04</totfact>
</mgrwt>
</event>
<event>
 5    1  0.1270834E+001  0.9025122E+02  0.7546771E-02  0.1302244E+00
          3   -1    0    0  501    0  0.00000000000E+00  0.00000000000E+00  0.37048035981E+02  0.37048035981E+02  0.00000000000E+00 0. -1.
         -3   -1    0    0    0  501 -0.00000000000E+00 -0.00000000000E+00 -0.54964340085E+02  0.54964340085E+02  0.00000000000E+00 0.  1.
         23    2    1    2    0    0  0.00000000000E+00  0.00000000000E+00 -0.17916304104E+02  0.92012376067E+02  0.90251223796E+02 0.  0.
        -13    1    3    3    0    0  0.17838823861E+02  0.23446649922E+02 -0.43806321183E+02  0.52791692574E+02  0.00000000000E+00 0.  1.
         13    1    3    3    0    0 -0.17838823861E+02 -0.23446649922E+02  0.25890017078E+02  0.39220683492E+02  0.00000000000E+00 0. -1.
<mgrwt>
<rscale>  0 0.90251224E+02</rscale>
<asrwt>0</asrwt>
<pdfrwt beam="1">  1        3 0.56996978E-02 0.90251224E+02</pdfrwt>
<pdfrwt beam="2">  1       -3 0.84560524E-02 0.90251224E+02</pdfrwt>
<totfact> 0.36267700E+04</totfact>
</mgrwt>
</event>
<event>
 5    1  0.1270834E+001  0.9049853E+02  0.7546771E-02  0.1301649E+00
          3   -1    0    0  501    0  0.00000000000E+00  0.00000000000E+00  0.20115858102E+02  0.20115858102E+02  0.00000000000E+00 0. -1.
         -3   -1    0    0    0  501 -0.00000000000E+00 -0.00000000000E+00 -0.10178516186E+03  0.10178516186E+03  0.00000000000E+00 0.  1.
         23    2    1    2    0    0  0.00000000000E+00  0.00000000000E+00 -0.81669303759E+02  0.12190101996E+03  0.90498527567E+02 0.  0.
        -13    1    3    3    0    0 -0.45052929484E+02 -0.76794570329E+00 -0.35258082041E+02  0.57214408543E+02  0.00000000000E+00 0.  1.
         13    1    3    3    0    0  0.45052929484E+02  0.76794570329E+00 -0.46411221718E+02  0.64686611420E+02  0.00000000000E+00 0. -1.
<mgrwt>
<rscale>  0 0.90498528E+02</rscale>
<asrwt>0</asrwt>
<pdfrwt beam="1">  1        3 0.30947474E-02 0.90498528E+02</pdfrwt>
<pdfrwt beam="2">  1       -3 0.15659256E-01 0.90498528E+02</pdfrwt>
<totfact> 0.33795897E+04</totfact>
</mgrwt>
</event>
<event>
 5    1  0.1270834E+001  0.9319753E+02  0.7546771E-02  0.1295288E+00
         -1   -1    0    0    0  501 -0.00000000000E+00  0.00000000000E+00  0.83510388089E+01  0.83510388089E+01  0.00000000000E+00 0.  1.
          1   -1    0    0  501    0  0.00000000000E+00 -0.00000000000E+00 -0.26002092542E+03  0.26002092542E+03  0.00000000000E+00 0. -1.
         23    2    1    2    0    0  0.00000000000E+00  0.00000000000E+00 -0.25166988661E+03  0.26837196423E+03  0.93197528708E+02 0.  0.
        -13    1    3    3    0    0  0.44682496839E+02  0.13046604017E+02 -0.11958849963E+03  0.12832828466E+03  0.00000000000E+00 0.  1.
         13    1    3    3    0    0 -0.44682496839E+02 -0.13046604017E+02 -0.13208138698E+03  0.14004367957E+03  0.00000000000E+00 0. -1.
<mgrwt>
<rscale>  0 0.93197529E+02</rscale>
<asrwt>0</asrwt>
<pdfrwt beam="2">  1        1 0.40003219E-01 0.93197529E+02</pdfrwt>
<pdfrwt beam="1">  1       -1 0.12847752E-02 0.93197529E+02</pdfrwt>
<totfact> 0.11752510E+05</totfact>
</mgrwt>
</event>
<event>
 5    1  0.1270834E+001  0.9836195E+02  0.7546771E-02  0.1283779E+00
          2   -1    0    0  501    0  0.00000000000E+00  0.00000000000E+00  0.27972197703E+03  0.27972197703E+03  0.00000000000E+00 0. -1.
         -2   -1    0    0    0  501 -0.00000000000E+00 -0.00000000000E+00 -0.86470436495E+01  0.86470436495E+01  0.00000000000E+00 0.  1.
         23    2    1    2    0    0  0.00000000000E+00  0.00000000000E+00  0.27107493338E+03  0.28836902068E+03  0.98361946811E+02 0.  0.
        -13    1    3    3    0    0 -0.13539969944E+02 -0.42985670462E+02  0.77814013979E+02  0.89922852616E+02  0.00000000000E+00 0.  1.
         13    1    3    3    0    0  0.13539969944E+02  0.42985670462E+02  0.19326091940E+03  0.19844616807E+03  0.00000000000E+00 0. -1.
<mgrwt>
<rscale>  0 0.98361947E+02</rscale>
<asrwt>0</asrwt>
<pdfrwt beam="1">  1        2 0.43034144E-01 0.98361947E+02</pdfrwt>
<pdfrwt beam="2">  1       -2 0.13303146E-02 0.98361947E+02</pdfrwt>
<totfact> 0.14278442E+05</totfact>
</mgrwt>
</event>
<event>
 5    1  0.1270834E+001  0.9430041E+02  0.7546771E-02  0.1292760E+00
          2   -1    0    0  501    0  0.00000000000E+00  0.00000000000E+00  0.46105394601E+02  0.46105394601E+02  0.00000000000E+00 0. -1.
         -2   -1    0    0    0  501 -0.00000000000E+00 -0.00000000000E+00 -0.48218692543E+02  0.48218692543E+02  0.00000000000E+00 0.  1.
         23    2    1    2    0    0  0.00000000000E+00  0.00000000000E+00 -0.21132979429E+01  0.94324087144E+02  0.94300410325E+02 0.  0.
        -11    1    3    3    0    0  0.31376037718E+02  0.21550107414E+02 -0.28889504252E+02  0.47785628889E+02  0.00000000000E+00 0.  1.
         11    1    3    3    0    0 -0.31376037718E+02 -0.21550107414E+02  0.26776206309E+02  0.46538458255E+02  0.00000000000E+00 0. -1.
<mgrwt>
<rscale>  0 0.94300410E+02</rscale>
<asrwt>0</asrwt>
<pdfrwt beam="1">  1        2 0.70931376E-02 0.94300410E+02</pdfrwt>
<pdfrwt beam="2">  1       -2 0.74182604E-02 0.94300410E+02</pdfrwt>
<totfact> 0.89814299E+04</totfact>
</mgrwt>
</event>
<event>
 5    1  0.1270834E+001  0.8896191E+02  0.7546771E-02  0.1305385E+00
         -3   -1    0    0    0  501 -0.00000000000E+00  0.00000000000E+00  0.51345919258E+02  0.51345919258E+02  0.00000000000E+00 0.  1.
          3   -1    0    0  501    0  0.00000000000E+00 -0.00000000000E+00 -0.38533836407E+02  0.38533836407E+02  0.00000000000E+00 0. -1.
         23    2    1    2    0    0  0.00000000000E+00  0.00000000000E+00  0.12812082851E+02  0.89879755665E+02  0.88961907642E+02 0.  0.
        -13    1    3    3    0    0 -0.35516422787E+02  0.21902826158E+02  0.21972968240E+02  0.47158895392E+02  0.00000000000E+00 0.  1.
         13    1    3    3    0    0  0.35516422787E+02 -0.21902826158E+02 -0.91608853895E+01  0.42720860273E+02  0.00000000000E+00 0. -1.
<mgrwt>
<rscale>  0 0.88961908E+02</rscale>
<asrwt>0</asrwt>
<pdfrwt beam="2">  1        3 0.59282825E-02 0.88961908E+02</pdfrwt>
<pdfrwt beam="1">  1       -3 0.78993723E-02 0.88961908E+02</pdfrwt>
<totfact> 0.37888316E+04</totfact>
</mgrwt>
</event>
<event>
 5    1  0.1270834E+001  0.7165543E+02  0.7546771E-02  0.1354552E+00
          1   -1    0    0  501    0  0.00000000000E+00  0.00000000000E+00  0.11586834122E+03  0.11586834122E+03  0.00000000000E+00 0.  1.
         -1   -1    0    0    0  501 -0.00000000000E+00 -0.00000000000E+00 -0.11078306792E+02  0.11078306792E+02  0.00000000000E+00 0. -1.
         23    2    1    2    0    0  0.00000000000E+00  0.00000000000E+00  0.10479003442E+03  0.12694664801E+03  0.71655426354E+02 0.  0.
        -11    1    3    3    0    0  0.24757877116E+02  0.15288579997E+02  0.89427174909E+02  0.94042079783E+02  0.00000000000E+00 0.  1.
         11    1    3    3    0    0 -0.24757877116E+02 -0.15288579997E+02  0.15362859514E+02  0.32904568225E+02  0.00000000000E+00 0. -1.
<mgrwt>
<rscale>  0 0.71655426E+02</rscale>
<asrwt>0</asrwt>
<pdfrwt beam="1">  1        1 0.17825898E-01 0.71655426E+02</pdfrwt>
<pdfrwt beam="2">  1       -1 0.17043550E-02 0.71655426E+02</pdfrwt>
<totfact> 0.20391795E+05</totfact>
</mgrwt>
</event>
<event>
 5    1  0.1270834E+001  0.9263694E+02  0.7546771E-02  0.1296589E+00
          1   -1    0    0  501    0  0.00000000000E+00  0.00000000000E+00  0.17835623059E+02  0.17835623059E+02  0.00000000000E+00 0. -1.
         -1   -1    0    0    0  501 -0.00000000000E+00 -0.00000000000E+00 -0.12028740557E+03  0.12028740557E+03  0.00000000000E+00 0.  1.
         23    2    1    2    0    0  0.00000000000E+00  0.00000000000E+00 -0.10245178251E+03  0.13812302863E+03  0.92636943482E+02 0.  0.
        -13    1    3    3    0    0 -0.22550598616E+02 -0.31151028263E+02 -0.89718468363E+02  0.97613111953E+02  0.00000000000E+00 0.  1.
         13    1    3    3    0    0  0.22550598616E+02  0.31151028263E+02 -0.12733314148E+02  0.40509916674E+02  0.00000000000E+00 0. -1.
<mgrwt>
<rscale>  0 0.92636943E+02</rscale>
<asrwt>0</asrwt>
<pdfrwt beam="1">  1        1 0.27439420E-02 0.92636943E+02</pdfrwt>
<pdfrwt beam="2">  1       -1 0.18505755E-01 0.92636943E+02</pdfrwt>
<totfact> 0.75329746E+04</totfact>
</mgrwt>
</event>
<event>
 5    1  0.1270834E+001  0.9094827E+02  0.7546771E-02  0.1300571E+00
          4   -1    0    0  501    0  0.00000000000E+00  0.00000000000E+00  0.23965027320E+02  0.23965027320E+02  0.00000000000E+00 0. -1.
         -4   -1    0    0    0  501 -0.00000000000E+00 -0.00000000000E+00 -0.86288114888E+02  0.86288114888E+02  0.00000000000E+00 0.  1.
         23    2    1    2    0    0  0.00000000000E+00  0.00000000000E+00 -0.62323087568E+02  0.11025314221E+03  0.90948271685E+02 0.  0.
        -11    1    3    3    0    0  0.73495818627E+01 -0.39692055543E+02 -0.57785759504E+01  0.40778273220E+02  0.00000000000E+00 0. -1.
         11    1    3    3    0    0 -0.73495818627E+01  0.39692055543E+02 -0.56544511618E+02  0.69474868988E+02  0.00000000000E+00 0.  1.
<mgrwt>
<rscale>  0 0.90948272E+02</rscale>
<asrwt>0</asrwt>
<pdfrwt beam="1">  1        4 0.36869274E-02 0.90948272E+02</pdfrwt>
<pdfrwt beam="2">  1       -4 0.13275094E-01 0.90948272E+02</pdfrwt>
<totfact> 0.26013828E+04</totfact>
</mgrwt>
</event>
<event>
 5    1  0.1270834E+001  0.8879814E+02  0.7546771E-02  0.1305789E+00
         -2   -1    0    0    0  501 -0.00000000000E+00  0.00000000000E+00  0.97130026088E+02  0.97130026088E+02  0.00000000000E+00 0.  1.
          2   -1    0    0  501    0  0.00000000000E+00 -0.00000000000E+00 -0.20295240320E+02  0.20295240320E+02  0.00000000000E+00 0. -1.
         23    2    1    2    0    0  0.00000000000E+00  0.00000000000E+00  0.76834785767E+02  0.11742526641E+03  0.88798135606E+02 0.  0.
        -13    1    3    3    0    0  0.47671702763E+01  0.39189383615E+02  0.65283072983E+02  0.76291633346E+02  0.00000000000E+00 0.  1.
         13    1    3    3    0    0 -0.47671702763E+01 -0.39189383615E+02  0.11551712785E+02  0.41133633062E+02  0.00000000000E+00 0. -1.
<mgrwt>
<rscale>  0 0.88798136E+02</rscale>
<asrwt>0</asrwt>
<pdfrwt beam="2">  1        2 0.31223447E-02 0.88798136E+02</pdfrwt>
<pdfrwt beam="1">  1       -2 0.14943081E-01 0.88798136E+02</pdfrwt>
<totfact> 0.85959905E+04</totfact>
</mgrwt>
</event>
<event>
 5    1  0.1270834E+001  0.9072343E+02  0.7546771E-02  0.1301109E+00
          2   -1    0    0  501    0  0.00000000000E+00  0.00000000000E+00  0.50829257947E+02  0.50829257947E+02  0.00000000000E+00 0. -1.
         -2   -1    0    0    0  501 -0.00000000000E+00 -0.00000000000E+00 -0.40482299850E+02  0.40482299850E+02  0.00000000000E+00 0.  1.
         23    2    1    2    0    0  0.00000000000E+00  0.00000000000E+00  0.10346958096E+02  0.91311557797E+02  0.90723431623E+02 0.  0.
        -11    1    3    3    0    0 -0.33696008255E+02 -0.68518698915E+01 -0.24604056936E+02  0.42281541020E+02  0.00000000000E+00 0.  1.
         11    1    3    3    0    0  0.33696008255E+02  0.68518698915E+01  0.34951015033E+02  0.49030016777E+02  0.00000000000E+00 0. -1.
<mgrwt>
<rscale>  0 0.90723432E+02</rscale>
<asrwt>0</asrwt>
<pdfrwt beam="1">  1        2 0.78198859E-02 0.90723432E+02</pdfrwt>
<pdfrwt beam="2">  1       -2 0.62280461E-02 0.90723432E+02</pdfrwt>
<totfact> 0.10296420E+05</totfact>
</mgrwt>
</event>
<event>
 5    1  0.1270834E+001  0.9306574E+02  0.7546771E-02  0.1295593E+00
         -2   -1    0    0    0  501 -0.00000000000E+00  0.00000000000E+00  0.17621687067E+02  0.17621687067E+02  0.00000000000E+00 0.  1.
          2   -1    0    0  501    0  0.00000000000E+00 -0.00000000000E+00 -0.12287745031E+03  0.12287745031E+03  0.00000000000E+00 0. -1.
         23    2    1    2    0    0  0.00000000000E+00  0.00000000000E+00 -0.10525576324E+03  0.14049913738E+03  0.93065739711E+02 0.  0.
        -13    1    3    3    0    0  0.35713400550E+02  0.27983032505E+01 -0.77920091721E+01  0.36660508546E+02  0.00000000000E+00 0.  1.
         13    1    3    3    0    0 -0.35713400550E+02 -0.27983032505E+01 -0.97463754073E+02  0.10383862883E+03  0.00000000000E+00 0. -1.
<mgrwt>
<rscale>  0 0.93065740E+02</rscale>
<asrwt>0</asrwt>
<pdfrwt beam="2">  1        2 0.18904222E-01 0.93065740E+02</pdfrwt>
<pdfrwt beam="1">  1       -2 0.27110289E-02 0.93065740E+02</pdfrwt>
<totfact> 0.12371340E+05</totfact>
</mgrwt>
</event>
<event>
 5    1  0.1270834E+001  0.9166083E+02  0.7546771E-02  0.1298879E+00
          2   -1    0    0  501    0  0.00000000000E+00  0.00000000000E+00  0.52088763205E+02  0.52088763205E+02  0.00000000000E+00 0. -1.
         -2   -1    0    0    0  501 -0.00000000000E+00 -0.00000000000E+00 -0.40323992272E+02  0.40323992272E+02  0.00000000000E+00 0.  1.
         23    2    1    2    0    0  0.00000000000E+00  0.00000000000E+00  0.11764770933E+02  0.92412755477E+02  0.91660828819E+02 0.  0.
        -13    1    3    3    0    0  0.35805985090E+02  0.18183841642E+02  0.28147620658E+02  0.49040893282E+02  0.00000000000E+00 0.  1.
         13    1    3    3    0    0 -0.35805985090E+02 -0.18183841642E+02 -0.16382849726E+02  0.43371862195E+02  0.00000000000E+00 0. -1.
<mgrwt>
<rscale>  0 0.91660829E+02</rscale>
<asrwt>0</asrwt>
<pdfrwt beam="1">  1        2 0.80136559E-02 0.91660829E+02</pdfrwt>
<pdfrwt beam="2">  1       -2 0.62036911E-02 0.91660829E+02</pdfrwt>
<totfact> 0.10063755E+05</totfact>
</mgrwt>
</event>
<event>
 5    1  0.1270834E+001  0.9054941E+02  0.7546771E-02  0.1301527E+00
         -2   -1    0    0    0  501 -0.00000000000E+00  0.00000000000E+00  0.56708256783E+01  0.56708256783E+01  0.00000000000E+00 0.  1.
          2   -1    0    0  501    0  0.00000000000E+00 -0.00000000000E+00 -0.36146395911E+03  0.36146395911E+03  0.00000000000E+00 0. -1.
         23    2    1    2    0    0  0.00000000000E+00  0.00000000000E+00 -0.35579313343E+03  0.36713478479E+03  0.90549414158E+02 0.  0.
        -13    1    3    3    0    0  0.13594352412E+02 -0.39716582090E+02 -0.10913850876E+03  0.11693343151E+03  0.00000000000E+00 0.  1.
         13    1    3    3    0    0 -0.13594352412E+02  0.39716582090E+02 -0.24665462467E+03  0.25020135327E+03  0.00000000000E+00 0. -1.
<mgrwt>
<rscale>  0 0.90549414E+02</rscale>
<asrwt>0</asrwt>
<pdfrwt beam="2">  1        2 0.55609841E-01 0.90549414E+02</pdfrwt>
<pdfrwt beam="1">  1       -2 0.87243469E-03 0.90549414E+02</pdfrwt>
<totfact> 0.19601107E+05</totfact>
</mgrwt>
</event>
<event>
 5    1  0.1270834E+001  0.8175066E+02  0.7546771E-02  0.1324155E+00
          1   -1    0    0  501    0  0.00000000000E+00  0.00000000000E+00  0.32324389251E+03  0.32324389251E+03  0.00000000000E+00 0. -1.
         -1   -1    0    0    0  501 -0.00000000000E+00 -0.00000000000E+00 -0.51688300692E+01  0.51688300692E+01  0.00000000000E+00 0.  1.
         23    2    1    2    0    0  0.00000000000E+00  0.00000000000E+00  0.31807506244E+03  0.32841272258E+03  0.81750663637E+02 0.  0.
        -11    1    3    3    0    0 -0.33475911232E+02  0.23280782516E+02  0.14756107170E+03  0.15309115373E+03  0.00000000000E+00 0.  1.
         11    1    3    3    0    0  0.33475911232E+02 -0.23280782516E+02  0.17051399074E+03  0.17532156885E+03  0.00000000000E+00 0. -1.
<mgrwt>
<rscale>  0 0.81750664E+02</rscale>
<asrwt>0</asrwt>
<pdfrwt beam="1">  1        1 0.49729814E-01 0.81750664E+02</pdfrwt>
<pdfrwt beam="2">  1       -1 0.79520488E-03 0.81750664E+02</pdfrwt>
<totfact> 0.17343180E+05</totfact>
</mgrwt>
</event>
<event>
 5    1  0.1270834E+001  0.9182524E+02  0.7546771E-02  0.1298491E+00
         -1   -1    0    0    0  501 -0.00000000000E+00  0.00000000000E+00  0.65117949271E+01  0.65117949271E+01  0.00000000000E+00 0.  1.
          1   -1    0    0  501    0  0.00000000000E+00 -0.00000000000E+00 -0.32371542365E+03  0.32371542365E+03  0.00000000000E+00 0. -1.
         23    2    1    2    0    0  0.00000000000E+00  0.00000000000E+00 -0.31720362872E+03  0.33022721858E+03  0.91825235171E+02 0.  0.
        -13    1    3    3    0    0  0.11046719482E+02 -0.43400273442E+02 -0.19498533557E+03  0.20006222740E+03  0.00000000000E+00 0.  1.
         13    1    3    3    0    0 -0.11046719482E+02  0.43400273442E+02 -0.12221829315E+03  0.13016499117E+03  0.00000000000E+00 0. -1.
<mgrwt>
<rscale>  0 0.91825235E+02</rscale>
<asrwt>0</asrwt>
<pdfrwt beam="2">  1        1 0.49802360E-01 0.91825235E+02</pdfrwt>
<pdfrwt beam="1">  1       -1 0.10018149E-02 0.91825235E+02</pdfrwt>
<totfact> 0.12753924E+05</totfact>
</mgrwt>
</event>
<event>
 5    1  0.1270834E+001  0.9033213E+02  0.7546771E-02  0.1302049E+00
          2   -1    0    0  501    0  0.00000000000E+00  0.00000000000E+00  0.27612088064E+03  0.27612088064E+03  0.00000000000E+00 0. -1.
         -2   -1    0    0    0  501 -0.00000000000E+00 -0.00000000000E+00 -0.73879721373E+01  0.73879721373E+01  0.00000000000E+00 0.  1.
         23    2    1    2    0    0  0.00000000000E+00  0.00000000000E+00  0.26873290850E+03  0.28350885278E+03  0.90332128784E+02 0.  0.
        -11    1    3    3    0    0  0.42882086190E+02 -0.90877593009E+01  0.16853345074E+03  0.17414070375E+03  0.00000000000E+00 0.  1.
         11    1    3    3    0    0 -0.42882086190E+02  0.90877593009E+01  0.10019945776E+03  0.10936814902E+03  0.00000000000E+00 0. -1.
<mgrwt>
<rscale>  0 0.90332129E+02</rscale>
<asrwt>0</asrwt>
<pdfrwt beam="1">  1        2 0.42480128E-01 0.90332129E+02</pdfrwt>
<pdfrwt beam="2">  1       -2 0.11366113E-02 0.90332129E+02</pdfrwt>
<totfact> 0.17857061E+05</totfact>
</mgrwt>
</event>
<event>
 5    1  0.1270834E+001  0.9313706E+02  0.7546771E-02  0.1295428E+00
          1   -1    0    0  501    0  0.00000000000E+00  0.00000000000E+00  0.19459134677E+03  0.19459134677E+03  0.00000000000E+00 0. -1.
         -1   -1    0    0    0  501 -0.00000000000E+00 -0.00000000000E+00 -0.11144524078E+02  0.11144524078E+02  0.00000000000E+00 0.  1.
         23    2    1    2    0    0  0.00000000000E+00  0.00000000000E+00  0.18344682270E+03  0.20573587085E+03  0.93137059207E+02 0.  0.
        -11    1    3    3    0    0 -0.56645999708E+01 -0.36540708963E+02  0.15425358496E+03  0.15862370433E+03  0.00000000000E+00 0.  1.
         11    1    3    3    0    0  0.56645999708E+01  0.36540708963E+02  0.29193237741E+02  0.47112166520E+02  0.00000000000E+00 0. -1.
<mgrwt>
<rscale>  0 0.93137059E+02</rscale>
<asrwt>0</asrwt>
<pdfrwt beam="1">  1        1 0.29937128E-01 0.93137059E+02</pdfrwt>
<pdfrwt beam="2">  1       -1 0.17145423E-02 0.93137059E+02</pdfrwt>
<totfact> 0.11123277E+05</totfact>
</mgrwt>
</event>
<event>
 5    1  0.1270834E+001  0.9831032E+02  0.7546771E-02  0.1283890E+00
         -1   -1    0    0    0  501 -0.00000000000E+00  0.00000000000E+00  0.16418978907E+02  0.16418978907E+02  0.00000000000E+00 0.  1.
          1   -1    0    0  501    0  0.00000000000E+00 -0.00000000000E+00 -0.14716077682E+03  0.14716077682E+03  0.00000000000E+00 0. -1.
         23    2    1    2    0    0  0.00000000000E+00  0.00000000000E+00 -0.13074179791E+03  0.16357975573E+03  0.98310318695E+02 0.  0.
        -13    1    3    3    0    0  0.25824259792E+02  0.32031185859E+02 -0.11012180381E+03  0.11755722409E+03  0.00000000000E+00 0.  1.
         13    1    3    3    0    0 -0.25824259792E+02 -0.32031185859E+02 -0.20619994101E+02  0.46022531635E+02  0.00000000000E+00 0. -1.
<mgrwt>
<rscale>  0 0.98310319E+02</rscale>
<asrwt>0</asrwt>
<pdfrwt beam="2">  1        1 0.22640121E-01 0.98310319E+02</pdfrwt>
<pdfrwt beam="1">  1       -1 0.25259966E-02 0.98310319E+02</pdfrwt>
<totfact> 0.91088245E+04</totfact>
</mgrwt>
</event>
<event>
 5    1  0.1270834E+001  0.8864283E+02  0.7546771E-02  0.1306172E+00
          4   -1    0    0  501    0  0.00000000000E+00  0.00000000000E+00  0.83943050797E+02  0.83943050797E+02  0.00000000000E+00 0.  1.
         -4   -1    0    0    0  501 -0.00000000000E+00 -0.00000000000E+00 -0.23401437338E+02  0.23401437338E+02  0.00000000000E+00 0. -1.
         23    2    1    2    0    0  0.00000000000E+00  0.00000000000E+00  0.60541613459E+02  0.10734448814E+03  0.88642834864E+02 0.  0.
        -13    1    3    3    0    0  0.35006459536E+00  0.24741712005E+02  0.74799775406E+02  0.78786301213E+02  0.00000000000E+00 0.  1.
         13    1    3    3    0    0 -0.35006459536E+00 -0.24741712005E+02 -0.14258161947E+02  0.28558186922E+02  0.00000000000E+00 0. -1.
<mgrwt>
<rscale>  0 0.88642835E+02</rscale>
<asrwt>0</asrwt>
<pdfrwt beam="1">  1        4 0.12914315E-01 0.88642835E+02</pdfrwt>
<pdfrwt beam="2">  1       -4 0.36002212E-02 0.88642835E+02</pdfrwt>
<totfact> 0.28065190E+04</totfact>
</mgrwt>
</event>
<event>
 5    1  0.1270834E+001  0.7142213E+02  0.7546771E-02  0.1355323E+00
          3   -1    0    0  501    0  0.00000000000E+00  0.00000000000E+00  0.17546293568E+02  0.17546293568E+02  0.00000000000E+00 0. -1.
         -3   -1    0    0    0  501 -0.00000000000E+00 -0.00000000000E+00 -0.72680880020E+02  0.72680880020E+02  0.00000000000E+00 0.  1.
         23    2    1    2    0    0  0.00000000000E+00  0.00000000000E+00 -0.55134586452E+02  0.90227173587E+02  0.71422127036E+02 0.  0.
        -11    1    3    3    0    0 -0.11526649246E+02 -0.29265045917E+02 -0.48930550481E+02  0.58167906320E+02  0.00000000000E+00 0. -1.
         11    1    3    3    0    0  0.11526649246E+02  0.29265045917E+02 -0.62040359712E+01  0.32059267267E+02  0.00000000000E+00 0.  1.
<mgrwt>
<rscale>  0 0.71422127E+02</rscale>
<asrwt>0</asrwt>
<pdfrwt beam="1">  1        3 0.26994298E-02 0.71422127E+02</pdfrwt>
<pdfrwt beam="2">  1       -3 0.11181674E-01 0.71422127E+02</pdfrwt>
<totfact> 0.68164385E+04</totfact>
</mgrwt>
</event>
<event>
 5    1  0.1270834E+001  0.9802046E+02  0.7546771E-02  0.1284515E+00
         -1   -1    0    0    0  501 -0.00000000000E+00  0.00000000000E+00  0.60248063729E+01  0.60248063729E+01  0.00000000000E+00 0.  1.
          1   -1    0    0  501    0  0.00000000000E+00 -0.00000000000E+00 -0.39868545360E+03  0.39868545360E+03  0.00000000000E+00 0. -1.
         23    2    1    2    0    0  0.00000000000E+00  0.00000000000E+00 -0.39266064723E+03  0.40471025997E+03  0.98020460347E+02 0.  0.
        -11    1    3    3    0    0 -0.45330597896E+02 -0.12119516646E+02 -0.13790230067E+03  0.14566670972E+03  0.00000000000E+00 0.  1.
         11    1    3    3    0    0  0.45330597896E+02  0.12119516646E+02 -0.25475834655E+03  0.25904355025E+03  0.00000000000E+00 0. -1.
<mgrwt>
<rscale>  0 0.98020460E+02</rscale>
<asrwt>0</asrwt>
<pdfrwt beam="2">  1        1 0.61336215E-01 0.98020460E+02</pdfrwt>
<pdfrwt beam="1">  1       -1 0.92689343E-03 0.98020460E+02</pdfrwt>
<totfact> 0.11116074E+05</totfact>
</mgrwt>
</event>
<event>
 5    1  0.1270834E+001  0.9198677E+02  0.7546771E-02  0.1298111E+00
          2   -1    0    0  501    0  0.00000000000E+00  0.00000000000E+00  0.12571856654E+03  0.12571856654E+03  0.00000000000E+00 0.  1.
         -2   -1    0    0    0  501 -0.00000000000E+00 -0.00000000000E+00 -0.16826404492E+02  0.16826404492E+02  0.00000000000E+00 0. -1.
         23    2    1    2    0    0  0.00000000000E+00  0.00000000000E+00  0.10889216205E+03  0.14254497103E+03  0.91986769759E+02 0.  0.
        -13    1    3    3    0    0  0.62133743398E+01 -0.44815334286E+02  0.41632713729E+02  0.61484169184E+02  0.00000000000E+00 0.  1.
         13    1    3    3    0    0 -0.62133743398E+01  0.44815334286E+02  0.67259448317E+02  0.81060801845E+02  0.00000000000E+00 0. -1.
<mgrwt>
<rscale>  0 0.91986770E+02</rscale>
<asrwt>0</asrwt>
<pdfrwt beam="1">  1        2 0.19341317E-01 0.91986770E+02</pdfrwt>
<pdfrwt beam="2">  1       -2 0.25886777E-02 0.91986770E+02</pdfrwt>
<totfact> 0.12868175E+05</totfact>
</mgrwt>
</event>
<event>
 5    1  0.1270834E+001  0.1168964E+03  0.7546771E-02  0.1248307E+00
          2   -1    0    0  501    0  0.00000000000E+00  0.00000000000E+00  0.14198919943E+03  0.14198919943E+03  0.00000000000E+00 0.  1.
         -2   -1    0    0    0  501 -0.00000000000E+00 -0.00000000000E+00 -0.24059504441E+02  0.24059504441E+02  0.00000000000E+00 0. -1.
         23    2    1    2    0    0  0.00000000000E+00  0.00000000000E+00  0.11792969499E+03  0.16604870387E+03  0.11689636049E+03 0.  0.
        -11    1    3    3    0    0  0.41957003776E+02  0.12321566717E+02  0.38770601594E+01  0.43900373207E+02  0.00000000000E+00 0. -1.
         11    1    3    3    0    0 -0.41957003776E+02 -0.12321566717E+02  0.11405263483E+03  0.12214833066E+03  0.00000000000E+00 0.  1.
<mgrwt>
<rscale>  0 0.11689636E+03</rscale>
<asrwt>0</asrwt>
<pdfrwt beam="1">  1        2 0.21844492E-01 0.11689636E+03</pdfrwt>
<pdfrwt beam="2">  1       -2 0.37014623E-02 0.11689636E+03</pdfrwt>
<totfact> 0.69002378E+04</totfact>
</mgrwt>
</event>
<event>
 5    1  0.1270834E+001  0.9032731E+02  0.7546771E-02  0.1302061E+00
          1   -1    0    0  501    0  0.00000000000E+00  0.00000000000E+00  0.56160530047E+02  0.56160530047E+02  0.00000000000E+00 0. -1.
         -1   -1    0    0    0  501 -0.00000000000E+00 -0.00000000000E+00 -0.36320091341E+02  0.36320091341E+02  0.00000000000E+00 0.  1.
         23    2    1    2    0    0  0.00000000000E+00  0.00000000000E+00  0.19840438706E+02  0.92480621388E+02  0.90327306637E+02 0.  0.
        -11    1    3    3    0    0  0.14976641249E+02  0.41344476193E+02 -0.62532687381E+00  0.43977909551E+02  0.00000000000E+00 0.  1.
         11    1    3    3    0    0 -0.14976641249E+02 -0.41344476193E+02  0.20465765580E+02  0.48502711837E+02  0.00000000000E+00 0. -1.
<mgrwt>
<rscale>  0 0.90327307E+02</rscale>
<asrwt>0</asrwt>
<pdfrwt beam="1">  1        1 0.86400816E-02 0.90327307E+02</pdfrwt>
<pdfrwt beam="2">  1       -1 0.55877063E-02 0.90327307E+02</pdfrwt>
<totfact> 0.97927482E+04</totfact>
</mgrwt>
</event>
<event>
 5    1  0.1270834E+001  0.9123612E+02  0.7546771E-02  0.1299886E+00
          2   -1    0    0  501    0  0.00000000000E+00  0.00000000000E+00  0.58725428898E+02  0.58725428898E+02  0.00000000000E+00 0. -1.
         -2   -1    0    0    0  501 -0.00000000000E+00 -0.00000000000E+00 -0.35436226781E+02  0.35436226781E+02  0.00000000000E+00 0.  1.
         23    2    1    2    0    0  0.00000000000E+00  0.00000000000E+00  0.23289202117E+02  0.94161655679E+02  0.91236124781E+02 0.  0.
        -13    1    3    3    0    0 -0.83436363832E+01  0.26675212134E+02 -0.25564536101E+02  0.37877812985E+02  0.00000000000E+00 0.  1.
         13    1    3    3    0    0  0.83436363832E+01 -0.26675212134E+02  0.48853738219E+02  0.56283842694E+02  0.00000000000E+00 0. -1.
<mgrwt>
<rscale>  0 0.91236125E+02</rscale>
<asrwt>0</asrwt>
<pdfrwt beam="1">  1        2 0.90346814E-02 0.91236125E+02</pdfrwt>
<pdfrwt beam="2">  1       -2 0.54517272E-02 0.91236125E+02</pdfrwt>
<totfact> 0.10526756E+05</totfact>
</mgrwt>
</event>
<event>
 5    1  0.1270834E+001  0.9542689E+02  0.7546771E-02  0.1290218E+00
          1   -1    0    0  501    0  0.00000000000E+00  0.00000000000E+00  0.47028823787E+03  0.47028823787E+03  0.00000000000E+00 0. -1.
         -1   -1    0    0    0  501 -0.00000000000E+00 -0.00000000000E+00 -0.48408030003E+01  0.48408030003E+01  0.00000000000E+00 0.  1.
         23    2    1    2    0    0  0.00000000000E+00  0.00000000000E+00  0.46544743487E+03  0.47512904087E+03  0.95426887467E+02 0.  0.
        -11    1    3    3    0    0  0.39110401983E+02 -0.26692626255E+02  0.20349878332E+03  0.20893509675E+03  0.00000000000E+00 0.  1.
         11    1    3    3    0    0 -0.39110401983E+02  0.26692626255E+02  0.26194865155E+03  0.26619394413E+03  0.00000000000E+00 0. -1.
<mgrwt>
<rscale>  0 0.95426887E+02</rscale>
<asrwt>0</asrwt>
<pdfrwt beam="1">  1        1 0.72352001E-01 0.95426887E+02</pdfrwt>
<pdfrwt beam="2">  1       -1 0.74473929E-03 0.95426887E+02</pdfrwt>
<totfact> 0.12243313E+05</totfact>
</mgrwt>
</event>
<event>
 5    1  0.1270834E+001  0.8953585E+02  0.7546771E-02  0.1303980E+00
          2   -1    0    0  501    0  0.00000000000E+00  0.00000000000E+00  0.73412201040E+02  0.73412201040E+02  0.00000000000E+00 0. -1.
         -2   -1    0    0    0  501 -0.00000000000E+00 -0.00000000000E+00 -0.27300188931E+02  0.27300188931E+02  0.00000000000E+00 0.  1.
         23    2    1    2    0    0  0.00000000000E+00  0.00000000000E+00  0.46112012109E+02  0.10071238997E+03  0.89535846637E+02 0.  0.
        -11    1    3    3    0    0 -0.24150593290E+02  0.71089466989E+01  0.64695577786E+02  0.69421222004E+02  0.00000000000E+00 0. -1.
         11    1    3    3    0    0  0.24150593290E+02 -0.71089466989E+01 -0.18583565678E+02  0.31291167967E+02  0.00000000000E+00 0.  1.
<mgrwt>
<rscale>  0 0.89535847E+02</rscale>
<asrwt>0</asrwt>
<pdfrwt beam="1">  1        2 0.11294185E-01 0.89535847E+02</pdfrwt>
<pdfrwt beam="2">  1       -2 0.42000291E-02 0.89535847E+02</pdfrwt>
<totfact> 0.11791084E+05</totfact>
</mgrwt>
</event>
<event>
 5    1  0.1270834E+001  0.9021792E+02  0.7546771E-02  0.1302325E+00
         -2   -1    0    0    0  501 -0.00000000000E+00  0.00000000000E+00  0.56649016886E+02  0.56649016886E+02  0.00000000000E+00 0.  1.
          2   -1    0    0  501    0  0.00000000000E+00 -0.00000000000E+00 -0.35919748250E+02  0.35919748250E+02  0.00000000000E+00 0. -1.
         23    2    1    2    0    0  0.00000000000E+00  0.00000000000E+00  0.20729268637E+02  0.92568765136E+02  0.90217923389E+02 0.  0.
        -11    1    3    3    0    0 -0.43951951811E+02  0.61517273734E+01  0.18649728790E+02  0.48139694657E+02  0.00000000000E+00 0.  1.
         11    1    3    3    0    0  0.43951951811E+02 -0.61517273734E+01  0.20795398463E+01  0.44429070479E+02  0.00000000000E+00 0. -1.
<mgrwt>
<rscale>  0 0.90217923E+02</rscale>
<asrwt>0</asrwt>
<pdfrwt beam="2">  1        2 0.55261151E-02 0.90217923E+02</pdfrwt>
<pdfrwt beam="1">  1       -2 0.87152333E-02 0.90217923E+02</pdfrwt>
<totfact> 0.95667377E+04</totfact>
</mgrwt>
</event>
<event>
 5    1  0.1270834E+001  0.9059045E+02  0.7546771E-02  0.1301428E+00
          3   -1    0    0  501    0  0.00000000000E+00  0.00000000000E+00  0.29125557401E+02  0.29125557401E+02  0.00000000000E+00 0. -1.
         -3   -1    0    0    0  501 -0.00000000000E+00 -0.00000000000E+00 -0.70441818709E+02  0.70441818709E+02  0.00000000000E+00 0.  1.
         23    2    1    2    0    0  0.00000000000E+00  0.00000000000E+00 -0.41316261307E+02  0.99567376110E+02  0.90590446169E+02 0.  0.
        -11    1    3    3    0    0  0.28913792278E+02 -0.13012049949E+00  0.17662786068E+02  0.33882124002E+02  0.00000000000E+00 0. -1.
         11    1    3    3    0    0 -0.28913792278E+02  0.13012049949E+00 -0.58979047375E+02  0.65685252108E+02  0.00000000000E+00 0.  1.
<mgrwt>
<rscale>  0 0.90590446E+02</rscale>
<asrwt>0</asrwt>
<pdfrwt beam="1">  1        3 0.44808551E-02 0.90590446E+02</pdfrwt>
<pdfrwt beam="2">  1       -3 0.10837203E-01 0.90590446E+02</pdfrwt>
<totfact> 0.35318581E+04</totfact>
</mgrwt>
</event>
<event>
 5    1  0.1270834E+001  0.9364943E+02  0.7546771E-02  0.1294247E+00
         -1   -1    0    0    0  501 -0.00000000000E+00  0.00000000000E+00  0.75138938254E+01  0.75138938254E+01  0.00000000000E+00 0.  1.
          1   -1    0    0  501    0  0.00000000000E+00 -0.00000000000E+00 -0.29179993938E+03  0.29179993938E+03  0.00000000000E+00 0. -1.
         23    2    1    2    0    0  0.00000000000E+00  0.00000000000E+00 -0.28428604556E+03  0.29931383321E+03  0.93649426326E+02 0.  0.
        -13    1    3    3    0    0 -0.13781549130E+02 -0.44655988191E+02 -0.13284383479E+03  0.14082461724E+03  0.00000000000E+00 0.  1.
         13    1    3    3    0    0  0.13781549130E+02  0.44655988191E+02 -0.15144221077E+03  0.15848921597E+03  0.00000000000E+00 0. -1.
<mgrwt>
<rscale>  0 0.93649426E+02</rscale>
<asrwt>0</asrwt>
<pdfrwt beam="2">  1        1 0.44892294E-01 0.93649426E+02</pdfrwt>
<pdfrwt beam="1">  1       -1 0.11559838E-02 0.93649426E+02</pdfrwt>
<totfact> 0.11865432E+05</totfact>
</mgrwt>
</event>
<event>
 5    1  0.1270834E+001  0.8555228E+02  0.7546771E-02  0.1313995E+00
          1   -1    0    0  501    0  0.00000000000E+00  0.00000000000E+00  0.39250709391E+02  0.39250709391E+02  0.00000000000E+00 0. -1.
         -1   -1    0    0    0  501 -0.00000000000E+00 -0.00000000000E+00 -0.46618222964E+02  0.46618222964E+02  0.00000000000E+00 0.  1.
         23    2    1    2    0    0  0.00000000000E+00  0.00000000000E+00 -0.73675135730E+01  0.85868932355E+02  0.85552283941E+02 0.  0.
        -13    1    3    3    0    0 -0.79401315510E+01 -0.40920917720E+02  0.59554924536E+01  0.42107423175E+02  0.00000000000E+00 0.  1.
         13    1    3    3    0    0  0.79401315510E+01  0.40920917720E+02 -0.13323006027E+02  0.43761509180E+02  0.00000000000E+00 0. -1.
<mgrwt>
<rscale>  0 0.85552284E+02</rscale>
<asrwt>0</asrwt>
<pdfrwt beam="1">  1        1 0.60385707E-02 0.85552284E+02</pdfrwt>
<pdfrwt beam="2">  1       -1 0.71720343E-02 0.85552284E+02</pdfrwt>
<totfact> 0.10811471E+05</totfact>
</mgrwt>
</event>
<event>
 5    1  0.1270834E+001  0.9131271E+02  0.7546771E-02  0.1299704E+00
          1   -1    0    0  501    0  0.00000000000E+00  0.00000000000E+00  0.11804329320E+03  0.11804329320E+03  0.00000000000E+00 0. -1.
         -1   -1    0    0    0  501 -0.00000000000E+00 -0.00000000000E+00 -0.17658799348E+02  0.17658799348E+02  0.00000000000E+00 0.  1.
         23    2    1    2    0    0  0.00000000000E+00  0.00000000000E+00  0.10038449385E+03  0.13570209255E+03  0.91312711688E+02 0.  0.
        -13    1    3    3    0    0 -0.27118203607E+02  0.18416695110E+02  0.97420425840E+02  0.10278769866E+03  0.00000000000E+00 0. -1.
         13    1    3    3    0    0  0.27118203607E+02 -0.18416695110E+02  0.29640680134E+01  0.32914393885E+02  0.00000000000E+00 0.  1.
<mgrwt>
<rscale>  0 0.91312712E+02</rscale>
<asrwt>0</asrwt>
<pdfrwt beam="1">  1        1 0.18160506E-01 0.91312712E+02</pdfrwt>
<pdfrwt beam="2">  1       -1 0.27167384E-02 0.91312712E+02</pdfrwt>
<totfact> 0.10699846E+05</totfact>
</mgrwt>
</event>
<event>
 5    1  0.1270834E+001  0.9093267E+02  0.7546771E-02  0.1300609E+00
          3   -1    0    0  501    0  0.00000000000E+00  0.00000000000E+00  0.86602222124E+02  0.86602222124E+02  0.00000000000E+00 0. -1.
         -3   -1    0    0    0  501 -0.00000000000E+00 -0.00000000000E+00 -0.23869915788E+02  0.23869915788E+02  0.00000000000E+00 0.  1.
         23    2    1    2    0    0  0.00000000000E+00  0.00000000000E+00  0.62732306337E+02  0.11047213791E+03  0.90932672877E+02 0.  0.
        -13    1    3    3    0    0  0.12826453197E+02 -0.26197669354E+02 -0.11004234041E+02  0.31175775019E+02  0.00000000000E+00 0. -1.
         13    1    3    3    0    0 -0.12826453197E+02  0.26197669354E+02  0.73736540378E+02  0.79296362893E+02  0.00000000000E+00 0.  1.
<mgrwt>
<rscale>  0 0.90932673E+02</rscale>
<asrwt>0</asrwt>
<pdfrwt beam="1">  1        3 0.13323419E-01 0.90932673E+02</pdfrwt>
<pdfrwt beam="2">  1       -3 0.36722948E-02 0.90932673E+02</pdfrwt>
<totfact> 0.34159190E+04</totfact>
</mgrwt>
</event>
<event>
 5    1  0.1270834E+001  0.9193221E+02  0.7546771E-02  0.1298239E+00
         -1   -1    0    0    0  501 -0.00000000000E+00  0.00000000000E+00  0.27300564362E+02  0.27300564362E+02  0.00000000000E+00 0.  1.
          1   -1    0    0  501    0  0.00000000000E+00 -0.00000000000E+00 -0.77393373361E+02  0.77393373361E+02  0.00000000000E+00 0. -1.
         23    2    1    2    0    0  0.00000000000E+00  0.00000000000E+00 -0.50092808999E+02  0.10469393772E+03  0.91932209168E+02 0.  0.
        -13    1    3    3    0    0 -0.66104696436E+01 -0.45024080018E+02 -0.17664563167E+02  0.48814986246E+02  0.00000000000E+00 0.  1.
         13    1    3    3    0    0  0.66104696436E+01  0.45024080018E+02 -0.32428245832E+02  0.55878951476E+02  0.00000000000E+00 0. -1.
<mgrwt>
<rscale>  0 0.91932209E+02</rscale>
<asrwt>0</asrwt>
<pdfrwt beam="2">  1        1 0.11906673E-01 0.91932209E+02</pdfrwt>
<pdfrwt beam="1">  1       -1 0.42000869E-02 0.91932209E+02</pdfrwt>
<totfact> 0.97970554E+04</totfact>
</mgrwt>
</event>
<event>
 5    1  0.1270834E+001  0.9193530E+02  0.7546771E-02  0.1298232E+00
         -1   -1    0    0    0  501 -0.00000000000E+00  0.00000000000E+00  0.65203032731E+01  0.65203032731E+01  0.00000000000E+00 0.  1.
          1   -1    0    0  501    0  0.00000000000E+00 -0.00000000000E+00 -0.32406848460E+03  0.32406848460E+03  0.00000000000E+00 0. -1.
         23    2    1    2    0    0  0.00000000000E+00  0.00000000000E+00 -0.31754818133E+03  0.33058878788E+03  0.91935299007E+02 0.  0.
        -11    1    3    3    0    0 -0.41166229589E+02  0.18822518393E+02 -0.12998922700E+03  0.13764499552E+03  0.00000000000E+00 0. -1.
         11    1    3    3    0    0  0.41166229589E+02 -0.18822518393E+02 -0.18755895433E+03  0.19294379236E+03  0.00000000000E+00 0.  1.
<mgrwt>
<rscale>  0 0.91935299E+02</rscale>
<asrwt>0</asrwt>
<pdfrwt beam="2">  1        1 0.49856682E-01 0.91935299E+02</pdfrwt>
<pdfrwt beam="1">  1       -1 0.10031237E-02 0.91935299E+02</pdfrwt>
<totfact> 0.12715841E+05</totfact>
</mgrwt>
</event>
<event>
 5    1  0.1270834E+001  0.8011348E+02  0.7546771E-02  0.1328730E+00
          1   -1    0    0  501    0  0.00000000000E+00  0.00000000000E+00  0.47553212914E+03  0.47553212914E+03  0.00000000000E+00 0. -1.
         -1   -1    0    0    0  501 -0.00000000000E+00 -0.00000000000E+00 -0.33742040022E+01  0.33742040022E+01  0.00000000000E+00 0.  1.
         23    2    1    2    0    0  0.00000000000E+00  0.00000000000E+00  0.47215792514E+03  0.47890633315E+03  0.80113479848E+02 0.  0.
        -11    1    3    3    0    0 -0.28980907584E+02 -0.27649199964E+02  0.23855201793E+03  0.24189137339E+03  0.00000000000E+00 0. -1.
         11    1    3    3    0    0  0.28980907584E+02  0.27649199964E+02  0.23360590722E+03  0.23701495976E+03  0.00000000000E+00 0.  1.
<mgrwt>
<rscale>  0 0.80113480E+02</rscale>
<asrwt>0</asrwt>
<pdfrwt beam="1">  1        1 0.73158736E-01 0.80113480E+02</pdfrwt>
<pdfrwt beam="2">  1       -1 0.51910868E-03 0.80113480E+02</pdfrwt>
<totfact> 0.19457141E+05</totfact>
</mgrwt>
</event>
<event>
 5    1  0.1270834E+001  0.9254394E+02  0.7546771E-02  0.1296806E+00
          2   -1    0    0  501    0  0.00000000000E+00  0.00000000000E+00  0.16589277638E+03  0.16589277638E+03  0.00000000000E+00 0. -1.
         -2   -1    0    0    0  501 -0.00000000000E+00 -0.00000000000E+00 -0.12906499632E+02  0.12906499632E+02  0.00000000000E+00 0.  1.
         23    2    1    2    0    0  0.00000000000E+00  0.00000000000E+00  0.15298627675E+03  0.17879927601E+03  0.92543936749E+02 0.  0.
        -11    1    3    3    0    0  0.35848141010E+02  0.86285150363E+01  0.13050603143E+03  0.13561476588E+03  0.00000000000E+00 0.  1.
         11    1    3    3    0    0 -0.35848141010E+02 -0.86285150363E+01  0.22480245318E+02  0.43184510130E+02  0.00000000000E+00 0. -1.
<mgrwt>
<rscale>  0 0.92543937E+02</rscale>
<asrwt>0</asrwt>
<pdfrwt beam="1">  1        2 0.25521964E-01 0.92543937E+02</pdfrwt>
<pdfrwt beam="2">  1       -2 0.19856154E-02 0.92543937E+02</pdfrwt>
<totfact> 0.13901617E+05</totfact>
</mgrwt>
</event>
<event>
 5    1  0.1270834E+001  0.8836199E+02  0.7546771E-02  0.1306868E+00
          2   -1    0    0  501    0  0.00000000000E+00  0.00000000000E+00  0.20307184527E+03  0.20307184527E+03  0.00000000000E+00 0. -1.
         -2   -1    0    0    0  501 -0.00000000000E+00 -0.00000000000E+00 -0.96121664696E+01  0.96121664696E+01  0.00000000000E+00 0.  1.
         23    2    1    2    0    0  0.00000000000E+00  0.00000000000E+00  0.19345967880E+03  0.21268401174E+03  0.88361991422E+02 0.  0.
        -11    1    3    3    0    0  0.32663471833E+02 -0.52755340041E+01  0.26257741371E+02  0.42239822835E+02  0.00000000000E+00 0.  1.
         11    1    3    3    0    0 -0.32663471833E+02  0.52755340041E+01  0.16720193743E+03  0.17044418891E+03  0.00000000000E+00 0. -1.
<mgrwt>
<rscale>  0 0.88361991E+02</rscale>
<asrwt>0</asrwt>
<pdfrwt beam="1">  1        2 0.31241819E-01 0.88361991E+02</pdfrwt>
<pdfrwt beam="2">  1       -2 0.14787950E-02 0.88361991E+02</pdfrwt>
<totfact> 0.16919617E+05</totfact>
</mgrwt>
</event>
<event>
 5    1  0.1270834E+001  0.9128636E+02  0.7546771E-02  0.1299766E+00
          4   -1    0    0  501    0  0.00000000000E+00  0.00000000000E+00  0.13620000891E+03  0.13620000891E+03  0.00000000000E+00 0. -1.
         -4   -1    0    0    0  501 -0.00000000000E+00 -0.00000000000E+00 -0.15295886925E+02  0.15295886925E+02  0.00000000000E+00 0.  1.
         23    2    1    2    0    0  0.00000000000E+00  0.00000000000E+00  0.12090412198E+03  0.15149589583E+03  0.91286361202E+02 0.  0.
        -11    1    3    3    0    0 -0.31483148200E+02 -0.38139519136E+01  0.59746164406E+01  0.32271208397E+02  0.00000000000E+00 0.  1.
         11    1    3    3    0    0  0.31483148200E+02  0.38139519136E+01  0.11492950554E+03  0.11922468743E+03  0.00000000000E+00 0. -1.
<mgrwt>
<rscale>  0 0.91286361E+02</rscale>
<asrwt>0</asrwt>
<pdfrwt beam="1">  1        4 0.20953847E-01 0.91286361E+02</pdfrwt>
<pdfrwt beam="2">  1       -4 0.23532135E-02 0.91286361E+02</pdfrwt>
<totfact> 0.23522021E+04</totfact>
</mgrwt>
</event>
<event>
 5    1  0.1270834E+001  0.9072022E+02  0.7546771E-02  0.1301117E+00
          2   -1    0    0  501    0  0.00000000000E+00  0.00000000000E+00  0.26596413587E+03  0.26596413587E+03  0.00000000000E+00 0.  1.
         -2   -1    0    0    0  501 -0.00000000000E+00 -0.00000000000E+00 -0.77361542703E+01  0.77361542703E+01  0.00000000000E+00 0. -1.
         23    2    1    2    0    0  0.00000000000E+00  0.00000000000E+00  0.25822798160E+03  0.27370029014E+03  0.90720220138E+02 0.  0.
        -11    1    3    3    0    0 -0.39305081907E+02 -0.15571074026E+02  0.17870548855E+03  0.18363822981E+03  0.00000000000E+00 0.  1.
         11    1    3    3    0    0  0.39305081907E+02  0.15571074026E+02  0.79522493054E+02  0.90062060334E+02  0.00000000000E+00 0. -1.
<mgrwt>
<rscale>  0 0.90720220E+02</rscale>
<asrwt>0</asrwt>
<pdfrwt beam="1">  1        2 0.40917552E-01 0.90720220E+02</pdfrwt>
<pdfrwt beam="2">  1       -2 0.11901778E-02 0.90720220E+02</pdfrwt>
<totfact> 0.17408936E+05</totfact>
</mgrwt>
</event>
<event>
 5    1  0.1270834E+001  0.9179672E+02  0.7546771E-02  0.1298558E+00
          2   -1    0    0  501    0  0.00000000000E+00  0.00000000000E+00  0.27801472739E+03  0.27801472739E+03  0.00000000000E+00 0. -1.
         -2   -1    0    0    0  501 -0.00000000000E+00 -0.00000000000E+00 -0.75775104267E+01  0.75775104267E+01  0.00000000000E+00 0.  1.
         23    2    1    2    0    0  0.00000000000E+00  0.00000000000E+00  0.27043721697E+03  0.28559223782E+03  0.91796720979E+02 0.  0.
        -11    1    3    3    0    0 -0.22536677279E+02 -0.38647927678E+02  0.16711275613E+03  0.17299779593E+03  0.00000000000E+00 0.  1.
         11    1    3    3    0    0  0.22536677279E+02  0.38647927678E+02  0.10332446084E+03  0.11259444189E+03  0.00000000000E+00 0. -1.
<mgrwt>
<rscale>  0 0.91796721E+02</rscale>
<asrwt>0</asrwt>
<pdfrwt beam="1">  1        2 0.42771489E-01 0.91796721E+02</pdfrwt>
<pdfrwt beam="2">  1       -2 0.11657710E-02 0.91796721E+02</pdfrwt>
<totfact> 0.17149600E+05</totfact>
</mgrwt>
</event>
<event>
 5    1  0.1270834E+001  0.9158185E+02  0.7546771E-02  0.1299066E+00
          1   -1    0    0  501    0  0.00000000000E+00  0.00000000000E+00  0.82094724588E+02  0.82094724588E+02  0.00000000000E+00 0.  1.
         -1   -1    0    0    0  501 -0.00000000000E+00 -0.00000000000E+00 -0.25541335242E+02  0.25541335242E+02  0.00000000000E+00 0. -1.
         23    2    1    2    0    0  0.00000000000E+00  0.00000000000E+00  0.56553389346E+02  0.10763605983E+03  0.91581851528E+02 0.  0.
        -11    1    3    3    0    0 -0.99206913838E+01  0.43647209941E+02  0.39629732086E+02  0.59783063809E+02  0.00000000000E+00 0.  1.
         11    1    3    3    0    0  0.99206913838E+01 -0.43647209941E+02  0.16923657259E+02  0.47852996021E+02  0.00000000000E+00 0. -1.
<mgrwt>
<rscale>  0 0.91581852E+02</rscale>
<asrwt>0</asrwt>
<pdfrwt beam="1">  1        1 0.12629958E-01 0.91581852E+02</pdfrwt>
<pdfrwt beam="2">  1       -1 0.39294362E-02 0.91581852E+02</pdfrwt>
<totfact> 0.99933405E+04</totfact>
</mgrwt>
</event>
<event>
 5    1  0.1270834E+001  0.8926456E+02  0.7546771E-02  0.1304642E+00
          1   -1    0    0  501    0  0.00000000000E+00  0.00000000000E+00  0.15994100084E+03  0.15994100084E+03  0.00000000000E+00 0. -1.
         -1   -1    0    0    0  501 -0.00000000000E+00 -0.00000000000E+00 -0.12454846445E+02  0.12454846445E+02  0.00000000000E+00 0.  1.
         23    2    1    2    0    0  0.00000000000E+00  0.00000000000E+00  0.14748615439E+03  0.17239584728E+03  0.89264564205E+02 0.  0.
        -13    1    3    3    0    0 -0.37809383864E+02  0.14127016957E+02  0.36951173618E+02  0.54722128504E+02  0.00000000000E+00 0.  1.
         13    1    3    3    0    0  0.37809383864E+02 -0.14127016957E+02  0.11053498077E+03  0.11767371878E+03  0.00000000000E+00 0. -1.
<mgrwt>
<rscale>  0 0.89264564E+02</rscale>
<asrwt>0</asrwt>
<pdfrwt beam="1">  1        1 0.24606306E-01 0.89264564E+02</pdfrwt>
<pdfrwt beam="2">  1       -1 0.19161303E-02 0.89264564E+02</pdfrwt>
<totfact> 0.12012639E+05</totfact>
</mgrwt>
</event>
<event>
 5    1  0.1270834E+001  0.9017428E+02  0.7546771E-02  0.1302430E+00
         -1   -1    0    0    0  501 -0.00000000000E+00  0.00000000000E+00  0.40459044836E+02  0.40459044836E+02  0.00000000000E+00 0.  1.
          1   -1    0    0  501    0  0.00000000000E+00 -0.00000000000E+00 -0.50244645316E+02  0.50244645316E+02  0.00000000000E+00 0. -1.
         23    2    1    2    0    0  0.00000000000E+00  0.00000000000E+00 -0.97856004804E+01  0.90703690152E+02  0.90174283642E+02 0.  0.
        -13    1    3    3    0    0  0.69767852423E+01  0.79518317881E+01 -0.48978680477E+02  0.50108066241E+02  0.00000000000E+00 0. -1.
         13    1    3    3    0    0 -0.69767852423E+01 -0.79518317881E+01  0.39193079997E+02  0.40595623911E+02  0.00000000000E+00 0.  1.
<mgrwt>
<rscale>  0 0.90174284E+02</rscale>
<asrwt>0</asrwt>
<pdfrwt beam="2">  1        1 0.77299454E-02 0.90174284E+02</pdfrwt>
<pdfrwt beam="1">  1       -1 0.62244685E-02 0.90174284E+02</pdfrwt>
<totfact> 0.96772419E+04</totfact>
</mgrwt>
</event>
<event>
 5    1  0.1270834E+001  0.8249447E+02  0.7546771E-02  0.1322118E+00
         -3   -1    0    0    0  501 -0.00000000000E+00  0.00000000000E+00  0.19236843344E+03  0.19236843344E+03  0.00000000000E+00 0.  1.
          3   -1    0    0  501    0  0.00000000000E+00 -0.00000000000E+00 -0.88441451309E+01  0.88441451309E+01  0.00000000000E+00 0. -1.
         23    2    1    2    0    0  0.00000000000E+00  0.00000000000E+00  0.18352428831E+03  0.20121257857E+03  0.82494468758E+02 0.  0.
        -13    1    3    3    0    0 -0.20454718582E+02  0.30183469301E+02  0.13879936364E+03  0.14350853870E+03  0.00000000000E+00 0.  1.
         13    1    3    3    0    0  0.20454718582E+02 -0.30183469301E+02  0.44724924666E+02  0.57704039873E+02  0.00000000000E+00 0. -1.
<mgrwt>
<rscale>  0 0.82494469E+02</rscale>
<asrwt>0</asrwt>
<pdfrwt beam="2">  1        3 0.13606379E-02 0.82494469E+02</pdfrwt>
<pdfrwt beam="1">  1       -3 0.29595140E-01 0.82494469E+02</pdfrwt>
<totfact> 0.37177129E+04</totfact>
</mgrwt>
</event>
<event>
 5    1  0.1270834E+001  0.9283113E+02  0.7546771E-02  0.1296137E+00
          1   -1    0    0  501    0  0.00000000000E+00  0.00000000000E+00  0.26365715725E+02  0.26365715725E+02  0.00000000000E+00 0. -1.
         -1   -1    0    0    0  501 -0.00000000000E+00 -0.00000000000E+00 -0.81712357409E+02  0.81712357409E+02  0.00000000000E+00 0.  1.
         23    2    1    2    0    0  0.00000000000E+00  0.00000000000E+00 -0.55346641684E+02  0.10807807313E+03  0.92831132421E+02 0.  0.
        -11    1    3    3    0    0 -0.45637106076E+01  0.25834091695E+02  0.16906380215E+02  0.31209829224E+02  0.00000000000E+00 0. -1.
         11    1    3    3    0    0  0.45637106076E+01 -0.25834091695E+02 -0.72253021899E+02  0.76868243909E+02  0.00000000000E+00 0.  1.
<mgrwt>
<rscale>  0 0.92831132E+02</rscale>
<asrwt>0</asrwt>
<pdfrwt beam="1">  1        1 0.40562640E-02 0.92831132E+02</pdfrwt>
<pdfrwt beam="2">  1       -1 0.12571132E-01 0.92831132E+02</pdfrwt>
<totfact> 0.80545713E+04</totfact>
</mgrwt>
</event>
<event>
 5    1  0.1270834E+001  0.8713401E+02  0.7546771E-02  0.1309944E+00
          3   -1    0    0  501    0  0.00000000000E+00  0.00000000000E+00  0.85528652352E+02  0.85528652352E+02  0.00000000000E+00 0. -1.
         -3   -1    0    0    0  501 -0.00000000000E+00 -0.00000000000E+00 -0.22192374407E+02  0.22192374407E+02  0.00000000000E+00 0.  1.
         23    2    1    2    0    0  0.00000000000E+00  0.00000000000E+00  0.63336277946E+02  0.10772102676E+03  0.87134008871E+02 0.  0.
        -11    1    3    3    0    0 -0.78784779392E+01  0.31633065308E+02 -0.40632840821E+01  0.32851659211E+02  0.00000000000E+00 0.  1.
         11    1    3    3    0    0  0.78784779392E+01 -0.31633065308E+02  0.67399562028E+02  0.74869367547E+02  0.00000000000E+00 0. -1.
<mgrwt>
<rscale>  0 0.87134009E+02</rscale>
<asrwt>0</asrwt>
<pdfrwt beam="1">  1        3 0.13158254E-01 0.87134009E+02</pdfrwt>
<pdfrwt beam="2">  1       -3 0.34142115E-02 0.87134009E+02</pdfrwt>
<totfact> 0.38564686E+04</totfact>
</mgrwt>
</event>
<event>
 5    1  0.1270834E+001  0.9294048E+02  0.7546771E-02  0.1295883E+00
         -3   -1    0    0    0  501 -0.00000000000E+00  0.00000000000E+00  0.14233014755E+02  0.14233014755E+02  0.00000000000E+00 0.  1.
          3   -1    0    0  501    0  0.00000000000E+00 -0.00000000000E+00 -0.15172354084E+03  0.15172354084E+03  0.00000000000E+00 0. -1.
         23    2    1    2    0    0  0.00000000000E+00  0.00000000000E+00 -0.13749052609E+03  0.16595655560E+03  0.92940484084E+02 0.  0.
        -13    1    3    3    0    0  0.20263829424E+02  0.23993218858E+02 -0.75844951363E+01  0.32308232706E+02  0.00000000000E+00 0.  1.
         13    1    3    3    0    0 -0.20263829424E+02 -0.23993218858E+02 -0.12990603095E+03  0.13364832289E+03  0.00000000000E+00 0. -1.
<mgrwt>
<rscale>  0 0.92940484E+02</rscale>
<asrwt>0</asrwt>
<pdfrwt beam="2">  1        3 0.23342082E-01 0.92940484E+02</pdfrwt>
<pdfrwt beam="1">  1       -3 0.21896947E-02 0.92940484E+02</pdfrwt>
<totfact> 0.28821523E+04</totfact>
</mgrwt>
</event>
<event>
 5    1  0.1270834E+001  0.9314796E+02  0.7546771E-02  0.1295403E+00
          1   -1    0    0  501    0  0.00000000000E+00  0.00000000000E+00  0.74073512240E+02  0.74073512240E+02  0.00000000000E+00 0. -1.
         -1   -1    0    0    0  501 -0.00000000000E+00 -0.00000000000E+00 -0.29283552189E+02  0.29283552189E+02  0.00000000000E+00 0.  1.
         23    2    1    2    0    0  0.00000000000E+00  0.00000000000E+00  0.44789960052E+02  0.10335706443E+03  0.93147958893E+02 0.  0.
        -13    1    3    3    0    0 -0.23307094499E+02  0.34517763904E+02 -0.73265190533E+00  0.41656133494E+02  0.00000000000E+00 0.  1.
         13    1    3    3    0    0  0.23307094499E+02 -0.34517763904E+02  0.45522611957E+02  0.61700930935E+02  0.00000000000E+00 0. -1.
<mgrwt>
<rscale>  0 0.93147959E+02</rscale>
<asrwt>0</asrwt>
<pdfrwt beam="1">  1        1 0.11395925E-01 0.93147959E+02</pdfrwt>
<pdfrwt beam="2">  1       -1 0.45051619E-02 0.93147959E+02</pdfrwt>
<totfact> 0.93832171E+04</totfact>
</mgrwt>
</event>
<event>
 5    1  0.1270834E+001  0.9008666E+02  0.7546771E-02  0.1302642E+00
         -2   -1    0    0    0  501 -0.00000000000E+00  0.00000000000E+00  0.72530013071E+01  0.72530013071E+01  0.00000000000E+00 0.  1.
          2   -1    0    0  501    0  0.00000000000E+00 -0.00000000000E+00 -0.27973268067E+03  0.27973268067E+03  0.00000000000E+00 0. -1.
         23    2    1    2    0    0  0.00000000000E+00  0.00000000000E+00 -0.27247967936E+03  0.28698568198E+03  0.90086658247E+02 0.  0.
        -13    1    3    3    0    0  0.40223756598E+02 -0.19272519208E+02 -0.15626671549E+03  0.16250743663E+03  0.00000000000E+00 0.  1.
         13    1    3    3    0    0 -0.40223756598E+02  0.19272519208E+02 -0.11621296387E+03  0.12447824534E+03  0.00000000000E+00 0. -1.
<mgrwt>
<rscale>  0 0.90086658E+02</rscale>
<asrwt>0</asrwt>
<pdfrwt beam="2">  1        2 0.43035786E-01 0.90086658E+02</pdfrwt>
<pdfrwt beam="1">  1       -2 0.11158466E-02 0.90086658E+02</pdfrwt>
<totfact> 0.18074456E+05</totfact>
</mgrwt>
</event>
<event>
 5    1  0.1270834E+001  0.9172460E+02  0.7546771E-02  0.1298728E+00
          1   -1    0    0  501    0  0.00000000000E+00  0.00000000000E+00  0.23196590448E+03  0.23196590448E+03  0.00000000000E+00 0. -1.
         -1   -1    0    0    0  501 -0.00000000000E+00 -0.00000000000E+00 -0.90674993528E+01  0.90674993528E+01  0.00000000000E+00 0.  1.
         23    2    1    2    0    0  0.00000000000E+00  0.00000000000E+00  0.22289840513E+03  0.24103340383E+03  0.91724602779E+02 0.  0.
        -11    1    3    3    0    0 -0.14750605679E+01  0.35204491057E+02  0.34305700699E+02  0.49177363641E+02  0.00000000000E+00 0.  1.
         11    1    3    3    0    0  0.14750605679E+01 -0.35204491057E+02  0.18859270443E+03  0.19185604019E+03  0.00000000000E+00 0. -1.
<mgrwt>
<rscale>  0 0.91724603E+02</rscale>
<asrwt>0</asrwt>
<pdfrwt beam="1">  1        1 0.35687058E-01 0.91724603E+02</pdfrwt>
<pdfrwt beam="2">  1       -1 0.13950001E-02 0.91724603E+02</pdfrwt>
<totfact> 0.11993816E+05</totfact>
</mgrwt>
</event>
<event>
 5    1  0.1270834E+001  0.9718890E+02  0.7546771E-02  0.1286321E+00
          3   -1    0    0  501    0  0.00000000000E+00  0.00000000000E+00  0.18371595306E+02  0.18371595306E+02  0.00000000000E+00 0. -1.
         -3   -1    0    0    0  501 -0.00000000000E+00 -0.00000000000E+00 -0.12853650385E+03  0.12853650385E+03  0.00000000000E+00 0.  1.
         23    2    1    2    0    0  0.00000000000E+00  0.00000000000E+00 -0.11016490854E+03  0.14690809915E+03  0.97188901234E+02 0.  0.
        -13    1    3    3    0    0  0.41325098834E+02  0.22331206183E+02 -0.73899809488E+02  0.87564995321E+02  0.00000000000E+00 0.  1.
         13    1    3    3    0    0 -0.41325098834E+02 -0.22331206183E+02 -0.36265099053E+02  0.59343103833E+02  0.00000000000E+00 0. -1.
<mgrwt>
<rscale>  0 0.97188901E+02</rscale>
<asrwt>0</asrwt>
<pdfrwt beam="1">  1        3 0.28263991E-02 0.97188901E+02</pdfrwt>
<pdfrwt beam="2">  1       -3 0.19774848E-01 0.97188901E+02</pdfrwt>
<totfact> 0.26472278E+04</totfact>
</mgrwt>
</event>
<event>
 5    1  0.1270834E+001  0.8892045E+02  0.7546771E-02  0.1305487E+00
          1   -1    0    0  501    0  0.00000000000E+00  0.00000000000E+00  0.55386751356E+02  0.55386751356E+02  0.00000000000E+00 0. -1.
         -1   -1    0    0    0  501 -0.00000000000E+00 -0.00000000000E+00 -0.35689250868E+02  0.35689250868E+02  0.00000000000E+00 0.  1.
         23    2    1    2    0    0  0.00000000000E+00  0.00000000000E+00  0.19697500488E+02  0.91076002224E+02  0.88920451279E+02 0.  0.
        -13    1    3    3    0    0  0.13524989247E+02  0.21652045856E+02 -0.27433848969E+02  0.37474691368E+02  0.00000000000E+00 0.  1.
         13    1    3    3    0    0 -0.13524989247E+02 -0.21652045856E+02  0.47131349457E+02  0.53601310856E+02  0.00000000000E+00 0. -1.
<mgrwt>
<rscale>  0 0.88920451E+02</rscale>
<asrwt>0</asrwt>
<pdfrwt beam="1">  1        1 0.85210387E-02 0.88920451E+02</pdfrwt>
<pdfrwt beam="2">  1       -1 0.54906540E-02 0.88920451E+02</pdfrwt>
<totfact> 0.10207217E+05</totfact>
</mgrwt>
</event>
<event>
 5    1  0.1270834E+001  0.9102995E+02  0.7546771E-02  0.1300377E+00
          2   -1    0    0  501    0  0.00000000000E+00  0.00000000000E+00  0.29528478991E+03  0.29528478991E+03  0.00000000000E+00 0. -1.
         -2   -1    0    0    0  501 -0.00000000000E+00 -0.00000000000E+00 -0.70156445092E+01  0.70156445092E+01  0.00000000000E+00 0.  1.
         23    2    1    2    0    0  0.00000000000E+00  0.00000000000E+00  0.28826914540E+03  0.30230043442E+03  0.91029953641E+02 0.  0.
        -11    1    3    3    0    0 -0.12561285112E+02  0.43503177751E+02  0.12880775586E+03  0.13653479530E+03  0.00000000000E+00 0.  1.
         11    1    3    3    0    0  0.12561285112E+02 -0.43503177751E+02  0.15946138955E+03  0.16576563912E+03  0.00000000000E+00 0. -1.
<mgrwt>
<rscale>  0 0.91029954E+02</rscale>
<asrwt>0</asrwt>
<pdfrwt beam="1">  1        2 0.45428420E-01 0.91029954E+02</pdfrwt>
<pdfrwt beam="2">  1       -2 0.10793302E-02 0.91029954E+02</pdfrwt>
<totfact> 0.17937366E+05</totfact>
</mgrwt>
</event>
<event>
 5    1  0.1270834E+001  0.6074262E+02  0.7546771E-02  0.1394741E+00
          2   -1    0    0  501    0  0.00000000000E+00  0.00000000000E+00  0.12610191364E+02  0.12610191364E+02  0.00000000000E+00 0.  1.
         -2   -1    0    0    0  501 -0.00000000000E+00 -0.00000000000E+00 -0.73148488780E+02  0.73148488780E+02  0.00000000000E+00 0. -1.
         23    2    1    2    0    0  0.00000000000E+00  0.00000000000E+00 -0.60538297416E+02  0.85758680145E+02  0.60742619026E+02 0.  0.
        -11    1    3    3    0    0 -0.12449318330E+02 -0.37281999383E+00 -0.69377083962E+02  0.70486199363E+02  0.00000000000E+00 0. -1.
         11    1    3    3    0    0  0.12449318330E+02  0.37281999383E+00  0.88387865459E+01  0.15272480782E+02  0.00000000000E+00 0.  1.
<mgrwt>
<rscale>  0 0.60742619E+02</rscale>
<asrwt>0</asrwt>
<pdfrwt beam="1">  1        2 0.19400294E-02 0.60742619E+02</pdfrwt>
<pdfrwt beam="2">  1       -2 0.11253614E-01 0.60742619E+02</pdfrwt>
<totfact> 0.23599118E+05</totfact>
</mgrwt>
</event>
<event>
 5    1  0.1270834E+001  0.9170826E+02  0.7546771E-02  0.1298767E+00
         -2   -1    0    0    0  501 -0.00000000000E+00  0.00000000000E+00  0.48813992119E+02  0.48813992119E+02  0.00000000000E+00 0.  1.
          2   -1    0    0  501    0  0.00000000000E+00 -0.00000000000E+00 -0.43073737524E+02  0.43073737524E+02  0.00000000000E+00 0. -1.
         23    2    1    2    0    0  0.00000000000E+00  0.00000000000E+00  0.57402545954E+01  0.91887729643E+02  0.91708256641E+02 0.  0.
        -13    1    3    3    0    0 -0.43410579438E+02 -0.72933330074E+01 -0.99975118747E+01  0.45140019464E+02  0.00000000000E+00 0. -1.
         13    1    3    3    0    0  0.43410579438E+02  0.72933330074E+01  0.15737766470E+02  0.46747710179E+02  0.00000000000E+00 0.  1.
<mgrwt>
<rscale>  0 0.91708257E+02</rscale>
<asrwt>0</asrwt>
<pdfrwt beam="2">  1        2 0.66267289E-02 0.91708257E+02</pdfrwt>
<pdfrwt beam="1">  1       -2 0.75098449E-02 0.91708257E+02</pdfrwt>
<totfact> 0.95616880E+04</totfact>
</mgrwt>
</event>
<event>
 5    1  0.1270834E+001  0.8924050E+02  0.7546771E-02  0.1304701E+00
         -2   -1    0    0    0  501 -0.00000000000E+00  0.00000000000E+00  0.51092419980E+02  0.51092419980E+02  0.00000000000E+00 0.  1.
          2   -1    0    0  501    0  0.00000000000E+00 -0.00000000000E+00 -0.38967943001E+02  0.38967943001E+02  0.00000000000E+00 0. -1.
         23    2    1    2    0    0  0.00000000000E+00  0.00000000000E+00  0.12124476978E+02  0.90060362981E+02  0.89240495507E+02 0.  0.
        -13    1    3    3    0    0  0.97063682613E+01 -0.22371060024E+02 -0.31648003196E+02  0.39953398075E+02  0.00000000000E+00 0. -1.
         13    1    3    3    0    0 -0.97063682613E+01  0.22371060024E+02  0.43772480175E+02  0.50106964906E+02  0.00000000000E+00 0.  1.
<mgrwt>
<rscale>  0 0.89240496E+02</rscale>
<asrwt>0</asrwt>
<pdfrwt beam="2">  1        2 0.59950682E-02 0.89240496E+02</pdfrwt>
<pdfrwt beam="1">  1       -2 0.78603723E-02 0.89240496E+02</pdfrwt>
<totfact> 0.10081586E+05</totfact>
</mgrwt>
</event>
<event>
 5    1  0.1270834E+001  0.9046749E+02  0.7546771E-02  0.1301724E+00
          4   -1    0    0  501    0  0.00000000000E+00  0.00000000000E+00  0.53561641162E+02  0.53561641162E+02  0.00000000000E+00 0. -1.
         -4   -1    0    0    0  501 -0.00000000000E+00 -0.00000000000E+00 -0.38200690090E+02  0.38200690090E+02  0.00000000000E+00 0.  1.
         23    2    1    2    0    0  0.00000000000E+00  0.00000000000E+00  0.15360951072E+02  0.91762331252E+02  0.90467489292E+02 0.  0.
        -13    1    3    3    0    0 -0.21644790841E+02 -0.37108358220E+02  0.22045251674E+02  0.48285819261E+02  0.00000000000E+00 0. -1.
         13    1    3    3    0    0  0.21644790841E+02  0.37108358220E+02 -0.66843006019E+01  0.43476511991E+02  0.00000000000E+00 0.  1.
<mgrwt>
<rscale>  0 0.90467489E+02</rscale>
<asrwt>0</asrwt>
<pdfrwt beam="1">  1        4 0.82402525E-02 0.90467489E+02</pdfrwt>
<pdfrwt beam="2">  1       -4 0.58770292E-02 0.90467489E+02</pdfrwt>
<totfact> 0.27555769E+04</totfact>
</mgrwt>
</event>
<event>
 5    1  0.1270834E+001  0.9104316E+02  0.7546771E-02  0.1300345E+00
          3   -1    0    0  501    0  0.00000000000E+00  0.00000000000E+00  0.53219210402E+02  0.53219210402E+02  0.00000000000E+00 0. -1.
         -3   -1    0    0    0  501 -0.00000000000E+00 -0.00000000000E+00 -0.38937332353E+02  0.38937332353E+02  0.00000000000E+00 0.  1.
         23    2    1    2    0    0  0.00000000000E+00  0.00000000000E+00  0.14281878049E+02  0.92156542755E+02  0.91043156426E+02 0.  0.
        -13    1    3    3    0    0 -0.58076321470E+01  0.42095110244E+02  0.23665009277E+02  0.48639074433E+02  0.00000000000E+00 0.  1.
         13    1    3    3    0    0  0.58076321470E+01 -0.42095110244E+02 -0.93831312280E+01  0.43517468323E+02  0.00000000000E+00 0. -1.
<mgrwt>
<rscale>  0 0.91043156E+02</rscale>
<asrwt>0</asrwt>
<pdfrwt beam="1">  1        3 0.81875708E-02 0.91043156E+02</pdfrwt>
<pdfrwt beam="2">  1       -3 0.59903588E-02 0.91043156E+02</pdfrwt>
<totfact> 0.35405131E+04</totfact>
</mgrwt>
</event>
<event>
 5    1  0.1270834E+001  0.9080909E+02  0.7546771E-02  0.1300904E+00
          2   -1    0    0  501    0  0.00000000000E+00  0.00000000000E+00  0.50781193989E+01  0.50781193989E+01  0.00000000000E+00 0. -1.
         -2   -1    0    0    0  501 -0.00000000000E+00 -0.00000000000E+00 -0.40597165568E+03  0.40597165568E+03  0.00000000000E+00 0.  1.
         23    2    1    2    0    0  0.00000000000E+00  0.00000000000E+00 -0.40089353628E+03  0.41104977508E+03  0.90809086332E+02 0.  0.
        -11    1    3    3    0    0  0.42288503179E+02 -0.13468586727E+02 -0.24382880262E+03  0.24783503649E+03  0.00000000000E+00 0.  1.
         11    1    3    3    0    0 -0.42288503179E+02  0.13468586727E+02 -0.15706473367E+03  0.16321473859E+03  0.00000000000E+00 0. -1.
<mgrwt>
<rscale>  0 0.90809086E+02</rscale>
<asrwt>0</asrwt>
<pdfrwt beam="1">  1        2 0.78124912E-03 0.90809086E+02</pdfrwt>
<pdfrwt beam="2">  1       -2 0.62457179E-01 0.90809086E+02</pdfrwt>
<totfact> 0.42708433E+04</totfact>
</mgrwt>
</event>
<event>
 5    1  0.1270834E+001  0.8972065E+02  0.7546771E-02  0.1303530E+00
          2   -1    0    0  501    0  0.00000000000E+00  0.00000000000E+00  0.11661286651E+02  0.11661286651E+02  0.00000000000E+00 0.  1.
         -2   -1    0    0    0  501 -0.00000000000E+00 -0.00000000000E+00 -0.17257518561E+03  0.17257518561E+03  0.00000000000E+00 0. -1.
         23    2    1    2    0    0  0.00000000000E+00  0.00000000000E+00 -0.16091389896E+03  0.18423647227E+03  0.89720648869E+02 0.  0.
        -11    1    3    3    0    0 -0.37044665899E+02 -0.49562488701E+01 -0.13140462895E+03  0.13661642721E+03  0.00000000000E+00 0. -1.
         11    1    3    3    0    0  0.37044665899E+02  0.49562488701E+01 -0.29509270017E+02  0.47620045058E+02  0.00000000000E+00 0.  1.
<mgrwt>
<rscale>  0 0.89720649E+02</rscale>
<asrwt>0</asrwt>
<pdfrwt beam="1">  1        2 0.17940442E-02 0.89720649E+02</pdfrwt>
<pdfrwt beam="2">  1       -2 0.26550028E-01 0.89720649E+02</pdfrwt>
<totfact> 0.69006724E+04</totfact>
</mgrwt>
</event>
<event>
 5    1  0.1270834E+001  0.9375133E+02  0.7546771E-02  0.1294013E+00
          2   -1    0    0  501    0  0.00000000000E+00  0.00000000000E+00  0.13760468642E+03  0.13760468642E+03  0.00000000000E+00 0. -1.
         -2   -1    0    0    0  501 -0.00000000000E+00 -0.00000000000E+00 -0.15968407797E+02  0.15968407797E+02  0.00000000000E+00 0.  1.
         23    2    1    2    0    0  0.00000000000E+00  0.00000000000E+00  0.12163627862E+03  0.15357309422E+03  0.93751325271E+02 0.  0.
        -11    1    3    3    0    0 -0.86932076229E+01  0.21142314810E+02 -0.62187421835E+01  0.23690548509E+02  0.00000000000E+00 0.  1.
         11    1    3    3    0    0  0.86932076229E+01 -0.21142314810E+02  0.12785502080E+03  0.12988254571E+03  0.00000000000E+00 0. -1.
<mgrwt>
<rscale>  0 0.93751325E+02</rscale>
<asrwt>0</asrwt>
<pdfrwt beam="1">  1        2 0.21169951E-01 0.93751325E+02</pdfrwt>
<pdfrwt beam="2">  1       -2 0.24566782E-02 0.93751325E+02</pdfrwt>
<totfact> 0.12587233E+05</totfact>
</mgrwt>
</event>
<event>
 5    1  0.1270834E+001  0.9075558E+02  0.7546771E-02  0.1301032E+00
          1   -1    0    0  501    0  0.00000000000E+00  0.00000000000E+00  0.66162641260E+02  0.66162641260E+02  0.00000000000E+00 0. -1.
         -1   -1    0    0    0  501 -0.00000000000E+00 -0.00000000000E+00 -0.31122451720E+02  0.31122451720E+02  0.00000000000E+00 0.  1.
         23    2    1    2    0    0  0.00000000000E+00  0.00000000000E+00  0.35040189540E+02  0.97285092979E+02  0.90755575217E+02 0.  0.
        -11    1    3    3    0    0  0.37020962140E+02  0.70650270240E+01  0.44610390533E+02  0.58399941679E+02  0.00000000000E+00 0. -1.
         11    1    3    3    0    0 -0.37020962140E+02 -0.70650270240E+01 -0.95702009931E+01  0.38885151300E+02  0.00000000000E+00 0.  1.
<mgrwt>
<rscale>  0 0.90755575E+02</rscale>
<asrwt>0</asrwt>
<pdfrwt beam="1">  1        1 0.10178868E-01 0.90755575E+02</pdfrwt>
<pdfrwt beam="2">  1       -1 0.47880695E-02 0.90755575E+02</pdfrwt>
<totfact> 0.99074733E+04</totfact>
</mgrwt>
</event>
<event>
 5    1  0.1270834E+001  0.9127204E+02  0.7546771E-02  0.1299800E+00
         -3   -1    0    0    0  501 -0.00000000000E+00  0.00000000000E+00  0.58464778896E+01  0.58464778896E+01  0.00000000000E+00 0.  1.
          3   -1    0    0  501    0  0.00000000000E+00 -0.00000000000E+00 -0.35622237433E+03  0.35622237433E+03  0.00000000000E+00 0. -1.
         23    2    1    2    0    0  0.00000000000E+00  0.00000000000E+00 -0.35037589644E+03  0.36206885221E+03  0.91272038112E+02 0.  0.
        -13    1    3    3    0    0  0.18109587954E+02  0.41566772497E+02 -0.19575958621E+03  0.20094170633E+03  0.00000000000E+00 0. -1.
         13    1    3    3    0    0 -0.18109587954E+02 -0.41566772497E+02 -0.15461631023E+03  0.16112714588E+03  0.00000000000E+00 0.  1.
<mgrwt>
<rscale>  0 0.91272038E+02</rscale>
<asrwt>0</asrwt>
<pdfrwt beam="2">  1        3 0.54803450E-01 0.91272038E+02</pdfrwt>
<pdfrwt beam="1">  1       -3 0.89945801E-03 0.91272038E+02</pdfrwt>
<totfact> 0.21751650E+04</totfact>
</mgrwt>
</event>
<event>
 5    1  0.1270834E+001  0.9219292E+02  0.7546771E-02  0.1297626E+00
         -2   -1    0    0    0  501 -0.00000000000E+00  0.00000000000E+00  0.15488841591E+02  0.15488841591E+02  0.00000000000E+00 0.  1.
          2   -1    0    0  501    0  0.00000000000E+00 -0.00000000000E+00 -0.13718802627E+03  0.13718802627E+03  0.00000000000E+00 0. -1.
         23    2    1    2    0    0  0.00000000000E+00  0.00000000000E+00 -0.12169918468E+03  0.15267686786E+03  0.92192919621E+02 0.  0.
        -13    1    3    3    0    0  0.16522262528E+02  0.18173935684E+02  0.37495648661E+01  0.24846253923E+02  0.00000000000E+00 0.  1.
         13    1    3    3    0    0 -0.16522262528E+02 -0.18173935684E+02 -0.12544874955E+03  0.12783061394E+03  0.00000000000E+00 0. -1.
<mgrwt>
<rscale>  0 0.92192920E+02</rscale>
<asrwt>0</asrwt>
<pdfrwt beam="2">  1        2 0.21105851E-01 0.92192920E+02</pdfrwt>
<pdfrwt beam="1">  1       -2 0.23828987E-02 0.92192920E+02</pdfrwt>
<totfact> 0.13163438E+05</totfact>
</mgrwt>
</event>
<event>
 5    1  0.1270834E+001  0.7274146E+02  0.7546771E-02  0.1351011E+00
         -2   -1    0    0    0  501 -0.00000000000E+00  0.00000000000E+00  0.14604496936E+03  0.14604496936E+03  0.00000000000E+00 0. -1.
          2   -1    0    0  501    0  0.00000000000E+00 -0.00000000000E+00 -0.90576884097E+01  0.90576884097E+01  0.00000000000E+00 0.  1.
         23    2    1    2    0    0  0.00000000000E+00  0.00000000000E+00  0.13698728095E+03  0.15510265777E+03  0.72741455203E+02 0.  0.
        -11    1    3    3    0    0 -0.16554717912E+02 -0.15412701924E+02  0.77631882085E+01  0.23913953185E+02  0.00000000000E+00 0.  1.
         11    1    3    3    0    0  0.16554717912E+02  0.15412701924E+02  0.12922409274E+03  0.13118870459E+03  0.00000000000E+00 0. -1.
<mgrwt>
<rscale>  0 0.72741455E+02</rscale>
<asrwt>0</asrwt>
<pdfrwt beam="2">  1        2 0.13934906E-02 0.72741455E+02</pdfrwt>
<pdfrwt beam="1">  1       -2 0.22468455E-01 0.72741455E+02</pdfrwt>
<totfact> 0.12468624E+05</totfact>
</mgrwt>
</event>
<event>
 5    1  0.1270834E+001  0.9126352E+02  0.7546771E-02  0.1299820E+00
          4   -1    0    0  501    0  0.00000000000E+00  0.00000000000E+00  0.20726304781E+02  0.20726304781E+02  0.00000000000E+00 0. -1.
         -4   -1    0    0    0  501 -0.00000000000E+00 -0.00000000000E+00 -0.10046448958E+03  0.10046448958E+03  0.00000000000E+00 0.  1.
         23    2    1    2    0    0  0.00000000000E+00  0.00000000000E+00 -0.79738184800E+02  0.12119079436E+03  0.91263522413E+02 0.  0.
        -13    1    3    3    0    0 -0.26189731234E+02 -0.37129185981E+02 -0.34269866511E+02  0.56911354090E+02  0.00000000000E+00 0. -1.
         13    1    3    3    0    0  0.26189731234E+02  0.37129185981E+02 -0.45468318290E+02  0.64279440273E+02  0.00000000000E+00 0.  1.
<mgrwt>
<rscale>  0 0.91263522E+02</rscale>
<asrwt>0</asrwt>
<pdfrwt beam="1">  1        4 0.31886623E-02 0.91263522E+02</pdfrwt>
<pdfrwt beam="2">  1       -4 0.15456075E-01 0.91263522E+02</pdfrwt>
<totfact> 0.25140617E+04</totfact>
</mgrwt>
</event>
<event>
 5    1  0.1270834E+001  0.9692536E+02  0.7546771E-02  0.1286898E+00
          1   -1    0    0  501    0  0.00000000000E+00  0.00000000000E+00  0.22892078706E+03  0.22892078706E+03  0.00000000000E+00 0. -1.
         -1   -1    0    0    0  501 -0.00000000000E+00 -0.00000000000E+00 -0.10259580642E+02  0.10259580642E+02  0.00000000000E+00 0.  1.
         23    2    1    2    0    0  0.00000000000E+00  0.00000000000E+00  0.21866120642E+03  0.23918036771E+03  0.96925358405E+02 0.  0.
        -11    1    3    3    0    0  0.15282916569E+02 -0.29441329340E+02  0.22145416024E+02  0.39884569235E+02  0.00000000000E+00 0.  1.
         11    1    3    3    0    0 -0.15282916569E+02  0.29441329340E+02  0.19651579040E+03  0.19929579847E+03  0.00000000000E+00 0. -1.
<mgrwt>
<rscale>  0 0.96925358E+02</rscale>
<asrwt>0</asrwt>
<pdfrwt beam="1">  1        1 0.35218579E-01 0.96925358E+02</pdfrwt>
<pdfrwt beam="2">  1       -1 0.15783972E-02 0.96925358E+02</pdfrwt>
<totfact> 0.10315275E+05</totfact>
</mgrwt>
</event>
<event>
 5    1  0.1270834E+001  0.9619967E+02  0.7546771E-02  0.1288497E+00
         -3   -1    0    0    0  501 -0.00000000000E+00  0.00000000000E+00  0.11261511350E+03  0.11261511350E+03  0.00000000000E+00 0.  1.
          3   -1    0    0  501    0  0.00000000000E+00 -0.00000000000E+00 -0.20544260330E+02  0.20544260330E+02  0.00000000000E+00 0. -1.
         23    2    1    2    0    0  0.00000000000E+00  0.00000000000E+00  0.92070853166E+02  0.13315937383E+03  0.96199671699E+02 0.  0.
        -13    1    3    3    0    0 -0.17101567019E+02 -0.40086277584E+02  0.74207200319E+02  0.86058595296E+02  0.00000000000E+00 0.  1.
         13    1    3    3    0    0  0.17101567019E+02  0.40086277584E+02  0.17863652847E+02  0.47100778530E+02  0.00000000000E+00 0. -1.
<mgrwt>
<rscale>  0 0.96199672E+02</rscale>
<asrwt>0</asrwt>
<pdfrwt beam="2">  1        3 0.31606555E-02 0.96199672E+02</pdfrwt>
<pdfrwt beam="1">  1       -3 0.17325402E-01 0.96199672E+02</pdfrwt>
<totfact> 0.27970276E+04</totfact>
</mgrwt>
</event>
<event>
 5    1  0.1270834E+001  0.9140606E+02  0.7546771E-02  0.1299482E+00
         -3   -1    0    0    0  501 -0.00000000000E+00  0.00000000000E+00  0.30454065539E+03  0.30454065539E+03  0.00000000000E+00 0.  1.
          3   -1    0    0  501    0  0.00000000000E+00 -0.00000000000E+00 -0.68587459776E+01  0.68587459776E+01  0.00000000000E+00 0. -1.
         23    2    1    2    0    0  0.00000000000E+00  0.00000000000E+00  0.29768190941E+03  0.31139940137E+03  0.91406060962E+02 0.  0.
        -11    1    3    3    0    0 -0.33328161746E+02  0.25980558874E+02  0.20814333331E+03  0.21238974318E+03  0.00000000000E+00 0.  1.
         11    1    3    3    0    0  0.33328161746E+02 -0.25980558874E+02  0.89538576098E+02  0.99009658187E+02  0.00000000000E+00 0. -1.
<mgrwt>
<rscale>  0 0.91406061E+02</rscale>
<asrwt>0</asrwt>
<pdfrwt beam="2">  1        3 0.10551919E-02 0.91406061E+02</pdfrwt>
<pdfrwt beam="1">  1       -3 0.46852398E-01 0.91406061E+02</pdfrwt>
<totfact> 0.23429698E+04</totfact>
</mgrwt>
</event>
<event>
 5    1  0.1270834E+001  0.8984240E+02  0.7546771E-02  0.1303234E+00
          2   -1    0    0  501    0  0.00000000000E+00  0.00000000000E+00  0.12638813231E+03  0.12638813231E+03  0.00000000000E+00 0. -1.
         -2   -1    0    0    0  501 -0.00000000000E+00 -0.00000000000E+00 -0.15966008801E+02  0.15966008801E+02  0.00000000000E+00 0.  1.
         23    2    1    2    0    0  0.00000000000E+00  0.00000000000E+00  0.11042212350E+03  0.14235414111E+03  0.89842396066E+02 0.  0.
        -11    1    3    3    0    0  0.76481963775E+01 -0.42305621175E+02  0.34572936449E+02  0.55168364354E+02  0.00000000000E+00 0.  1.
         11    1    3    3    0    0 -0.76481963775E+01  0.42305621175E+02  0.75849187056E+02  0.87185776752E+02  0.00000000000E+00 0. -1.
<mgrwt>
<rscale>  0 0.89842396E+02</rscale>
<asrwt>0</asrwt>
<pdfrwt beam="1">  1        2 0.19444327E-01 0.89842396E+02</pdfrwt>
<pdfrwt beam="2">  1       -2 0.24563091E-02 0.89842396E+02</pdfrwt>
<totfact> 0.13747139E+05</totfact>
</mgrwt>
</event>
<event>
 5    1  0.1270834E+001  0.8449216E+02  0.7546771E-02  0.1316766E+00
         -2   -1    0    0    0  501 -0.00000000000E+00  0.00000000000E+00  0.31437255529E+02  0.31437255529E+02  0.00000000000E+00 0. -1.
          2   -1    0    0  501    0  0.00000000000E+00 -0.00000000000E+00 -0.56771222501E+02  0.56771222501E+02  0.00000000000E+00 0.  1.
         23    2    1    2    0    0  0.00000000000E+00  0.00000000000E+00 -0.25333966972E+02  0.88208478030E+02  0.84492163624E+02 0.  0.
        -13    1    3    3    0    0  0.17092077089E+02 -0.38632892635E+02 -0.12350437723E+02  0.44013325306E+02  0.00000000000E+00 0.  1.
         13    1    3    3    0    0 -0.17092077089E+02  0.38632892635E+02 -0.12983529249E+02  0.44195152724E+02  0.00000000000E+00 0. -1.
<mgrwt>
<rscale>  0 0.84492164E+02</rscale>
<asrwt>0</asrwt>
<pdfrwt beam="2">  1        2 0.87340342E-02 0.84492164E+02</pdfrwt>
<pdfrwt beam="1">  1       -2 0.48365009E-02 0.84492164E+02</pdfrwt>
<totfact> 0.12942950E+05</totfact>
</mgrwt>
</event>
<event>
 5    1  0.1270834E+001  0.1225026E+03  0.7546771E-02  0.1239025E+00
          1   -1    0    0  501    0  0.00000000000E+00  0.00000000000E+00  0.19377822603E+03  0.19377822603E+03  0.00000000000E+00 0.  1.
         -1   -1    0    0    0  501 -0.00000000000E+00 -0.00000000000E+00 -0.19360890732E+02  0.19360890732E+02  0.00000000000E+00 0. -1.
         23    2    1    2    0    0  0.00000000000E+00  0.00000000000E+00  0.17441733530E+03  0.21313911676E+03  0.12250255606E+03 0.  0.
        -11    1    3    3    0    0  0.91009088654E+01 -0.39155047809E+02  0.68013202714E+01  0.40770114895E+02  0.00000000000E+00 0. -1.
         11    1    3    3    0    0 -0.91009088654E+01  0.39155047809E+02  0.16761601503E+03  0.17236900187E+03  0.00000000000E+00 0.  1.
<mgrwt>
<rscale>  0 0.12250256E+03</rscale>
<asrwt>0</asrwt>
<pdfrwt beam="1">  1        1 0.29812033E-01 0.12250256E+03</pdfrwt>
<pdfrwt beam="2">  1       -1 0.29785987E-02 0.12250256E+03</pdfrwt>
<totfact> 0.52540589E+04</totfact>
</mgrwt>
</event>
<event>
 5    1  0.1270834E+001  0.8980636E+02  0.7546771E-02  0.1303321E+00
          3   -1    0    0  501    0  0.00000000000E+00  0.00000000000E+00  0.71063391876E+02  0.71063391876E+02  0.00000000000E+00 0. -1.
         -3   -1    0    0    0  501 -0.00000000000E+00 -0.00000000000E+00 -0.28373196043E+02  0.28373196043E+02  0.00000000000E+00 0.  1.
         23    2    1    2    0    0  0.00000000000E+00  0.00000000000E+00  0.42690195833E+02  0.99436587919E+02  0.89806359445E+02 0.  0.
        -11    1    3    3    0    0 -0.16916413630E+02  0.25154241771E+02 -0.15334159565E+02  0.33971125662E+02  0.00000000000E+00 0.  1.
         11    1    3    3    0    0  0.16916413630E+02 -0.25154241771E+02  0.58024355398E+02  0.65465462257E+02  0.00000000000E+00 0. -1.
<mgrwt>
<rscale>  0 0.89806359E+02</rscale>
<asrwt>0</asrwt>
<pdfrwt beam="1">  1        3 0.10932829E-01 0.89806359E+02</pdfrwt>
<pdfrwt beam="2">  1       -3 0.43651071E-02 0.89806359E+02</pdfrwt>
<totfact> 0.36170454E+04</totfact>
</mgrwt>
</event>
<event>
 5    1  0.1270834E+001  0.9090888E+02  0.7546771E-02  0.1300666E+00
         -3   -1    0    0    0  501 -0.00000000000E+00  0.00000000000E+00  0.15612714681E+02  0.15612714681E+02  0.00000000000E+00 0.  1.
          3   -1    0    0  501    0  0.00000000000E+00 -0.00000000000E+00 -0.13233485545E+03  0.13233485545E+03  0.00000000000E+00 0. -1.
         23    2    1    2    0    0  0.00000000000E+00  0.00000000000E+00 -0.11672214077E+03  0.14794757013E+03  0.90908884946E+02 0.  0.
        -13    1    3    3    0    0 -0.24142618497E+02 -0.27015075756E+00 -0.12103639347E+03  0.12342101747E+03  0.00000000000E+00 0. -1.
         13    1    3    3    0    0  0.24142618497E+02  0.27015075756E+00  0.43142526949E+01  0.24526552666E+02  0.00000000000E+00 0.  1.
<mgrwt>
<rscale>  0 0.90908885E+02</rscale>
<asrwt>0</asrwt>
<pdfrwt beam="2">  1        3 0.20359208E-01 0.90908885E+02</pdfrwt>
<pdfrwt beam="1">  1       -3 0.24019561E-02 0.90908885E+02</pdfrwt>
<totfact> 0.31684578E+04</totfact>
</mgrwt>
</event>
<event>
 5    1  0.1270834E+001  0.9435897E+02  0.7546771E-02  0.1292626E+00
          1   -1    0    0  501    0  0.00000000000E+00  0.00000000000E+00  0.12098927805E+03  0.12098927805E+03  0.00000000000E+00 0. -1.
         -1   -1    0    0    0  501 -0.00000000000E+00 -0.00000000000E+00 -0.18397530243E+02  0.18397530243E+02  0.00000000000E+00 0.  1.
         23    2    1    2    0    0  0.00000000000E+00  0.00000000000E+00  0.10259174781E+03  0.13938680830E+03  0.94358972060E+02 0.  0.
        -11    1    3    3    0    0 -0.44310093047E+02 -0.12473220134E+02  0.36020031021E+02  0.58450048769E+02  0.00000000000E+00 0.  1.
         11    1    3    3    0    0  0.44310093047E+02  0.12473220134E+02  0.66571716791E+02  0.80936759528E+02  0.00000000000E+00 0. -1.
<mgrwt>
<rscale>  0 0.94358972E+02</rscale>
<asrwt>0</asrwt>
<pdfrwt beam="1">  1        1 0.18613735E-01 0.94358972E+02</pdfrwt>
<pdfrwt beam="2">  1       -1 0.28303893E-02 0.94358972E+02</pdfrwt>
<totfact> 0.98282125E+04</totfact>
</mgrwt>
</event>
<event>
 5    1  0.1270834E+001  0.9090603E+02  0.7546771E-02  0.1300672E+00
         -2   -1    0    0    0  501 -0.00000000000E+00  0.00000000000E+00  0.59999528086E+01  0.59999528086E+01  0.00000000000E+00 0.  1.
          2   -1    0    0  501    0  0.00000000000E+00 -0.00000000000E+00 -0.34433214653E+03  0.34433214653E+03  0.00000000000E+00 0. -1.
         23    2    1    2    0    0  0.00000000000E+00  0.00000000000E+00 -0.33833219372E+03  0.35033209934E+03  0.90906031256E+02 0.  0.
        -11    1    3    3    0    0 -0.26701843668E+02  0.31448629489E+02 -0.95643447512E+02  0.10416176748E+03  0.00000000000E+00 0.  1.
         11    1    3    3    0    0  0.26701843668E+02 -0.31448629489E+02 -0.24268874621E+03  0.24617033186E+03  0.00000000000E+00 0. -1.
<mgrwt>
<rscale>  0 0.90906031E+02</rscale>
<asrwt>0</asrwt>
<pdfrwt beam="2">  1        2 0.52974171E-01 0.90906031E+02</pdfrwt>
<pdfrwt beam="1">  1       -2 0.92306975E-03 0.90906031E+02</pdfrwt>
<totfact> 0.19056467E+05</totfact>
</mgrwt>
</event>
<event>
 5    1  0.1270834E+001  0.8865475E+02  0.7546771E-02  0.1306142E+00
         -2   -1    0    0    0  501 -0.00000000000E+00  0.00000000000E+00  0.13954460098E+02  0.13954460098E+02  0.00000000000E+00 0. -1.
          2   -1    0    0  501    0  0.00000000000E+00 -0.00000000000E+00 -0.14080919695E+03  0.14080919695E+03  0.00000000000E+00 0.  1.
         23    2    1    2    0    0  0.00000000000E+00  0.00000000000E+00 -0.12685473685E+03  0.15476365705E+03  0.88654753292E+02 0.  0.
        -11    1    3    3    0    0  0.11247950720E+02  0.38781200975E+02 -0.95350980488E+02  0.10354857519E+03  0.00000000000E+00 0.  1.
         11    1    3    3    0    0 -0.11247950720E+02 -0.38781200975E+02 -0.31503756364E+02  0.51215081855E+02  0.00000000000E+00 0. -1.
<mgrwt>
<rscale>  0 0.88654753E+02</rscale>
<asrwt>0</asrwt>
<pdfrwt beam="2">  1        2 0.21662954E-01 0.88654753E+02</pdfrwt>
<pdfrwt beam="1">  1       -2 0.21468400E-02 0.88654753E+02</pdfrwt>
<totfact> 0.14767690E+05</totfact>
</mgrwt>
</event>
<event>
 5    1  0.1270834E+001  0.9223833E+02  0.7546771E-02  0.1297520E+00
          1   -1    0    0  501    0  0.00000000000E+00  0.00000000000E+00  0.74230065921E+01  0.74230065921E+01  0.00000000000E+00 0. -1.
         -1   -1    0    0    0  501 -0.00000000000E+00 -0.00000000000E+00 -0.28653855780E+03  0.28653855780E+03  0.00000000000E+00 0.  1.
         23    2    1    2    0    0  0.00000000000E+00  0.00000000000E+00 -0.27911555121E+03  0.29396156440E+03  0.92238334839E+02 0.  0.
        -13    1    3    3    0    0  0.28786065389E+02 -0.33769370774E+02 -0.17961362178E+03  0.18501367813E+03  0.00000000000E+00 0.  1.
         13    1    3    3    0    0 -0.28786065389E+02  0.33769370774E+02 -0.99501929427E+02  0.10894788627E+03  0.00000000000E+00 0. -1.
<mgrwt>
<rscale>  0 0.92238335E+02</rscale>
<asrwt>0</asrwt>
<pdfrwt beam="1">  1        1 0.11420010E-02 0.92238335E+02</pdfrwt>
<pdfrwt beam="2">  1       -1 0.44082854E-01 0.92238335E+02</pdfrwt>
<totfact> 0.59830511E+04</totfact>
</mgrwt>
</event>
<event>
 5    1  0.1270834E+001  0.8945165E+02  0.7546771E-02  0.1304185E+00
         -1   -1    0    0    0  501 -0.00000000000E+00  0.00000000000E+00  0.76002138420E+02  0.76002138420E+02  0.00000000000E+00 0.  1.
          1   -1    0    0  501    0  0.00000000000E+00 -0.00000000000E+00 -0.26320302388E+02  0.26320302388E+02  0.00000000000E+00 0. -1.
         23    2    1    2    0    0  0.00000000000E+00  0.00000000000E+00  0.49681836033E+02  0.10232244081E+03  0.89451646499E+02 0.  0.
        -13    1    3    3    0    0  0.16040725555E+02 -0.10578001624E+02  0.71040303072E+02  0.73592959278E+02  0.00000000000E+00 0.  1.
         13    1    3    3    0    0 -0.16040725555E+02  0.10578001624E+02 -0.21358467040E+02  0.28729481530E+02  0.00000000000E+00 0. -1.
<mgrwt>
<rscale>  0 0.89451646E+02</rscale>
<asrwt>0</asrwt>
<pdfrwt beam="2">  1        1 0.40492773E-02 0.89451646E+02</pdfrwt>
<pdfrwt beam="1">  1       -1 0.11692637E-01 0.89451646E+02</pdfrwt>
<totfact> 0.89648268E+04</totfact>
</mgrwt>
</event>
<event>
 5    1  0.1270834E+001  0.8307698E+02  0.7546771E-02  0.1320539E+00
          2   -1    0    0  501    0  0.00000000000E+00  0.00000000000E+00  0.20242859564E+02  0.20242859564E+02  0.00000000000E+00 0. -1.
         -2   -1    0    0    0  501 -0.00000000000E+00 -0.00000000000E+00 -0.85237265259E+02  0.85237265259E+02  0.00000000000E+00 0.  1.
         23    2    1    2    0    0  0.00000000000E+00  0.00000000000E+00 -0.64994405695E+02  0.10548012482E+03  0.83076976119E+02 0.  0.
        -13    1    3    3    0    0  0.34452481291E+02  0.21513608542E+02 -0.21454952424E+02  0.45936083890E+02  0.00000000000E+00 0. -1.
         13    1    3    3    0    0 -0.34452481291E+02 -0.21513608542E+02 -0.43539453270E+02  0.59544040933E+02  0.00000000000E+00 0.  1.
<mgrwt>
<rscale>  0 0.83076976E+02</rscale>
<asrwt>0</asrwt>
<pdfrwt beam="1">  1        2 0.31142860E-02 0.83076976E+02</pdfrwt>
<pdfrwt beam="2">  1       -2 0.13113426E-01 0.83076976E+02</pdfrwt>
<totfact> 0.10516179E+05</totfact>
</mgrwt>
</event>
<event>
 5    1  0.1270834E+001  0.9179142E+02  0.7546771E-02  0.1298571E+00
         -1   -1    0    0    0  501 -0.00000000000E+00  0.00000000000E+00  0.25248519889E+03  0.25248519889E+03  0.00000000000E+00 0.  1.
          1   -1    0    0  501    0  0.00000000000E+00 -0.00000000000E+00 -0.83427304946E+01  0.83427304946E+01  0.00000000000E+00 0. -1.
         23    2    1    2    0    0  0.00000000000E+00  0.00000000000E+00  0.24414246840E+03  0.26082792939E+03  0.91791415028E+02 0.  0.
        -11    1    3    3    0    0  0.42302781508E+02  0.44977858675E+01  0.73129208559E+02  0.84602816416E+02  0.00000000000E+00 0.  1.
         11    1    3    3    0    0 -0.42302781508E+02 -0.44977858675E+01  0.17101325984E+03  0.17622511297E+03  0.00000000000E+00 0. -1.
<mgrwt>
<rscale>  0 0.91791415E+02</rscale>
<asrwt>0</asrwt>
<pdfrwt beam="2">  1        1 0.12834972E-02 0.91791415E+02</pdfrwt>
<pdfrwt beam="1">  1       -1 0.38843871E-01 0.91791415E+02</pdfrwt>
<totfact> 0.63423853E+04</totfact>
</mgrwt>
</event>
<event>
 5    1  0.1270834E+001  0.9306018E+02  0.7546771E-02  0.1295606E+00
         -1   -1    0    0    0  501 -0.00000000000E+00  0.00000000000E+00  0.70751262299E+01  0.70751262299E+01  0.00000000000E+00 0.  1.
          1   -1    0    0  501    0  0.00000000000E+00 -0.00000000000E+00 -0.30600854220E+03  0.30600854220E+03  0.00000000000E+00 0. -1.
         23    2    1    2    0    0  0.00000000000E+00  0.00000000000E+00 -0.29893341597E+03  0.31308366843E+03  0.93060175445E+02 0.  0.
        -13    1    3    3    0    0  0.24671159552E+02 -0.31116425525E+02 -0.67875949333E+02  0.78638683540E+02  0.00000000000E+00 0.  1.
         13    1    3    3    0    0 -0.24671159552E+02  0.31116425525E+02 -0.23105746664E+03  0.23444498489E+03  0.00000000000E+00 0. -1.
<mgrwt>
<rscale>  0 0.93060175E+02</rscale>
<asrwt>0</asrwt>
<pdfrwt beam="2">  1        1 0.47078248E-01 0.93060175E+02</pdfrwt>
<pdfrwt beam="1">  1       -1 0.10884807E-02 0.93060175E+02</pdfrwt>
<totfact> 0.12177781E+05</totfact>
</mgrwt>
</event>
<event>
 5    1  0.1270834E+001  0.9197732E+02  0.7546771E-02  0.1298133E+00
         -1   -1    0    0    0  501 -0.00000000000E+00  0.00000000000E+00  0.13156654646E+03  0.13156654646E+03  0.00000000000E+00 0.  1.
          1   -1    0    0  501    0  0.00000000000E+00 -0.00000000000E+00 -0.16075187656E+02  0.16075187656E+02  0.00000000000E+00 0. -1.
         23    2    1    2    0    0  0.00000000000E+00  0.00000000000E+00  0.11549135880E+03  0.14764173411E+03  0.91977321629E+02 0.  0.
        -13    1    3    3    0    0  0.62931027187E+01 -0.45288723059E+02  0.65656117217E+02  0.80008732687E+02  0.00000000000E+00 0.  1.
         13    1    3    3    0    0 -0.62931027187E+01  0.45288723059E+02  0.49835241585E+02  0.67633001426E+02  0.00000000000E+00 0. -1.
<mgrwt>
<rscale>  0 0.91977322E+02</rscale>
<asrwt>0</asrwt>
<pdfrwt beam="2">  1        1 0.24731059E-02 0.91977322E+02</pdfrwt>
<pdfrwt beam="1">  1       -1 0.20241006E-01 0.91977322E+02</pdfrwt>
<totfact> 0.75299952E+04</totfact>
</mgrwt>
</event>
<event>
 5    1  0.1270834E+001  0.8990131E+02  0.7546771E-02  0.1303091E+00
         -4   -1    0    0    0  501 -0.00000000000E+00  0.00000000000E+00  0.43894379378E+02  0.43894379378E+02  0.00000000000E+00 0.  1.
          4   -1    0    0  501    0  0.00000000000E+00 -0.00000000000E+00 -0.46032345145E+02  0.46032345145E+02  0.00000000000E+00 0. -1.
         23    2    1    2    0    0  0.00000000000E+00  0.00000000000E+00 -0.21379657666E+01  0.89926724523E+02  0.89901306363E+02 0.  0.
        -11    1    3    3    0    0  0.24115448594E+02  0.66939416910E+01 -0.38418494137E+02  0.45851329402E+02  0.00000000000E+00 0. -1.
         11    1    3    3    0    0 -0.24115448594E+02 -0.66939416910E+01  0.36280528370E+02  0.44075395121E+02  0.00000000000E+00 0.  1.
<mgrwt>
<rscale>  0 0.89901306E+02</rscale>
<asrwt>0</asrwt>
<pdfrwt beam="2">  1        4 0.70818993E-02 0.89901306E+02</pdfrwt>
<pdfrwt beam="1">  1       -4 0.67529814E-02 0.89901306E+02</pdfrwt>
<totfact> 0.28150949E+04</totfact>
</mgrwt>
</event>
<event>
 5    1  0.1270834E+001  0.9218284E+02  0.7546771E-02  0.1297650E+00
         -3   -1    0    0    0  501 -0.00000000000E+00  0.00000000000E+00  0.59511175047E+01  0.59511175047E+01  0.00000000000E+00 0.  1.
          3   -1    0    0  501    0  0.00000000000E+00 -0.00000000000E+00 -0.35697816369E+03  0.35697816369E+03  0.00000000000E+00 0. -1.
         23    2    1    2    0    0  0.00000000000E+00  0.00000000000E+00 -0.35102704619E+03  0.36292928120E+03  0.92182840024E+02 0.  0.
        -13    1    3    3    0    0  0.33723382063E+02 -0.25185447488E+02 -0.24946798154E+03  0.25299376885E+03  0.00000000000E+00 0. -1.
         13    1    3    3    0    0 -0.33723382063E+02  0.25185447488E+02 -0.10155906464E+03  0.10993551234E+03  0.00000000000E+00 0.  1.
<mgrwt>
<rscale>  0 0.92182840E+02</rscale>
<asrwt>0</asrwt>
<pdfrwt beam="2">  1        3 0.54919714E-01 0.92182840E+02</pdfrwt>
<pdfrwt beam="1">  1       -3 0.91555660E-03 0.92182840E+02</pdfrwt>
<totfact> 0.21152288E+04</totfact>
</mgrwt>
</event>
<event>
 5    1  0.1270834E+001  0.9106276E+02  0.7546771E-02  0.1300298E+00
         -3   -1    0    0    0  501 -0.00000000000E+00  0.00000000000E+00  0.13721924863E+03  0.13721924863E+03  0.00000000000E+00 0.  1.
          3   -1    0    0  501    0  0.00000000000E+00 -0.00000000000E+00 -0.15107985720E+02  0.15107985720E+02  0.00000000000E+00 0. -1.
         23    2    1    2    0    0  0.00000000000E+00  0.00000000000E+00  0.12211126291E+03  0.15232723435E+03  0.91062757454E+02 0.  0.
        -11    1    3    3    0    0  0.28008700968E+02 -0.27737072108E+02  0.22937199410E+02  0.45606442701E+02  0.00000000000E+00 0.  1.
         11    1    3    3    0    0 -0.28008700968E+02  0.27737072108E+02  0.99174063497E+02  0.10672079165E+03  0.00000000000E+00 0. -1.
<mgrwt>
<rscale>  0 0.91062757E+02</rscale>
<asrwt>0</asrwt>
<pdfrwt beam="2">  1        3 0.23243056E-02 0.91062757E+02</pdfrwt>
<pdfrwt beam="1">  1       -3 0.21110653E-01 0.91062757E+02</pdfrwt>
<totfact> 0.31272258E+04</totfact>
</mgrwt>
</event>
<event>
 5    1  0.1270834E+001  0.8845307E+02  0.7546771E-02  0.1306642E+00
          1   -1    0    0  501    0  0.00000000000E+00  0.00000000000E+00  0.92605918503E+01  0.92605918503E+01  0.00000000000E+00 0.  1.
         -1   -1    0    0    0  501 -0.00000000000E+00 -0.00000000000E+00 -0.21121614190E+03  0.21121614190E+03  0.00000000000E+00 0. -1.
         23    2    1    2    0    0  0.00000000000E+00  0.00000000000E+00 -0.20195555005E+03  0.22047673375E+03  0.88453071905E+02 0.  0.
        -11    1    3    3    0    0  0.41650458671E+02  0.40926157471E+01 -0.65335016809E+02  0.77589784331E+02  0.00000000000E+00 0.  1.
         11    1    3    3    0    0 -0.41650458671E+02 -0.40926157471E+01 -0.13662053324E+03  0.14288694942E+03  0.00000000000E+00 0. -1.
<mgrwt>
<rscale>  0 0.88453072E+02</rscale>
<asrwt>0</asrwt>
<pdfrwt beam="1">  1        1 0.14247065E-02 0.88453072E+02</pdfrwt>
<pdfrwt beam="2">  1       -1 0.32494789E-01 0.88453072E+02</pdfrwt>
<totfact> 0.73940278E+04</totfact>
</mgrwt>
</event>
<event>
 5    1  0.1270834E+001  0.9167552E+02  0.7546771E-02  0.1298844E+00
         -1   -1    0    0    0  501 -0.00000000000E+00  0.00000000000E+00  0.39416433337E+02  0.39416433337E+02  0.00000000000E+00 0.  1.
          1   -1    0    0  501    0  0.00000000000E+00 -0.00000000000E+00 -0.53305186870E+02  0.53305186870E+02  0.00000000000E+00 0. -1.
         23    2    1    2    0    0  0.00000000000E+00  0.00000000000E+00 -0.13888753533E+02  0.92721620207E+02  0.91675522246E+02 0.  0.
        -11    1    3    3    0    0  0.23577037333E+02  0.35615828773E+00 -0.46700631683E+02  0.52315891828E+02  0.00000000000E+00 0. -1.
         11    1    3    3    0    0 -0.23577037333E+02 -0.35615828773E+00  0.32811878150E+02  0.40405728379E+02  0.00000000000E+00 0.  1.
<mgrwt>
<rscale>  0 0.91675522E+02</rscale>
<asrwt>0</asrwt>
<pdfrwt beam="2">  1        1 0.82007979E-02 0.91675522E+02</pdfrwt>
<pdfrwt beam="1">  1       -1 0.60640667E-02 0.91675522E+02</pdfrwt>
<totfact> 0.93238733E+04</totfact>
</mgrwt>
</event>
<event>
 5    1  0.1270834E+001  0.9123359E+02  0.7546771E-02  0.1299892E+00
          1   -1    0    0  501    0  0.00000000000E+00  0.00000000000E+00  0.70096878051E+02  0.70096878051E+02  0.00000000000E+00 0. -1.
         -1   -1    0    0    0  501 -0.00000000000E+00 -0.00000000000E+00 -0.29685941781E+02  0.29685941781E+02  0.00000000000E+00 0.  1.
         23    2    1    2    0    0  0.00000000000E+00  0.00000000000E+00  0.40410936270E+02  0.99782819832E+02  0.91233586816E+02 0.  0.
        -11    1    3    3    0    0  0.33679610310E+02  0.27708103989E+02  0.34831593881E+02  0.55814828761E+02  0.00000000000E+00 0. -1.
         11    1    3    3    0    0 -0.33679610310E+02 -0.27708103989E+02  0.55793423888E+01  0.43967991071E+02  0.00000000000E+00 0.  1.
<mgrwt>
<rscale>  0 0.91233587E+02</rscale>
<asrwt>0</asrwt>
<pdfrwt beam="1">  1        1 0.10784135E-01 0.91233587E+02</pdfrwt>
<pdfrwt beam="2">  1       -1 0.45670680E-02 0.91233587E+02</pdfrwt>
<totfact> 0.98518665E+04</totfact>
</mgrwt>
</event>
<event>
 5    1  0.1270834E+001  0.8870979E+02  0.7546771E-02  0.1306007E+00
         -1   -1    0    0    0  501 -0.00000000000E+00  0.00000000000E+00  0.46637783556E+02  0.46637783556E+02  0.00000000000E+00 0.  1.
          1   -1    0    0  501    0  0.00000000000E+00 -0.00000000000E+00 -0.42183756563E+02  0.42183756563E+02  0.00000000000E+00 0. -1.
         23    2    1    2    0    0  0.00000000000E+00  0.00000000000E+00  0.44540269932E+01  0.88821540119E+02  0.88709794457E+02 0.  0.
        -11    1    3    3    0    0 -0.16226725825E+02 -0.41128804107E+02  0.57629985726E+01  0.44588084852E+02  0.00000000000E+00 0. -1.
         11    1    3    3    0    0  0.16226725825E+02  0.41128804107E+02 -0.13089715794E+01  0.44233455267E+02  0.00000000000E+00 0.  1.
<mgrwt>
<rscale>  0 0.88709794E+02</rscale>
<asrwt>0</asrwt>
<pdfrwt beam="2">  1        1 0.64898087E-02 0.88709794E+02</pdfrwt>
<pdfrwt beam="1">  1       -1 0.71750437E-02 0.88709794E+02</pdfrwt>
<totfact> 0.98716180E+04</totfact>
</mgrwt>
</event>
<event>
 5    1  0.1270834E+001  0.8927998E+02  0.7546771E-02  0.1304605E+00
          1   -1    0    0  501    0  0.00000000000E+00  0.00000000000E+00  0.29774058514E+03  0.29774058514E+03  0.00000000000E+00 0. -1.
         -1   -1    0    0    0  501 -0.00000000000E+00 -0.00000000000E+00 -0.66928354562E+01  0.66928354562E+01  0.00000000000E+00 0.  1.
         23    2    1    2    0    0  0.00000000000E+00  0.00000000000E+00  0.29104774969E+03  0.30443342060E+03  0.89279980846E+02 0.  0.
        -11    1    3    3    0    0 -0.10584517693E+02  0.42975365953E+02  0.16535241295E+03  0.17117340495E+03  0.00000000000E+00 0.  1.
         11    1    3    3    0    0  0.10584517693E+02 -0.42975365953E+02  0.12569533674E+03  0.13326001565E+03  0.00000000000E+00 0. -1.
<mgrwt>
<rscale>  0 0.89279981E+02</rscale>
<asrwt>0</asrwt>
<pdfrwt beam="1">  1        1 0.45806234E-01 0.89279981E+02</pdfrwt>
<pdfrwt beam="2">  1       -1 0.10296672E-02 0.89279981E+02</pdfrwt>
<totfact> 0.13529708E+05</totfact>
</mgrwt>
</event>
<event>
 5    1  0.1270834E+001  0.9227099E+02  0.7546771E-02  0.1297444E+00
         -2   -1    0    0    0  501 -0.00000000000E+00  0.00000000000E+00  0.27806551183E+02  0.27806551183E+02  0.00000000000E+00 0.  1.
          2   -1    0    0  501    0  0.00000000000E+00 -0.00000000000E+00 -0.76546138194E+02  0.76546138194E+02  0.00000000000E+00 0. -1.
         23    2    1    2    0    0  0.00000000000E+00  0.00000000000E+00 -0.48739587012E+02  0.10435268938E+03  0.92270994566E+02 0.  0.
        -13    1    3    3    0    0  0.21043240764E+02 -0.26512415005E+02  0.11083920210E+02  0.35617122546E+02  0.00000000000E+00 0.  1.
         13    1    3    3    0    0 -0.21043240764E+02  0.26512415005E+02 -0.59823507222E+02  0.68735566831E+02  0.00000000000E+00 0. -1.
<mgrwt>
<rscale>  0 0.92270995E+02</rscale>
<asrwt>0</asrwt>
<pdfrwt beam="2">  1        2 0.11776329E-01 0.92270995E+02</pdfrwt>
<pdfrwt beam="1">  1       -2 0.42779310E-02 0.92270995E+02</pdfrwt>
<totfact> 0.10970954E+05</totfact>
</mgrwt>
</event>
<event>
 5    1  0.1270834E+001  0.9067840E+02  0.7546771E-02  0.1301217E+00
         -1   -1    0    0    0  501 -0.00000000000E+00  0.00000000000E+00  0.14104371944E+02  0.14104371944E+02  0.00000000000E+00 0.  1.
          1   -1    0    0  501    0  0.00000000000E+00 -0.00000000000E+00 -0.14574509894E+03  0.14574509894E+03  0.00000000000E+00 0. -1.
         23    2    1    2    0    0  0.00000000000E+00  0.00000000000E+00 -0.13164072700E+03  0.15984947089E+03  0.90678400613E+02 0.  0.
        -11    1    3    3    0    0  0.25165921041E+02 -0.36709980518E+02 -0.81055924351E+02  0.92471666600E+02  0.00000000000E+00 0. -1.
         11    1    3    3    0    0 -0.25165921041E+02  0.36709980518E+02 -0.50584802647E+02  0.67377804285E+02  0.00000000000E+00 0.  1.
<mgrwt>
<rscale>  0 0.90678401E+02</rscale>
<asrwt>0</asrwt>
<pdfrwt beam="2">  1        1 0.22422323E-01 0.90678401E+02</pdfrwt>
<pdfrwt beam="1">  1       -1 0.21699034E-02 0.90678401E+02</pdfrwt>
<totfact> 0.11320461E+05</totfact>
</mgrwt>
</event>
<event>
 5    1  0.1270834E+001  0.9325939E+02  0.7546771E-02  0.1295145E+00
          3   -1    0    0  501    0  0.00000000000E+00  0.00000000000E+00  0.18419118401E+03  0.18419118401E+03  0.00000000000E+00 0. -1.
         -3   -1    0    0    0  501 -0.00000000000E+00 -0.00000000000E+00 -0.11804735611E+02  0.11804735611E+02  0.00000000000E+00 0.  1.
         23    2    1    2    0    0  0.00000000000E+00  0.00000000000E+00  0.17238644840E+03  0.19599591962E+03  0.93259385137E+02 0.  0.
        -13    1    3    3    0    0 -0.28522981604E+02 -0.16958365881E+02  0.17345262626E+02  0.37443354397E+02  0.00000000000E+00 0.  1.
         13    1    3    3    0    0  0.28522981604E+02  0.16958365881E+02  0.15504118577E+03  0.15855256522E+03  0.00000000000E+00 0. -1.
<mgrwt>
<rscale>  0 0.93259385E+02</rscale>
<asrwt>0</asrwt>
<pdfrwt beam="1">  1        3 0.28337103E-01 0.93259385E+02</pdfrwt>
<pdfrwt beam="2">  1       -3 0.18161133E-02 0.93259385E+02</pdfrwt>
<totfact> 0.27005128E+04</totfact>
</mgrwt>
</event>
<event>
 5    1  0.1270834E+001  0.9074989E+02  0.7546771E-02  0.1301046E+00
         -1   -1    0    0    0  501 -0.00000000000E+00  0.00000000000E+00  0.22983020852E+03  0.22983020852E+03  0.00000000000E+00 0.  1.
          1   -1    0    0  501    0  0.00000000000E+00 -0.00000000000E+00 -0.89582902403E+01  0.89582902403E+01  0.00000000000E+00 0. -1.
         23    2    1    2    0    0  0.00000000000E+00  0.00000000000E+00  0.22087191828E+03  0.23878849876E+03  0.90749891767E+02 0.  0.
        -11    1    3    3    0    0  0.12211746035E+02  0.33959881991E+02  0.18280745701E+03  0.18633562908E+03  0.00000000000E+00 0.  1.
         11    1    3    3    0    0 -0.12211746035E+02 -0.33959881991E+02  0.38064461274E+02  0.52452869685E+02  0.00000000000E+00 0. -1.
<mgrwt>
<rscale>  0 0.90749892E+02</rscale>
<asrwt>0</asrwt>
<pdfrwt beam="2">  1        1 0.13781987E-02 0.90749892E+02</pdfrwt>
<pdfrwt beam="1">  1       -1 0.35358489E-01 0.90749892E+02</pdfrwt>
<totfact> 0.67396713E+04</totfact>
</mgrwt>
</event>
<event>
 5    1  0.1270834E+001  0.8278083E+02  0.7546771E-02  0.1321340E+00
          4   -1    0    0  501    0  0.00000000000E+00  0.00000000000E+00  0.26270052664E+02  0.26270052664E+02  0.00000000000E+00 0.  1.
         -4   -1    0    0    0  501 -0.00000000000E+00 -0.00000000000E+00 -0.65213673335E+02  0.65213673335E+02  0.00000000000E+00 0. -1.
         23    2    1    2    0    0  0.00000000000E+00  0.00000000000E+00 -0.38943620671E+02  0.91483725999E+02  0.82780834326E+02 0.  0.
        -13    1    3    3    0    0 -0.23535315620E+02  0.21898879023E+02  0.93400280980E+01  0.33476978786E+02  0.00000000000E+00 0.  1.
         13    1    3    3    0    0  0.23535315620E+02 -0.21898879023E+02 -0.48283648769E+02  0.58006747213E+02  0.00000000000E+00 0. -1.
<mgrwt>
<rscale>  0 0.82780834E+02</rscale>
<asrwt>0</asrwt>
<pdfrwt beam="1">  1        4 0.40415466E-02 0.82780834E+02</pdfrwt>
<pdfrwt beam="2">  1       -4 0.10032873E-01 0.82780834E+02</pdfrwt>
<totfact> 0.35014560E+04</totfact>
</mgrwt>
</event>
<event>
 5    1  0.1270834E+001  0.9162858E+02  0.7546771E-02  0.1298955E+00
         -1   -1    0    0    0  501 -0.00000000000E+00  0.00000000000E+00  0.77630133329E+02  0.77630133329E+02  0.00000000000E+00 0.  1.
          1   -1    0    0  501    0  0.00000000000E+00 -0.00000000000E+00 -0.27037816311E+02  0.27037816311E+02  0.00000000000E+00 0. -1.
         23    2    1    2    0    0  0.00000000000E+00  0.00000000000E+00  0.50592317018E+02  0.10466794964E+03  0.91628582553E+02 0.  0.
        -13    1    3    3    0    0 -0.82804817522E+01 -0.93860278501E+01  0.75639179127E+02  0.76667785385E+02  0.00000000000E+00 0.  1.
         13    1    3    3    0    0  0.82804817522E+01  0.93860278501E+01 -0.25046862109E+02  0.28000164256E+02  0.00000000000E+00 0. -1.
<mgrwt>
<rscale>  0 0.91628583E+02</rscale>
<asrwt>0</asrwt>
<pdfrwt beam="2">  1        1 0.41596641E-02 0.91628583E+02</pdfrwt>
<pdfrwt beam="1">  1       -1 0.11943097E-01 0.91628583E+02</pdfrwt>
<totfact> 0.84009968E+04</totfact>
</mgrwt>
</event>
<event>
 5    1  0.1270834E+001  0.8914959E+02  0.7546771E-02  0.1304924E+00
          1   -1    0    0  501    0  0.00000000000E+00  0.00000000000E+00  0.86837465711E+02  0.86837465711E+02  0.00000000000E+00 0. -1.
         -1   -1    0    0    0  501 -0.00000000000E+00 -0.00000000000E+00 -0.22880817574E+02  0.22880817574E+02  0.00000000000E+00 0.  1.
         23    2    1    2    0    0  0.00000000000E+00  0.00000000000E+00  0.63956648137E+02  0.10971828328E+03  0.89149586909E+02 0.  0.
        -11    1    3    3    0    0  0.23594771716E+02 -0.86022500070E+01 -0.13344981765E+02  0.28439417994E+02  0.00000000000E+00 0.  1.
         11    1    3    3    0    0 -0.23594771716E+02  0.86022500070E+01  0.77301629902E+02  0.81278865291E+02  0.00000000000E+00 0. -1.
<mgrwt>
<rscale>  0 0.89149587E+02</rscale>
<asrwt>0</asrwt>
<pdfrwt beam="1">  1        1 0.13359610E-01 0.89149587E+02</pdfrwt>
<pdfrwt beam="2">  1       -1 0.35201258E-02 0.89149587E+02</pdfrwt>
<totfact> 0.10853377E+05</totfact>
</mgrwt>
</event>
<event>
 5    1  0.1270834E+001  0.9541869E+02  0.7546771E-02  0.1290236E+00
          2   -1    0    0  501    0  0.00000000000E+00  0.00000000000E+00  0.38363876459E+02  0.38363876459E+02  0.00000000000E+00 0. -1.
         -2   -1    0    0    0  501 -0.00000000000E+00 -0.00000000000E+00 -0.59331382240E+02  0.59331382240E+02  0.00000000000E+00 0.  1.
         23    2    1    2    0    0  0.00000000000E+00  0.00000000000E+00 -0.20967505781E+02  0.97695258700E+02  0.95418694572E+02 0.  0.
        -11    1    3    3    0    0  0.46020179063E+02  0.11595416556E+02 -0.54813620690E+01  0.47774008584E+02  0.00000000000E+00 0. -1.
         11    1    3    3    0    0 -0.46020179063E+02 -0.11595416556E+02 -0.15486143712E+02  0.49921250116E+02  0.00000000000E+00 0.  1.
<mgrwt>
<rscale>  0 0.95418695E+02</rscale>
<asrwt>0</asrwt>
<pdfrwt beam="1">  1        2 0.59021349E-02 0.95418695E+02</pdfrwt>
<pdfrwt beam="2">  1       -2 0.91279049E-02 0.95418695E+02</pdfrwt>
<totfact> 0.82615953E+04</totfact>
</mgrwt>
</event>
<event>
 5    1  0.1270834E+001  0.8975055E+02  0.7546771E-02  0.1303457E+00
          3   -1    0    0  501    0  0.00000000000E+00  0.00000000000E+00  0.11025701105E+02  0.11025701105E+02  0.00000000000E+00 0. -1.
         -3   -1    0    0    0  501 -0.00000000000E+00 -0.00000000000E+00 -0.18264512164E+03  0.18264512164E+03  0.00000000000E+00 0.  1.
         23    2    1    2    0    0  0.00000000000E+00  0.00000000000E+00 -0.17161942053E+03  0.19367082274E+03  0.89750554748E+02 0.  0.
        -11    1    3    3    0    0 -0.19832764545E+02 -0.40148958818E+02 -0.79513629290E+02  0.91256203551E+02  0.00000000000E+00 0. -1.
         11    1    3    3    0    0  0.19832764545E+02  0.40148958818E+02 -0.92105791245E+02  0.10241461919E+03  0.00000000000E+00 0.  1.
<mgrwt>
<rscale>  0 0.89750555E+02</rscale>
<asrwt>0</asrwt>
<pdfrwt beam="1">  1        3 0.16962618E-02 0.89750555E+02</pdfrwt>
<pdfrwt beam="2">  1       -3 0.28099248E-01 0.89750555E+02</pdfrwt>
<totfact> 0.30078643E+04</totfact>
</mgrwt>
</event>
<event>
 5    1  0.1270834E+001  0.9214059E+02  0.7546771E-02  0.1297749E+00
         -2   -1    0    0    0  501 -0.00000000000E+00  0.00000000000E+00  0.27489646707E+02  0.27489646707E+02  0.00000000000E+00 0.  1.
          2   -1    0    0  501    0  0.00000000000E+00 -0.00000000000E+00 -0.77209865241E+02  0.77209865241E+02  0.00000000000E+00 0. -1.
         23    2    1    2    0    0  0.00000000000E+00  0.00000000000E+00 -0.49720218534E+02  0.10469951195E+03  0.92140586448E+02 0.  0.
        -13    1    3    3    0    0 -0.55567252964E+01 -0.39621430052E+02  0.10947993701E+01  0.40024161466E+02  0.00000000000E+00 0.  1.
         13    1    3    3    0    0  0.55567252964E+01  0.39621430052E+02 -0.50815017904E+02  0.64675350482E+02  0.00000000000E+00 0. -1.
<mgrwt>
<rscale>  0 0.92140586E+02</rscale>
<asrwt>0</asrwt>
<pdfrwt beam="2">  1        2 0.11878441E-01 0.92140586E+02</pdfrwt>
<pdfrwt beam="1">  1       -2 0.42291764E-02 0.92140586E+02</pdfrwt>
<totfact> 0.11041491E+05</totfact>
</mgrwt>
</event>
<event>
 5    1  0.1270834E+001  0.9103566E+02  0.7546771E-02  0.1300363E+00
          2   -1    0    0  501    0  0.00000000000E+00  0.00000000000E+00  0.75579347137E+02  0.75579347137E+02  0.00000000000E+00 0. -1.
         -2   -1    0    0    0  501 -0.00000000000E+00 -0.00000000000E+00 -0.27413216973E+02  0.27413216973E+02  0.00000000000E+00 0.  1.
         23    2    1    2    0    0  0.00000000000E+00  0.00000000000E+00  0.48166130164E+02  0.10299256411E+03  0.91035664259E+02 0.  0.
        -13    1    3    3    0    0  0.38255952383E-01  0.13175713445E+02 -0.25208606192E+02  0.28444238686E+02  0.00000000000E+00 0.  1.
         13    1    3    3    0    0 -0.38255952383E-01 -0.13175713445E+02  0.73374736356E+02  0.74548325424E+02  0.00000000000E+00 0. -1.
<mgrwt>
<rscale>  0 0.91035664E+02</rscale>
<asrwt>0</asrwt>
<pdfrwt beam="1">  1        2 0.11627592E-01 0.91035664E+02</pdfrwt>
<pdfrwt beam="2">  1       -2 0.42174180E-02 0.91035664E+02</pdfrwt>
<totfact> 0.11350616E+05</totfact>
</mgrwt>
</event>
<event>
 5    1  0.1270834E+001  0.9101063E+02  0.7546771E-02  0.1300423E+00
         -1   -1    0    0    0  501 -0.00000000000E+00  0.00000000000E+00  0.13501483368E+02  0.13501483368E+02  0.00000000000E+00 0.  1.
          1   -1    0    0  501    0  0.00000000000E+00 -0.00000000000E+00 -0.15337082381E+03  0.15337082381E+03  0.00000000000E+00 0. -1.
         23    2    1    2    0    0  0.00000000000E+00  0.00000000000E+00 -0.13986934045E+03  0.16687230718E+03  0.91010628540E+02 0.  0.
        -13    1    3    3    0    0  0.18739011584E+02 -0.36377288161E+02 -0.33434824404E+02  0.52842645014E+02  0.00000000000E+00 0.  1.
         13    1    3    3    0    0 -0.18739011584E+02  0.36377288161E+02 -0.10643451604E+03  0.11402966217E+03  0.00000000000E+00 0. -1.
<mgrwt>
<rscale>  0 0.91010629E+02</rscale>
<asrwt>0</asrwt>
<pdfrwt beam="2">  1        1 0.23595512E-01 0.91010629E+02</pdfrwt>
<pdfrwt beam="1">  1       -1 0.20771512E-02 0.91010629E+02</pdfrwt>
<totfact> 0.11314851E+05</totfact>
</mgrwt>
</event>
<event>
 5    1  0.1270834E+001  0.8761158E+02  0.7546771E-02  0.1308741E+00
          2   -1    0    0  501    0  0.00000000000E+00  0.00000000000E+00  0.65779924917E+02  0.65779924917E+02  0.00000000000E+00 0.  1.
         -2   -1    0    0    0  501 -0.00000000000E+00 -0.00000000000E+00 -0.29172230819E+02  0.29172230819E+02  0.00000000000E+00 0. -1.
         23    2    1    2    0    0  0.00000000000E+00  0.00000000000E+00  0.36607694098E+02  0.94952155736E+02  0.87611578069E+02 0.  0.
        -11    1    3    3    0    0  0.28180714203E+02  0.33492568498E+02  0.20194223483E+02  0.48204890413E+02  0.00000000000E+00 0.  1.
         11    1    3    3    0    0 -0.28180714203E+02 -0.33492568498E+02  0.16413470615E+02  0.46747265324E+02  0.00000000000E+00 0. -1.
<mgrwt>
<rscale>  0 0.87611578E+02</rscale>
<asrwt>0</asrwt>
<pdfrwt beam="1">  1        2 0.10119988E-01 0.87611578E+02</pdfrwt>
<pdfrwt beam="2">  1       -2 0.44880355E-02 0.87611578E+02</pdfrwt>
<totfact> 0.12156699E+05</totfact>
</mgrwt>
</event>
<event>
 5    1  0.1270834E+001  0.9495888E+02  0.7546771E-02  0.1291269E+00
          2   -1    0    0  501    0  0.00000000000E+00  0.00000000000E+00  0.22343275546E+02  0.22343275546E+02  0.00000000000E+00 0.  1.
         -2   -1    0    0    0  501 -0.00000000000E+00 -0.00000000000E+00 -0.10089377481E+03  0.10089377481E+03  0.00000000000E+00 0. -1.
         23    2    1    2    0    0  0.00000000000E+00  0.00000000000E+00 -0.78550499263E+02  0.12323705035E+03  0.94958883975E+02 0.  0.
        -13    1    3    3    0    0 -0.20927305080E+02 -0.40013640407E+02 -0.20234624513E+02  0.49482153810E+02  0.00000000000E+00 0. -1.
         13    1    3    3    0    0  0.20927305080E+02  0.40013640407E+02 -0.58315874750E+02  0.73754896545E+02  0.00000000000E+00 0.  1.
<mgrwt>
<rscale>  0 0.94958884E+02</rscale>
<asrwt>0</asrwt>
<pdfrwt beam="1">  1        2 0.34374269E-02 0.94958884E+02</pdfrwt>
<pdfrwt beam="2">  1       -2 0.15522120E-01 0.94958884E+02</pdfrwt>
<totfact> 0.71931772E+04</totfact>
</mgrwt>
</event>
<event>
 5    1  0.1270834E+001  0.8857497E+02  0.7546771E-02  0.1306340E+00
          3   -1    0    0  501    0  0.00000000000E+00  0.00000000000E+00  0.50116227300E+02  0.50116227300E+02  0.00000000000E+00 0.  1.
         -3   -1    0    0    0  501 -0.00000000000E+00 -0.00000000000E+00 -0.39136651455E+02  0.39136651455E+02  0.00000000000E+00 0. -1.
         23    2    1    2    0    0  0.00000000000E+00  0.00000000000E+00  0.10979575845E+02  0.89252878755E+02  0.88574969829E+02 0.  0.
        -11    1    3    3    0    0  0.33879070242E+02  0.24044601471E+02  0.20951509737E+02  0.46528486121E+02  0.00000000000E+00 0.  1.
         11    1    3    3    0    0 -0.33879070242E+02 -0.24044601471E+02 -0.99719338921E+01  0.42724392634E+02  0.00000000000E+00 0. -1.
<mgrwt>
<rscale>  0 0.88574970E+02</rscale>
<asrwt>0</asrwt>
<pdfrwt beam="1">  1        3 0.77101888E-02 0.88574970E+02</pdfrwt>
<pdfrwt beam="2">  1       -3 0.60210233E-02 0.88574970E+02</pdfrwt>
<totfact> 0.38391252E+04</totfact>
</mgrwt>
</event>
<event>
 5    1  0.1270834E+001  0.9158646E+02  0.7546771E-02  0.1299055E+00
          2   -1    0    0  501    0  0.00000000000E+00  0.00000000000E+00  0.16664703480E+03  0.16664703480E+03  0.00000000000E+00 0. -1.
         -2   -1    0    0    0  501 -0.00000000000E+00 -0.00000000000E+00 -0.12583601143E+02  0.12583601143E+02  0.00000000000E+00 0.  1.
         23    2    1    2    0    0  0.00000000000E+00  0.00000000000E+00  0.15406343366E+03  0.17923063594E+03  0.91586457897E+02 0.  0.
        -13    1    3    3    0    0  0.26588744839E+02  0.34190153578E+02  0.47933433850E+02  0.64602956855E+02  0.00000000000E+00 0.  1.
         13    1    3    3    0    0 -0.26588744839E+02 -0.34190153578E+02  0.10612999981E+03  0.11462767909E+03  0.00000000000E+00 0. -1.
<mgrwt>
<rscale>  0 0.91586458E+02</rscale>
<asrwt>0</asrwt>
<pdfrwt beam="1">  1        2 0.25638004E-01 0.91586458E+02</pdfrwt>
<pdfrwt beam="2">  1       -2 0.19359388E-02 0.91586458E+02</pdfrwt>
<totfact> 0.14321801E+05</totfact>
</mgrwt>
</event>
<event>
 5    1  0.1270834E+001  0.9134842E+02  0.7546771E-02  0.1299619E+00
          3   -1    0    0  501    0  0.00000000000E+00  0.00000000000E+00  0.64052450344E+02  0.64052450344E+02  0.00000000000E+00 0. -1.
         -3   -1    0    0    0  501 -0.00000000000E+00 -0.00000000000E+00 -0.32569145350E+02  0.32569145350E+02  0.00000000000E+00 0.  1.
         23    2    1    2    0    0  0.00000000000E+00  0.00000000000E+00  0.31483304993E+02  0.96621595694E+02  0.91348422325E+02 0.  0.
        -11    1    3    3    0    0  0.11487730218E+02  0.42580011004E+02  0.28306273917E+02  0.52404870248E+02  0.00000000000E+00 0. -1.
         11    1    3    3    0    0 -0.11487730218E+02 -0.42580011004E+02  0.31770310765E+01  0.44216725446E+02  0.00000000000E+00 0.  1.
<mgrwt>
<rscale>  0 0.91348422E+02</rscale>
<asrwt>0</asrwt>
<pdfrwt beam="1">  1        3 0.98542231E-02 0.91348422E+02</pdfrwt>
<pdfrwt beam="2">  1       -3 0.50106378E-02 0.91348422E+02</pdfrwt>
<totfact> 0.34744892E+04</totfact>
</mgrwt>
</event>
<event>
 5    1  0.1270834E+001  0.8970004E+02  0.7546771E-02  0.1303580E+00
         -1   -1    0    0    0  501 -0.00000000000E+00  0.00000000000E+00  0.11915936855E+02  0.11915936855E+02  0.00000000000E+00 0.  1.
          1   -1    0    0  501    0  0.00000000000E+00 -0.00000000000E+00 -0.16880959512E+03  0.16880959512E+03  0.00000000000E+00 0. -1.
         23    2    1    2    0    0  0.00000000000E+00  0.00000000000E+00 -0.15689365826E+03  0.18072553197E+03  0.89700044055E+02 0.  0.
        -13    1    3    3    0    0 -0.38189737289E+01 -0.25940043247E+02 -0.15175961385E+03  0.15400795693E+03  0.00000000000E+00 0. -1.
         13    1    3    3    0    0  0.38189737289E+01  0.25940043247E+02 -0.51340444191E+01  0.26717575041E+02  0.00000000000E+00 0.  1.
<mgrwt>
<rscale>  0 0.89700044E+02</rscale>
<asrwt>0</asrwt>
<pdfrwt beam="2">  1        1 0.25970706E-01 0.89700044E+02</pdfrwt>
<pdfrwt beam="1">  1       -1 0.18332212E-02 0.89700044E+02</pdfrwt>
<totfact> 0.11976392E+05</totfact>
</mgrwt>
</event>
<event>
 5    1  0.1270834E+001  0.9549433E+02  0.7546771E-02  0.1290067E+00
         -2   -1    0    0    0  501 -0.00000000000E+00  0.00000000000E+00  0.42113954455E+02  0.42113954455E+02  0.00000000000E+00 0.  1.
          2   -1    0    0  501    0  0.00000000000E+00 -0.00000000000E+00 -0.54133882870E+02  0.54133882870E+02  0.00000000000E+00 0. -1.
         23    2    1    2    0    0  0.00000000000E+00  0.00000000000E+00 -0.12019928416E+02  0.96247837325E+02  0.95494332348E+02 0.  0.
        -13    1    3    3    0    0  0.20514877520E+02  0.20633570590E+02  0.32146215031E+02  0.43358777379E+02  0.00000000000E+00 0.  1.
         13    1    3    3    0    0 -0.20514877520E+02 -0.20633570590E+02 -0.44166143447E+02  0.52889059946E+02  0.00000000000E+00 0. -1.
<mgrwt>
<rscale>  0 0.95494332E+02</rscale>
<asrwt>0</asrwt>
<pdfrwt beam="2">  1        2 0.83282897E-02 0.95494332E+02</pdfrwt>
<pdfrwt beam="1">  1       -2 0.64790699E-02 0.95494332E+02</pdfrwt>
<totfact> 0.90445317E+04</totfact>
</mgrwt>
</event>
<event>
 5    1  0.1270834E+001  0.9081850E+02  0.7546771E-02  0.1300882E+00
          2   -1    0    0  501    0  0.00000000000E+00  0.00000000000E+00  0.28307238950E+03  0.28307238950E+03  0.00000000000E+00 0. -1.
         -2   -1    0    0    0  501 -0.00000000000E+00 -0.00000000000E+00 -0.72843564695E+01  0.72843564695E+01  0.00000000000E+00 0.  1.
         23    2    1    2    0    0  0.00000000000E+00  0.00000000000E+00  0.27578803303E+03  0.29035674597E+03  0.90818504542E+02 0.  0.
        -11    1    3    3    0    0 -0.43380416013E+02  0.13260962479E+02  0.14451332561E+03  0.15146555680E+03  0.00000000000E+00 0.  1.
         11    1    3    3    0    0  0.43380416013E+02 -0.13260962479E+02  0.13127470742E+03  0.13889118917E+03  0.00000000000E+00 0. -1.
<mgrwt>
<rscale>  0 0.90818505E+02</rscale>
<asrwt>0</asrwt>
<pdfrwt beam="1">  1        2 0.43549590E-01 0.90818505E+02</pdfrwt>
<pdfrwt beam="2">  1       -2 0.11206704E-02 0.90818505E+02</pdfrwt>
<totfact> 0.17767000E+05</totfact>
</mgrwt>
</event>
<event>
 5    1  0.1270834E+001  0.9396294E+02  0.7546771E-02  0.1293529E+00
          3   -1    0    0  501    0  0.00000000000E+00  0.00000000000E+00  0.12182552327E+03  0.12182552327E+03  0.00000000000E+00 0. -1.
         -3   -1    0    0    0  501 -0.00000000000E+00 -0.00000000000E+00 -0.18118194131E+02  0.18118194131E+02  0.00000000000E+00 0.  1.
         23    2    1    2    0    0  0.00000000000E+00  0.00000000000E+00  0.10370732914E+03  0.13994371740E+03  0.93962939093E+02 0.  0.
        -13    1    3    3    0    0 -0.21279776519E+02  0.41813167995E+02  0.55528641498E+02  0.72695253856E+02  0.00000000000E+00 0. -1.
         13    1    3    3    0    0  0.21279776519E+02 -0.41813167995E+02  0.48178687644E+02  0.67248463549E+02  0.00000000000E+00 0.  1.
<mgrwt>
<rscale>  0 0.93962939E+02</rscale>
<asrwt>0</asrwt>
<pdfrwt beam="1">  1        3 0.18742388E-01 0.93962939E+02</pdfrwt>
<pdfrwt beam="2">  1       -3 0.27874146E-02 0.93962939E+02</pdfrwt>
<totfact> 0.29424372E+04</totfact>
</mgrwt>
</event>
<event>
 5    1  0.1270834E+001  0.9303673E+02  0.7546771E-02  0.1295660E+00
         -1   -1    0    0    0  501 -0.00000000000E+00  0.00000000000E+00  0.31190291227E+02  0.31190291227E+02  0.00000000000E+00 0. -1.
          1   -1    0    0  501    0  0.00000000000E+00 -0.00000000000E+00 -0.69379224961E+02  0.69379224961E+02  0.00000000000E+00 0.  1.
         23    2    1    2    0    0  0.00000000000E+00  0.00000000000E+00 -0.38188933734E+02  0.10056951619E+03  0.93036728912E+02 0.  0.
        -13    1    3    3    0    0  0.19700109755E+02  0.11090026143E+01  0.26442733825E+02  0.32993065685E+02  0.00000000000E+00 0. -1.
         13    1    3    3    0    0 -0.19700109755E+02 -0.11090026143E+01 -0.64631667558E+02  0.67576450503E+02  0.00000000000E+00 0.  1.
<mgrwt>
<rscale>  0 0.93036729E+02</rscale>
<asrwt>0</asrwt>
<pdfrwt beam="2">  1        1 0.10673727E-01 0.93036729E+02</pdfrwt>
<pdfrwt beam="1">  1       -1 0.47985064E-02 0.93036729E+02</pdfrwt>
<totfact> 0.93180087E+04</totfact>
</mgrwt>
</event>
<event>
 5    1  0.1270834E+001  0.8866835E+02  0.7546771E-02  0.1306109E+00
         -3   -1    0    0    0  501 -0.00000000000E+00  0.00000000000E+00  0.13537157691E+03  0.13537157691E+03  0.00000000000E+00 0.  1.
          3   -1    0    0  501    0  0.00000000000E+00 -0.00000000000E+00 -0.14519436301E+02  0.14519436301E+02  0.00000000000E+00 0. -1.
         23    2    1    2    0    0  0.00000000000E+00  0.00000000000E+00  0.12085214061E+03  0.14989101321E+03  0.88668348079E+02 0.  0.
        -13    1    3    3    0    0  0.56591467286E+01  0.26623026324E+02  0.12667508701E+01  0.27247314182E+02  0.00000000000E+00 0. -1.
         13    1    3    3    0    0 -0.56591467286E+01 -0.26623026324E+02  0.11958538974E+03  0.12264369902E+03  0.00000000000E+00 0.  1.
<mgrwt>
<rscale>  0 0.88668348E+02</rscale>
<asrwt>0</asrwt>
<pdfrwt beam="2">  1        3 0.22337595E-02 0.88668348E+02</pdfrwt>
<pdfrwt beam="1">  1       -3 0.20826396E-01 0.88668348E+02</pdfrwt>
<totfact> 0.33764520E+04</totfact>
</mgrwt>
</event>
<event>
 5    1  0.1270834E+001  0.9221610E+02  0.7546771E-02  0.1297572E+00
         -1   -1    0    0    0  501 -0.00000000000E+00  0.00000000000E+00  0.24902777936E+02  0.24902777936E+02  0.00000000000E+00 0.  1.
          1   -1    0    0  501    0  0.00000000000E+00 -0.00000000000E+00 -0.85370085356E+02  0.85370085356E+02  0.00000000000E+00 0. -1.
         23    2    1    2    0    0  0.00000000000E+00  0.00000000000E+00 -0.60467307420E+02  0.11027286329E+03  0.92216100070E+02 0.  0.
        -11    1    3    3    0    0 -0.40377284823E+02 -0.19050081773E+02 -0.16457353625E+02  0.47582299583E+02  0.00000000000E+00 0.  1.
         11    1    3    3    0    0  0.40377284823E+02  0.19050081773E+02 -0.44009953795E+02  0.62690563710E+02  0.00000000000E+00 0. -1.
<mgrwt>
<rscale>  0 0.92216100E+02</rscale>
<asrwt>0</asrwt>
<pdfrwt beam="2">  1        1 0.13133860E-01 0.92216100E+02</pdfrwt>
<pdfrwt beam="1">  1       -1 0.38311965E-02 0.92216100E+02</pdfrwt>
<totfact> 0.98673395E+04</totfact>
</mgrwt>
</event>
<event>
 5    1  0.1270834E+001  0.8884488E+02  0.7546771E-02  0.1305673E+00
          1   -1    0    0  501    0  0.00000000000E+00  0.00000000000E+00  0.28699185226E+03  0.28699185226E+03  0.00000000000E+00 0. -1.
         -1   -1    0    0    0  501 -0.00000000000E+00 -0.00000000000E+00 -0.68759897711E+01  0.68759897711E+01  0.00000000000E+00 0.  1.
         23    2    1    2    0    0  0.00000000000E+00  0.00000000000E+00  0.28011586249E+03  0.29386784204E+03  0.88844876961E+02 0.  0.
        -13    1    3    3    0    0 -0.18506038132E+02 -0.35274013099E+02  0.75020429602E+02  0.84939945285E+02  0.00000000000E+00 0.  1.
         13    1    3    3    0    0  0.18506038132E+02  0.35274013099E+02  0.20509543289E+03  0.20892789675E+03  0.00000000000E+00 0. -1.
<mgrwt>
<rscale>  0 0.88844877E+02</rscale>
<asrwt>0</asrwt>
<pdfrwt beam="1">  1        1 0.44152583E-01 0.88844877E+02</pdfrwt>
<pdfrwt beam="2">  1       -1 0.10578448E-02 0.88844877E+02</pdfrwt>
<totfact> 0.13610517E+05</totfact>
</mgrwt>
</event>
<event>
 5    1  0.1270834E+001  0.8081902E+02  0.7546771E-02  0.1326743E+00
         -1   -1    0    0    0  501 -0.00000000000E+00  0.00000000000E+00  0.97033400408E+01  0.97033400408E+01  0.00000000000E+00 0.  1.
          1   -1    0    0  501    0  0.00000000000E+00 -0.00000000000E+00 -0.16828517784E+03  0.16828517784E+03  0.00000000000E+00 0. -1.
         23    2    1    2    0    0  0.00000000000E+00  0.00000000000E+00 -0.15858183780E+03  0.17798851788E+03  0.80819015199E+02 0.  0.
        -13    1    3    3    0    0 -0.28180130943E+02 -0.27535118451E+02 -0.99065868594E+02  0.10661308010E+03  0.00000000000E+00 0. -1.
         13    1    3    3    0    0  0.28180130943E+02  0.27535118451E+02 -0.59515969207E+02  0.71375437783E+02  0.00000000000E+00 0.  1.
<mgrwt>
<rscale>  0 0.80819015E+02</rscale>
<asrwt>0</asrwt>
<pdfrwt beam="2">  1        1 0.25890026E-01 0.80819015E+02</pdfrwt>
<pdfrwt beam="1">  1       -1 0.14928216E-02 0.80819015E+02</pdfrwt>
<totfact> 0.15809260E+05</totfact>
</mgrwt>
</event>
<event>
 5    1  0.1270834E+001  0.9414974E+02  0.7546771E-02  0.1293103E+00
         -2   -1    0    0    0  501 -0.00000000000E+00  0.00000000000E+00  0.19839472740E+02  0.19839472740E+02  0.00000000000E+00 0.  1.
          2   -1    0    0  501    0  0.00000000000E+00 -0.00000000000E+00 -0.11169870838E+03  0.11169870838E+03  0.00000000000E+00 0. -1.
         23    2    1    2    0    0  0.00000000000E+00  0.00000000000E+00 -0.91859235640E+02  0.13153818112E+03  0.94149742008E+02 0.  0.
        -13    1    3    3    0    0 -0.17870540983E+02 -0.42569548472E+02 -0.33085198759E+02  0.56799234757E+02  0.00000000000E+00 0. -1.
         13    1    3    3    0    0  0.17870540983E+02  0.42569548472E+02 -0.58774036881E+02  0.74738946363E+02  0.00000000000E+00 0.  1.
<mgrwt>
<rscale>  0 0.94149742E+02</rscale>
<asrwt>0</asrwt>
<pdfrwt beam="2">  1        2 0.17184416E-01 0.94149742E+02</pdfrwt>
<pdfrwt beam="1">  1       -2 0.30522266E-02 0.94149742E+02</pdfrwt>
<totfact> 0.11622531E+05</totfact>
</mgrwt>
</event>
<event>
 5    1  0.1270834E+001  0.9173631E+02  0.7546771E-02  0.1298701E+00
         -3   -1    0    0    0  501 -0.00000000000E+00  0.00000000000E+00  0.18755769525E+02  0.18755769525E+02  0.00000000000E+00 0.  1.
          3   -1    0    0  501    0  0.00000000000E+00 -0.00000000000E+00 -0.11217281272E+03  0.11217281272E+03  0.00000000000E+00 0. -1.
         23    2    1    2    0    0  0.00000000000E+00  0.00000000000E+00 -0.93417043191E+02  0.13092858224E+03  0.91736305186E+02 0.  0.
        -13    1    3    3    0    0 -0.38749026034E+02  0.99989783556E+01 -0.14717578630E+02  0.42638875542E+02  0.00000000000E+00 0.  1.
         13    1    3    3    0    0  0.38749026034E+02 -0.99989783556E+01 -0.78699464562E+02  0.88289706699E+02  0.00000000000E+00 0. -1.
<mgrwt>
<rscale>  0 0.91736305E+02</rscale>
<asrwt>0</asrwt>
<pdfrwt beam="2">  1        3 0.17257356E-01 0.91736305E+02</pdfrwt>
<pdfrwt beam="1">  1       -3 0.28855030E-02 0.91736305E+02</pdfrwt>
<totfact> 0.31978731E+04</totfact>
</mgrwt>
</event>
<event>
 5    1  0.1270834E+001  0.9121046E+02  0.7546771E-02  0.1299947E+00
         -2   -1    0    0    0  501 -0.00000000000E+00  0.00000000000E+00  0.39674521788E+02  0.39674521788E+02  0.00000000000E+00 0.  1.
          2   -1    0    0  501    0  0.00000000000E+00 -0.00000000000E+00 -0.52422485889E+02  0.52422485889E+02  0.00000000000E+00 0. -1.
         23    2    1    2    0    0  0.00000000000E+00  0.00000000000E+00 -0.12747964101E+02  0.92097007678E+02  0.91210461212E+02 0.  0.
        -11    1    3    3    0    0 -0.16481964036E+02  0.46502640883E+01 -0.49052497282E+02  0.51956015861E+02  0.00000000000E+00 0. -1.
         11    1    3    3    0    0  0.16481964036E+02 -0.46502640883E+01  0.36304533181E+02  0.40140991817E+02  0.00000000000E+00 0.  1.
<mgrwt>
<rscale>  0 0.91210461E+02</rscale>
<asrwt>0</asrwt>
<pdfrwt beam="2">  1        2 0.80649978E-02 0.91210461E+02</pdfrwt>
<pdfrwt beam="1">  1       -2 0.61037726E-02 0.91210461E+02</pdfrwt>
<totfact> 0.10223115E+05</totfact>
</mgrwt>
</event>
<event>
 5    1  0.1270834E+001  0.9103548E+02  0.7546771E-02  0.1300363E+00
          1   -1    0    0  501    0  0.00000000000E+00  0.00000000000E+00  0.45752569727E+02  0.45752569727E+02  0.00000000000E+00 0. -1.
         -1   -1    0    0    0  501 -0.00000000000E+00 -0.00000000000E+00 -0.45284116214E+02  0.45284116214E+02  0.00000000000E+00 0.  1.
         23    2    1    2    0    0  0.00000000000E+00  0.00000000000E+00  0.46845351301E+00  0.91036685941E+02  0.91035480657E+02 0.  0.
        -13    1    3    3    0    0 -0.22876818715E+02 -0.34120351539E+02 -0.19370049246E+02  0.45417463947E+02  0.00000000000E+00 0.  1.
         13    1    3    3    0    0  0.22876818715E+02  0.34120351539E+02  0.19838502759E+02  0.45619221994E+02  0.00000000000E+00 0. -1.
<mgrwt>
<rscale>  0 0.91035481E+02</rscale>
<asrwt>0</asrwt>
<pdfrwt beam="1">  1        1 0.70388569E-02 0.91035481E+02</pdfrwt>
<pdfrwt beam="2">  1       -1 0.69667871E-02 0.91035481E+02</pdfrwt>
<totfact> 0.92926399E+04</totfact>
</mgrwt>
</event>
<event>
 5    1  0.1270834E+001  0.8934211E+02  0.7546771E-02  0.1304453E+00
          2   -1    0    0  501    0  0.00000000000E+00  0.00000000000E+00  0.39281561570E+02  0.39281561570E+02  0.00000000000E+00 0. -1.
         -2   -1    0    0    0  501 -0.00000000000E+00 -0.00000000000E+00 -0.50799991224E+02  0.50799991224E+02  0.00000000000E+00 0.  1.
         23    2    1    2    0    0  0.00000000000E+00  0.00000000000E+00 -0.11518429654E+02  0.90081552794E+02  0.89342106154E+02 0.  0.
        -11    1    3    3    0    0 -0.44283077774E+02 -0.32582620664E+01 -0.10687999748E+02  0.45671003792E+02  0.00000000000E+00 0.  1.
         11    1    3    3    0    0  0.44283077774E+02  0.32582620664E+01 -0.83042990644E+00  0.44410549002E+02  0.00000000000E+00 0. -1.
<mgrwt>
<rscale>  0 0.89342106E+02</rscale>
<asrwt>0</asrwt>
<pdfrwt beam="1">  1        2 0.60433171E-02 0.89342106E+02</pdfrwt>
<pdfrwt beam="2">  1       -2 0.78153833E-02 0.89342106E+02</pdfrwt>
<totfact> 0.10069050E+05</totfact>
</mgrwt>
</event>
<event>
 5    1  0.1270834E+001  0.9035761E+02  0.7546771E-02  0.1301988E+00
          1   -1    0    0  501    0  0.00000000000E+00  0.00000000000E+00  0.72823754154E+02  0.72823754154E+02  0.00000000000E+00 0. -1.
         -1   -1    0    0    0  501 -0.00000000000E+00 -0.00000000000E+00 -0.28028278909E+02  0.28028278909E+02  0.00000000000E+00 0.  1.
         23    2    1    2    0    0  0.00000000000E+00  0.00000000000E+00  0.44795475245E+02  0.10085203306E+03  0.90357611581E+02 0.  0.
        -13    1    3    3    0    0 -0.96086591577E+00 -0.44238055729E+02  0.32578264074E+02  0.54947903764E+02  0.00000000000E+00 0. -1.
         13    1    3    3    0    0  0.96086591577E+00  0.44238055729E+02  0.12217211171E+02  0.45904129300E+02  0.00000000000E+00 0.  1.
<mgrwt>
<rscale>  0 0.90357612E+02</rscale>
<asrwt>0</asrwt>
<pdfrwt beam="1">  1        1 0.11203654E-01 0.90357612E+02</pdfrwt>
<pdfrwt beam="2">  1       -1 0.43120429E-02 0.90357612E+02</pdfrwt>
<totfact> 0.10176826E+05</totfact>
</mgrwt>
</event>
<event>
 5    1  0.1270834E+001  0.9168969E+02  0.7546771E-02  0.1298811E+00
         -1   -1    0    0    0  501 -0.00000000000E+00  0.00000000000E+00  0.23185855908E+02  0.23185855908E+02  0.00000000000E+00 0.  1.
          1   -1    0    0  501    0  0.00000000000E+00 -0.00000000000E+00 -0.90647918828E+02  0.90647918828E+02  0.00000000000E+00 0. -1.
         23    2    1    2    0    0  0.00000000000E+00  0.00000000000E+00 -0.67462062920E+02  0.11383377474E+03  0.91689685010E+02 0.  0.
        -11    1    3    3    0    0  0.12604915205E+02 -0.11390483822E+02  0.19133481966E+02  0.25587441083E+02  0.00000000000E+00 0.  1.
         11    1    3    3    0    0 -0.12604915205E+02  0.11390483822E+02 -0.86595544886E+02  0.88246333652E+02  0.00000000000E+00 0. -1.
<mgrwt>
<rscale>  0 0.91689685E+02</rscale>
<asrwt>0</asrwt>
<pdfrwt beam="2">  1        1 0.13945833E-01 0.91689685E+02</pdfrwt>
<pdfrwt beam="1">  1       -1 0.35670548E-02 0.91689685E+02</pdfrwt>
<totfact> 0.10121381E+05</totfact>
</mgrwt>
</event>
<event>
 5    1  0.1270834E+001  0.9136889E+02  0.7546771E-02  0.1299570E+00
         -2   -1    0    0    0  501 -0.00000000000E+00  0.00000000000E+00  0.87634285093E+01  0.87634285093E+01  0.00000000000E+00 0.  1.
          2   -1    0    0  501    0  0.00000000000E+00 -0.00000000000E+00 -0.23815659853E+03  0.23815659853E+03  0.00000000000E+00 0. -1.
         23    2    1    2    0    0  0.00000000000E+00  0.00000000000E+00 -0.22939317002E+03  0.24692002704E+03  0.91368885847E+02 0.  0.
        -13    1    3    3    0    0 -0.23165656260E+02 -0.38832079213E+02 -0.97080760144E+02  0.10709459368E+03  0.00000000000E+00 0.  1.
         13    1    3    3    0    0  0.23165656260E+02  0.38832079213E+02 -0.13231240988E+03  0.13982543336E+03  0.00000000000E+00 0. -1.
<mgrwt>
<rscale>  0 0.91368886E+02</rscale>
<asrwt>0</asrwt>
<pdfrwt beam="2">  1        2 0.36639477E-01 0.91368886E+02</pdfrwt>
<pdfrwt beam="1">  1       -2 0.13482198E-02 0.91368886E+02</pdfrwt>
<totfact> 0.16394898E+05</totfact>
</mgrwt>
</event>
<event>
 5    1  0.1270834E+001  0.9149083E+02  0.7546771E-02  0.1299281E+00
         -2   -1    0    0    0  501 -0.00000000000E+00  0.00000000000E+00  0.32542687330E+03  0.32542687330E+03  0.00000000000E+00 0.  1.
          2   -1    0    0  501    0  0.00000000000E+00 -0.00000000000E+00 -0.64304547517E+01  0.64304547517E+01  0.00000000000E+00 0. -1.
         23    2    1    2    0    0  0.00000000000E+00  0.00000000000E+00  0.31899641855E+03  0.33185732805E+03  0.91490825414E+02 0.  0.
        -11    1    3    3    0    0  0.31941601208E+02 -0.29639763620E+02  0.10899494655E+03  0.11738262158E+03  0.00000000000E+00 0. -1.
         11    1    3    3    0    0 -0.31941601208E+02  0.29639763620E+02  0.21000147200E+03  0.21447470647E+03  0.00000000000E+00 0.  1.
<mgrwt>
<rscale>  0 0.91490825E+02</rscale>
<asrwt>0</asrwt>
<pdfrwt beam="2">  1        2 0.98930098E-03 0.91490825E+02</pdfrwt>
<pdfrwt beam="1">  1       -2 0.50065660E-01 0.91490825E+02</pdfrwt>
<totfact> 0.48230707E+04</totfact>
</mgrwt>
</event>
<event>
 5    1  0.1270834E+001  0.8559905E+02  0.7546771E-02  0.1313873E+00
         -2   -1    0    0    0  501 -0.00000000000E+00  0.00000000000E+00  0.60877576882E+02  0.60877576882E+02  0.00000000000E+00 0. -1.
          2   -1    0    0  501    0  0.00000000000E+00 -0.00000000000E+00 -0.30089882684E+02  0.30089882684E+02  0.00000000000E+00 0.  1.
         23    2    1    2    0    0  0.00000000000E+00  0.00000000000E+00  0.30787694198E+02  0.90967459566E+02  0.85599045473E+02 0.  0.
        -13    1    3    3    0    0  0.16775492239E+02 -0.35257812316E+02 -0.32345844377E+01  0.39178986787E+02  0.00000000000E+00 0.  1.
         13    1    3    3    0    0 -0.16775492239E+02  0.35257812316E+02  0.34022278636E+02  0.51788472779E+02  0.00000000000E+00 0. -1.
<mgrwt>
<rscale>  0 0.85599045E+02</rscale>
<asrwt>0</asrwt>
<pdfrwt beam="2">  1        2 0.46292127E-02 0.85599045E+02</pdfrwt>
<pdfrwt beam="1">  1       -2 0.93657810E-02 0.85599045E+02</pdfrwt>
<totfact> 0.10660448E+05</totfact>
</mgrwt>
</event>
<event>
 5    1  0.1270834E+001  0.9170056E+02  0.7546771E-02  0.1298785E+00
          1   -1    0    0  501    0  0.00000000000E+00  0.00000000000E+00  0.15744191393E+02  0.15744191393E+02  0.00000000000E+00 0. -1.
         -1   -1    0    0    0  501 -0.00000000000E+00 -0.00000000000E+00 -0.13352532377E+03  0.13352532377E+03  0.00000000000E+00 0.  1.
         23    2    1    2    0    0  0.00000000000E+00  0.00000000000E+00 -0.11778113237E+03  0.14926951516E+03  0.91700561683E+02 0.  0.
        -13    1    3    3    0    0 -0.42826305137E+02  0.89542788597E+01 -0.36572776867E+02  0.57024902712E+02  0.00000000000E+00 0. -1.
         13    1    3    3    0    0  0.42826305137E+02 -0.89542788597E+01 -0.81208355505E+02  0.92244612447E+02  0.00000000000E+00 0.  1.
<mgrwt>
<rscale>  0 0.91700562E+02</rscale>
<asrwt>0</asrwt>
<pdfrwt beam="1">  1        1 0.24221832E-02 0.91700562E+02</pdfrwt>
<pdfrwt beam="2">  1       -1 0.20542359E-01 0.91700562E+02</pdfrwt>
<totfact> 0.75647455E+04</totfact>
</mgrwt>
</event>
<event>
 5    1  0.1270834E+001  0.8952056E+02  0.7546771E-02  0.1304017E+00
          1   -1    0    0  501    0  0.00000000000E+00  0.00000000000E+00  0.89698475788E+02  0.89698475788E+02  0.00000000000E+00 0. -1.
         -1   -1    0    0    0  501 -0.00000000000E+00 -0.00000000000E+00 -0.22335749216E+02  0.22335749216E+02  0.00000000000E+00 0.  1.
         23    2    1    2    0    0  0.00000000000E+00  0.00000000000E+00  0.67362726572E+02  0.11203422500E+03  0.89520559880E+02 0.  0.
        -11    1    3    3    0    0  0.41782381151E+02  0.43933010338E+00  0.53764674792E+02  0.68092588738E+02  0.00000000000E+00 0. -1.
         11    1    3    3    0    0 -0.41782381151E+02 -0.43933010338E+00  0.13598051780E+02  0.43941636266E+02  0.00000000000E+00 0.  1.
<mgrwt>
<rscale>  0 0.89520560E+02</rscale>
<asrwt>0</asrwt>
<pdfrwt beam="1">  1        1 0.13799765E-01 0.89520560E+02</pdfrwt>
<pdfrwt beam="2">  1       -1 0.34362691E-02 0.89520560E+02</pdfrwt>
<totfact> 0.10786912E+05</totfact>
</mgrwt>
</event>
<event>
 5    1  0.1270834E+001  0.9216722E+02  0.7546771E-02  0.1297687E+00
         -4   -1    0    0    0  501 -0.00000000000E+00  0.00000000000E+00  0.36061684173E+02  0.36061684173E+02  0.00000000000E+00 0.  1.
          4   -1    0    0  501    0  0.00000000000E+00 -0.00000000000E+00 -0.58890735847E+02  0.58890735847E+02  0.00000000000E+00 0. -1.
         23    2    1    2    0    0  0.00000000000E+00  0.00000000000E+00 -0.22829051673E+02  0.94952420020E+02  0.92167220135E+02 0.  0.
        -11    1    3    3    0    0  0.37983455145E+02 -0.53949198662E+01  0.14888381058E+02  0.41152301462E+02  0.00000000000E+00 0.  1.
         11    1    3    3    0    0 -0.37983455145E+02  0.53949198662E+01 -0.37717432731E+02  0.53800118559E+02  0.00000000000E+00 0. -1.
<mgrwt>
<rscale>  0 0.92167220E+02</rscale>
<asrwt>0</asrwt>
<pdfrwt beam="2">  1        4 0.90601131E-02 0.92167220E+02</pdfrwt>
<pdfrwt beam="1">  1       -4 0.55479515E-02 0.92167220E+02</pdfrwt>
<totfact> 0.25999725E+04</totfact>
</mgrwt>
</event>
<event>
 5    1  0.1270834E+001  0.9068051E+02  0.7546771E-02  0.1301212E+00
          3   -1    0    0  501    0  0.00000000000E+00  0.00000000000E+00  0.22538640501E+03  0.22538640501E+03  0.00000000000E+00 0. -1.
         -3   -1    0    0    0  501 -0.00000000000E+00 -0.00000000000E+00 -0.91209524784E+01  0.91209524784E+01  0.00000000000E+00 0.  1.
         23    2    1    2    0    0  0.00000000000E+00  0.00000000000E+00  0.21626545253E+03  0.23450735748E+03  0.90680509247E+02 0.  0.
        -11    1    3    3    0    0 -0.25141593174E+02  0.25620761234E+02  0.17976376155E+03  0.18331266481E+03  0.00000000000E+00 0.  1.
         11    1    3    3    0    0  0.25141593174E+02 -0.25620761234E+02  0.36501690973E+02  0.51194692669E+02  0.00000000000E+00 0. -1.
<mgrwt>
<rscale>  0 0.90680509E+02</rscale>
<asrwt>0</asrwt>
<pdfrwt beam="1">  1        3 0.34674827E-01 0.90680509E+02</pdfrwt>
<pdfrwt beam="2">  1       -3 0.14032236E-02 0.90680509E+02</pdfrwt>
<totfact> 0.27204130E+04</totfact>
</mgrwt>
</event>
<event>
 5    1  0.1270834E+001  0.9051221E+02  0.7546771E-02  0.1301616E+00
          3   -1    0    0  501    0  0.00000000000E+00  0.00000000000E+00  0.98948036300E+02  0.98948036300E+02  0.00000000000E+00 0. -1.
         -3   -1    0    0    0  501 -0.00000000000E+00 -0.00000000000E+00 -0.20698895609E+02  0.20698895609E+02  0.00000000000E+00 0.  1.
         23    2    1    2    0    0  0.00000000000E+00  0.00000000000E+00  0.78249140690E+02  0.11964693191E+03  0.90512210759E+02 0.  0.
        -13    1    3    3    0    0  0.25737357253E+02 -0.28880694574E+02  0.70170885683E+02  0.80127768439E+02  0.00000000000E+00 0. -1.
         13    1    3    3    0    0 -0.25737357253E+02  0.28880694574E+02  0.80782550078E+01  0.39519163471E+02  0.00000000000E+00 0.  1.
<mgrwt>
<rscale>  0 0.90512211E+02</rscale>
<asrwt>0</asrwt>
<pdfrwt beam="1">  1        3 0.15222775E-01 0.90512211E+02</pdfrwt>
<pdfrwt beam="2">  1       -3 0.31844455E-02 0.90512211E+02</pdfrwt>
<totfact> 0.33937163E+04</totfact>
</mgrwt>
</event>
<event>
 5    1  0.1270834E+001  0.5501239E+02  0.7546771E-02  0.1420040E+00
          3   -1    0    0  501    0  0.00000000000E+00  0.00000000000E+00  0.30837853737E+02  0.30837853737E+02  0.00000000000E+00 0. -1.
         -3   -1    0    0    0  501 -0.00000000000E+00 -0.00000000000E+00 -0.24534485687E+02  0.24534485687E+02  0.00000000000E+00 0.  1.
         23    2    1    2    0    0  0.00000000000E+00  0.00000000000E+00  0.63033680502E+01  0.55372339424E+02  0.55012394281E+02 0.  0.
        -13    1    3    3    0    0 -0.10078835582E+02 -0.19926874938E+02  0.19316889977E+02  0.29526352803E+02  0.00000000000E+00 0. -1.
         13    1    3    3    0    0  0.10078835582E+02  0.19926874938E+02 -0.13013521927E+02  0.25845986621E+02  0.00000000000E+00 0.  1.
<mgrwt>
<rscale>  0 0.55012394E+02</rscale>
<asrwt>0</asrwt>
<pdfrwt beam="1">  1        3 0.47442852E-02 0.55012394E+02</pdfrwt>
<pdfrwt beam="2">  1       -3 0.37745363E-02 0.55012394E+02</pdfrwt>
<totfact> 0.14617092E+05</totfact>
</mgrwt>
</event>
<event>
 5    1  0.1270834E+001  0.9062140E+02  0.7546771E-02  0.1301354E+00
         -1   -1    0    0    0  501 -0.00000000000E+00  0.00000000000E+00  0.58645892478E+01  0.58645892478E+01  0.00000000000E+00 0.  1.
          1   -1    0    0  501    0  0.00000000000E+00 -0.00000000000E+00 -0.35007730296E+03  0.35007730296E+03  0.00000000000E+00 0. -1.
         23    2    1    2    0    0  0.00000000000E+00  0.00000000000E+00 -0.34421271371E+03  0.35594189221E+03  0.90621401155E+02 0.  0.
        -11    1    3    3    0    0  0.44721874952E+02  0.72154852669E+01 -0.17593521737E+03  0.18167363605E+03  0.00000000000E+00 0.  1.
         11    1    3    3    0    0 -0.44721874952E+02 -0.72154852669E+01 -0.16827749634E+03  0.17426825615E+03  0.00000000000E+00 0. -1.
<mgrwt>
<rscale>  0 0.90621401E+02</rscale>
<asrwt>0</asrwt>
<pdfrwt beam="2">  1        1 0.53858059E-01 0.90621401E+02</pdfrwt>
<pdfrwt beam="1">  1       -1 0.90224429E-03 0.90621401E+02</pdfrwt>
<totfact> 0.13399612E+05</totfact>
</mgrwt>
</event>
<event>
 5    1  0.1270834E+001  0.1060047E+03  0.7546771E-02  0.1268153E+00
         -3   -1    0    0    0  501 -0.00000000000E+00  0.00000000000E+00  0.47780008839E+02  0.47780008839E+02  0.00000000000E+00 0.  1.
          3   -1    0    0  501    0  0.00000000000E+00 -0.00000000000E+00 -0.58795546978E+02  0.58795546978E+02  0.00000000000E+00 0. -1.
         23    2    1    2    0    0  0.00000000000E+00  0.00000000000E+00 -0.11015538139E+02  0.10657555582E+03  0.10600474997E+03 0.  0.
        -13    1    3    3    0    0 -0.23775041927E+02  0.42466093624E+02  0.15596451891E+02  0.51106467672E+02  0.00000000000E+00 0.  1.
         13    1    3    3    0    0  0.23775041927E+02 -0.42466093624E+02 -0.26611990030E+02  0.55469088145E+02  0.00000000000E+00 0. -1.
<mgrwt>
<rscale>  0 0.10600475E+03</rscale>
<asrwt>0</asrwt>
<pdfrwt beam="2">  1        3 0.90454687E-02 0.10600475E+03</pdfrwt>
<pdfrwt beam="1">  1       -3 0.73507706E-02 0.10600475E+03</pdfrwt>
<totfact> 0.22603682E+04</totfact>
</mgrwt>
</event>
<event>
 5    1  0.1270834E+001  0.9076305E+02  0.7546771E-02  0.1301014E+00
         -2   -1    0    0    0  501 -0.00000000000E+00  0.00000000000E+00  0.39906899242E+02  0.39906899242E+02  0.00000000000E+00 0.  1.
          2   -1    0    0  501    0  0.00000000000E+00 -0.00000000000E+00 -0.51607182335E+02  0.51607182335E+02  0.00000000000E+00 0. -1.
         23    2    1    2    0    0  0.00000000000E+00  0.00000000000E+00 -0.11700283093E+02  0.91514081577E+02  0.90763045907E+02 0.  0.
        -11    1    3    3    0    0 -0.36970228821E+02 -0.26279068798E+02 -0.43906314125E+01  0.45570439104E+02  0.00000000000E+00 0.  1.
         11    1    3    3    0    0  0.36970228821E+02  0.26279068798E+02 -0.73096516803E+01  0.45943642473E+02  0.00000000000E+00 0. -1.
<mgrwt>
<rscale>  0 0.90763046E+02</rscale>
<asrwt>0</asrwt>
<pdfrwt beam="2">  1        2 0.79395665E-02 0.90763046E+02</pdfrwt>
<pdfrwt beam="1">  1       -2 0.61395229E-02 0.90763046E+02</pdfrwt>
<totfact> 0.10324548E+05</totfact>
</mgrwt>
</event>
<event>
 5    1  0.1270834E+001  0.9117601E+02  0.7546771E-02  0.1300029E+00
         -3   -1    0    0    0  501 -0.00000000000E+00  0.00000000000E+00  0.87238428634E+02  0.87238428634E+02  0.00000000000E+00 0.  1.
          3   -1    0    0  501    0  0.00000000000E+00 -0.00000000000E+00 -0.23822830217E+02  0.23822830217E+02  0.00000000000E+00 0. -1.
         23    2    1    2    0    0  0.00000000000E+00  0.00000000000E+00  0.63415598417E+02  0.11106125885E+03  0.91176011620E+02 0.  0.
        -13    1    3    3    0    0 -0.28132052714E+02  0.34829696178E+02  0.42168280604E+02  0.61503528475E+02  0.00000000000E+00 0.  1.
         13    1    3    3    0    0  0.28132052714E+02 -0.34829696178E+02  0.21247317813E+02  0.49557730376E+02  0.00000000000E+00 0. -1.
<mgrwt>
<rscale>  0 0.91176012E+02</rscale>
<asrwt>0</asrwt>
<pdfrwt beam="2">  1        3 0.36650508E-02 0.91176012E+02</pdfrwt>
<pdfrwt beam="1">  1       -3 0.13421297E-01 0.91176012E+02</pdfrwt>
<totfact> 0.33871718E+04</totfact>
</mgrwt>
</event>
<event>
 5    1  0.1270834E+001  0.9297675E+02  0.7546771E-02  0.1295799E+00
         -2   -1    0    0    0  501 -0.00000000000E+00  0.00000000000E+00  0.61114891289E+01  0.61114891289E+01  0.00000000000E+00 0.  1.
          2   -1    0    0  501    0  0.00000000000E+00 -0.00000000000E+00 -0.35362397592E+03  0.35362397592E+03  0.00000000000E+00 0. -1.
         23    2    1    2    0    0  0.00000000000E+00  0.00000000000E+00 -0.34751248679E+03  0.35973546505E+03  0.92976751600E+02 0.  0.
        -13    1    3    3    0    0 -0.29404687569E+02  0.33905882044E+02 -0.12685804713E+03  0.13456302839E+03  0.00000000000E+00 0.  1.
         13    1    3    3    0    0  0.29404687569E+02 -0.33905882044E+02 -0.22065443966E+03  0.22517243666E+03  0.00000000000E+00 0. -1.
<mgrwt>
<rscale>  0 0.92976752E+02</rscale>
<asrwt>0</asrwt>
<pdfrwt beam="2">  1        2 0.54403682E-01 0.92976752E+02</pdfrwt>
<pdfrwt beam="1">  1       -2 0.94022921E-03 0.92976752E+02</pdfrwt>
<totfact> 0.18122540E+05</totfact>
</mgrwt>
</event>
<event>
 5    1  0.1270834E+001  0.1110936E+03  0.7546771E-02  0.1258558E+00
         -3   -1    0    0    0  501 -0.00000000000E+00  0.00000000000E+00  0.43223504146E+02  0.43223504146E+02  0.00000000000E+00 0.  1.
          3   -1    0    0  501    0  0.00000000000E+00 -0.00000000000E+00 -0.71383602770E+02  0.71383602770E+02  0.00000000000E+00 0. -1.
         23    2    1    2    0    0  0.00000000000E+00  0.00000000000E+00 -0.28160098624E+02  0.11460710692E+03  0.11109364429E+03 0.  0.
        -11    1    3    3    0    0  0.10223670272E+02  0.51169518425E+02  0.55644095066E+01  0.52476715816E+02  0.00000000000E+00 0.  1.
         11    1    3    3    0    0 -0.10223670272E+02 -0.51169518425E+02 -0.33724508131E+02  0.62130391100E+02  0.00000000000E+00 0. -1.
<mgrwt>
<rscale>  0 0.11109364E+03</rscale>
<asrwt>0</asrwt>
<pdfrwt beam="2">  1        3 0.10982093E-01 0.11109364E+03</pdfrwt>
<pdfrwt beam="1">  1       -3 0.66497699E-02 0.11109364E+03</pdfrwt>
<totfact> 0.19521241E+04</totfact>
</mgrwt>
</event>
<event>
 5    1  0.1270834E+001  0.8984724E+02  0.7546771E-02  0.1303222E+00
          2   -1    0    0  501    0  0.00000000000E+00  0.00000000000E+00  0.13100222356E+03  0.13100222356E+03  0.00000000000E+00 0. -1.
         -2   -1    0    0    0  501 -0.00000000000E+00 -0.00000000000E+00 -0.15405322924E+02  0.15405322924E+02  0.00000000000E+00 0.  1.
         23    2    1    2    0    0  0.00000000000E+00  0.00000000000E+00  0.11559690064E+03  0.14640754649E+03  0.89847238304E+02 0.  0.
        -13    1    3    3    0    0 -0.41157728546E+02 -0.61395046652E+01  0.85379160553E+02  0.94980277917E+02  0.00000000000E+00 0.  1.
         13    1    3    3    0    0  0.41157728546E+02  0.61395046652E+01  0.30217740087E+02  0.51427268570E+02  0.00000000000E+00 0. -1.
<mgrwt>
<rscale>  0 0.89847238E+02</rscale>
<asrwt>0</asrwt>
<pdfrwt beam="1">  1        2 0.20154188E-01 0.89847238E+02</pdfrwt>
<pdfrwt beam="2">  1       -2 0.23700498E-02 0.89847238E+02</pdfrwt>
<totfact> 0.13906681E+05</totfact>
</mgrwt>
</event>
<event>
 5    1  0.1270834E+001  0.9190299E+02  0.7546771E-02  0.1298308E+00
          4   -1    0    0  501    0  0.00000000000E+00  0.00000000000E+00  0.61520436331E+02  0.61520436331E+02  0.00000000000E+00 0. -1.
         -4   -1    0    0    0  501 -0.00000000000E+00 -0.00000000000E+00 -0.34322573852E+02  0.34322573852E+02  0.00000000000E+00 0.  1.
         23    2    1    2    0    0  0.00000000000E+00  0.00000000000E+00  0.27197862479E+02  0.95843010183E+02  0.91902986228E+02 0.  0.
        -13    1    3    3    0    0  0.15099899084E+02 -0.65491543173E+01  0.58340932795E+02  0.60618172309E+02  0.00000000000E+00 0. -1.
         13    1    3    3    0    0 -0.15099899084E+02  0.65491543173E+01 -0.31143070316E+02  0.35224837875E+02  0.00000000000E+00 0.  1.
<mgrwt>
<rscale>  0 0.91902986E+02</rscale>
<asrwt>0</asrwt>
<pdfrwt beam="1">  1        4 0.94646825E-02 0.91902986E+02</pdfrwt>
<pdfrwt beam="2">  1       -4 0.52803960E-02 0.91902986E+02</pdfrwt>
<totfact> 0.26148285E+04</totfact>
</mgrwt>
</event>
<event>
 5    1  0.1270834E+001  0.8908879E+02  0.7546771E-02  0.1305073E+00
         -1   -1    0    0    0  501 -0.00000000000E+00  0.00000000000E+00  0.84971419930E+02  0.84971419930E+02  0.00000000000E+00 0.  1.
          1   -1    0    0  501    0  0.00000000000E+00 -0.00000000000E+00 -0.23351415430E+02  0.23351415430E+02  0.00000000000E+00 0. -1.
         23    2    1    2    0    0  0.00000000000E+00  0.00000000000E+00  0.61620004500E+02  0.10832283536E+03  0.89088785522E+02 0.  0.
        -11    1    3    3    0    0 -0.10900275451E+01 -0.19062612035E+02 -0.18123364774E+02  0.26325419054E+02  0.00000000000E+00 0. -1.
         11    1    3    3    0    0  0.10900275451E+01  0.19062612035E+02  0.79743369274E+02  0.81997416306E+02  0.00000000000E+00 0.  1.
<mgrwt>
<rscale>  0 0.89088786E+02</rscale>
<asrwt>0</asrwt>
<pdfrwt beam="2">  1        1 0.35925255E-02 0.89088786E+02</pdfrwt>
<pdfrwt beam="1">  1       -1 0.13072526E-01 0.89088786E+02</pdfrwt>
<totfact> 0.88904036E+04</totfact>
</mgrwt>
</event>
<event>
 5    1  0.1270834E+001  0.8635592E+02  0.7546771E-02  0.1311924E+00
          1   -1    0    0  501    0  0.00000000000E+00  0.00000000000E+00  0.41172064366E+02  0.41172064366E+02  0.00000000000E+00 0. -1.
         -1   -1    0    0    0  501 -0.00000000000E+00 -0.00000000000E+00 -0.45281585797E+02  0.45281585797E+02  0.00000000000E+00 0.  1.
         23    2    1    2    0    0  0.00000000000E+00  0.00000000000E+00 -0.41095214314E+01  0.86453650163E+02  0.86355923133E+02 0.  0.
        -11    1    3    3    0    0 -0.42362511783E+02  0.25594227960E+01 -0.10013808890E+02  0.43605153573E+02  0.00000000000E+00 0.  1.
         11    1    3    3    0    0  0.42362511783E+02 -0.25594227960E+01  0.59042874584E+01  0.42848496590E+02  0.00000000000E+00 0. -1.
<mgrwt>
<rscale>  0 0.86355923E+02</rscale>
<asrwt>0</asrwt>
<pdfrwt beam="1">  1        1 0.63341637E-02 0.86355923E+02</pdfrwt>
<pdfrwt beam="2">  1       -1 0.69663978E-02 0.86355923E+02</pdfrwt>
<totfact> 0.10605342E+05</totfact>
</mgrwt>
</event>
<event>
 5    1  0.1270834E+001  0.8890188E+02  0.7546771E-02  0.1305533E+00
         -3   -1    0    0    0  501 -0.00000000000E+00  0.00000000000E+00  0.73512059560E+01  0.73512059560E+01  0.00000000000E+00 0.  1.
          3   -1    0    0  501    0  0.00000000000E+00 -0.00000000000E+00 -0.26878393198E+03  0.26878393198E+03  0.00000000000E+00 0. -1.
         23    2    1    2    0    0  0.00000000000E+00  0.00000000000E+00 -0.26143272602E+03  0.27613513793E+03  0.88901879432E+02 0.  0.
        -11    1    3    3    0    0 -0.19866275964E+02 -0.38472266173E+02 -0.16194767988E+03  0.16763602001E+03  0.00000000000E+00 0. -1.
         11    1    3    3    0    0  0.19866275964E+02  0.38472266173E+02 -0.99485046139E+02  0.10849911792E+03  0.00000000000E+00 0.  1.
<mgrwt>
<rscale>  0 0.88901879E+02</rscale>
<asrwt>0</asrwt>
<pdfrwt beam="2">  1        3 0.41351371E-01 0.88901879E+02</pdfrwt>
<pdfrwt beam="1">  1       -3 0.11309549E-02 0.88901879E+02</pdfrwt>
<totfact> 0.26734954E+04</totfact>
</mgrwt>
</event>
<event>
 5    1  0.1270834E+001  0.8988253E+02  0.7546771E-02  0.1303136E+00
          1   -1    0    0  501    0  0.00000000000E+00  0.00000000000E+00  0.19317540517E+03  0.19317540517E+03  0.00000000000E+00 0.  1.
         -1   -1    0    0    0  501 -0.00000000000E+00 -0.00000000000E+00 -0.10455354502E+02  0.10455354502E+02  0.00000000000E+00 0. -1.
         23    2    1    2    0    0  0.00000000000E+00  0.00000000000E+00  0.18272005066E+03  0.20363075967E+03  0.89882530940E+02 0.  0.
        -11    1    3    3    0    0  0.36401051496E+02  0.16735258339E+02  0.13749061230E+03  0.14320884712E+03  0.00000000000E+00 0.  1.
         11    1    3    3    0    0 -0.36401051496E+02 -0.16735258339E+02  0.45229438364E+02  0.60421912552E+02  0.00000000000E+00 0. -1.
<mgrwt>
<rscale>  0 0.89882531E+02</rscale>
<asrwt>0</asrwt>
<pdfrwt beam="1">  1        1 0.29719291E-01 0.89882531E+02</pdfrwt>
<pdfrwt beam="2">  1       -1 0.16085162E-02 0.89882531E+02</pdfrwt>
<totfact> 0.12220653E+05</totfact>
</mgrwt>
</event>
<event>
 5    1  0.1270834E+001  0.9307052E+02  0.7546771E-02  0.1295582E+00
          1   -1    0    0  501    0  0.00000000000E+00  0.00000000000E+00  0.81391292959E+02  0.81391292959E+02  0.00000000000E+00 0. -1.
         -1   -1    0    0    0  501 -0.00000000000E+00 -0.00000000000E+00 -0.26606416297E+02  0.26606416297E+02  0.00000000000E+00 0.  1.
         23    2    1    2    0    0  0.00000000000E+00  0.00000000000E+00  0.54784876662E+02  0.10799770926E+03  0.93070524301E+02 0.  0.
        -11    1    3    3    0    0  0.10814105543E+02  0.22365749823E+02  0.73052680637E+02  0.77161297242E+02  0.00000000000E+00 0. -1.
         11    1    3    3    0    0 -0.10814105543E+02 -0.22365749823E+02 -0.18267803975E+02  0.30836412014E+02  0.00000000000E+00 0.  1.
<mgrwt>
<rscale>  0 0.93070524E+02</rscale>
<asrwt>0</asrwt>
<pdfrwt beam="1">  1        1 0.12521737E-01 0.93070524E+02</pdfrwt>
<pdfrwt beam="2">  1       -1 0.40932948E-02 0.93070524E+02</pdfrwt>
<totfact> 0.95467615E+04</totfact>
</mgrwt>
</event>
<event>
 5    1  0.1270834E+001  0.9146231E+02  0.7546771E-02  0.1299349E+00
          3   -1    0    0  501    0  0.00000000000E+00  0.00000000000E+00  0.67239639825E+02  0.67239639825E+02  0.00000000000E+00 0. -1.
         -3   -1    0    0    0  501 -0.00000000000E+00 -0.00000000000E+00 -0.31102759110E+02  0.31102759110E+02  0.00000000000E+00 0.  1.
         23    2    1    2    0    0  0.00000000000E+00  0.00000000000E+00  0.36136880715E+02  0.98342398936E+02  0.91462305244E+02 0.  0.
        -11    1    3    3    0    0  0.41977455176E+02  0.89476660071E+01  0.10958835158E+01  0.42934466699E+02  0.00000000000E+00 0.  1.
         11    1    3    3    0    0 -0.41977455176E+02 -0.89476660071E+01  0.35040997200E+02  0.55407932237E+02  0.00000000000E+00 0. -1.
<mgrwt>
<rscale>  0 0.91462305E+02</rscale>
<asrwt>0</asrwt>
<pdfrwt beam="1">  1        3 0.10344560E-01 0.91462305E+02</pdfrwt>
<pdfrwt beam="2">  1       -3 0.47850399E-02 0.91462305E+02</pdfrwt>
<totfact> 0.34498967E+04</totfact>
</mgrwt>
</event>
<event>
 5    1  0.1270834E+001  0.9168223E+02  0.7546771E-02  0.1298828E+00
         -3   -1    0    0    0  501 -0.00000000000E+00  0.00000000000E+00  0.43324662663E+02  0.43324662663E+02  0.00000000000E+00 0.  1.
          3   -1    0    0  501    0  0.00000000000E+00 -0.00000000000E+00 -0.48503733220E+02  0.48503733220E+02  0.00000000000E+00 0. -1.
         23    2    1    2    0    0  0.00000000000E+00  0.00000000000E+00 -0.51790705575E+01  0.91828395883E+02  0.91682231205E+02 0.  0.
        -11    1    3    3    0    0 -0.81993154339E+01 -0.11810170708E+02  0.41007999616E+02  0.43455321173E+02  0.00000000000E+00 0.  1.
         11    1    3    3    0    0  0.81993154339E+01  0.11810170708E+02 -0.46187070173E+02  0.48373074710E+02  0.00000000000E+00 0. -1.
<mgrwt>
<rscale>  0 0.91682231E+02</rscale>
<asrwt>0</asrwt>
<pdfrwt beam="2">  1        3 0.74621128E-02 0.91682231E+02</pdfrwt>
<pdfrwt beam="1">  1       -3 0.66653327E-02 0.91682231E+02</pdfrwt>
<totfact> 0.34759948E+04</totfact>
</mgrwt>
</event>
<event>
 5    1  0.1270834E+001  0.8719965E+02  0.7546771E-02  0.1309778E+00
         -2   -1    0    0    0  501 -0.00000000000E+00  0.00000000000E+00  0.78372871378E+02  0.78372871378E+02  0.00000000000E+00 0.  1.
          2   -1    0    0  501    0  0.00000000000E+00 -0.00000000000E+00 -0.24255138600E+02  0.24255138600E+02  0.00000000000E+00 0. -1.
         23    2    1    2    0    0  0.00000000000E+00  0.00000000000E+00  0.54117732778E+02  0.10262800998E+03  0.87199652701E+02 0.  0.
        -13    1    3    3    0    0  0.28643726674E+02  0.28053885728E+02  0.47220538753E+02  0.61945644418E+02  0.00000000000E+00 0.  1.
         13    1    3    3    0    0 -0.28643726674E+02 -0.28053885728E+02  0.68971940248E+01  0.40682365561E+02  0.00000000000E+00 0. -1.
<mgrwt>
<rscale>  0 0.87199653E+02</rscale>
<asrwt>0</asrwt>
<pdfrwt beam="2">  1        2 0.37315598E-02 0.87199653E+02</pdfrwt>
<pdfrwt beam="1">  1       -2 0.12057365E-01 0.87199653E+02</pdfrwt>
<totfact> 0.95456712E+04</totfact>
</mgrwt>
</event>
<event>
 5    1  0.1270834E+001  0.8914954E+02  0.7546771E-02  0.1304924E+00
          2   -1    0    0  501    0  0.00000000000E+00  0.00000000000E+00  0.63804638655E+01  0.63804638655E+01  0.00000000000E+00 0. -1.
         -2   -1    0    0    0  501 -0.00000000000E+00 -0.00000000000E+00 -0.31140530568E+03  0.31140530568E+03  0.00000000000E+00 0.  1.
         23    2    1    2    0    0  0.00000000000E+00  0.00000000000E+00 -0.30502484181E+03  0.31778576954E+03  0.89149544035E+02 0.  0.
        -13    1    3    3    0    0  0.18626487885E+02 -0.40449378720E+02 -0.15947215058E+03  0.16557314124E+03  0.00000000000E+00 0. -1.
         13    1    3    3    0    0 -0.18626487885E+02  0.40449378720E+02 -0.14555269123E+03  0.15221262830E+03  0.00000000000E+00 0.  1.
<mgrwt>
<rscale>  0 0.89149544E+02</rscale>
<asrwt>0</asrwt>
<pdfrwt beam="1">  1        2 0.98160958E-03 0.89149544E+02</pdfrwt>
<pdfrwt beam="2">  1       -2 0.47908521E-01 0.89149544E+02</pdfrwt>
<totfact> 0.52904161E+04</totfact>
</mgrwt>
</event>
<event>
 5    1  0.1270834E+001  0.9016539E+02  0.7546771E-02  0.1302452E+00
          1   -1    0    0  501    0  0.00000000000E+00  0.00000000000E+00  0.33591144286E+03  0.33591144286E+03  0.00000000000E+00 0. -1.
         -1   -1    0    0    0  501 -0.00000000000E+00 -0.00000000000E+00 -0.60505511705E+01  0.60505511705E+01  0.00000000000E+00 0.  1.
         23    2    1    2    0    0  0.00000000000E+00  0.00000000000E+00  0.32986089169E+03  0.34196199403E+03  0.90165389674E+02 0.  0.
        -13    1    3    3    0    0  0.34692085527E+02  0.28164172073E+02  0.18758726838E+03  0.19283605640E+03  0.00000000000E+00 0. -1.
         13    1    3    3    0    0 -0.34692085527E+02 -0.28164172073E+02  0.14227362331E+03  0.14912593764E+03  0.00000000000E+00 0.  1.
<mgrwt>
<rscale>  0 0.90165390E+02</rscale>
<asrwt>0</asrwt>
<pdfrwt beam="1">  1        1 0.51678669E-01 0.90165390E+02</pdfrwt>
<pdfrwt beam="2">  1       -1 0.93085429E-03 0.90165390E+02</pdfrwt>
<totfact> 0.13479604E+05</totfact>
</mgrwt>
</event>
<event>
 5    1  0.1270834E+001  0.9883798E+02  0.7546771E-02  0.1282759E+00
         -2   -1    0    0    0  501 -0.00000000000E+00  0.00000000000E+00  0.15087593789E+02  0.15087593789E+02  0.00000000000E+00 0.  1.
          2   -1    0    0  501    0  0.00000000000E+00 -0.00000000000E+00 -0.16187049908E+03  0.16187049908E+03  0.00000000000E+00 0. -1.
         23    2    1    2    0    0  0.00000000000E+00  0.00000000000E+00 -0.14678290529E+03  0.17695809287E+03  0.98837975225E+02 0.  0.
        -13    1    3    3    0    0 -0.52532951814E+01 -0.49014334173E+02 -0.67129126901E+02  0.83284582866E+02  0.00000000000E+00 0.  1.
         13    1    3    3    0    0  0.52532951814E+01  0.49014334173E+02 -0.79653778392E+02  0.93673510006E+02  0.00000000000E+00 0. -1.
<mgrwt>
<rscale>  0 0.98837975E+02</rscale>
<asrwt>0</asrwt>
<pdfrwt beam="2">  1        2 0.24903153E-01 0.98837975E+02</pdfrwt>
<pdfrwt beam="1">  1       -2 0.23211683E-02 0.98837975E+02</pdfrwt>
<totfact> 0.11519900E+05</totfact>
</mgrwt>
</event>
<event>
 5    1  0.1270834E+001  0.8951574E+02  0.7546771E-02  0.1304029E+00
         -2   -1    0    0    0  501 -0.00000000000E+00  0.00000000000E+00  0.48786127076E+01  0.48786127076E+01  0.00000000000E+00 0. -1.
          2   -1    0    0  501    0  0.00000000000E+00 -0.00000000000E+00 -0.41062227143E+03  0.41062227143E+03  0.00000000000E+00 0.  1.
         23    2    1    2    0    0  0.00000000000E+00  0.00000000000E+00 -0.40574365872E+03  0.41550088413E+03  0.89515742334E+02 0.  0.
        -11    1    3    3    0    0  0.41563272163E+02 -0.15550792344E+02 -0.22991091221E+03  0.23415456495E+03  0.00000000000E+00 0.  1.
         11    1    3    3    0    0 -0.41563272163E+02  0.15550792344E+02 -0.17583274651E+03  0.18134631918E+03  0.00000000000E+00 0. -1.
<mgrwt>
<rscale>  0 0.89515742E+02</rscale>
<asrwt>0</asrwt>
<pdfrwt beam="2">  1        2 0.63172662E-01 0.89515742E+02</pdfrwt>
<pdfrwt beam="1">  1       -2 0.75055574E-03 0.89515742E+02</pdfrwt>
<totfact> 0.21155798E+05</totfact>
</mgrwt>
</event>
<event>
 5    1  0.1270834E+001  0.9037997E+02  0.7546771E-02  0.1301934E+00
          1   -1    0    0  501    0  0.00000000000E+00  0.00000000000E+00  0.17470140399E+02  0.17470140399E+02  0.00000000000E+00 0. -1.
         -1   -1    0    0    0  501 -0.00000000000E+00 -0.00000000000E+00 -0.11689285935E+03  0.11689285935E+03  0.00000000000E+00 0.  1.
         23    2    1    2    0    0  0.00000000000E+00  0.00000000000E+00 -0.99422718952E+02  0.13436299975E+03  0.90379968233E+02 0.  0.
        -11    1    3    3    0    0  0.37056872138E+02  0.19059916259E+02 -0.23720875470E+02  0.47949683143E+02  0.00000000000E+00 0.  1.
         11    1    3    3    0    0 -0.37056872138E+02 -0.19059916259E+02 -0.75701843482E+02  0.86413316607E+02  0.00000000000E+00 0. -1.
<mgrwt>
<rscale>  0 0.90379968E+02</rscale>
<asrwt>0</asrwt>
<pdfrwt beam="1">  1        1 0.26877139E-02 0.90379968E+02</pdfrwt>
<pdfrwt beam="2">  1       -1 0.17983517E-01 0.90379968E+02</pdfrwt>
<totfact> 0.80759688E+04</totfact>
</mgrwt>
</event>
<event>
 5    1  0.1270834E+001  0.9023560E+02  0.7546771E-02  0.1302282E+00
         -1   -1    0    0    0  501 -0.00000000000E+00  0.00000000000E+00  0.36770402960E+02  0.36770402960E+02  0.00000000000E+00 0.  1.
          1   -1    0    0  501    0  0.00000000000E+00 -0.00000000000E+00 -0.55360176933E+02  0.55360176933E+02  0.00000000000E+00 0. -1.
         23    2    1    2    0    0  0.00000000000E+00  0.00000000000E+00 -0.18589773972E+02  0.92130579893E+02  0.90235603035E+02 0.  0.
        -13    1    3    3    0    0  0.35081873997E+02 -0.18095606564E+02 -0.31603852784E+02  0.50566712083E+02  0.00000000000E+00 0. -1.
         13    1    3    3    0    0 -0.35081873997E+02  0.18095606564E+02  0.13014078812E+02  0.41563867810E+02  0.00000000000E+00 0.  1.
<mgrwt>
<rscale>  0 0.90235603E+02</rscale>
<asrwt>0</asrwt>
<pdfrwt beam="2">  1        1 0.85169503E-02 0.90235603E+02</pdfrwt>
<pdfrwt beam="1">  1       -1 0.56569851E-02 0.90235603E+02</pdfrwt>
<totfact> 0.97993644E+04</totfact>
</mgrwt>
</event>
<event>
 5    1  0.1270834E+001  0.8500282E+02  0.7546771E-02  0.1315425E+00
         -1   -1    0    0    0  501 -0.00000000000E+00  0.00000000000E+00  0.72342047576E+02  0.72342047576E+02  0.00000000000E+00 0.  1.
          1   -1    0    0  501    0  0.00000000000E+00 -0.00000000000E+00 -0.24969844633E+02  0.24969844633E+02  0.00000000000E+00 0. -1.
         23    2    1    2    0    0  0.00000000000E+00  0.00000000000E+00  0.47372202943E+02  0.97311892209E+02  0.85002816151E+02 0.  0.
        -13    1    3    3    0    0 -0.43967816875E+01  0.42163982673E+02  0.27165369081E+02  0.50349681244E+02  0.00000000000E+00 0.  1.
         13    1    3    3    0    0  0.43967816875E+01 -0.42163982673E+02  0.20206833862E+02  0.46962210965E+02  0.00000000000E+00 0. -1.
<mgrwt>
<rscale>  0 0.85002816E+02</rscale>
<asrwt>0</asrwt>
<pdfrwt beam="2">  1        1 0.38415146E-02 0.85002816E+02</pdfrwt>
<pdfrwt beam="1">  1       -1 0.11129546E-01 0.85002816E+02</pdfrwt>
<totfact> 0.10291654E+05</totfact>
</mgrwt>
</event>
<event>
 5    1  0.1270834E+001  0.8840483E+02  0.7546771E-02  0.1306761E+00
          1   -1    0    0  501    0  0.00000000000E+00  0.00000000000E+00  0.39958037750E+02  0.39958037750E+02  0.00000000000E+00 0. -1.
         -1   -1    0    0    0  501 -0.00000000000E+00 -0.00000000000E+00 -0.48897633062E+02  0.48897633062E+02  0.00000000000E+00 0.  1.
         23    2    1    2    0    0  0.00000000000E+00  0.00000000000E+00 -0.89395953121E+01  0.88855670812E+02  0.88404829456E+02 0.  0.
        -13    1    3    3    0    0  0.40495601611E+02 -0.17345801607E+02 -0.83432474226E+00  0.44062077584E+02  0.00000000000E+00 0.  1.
         13    1    3    3    0    0 -0.40495601611E+02  0.17345801607E+02 -0.81052705698E+01  0.44793593228E+02  0.00000000000E+00 0. -1.
<mgrwt>
<rscale>  0 0.88404829E+02</rscale>
<asrwt>0</asrwt>
<pdfrwt beam="1">  1        1 0.61473904E-02 0.88404829E+02</pdfrwt>
<pdfrwt beam="2">  1       -1 0.75227128E-02 0.88404829E+02</pdfrwt>
<totfact> 0.98880382E+04</totfact>
</mgrwt>
</event>
<event>
 5    1  0.1270834E+001  0.9193193E+02  0.7546771E-02  0.1298240E+00
          2   -1    0    0  501    0  0.00000000000E+00  0.00000000000E+00  0.24145348494E+02  0.24145348494E+02  0.00000000000E+00 0.  1.
         -2   -1    0    0    0  501 -0.00000000000E+00 -0.00000000000E+00 -0.87506288578E+02  0.87506288578E+02  0.00000000000E+00 0. -1.
         23    2    1    2    0    0  0.00000000000E+00  0.00000000000E+00 -0.63360940084E+02  0.11165163707E+03  0.91931927710E+02 0.  0.
        -11    1    3    3    0    0 -0.78656283065E+01 -0.34694350171E+02  0.36718811615E+01  0.35763791098E+02  0.00000000000E+00 0.  1.
         11    1    3    3    0    0  0.78656283065E+01  0.34694350171E+02 -0.67032821246E+02  0.75887845974E+02  0.00000000000E+00 0. -1.
<mgrwt>
<rscale>  0 0.91931928E+02</rscale>
<asrwt>0</asrwt>
<pdfrwt beam="1">  1        2 0.37146690E-02 0.91931928E+02</pdfrwt>
<pdfrwt beam="2">  1       -2 0.13462506E-01 0.91931928E+02</pdfrwt>
<totfact> 0.81293101E+04</totfact>
</mgrwt>
</event>
<event>
 5    1  0.1270834E+001  0.9223593E+02  0.7546771E-02  0.1297526E+00
          2   -1    0    0  501    0  0.00000000000E+00  0.00000000000E+00  0.10951939595E+02  0.10951939595E+02  0.00000000000E+00 0.  1.
         -2   -1    0    0    0  501 -0.00000000000E+00 -0.00000000000E+00 -0.19420000491E+03  0.19420000491E+03  0.00000000000E+00 0. -1.
         23    2    1    2    0    0  0.00000000000E+00  0.00000000000E+00 -0.18324806531E+03  0.20515194450E+03  0.92235930592E+02 0.  0.
        -11    1    3    3    0    0 -0.38571331031E+02 -0.50473551128E+01 -0.36526326236E+02  0.53360995863E+02  0.00000000000E+00 0.  1.
         11    1    3    3    0    0  0.38571331031E+02  0.50473551128E+01 -0.14672173908E+03  0.15179094864E+03  0.00000000000E+00 0. -1.
<mgrwt>
<rscale>  0 0.92235931E+02</rscale>
<asrwt>0</asrwt>
<pdfrwt beam="1">  1        2 0.16849139E-02 0.92235931E+02</pdfrwt>
<pdfrwt beam="2">  1       -2 0.29876921E-01 0.92235931E+02</pdfrwt>
<totfact> 0.61276604E+04</totfact>
</mgrwt>
</event>
<event>
 5    1  0.1270834E+001  0.9300886E+02  0.7546771E-02  0.1295725E+00
          1   -1    0    0  501    0  0.00000000000E+00  0.00000000000E+00  0.62289051168E+02  0.62289051168E+02  0.00000000000E+00 0. -1.
         -1   -1    0    0    0  501 -0.00000000000E+00 -0.00000000000E+00 -0.34719781159E+02  0.34719781159E+02  0.00000000000E+00 0.  1.
         23    2    1    2    0    0  0.00000000000E+00  0.00000000000E+00  0.27569270009E+02  0.97008832327E+02  0.93008864635E+02 0.  0.
        -13    1    3    3    0    0 -0.17610656826E+02  0.39076754428E+02  0.32603147049E+02  0.53852513108E+02  0.00000000000E+00 0.  1.
         13    1    3    3    0    0  0.17610656826E+02 -0.39076754428E+02 -0.50338770401E+01  0.43156319219E+02  0.00000000000E+00 0. -1.
<mgrwt>
<rscale>  0 0.93008865E+02</rscale>
<asrwt>0</asrwt>
<pdfrwt beam="1">  1        1 0.95829309E-02 0.93008865E+02</pdfrwt>
<pdfrwt beam="2">  1       -1 0.53415048E-02 0.93008865E+02</pdfrwt>
<totfact> 0.91711692E+04</totfact>
</mgrwt>
</event>
<event>
 5    1  0.1270834E+001  0.9082214E+02  0.7546771E-02  0.1300873E+00
          1   -1    0    0  501    0  0.00000000000E+00  0.00000000000E+00  0.90296604011E+01  0.90296604011E+01  0.00000000000E+00 0. -1.
         -1   -1    0    0    0  501 -0.00000000000E+00 -0.00000000000E+00 -0.22837686162E+03  0.22837686162E+03  0.00000000000E+00 0.  1.
         23    2    1    2    0    0  0.00000000000E+00  0.00000000000E+00 -0.21934720122E+03  0.23740652203E+03  0.90822144963E+02 0.  0.
        -13    1    3    3    0    0 -0.32331472702E+02 -0.30969421701E+02 -0.12953570920E+03  0.13705447517E+03  0.00000000000E+00 0.  1.
         13    1    3    3    0    0  0.32331472702E+02  0.30969421701E+02 -0.89811492025E+02  0.10035204685E+03  0.00000000000E+00 0. -1.
<mgrwt>
<rscale>  0 0.90822145E+02</rscale>
<asrwt>0</asrwt>
<pdfrwt beam="1">  1        1 0.13891785E-02 0.90822145E+02</pdfrwt>
<pdfrwt beam="2">  1       -1 0.35134904E-01 0.90822145E+02</pdfrwt>
<totfact> 0.67392241E+04</totfact>
</mgrwt>
</event>
<event>
 5    1  0.1270834E+001  0.9114715E+02  0.7546771E-02  0.1300097E+00
          2   -1    0    0  501    0  0.00000000000E+00  0.00000000000E+00  0.50160488120E+02  0.50160488120E+02  0.00000000000E+00 0. -1.
         -2   -1    0    0    0  501 -0.00000000000E+00 -0.00000000000E+00 -0.41406113734E+02  0.41406113734E+02  0.00000000000E+00 0.  1.
         23    2    1    2    0    0  0.00000000000E+00  0.00000000000E+00  0.87543743852E+01  0.91566601854E+02  0.91147153023E+02 0.  0.
        -11    1    3    3    0    0 -0.32563154148E+02 -0.29787818436E+02  0.15799547784E+02  0.46875354350E+02  0.00000000000E+00 0.  1.
         11    1    3    3    0    0  0.32563154148E+02  0.29787818436E+02 -0.70451733992E+01  0.44691247504E+02  0.00000000000E+00 0. -1.
<mgrwt>
<rscale>  0 0.91147153E+02</rscale>
<asrwt>0</asrwt>
<pdfrwt beam="1">  1        2 0.77169981E-02 0.91147153E+02</pdfrwt>
<pdfrwt beam="2">  1       -2 0.63701714E-02 0.91147153E+02</pdfrwt>
<totfact> 0.10125596E+05</totfact>
</mgrwt>
</event>
<event>
 5    1  0.1270834E+001  0.9038874E+02  0.7546771E-02  0.1301913E+00
         -2   -1    0    0    0  501 -0.00000000000E+00  0.00000000000E+00  0.37217309439E+02  0.37217309439E+02  0.00000000000E+00 0.  1.
          2   -1    0    0  501    0  0.00000000000E+00 -0.00000000000E+00 -0.54881215749E+02  0.54881215749E+02  0.00000000000E+00 0. -1.
         23    2    1    2    0    0  0.00000000000E+00  0.00000000000E+00 -0.17663906310E+02  0.92098525188E+02  0.90388742417E+02 0.  0.
        -13    1    3    3    0    0  0.25702947950E+02  0.37173770049E+02 -0.88541819589E+01  0.46053525936E+02  0.00000000000E+00 0. -1.
         13    1    3    3    0    0 -0.25702947950E+02 -0.37173770049E+02 -0.88097243508E+01  0.46044999252E+02  0.00000000000E+00 0.  1.
<mgrwt>
<rscale>  0 0.90388742E+02</rscale>
<asrwt>0</asrwt>
<pdfrwt beam="2">  1        2 0.84432639E-02 0.90388742E+02</pdfrwt>
<pdfrwt beam="1">  1       -2 0.57257400E-02 0.90388742E+02</pdfrwt>
<totfact> 0.10615873E+05</totfact>
</mgrwt>
</event>
<event>
 5    1  0.1270834E+001  0.9229233E+02  0.7546771E-02  0.1297394E+00
          2   -1    0    0  501    0  0.00000000000E+00  0.00000000000E+00  0.40704524798E+03  0.40704524798E+03  0.00000000000E+00 0. -1.
         -2   -1    0    0    0  501 -0.00000000000E+00 -0.00000000000E+00 -0.52315283596E+01  0.52315283596E+01  0.00000000000E+00 0.  1.
         23    2    1    2    0    0  0.00000000000E+00  0.00000000000E+00  0.40181371962E+03  0.41227677634E+03  0.92292334643E+02 0.  0.
        -13    1    3    3    0    0 -0.35094185157E+02  0.29200683961E+02  0.23093510211E+03  0.23540455213E+03  0.00000000000E+00 0. -1.
         13    1    3    3    0    0  0.35094185157E+02 -0.29200683961E+02  0.17087861751E+03  0.17687222422E+03  0.00000000000E+00 0.  1.
<mgrwt>
<rscale>  0 0.92292335E+02</rscale>
<asrwt>0</asrwt>
<pdfrwt beam="1">  1        2 0.62622321E-01 0.92292335E+02</pdfrwt>
<pdfrwt beam="2">  1       -2 0.80485084E-03 0.92292335E+02</pdfrwt>
<totfact> 0.19448463E+05</totfact>
</mgrwt>
</event>
<event>
 5    1  0.1270834E+001  0.9256302E+02  0.7546771E-02  0.1296761E+00
          1   -1    0    0  501    0  0.00000000000E+00  0.00000000000E+00  0.66665981466E+02  0.66665981466E+02  0.00000000000E+00 0. -1.
         -1   -1    0    0    0  501 -0.00000000000E+00 -0.00000000000E+00 -0.32130004948E+02  0.32130004948E+02  0.00000000000E+00 0.  1.
         23    2    1    2    0    0  0.00000000000E+00  0.00000000000E+00  0.34535976518E+02  0.98795986414E+02  0.92563023165E+02 0.  0.
        -11    1    3    3    0    0 -0.44791804137E+02 -0.37174441795E+01  0.29050021674E+02  0.53516622355E+02  0.00000000000E+00 0. -1.
         11    1    3    3    0    0  0.44791804137E+02  0.37174441795E+01  0.54859548444E+01  0.45279364059E+02  0.00000000000E+00 0.  1.
<mgrwt>
<rscale>  0 0.92563023E+02</rscale>
<asrwt>0</asrwt>
<pdfrwt beam="1">  1        1 0.10256305E-01 0.92563023E+02</pdfrwt>
<pdfrwt beam="2">  1       -1 0.49430777E-02 0.92563023E+02</pdfrwt>
<totfact> 0.93922794E+04</totfact>
</mgrwt>
</event>
<event>
 5    1  0.1270834E+001  0.5873236E+02  0.7546771E-02  0.1403230E+00
          1   -1    0    0  501    0  0.00000000000E+00  0.00000000000E+00  0.79938861190E+02  0.79938861190E+02  0.00000000000E+00 0. -1.
         -1   -1    0    0    0  501 -0.00000000000E+00 -0.00000000000E+00 -0.10787899596E+02  0.10787899596E+02  0.00000000000E+00 0.  1.
         23    2    1    2    0    0  0.00000000000E+00  0.00000000000E+00  0.69150961594E+02  0.90726760785E+02  0.58732355931E+02 0.  0.
        -11    1    3    3    0    0  0.17774869143E+02  0.67817823077E+01  0.69132106477E+02  0.71702068939E+02  0.00000000000E+00 0. -1.
         11    1    3    3    0    0 -0.17774869143E+02 -0.67817823077E+01  0.18855117373E-01  0.19024691846E+02  0.00000000000E+00 0.  1.
<mgrwt>
<rscale>  0 0.58732356E+02</rscale>
<asrwt>0</asrwt>
<pdfrwt beam="1">  1        1 0.12298286E-01 0.58732356E+02</pdfrwt>
<pdfrwt beam="2">  1       -1 0.16596769E-02 0.58732356E+02</pdfrwt>
<totfact> 0.32501794E+05</totfact>
</mgrwt>
</event>
<event>
 5    1  0.1270834E+001  0.9250992E+02  0.7546771E-02  0.1296885E+00
         -1   -1    0    0    0  501 -0.00000000000E+00  0.00000000000E+00  0.78410945727E+02  0.78410945727E+02  0.00000000000E+00 0. -1.
          1   -1    0    0  501    0  0.00000000000E+00 -0.00000000000E+00 -0.27286002197E+02  0.27286002197E+02  0.00000000000E+00 0.  1.
         23    2    1    2    0    0  0.00000000000E+00  0.00000000000E+00  0.51124943530E+02  0.10569694792E+03  0.92509918114E+02 0.  0.
        -13    1    3    3    0    0  0.29224286717E+02  0.28302282360E+02  0.50710013932E+02  0.65012180658E+02  0.00000000000E+00 0. -1.
         13    1    3    3    0    0 -0.29224286717E+02 -0.28302282360E+02  0.41492959722E+00  0.40684767266E+02  0.00000000000E+00 0.  1.
<mgrwt>
<rscale>  0 0.92509918E+02</rscale>
<asrwt>0</asrwt>
<pdfrwt beam="2">  1        1 0.41978465E-02 0.92509918E+02</pdfrwt>
<pdfrwt beam="1">  1       -1 0.12063222E-01 0.92509918E+02</pdfrwt>
<totfact> 0.81837506E+04</totfact>
</mgrwt>
</event>
<event>
 5    1  0.1270834E+001  0.9161895E+02  0.7546771E-02  0.1298978E+00
          2   -1    0    0  501    0  0.00000000000E+00  0.00000000000E+00  0.61737946875E+02  0.61737946875E+02  0.00000000000E+00 0. -1.
         -2   -1    0    0    0  501 -0.00000000000E+00 -0.00000000000E+00 -0.33990572992E+02  0.33990572992E+02  0.00000000000E+00 0.  1.
         23    2    1    2    0    0  0.00000000000E+00  0.00000000000E+00  0.27747373883E+02  0.95728519867E+02  0.91618954144E+02 0.  0.
        -13    1    3    3    0    0  0.12500969291E+02  0.13777649373E+02 -0.29865823406E+02  0.35186151583E+02  0.00000000000E+00 0.  1.
         13    1    3    3    0    0 -0.12500969291E+02 -0.13777649373E+02  0.57613197290E+02  0.60542368284E+02  0.00000000000E+00 0. -1.
<mgrwt>
<rscale>  0 0.91618954E+02</rscale>
<asrwt>0</asrwt>
<pdfrwt beam="1">  1        2 0.94981457E-02 0.91618954E+02</pdfrwt>
<pdfrwt beam="2">  1       -2 0.52293189E-02 0.91618954E+02</pdfrwt>
<totfact> 0.10543901E+05</totfact>
</mgrwt>
</event>
<event>
 5    1  0.1270834E+001  0.8959574E+02  0.7546771E-02  0.1303834E+00
          3   -1    0    0  501    0  0.00000000000E+00  0.00000000000E+00  0.73660263460E+01  0.73660263460E+01  0.00000000000E+00 0. -1.
         -3   -1    0    0    0  501 -0.00000000000E+00 -0.00000000000E+00 -0.27244664076E+03  0.27244664076E+03  0.00000000000E+00 0.  1.
         23    2    1    2    0    0  0.00000000000E+00  0.00000000000E+00 -0.26508061441E+03  0.27981266710E+03  0.89595739490E+02 0.  0.
        -11    1    3    3    0    0 -0.39806983412E+02  0.82416141122E+01 -0.19132758678E+03  0.19559848055E+03  0.00000000000E+00 0.  1.
         11    1    3    3    0    0  0.39806983412E+02 -0.82416141122E+01 -0.73753027633E+02  0.84214186552E+02  0.00000000000E+00 0. -1.
<mgrwt>
<rscale>  0 0.89595739E+02</rscale>
<asrwt>0</asrwt>
<pdfrwt beam="1">  1        3 0.11332349E-02 0.89595739E+02</pdfrwt>
<pdfrwt beam="2">  1       -3 0.41914864E-01 0.89595739E+02</pdfrwt>
<totfact> 0.26019327E+04</totfact>
</mgrwt>
</event>
<event>
 5    1  0.1270834E+001  0.9196739E+02  0.7546771E-02  0.1298156E+00
         -2   -1    0    0    0  501 -0.00000000000E+00  0.00000000000E+00  0.61796253803E+01  0.61796253803E+01  0.00000000000E+00 0. -1.
          2   -1    0    0  501    0  0.00000000000E+00 -0.00000000000E+00 -0.34217284670E+03  0.34217284670E+03  0.00000000000E+00 0.  1.
         23    2    1    2    0    0  0.00000000000E+00  0.00000000000E+00 -0.33599322132E+03  0.34835247208E+03  0.91967385695E+02 0.  0.
        -11    1    3    3    0    0 -0.36662988135E+02 -0.26230400404E+02 -0.20235733342E+03  0.20731786945E+03  0.00000000000E+00 0.  1.
         11    1    3    3    0    0  0.36662988135E+02  0.26230400404E+02 -0.13363588789E+03  0.14103460262E+03  0.00000000000E+00 0. -1.
<mgrwt>
<rscale>  0 0.91967386E+02</rscale>
<asrwt>0</asrwt>
<pdfrwt beam="2">  1        2 0.52641976E-01 0.91967386E+02</pdfrwt>
<pdfrwt beam="1">  1       -2 0.95071161E-03 0.91967386E+02</pdfrwt>
<totfact> 0.18433685E+05</totfact>
</mgrwt>
</event>
<event>
 5    1  0.1270834E+001  0.9214389E+02  0.7546771E-02  0.1297741E+00
         -4   -1    0    0    0  501 -0.00000000000E+00  0.00000000000E+00  0.12180714352E+03  0.12180714352E+03  0.00000000000E+00 0. -1.
          4   -1    0    0  501    0  0.00000000000E+00 -0.00000000000E+00 -0.17426103607E+02  0.17426103607E+02  0.00000000000E+00 0.  1.
         23    2    1    2    0    0  0.00000000000E+00  0.00000000000E+00  0.10438103991E+03  0.13923324713E+03  0.92143885376E+02 0.  0.
        -13    1    3    3    0    0 -0.39555464845E+02  0.13327179235E+02  0.81660689907E+02  0.91709960100E+02  0.00000000000E+00 0. -1.
         13    1    3    3    0    0  0.39555464845E+02 -0.13327179235E+02  0.22720350006E+02  0.47523287027E+02  0.00000000000E+00 0.  1.
<mgrwt>
<rscale>  0 0.92143885E+02</rscale>
<asrwt>0</asrwt>
<pdfrwt beam="2">  1        4 0.26809391E-02 0.92143885E+02</pdfrwt>
<pdfrwt beam="1">  1       -4 0.18739560E-01 0.92143885E+02</pdfrwt>
<totfact> 0.23544760E+04</totfact>
</mgrwt>
</event>
<event>
 5    1  0.1270834E+001  0.9275751E+02  0.7546771E-02  0.1296308E+00
         -1   -1    0    0    0  501 -0.00000000000E+00  0.00000000000E+00  0.17326705618E+02  0.17326705618E+02  0.00000000000E+00 0.  1.
          1   -1    0    0  501    0  0.00000000000E+00 -0.00000000000E+00 -0.12414299530E+03  0.12414299530E+03  0.00000000000E+00 0. -1.
         23    2    1    2    0    0  0.00000000000E+00  0.00000000000E+00 -0.10681628968E+03  0.14146970091E+03  0.92757514715E+02 0.  0.
        -11    1    3    3    0    0 -0.11973849097E+02  0.24862384617E+02  0.34431229220E+01  0.27809464693E+02  0.00000000000E+00 0.  1.
         11    1    3    3    0    0  0.11973849097E+02 -0.24862384617E+02 -0.11025941260E+03  0.11366023622E+03  0.00000000000E+00 0. -1.
<mgrwt>
<rscale>  0 0.92757515E+02</rscale>
<asrwt>0</asrwt>
<pdfrwt beam="2">  1        1 0.19098923E-01 0.92757515E+02</pdfrwt>
<pdfrwt beam="1">  1       -1 0.26656469E-02 0.92757515E+02</pdfrwt>
<totfact> 0.10343857E+05</totfact>
</mgrwt>
</event>
<event>
 5    1  0.1270834E+001  0.9042070E+02  0.7546771E-02  0.1301836E+00
          1   -1    0    0  501    0  0.00000000000E+00  0.00000000000E+00  0.58507267935E+02  0.58507267935E+02  0.00000000000E+00 0. -1.
         -1   -1    0    0    0  501 -0.00000000000E+00 -0.00000000000E+00 -0.34935416882E+02  0.34935416882E+02  0.00000000000E+00 0.  1.
         23    2    1    2    0    0  0.00000000000E+00  0.00000000000E+00  0.23571851053E+02  0.93442684816E+02  0.90420701079E+02 0.  0.
        -11    1    3    3    0    0 -0.14965913463E+02 -0.88868112654E+01  0.54906004212E+02  0.57598813172E+02  0.00000000000E+00 0. -1.
         11    1    3    3    0    0  0.14965913463E+02  0.88868112654E+01 -0.31334153159E+02  0.35843871644E+02  0.00000000000E+00 0.  1.
<mgrwt>
<rscale>  0 0.90420701E+02</rscale>
<asrwt>0</asrwt>
<pdfrwt beam="1">  1        1 0.90011181E-02 0.90420701E+02</pdfrwt>
<pdfrwt beam="2">  1       -1 0.53746795E-02 0.90420701E+02</pdfrwt>
<totfact> 0.98247770E+04</totfact>
</mgrwt>
</event>
<event>
 5    1  0.1270834E+001  0.9312789E+02  0.7546771E-02  0.1295449E+00
          2   -1    0    0  501    0  0.00000000000E+00  0.00000000000E+00  0.36663900041E+03  0.36663900041E+03  0.00000000000E+00 0. -1.
         -2   -1    0    0    0  501 -0.00000000000E+00 -0.00000000000E+00 -0.59137210716E+01  0.59137210716E+01  0.00000000000E+00 0.  1.
         23    2    1    2    0    0  0.00000000000E+00  0.00000000000E+00  0.36072527934E+03  0.37255272148E+03  0.93127885885E+02 0.  0.
        -11    1    3    3    0    0 -0.28935134217E+02  0.33812531464E+02  0.12555928219E+03  0.13321284705E+03  0.00000000000E+00 0. -1.
         11    1    3    3    0    0  0.28935134217E+02 -0.33812531464E+02  0.23516599715E+03  0.23933987443E+03  0.00000000000E+00 0.  1.
<mgrwt>
<rscale>  0 0.93127886E+02</rscale>
<asrwt>0</asrwt>
<pdfrwt beam="1">  1        2 0.56405982E-01 0.93127886E+02</pdfrwt>
<pdfrwt beam="2">  1       -2 0.90980353E-03 0.93127886E+02</pdfrwt>
<totfact> 0.18283902E+05</totfact>
</mgrwt>
</event>
<event>
 5    1  0.1270834E+001  0.9010738E+02  0.7546771E-02  0.1302592E+00
          1   -1    0    0  501    0  0.00000000000E+00  0.00000000000E+00  0.23520129730E+02  0.23520129730E+02  0.00000000000E+00 0. -1.
         -1   -1    0    0    0  501 -0.00000000000E+00 -0.00000000000E+00 -0.86302028739E+02  0.86302028739E+02  0.00000000000E+00 0.  1.
         23    2    1    2    0    0  0.00000000000E+00  0.00000000000E+00 -0.62781899010E+02  0.10982215847E+03  0.90107378430E+02 0.  0.
        -11    1    3    3    0    0  0.12988217653E+02 -0.41191134004E+02 -0.47019627863E+02  0.63845506676E+02  0.00000000000E+00 0.  1.
         11    1    3    3    0    0 -0.12988217653E+02  0.41191134004E+02 -0.15762271147E+02  0.45976651793E+02  0.00000000000E+00 0. -1.
<mgrwt>
<rscale>  0 0.90107378E+02</rscale>
<asrwt>0</asrwt>
<pdfrwt beam="1">  1        1 0.36184815E-02 0.90107378E+02</pdfrwt>
<pdfrwt beam="2">  1       -1 0.13277235E-01 0.90107378E+02</pdfrwt>
<totfact> 0.86121589E+04</totfact>
</mgrwt>
</event>
<event>
 5    1  0.1270834E+001  0.9168902E+02  0.7546771E-02  0.1298812E+00
         -1   -1    0    0    0  501 -0.00000000000E+00  0.00000000000E+00  0.72469990187E+02  0.72469990187E+02  0.00000000000E+00 0.  1.
          1   -1    0    0  501    0  0.00000000000E+00 -0.00000000000E+00 -0.29001232715E+02  0.29001232715E+02  0.00000000000E+00 0. -1.
         23    2    1    2    0    0  0.00000000000E+00  0.00000000000E+00  0.43468757472E+02  0.10147122290E+03  0.91689018977E+02 0.  0.
        -13    1    3    3    0    0 -0.40267932016E+02 -0.13970058290E+01 -0.24680018885E+01  0.40367672802E+02  0.00000000000E+00 0. -1.
         13    1    3    3    0    0  0.40267932016E+02  0.13970058290E+01  0.45936759361E+02  0.61103550099E+02  0.00000000000E+00 0.  1.
<mgrwt>
<rscale>  0 0.91689019E+02</rscale>
<asrwt>0</asrwt>
<pdfrwt beam="2">  1        1 0.44617281E-02 0.91689019E+02</pdfrwt>
<pdfrwt beam="1">  1       -1 0.11149229E-01 0.91689019E+02</pdfrwt>
<totfact> 0.84829836E+04</totfact>
</mgrwt>
</event>
<event>
 5    1  0.1270834E+001  0.9333069E+02  0.7546771E-02  0.1294981E+00
         -2   -1    0    0    0  501 -0.00000000000E+00  0.00000000000E+00  0.76414810226E+02  0.76414810226E+02  0.00000000000E+00 0.  1.
          2   -1    0    0  501    0  0.00000000000E+00 -0.00000000000E+00 -0.28497808440E+02  0.28497808440E+02  0.00000000000E+00 0. -1.
         23    2    1    2    0    0  0.00000000000E+00  0.00000000000E+00  0.47917001787E+02  0.10491261867E+03  0.93330694282E+02 0.  0.
        -13    1    3    3    0    0  0.28906142033E+02 -0.36182471776E+02  0.30407940999E+02  0.55401978186E+02  0.00000000000E+00 0. -1.
         13    1    3    3    0    0 -0.28906142033E+02  0.36182471776E+02  0.17509060788E+02  0.49510640480E+02  0.00000000000E+00 0.  1.
<mgrwt>
<rscale>  0 0.93330694E+02</rscale>
<asrwt>0</asrwt>
<pdfrwt beam="2">  1        2 0.43842783E-02 0.93330694E+02</pdfrwt>
<pdfrwt beam="1">  1       -2 0.11756125E-01 0.93330694E+02</pdfrwt>
<totfact> 0.81364333E+04</totfact>
</mgrwt>
</event>
<event>
 5    1  0.1270834E+001  0.9152426E+02  0.7546771E-02  0.1299202E+00
         -2   -1    0    0    0  501 -0.00000000000E+00  0.00000000000E+00  0.32209633707E+02  0.32209633707E+02  0.00000000000E+00 0.  1.
          2   -1    0    0  501    0  0.00000000000E+00 -0.00000000000E+00 -0.65016960336E+02  0.65016960336E+02  0.00000000000E+00 0. -1.
         23    2    1    2    0    0  0.00000000000E+00  0.00000000000E+00 -0.32807326629E+02  0.97226594042E+02  0.91524258580E+02 0.  0.
        -13    1    3    3    0    0 -0.25186335992E+02 -0.49474217066E+01 -0.56650045598E+02  0.62193698785E+02  0.00000000000E+00 0. -1.
         13    1    3    3    0    0  0.25186335992E+02  0.49474217066E+01  0.23842718969E+02  0.35032895257E+02  0.00000000000E+00 0.  1.
<mgrwt>
<rscale>  0 0.91524259E+02</rscale>
<asrwt>0</asrwt>
<pdfrwt beam="2">  1        2 0.10002609E-01 0.91524259E+02</pdfrwt>
<pdfrwt beam="1">  1       -2 0.49553284E-02 0.91524259E+02</pdfrwt>
<totfact> 0.10724450E+05</totfact>
</mgrwt>
</event>
<event>
 5    1  0.1270834E+001  0.9291946E+02  0.7546771E-02  0.1295932E+00
          1   -1    0    0  501    0  0.00000000000E+00  0.00000000000E+00  0.20412670534E+02  0.20412670534E+02  0.00000000000E+00 0.  1.
         -1   -1    0    0    0  501 -0.00000000000E+00 -0.00000000000E+00 -0.10574346665E+03  0.10574346665E+03  0.00000000000E+00 0. -1.
         23    2    1    2    0    0  0.00000000000E+00  0.00000000000E+00 -0.85330796117E+02  0.12615613718E+03  0.92919460736E+02 0.  0.
        -11    1    3    3    0    0 -0.14119293364E+02 -0.37208068982E+02 -0.75213579073E+02  0.85093344742E+02  0.00000000000E+00 0. -1.
         11    1    3    3    0    0  0.14119293364E+02  0.37208068982E+02 -0.10117217044E+02  0.41062792442E+02  0.00000000000E+00 0.  1.
<mgrwt>
<rscale>  0 0.92919461E+02</rscale>
<asrwt>0</asrwt>
<pdfrwt beam="1">  1        1 0.31404109E-02 0.92919461E+02</pdfrwt>
<pdfrwt beam="2">  1       -1 0.16268226E-01 0.92919461E+02</pdfrwt>
<totfact> 0.76677358E+04</totfact>
</mgrwt>
</event>
<event>
 5    1  0.1270834E+001  0.9218574E+02  0.7546771E-02  0.1297643E+00
         -1   -1    0    0    0  501 -0.00000000000E+00  0.00000000000E+00  0.30972057985E+02  0.30972057985E+02  0.00000000000E+00 0.  1.
          1   -1    0    0  501    0  0.00000000000E+00 -0.00000000000E+00 -0.68595783121E+02  0.68595783121E+02  0.00000000000E+00 0. -1.
         23    2    1    2    0    0  0.00000000000E+00  0.00000000000E+00 -0.37623725136E+02  0.99567841106E+02  0.92185737994E+02 0.  0.
        -11    1    3    3    0    0  0.70473241591E+01  0.15725799426E+02  0.27361806617E+02  0.32336264577E+02  0.00000000000E+00 0.  1.
         11    1    3    3    0    0 -0.70473241591E+01 -0.15725799426E+02 -0.64985531753E+02  0.67231576530E+02  0.00000000000E+00 0. -1.
<mgrwt>
<rscale>  0 0.92185738E+02</rscale>
<asrwt>0</asrwt>
<pdfrwt beam="2">  1        1 0.10553197E-01 0.92185738E+02</pdfrwt>
<pdfrwt beam="1">  1       -1 0.47649320E-02 0.92185738E+02</pdfrwt>
<totfact> 0.95411821E+04</totfact>
</mgrwt>
</event>
<event>
 5    1  0.1270834E+001  0.8991652E+02  0.7546771E-02  0.1303054E+00
          1   -1    0    0  501    0  0.00000000000E+00  0.00000000000E+00  0.19289940892E+03  0.19289940892E+03  0.00000000000E+00 0. -1.
         -1   -1    0    0    0  501 -0.00000000000E+00 -0.00000000000E+00 -0.10478234989E+02  0.10478234989E+02  0.00000000000E+00 0.  1.
         23    2    1    2    0    0  0.00000000000E+00  0.00000000000E+00  0.18242117393E+03  0.20337764390E+03  0.89916524308E+02 0.  0.
        -11    1    3    3    0    0  0.20516249468E+02  0.20131364516E+02  0.16940181103E+03  0.17182305407E+03  0.00000000000E+00 0. -1.
         11    1    3    3    0    0 -0.20516249468E+02 -0.20131364516E+02  0.13019362898E+02  0.31554589837E+02  0.00000000000E+00 0.  1.
<mgrwt>
<rscale>  0 0.89916524E+02</rscale>
<asrwt>0</asrwt>
<pdfrwt beam="1">  1        1 0.29676830E-01 0.89916524E+02</pdfrwt>
<pdfrwt beam="2">  1       -1 0.16120363E-02 0.89916524E+02</pdfrwt>
<totfact> 0.12204927E+05</totfact>
</mgrwt>
</event>
<event>
 5    1  0.1270834E+001  0.9028122E+02  0.7546771E-02  0.1302172E+00
          3   -1    0    0  501    0  0.00000000000E+00  0.00000000000E+00  0.12491571448E+03  0.12491571448E+03  0.00000000000E+00 0. -1.
         -3   -1    0    0    0  501 -0.00000000000E+00 -0.00000000000E+00 -0.16312395422E+02  0.16312395422E+02  0.00000000000E+00 0.  1.
         23    2    1    2    0    0  0.00000000000E+00  0.00000000000E+00  0.10860331906E+03  0.14122810990E+03  0.90281216852E+02 0.  0.
        -13    1    3    3    0    0 -0.33840361935E+02  0.28921647830E+02  0.42590946319E+02  0.61608607495E+02  0.00000000000E+00 0.  1.
         13    1    3    3    0    0  0.33840361935E+02 -0.28921647830E+02  0.66012372739E+02  0.79619502408E+02  0.00000000000E+00 0. -1.
<mgrwt>
<rscale>  0 0.90281217E+02</rscale>
<asrwt>0</asrwt>
<pdfrwt beam="1">  1        3 0.19217802E-01 0.90281217E+02</pdfrwt>
<pdfrwt beam="2">  1       -3 0.25095994E-02 0.90281217E+02</pdfrwt>
<totfact> 0.32714445E+04</totfact>
</mgrwt>
</event>
<event>
 5    1  0.1270834E+001  0.8585292E+02  0.7546771E-02  0.1313217E+00
         -1   -1    0    0    0  501 -0.00000000000E+00  0.00000000000E+00  0.17037349077E+03  0.17037349077E+03  0.00000000000E+00 0.  1.
          1   -1    0    0  501    0  0.00000000000E+00 -0.00000000000E+00 -0.10815537921E+02  0.10815537921E+02  0.00000000000E+00 0. -1.
         23    2    1    2    0    0  0.00000000000E+00  0.00000000000E+00  0.15955795285E+03  0.18118902869E+03  0.85852919581E+02 0.  0.
        -11    1    3    3    0    0 -0.41125025890E+02 -0.78474531825E+00  0.53862633823E+02  0.67772169081E+02  0.00000000000E+00 0. -1.
         11    1    3    3    0    0  0.41125025890E+02  0.78474531825E+00  0.10569531903E+03  0.11341685961E+03  0.00000000000E+00 0.  1.
<mgrwt>
<rscale>  0 0.85852920E+02</rscale>
<asrwt>0</asrwt>
<pdfrwt beam="2">  1        1 0.16639290E-02 0.85852920E+02</pdfrwt>
<pdfrwt beam="1">  1       -1 0.26211304E-01 0.85852920E+02</pdfrwt>
<totfact> 0.84743116E+04</totfact>
</mgrwt>
</event>
<event>
 5    1  0.1270834E+001  0.8994346E+02  0.7546771E-02  0.1302989E+00
         -2   -1    0    0    0  501 -0.00000000000E+00  0.00000000000E+00  0.17488385172E+02  0.17488385172E+02  0.00000000000E+00 0.  1.
          2   -1    0    0  501    0  0.00000000000E+00 -0.00000000000E+00 -0.11564568806E+03  0.11564568806E+03  0.00000000000E+00 0. -1.
         23    2    1    2    0    0  0.00000000000E+00  0.00000000000E+00 -0.98157302888E+02  0.13313407323E+03  0.89943456379E+02 0.  0.
        -13    1    3    3    0    0  0.20495587671E+02 -0.35552931292E+02 -0.21850408647E+02  0.46492154128E+02  0.00000000000E+00 0.  1.
         13    1    3    3    0    0 -0.20495587671E+02  0.35552931292E+02 -0.76306894241E+02  0.86641919105E+02  0.00000000000E+00 0. -1.
<mgrwt>
<rscale>  0 0.89943456E+02</rscale>
<asrwt>0</asrwt>
<pdfrwt beam="2">  1        2 0.17791644E-01 0.89943456E+02</pdfrwt>
<pdfrwt beam="1">  1       -2 0.26905208E-02 0.89943456E+02</pdfrwt>
<totfact> 0.13321131E+05</totfact>
</mgrwt>
</event>
<event>
 5    1  0.1270834E+001  0.9217686E+02  0.7546771E-02  0.1297664E+00
          1   -1    0    0  501    0  0.00000000000E+00  0.00000000000E+00  0.14904852740E+03  0.14904852740E+03  0.00000000000E+00 0. -1.
         -1   -1    0    0    0  501 -0.00000000000E+00 -0.00000000000E+00 -0.14251354282E+02  0.14251354282E+02  0.00000000000E+00 0.  1.
         23    2    1    2    0    0  0.00000000000E+00  0.00000000000E+00  0.13479717312E+03  0.16329988168E+03  0.92176859769E+02 0.  0.
        -11    1    3    3    0    0 -0.36674622840E+02  0.16743793284E+02  0.27833682615E+02  0.48990779356E+02  0.00000000000E+00 0.  1.
         11    1    3    3    0    0  0.36674622840E+02 -0.16743793284E+02  0.10696349050E+03  0.11430910233E+03  0.00000000000E+00 0. -1.
<mgrwt>
<rscale>  0 0.92176860E+02</rscale>
<asrwt>0</asrwt>
<pdfrwt beam="1">  1        1 0.22930542E-01 0.92176860E+02</pdfrwt>
<pdfrwt beam="2">  1       -1 0.21925161E-02 0.92176860E+02</pdfrwt>
<totfact> 0.10874849E+05</totfact>
</mgrwt>
</event>
<event>
 4    1  0.1270834E+001  0.1840818E+03  0.7546771E-02  0.1163910E+00
          1   -1    0    0  501    0  0.00000000000E+00  0.00000000000E+00  0.77966727110E+02  0.77966727110E+02  0.00000000000E+00 0. -1.
         -1   -1    0    0    0  501 -0.00000000000E+00 -0.00000000000E+00 -0.10865565574E+03  0.10865565574E+03  0.00000000000E+00 0.  1.
        -13    1    1    2    0    0 -0.78256565546E+01 -0.60266788877E+02 -0.85423002839E+02  0.10483518568E+03  0.00000000000E+00 0.  1.
         13    1    1    2    0    0  0.78256565546E+01  0.60266788877E+02  0.54734074208E+02  0.81787197173E+02  0.00000000000E+00 0. -1.
<mgrwt>
<rscale>  0 0.18408178E+03</rscale>
<asrwt>0</asrwt>
<pdfrwt beam="1">  1        1 0.11994881E-01 0.18408178E+03</pdfrwt>
<pdfrwt beam="2">  1       -1 0.16716255E-01 0.18408178E+03</pdfrwt>
<totfact> 0.12999042E+04</totfact>
</mgrwt>
</event>
<event>
 5    1  0.1270834E+001  0.9060836E+02  0.7546771E-02  0.1301385E+00
          1   -1    0    0  501    0  0.00000000000E+00  0.00000000000E+00  0.64160325957E+02  0.64160325957E+02  0.00000000000E+00 0. -1.
         -1   -1    0    0    0  501 -0.00000000000E+00 -0.00000000000E+00 -0.31989689588E+02  0.31989689588E+02  0.00000000000E+00 0.  1.
         23    2    1    2    0    0  0.00000000000E+00  0.00000000000E+00  0.32170636368E+02  0.96150015545E+02  0.90608364100E+02 0.  0.
        -11    1    3    3    0    0  0.15398170373E+02 -0.11275421349E+02 -0.27515726315E+02  0.33486623778E+02  0.00000000000E+00 0.  1.
         11    1    3    3    0    0 -0.15398170373E+02  0.11275421349E+02  0.59686362683E+02  0.62663391767E+02  0.00000000000E+00 0. -1.
<mgrwt>
<rscale>  0 0.90608364E+02</rscale>
<asrwt>0</asrwt>
<pdfrwt beam="1">  1        1 0.98708193E-02 0.90608364E+02</pdfrwt>
<pdfrwt beam="2">  1       -1 0.49214907E-02 0.90608364E+02</pdfrwt>
<totfact> 0.99055226E+04</totfact>
</mgrwt>
</event>
<event>
 5    1  0.1270834E+001  0.8956711E+02  0.7546771E-02  0.1303903E+00
          1   -1    0    0  501    0  0.00000000000E+00  0.00000000000E+00  0.55617748585E+02  0.55617748585E+02  0.00000000000E+00 0. -1.
         -1   -1    0    0    0  501 -0.00000000000E+00 -0.00000000000E+00 -0.36059836060E+02  0.36059836060E+02  0.00000000000E+00 0.  1.
         23    2    1    2    0    0  0.00000000000E+00  0.00000000000E+00  0.19557912524E+02  0.91677584645E+02  0.89567112179E+02 0.  0.
        -11    1    3    3    0    0 -0.22467101818E+02 -0.25817960913E+02  0.39342552696E+02  0.52145701860E+02  0.00000000000E+00 0. -1.
         11    1    3    3    0    0  0.22467101818E+02  0.25817960913E+02 -0.19784640172E+02  0.39531882785E+02  0.00000000000E+00 0.  1.
<mgrwt>
<rscale>  0 0.89567112E+02</rscale>
<asrwt>0</asrwt>
<pdfrwt beam="1">  1        1 0.85565767E-02 0.89567112E+02</pdfrwt>
<pdfrwt beam="2">  1       -1 0.55476671E-02 0.89567112E+02</pdfrwt>
<totfact> 0.10010491E+05</totfact>
</mgrwt>
</event>
<event>
 5    1  0.1270834E+001  0.9123942E+02  0.7546771E-02  0.1299878E+00
         -1   -1    0    0    0  501 -0.00000000000E+00  0.00000000000E+00  0.37127896580E+02  0.37127896580E+02  0.00000000000E+00 0.  1.
          1   -1    0    0  501    0  0.00000000000E+00 -0.00000000000E+00 -0.56053752505E+02  0.56053752505E+02  0.00000000000E+00 0. -1.
         23    2    1    2    0    0  0.00000000000E+00  0.00000000000E+00 -0.18925855925E+02  0.93181649085E+02  0.91239419681E+02 0.  0.
        -11    1    3    3    0    0 -0.50861154599E+00  0.26532825377E+02  0.28433685783E+02  0.38893752653E+02  0.00000000000E+00 0.  1.
         11    1    3    3    0    0  0.50861154599E+00 -0.26532825377E+02 -0.47359541708E+02  0.54287896432E+02  0.00000000000E+00 0. -1.
<mgrwt>
<rscale>  0 0.91239420E+02</rscale>
<asrwt>0</asrwt>
<pdfrwt beam="2">  1        1 0.86236543E-02 0.91239420E+02</pdfrwt>
<pdfrwt beam="1">  1       -1 0.57119841E-02 0.91239420E+02</pdfrwt>
<totfact> 0.95204986E+04</totfact>
</mgrwt>
</event>
<event>
 5    1  0.1270834E+001  0.9192787E+02  0.7546771E-02  0.1298249E+00
         -1   -1    0    0    0  501 -0.00000000000E+00  0.00000000000E+00  0.32966129638E+03  0.32966129638E+03  0.00000000000E+00 0.  1.
          1   -1    0    0  501    0  0.00000000000E+00 -0.00000000000E+00 -0.64086488702E+01  0.64086488702E+01  0.00000000000E+00 0. -1.
         23    2    1    2    0    0  0.00000000000E+00  0.00000000000E+00  0.32325264751E+03  0.33606994525E+03  0.91927873784E+02 0.  0.
        -13    1    3    3    0    0  0.21158100808E+02 -0.36928079175E+02  0.22508739763E+03  0.22907571856E+03  0.00000000000E+00 0.  1.
         13    1    3    3    0    0 -0.21158100808E+02  0.36928079175E+02  0.98165249880E+02  0.10699422669E+03  0.00000000000E+00 0. -1.
<mgrwt>
<rscale>  0 0.91927874E+02</rscale>
<asrwt>0</asrwt>
<pdfrwt beam="2">  1        1 0.98594624E-03 0.91927874E+02</pdfrwt>
<pdfrwt beam="1">  1       -1 0.50717109E-01 0.91927874E+02</pdfrwt>
<totfact> 0.57052618E+04</totfact>
</mgrwt>
</event>
<event>
 5    1  0.1270834E+001  0.9091277E+02  0.7546771E-02  0.1300656E+00
         -2   -1    0    0    0  501 -0.00000000000E+00  0.00000000000E+00  0.27347395646E+03  0.27347395646E+03  0.00000000000E+00 0.  1.
          2   -1    0    0  501    0  0.00000000000E+00 -0.00000000000E+00 -0.75556848444E+01  0.75556848444E+01  0.00000000000E+00 0. -1.
         23    2    1    2    0    0  0.00000000000E+00  0.00000000000E+00  0.26591827162E+03  0.28102964131E+03  0.90912772000E+02 0.  0.
        -13    1    3    3    0    0 -0.18850552234E+02 -0.41317910514E+02  0.12695712574E+03  0.13483554734E+03  0.00000000000E+00 0. -1.
         13    1    3    3    0    0  0.18850552234E+02  0.41317910514E+02  0.13896114588E+03  0.14619409397E+03  0.00000000000E+00 0.  1.
<mgrwt>
<rscale>  0 0.90912772E+02</rscale>
<asrwt>0</asrwt>
<pdfrwt beam="2">  1        2 0.11624133E-02 0.90912772E+02</pdfrwt>
<pdfrwt beam="1">  1       -2 0.42072909E-01 0.90912772E+02</pdfrwt>
<totfact> 0.54045421E+04</totfact>
</mgrwt>
</event>
<event>
 5    1  0.1270834E+001  0.9284146E+02  0.7546771E-02  0.1296113E+00
          4   -1    0    0  501    0  0.00000000000E+00  0.00000000000E+00  0.80904201640E+01  0.80904201640E+01  0.00000000000E+00 0. -1.
         -4   -1    0    0    0  501 -0.00000000000E+00 -0.00000000000E+00 -0.26635011939E+03  0.26635011939E+03  0.00000000000E+00 0.  1.
         23    2    1    2    0    0  0.00000000000E+00  0.00000000000E+00 -0.25825969922E+03  0.27444053955E+03  0.92841464369E+02 0.  0.
        -11    1    3    3    0    0  0.46411902127E+02  0.74763775667E+00 -0.12762038536E+03  0.13579980258E+03  0.00000000000E+00 0. -1.
         11    1    3    3    0    0 -0.46411902127E+02 -0.74763775667E+00 -0.13063931386E+03  0.13864073697E+03  0.00000000000E+00 0.  1.
<mgrwt>
<rscale>  0 0.92841464E+02</rscale>
<asrwt>0</asrwt>
<pdfrwt beam="1">  1        4 0.12446798E-02 0.92841464E+02</pdfrwt>
<pdfrwt beam="2">  1       -4 0.40976950E-01 0.92841464E+02</pdfrwt>
<totfact> 0.17751137E+04</totfact>
</mgrwt>
</event>
<event>
 5    1  0.1270834E+001  0.7548117E+02  0.7546771E-02  0.1342387E+00
         -2   -1    0    0    0  501 -0.00000000000E+00  0.00000000000E+00  0.89197697790E+01  0.89197697790E+01  0.00000000000E+00 0.  1.
          2   -1    0    0  501    0  0.00000000000E+00 -0.00000000000E+00 -0.15968479198E+03  0.15968479198E+03  0.00000000000E+00 0. -1.
         23    2    1    2    0    0  0.00000000000E+00  0.00000000000E+00 -0.15076502221E+03  0.16860456176E+03  0.75481165378E+02 0.  0.
        -13    1    3    3    0    0 -0.23162479261E+02 -0.25970699247E+02 -0.10801133265E+03  0.11347874535E+03  0.00000000000E+00 0. -1.
         13    1    3    3    0    0  0.23162479261E+02  0.25970699247E+02 -0.42753689557E+02  0.55125816417E+02  0.00000000000E+00 0.  1.
<mgrwt>
<rscale>  0 0.75481165E+02</rscale>
<asrwt>0</asrwt>
<pdfrwt beam="2">  1        2 0.24566890E-01 0.75481165E+02</pdfrwt>
<pdfrwt beam="1">  1       -2 0.13722723E-02 0.75481165E+02</pdfrwt>
<totfact> 0.23682242E+05</totfact>
</mgrwt>
</event>
<event>
 5    1  0.1270834E+001  0.8905681E+02  0.7546771E-02  0.1305152E+00
          1   -1    0    0  501    0  0.00000000000E+00  0.00000000000E+00  0.10160790130E+02  0.10160790130E+02  0.00000000000E+00 0. -1.
         -1   -1    0    0    0  501 -0.00000000000E+00 -0.00000000000E+00 -0.19514020760E+03  0.19514020760E+03  0.00000000000E+00 0.  1.
         23    2    1    2    0    0  0.00000000000E+00  0.00000000000E+00 -0.18497941747E+03  0.20530099773E+03  0.89056806484E+02 0.  0.
        -13    1    3    3    0    0 -0.28224764302E+02 -0.33741012980E+02 -0.76570673583E+02  0.88307198629E+02  0.00000000000E+00 0. -1.
         13    1    3    3    0    0  0.28224764302E+02  0.33741012980E+02 -0.10840874389E+03  0.11699379910E+03  0.00000000000E+00 0.  1.
<mgrwt>
<rscale>  0 0.89056806E+02</rscale>
<asrwt>0</asrwt>
<pdfrwt beam="1">  1        1 0.15631985E-02 0.89056806E+02</pdfrwt>
<pdfrwt beam="2">  1       -1 0.30021570E-01 0.89056806E+02</pdfrwt>
<totfact> 0.74322157E+04</totfact>
</mgrwt>
</event>
<event>
 5    1  0.1270834E+001  0.9089626E+02  0.7546771E-02  0.1300696E+00
         -2   -1    0    0    0  501 -0.00000000000E+00  0.00000000000E+00  0.24372273896E+02  0.24372273896E+02  0.00000000000E+00 0.  1.
          2   -1    0    0  501    0  0.00000000000E+00 -0.00000000000E+00 -0.84749278118E+02  0.84749278118E+02  0.00000000000E+00 0. -1.
         23    2    1    2    0    0  0.00000000000E+00  0.00000000000E+00 -0.60377004222E+02  0.10912155201E+03  0.90896262162E+02 0.  0.
        -11    1    3    3    0    0 -0.46611046144E+00  0.41689560322E+02 -0.84697531528E+01  0.42543782358E+02  0.00000000000E+00 0.  1.
         11    1    3    3    0    0  0.46611046144E+00 -0.41689560322E+02 -0.51907251069E+02  0.66577769656E+02  0.00000000000E+00 0. -1.
<mgrwt>
<rscale>  0 0.90896262E+02</rscale>
<asrwt>0</asrwt>
<pdfrwt beam="2">  1        2 0.13038350E-01 0.90896262E+02</pdfrwt>
<pdfrwt beam="1">  1       -2 0.37495806E-02 0.90896262E+02</pdfrwt>
<totfact> 0.11778310E+05</totfact>
</mgrwt>
</event>
<event>
 5    1  0.1270834E+001  0.9100340E+02  0.7546771E-02  0.1300440E+00
          1   -1    0    0  501    0  0.00000000000E+00  0.00000000000E+00  0.44206945646E+02  0.44206945646E+02  0.00000000000E+00 0. -1.
         -1   -1    0    0    0  501 -0.00000000000E+00 -0.00000000000E+00 -0.46834378450E+02  0.46834378450E+02  0.00000000000E+00 0.  1.
         23    2    1    2    0    0  0.00000000000E+00  0.00000000000E+00 -0.26274328039E+01  0.91041324097E+02  0.91003402630E+02 0.  0.
        -13    1    3    3    0    0  0.15493568127E+02  0.16666465748E+02  0.38105533882E+02  0.44383031062E+02  0.00000000000E+00 0. -1.
         13    1    3    3    0    0 -0.15493568127E+02 -0.16666465748E+02 -0.40732966686E+02  0.46658293034E+02  0.00000000000E+00 0.  1.
<mgrwt>
<rscale>  0 0.91003403E+02</rscale>
<asrwt>0</asrwt>
<pdfrwt beam="1">  1        1 0.68010686E-02 0.91003403E+02</pdfrwt>
<pdfrwt beam="2">  1       -1 0.72052890E-02 0.91003403E+02</pdfrwt>
<totfact> 0.92539325E+04</totfact>
</mgrwt>
</event>
<event>
 5    1  0.1270834E+001  0.9990692E+02  0.7546771E-02  0.1280492E+00
         -2   -1    0    0    0  501 -0.00000000000E+00  0.00000000000E+00  0.30340144294E+02  0.30340144294E+02  0.00000000000E+00 0.  1.
          2   -1    0    0  501    0  0.00000000000E+00 -0.00000000000E+00 -0.82245756058E+02  0.82245756058E+02  0.00000000000E+00 0. -1.
         23    2    1    2    0    0  0.00000000000E+00  0.00000000000E+00 -0.51905611764E+02  0.11258590035E+03  0.99906918806E+02 0.  0.
        -11    1    3    3    0    0  0.36031038240E+01  0.20746585663E+02 -0.76999931272E+02  0.79827267207E+02  0.00000000000E+00 0. -1.
         11    1    3    3    0    0 -0.36031038240E+01 -0.20746585663E+02  0.25094319508E+02  0.32758633144E+02  0.00000000000E+00 0.  1.
<mgrwt>
<rscale>  0 0.99906919E+02</rscale>
<asrwt>0</asrwt>
<pdfrwt beam="2">  1        2 0.12653193E-01 0.99906919E+02</pdfrwt>
<pdfrwt beam="1">  1       -2 0.46677146E-02 0.99906919E+02</pdfrwt>
<totfact> 0.89634335E+04</totfact>
</mgrwt>
</event>
<event>
 5    1  0.1270834E+001  0.9123479E+02  0.7546771E-02  0.1299889E+00
          2   -1    0    0  501    0  0.00000000000E+00  0.00000000000E+00  0.73977269809E+02  0.73977269809E+02  0.00000000000E+00 0. -1.
         -2   -1    0    0    0  501 -0.00000000000E+00 -0.00000000000E+00 -0.28129542945E+02  0.28129542945E+02  0.00000000000E+00 0.  1.
         23    2    1    2    0    0  0.00000000000E+00  0.00000000000E+00  0.45847726864E+02  0.10210681275E+03  0.91234791347E+02 0.  0.
        -13    1    3    3    0    0  0.38131770709E+02 -0.23709355910E+02  0.31931669817E+02  0.55098067410E+02  0.00000000000E+00 0. -1.
         13    1    3    3    0    0 -0.38131770709E+02  0.23709355910E+02  0.13916057047E+02  0.47008745344E+02  0.00000000000E+00 0.  1.
<mgrwt>
<rscale>  0 0.91234791E+02</rscale>
<asrwt>0</asrwt>
<pdfrwt beam="1">  1        2 0.11381118E-01 0.91234791E+02</pdfrwt>
<pdfrwt beam="2">  1       -2 0.43276220E-02 0.91234791E+02</pdfrwt>
<totfact> 0.11213810E+05</totfact>
</mgrwt>
</event>
<event>
 5    1  0.1270834E+001  0.9144492E+02  0.7546771E-02  0.1299390E+00
         -1   -1    0    0    0  501 -0.00000000000E+00  0.00000000000E+00  0.70711270462E+02  0.70711270462E+02  0.00000000000E+00 0.  1.
          1   -1    0    0  501    0  0.00000000000E+00 -0.00000000000E+00 -0.29564499058E+02  0.29564499058E+02  0.00000000000E+00 0. -1.
         23    2    1    2    0    0  0.00000000000E+00  0.00000000000E+00  0.41146771404E+02  0.10027576952E+03  0.91444918698E+02 0.  0.
        -13    1    3    3    0    0  0.21739802471E+02  0.33109816137E+02  0.45619018316E+02  0.60415012772E+02  0.00000000000E+00 0.  1.
         13    1    3    3    0    0 -0.21739802471E+02 -0.33109816137E+02 -0.44722469117E+01  0.39860756748E+02  0.00000000000E+00 0. -1.
<mgrwt>
<rscale>  0 0.91444919E+02</rscale>
<asrwt>0</asrwt>
<pdfrwt beam="2">  1        1 0.45483845E-02 0.91444919E+02</pdfrwt>
<pdfrwt beam="1">  1       -1 0.10878657E-01 0.91444919E+02</pdfrwt>
<totfact> 0.85752505E+04</totfact>
</mgrwt>
</event>
<event>
 5    1  0.1270834E+001  0.9074148E+02  0.7546771E-02  0.1301066E+00
          1   -1    0    0  501    0  0.00000000000E+00  0.00000000000E+00  0.18546385520E+03  0.18546385520E+03  0.00000000000E+00 0. -1.
         -1   -1    0    0    0  501 -0.00000000000E+00 -0.00000000000E+00 -0.11099219471E+02  0.11099219471E+02  0.00000000000E+00 0.  1.
         23    2    1    2    0    0  0.00000000000E+00  0.00000000000E+00  0.17436463573E+03  0.19656307467E+03  0.90741479663E+02 0.  0.
        -13    1    3    3    0    0 -0.41269031551E+02  0.12418229154E+02  0.11790544647E+03  0.12553501379E+03  0.00000000000E+00 0. -1.
         13    1    3    3    0    0  0.41269031551E+02 -0.12418229154E+02  0.56459189259E+02  0.71028060879E+02  0.00000000000E+00 0.  1.
<mgrwt>
<rscale>  0 0.90741480E+02</rscale>
<asrwt>0</asrwt>
<pdfrwt beam="1">  1        1 0.28532899E-01 0.90741480E+02</pdfrwt>
<pdfrwt beam="2">  1       -1 0.17075724E-02 0.90741480E+02</pdfrwt>
<totfact> 0.11820211E+05</totfact>
</mgrwt>
</event>
<event>
 5    1  0.1270834E+001  0.8854038E+02  0.7546771E-02  0.1306425E+00
         -1   -1    0    0    0  501 -0.00000000000E+00  0.00000000000E+00  0.31232208978E+02  0.31232208978E+02  0.00000000000E+00 0.  1.
          1   -1    0    0  501    0  0.00000000000E+00 -0.00000000000E+00 -0.62750922358E+02  0.62750922358E+02  0.00000000000E+00 0. -1.
         23    2    1    2    0    0  0.00000000000E+00  0.00000000000E+00 -0.31518713379E+02  0.93983131336E+02  0.88540384473E+02 0.  0.
        -13    1    3    3    0    0  0.65688957954E+01 -0.41085654920E+02 -0.31810710502E+02  0.52374638278E+02  0.00000000000E+00 0. -1.
         13    1    3    3    0    0 -0.65688957954E+01  0.41085654920E+02  0.29199712247E+00  0.41608493057E+02  0.00000000000E+00 0.  1.
<mgrwt>
<rscale>  0 0.88540384E+02</rscale>
<asrwt>0</asrwt>
<pdfrwt beam="2">  1        1 0.96539880E-02 0.88540384E+02</pdfrwt>
<pdfrwt beam="1">  1       -1 0.48049553E-02 0.88540384E+02</pdfrwt>
<totfact> 0.10521572E+05</totfact>
</mgrwt>
</event>
<event>
 5    1  0.1270834E+001  0.9450038E+02  0.7546771E-02  0.1292305E+00
          1   -1    0    0  501    0  0.00000000000E+00  0.00000000000E+00  0.51405611292E+02  0.51405611292E+02  0.00000000000E+00 0. -1.
         -1   -1    0    0    0  501 -0.00000000000E+00 -0.00000000000E+00 -0.43430673317E+02  0.43430673317E+02  0.00000000000E+00 0.  1.
         23    2    1    2    0    0  0.00000000000E+00  0.00000000000E+00  0.79749379750E+01  0.94836284609E+02  0.94500376945E+02 0.  0.
        -11    1    3    3    0    0  0.33156802587E+02 -0.25660324845E+02 -0.17878842335E+02  0.45579368493E+02  0.00000000000E+00 0.  1.
         11    1    3    3    0    0 -0.33156802587E+02  0.25660324845E+02  0.25853780310E+02  0.49256916116E+02  0.00000000000E+00 0. -1.
<mgrwt>
<rscale>  0 0.94500377E+02</rscale>
<asrwt>0</asrwt>
<pdfrwt beam="1">  1        1 0.79085555E-02 0.94500377E+02</pdfrwt>
<pdfrwt beam="2">  1       -1 0.66816421E-02 0.94500377E+02</pdfrwt>
<totfact> 0.85166762E+04</totfact>
</mgrwt>
</event>
<event>
 5    1  0.1270834E+001  0.9184132E+02  0.7546771E-02  0.1298453E+00
          1   -1    0    0  501    0  0.00000000000E+00  0.00000000000E+00  0.14739177920E+03  0.14739177920E+03  0.00000000000E+00 0. -1.
         -1   -1    0    0    0  501 -0.00000000000E+00 -0.00000000000E+00 -0.14306815311E+02  0.14306815311E+02  0.00000000000E+00 0.  1.
         23    2    1    2    0    0  0.00000000000E+00  0.00000000000E+00  0.13308496389E+03  0.16169859452E+03  0.91841318880E+02 0.  0.
        -11    1    3    3    0    0 -0.37239922061E+02  0.23906693320E+02  0.88131941787E+02  0.98618360074E+02  0.00000000000E+00 0.  1.
         11    1    3    3    0    0  0.37239922061E+02 -0.23906693320E+02  0.44953022107E+02  0.63080234441E+02  0.00000000000E+00 0. -1.
<mgrwt>
<rscale>  0 0.91841319E+02</rscale>
<asrwt>0</asrwt>
<pdfrwt beam="1">  1        1 0.22675657E-01 0.91841319E+02</pdfrwt>
<pdfrwt beam="2">  1       -1 0.22010486E-02 0.91841319E+02</pdfrwt>
<totfact> 0.10960046E+05</totfact>
</mgrwt>
</event>
<event>
 5    1  0.1270834E+001  0.9126989E+02  0.7546771E-02  0.1299805E+00
          4   -1    0    0  501    0  0.00000000000E+00  0.00000000000E+00  0.42781763754E+02  0.42781763754E+02  0.00000000000E+00 0. -1.
         -4   -1    0    0    0  501 -0.00000000000E+00 -0.00000000000E+00 -0.48678405284E+02  0.48678405284E+02  0.00000000000E+00 0.  1.
         23    2    1    2    0    0  0.00000000000E+00  0.00000000000E+00 -0.58966415298E+01  0.91460169037E+02  0.91269886266E+02 0.  0.
        -13    1    3    3    0    0 -0.74453561280E+01  0.17229582213E+02 -0.44631390783E+02  0.48417485213E+02  0.00000000000E+00 0.  1.
         13    1    3    3    0    0  0.74453561280E+01 -0.17229582213E+02  0.38734749253E+02  0.43042683824E+02  0.00000000000E+00 0. -1.
<mgrwt>
<rscale>  0 0.91269886E+02</rscale>
<asrwt>0</asrwt>
<pdfrwt beam="1">  1        4 0.65818098E-02 0.91269886E+02</pdfrwt>
<pdfrwt beam="2">  1       -4 0.74889854E-02 0.91269886E+02</pdfrwt>
<totfact> 0.26923229E+04</totfact>
</mgrwt>
</event>
<event>
 5    1  0.1270834E+001  0.9135741E+02  0.7546771E-02  0.1299597E+00
          1   -1    0    0  501    0  0.00000000000E+00  0.00000000000E+00  0.78971044036E+01  0.78971044036E+01  0.00000000000E+00 0. -1.
         -1   -1    0    0    0  501 -0.00000000000E+00 -0.00000000000E+00 -0.26421634552E+03  0.26421634552E+03  0.00000000000E+00 0.  1.
         23    2    1    2    0    0  0.00000000000E+00  0.00000000000E+00 -0.25631924112E+03  0.27211344992E+03  0.91357409457E+02 0.  0.
        -13    1    3    3    0    0 -0.22853109383E+02 -0.37503578802E+02 -0.16557120525E+03  0.17129683897E+03  0.00000000000E+00 0.  1.
         13    1    3    3    0    0  0.22853109383E+02  0.37503578802E+02 -0.90748035862E+02  0.10081661095E+03  0.00000000000E+00 0. -1.
<mgrwt>
<rscale>  0 0.91357409E+02</rscale>
<asrwt>0</asrwt>
<pdfrwt beam="1">  1        1 0.12149392E-02 0.91357409E+02</pdfrwt>
<pdfrwt beam="2">  1       -1 0.40648666E-01 0.91357409E+02</pdfrwt>
<totfact> 0.63206190E+04</totfact>
</mgrwt>
</event>
<event>
 5    1  0.1270834E+001  0.9331217E+02  0.7546771E-02  0.1295023E+00
          2   -1    0    0  501    0  0.00000000000E+00  0.00000000000E+00  0.12432160962E+02  0.12432160962E+02  0.00000000000E+00 0. -1.
         -2   -1    0    0    0  501 -0.00000000000E+00 -0.00000000000E+00 -0.17509346958E+03  0.17509346958E+03  0.00000000000E+00 0.  1.
         23    2    1    2    0    0  0.00000000000E+00  0.00000000000E+00 -0.16266130861E+03  0.18752563054E+03  0.93312168491E+02 0.  0.
        -11    1    3    3    0    0 -0.83244206175E+01  0.32100418317E+02 -0.14728474986E+03  0.15097195229E+03  0.00000000000E+00 0.  1.
         11    1    3    3    0    0  0.83244206175E+01 -0.32100418317E+02 -0.15376558751E+02  0.36553678252E+02  0.00000000000E+00 0. -1.
<mgrwt>
<rscale>  0 0.93312168E+02</rscale>
<asrwt>0</asrwt>
<pdfrwt beam="1">  1        2 0.19126401E-02 0.93312168E+02</pdfrwt>
<pdfrwt beam="2">  1       -2 0.26937457E-01 0.93312168E+02</pdfrwt>
<totfact> 0.62090760E+04</totfact>
</mgrwt>
</event>
<event>
 5    1  0.1270834E+001  0.9206460E+02  0.7546771E-02  0.1297928E+00
          3   -1    0    0  501    0  0.00000000000E+00  0.00000000000E+00  0.24079987889E+02  0.24079987889E+02  0.00000000000E+00 0. -1.
         -3   -1    0    0    0  501 -0.00000000000E+00 -0.00000000000E+00 -0.87997251961E+02  0.87997251961E+02  0.00000000000E+00 0.  1.
         23    2    1    2    0    0  0.00000000000E+00  0.00000000000E+00 -0.63917264072E+02  0.11207723985E+03  0.92064602567E+02 0.  0.
        -13    1    3    3    0    0 -0.29189308167E+02  0.73368368555E+01  0.10442556979E+02  0.31857367791E+02  0.00000000000E+00 0. -1.
         13    1    3    3    0    0  0.29189308167E+02 -0.73368368555E+01 -0.74359821051E+02  0.80219872059E+02  0.00000000000E+00 0.  1.
<mgrwt>
<rscale>  0 0.92064603E+02</rscale>
<asrwt>0</asrwt>
<pdfrwt beam="1">  1        3 0.37046136E-02 0.92064603E+02</pdfrwt>
<pdfrwt beam="2">  1       -3 0.13538038E-01 0.92064603E+02</pdfrwt>
<totfact> 0.32918511E+04</totfact>
</mgrwt>
</event>
<event>
 5    1  0.1270834E+001  0.8702896E+02  0.7546771E-02  0.1310210E+00
          2   -1    0    0  501    0  0.00000000000E+00  0.00000000000E+00  0.50914207779E+02  0.50914207779E+02  0.00000000000E+00 0. -1.
         -2   -1    0    0    0  501 -0.00000000000E+00 -0.00000000000E+00 -0.37190208362E+02  0.37190208362E+02  0.00000000000E+00 0.  1.
         23    2    1    2    0    0  0.00000000000E+00  0.00000000000E+00  0.13723999417E+02  0.88104416141E+02  0.87028960603E+02 0.  0.
        -11    1    3    3    0    0 -0.43026487273E+02  0.41562910865E+01  0.18046046536E+01  0.43264419106E+02  0.00000000000E+00 0. -1.
         11    1    3    3    0    0  0.43026487273E+02 -0.41562910865E+01  0.11919394764E+02  0.44839997036E+02  0.00000000000E+00 0.  1.
<mgrwt>
<rscale>  0 0.87028961E+02</rscale>
<asrwt>0</asrwt>
<pdfrwt beam="1">  1        2 0.78329550E-02 0.87028961E+02</pdfrwt>
<pdfrwt beam="2">  1       -2 0.57215705E-02 0.87028961E+02</pdfrwt>
<totfact> 0.11587984E+05</totfact>
</mgrwt>
</event>
<event>
 5    1  0.1270834E+001  0.9057972E+02  0.7546771E-02  0.1301454E+00
         -2   -1    0    0    0  501 -0.00000000000E+00  0.00000000000E+00  0.10047437237E+02  0.10047437237E+02  0.00000000000E+00 0.  1.
          2   -1    0    0  501    0  0.00000000000E+00 -0.00000000000E+00 -0.20414873686E+03  0.20414873686E+03  0.00000000000E+00 0. -1.
         23    2    1    2    0    0  0.00000000000E+00  0.00000000000E+00 -0.19410129962E+03  0.21419617409E+03  0.90579724454E+02 0.  0.
        -11    1    3    3    0    0 -0.22385632049E+02  0.37029191631E+02 -0.12867915602E+03  0.13575935603E+03  0.00000000000E+00 0. -1.
         11    1    3    3    0    0  0.22385632049E+02 -0.37029191631E+02 -0.65422143598E+02  0.78436818064E+02  0.00000000000E+00 0.  1.
<mgrwt>
<rscale>  0 0.90579724E+02</rscale>
<asrwt>0</asrwt>
<pdfrwt beam="2">  1        2 0.31407498E-01 0.90579724E+02</pdfrwt>
<pdfrwt beam="1">  1       -2 0.15457596E-02 0.90579724E+02</pdfrwt>
<totfact> 0.15861166E+05</totfact>
</mgrwt>
</event>
<event>
 5    1  0.1270834E+001  0.8034747E+02  0.7546771E-02  0.1328068E+00
         -2   -1    0    0    0  501 -0.00000000000E+00  0.00000000000E+00  0.15086969588E+02  0.15086969588E+02  0.00000000000E+00 0.  1.
          2   -1    0    0  501    0  0.00000000000E+00 -0.00000000000E+00 -0.10697504034E+03  0.10697504034E+03  0.00000000000E+00 0. -1.
         23    2    1    2    0    0  0.00000000000E+00  0.00000000000E+00 -0.91888070756E+02  0.12206200993E+03  0.80347474890E+02 0.  0.
        -11    1    3    3    0    0  0.29955666740E+01  0.16675957209E+02 -0.10128187231E+03  0.10268923326E+03  0.00000000000E+00 0. -1.
         11    1    3    3    0    0 -0.29955666740E+01 -0.16675957209E+02  0.93938015517E+01  0.19372776676E+02  0.00000000000E+00 0.  1.
<mgrwt>
<rscale>  0 0.80347475E+02</rscale>
<asrwt>0</asrwt>
<pdfrwt beam="2">  1        2 0.16457698E-01 0.80347475E+02</pdfrwt>
<pdfrwt beam="1">  1       -2 0.23210723E-02 0.80347475E+02</pdfrwt>
<totfact> 0.17664467E+05</totfact>
</mgrwt>
</event>
<event>
 5    1  0.1270834E+001  0.9101046E+02  0.7546771E-02  0.1300423E+00
          1   -1    0    0  501    0  0.00000000000E+00  0.00000000000E+00  0.10191534292E+03  0.10191534292E+03  0.00000000000E+00 0. -1.
         -1   -1    0    0    0  501 -0.00000000000E+00 -0.00000000000E+00 -0.20318099471E+02  0.20318099471E+02  0.00000000000E+00 0.  1.
         23    2    1    2    0    0  0.00000000000E+00  0.00000000000E+00  0.81597243451E+02  0.12223344239E+03  0.91010462587E+02 0.  0.
        -13    1    3    3    0    0 -0.30071397563E+02  0.15921988949E+02  0.21817348000E+00  0.34027140391E+02  0.00000000000E+00 0.  1.
         13    1    3    3    0    0  0.30071397563E+02 -0.15921988949E+02  0.81379069971E+02  0.88206302002E+02  0.00000000000E+00 0. -1.
<mgrwt>
<rscale>  0 0.91010463E+02</rscale>
<asrwt>0</asrwt>
<pdfrwt beam="1">  1        1 0.15679283E-01 0.91010463E+02</pdfrwt>
<pdfrwt beam="2">  1       -1 0.31258615E-02 0.91010463E+02</pdfrwt>
<totfact> 0.10530554E+05</totfact>
</mgrwt>
</event>
<event>
 5    1  0.1270834E+001  0.9149486E+02  0.7546771E-02  0.1299272E+00
         -2   -1    0    0    0  501 -0.00000000000E+00  0.00000000000E+00  0.40440621511E+02  0.40440621511E+02  0.00000000000E+00 0.  1.
          2   -1    0    0  501    0  0.00000000000E+00 -0.00000000000E+00 -0.51750620145E+02  0.51750620145E+02  0.00000000000E+00 0. -1.
         23    2    1    2    0    0  0.00000000000E+00  0.00000000000E+00 -0.11309998633E+02  0.92191241656E+02  0.91494857610E+02 0.  0.
        -11    1    3    3    0    0 -0.34607322486E+02 -0.28691073421E+02 -0.14203841149E+02  0.47144390621E+02  0.00000000000E+00 0. -1.
         11    1    3    3    0    0  0.34607322486E+02  0.28691073421E+02  0.28938425158E+01  0.45046851035E+02  0.00000000000E+00 0.  1.
<mgrwt>
<rscale>  0 0.91494858E+02</rscale>
<asrwt>0</asrwt>
<pdfrwt beam="2">  1        2 0.79616339E-02 0.91494858E+02</pdfrwt>
<pdfrwt beam="1">  1       -2 0.62216341E-02 0.91494858E+02</pdfrwt>
<totfact> 0.10098546E+05</totfact>
</mgrwt>
</event>
<event>
 5    1  0.1270834E+001  0.8424603E+02  0.7546771E-02  0.1317416E+00
         -3   -1    0    0    0  501 -0.00000000000E+00  0.00000000000E+00  0.14240774231E+03  0.14240774231E+03  0.00000000000E+00 0.  1.
          3   -1    0    0  501    0  0.00000000000E+00 -0.00000000000E+00 -0.12459635635E+02  0.12459635635E+02  0.00000000000E+00 0. -1.
         23    2    1    2    0    0  0.00000000000E+00  0.00000000000E+00  0.12994810667E+03  0.15486737794E+03  0.84246034465E+02 0.  0.
        -13    1    3    3    0    0  0.75653692059E+01 -0.40743662377E+02  0.51087136441E+02  0.65781276552E+02  0.00000000000E+00 0. -1.
         13    1    3    3    0    0 -0.75653692059E+01  0.40743662377E+02  0.78860970231E+02  0.89086101390E+02  0.00000000000E+00 0.  1.
<mgrwt>
<rscale>  0 0.84246034E+02</rscale>
<asrwt>0</asrwt>
<pdfrwt beam="2">  1        3 0.19168671E-02 0.84246034E+02</pdfrwt>
<pdfrwt beam="1">  1       -3 0.21908882E-01 0.84246034E+02</pdfrwt>
<totfact> 0.38364979E+04</totfact>
</mgrwt>
</event>
<event>
 5    1  0.1270834E+001  0.9548172E+02  0.7546771E-02  0.1290095E+00
          1   -1    0    0  501    0  0.00000000000E+00  0.00000000000E+00  0.24563211595E+02  0.24563211595E+02  0.00000000000E+00 0. -1.
         -1   -1    0    0    0  501 -0.00000000000E+00 -0.00000000000E+00 -0.92788753756E+02  0.92788753756E+02  0.00000000000E+00 0.  1.
         23    2    1    2    0    0  0.00000000000E+00  0.00000000000E+00 -0.68225542161E+02  0.11735196535E+03  0.95481721645E+02 0.  0.
        -11    1    3    3    0    0 -0.47274581553E+02  0.66558046980E+01 -0.34035088741E+02  0.58630820076E+02  0.00000000000E+00 0.  1.
         11    1    3    3    0    0  0.47274581553E+02 -0.66558046980E+01 -0.34190453420E+02  0.58721145274E+02  0.00000000000E+00 0. -1.
<mgrwt>
<rscale>  0 0.95481722E+02</rscale>
<asrwt>0</asrwt>
<pdfrwt beam="1">  1        1 0.37789557E-02 0.95481722E+02</pdfrwt>
<pdfrwt beam="2">  1       -1 0.14275193E-01 0.95481722E+02</pdfrwt>
<totfact> 0.73254252E+04</totfact>
</mgrwt>
</event>
<event>
 5    1  0.1270834E+001  0.9222455E+02  0.7546771E-02  0.1297552E+00
         -2   -1    0    0    0  501 -0.00000000000E+00  0.00000000000E+00  0.10950927319E+03  0.10950927319E+03  0.00000000000E+00 0.  1.
          2   -1    0    0  501    0  0.00000000000E+00 -0.00000000000E+00 -0.19417003152E+02  0.19417003152E+02  0.00000000000E+00 0. -1.
         23    2    1    2    0    0  0.00000000000E+00  0.00000000000E+00  0.90092270039E+02  0.12892627634E+03  0.92224549935E+02 0.  0.
        -11    1    3    3    0    0  0.42969661231E+00  0.33459883522E+02  0.89399027413E+02  0.95456453668E+02  0.00000000000E+00 0.  1.
         11    1    3    3    0    0 -0.42969661231E+00 -0.33459883522E+02  0.69324262571E+00  0.33469822674E+02  0.00000000000E+00 0. -1.
<mgrwt>
<rscale>  0 0.92224550E+02</rscale>
<asrwt>0</asrwt>
<pdfrwt beam="2">  1        2 0.29872313E-02 0.92224550E+02</pdfrwt>
<pdfrwt beam="1">  1       -2 0.16847580E-01 0.92224550E+02</pdfrwt>
<totfact> 0.75444931E+04</totfact>
</mgrwt>
</event>
<event>
 5    1  0.1270834E+001  0.8910508E+02  0.7546771E-02  0.1305033E+00
          1   -1    0    0  501    0  0.00000000000E+00  0.00000000000E+00  0.40440596489E+03  0.40440596489E+03  0.00000000000E+00 0. -1.
         -1   -1    0    0    0  501 -0.00000000000E+00 -0.00000000000E+00 -0.49082583214E+01  0.49082583214E+01  0.00000000000E+00 0.  1.
         23    2    1    2    0    0  0.00000000000E+00  0.00000000000E+00  0.39949770657E+03  0.40931422321E+03  0.89105082737E+02 0.  0.
        -11    1    3    3    0    0  0.32190167055E+02  0.30586372156E+02  0.18306200608E+03  0.18837046235E+03  0.00000000000E+00 0.  1.
         11    1    3    3    0    0 -0.32190167055E+02 -0.30586372156E+02  0.21643570049E+03  0.22094376086E+03  0.00000000000E+00 0. -1.
<mgrwt>
<rscale>  0 0.89105083E+02</rscale>
<asrwt>0</asrwt>
<pdfrwt beam="1">  1        1 0.62216276E-01 0.89105083E+02</pdfrwt>
<pdfrwt beam="2">  1       -1 0.75511698E-03 0.89105083E+02</pdfrwt>
<totfact> 0.14362202E+05</totfact>
</mgrwt>
</event>
<event>
 5    1  0.1270834E+001  0.8907431E+02  0.7546771E-02  0.1305109E+00
          1   -1    0    0  501    0  0.00000000000E+00  0.00000000000E+00  0.20248382869E+02  0.20248382869E+02  0.00000000000E+00 0. -1.
         -1   -1    0    0    0  501 -0.00000000000E+00 -0.00000000000E+00 -0.97961323350E+02  0.97961323350E+02  0.00000000000E+00 0.  1.
         23    2    1    2    0    0  0.00000000000E+00  0.00000000000E+00 -0.77712940481E+02  0.11820970622E+03  0.89074314628E+02 0.  0.
        -11    1    3    3    0    0 -0.39141865754E+02 -0.97867812196E+01 -0.63885123265E+02  0.75559087580E+02  0.00000000000E+00 0.  1.
         11    1    3    3    0    0  0.39141865754E+02  0.97867812196E+01 -0.13827817216E+02  0.42650618640E+02  0.00000000000E+00 0. -1.
<mgrwt>
<rscale>  0 0.89074315E+02</rscale>
<asrwt>0</asrwt>
<pdfrwt beam="1">  1        1 0.31151358E-02 0.89074315E+02</pdfrwt>
<pdfrwt beam="2">  1       -1 0.15070973E-01 0.89074315E+02</pdfrwt>
<totfact> 0.86729967E+04</totfact>
</mgrwt>
</event>
<event>
 5    1  0.1270834E+001  0.1157282E+03  0.7546771E-02  0.1250315E+00
         -1   -1    0    0    0  501 -0.00000000000E+00  0.00000000000E+00  0.93728072678E+02  0.93728072678E+02  0.00000000000E+00 0.  1.
          1   -1    0    0  501    0  0.00000000000E+00 -0.00000000000E+00 -0.35723055762E+02  0.35723055762E+02  0.00000000000E+00 0. -1.
         23    2    1    2    0    0  0.00000000000E+00  0.00000000000E+00  0.58005016916E+02  0.12945112844E+03  0.11572818441E+03 0.  0.
        -11    1    3    3    0    0  0.67820765644E+01  0.16711136282E+02  0.90503962172E+02  0.92283399412E+02  0.00000000000E+00 0.  1.
         11    1    3    3    0    0 -0.67820765644E+01 -0.16711136282E+02 -0.32498945256E+02  0.37167729028E+02  0.00000000000E+00 0. -1.
<mgrwt>
<rscale>  0 0.11572818E+03</rscale>
<asrwt>0</asrwt>
<pdfrwt beam="2">  1        1 0.54958548E-02 0.11572818E+03</pdfrwt>
<pdfrwt beam="1">  1       -1 0.14419703E-01 0.11572818E+03</pdfrwt>
<totfact> 0.44526652E+04</totfact>
</mgrwt>
</event>
<event>
 5    1  0.1270834E+001  0.9230740E+02  0.7546771E-02  0.1297358E+00
          2   -1    0    0  501    0  0.00000000000E+00  0.00000000000E+00  0.42086106275E+03  0.42086106275E+03  0.00000000000E+00 0. -1.
         -2   -1    0    0    0  501 -0.00000000000E+00 -0.00000000000E+00 -0.50614426700E+01  0.50614426700E+01  0.00000000000E+00 0.  1.
         23    2    1    2    0    0  0.00000000000E+00  0.00000000000E+00  0.41579962008E+03  0.42592250542E+03  0.92307402546E+02 0.  0.
        -11    1    3    3    0    0 -0.43416877639E+02 -0.11651416300E+02  0.25615785444E+03  0.26007234985E+03  0.00000000000E+00 0.  1.
         11    1    3    3    0    0  0.43416877639E+02  0.11651416300E+02  0.15964176565E+03  0.16585015558E+03  0.00000000000E+00 0. -1.
<mgrwt>
<rscale>  0 0.92307403E+02</rscale>
<asrwt>0</asrwt>
<pdfrwt beam="1">  1        2 0.64747828E-01 0.92307403E+02</pdfrwt>
<pdfrwt beam="2">  1       -2 0.77868382E-03 0.92307403E+02</pdfrwt>
<totfact> 0.19671246E+05</totfact>
</mgrwt>
</event>
<event>
 5    1  0.1270834E+001  0.9074892E+02  0.7546771E-02  0.1301048E+00
         -4   -1    0    0    0  501 -0.00000000000E+00  0.00000000000E+00  0.97107260104E+02  0.97107260104E+02  0.00000000000E+00 0.  1.
          4   -1    0    0  501    0  0.00000000000E+00 -0.00000000000E+00 -0.21201729208E+02  0.21201729208E+02  0.00000000000E+00 0. -1.
         23    2    1    2    0    0  0.00000000000E+00  0.00000000000E+00  0.75905530896E+02  0.11830898931E+03  0.90748924685E+02 0.  0.
        -13    1    3    3    0    0  0.10922642744E+02  0.43948827823E+02  0.34256554265E+02  0.56783052944E+02  0.00000000000E+00 0. -1.
         13    1    3    3    0    0 -0.10922642744E+02 -0.43948827823E+02  0.41648976631E+02  0.61525936368E+02  0.00000000000E+00 0.  1.
<mgrwt>
<rscale>  0 0.90748925E+02</rscale>
<asrwt>0</asrwt>
<pdfrwt beam="2">  1        4 0.32618045E-02 0.90748925E+02</pdfrwt>
<pdfrwt beam="1">  1       -4 0.14939578E-01 0.90748925E+02</pdfrwt>
<totfact> 0.25693169E+04</totfact>
</mgrwt>
</event>
<event>
 5    1  0.1270834E+001  0.8190105E+02  0.7546771E-02  0.1323741E+00
         -2   -1    0    0    0  501 -0.00000000000E+00  0.00000000000E+00  0.99291524854E+01  0.99291524854E+01  0.00000000000E+00 0.  1.
          2   -1    0    0  501    0  0.00000000000E+00 -0.00000000000E+00 -0.16889111821E+03  0.16889111821E+03  0.00000000000E+00 0. -1.
         23    2    1    2    0    0  0.00000000000E+00  0.00000000000E+00 -0.15896196572E+03  0.17882027069E+03  0.81901054111E+02 0.  0.
        -11    1    3    3    0    0  0.15151360403E+02  0.37596291596E+02 -0.66768445425E+02  0.78109347509E+02  0.00000000000E+00 0.  1.
         11    1    3    3    0    0 -0.15151360403E+02 -0.37596291596E+02 -0.92193520297E+02  0.10071092318E+03  0.00000000000E+00 0. -1.
<mgrwt>
<rscale>  0 0.81901054E+02</rscale>
<asrwt>0</asrwt>
<pdfrwt beam="2">  1        2 0.25983249E-01 0.81901054E+02</pdfrwt>
<pdfrwt beam="1">  1       -2 0.15275619E-02 0.81901054E+02</pdfrwt>
<totfact> 0.19427149E+05</totfact>
</mgrwt>
</event>
<event>
 5    1  0.1270834E+001  0.8259844E+02  0.7546771E-02  0.1321835E+00
          1   -1    0    0  501    0  0.00000000000E+00  0.00000000000E+00  0.51294117882E+01  0.51294117882E+01  0.00000000000E+00 0. -1.
         -1   -1    0    0    0  501 -0.00000000000E+00 -0.00000000000E+00 -0.33251871539E+03  0.33251871539E+03  0.00000000000E+00 0.  1.
         23    2    1    2    0    0  0.00000000000E+00  0.00000000000E+00 -0.32738930360E+03  0.33764812718E+03  0.82598436269E+02 0.  0.
        -11    1    3    3    0    0  0.29282866386E+02 -0.28126017098E+02 -0.19457501800E+03  0.19876618609E+03  0.00000000000E+00 0. -1.
         11    1    3    3    0    0 -0.29282866386E+02  0.28126017098E+02 -0.13281428560E+03  0.13888194109E+03  0.00000000000E+00 0.  1.
<mgrwt>
<rscale>  0 0.82598436E+02</rscale>
<asrwt>0</asrwt>
<pdfrwt beam="1">  1        1 0.78913986E-03 0.82598436E+02</pdfrwt>
<pdfrwt beam="2">  1       -1 0.51156752E-01 0.82598436E+02</pdfrwt>
<totfact> 0.75138567E+04</totfact>
</mgrwt>
</event>
<event>
 5    1  0.1270834E+001  0.9226143E+02  0.7546771E-02  0.1297466E+00
         -1   -1    0    0    0  501 -0.00000000000E+00  0.00000000000E+00  0.27460895624E+02  0.27460895624E+02  0.00000000000E+00 0.  1.
          1   -1    0    0  501    0  0.00000000000E+00 -0.00000000000E+00 -0.77493569562E+02  0.77493569562E+02  0.00000000000E+00 0. -1.
         23    2    1    2    0    0  0.00000000000E+00  0.00000000000E+00 -0.50032673938E+02  0.10495446519E+03  0.92261429109E+02 0.  0.
        -13    1    3    3    0    0 -0.85642107208E+01  0.25476661313E+02 -0.67666167444E+02  0.72808764538E+02  0.00000000000E+00 0. -1.
         13    1    3    3    0    0  0.85642107208E+01 -0.25476661313E+02  0.17633493506E+02  0.32145700648E+02  0.00000000000E+00 0.  1.
<mgrwt>
<rscale>  0 0.92261429E+02</rscale>
<asrwt>0</asrwt>
<pdfrwt beam="2">  1        1 0.11922087E-01 0.92261429E+02</pdfrwt>
<pdfrwt beam="1">  1       -1 0.42247532E-02 0.92261429E+02</pdfrwt>
<totfact> 0.97030540E+04</totfact>
</mgrwt>
</event>
<event>
 5    1  0.1270834E+001  0.9165668E+02  0.7546771E-02  0.1298889E+00
          4   -1    0    0  501    0  0.00000000000E+00  0.00000000000E+00  0.13284235032E+02  0.13284235032E+02  0.00000000000E+00 0. -1.
         -4   -1    0    0    0  501 -0.00000000000E+00 -0.00000000000E+00 -0.15809994699E+03  0.15809994699E+03  0.00000000000E+00 0.  1.
         23    2    1    2    0    0  0.00000000000E+00  0.00000000000E+00 -0.14481571196E+03  0.17138418202E+03  0.91656682339E+02 0.  0.
        -11    1    3    3    0    0 -0.10531307589E+02  0.34604116634E+02 -0.19789502133E+02  0.41230786097E+02  0.00000000000E+00 0. -1.
         11    1    3    3    0    0  0.10531307589E+02 -0.34604116634E+02 -0.12502620983E+03  0.13015339593E+03  0.00000000000E+00 0.  1.
<mgrwt>
<rscale>  0 0.91656682E+02</rscale>
<asrwt>0</asrwt>
<pdfrwt beam="1">  1        4 0.20437285E-02 0.91656682E+02</pdfrwt>
<pdfrwt beam="2">  1       -4 0.24323068E-01 0.91656682E+02</pdfrwt>
<totfact> 0.22325892E+04</totfact>
</mgrwt>
</event>
<event>
 5    1  0.1270834E+001  0.9012225E+02  0.7546771E-02  0.1302556E+00
         -2   -1    0    0    0  501 -0.00000000000E+00  0.00000000000E+00  0.10205995104E+03  0.10205995104E+03  0.00000000000E+00 0.  1.
          2   -1    0    0  501    0  0.00000000000E+00 -0.00000000000E+00 -0.19895218582E+02  0.19895218582E+02  0.00000000000E+00 0. -1.
         23    2    1    2    0    0  0.00000000000E+00  0.00000000000E+00  0.82164732460E+02  0.12195516962E+03  0.90122251070E+02 0.  0.
        -13    1    3    3    0    0  0.37377106202E+02 -0.16283077603E+02  0.67052839377E+02  0.78474645286E+02  0.00000000000E+00 0.  1.
         13    1    3    3    0    0 -0.37377106202E+02  0.16283077603E+02  0.15111893084E+02  0.43480524339E+02  0.00000000000E+00 0. -1.
<mgrwt>
<rscale>  0 0.90122251E+02</rscale>
<asrwt>0</asrwt>
<pdfrwt beam="2">  1        2 0.30608029E-02 0.90122251E+02</pdfrwt>
<pdfrwt beam="1">  1       -2 0.15701531E-01 0.90122251E+02</pdfrwt>
<totfact> 0.81650861E+04</totfact>
</mgrwt>
</event>
<event>
 5    1  0.1270834E+001  0.9663612E+02  0.7546771E-02  0.1287533E+00
         -1   -1    0    0    0  501 -0.00000000000E+00  0.00000000000E+00  0.22450426159E+02  0.22450426159E+02  0.00000000000E+00 0.  1.
          1   -1    0    0  501    0  0.00000000000E+00 -0.00000000000E+00 -0.10399067503E+03  0.10399067503E+03  0.00000000000E+00 0. -1.
         23    2    1    2    0    0  0.00000000000E+00  0.00000000000E+00 -0.81540248872E+02  0.12644110119E+03  0.96636121010E+02 0.  0.
        -11    1    3    3    0    0 -0.36814223635E+02  0.22898533899E+02 -0.12860313726E+02  0.45221870657E+02  0.00000000000E+00 0.  1.
         11    1    3    3    0    0  0.36814223635E+02 -0.22898533899E+02 -0.68679935146E+02  0.81219230532E+02  0.00000000000E+00 0. -1.
<mgrwt>
<rscale>  0 0.96636121E+02</rscale>
<asrwt>0</asrwt>
<pdfrwt beam="2">  1        1 0.15998565E-01 0.96636121E+02</pdfrwt>
<pdfrwt beam="1">  1       -1 0.34539118E-02 0.96636121E+02</pdfrwt>
<totfact> 0.89675303E+04</totfact>
</mgrwt>
</event>
<event>
 5    1  0.1270834E+001  0.9045322E+02  0.7546771E-02  0.1301758E+00
         -2   -1    0    0    0  501 -0.00000000000E+00  0.00000000000E+00  0.13092341048E+03  0.13092341048E+03  0.00000000000E+00 0.  1.
          2   -1    0    0  501    0  0.00000000000E+00 -0.00000000000E+00 -0.15623227426E+02  0.15623227426E+02  0.00000000000E+00 0. -1.
         23    2    1    2    0    0  0.00000000000E+00  0.00000000000E+00  0.11530018305E+03  0.14654663791E+03  0.90453219231E+02 0.  0.
        -11    1    3    3    0    0  0.21997217666E+02 -0.27428952339E+02  0.10373783647E+03  0.10953430388E+03  0.00000000000E+00 0.  1.
         11    1    3    3    0    0 -0.21997217666E+02  0.27428952339E+02  0.11562346587E+02  0.37012334026E+02  0.00000000000E+00 0. -1.
<mgrwt>
<rscale>  0 0.90453219E+02</rscale>
<asrwt>0</asrwt>
<pdfrwt beam="2">  1        2 0.24035735E-02 0.90453219E+02</pdfrwt>
<pdfrwt beam="1">  1       -2 0.20142062E-01 0.90453219E+02</pdfrwt>
<totfact> 0.74756869E+04</totfact>
</mgrwt>
</event>
<event>
 5    1  0.1270834E+001  0.9234824E+02  0.7546771E-02  0.1297263E+00
          1   -1    0    0  501    0  0.00000000000E+00  0.00000000000E+00  0.11631059013E+02  0.11631059013E+02  0.00000000000E+00 0. -1.
         -1   -1    0    0    0  501 -0.00000000000E+00 -0.00000000000E+00 -0.18330655859E+03  0.18330655859E+03  0.00000000000E+00 0.  1.
         23    2    1    2    0    0  0.00000000000E+00  0.00000000000E+00 -0.17167549958E+03  0.19493761761E+03  0.92348240926E+02 0.  0.
        -13    1    3    3    0    0  0.40285852536E+02 -0.22385065998E+02 -0.79864132930E+02  0.92208030144E+02  0.00000000000E+00 0.  1.
         13    1    3    3    0    0 -0.40285852536E+02  0.22385065998E+02 -0.91811366649E+02  0.10272958746E+03  0.00000000000E+00 0. -1.
<mgrwt>
<rscale>  0 0.92348241E+02</rscale>
<asrwt>0</asrwt>
<pdfrwt beam="1">  1        1 0.17893938E-02 0.92348241E+02</pdfrwt>
<pdfrwt beam="2">  1       -1 0.28201008E-01 0.92348241E+02</pdfrwt>
<totfact> 0.68795801E+04</totfact>
</mgrwt>
</event>
<event>
 5    1  0.1270834E+001  0.8882447E+02  0.7546771E-02  0.1305724E+00
         -3   -1    0    0    0  501 -0.00000000000E+00  0.00000000000E+00  0.10884290907E+03  0.10884290907E+03  0.00000000000E+00 0.  1.
          3   -1    0    0  501    0  0.00000000000E+00 -0.00000000000E+00 -0.18121958946E+02  0.18121958946E+02  0.00000000000E+00 0. -1.
         23    2    1    2    0    0  0.00000000000E+00  0.00000000000E+00  0.90720950124E+02  0.12696486802E+03  0.88824472523E+02 0.  0.
        -11    1    3    3    0    0 -0.13196002934E+02 -0.40043306653E+02  0.25408013413E+02  0.49225684827E+02  0.00000000000E+00 0. -1.
         11    1    3    3    0    0  0.13196002934E+02  0.40043306653E+02  0.65312936711E+02  0.77739183189E+02  0.00000000000E+00 0.  1.
<mgrwt>
<rscale>  0 0.88824473E+02</rscale>
<asrwt>0</asrwt>
<pdfrwt beam="2">  1        3 0.27879938E-02 0.88824473E+02</pdfrwt>
<pdfrwt beam="1">  1       -3 0.16745062E-01 0.88824473E+02</pdfrwt>
<totfact> 0.35180351E+04</totfact>
</mgrwt>
</event>
<event>
 5    1  0.1270834E+001  0.9075654E+02  0.7546771E-02  0.1301030E+00
          2   -1    0    0  501    0  0.00000000000E+00  0.00000000000E+00  0.55748804881E+02  0.55748804881E+02  0.00000000000E+00 0. -1.
         -2   -1    0    0    0  501 -0.00000000000E+00 -0.00000000000E+00 -0.36936885729E+02  0.36936885729E+02  0.00000000000E+00 0.  1.
         23    2    1    2    0    0  0.00000000000E+00  0.00000000000E+00  0.18811919152E+02  0.92685690610E+02  0.90756536633E+02 0.  0.
        -11    1    3    3    0    0  0.15178401456E+02 -0.72958697551E+01  0.52439207089E+02  0.55077073509E+02  0.00000000000E+00 0. -1.
         11    1    3    3    0    0 -0.15178401456E+02  0.72958697551E+01 -0.33627287937E+02  0.37608617101E+02  0.00000000000E+00 0.  1.
<mgrwt>
<rscale>  0 0.90756537E+02</rscale>
<asrwt>0</asrwt>
<pdfrwt beam="1">  1        2 0.85767392E-02 0.90756537E+02</pdfrwt>
<pdfrwt beam="2">  1       -2 0.56825978E-02 0.90756537E+02</pdfrwt>
<totfact> 0.10538126E+05</totfact>
</mgrwt>
</event>
<event>
 5    1  0.1270834E+001  0.9223546E+02  0.7546771E-02  0.1297527E+00
          3   -1    0    0  501    0  0.00000000000E+00  0.00000000000E+00  0.84125052142E+02  0.84125052142E+02  0.00000000000E+00 0. -1.
         -3   -1    0    0    0  501 -0.00000000000E+00 -0.00000000000E+00 -0.25281948651E+02  0.25281948651E+02  0.00000000000E+00 0.  1.
         23    2    1    2    0    0  0.00000000000E+00  0.00000000000E+00  0.58843103491E+02  0.10940700079E+03  0.92235464948E+02 0.  0.
        -11    1    3    3    0    0  0.56594671673E+01  0.18669894801E+02  0.78989445937E+02  0.81362934497E+02  0.00000000000E+00 0. -1.
         11    1    3    3    0    0 -0.56594671673E+01 -0.18669894801E+02 -0.20146342446E+02  0.28044066297E+02  0.00000000000E+00 0.  1.
<mgrwt>
<rscale>  0 0.92235465E+02</rscale>
<asrwt>0</asrwt>
<pdfrwt beam="1">  1        3 0.12942316E-01 0.92235465E+02</pdfrwt>
<pdfrwt beam="2">  1       -3 0.38895306E-02 0.92235465E+02</pdfrwt>
<totfact> 0.32934769E+04</totfact>
</mgrwt>
</event>
<event>
 5    1  0.1270834E+001  0.9052052E+02  0.7546771E-02  0.1301596E+00
          2   -1    0    0  501    0  0.00000000000E+00  0.00000000000E+00  0.12296698181E+03  0.12296698181E+03  0.00000000000E+00 0. -1.
         -2   -1    0    0    0  501 -0.00000000000E+00 -0.00000000000E+00 -0.16658870366E+02  0.16658870366E+02  0.00000000000E+00 0.  1.
         23    2    1    2    0    0  0.00000000000E+00  0.00000000000E+00  0.10630811145E+03  0.13962585218E+03  0.90520517218E+02 0.  0.
        -13    1    3    3    0    0  0.14507567009E+02  0.39932907616E+02  0.29090202086E+02  0.51491227104E+02  0.00000000000E+00 0.  1.
         13    1    3    3    0    0 -0.14507567009E+02 -0.39932907616E+02  0.77217909360E+02  0.88134625075E+02  0.00000000000E+00 0. -1.
<mgrwt>
<rscale>  0 0.90520517E+02</rscale>
<asrwt>0</asrwt>
<pdfrwt beam="1">  1        2 0.18917997E-01 0.90520517E+02</pdfrwt>
<pdfrwt beam="2">  1       -2 0.25629032E-02 0.90520517E+02</pdfrwt>
<totfact> 0.13349428E+05</totfact>
</mgrwt>
</event>
<event>
 5    1  0.1270834E+001  0.9893589E+02  0.7546771E-02  0.1282550E+00
          1   -1    0    0  501    0  0.00000000000E+00  0.00000000000E+00  0.11926244884E+02  0.11926244884E+02  0.00000000000E+00 0. -1.
         -1   -1    0    0    0  501 -0.00000000000E+00 -0.00000000000E+00 -0.20518426018E+03  0.20518426018E+03  0.00000000000E+00 0.  1.
         23    2    1    2    0    0  0.00000000000E+00  0.00000000000E+00 -0.19325801530E+03  0.21711050506E+03  0.98935893046E+02 0.  0.
        -11    1    3    3    0    0 -0.32344201119E+02  0.24161271349E+02 -0.15935989062E+03  0.16439430987E+03  0.00000000000E+00 0.  1.
         11    1    3    3    0    0  0.32344201119E+02 -0.24161271349E+02 -0.33898124679E+02  0.52716195197E+02  0.00000000000E+00 0. -1.
<mgrwt>
<rscale>  0 0.98935893E+02</rscale>
<asrwt>0</asrwt>
<pdfrwt beam="1">  1        1 0.18348069E-02 0.98935893E+02</pdfrwt>
<pdfrwt beam="2">  1       -1 0.31566809E-01 0.98935893E+02</pdfrwt>
<totfact> 0.55666547E+04</totfact>
</mgrwt>
</event>
<event>
 5    1  0.1270834E+001  0.9020707E+02  0.7546771E-02  0.1302351E+00
          1   -1    0    0  501    0  0.00000000000E+00  0.00000000000E+00  0.55025034031E+02  0.55025034031E+02  0.00000000000E+00 0. -1.
         -1   -1    0    0    0  501 -0.00000000000E+00 -0.00000000000E+00 -0.36970971663E+02  0.36970971663E+02  0.00000000000E+00 0.  1.
         23    2    1    2    0    0  0.00000000000E+00  0.00000000000E+00  0.18054062368E+02  0.91996005694E+02  0.90207072315E+02 0.  0.
        -11    1    3    3    0    0 -0.35679917612E+02 -0.12503662951E+02  0.34110133850E+02  0.50920519825E+02  0.00000000000E+00 0. -1.
         11    1    3    3    0    0  0.35679917612E+02  0.12503662951E+02 -0.16056071481E+02  0.41075485869E+02  0.00000000000E+00 0.  1.
<mgrwt>
<rscale>  0 0.90207072E+02</rscale>
<asrwt>0</asrwt>
<pdfrwt beam="1">  1        1 0.84653899E-02 0.90207072E+02</pdfrwt>
<pdfrwt beam="2">  1       -1 0.56878418E-02 0.90207072E+02</pdfrwt>
<totfact> 0.97990915E+04</totfact>
</mgrwt>
</event>
<event>
 5    1  0.1270834E+001  0.9214627E+02  0.7546771E-02  0.1297736E+00
         -1   -1    0    0    0  501 -0.00000000000E+00  0.00000000000E+00  0.14058327573E+03  0.14058327573E+03  0.00000000000E+00 0.  1.
          1   -1    0    0  501    0  0.00000000000E+00 -0.00000000000E+00 -0.15099476198E+02  0.15099476198E+02  0.00000000000E+00 0. -1.
         23    2    1    2    0    0  0.00000000000E+00  0.00000000000E+00  0.12548379953E+03  0.15568275193E+03  0.92146271236E+02 0.  0.
        -13    1    3    3    0    0 -0.20643565957E+02  0.27351575762E+02  0.10709465145E+02  0.35902063391E+02  0.00000000000E+00 0. -1.
         13    1    3    3    0    0  0.20643565957E+02 -0.27351575762E+02  0.11477433439E+03  0.11978068854E+03  0.00000000000E+00 0.  1.
<mgrwt>
<rscale>  0 0.92146271E+02</rscale>
<asrwt>0</asrwt>
<pdfrwt beam="2">  1        1 0.23229964E-02 0.92146271E+02</pdfrwt>
<pdfrwt beam="1">  1       -1 0.21628195E-01 0.92146271E+02</pdfrwt>
<totfact> 0.73853511E+04</totfact>
</mgrwt>
</event>
<event>
 5    1  0.1270834E+001  0.9092508E+02  0.7546771E-02  0.1300627E+00
         -1   -1    0    0    0  501 -0.00000000000E+00  0.00000000000E+00  0.13915796422E+02  0.13915796422E+02  0.00000000000E+00 0.  1.
          1   -1    0    0  501    0  0.00000000000E+00 -0.00000000000E+00 -0.14852491144E+03  0.14852491144E+03  0.00000000000E+00 0. -1.
         23    2    1    2    0    0  0.00000000000E+00  0.00000000000E+00 -0.13460911502E+03  0.16244070787E+03  0.90925077538E+02 0.  0.
        -13    1    3    3    0    0  0.39870214136E+02  0.16685829906E+02 -0.42115603214E+02  0.60347120304E+02  0.00000000000E+00 0.  1.
         13    1    3    3    0    0 -0.39870214136E+02 -0.16685829906E+02 -0.92493511808E+02  0.10209358756E+03  0.00000000000E+00 0. -1.
<mgrwt>
<rscale>  0 0.90925078E+02</rscale>
<asrwt>0</asrwt>
<pdfrwt beam="2">  1        1 0.22849987E-01 0.90925078E+02</pdfrwt>
<pdfrwt beam="1">  1       -1 0.21408917E-02 0.90925078E+02</pdfrwt>
<totfact> 0.11276761E+05</totfact>
</mgrwt>
</event>
<event>
 5    1  0.1270834E+001  0.9100029E+02  0.7546771E-02  0.1300447E+00
          2   -1    0    0  501    0  0.00000000000E+00  0.00000000000E+00  0.91369968823E+02  0.91369968823E+02  0.00000000000E+00 0. -1.
         -2   -1    0    0    0  501 -0.00000000000E+00 -0.00000000000E+00 -0.22658026593E+02  0.22658026593E+02  0.00000000000E+00 0.  1.
         23    2    1    2    0    0  0.00000000000E+00  0.00000000000E+00  0.68711942229E+02  0.11402799542E+03  0.91000289745E+02 0.  0.
        -11    1    3    3    0    0 -0.10525873933E+02 -0.24037910667E+02 -0.12220590279E+02  0.28947504177E+02  0.00000000000E+00 0.  1.
         11    1    3    3    0    0  0.10525873933E+02  0.24037910667E+02  0.80932532508E+02  0.85080491239E+02  0.00000000000E+00 0. -1.
<mgrwt>
<rscale>  0 0.91000290E+02</rscale>
<asrwt>0</asrwt>
<pdfrwt beam="1">  1        2 0.14056918E-01 0.91000290E+02</pdfrwt>
<pdfrwt beam="2">  1       -2 0.34858503E-02 0.91000290E+02</pdfrwt>
<totfact> 0.12003306E+05</totfact>
</mgrwt>
</event>
<event>
 5    1  0.1270834E+001  0.9062761E+02  0.7546771E-02  0.1301339E+00
          2   -1    0    0  501    0  0.00000000000E+00  0.00000000000E+00  0.21649917379E+03  0.21649917379E+03  0.00000000000E+00 0. -1.
         -2   -1    0    0    0  501 -0.00000000000E+00 -0.00000000000E+00 -0.94842892871E+01  0.94842892871E+01  0.00000000000E+00 0.  1.
         23    2    1    2    0    0  0.00000000000E+00  0.00000000000E+00  0.20701488450E+03  0.22598346308E+03  0.90627607154E+02 0.  0.
        -13    1    3    3    0    0  0.35724097342E+02  0.98609442802E+00  0.17297643698E+03  0.17662964435E+03  0.00000000000E+00 0. -1.
         13    1    3    3    0    0 -0.35724097342E+02 -0.98609442802E+00  0.34038447524E+02  0.49353818727E+02  0.00000000000E+00 0.  1.
<mgrwt>
<rscale>  0 0.90627607E+02</rscale>
<asrwt>0</asrwt>
<pdfrwt beam="1">  1        2 0.33307562E-01 0.90627607E+02</pdfrwt>
<pdfrwt beam="2">  1       -2 0.14591216E-02 0.90627607E+02</pdfrwt>
<totfact> 0.16180717E+05</totfact>
</mgrwt>
</event>
<event>
 5    1  0.1270834E+001  0.9145380E+02  0.7546771E-02  0.1299369E+00
          3   -1    0    0  501    0  0.00000000000E+00  0.00000000000E+00  0.24082783985E+02  0.24082783985E+02  0.00000000000E+00 0. -1.
         -3   -1    0    0    0  501 -0.00000000000E+00 -0.00000000000E+00 -0.86823403415E+02  0.86823403415E+02  0.00000000000E+00 0.  1.
         23    2    1    2    0    0  0.00000000000E+00  0.00000000000E+00 -0.62740619429E+02  0.11090618740E+03  0.91453797501E+02 0.  0.
        -11    1    3    3    0    0 -0.58939211915E+01  0.13380635737E+02  0.21171591377E+02  0.25729671610E+02  0.00000000000E+00 0. -1.
         11    1    3    3    0    0  0.58939211915E+01 -0.13380635737E+02 -0.83912210806E+02  0.85176515790E+02  0.00000000000E+00 0.  1.
<mgrwt>
<rscale>  0 0.91453798E+02</rscale>
<asrwt>0</asrwt>
<pdfrwt beam="1">  1        3 0.37050437E-02 0.91453798E+02</pdfrwt>
<pdfrwt beam="2">  1       -3 0.13357447E-01 0.91453798E+02</pdfrwt>
<totfact> 0.33603206E+04</totfact>
</mgrwt>
</event>
<event>
 5    1  0.1270834E+001  0.9116701E+02  0.7546771E-02  0.1300050E+00
          1   -1    0    0  501    0  0.00000000000E+00  0.00000000000E+00  0.30206081208E+02  0.30206081208E+02  0.00000000000E+00 0. -1.
         -1   -1    0    0    0  501 -0.00000000000E+00 -0.00000000000E+00 -0.68789328595E+02  0.68789328595E+02  0.00000000000E+00 0.  1.
         23    2    1    2    0    0  0.00000000000E+00  0.00000000000E+00 -0.38583247387E+02  0.98995409803E+02  0.91167012582E+02 0.  0.
        -11    1    3    3    0    0 -0.25179838488E+02  0.19217204872E+02  0.16303193885E+02  0.35624701546E+02  0.00000000000E+00 0. -1.
         11    1    3    3    0    0  0.25179838488E+02 -0.19217204872E+02 -0.54886441272E+02  0.63370708256E+02  0.00000000000E+00 0.  1.
<mgrwt>
<rscale>  0 0.91167013E+02</rscale>
<asrwt>0</asrwt>
<pdfrwt beam="1">  1        1 0.46470894E-02 0.91167013E+02</pdfrwt>
<pdfrwt beam="2">  1       -1 0.10582974E-01 0.91167013E+02</pdfrwt>
<totfact> 0.86807112E+04</totfact>
</mgrwt>
</event>
<event>
 5    1  0.1270834E+001  0.8991620E+02  0.7546771E-02  0.1303055E+00
         -2   -1    0    0    0  501 -0.00000000000E+00  0.00000000000E+00  0.19946703510E+02  0.19946703510E+02  0.00000000000E+00 0.  1.
          2   -1    0    0  501    0  0.00000000000E+00 -0.00000000000E+00 -0.10133156050E+03  0.10133156050E+03  0.00000000000E+00 0. -1.
         23    2    1    2    0    0  0.00000000000E+00  0.00000000000E+00 -0.81384856986E+02  0.12127826401E+03  0.89916196392E+02 0.  0.
        -11    1    3    3    0    0 -0.48180544605E+00  0.44540152032E+02 -0.32468852991E+02  0.55120628571E+02  0.00000000000E+00 0.  1.
         11    1    3    3    0    0  0.48180544605E+00 -0.44540152032E+02 -0.48916003995E+02  0.66157635435E+02  0.00000000000E+00 0. -1.
<mgrwt>
<rscale>  0 0.89916196E+02</rscale>
<asrwt>0</asrwt>
<pdfrwt beam="2">  1        2 0.15589471E-01 0.89916196E+02</pdfrwt>
<pdfrwt beam="1">  1       -2 0.30687236E-02 0.89916196E+02</pdfrwt>
<totfact> 0.12797393E+05</totfact>
</mgrwt>
</event>
<event>
 5    1  0.1270834E+001  0.8929210E+02  0.7546771E-02  0.1304575E+00
          2   -1    0    0  501    0  0.00000000000E+00  0.00000000000E+00  0.10022974388E+03  0.10022974388E+03  0.00000000000E+00 0. -1.
         -2   -1    0    0    0  501 -0.00000000000E+00 -0.00000000000E+00 -0.19887010780E+02  0.19887010780E+02  0.00000000000E+00 0.  1.
         23    2    1    2    0    0  0.00000000000E+00  0.00000000000E+00  0.80342733099E+02  0.12011675466E+03  0.89292104847E+02 0.  0.
        -13    1    3    3    0    0 -0.13530684695E+02  0.42397603934E+02  0.35389949155E+02  0.56860221147E+02  0.00000000000E+00 0. -1.
         13    1    3    3    0    0  0.13530684695E+02 -0.42397603934E+02  0.44952783943E+02  0.63256533512E+02  0.00000000000E+00 0.  1.
<mgrwt>
<rscale>  0 0.89292105E+02</rscale>
<asrwt>0</asrwt>
<pdfrwt beam="1">  1        2 0.15419960E-01 0.89292105E+02</pdfrwt>
<pdfrwt beam="2">  1       -2 0.30595402E-02 0.89292105E+02</pdfrwt>
<totfact> 0.13001029E+05</totfact>
</mgrwt>
</event>
<event>
 5    1  0.1270834E+001  0.9311995E+02  0.7546771E-02  0.1295467E+00
          4   -1    0    0  501    0  0.00000000000E+00  0.00000000000E+00  0.12794823338E+03  0.12794823338E+03  0.00000000000E+00 0. -1.
         -4   -1    0    0    0  501 -0.00000000000E+00 -0.00000000000E+00 -0.16943033539E+02  0.16943033539E+02  0.00000000000E+00 0.  1.
         23    2    1    2    0    0  0.00000000000E+00  0.00000000000E+00  0.11100519985E+03  0.14489126692E+03  0.93119948657E+02 0.  0.
        -13    1    3    3    0    0  0.44712384205E+02  0.11665028037E+02  0.64381282767E+02  0.79247837517E+02  0.00000000000E+00 0. -1.
         13    1    3    3    0    0 -0.44712384205E+02 -0.11665028037E+02  0.46623917078E+02  0.65643429406E+02  0.00000000000E+00 0.  1.
<mgrwt>
<rscale>  0 0.93119949E+02</rscale>
<asrwt>0</asrwt>
<pdfrwt beam="1">  1        4 0.19684343E-01 0.93119949E+02</pdfrwt>
<pdfrwt beam="2">  1       -4 0.26066206E-02 0.93119949E+02</pdfrwt>
<totfact> 0.22607082E+04</totfact>
</mgrwt>
</event>
<event>
 5    1  0.1270834E+001  0.9187405E+02  0.7546771E-02  0.1298376E+00
         -1   -1    0    0    0  501 -0.00000000000E+00  0.00000000000E+00  0.12154435112E+03  0.12154435112E+03  0.00000000000E+00 0.  1.
          1   -1    0    0  501    0  0.00000000000E+00 -0.00000000000E+00 -0.17361648718E+02  0.17361648718E+02  0.00000000000E+00 0. -1.
         23    2    1    2    0    0  0.00000000000E+00  0.00000000000E+00  0.10418270240E+03  0.13890599984E+03  0.91874051350E+02 0.  0.
        -13    1    3    3    0    0  0.32455551945E+02 -0.30357213170E+02  0.69676915369E+02  0.82642578486E+02  0.00000000000E+00 0. -1.
         13    1    3    3    0    0 -0.32455551945E+02  0.30357213170E+02  0.34505787033E+02  0.56263421353E+02  0.00000000000E+00 0.  1.
<mgrwt>
<rscale>  0 0.91874051E+02</rscale>
<asrwt>0</asrwt>
<pdfrwt beam="2">  1        1 0.26710230E-02 0.91874051E+02</pdfrwt>
<pdfrwt beam="1">  1       -1 0.18699130E-01 0.91874051E+02</pdfrwt>
<totfact> 0.76795403E+04</totfact>
</mgrwt>
</event>
<event>
 5    1  0.1270834E+001  0.9221554E+02  0.7546771E-02  0.1297573E+00
          2   -1    0    0  501    0  0.00000000000E+00  0.00000000000E+00  0.27039573870E+03  0.27039573870E+03  0.00000000000E+00 0. -1.
         -2   -1    0    0    0  501 -0.00000000000E+00 -0.00000000000E+00 -0.78622782659E+01  0.78622782659E+01  0.00000000000E+00 0.  1.
         23    2    1    2    0    0  0.00000000000E+00  0.00000000000E+00  0.26253346044E+03  0.27825801697E+03  0.92215541848E+02 0.  0.
        -11    1    3    3    0    0  0.36845287737E+02 -0.26414666566E+02  0.10590976489E+03  0.11520498312E+03  0.00000000000E+00 0.  1.
         11    1    3    3    0    0 -0.36845287737E+02  0.26414666566E+02  0.15662369555E+03  0.16305303385E+03  0.00000000000E+00 0. -1.
<mgrwt>
<rscale>  0 0.92215542E+02</rscale>
<asrwt>0</asrwt>
<pdfrwt beam="1">  1        2 0.41599337E-01 0.92215542E+02</pdfrwt>
<pdfrwt beam="2">  1       -2 0.12095815E-02 0.92215542E+02</pdfrwt>
<totfact> 0.16766830E+05</totfact>
</mgrwt>
</event>
<event>
 5    1  0.1270834E+001  0.9250865E+02  0.7546771E-02  0.1296888E+00
         -4   -1    0    0    0  501 -0.00000000000E+00  0.00000000000E+00  0.55660850256E+01  0.55660850256E+01  0.00000000000E+00 0. -1.
          4   -1    0    0  501    0  0.00000000000E+00 -0.00000000000E+00 -0.38437474372E+03  0.38437474372E+03  0.00000000000E+00 0.  1.
         23    2    1    2    0    0  0.00000000000E+00  0.00000000000E+00 -0.37880865869E+03  0.38994082874E+03  0.92508648357E+02 0.  0.
        -13    1    3    3    0    0 -0.32151396294E+02 -0.32899900407E+02 -0.20977145869E+03  0.21475609563E+03  0.00000000000E+00 0.  1.
         13    1    3    3    0    0  0.32151396294E+02  0.32899900407E+02 -0.16903720000E+03  0.17518473311E+03  0.00000000000E+00 0. -1.
<mgrwt>
<rscale>  0 0.92508648E+02</rscale>
<asrwt>0</asrwt>
<pdfrwt beam="2">  1        4 0.59134588E-01 0.92508648E+02</pdfrwt>
<pdfrwt beam="1">  1       -4 0.85632060E-03 0.92508648E+02</pdfrwt>
<totfact> 0.14807361E+04</totfact>
</mgrwt>
</event>
<event>
 5    1  0.1270834E+001  0.9042240E+02  0.7546771E-02  0.1301832E+00
          4   -1    0    0  501    0  0.00000000000E+00  0.00000000000E+00  0.51964365071E+02  0.51964365071E+02  0.00000000000E+00 0. -1.
         -4   -1    0    0    0  501 -0.00000000000E+00 -0.00000000000E+00 -0.39335664211E+02  0.39335664211E+02  0.00000000000E+00 0.  1.
         23    2    1    2    0    0  0.00000000000E+00  0.00000000000E+00  0.12628700860E+02  0.91300029282E+02  0.90422404643E+02 0.  0.
        -13    1    3    3    0    0 -0.19836719071E+02 -0.16124976552E+02 -0.31337558683E+02  0.40441969247E+02  0.00000000000E+00 0.  1.
         13    1    3    3    0    0  0.19836719071E+02  0.16124976552E+02  0.43966259543E+02  0.50858060035E+02  0.00000000000E+00 0. -1.
<mgrwt>
<rscale>  0 0.90422405E+02</rscale>
<asrwt>0</asrwt>
<pdfrwt beam="1">  1        4 0.79945177E-02 0.90422405E+02</pdfrwt>
<pdfrwt beam="2">  1       -4 0.60516407E-02 0.90422405E+02</pdfrwt>
<totfact> 0.27623524E+04</totfact>
</mgrwt>
</event>
<event>
 5    1  0.1270834E+001  0.9351569E+02  0.7546771E-02  0.1294555E+00
         -1   -1    0    0    0  501 -0.00000000000E+00  0.00000000000E+00  0.66243138352E+02  0.66243138352E+02  0.00000000000E+00 0.  1.
          1   -1    0    0  501    0  0.00000000000E+00 -0.00000000000E+00 -0.33004114949E+02  0.33004114949E+02  0.00000000000E+00 0. -1.
         23    2    1    2    0    0  0.00000000000E+00  0.00000000000E+00  0.33239023402E+02  0.99247253301E+02  0.93515691791E+02 0.  0.
        -13    1    3    3    0    0 -0.42618486511E+02 -0.19208084974E+02  0.17686217230E+02  0.49980878351E+02  0.00000000000E+00 0.  1.
         13    1    3    3    0    0  0.42618486511E+02  0.19208084974E+02  0.15552806172E+02  0.49266374950E+02  0.00000000000E+00 0. -1.
<mgrwt>
<rscale>  0 0.93515692E+02</rscale>
<asrwt>0</asrwt>
<pdfrwt beam="2">  1        1 0.50775562E-02 0.93515692E+02</pdfrwt>
<pdfrwt beam="1">  1       -1 0.10191252E-01 0.93515692E+02</pdfrwt>
<totfact> 0.81853587E+04</totfact>
</mgrwt>
</event>
<event>
 5    1  0.1270834E+001  0.9127411E+02  0.7546771E-02  0.1299795E+00
         -1   -1    0    0    0  501 -0.00000000000E+00  0.00000000000E+00  0.38979769678E+02  0.38979769678E+02  0.00000000000E+00 0.  1.
          1   -1    0    0  501    0  0.00000000000E+00 -0.00000000000E+00 -0.53431329199E+02  0.53431329199E+02  0.00000000000E+00 0. -1.
         23    2    1    2    0    0  0.00000000000E+00  0.00000000000E+00 -0.14451559522E+02  0.92411098877E+02  0.91274112557E+02 0.  0.
        -11    1    3    3    0    0  0.24459629034E+02  0.30149025652E+02 -0.31514273216E+02  0.50003866017E+02  0.00000000000E+00 0. -1.
         11    1    3    3    0    0 -0.24459629034E+02 -0.30149025652E+02  0.17062713695E+02  0.42407232860E+02  0.00000000000E+00 0.  1.
<mgrwt>
<rscale>  0 0.91274113E+02</rscale>
<asrwt>0</asrwt>
<pdfrwt beam="2">  1        1 0.82202046E-02 0.91274113E+02</pdfrwt>
<pdfrwt beam="1">  1       -1 0.59968876E-02 0.91274113E+02</pdfrwt>
<totfact> 0.94421357E+04</totfact>
</mgrwt>
</event>
<event>
 5    1  0.1270834E+001  0.9004172E+02  0.7546771E-02  0.1302751E+00
         -2   -1    0    0    0  501 -0.00000000000E+00  0.00000000000E+00  0.98656194028E+02  0.98656194028E+02  0.00000000000E+00 0.  1.
          2   -1    0    0  501    0  0.00000000000E+00 -0.00000000000E+00 -0.20544859774E+02  0.20544859774E+02  0.00000000000E+00 0. -1.
         23    2    1    2    0    0  0.00000000000E+00  0.00000000000E+00  0.78111334254E+02  0.11920105380E+03  0.90041716379E+02 0.  0.
        -11    1    3    3    0    0 -0.27371485942E+02  0.35723334424E+02  0.40689316223E+02  0.60671041855E+02  0.00000000000E+00 0. -1.
         11    1    3    3    0    0  0.27371485942E+02 -0.35723334424E+02  0.37422018031E+02  0.58530011947E+02  0.00000000000E+00 0.  1.
<mgrwt>
<rscale>  0 0.90041716E+02</rscale>
<asrwt>0</asrwt>
<pdfrwt beam="2">  1        2 0.31607477E-02 0.90041716E+02</pdfrwt>
<pdfrwt beam="1">  1       -2 0.15177876E-01 0.90041716E+02</pdfrwt>
<totfact> 0.82661881E+04</totfact>
</mgrwt>
</event>
<event>
 5    1  0.1270834E+001  0.9206082E+02  0.7546771E-02  0.1297936E+00
         -2   -1    0    0    0  501 -0.00000000000E+00  0.00000000000E+00  0.13755604887E+02  0.13755604887E+02  0.00000000000E+00 0.  1.
          2   -1    0    0  501    0  0.00000000000E+00 -0.00000000000E+00 -0.15403166835E+03  0.15403166835E+03  0.00000000000E+00 0. -1.
         23    2    1    2    0    0  0.00000000000E+00  0.00000000000E+00 -0.14027606346E+03  0.16778727323E+03  0.92060822718E+02 0.  0.
        -11    1    3    3    0    0  0.39812584743E+01 -0.26025911666E+02 -0.13230419974E+01  0.26361884175E+02  0.00000000000E+00 0.  1.
         11    1    3    3    0    0 -0.39812584743E+01  0.26025911666E+02 -0.13895302146E+03  0.14142538906E+03  0.00000000000E+00 0. -1.
<mgrwt>
<rscale>  0 0.92060823E+02</rscale>
<asrwt>0</asrwt>
<pdfrwt beam="2">  1        2 0.23697179E-01 0.92060823E+02</pdfrwt>
<pdfrwt beam="1">  1       -2 0.21162470E-02 0.92060823E+02</pdfrwt>
<totfact> 0.13743165E+05</totfact>
</mgrwt>
</event>
<event>
 5    1  0.1270834E+001  0.9587880E+02  0.7546771E-02  0.1289209E+00
         -2   -1    0    0    0  501 -0.00000000000E+00  0.00000000000E+00  0.77517812165E+02  0.77517812165E+02  0.00000000000E+00 0.  1.
          2   -1    0    0  501    0  0.00000000000E+00 -0.00000000000E+00 -0.29647198520E+02  0.29647198520E+02  0.00000000000E+00 0. -1.
         23    2    1    2    0    0  0.00000000000E+00  0.00000000000E+00  0.47870613645E+02  0.10716501068E+03  0.95878797783E+02 0.  0.
        -13    1    3    3    0    0  0.41337141611E+02  0.24078752730E+02  0.20464927245E+02  0.52032286676E+02  0.00000000000E+00 0. -1.
         13    1    3    3    0    0 -0.41337141611E+02 -0.24078752730E+02  0.27405686399E+02  0.55132724009E+02  0.00000000000E+00 0.  1.
<mgrwt>
<rscale>  0 0.95878798E+02</rscale>
<asrwt>0</asrwt>
<pdfrwt beam="2">  1        2 0.45611075E-02 0.95878798E+02</pdfrwt>
<pdfrwt beam="1">  1       -2 0.11925817E-01 0.95878798E+02</pdfrwt>
<totfact> 0.75867175E+04</totfact>
</mgrwt>
</event>
<event>
 5    1  0.1270834E+001  0.9120751E+02  0.7546771E-02  0.1299954E+00
          3   -1    0    0  501    0  0.00000000000E+00  0.00000000000E+00  0.21207276211E+03  0.21207276211E+03  0.00000000000E+00 0. -1.
         -3   -1    0    0    0  501 -0.00000000000E+00 -0.00000000000E+00 -0.98065509039E+01  0.98065509039E+01  0.00000000000E+00 0.  1.
         23    2    1    2    0    0  0.00000000000E+00  0.00000000000E+00  0.20226621121E+03  0.22187931301E+03  0.91207507080E+02 0.  0.
        -11    1    3    3    0    0  0.67232482453E+01 -0.43953059621E+02  0.12577765572E+03  0.13340574274E+03  0.00000000000E+00 0. -1.
         11    1    3    3    0    0 -0.67232482453E+01  0.43953059621E+02  0.76488555483E+02  0.88473570273E+02  0.00000000000E+00 0.  1.
<mgrwt>
<rscale>  0 0.91207507E+02</rscale>
<asrwt>0</asrwt>
<pdfrwt beam="1">  1        3 0.32626575E-01 0.91207507E+02</pdfrwt>
<pdfrwt beam="2">  1       -3 0.15087003E-02 0.91207507E+02</pdfrwt>
<totfact> 0.27380774E+04</totfact>
</mgrwt>
</event>
<event>
 5    1  0.1270834E+001  0.9118821E+02  0.7546771E-02  0.1300000E+00
          1   -1    0    0  501    0  0.00000000000E+00  0.00000000000E+00  0.62376500796E+02  0.62376500796E+02  0.00000000000E+00 0. -1.
         -1   -1    0    0    0  501 -0.00000000000E+00 -0.00000000000E+00 -0.33327011934E+02  0.33327011934E+02  0.00000000000E+00 0.  1.
         23    2    1    2    0    0  0.00000000000E+00  0.00000000000E+00  0.29049488862E+02  0.95703512730E+02  0.91188209467E+02 0.  0.
        -13    1    3    3    0    0 -0.26590995747E+02 -0.22127011292E+02 -0.16646715016E+02  0.38390087319E+02  0.00000000000E+00 0.  1.
         13    1    3    3    0    0  0.26590995747E+02  0.22127011292E+02  0.45696203878E+02  0.57313425411E+02  0.00000000000E+00 0. -1.
<mgrwt>
<rscale>  0 0.91188209E+02</rscale>
<asrwt>0</asrwt>
<pdfrwt beam="1">  1        1 0.95963847E-02 0.91188209E+02</pdfrwt>
<pdfrwt beam="2">  1       -1 0.51272326E-02 0.91188209E+02</pdfrwt>
<totfact> 0.96907102E+04</totfact>
</mgrwt>
</event>
<event>
 5    1  0.1270834E+001  0.8904305E+02  0.7546771E-02  0.1305186E+00
          1   -1    0    0  501    0  0.00000000000E+00  0.00000000000E+00  0.40730247487E+02  0.40730247487E+02  0.00000000000E+00 0. -1.
         -1   -1    0    0    0  501 -0.00000000000E+00 -0.00000000000E+00 -0.48665707915E+02  0.48665707915E+02  0.00000000000E+00 0.  1.
         23    2    1    2    0    0  0.00000000000E+00  0.00000000000E+00 -0.79354604283E+01  0.89395955402E+02  0.89043053126E+02 0.  0.
        -13    1    3    3    0    0  0.20707468227E+01 -0.34772430143E+02 -0.31804075191E+02  0.47168941997E+02  0.00000000000E+00 0.  1.
         13    1    3    3    0    0 -0.20707468227E+01  0.34772430143E+02  0.23868614762E+02  0.42227013405E+02  0.00000000000E+00 0. -1.
<mgrwt>
<rscale>  0 0.89043053E+02</rscale>
<asrwt>0</asrwt>
<pdfrwt beam="1">  1        1 0.62661919E-02 0.89043053E+02</pdfrwt>
<pdfrwt beam="2">  1       -1 0.74870320E-02 0.89043053E+02</pdfrwt>
<totfact> 0.97178072E+04</totfact>
</mgrwt>
</event>
<event>
 5    1  0.1270834E+001  0.9069857E+02  0.7546771E-02  0.1301169E+00
          2   -1    0    0  501    0  0.00000000000E+00  0.00000000000E+00  0.18471310230E+02  0.18471310230E+02  0.00000000000E+00 0. -1.
         -2   -1    0    0    0  501 -0.00000000000E+00 -0.00000000000E+00 -0.11133793484E+03  0.11133793484E+03  0.00000000000E+00 0.  1.
         23    2    1    2    0    0  0.00000000000E+00  0.00000000000E+00 -0.92866624613E+02  0.12980924507E+03  0.90698567462E+02 0.  0.
        -11    1    3    3    0    0  0.44313321944E+02 -0.88492921226E+01 -0.40968941048E+02  0.60995365426E+02  0.00000000000E+00 0.  1.
         11    1    3    3    0    0 -0.44313321944E+02  0.88492921226E+01 -0.51897683565E+02  0.68813879648E+02  0.00000000000E+00 0. -1.
<mgrwt>
<rscale>  0 0.90698567E+02</rscale>
<asrwt>0</asrwt>
<pdfrwt beam="1">  1        2 0.28417400E-02 0.90698567E+02</pdfrwt>
<pdfrwt beam="2">  1       -2 0.17128913E-01 0.90698567E+02</pdfrwt>
<totfact> 0.78255841E+04</totfact>
</mgrwt>
</event>
<event>
 5    1  0.1270834E+001  0.8568017E+02  0.7546771E-02  0.1313663E+00
         -1   -1    0    0    0  501 -0.00000000000E+00  0.00000000000E+00  0.69242275980E+02  0.69242275980E+02  0.00000000000E+00 0.  1.
          1   -1    0    0  501    0  0.00000000000E+00 -0.00000000000E+00 -0.26505089996E+02  0.26505089996E+02  0.00000000000E+00 0. -1.
         23    2    1    2    0    0  0.00000000000E+00  0.00000000000E+00  0.42737185984E+02  0.95747365976E+02  0.85680167048E+02 0.  0.
        -13    1    3    3    0    0 -0.36392572729E+02  0.11144072072E+02  0.43342782969E+02  0.57681942822E+02  0.00000000000E+00 0.  1.
         13    1    3    3    0    0  0.36392572729E+02 -0.11144072072E+02 -0.60559698504E+00  0.38065423154E+02  0.00000000000E+00 0. -1.
<mgrwt>
<rscale>  0 0.85680167E+02</rscale>
<asrwt>0</asrwt>
<pdfrwt beam="2">  1        1 0.40777062E-02 0.85680167E+02</pdfrwt>
<pdfrwt beam="1">  1       -1 0.10652658E-01 0.85680167E+02</pdfrwt>
<totfact> 0.10155478E+05</totfact>
</mgrwt>
</event>
<event>
 5    1  0.1270834E+001  0.9232327E+02  0.7546771E-02  0.1297321E+00
          1   -1    0    0  501    0  0.00000000000E+00  0.00000000000E+00  0.42632306298E+02  0.42632306298E+02  0.00000000000E+00 0. -1.
         -1   -1    0    0    0  501 -0.00000000000E+00 -0.00000000000E+00 -0.49983142634E+02  0.49983142634E+02  0.00000000000E+00 0.  1.
         23    2    1    2    0    0  0.00000000000E+00  0.00000000000E+00 -0.73508363353E+01  0.92615448932E+02  0.92323272180E+02 0.  0.
        -13    1    3    3    0    0  0.37011282944E+02  0.22320916995E+02 -0.19939012298E+02  0.47598556828E+02  0.00000000000E+00 0.  1.
         13    1    3    3    0    0 -0.37011282944E+02 -0.22320916995E+02  0.12588175963E+02  0.45016892104E+02  0.00000000000E+00 0. -1.
<mgrwt>
<rscale>  0 0.92323272E+02</rscale>
<asrwt>0</asrwt>
<pdfrwt beam="1">  1        1 0.65588164E-02 0.92323272E+02</pdfrwt>
<pdfrwt beam="2">  1       -1 0.76897142E-02 0.92323272E+02</pdfrwt>
<totfact> 0.88371807E+04</totfact>
</mgrwt>
</event>
<event>
 5    1  0.1270834E+001  0.9171351E+02  0.7546771E-02  0.1298754E+00
         -4   -1    0    0    0  501 -0.00000000000E+00  0.00000000000E+00  0.49242539306E+02  0.49242539306E+02  0.00000000000E+00 0. -1.
          4   -1    0    0  501    0  0.00000000000E+00 -0.00000000000E+00 -0.42703768531E+02  0.42703768531E+02  0.00000000000E+00 0.  1.
         23    2    1    2    0    0  0.00000000000E+00  0.00000000000E+00  0.65387707750E+01  0.91946307837E+02  0.91713510464E+02 0.  0.
        -11    1    3    3    0    0 -0.89464278210E+01 -0.61944932454E+01  0.47929419833E+02  0.49149156685E+02  0.00000000000E+00 0. -1.
         11    1    3    3    0    0  0.89464278210E+01  0.61944932454E+01 -0.41390649058E+02  0.42797151152E+02  0.00000000000E+00 0.  1.
<mgrwt>
<rscale>  0 0.91713510E+02</rscale>
<asrwt>0</asrwt>
<pdfrwt beam="2">  1        4 0.65698106E-02 0.91713510E+02</pdfrwt>
<pdfrwt beam="1">  1       -4 0.75757753E-02 0.91713510E+02</pdfrwt>
<totfact> 0.26539586E+04</totfact>
</mgrwt>
</event>
<event>
 5    1  0.1270834E+001  0.9098875E+02  0.7546771E-02  0.1300475E+00
         -3   -1    0    0    0  501 -0.00000000000E+00  0.00000000000E+00  0.32302626020E+02  0.32302626020E+02  0.00000000000E+00 0.  1.
          3   -1    0    0  501    0  0.00000000000E+00 -0.00000000000E+00 -0.64073375718E+02  0.64073375718E+02  0.00000000000E+00 0. -1.
         23    2    1    2    0    0  0.00000000000E+00  0.00000000000E+00 -0.31770749698E+02  0.96376001738E+02  0.90988753012E+02 0.  0.
        -13    1    3    3    0    0  0.88820942566E+00  0.44174458461E+02 -0.44005819938E+01  0.44401991151E+02  0.00000000000E+00 0.  1.
         13    1    3    3    0    0 -0.88820942566E+00 -0.44174458461E+02 -0.27370167704E+02  0.51974010587E+02  0.00000000000E+00 0. -1.
<mgrwt>
<rscale>  0 0.90988753E+02</rscale>
<asrwt>0</asrwt>
<pdfrwt beam="2">  1        3 0.98574424E-02 0.90988753E+02</pdfrwt>
<pdfrwt beam="1">  1       -3 0.49696348E-02 0.90988753E+02</pdfrwt>
<totfact> 0.35139209E+04</totfact>
</mgrwt>
</event>
<event>
 5    1  0.1270834E+001  0.8914078E+02  0.7546771E-02  0.1304946E+00
          1   -1    0    0  501    0  0.00000000000E+00  0.00000000000E+00  0.85248673622E+02  0.85248673622E+02  0.00000000000E+00 0. -1.
         -1   -1    0    0    0  501 -0.00000000000E+00 -0.00000000000E+00 -0.23302646118E+02  0.23302646118E+02  0.00000000000E+00 0.  1.
         23    2    1    2    0    0  0.00000000000E+00  0.00000000000E+00  0.61946027504E+02  0.10855131974E+03  0.89140780194E+02 0.  0.
        -13    1    3    3    0    0  0.27398174140E+02  0.69502604837E+01 -0.10991798885E+02  0.30327969100E+02  0.00000000000E+00 0.  1.
         13    1    3    3    0    0 -0.27398174140E+02 -0.69502604837E+01  0.72937826389E+02  0.78223350640E+02  0.00000000000E+00 0. -1.
<mgrwt>
<rscale>  0 0.89140780E+02</rscale>
<asrwt>0</asrwt>
<pdfrwt beam="1">  1        1 0.13115180E-01 0.89140780E+02</pdfrwt>
<pdfrwt beam="2">  1       -1 0.35850225E-02 0.89140780E+02</pdfrwt>
<totfact> 0.10824548E+05</totfact>
</mgrwt>
</event>
<event>
 5    1  0.1270834E+001  0.9239583E+02  0.7546771E-02  0.1297151E+00
          2   -1    0    0  501    0  0.00000000000E+00  0.00000000000E+00  0.20847474807E+03  0.20847474807E+03  0.00000000000E+00 0. -1.
         -2   -1    0    0    0  501 -0.00000000000E+00 -0.00000000000E+00 -0.10237437273E+02  0.10237437273E+02  0.00000000000E+00 0.  1.
         23    2    1    2    0    0  0.00000000000E+00  0.00000000000E+00  0.19823731079E+03  0.21871218534E+03  0.92395825799E+02 0.  0.
        -13    1    3    3    0    0 -0.99400909235E+01  0.44371203541E+02  0.11844197568E+03  0.12687044855E+03  0.00000000000E+00 0. -1.
         13    1    3    3    0    0  0.99400909235E+01 -0.44371203541E+02  0.79795335115E+02  0.91841736794E+02  0.00000000000E+00 0.  1.
<mgrwt>
<rscale>  0 0.92395826E+02</rscale>
<asrwt>0</asrwt>
<pdfrwt beam="1">  1        2 0.32073035E-01 0.92395826E+02</pdfrwt>
<pdfrwt beam="2">  1       -2 0.15749905E-02 0.92395826E+02</pdfrwt>
<totfact> 0.15150722E+05</totfact>
</mgrwt>
</event>
<event>
 5    1  0.1270834E+001  0.9266764E+02  0.7546771E-02  0.1296517E+00
         -2   -1    0    0    0  501 -0.00000000000E+00  0.00000000000E+00  0.76231969288E+01  0.76231969288E+01  0.00000000000E+00 0.  1.
          2   -1    0    0  501    0  0.00000000000E+00 -0.00000000000E+00 -0.28161715977E+03  0.28161715977E+03  0.00000000000E+00 0. -1.
         23    2    1    2    0    0  0.00000000000E+00  0.00000000000E+00 -0.27399396284E+03  0.28924035670E+03  0.92667644136E+02 0.  0.
        -11    1    3    3    0    0  0.24288792934E+02  0.32645565298E+02 -0.20616980198E+03  0.21014677167E+03  0.00000000000E+00 0. -1.
         11    1    3    3    0    0 -0.24288792934E+02 -0.32645565298E+02 -0.67824160861E+02  0.79093585027E+02  0.00000000000E+00 0.  1.
<mgrwt>
<rscale>  0 0.92667644E+02</rscale>
<asrwt>0</asrwt>
<pdfrwt beam="2">  1        2 0.43325716E-01 0.92667644E+02</pdfrwt>
<pdfrwt beam="1">  1       -2 0.11727996E-02 0.92667644E+02</pdfrwt>
<totfact> 0.16802201E+05</totfact>
</mgrwt>
</event>
<event>
 5    1  0.1270834E+001  0.9139751E+02  0.7546771E-02  0.1299502E+00
          2   -1    0    0  501    0  0.00000000000E+00  0.00000000000E+00  0.19479861511E+03  0.19479861511E+03  0.00000000000E+00 0. -1.
         -2   -1    0    0    0  501 -0.00000000000E+00 -0.00000000000E+00 -0.10720692539E+02  0.10720692539E+02  0.00000000000E+00 0.  1.
         23    2    1    2    0    0  0.00000000000E+00  0.00000000000E+00  0.18407792257E+03  0.20551930765E+03  0.91397506742E+02 0.  0.
        -13    1    3    3    0    0 -0.25086698579E+02 -0.22167729051E+02  0.16198641510E+03  0.16540964100E+03  0.00000000000E+00 0. -1.
         13    1    3    3    0    0  0.25086698579E+02  0.22167729051E+02  0.22091507472E+02  0.40109666656E+02  0.00000000000E+00 0.  1.
<mgrwt>
<rscale>  0 0.91397507E+02</rscale>
<asrwt>0</asrwt>
<pdfrwt beam="1">  1        2 0.29969015E-01 0.91397507E+02</pdfrwt>
<pdfrwt beam="2">  1       -2 0.16493375E-02 0.91397507E+02</pdfrwt>
<totfact> 0.15222016E+05</totfact>
</mgrwt>
</event>
<event>
 5    1  0.1270834E+001  0.9216280E+02  0.7546771E-02  0.1297697E+00
         -3   -1    0    0    0  501 -0.00000000000E+00  0.00000000000E+00  0.32084144318E+02  0.32084144318E+02  0.00000000000E+00 0.  1.
          3   -1    0    0  501    0  0.00000000000E+00 -0.00000000000E+00 -0.66185195276E+02  0.66185195276E+02  0.00000000000E+00 0. -1.
         23    2    1    2    0    0  0.00000000000E+00  0.00000000000E+00 -0.34101050957E+02  0.98269339594E+02  0.92162798503E+02 0.  0.
        -13    1    3    3    0    0  0.25145978176E+02 -0.12780275843E+01  0.24101264371E+02  0.34854332833E+02  0.00000000000E+00 0.  1.
         13    1    3    3    0    0 -0.25145978176E+02  0.12780275843E+01 -0.58202315329E+02  0.63415006761E+02  0.00000000000E+00 0. -1.
<mgrwt>
<rscale>  0 0.92162799E+02</rscale>
<asrwt>0</asrwt>
<pdfrwt beam="2">  1        3 0.10182338E-01 0.92162799E+02</pdfrwt>
<pdfrwt beam="1">  1       -3 0.49360223E-02 0.92162799E+02</pdfrwt>
<totfact> 0.33793410E+04</totfact>
</mgrwt>
</event>
<event>
 5    1  0.1270834E+001  0.9195435E+02  0.7546771E-02  0.1298187E+00
         -2   -1    0    0    0  501 -0.00000000000E+00  0.00000000000E+00  0.50443541250E+02  0.50443541250E+02  0.00000000000E+00 0.  1.
          2   -1    0    0  501    0  0.00000000000E+00 -0.00000000000E+00 -0.41906269060E+02  0.41906269060E+02  0.00000000000E+00 0. -1.
         23    2    1    2    0    0  0.00000000000E+00  0.00000000000E+00  0.85372721903E+01  0.92349810311E+02  0.91954349805E+02 0.  0.
        -13    1    3    3    0    0 -0.18427459287E+02  0.19849026272E+02  0.41581418341E+02  0.49624282876E+02  0.00000000000E+00 0.  1.
         13    1    3    3    0    0  0.18427459287E+02 -0.19849026272E+02 -0.33044146151E+02  0.42725527434E+02  0.00000000000E+00 0. -1.
<mgrwt>
<rscale>  0 0.91954350E+02</rscale>
<asrwt>0</asrwt>
<pdfrwt beam="2">  1        2 0.64471183E-02 0.91954350E+02</pdfrwt>
<pdfrwt beam="1">  1       -2 0.77605448E-02 0.91954350E+02</pdfrwt>
<totfact> 0.94202596E+04</totfact>
</mgrwt>
</event>
<event>
 5    1  0.1270834E+001  0.8653316E+02  0.7546771E-02  0.1311471E+00
          1   -1    0    0  501    0  0.00000000000E+00  0.00000000000E+00  0.80278515050E+01  0.80278515050E+01  0.00000000000E+00 0. -1.
         -1   -1    0    0    0  501 -0.00000000000E+00 -0.00000000000E+00 -0.23318779261E+03  0.23318779261E+03  0.00000000000E+00 0.  1.
         23    2    1    2    0    0  0.00000000000E+00  0.00000000000E+00 -0.22515994111E+03  0.24121564412E+03  0.86533160624E+02 0.  0.
        -13    1    3    3    0    0 -0.36358813333E+02 -0.10257149201E+02 -0.17137184145E+03  0.17548641103E+03  0.00000000000E+00 0.  1.
         13    1    3    3    0    0  0.36358813333E+02  0.10257149201E+02 -0.53788099665E+02  0.65729233087E+02  0.00000000000E+00 0. -1.
<mgrwt>
<rscale>  0 0.86533161E+02</rscale>
<asrwt>0</asrwt>
<pdfrwt beam="1">  1        1 0.12350542E-02 0.86533161E+02</pdfrwt>
<pdfrwt beam="2">  1       -1 0.35875041E-01 0.86533161E+02</pdfrwt>
<totfact> 0.75930484E+04</totfact>
</mgrwt>
</event>
<event>
 5    1  0.1270834E+001  0.8898455E+02  0.7546771E-02  0.1305330E+00
          1   -1    0    0  501    0  0.00000000000E+00  0.00000000000E+00  0.87322674564E+02  0.87322674564E+02  0.00000000000E+00 0. -1.
         -1   -1    0    0    0  501 -0.00000000000E+00 -0.00000000000E+00 -0.22669514052E+02  0.22669514052E+02  0.00000000000E+00 0.  1.
         23    2    1    2    0    0  0.00000000000E+00  0.00000000000E+00  0.64653160512E+02  0.10999218862E+03  0.88984551425E+02 0.  0.
        -13    1    3    3    0    0  0.13120266238E+02 -0.34600478188E+02  0.17919027961E+01  0.37047879732E+02  0.00000000000E+00 0. -1.
         13    1    3    3    0    0 -0.13120266238E+02  0.34600478188E+02  0.62861257716E+02  0.72944308884E+02  0.00000000000E+00 0.  1.
<mgrwt>
<rscale>  0 0.88984551E+02</rscale>
<asrwt>0</asrwt>
<pdfrwt beam="1">  1        1 0.13434257E-01 0.88984551E+02</pdfrwt>
<pdfrwt beam="2">  1       -1 0.34876176E-02 0.88984551E+02</pdfrwt>
<totfact> 0.10918015E+05</totfact>
</mgrwt>
</event>
<event>
 5    1  0.1270834E+001  0.8983019E+02  0.7546771E-02  0.1303263E+00
         -2   -1    0    0    0  501 -0.00000000000E+00  0.00000000000E+00  0.11682582990E+02  0.11682582990E+02  0.00000000000E+00 0.  1.
          2   -1    0    0  501    0  0.00000000000E+00 -0.00000000000E+00 -0.17268147498E+03  0.17268147498E+03  0.00000000000E+00 0. -1.
         23    2    1    2    0    0  0.00000000000E+00  0.00000000000E+00 -0.16099889199E+03  0.18436405797E+03  0.89830187849E+02 0.  0.
        -13    1    3    3    0    0 -0.91903304449E+01 -0.41791214732E+02 -0.10851985121E+03  0.11665130050E+03  0.00000000000E+00 0. -1.
         13    1    3    3    0    0  0.91903304449E+01  0.41791214732E+02 -0.52479040778E+02  0.67712757464E+02  0.00000000000E+00 0.  1.
<mgrwt>
<rscale>  0 0.89830188E+02</rscale>
<asrwt>0</asrwt>
<pdfrwt beam="2">  1        2 0.26566380E-01 0.89830188E+02</pdfrwt>
<pdfrwt beam="1">  1       -2 0.17973205E-02 0.89830188E+02</pdfrwt>
<totfact> 0.15279451E+05</totfact>
</mgrwt>
</event>
<event>
 5    1  0.1270834E+001  0.9381255E+02  0.7546771E-02  0.1293873E+00
          1   -1    0    0  501    0  0.00000000000E+00  0.00000000000E+00  0.20230542852E+03  0.20230542852E+03  0.00000000000E+00 0. -1.
         -1   -1    0    0    0  501 -0.00000000000E+00 -0.00000000000E+00 -0.10875629348E+02  0.10875629348E+02  0.00000000000E+00 0.  1.
         23    2    1    2    0    0  0.00000000000E+00  0.00000000000E+00  0.19142979917E+03  0.21318105787E+03  0.93812554719E+02 0.  0.
        -13    1    3    3    0    0 -0.35648810937E+02  0.28805389537E+02  0.73035028762E+02  0.86224727392E+02  0.00000000000E+00 0.  1.
         13    1    3    3    0    0  0.35648810937E+02 -0.28805389537E+02  0.11839477041E+03  0.12695633048E+03  0.00000000000E+00 0. -1.
<mgrwt>
<rscale>  0 0.93812555E+02</rscale>
<asrwt>0</asrwt>
<pdfrwt beam="1">  1        1 0.31123909E-01 0.93812555E+02</pdfrwt>
<pdfrwt beam="2">  1       -1 0.16731739E-02 0.93812555E+02</pdfrwt>
<totfact> 0.10992051E+05</totfact>
</mgrwt>
</event>
<event>
 5    1  0.1270834E+001  0.9109775E+02  0.7546771E-02  0.1300215E+00
          2   -1    0    0  501    0  0.00000000000E+00  0.00000000000E+00  0.19087087933E+03  0.19087087933E+03  0.00000000000E+00 0.  1.
         -2   -1    0    0    0  501 -0.00000000000E+00 -0.00000000000E+00 -0.10869651537E+02  0.10869651537E+02  0.00000000000E+00 0. -1.
         23    2    1    2    0    0  0.00000000000E+00  0.00000000000E+00  0.18000122779E+03  0.20174053087E+03  0.91097748534E+02 0.  0.
        -13    1    3    3    0    0 -0.39884569047E+02 -0.14247295617E+01  0.13861446580E+03  0.14424555047E+03  0.00000000000E+00 0.  1.
         13    1    3    3    0    0  0.39884569047E+02  0.14247295617E+01  0.41386761997E+02  0.57494980398E+02  0.00000000000E+00 0. -1.
<mgrwt>
<rscale>  0 0.91097749E+02</rscale>
<asrwt>0</asrwt>
<pdfrwt beam="1">  1        2 0.29364748E-01 0.91097749E+02</pdfrwt>
<pdfrwt beam="2">  1       -2 0.16722542E-02 0.91097749E+02</pdfrwt>
<totfact> 0.15245427E+05</totfact>
</mgrwt>
</event>
<event>
 5    1  0.1270834E+001  0.8803567E+02  0.7546771E-02  0.1307680E+00
         -2   -1    0    0    0  501 -0.00000000000E+00  0.00000000000E+00  0.84021868703E+01  0.84021868703E+01  0.00000000000E+00 0.  1.
          2   -1    0    0  501    0  0.00000000000E+00 -0.00000000000E+00 -0.23060304416E+03  0.23060304416E+03  0.00000000000E+00 0. -1.
         23    2    1    2    0    0  0.00000000000E+00  0.00000000000E+00 -0.22220085729E+03  0.23900523103E+03  0.88035671631E+02 0.  0.
        -13    1    3    3    0    0 -0.19736698026E+02  0.34500111775E+02 -0.16245199131E+03  0.16724366787E+03  0.00000000000E+00 0. -1.
         13    1    3    3    0    0  0.19736698026E+02 -0.34500111775E+02 -0.59748865974E+02  0.71761563156E+02  0.00000000000E+00 0.  1.
<mgrwt>
<rscale>  0 0.88035672E+02</rscale>
<asrwt>0</asrwt>
<pdfrwt beam="2">  1        2 0.35477396E-01 0.88035672E+02</pdfrwt>
<pdfrwt beam="1">  1       -2 0.12926440E-02 0.88035672E+02</pdfrwt>
<totfact> 0.17895569E+05</totfact>
</mgrwt>
</event>
<event>
 5    1  0.1270834E+001  0.9217139E+02  0.7546771E-02  0.1297677E+00
          2   -1    0    0  501    0  0.00000000000E+00  0.00000000000E+00  0.10740199879E+03  0.10740199879E+03  0.00000000000E+00 0.  1.
         -2   -1    0    0    0  501 -0.00000000000E+00 -0.00000000000E+00 -0.19775157009E+02  0.19775157009E+02  0.00000000000E+00 0. -1.
         23    2    1    2    0    0  0.00000000000E+00  0.00000000000E+00  0.87626841781E+02  0.12717715580E+03  0.92171392290E+02 0.  0.
        -13    1    3    3    0    0  0.21245413393E+02  0.13156953676E+02  0.97242092177E+02  0.10040168082E+03  0.00000000000E+00 0.  1.
         13    1    3    3    0    0 -0.21245413393E+02 -0.13156953676E+02 -0.96152503956E+01  0.26775474981E+02  0.00000000000E+00 0. -1.
<mgrwt>
<rscale>  0 0.92171392E+02</rscale>
<asrwt>0</asrwt>
<pdfrwt beam="1">  1        2 0.16523384E-01 0.92171392E+02</pdfrwt>
<pdfrwt beam="2">  1       -2 0.30423319E-02 0.92171392E+02</pdfrwt>
<totfact> 0.12171433E+05</totfact>
</mgrwt>
</event>
<event>
 4    1  0.1270834E+001  0.1449485E+03  0.7546771E-02  0.1206821E+00
          1   -1    0    0  501    0  0.00000000000E+00  0.00000000000E+00  0.78010545383E+02  0.78010545383E+02  0.00000000000E+00 0. -1.
         -1   -1    0    0    0  501 -0.00000000000E+00 -0.00000000000E+00 -0.67330902117E+02  0.67330902117E+02  0.00000000000E+00 0.  1.
        -11    1    1    2    0    0 -0.56265469629E+02 -0.42908919113E+01 -0.40262080947E+02  0.69319910474E+02  0.00000000000E+00 0.  1.
         11    1    1    2    0    0  0.56265469629E+02  0.42908919113E+01  0.50941724213E+02  0.76021537026E+02  0.00000000000E+00 0. -1.
<mgrwt>
<rscale>  0 0.14494855E+03</rscale>
<asrwt>0</asrwt>
<pdfrwt beam="1">  1        1 0.12001622E-01 0.14494855E+03</pdfrwt>
<pdfrwt beam="2">  1       -1 0.10358600E-01 0.14494855E+03</pdfrwt>
<totfact> 0.26805820E+04</totfact>
</mgrwt>
</event>
<event>
 5    1  0.1270834E+001  0.9223578E+02  0.7546771E-02  0.1297526E+00
          3   -1    0    0  501    0  0.00000000000E+00  0.00000000000E+00  0.61521614610E+02  0.61521614610E+02  0.00000000000E+00 0. -1.
         -3   -1    0    0    0  501 -0.00000000000E+00 -0.00000000000E+00 -0.34570932335E+02  0.34570932335E+02  0.00000000000E+00 0.  1.
         23    2    1    2    0    0  0.00000000000E+00  0.00000000000E+00  0.26950682275E+02  0.96092546945E+02  0.92235775615E+02 0.  0.
        -11    1    3    3    0    0 -0.31800375669E+02 -0.28189607881E+02 -0.51886005311E+01  0.42811674350E+02  0.00000000000E+00 0.  1.
         11    1    3    3    0    0  0.31800375669E+02  0.28189607881E+02  0.32139282806E+02  0.53280872595E+02  0.00000000000E+00 0. -1.
<mgrwt>
<rscale>  0 0.92235776E+02</rscale>
<asrwt>0</asrwt>
<pdfrwt beam="1">  1        3 0.94648638E-02 0.92235776E+02</pdfrwt>
<pdfrwt beam="2">  1       -3 0.53186050E-02 0.92235776E+02</pdfrwt>
<totfact> 0.33878989E+04</totfact>
</mgrwt>
</event>
<event>
 5    1  0.1270834E+001  0.1037609E+03  0.7546771E-02  0.1272580E+00
         -1   -1    0    0    0  501 -0.00000000000E+00  0.00000000000E+00  0.62627676414E+02  0.62627676414E+02  0.00000000000E+00 0.  1.
          1   -1    0    0  501    0  0.00000000000E+00 -0.00000000000E+00 -0.42977509848E+02  0.42977509848E+02  0.00000000000E+00 0. -1.
         23    2    1    2    0    0  0.00000000000E+00  0.00000000000E+00  0.19650166566E+02  0.10560518626E+03  0.10376090940E+03 0.  0.
        -11    1    3    3    0    0  0.16585798800E+02  0.20594030050E+02  0.55254528341E+02  0.61255740121E+02  0.00000000000E+00 0.  1.
         11    1    3    3    0    0 -0.16585798800E+02 -0.20594030050E+02 -0.35604361775E+02  0.44349446140E+02  0.00000000000E+00 0. -1.
<mgrwt>
<rscale>  0 0.10376091E+03</rscale>
<asrwt>0</asrwt>
<pdfrwt beam="2">  1        1 0.66119246E-02 0.10376091E+03</pdfrwt>
<pdfrwt beam="1">  1       -1 0.96350271E-02 0.10376091E+03</pdfrwt>
<totfact> 0.63422169E+04</totfact>
</mgrwt>
</event>
<event>
 5    1  0.1270834E+001  0.9222846E+02  0.7546771E-02  0.1297543E+00
         -4   -1    0    0    0  501 -0.00000000000E+00  0.00000000000E+00  0.41746108001E+02  0.41746108001E+02  0.00000000000E+00 0.  1.
          4   -1    0    0  501    0  0.00000000000E+00 -0.00000000000E+00 -0.50939414286E+02  0.50939414286E+02  0.00000000000E+00 0. -1.
         23    2    1    2    0    0  0.00000000000E+00  0.00000000000E+00 -0.91933062851E+01  0.92685522287E+02  0.92228461774E+02 0.  0.
        -11    1    3    3    0    0 -0.28534407223E+02 -0.72433772373E+00  0.31801412548E+02  0.42732504031E+02  0.00000000000E+00 0.  1.
         11    1    3    3    0    0  0.28534407223E+02  0.72433772373E+00 -0.40994718833E+02  0.49953018256E+02  0.00000000000E+00 0. -1.
<mgrwt>
<rscale>  0 0.92228462E+02</rscale>
<asrwt>0</asrwt>
<pdfrwt beam="2">  1        4 0.78368329E-02 0.92228462E+02</pdfrwt>
<pdfrwt beam="1">  1       -4 0.64224782E-02 0.92228462E+02</pdfrwt>
<totfact> 0.26092319E+04</totfact>
</mgrwt>
</event>
<event>
 5    1  0.1270834E+001  0.9339275E+02  0.7546771E-02  0.1294838E+00
          1   -1    0    0  501    0  0.00000000000E+00  0.00000000000E+00  0.20134200044E+02  0.20134200044E+02  0.00000000000E+00 0. -1.
         -1   -1    0    0    0  501 -0.00000000000E+00 -0.00000000000E+00 -0.10830087708E+03  0.10830087708E+03  0.00000000000E+00 0.  1.
         23    2    1    2    0    0  0.00000000000E+00  0.00000000000E+00 -0.88166677037E+02  0.12843507713E+03  0.93392751840E+02 0.  0.
        -13    1    3    3    0    0 -0.10115102940E+02 -0.28549993845E+02  0.47926104854E+01  0.30665723068E+02  0.00000000000E+00 0. -1.
         13    1    3    3    0    0  0.10115102940E+02  0.28549993845E+02 -0.92959287523E+02  0.97769354057E+02  0.00000000000E+00 0.  1.
<mgrwt>
<rscale>  0 0.93392752E+02</rscale>
<asrwt>0</asrwt>
<pdfrwt beam="1">  1        1 0.30975692E-02 0.93392752E+02</pdfrwt>
<pdfrwt beam="2">  1       -1 0.16661674E-01 0.93392752E+02</pdfrwt>
<totfact> 0.75328364E+04</totfact>
</mgrwt>
</event>
<event>
 5    1  0.1270834E+001  0.6845578E+02  0.7546771E-02  0.1365424E+00
         -1   -1    0    0    0  501 -0.00000000000E+00  0.00000000000E+00  0.91307659684E+01  0.91307659684E+01  0.00000000000E+00 0.  1.
          1   -1    0    0  501    0  0.00000000000E+00 -0.00000000000E+00 -0.12830778850E+03  0.12830778850E+03  0.00000000000E+00 0. -1.
         23    2    1    2    0    0  0.00000000000E+00  0.00000000000E+00 -0.11917702254E+03  0.13743855447E+03  0.68455778098E+02 0.  0.
        -13    1    3    3    0    0  0.13893101530E+02  0.17907986235E+02 -0.11108251669E+03  0.11337124748E+03  0.00000000000E+00 0. -1.
         13    1    3    3    0    0 -0.13893101530E+02 -0.17907986235E+02 -0.80945058507E+01  0.24067306997E+02  0.00000000000E+00 0.  1.
<mgrwt>
<rscale>  0 0.68455778E+02</rscale>
<asrwt>0</asrwt>
<pdfrwt beam="2">  1        1 0.19739659E-01 0.68455778E+02</pdfrwt>
<pdfrwt beam="1">  1       -1 0.14047333E-02 0.68455778E+02</pdfrwt>
<totfact> 0.23364746E+05</totfact>
</mgrwt>
</event>
<event>
 5    1  0.1270834E+001  0.9212247E+02  0.7546771E-02  0.1297792E+00
          1   -1    0    0  501    0  0.00000000000E+00  0.00000000000E+00  0.23567884345E+03  0.23567884345E+03  0.00000000000E+00 0. -1.
         -1   -1    0    0    0  501 -0.00000000000E+00 -0.00000000000E+00 -0.90022401279E+01  0.90022401279E+01  0.00000000000E+00 0.  1.
         23    2    1    2    0    0  0.00000000000E+00  0.00000000000E+00  0.22667660333E+03  0.24468108358E+03  0.92122473737E+02 0.  0.
        -11    1    3    3    0    0 -0.36324374564E+02 -0.27382846146E+02  0.13255693758E+03  0.14014500402E+03  0.00000000000E+00 0.  1.
         11    1    3    3    0    0  0.36324374564E+02  0.27382846146E+02  0.94119665750E+02  0.10453607957E+03  0.00000000000E+00 0. -1.
<mgrwt>
<rscale>  0 0.92122474E+02</rscale>
<asrwt>0</asrwt>
<pdfrwt beam="1">  1        1 0.36258279E-01 0.92122474E+02</pdfrwt>
<pdfrwt beam="2">  1       -1 0.13849602E-02 0.92122474E+02</pdfrwt>
<totfact> 0.11892451E+05</totfact>
</mgrwt>
</event>
<event>
 5    1  0.1270834E+001  0.9168188E+02  0.7546771E-02  0.1298829E+00
         -2   -1    0    0    0  501 -0.00000000000E+00  0.00000000000E+00  0.21944134162E+02  0.21944134162E+02  0.00000000000E+00 0.  1.
          2   -1    0    0  501    0  0.00000000000E+00 -0.00000000000E+00 -0.95760977198E+02  0.95760977198E+02  0.00000000000E+00 0. -1.
         23    2    1    2    0    0  0.00000000000E+00  0.00000000000E+00 -0.73816843035E+02  0.11770511136E+03  0.91681878932E+02 0.  0.
        -13    1    3    3    0    0  0.27607298810E+02  0.36594549576E+02 -0.37242528855E+02  0.59062085654E+02  0.00000000000E+00 0.  1.
         13    1    3    3    0    0 -0.27607298810E+02 -0.36594549576E+02 -0.36574314180E+02  0.58643025706E+02  0.00000000000E+00 0. -1.
<mgrwt>
<rscale>  0 0.91681879E+02</rscale>
<asrwt>0</asrwt>
<pdfrwt beam="2">  1        2 0.14732458E-01 0.91681879E+02</pdfrwt>
<pdfrwt beam="1">  1       -2 0.33760206E-02 0.91681879E+02</pdfrwt>
<totfact> 0.11924547E+05</totfact>
</mgrwt>
</event>
<event>
 5    1  0.1270834E+001  0.9148710E+02  0.7546771E-02  0.1299290E+00
         -1   -1    0    0    0  501 -0.00000000000E+00  0.00000000000E+00  0.33325193344E+02  0.33325193344E+02  0.00000000000E+00 0.  1.
          1   -1    0    0  501    0  0.00000000000E+00 -0.00000000000E+00 -0.62789504001E+02  0.62789504001E+02  0.00000000000E+00 0. -1.
         23    2    1    2    0    0  0.00000000000E+00  0.00000000000E+00 -0.29464310658E+02  0.96114697345E+02  0.91487099873E+02 0.  0.
        -11    1    3    3    0    0 -0.79352111092E+01  0.30440467407E+02  0.20157333773E+02  0.37361848671E+02  0.00000000000E+00 0.  1.
         11    1    3    3    0    0  0.79352111092E+01 -0.30440467407E+02 -0.49621644431E+02  0.58752848674E+02  0.00000000000E+00 0. -1.
<mgrwt>
<rscale>  0 0.91487100E+02</rscale>
<asrwt>0</asrwt>
<pdfrwt beam="2">  1        1 0.96599236E-02 0.91487100E+02</pdfrwt>
<pdfrwt beam="1">  1       -1 0.51269529E-02 0.91487100E+02</pdfrwt>
<totfact> 0.96128287E+04</totfact>
</mgrwt>
</event>
<event>
 5    1  0.1270834E+001  0.8833996E+02  0.7546771E-02  0.1306922E+00
          3   -1    0    0  501    0  0.00000000000E+00  0.00000000000E+00  0.30939721994E+02  0.30939721994E+02  0.00000000000E+00 0. -1.
         -3   -1    0    0    0  501 -0.00000000000E+00 -0.00000000000E+00 -0.63057678025E+02  0.63057678025E+02  0.00000000000E+00 0.  1.
         23    2    1    2    0    0  0.00000000000E+00  0.00000000000E+00 -0.32117956031E+02  0.93997400019E+02  0.88339957611E+02 0.  0.
        -13    1    3    3    0    0 -0.63993317810E+01 -0.22069607991E+02 -0.56197023330E+02  0.60713462059E+02  0.00000000000E+00 0.  1.
         13    1    3    3    0    0  0.63993317810E+01  0.22069607991E+02  0.24079067299E+02  0.33283937960E+02  0.00000000000E+00 0. -1.
<mgrwt>
<rscale>  0 0.88339958E+02</rscale>
<asrwt>0</asrwt>
<pdfrwt beam="1">  1        3 0.47599573E-02 0.88339958E+02</pdfrwt>
<pdfrwt beam="2">  1       -3 0.97011811E-02 0.88339958E+02</pdfrwt>
<totfact> 0.38269998E+04</totfact>
</mgrwt>
</event>
<event>
 5    1  0.1270834E+001  0.9669020E+02  0.7546771E-02  0.1287414E+00
          1   -1    0    0  501    0  0.00000000000E+00  0.00000000000E+00  0.78456770380E+02  0.78456770380E+02  0.00000000000E+00 0. -1.
         -1   -1    0    0    0  501 -0.00000000000E+00 -0.00000000000E+00 -0.29790272810E+02  0.29790272810E+02  0.00000000000E+00 0.  1.
         23    2    1    2    0    0  0.00000000000E+00  0.00000000000E+00  0.48666497570E+02  0.10824704319E+03  0.96690197919E+02 0.  0.
        -13    1    3    3    0    0  0.44591718829E+02  0.16264514006E+02  0.34611726673E+02  0.58744594877E+02  0.00000000000E+00 0. -1.
         13    1    3    3    0    0 -0.44591718829E+02 -0.16264514006E+02  0.14054770898E+02  0.49502448313E+02  0.00000000000E+00 0.  1.
<mgrwt>
<rscale>  0 0.96690198E+02</rscale>
<asrwt>0</asrwt>
<pdfrwt beam="1">  1        1 0.12070272E-01 0.96690198E+02</pdfrwt>
<pdfrwt beam="2">  1       -1 0.45831189E-02 0.96690198E+02</pdfrwt>
<totfact> 0.85409043E+04</totfact>
</mgrwt>
</event>
<event>
 5    1  0.1270834E+001  0.8576318E+02  0.7546771E-02  0.1313449E+00
         -4   -1    0    0    0  501 -0.00000000000E+00  0.00000000000E+00  0.41077676406E+02  0.41077676406E+02  0.00000000000E+00 0.  1.
          4   -1    0    0  501    0  0.00000000000E+00 -0.00000000000E+00 -0.44764722992E+02  0.44764722992E+02  0.00000000000E+00 0. -1.
         23    2    1    2    0    0  0.00000000000E+00  0.00000000000E+00 -0.36870465866E+01  0.85842399398E+02  0.85763181038E+02 0.  0.
        -11    1    3    3    0    0  0.52269698573E+01 -0.36164319188E+02 -0.24306436553E+02  0.43886012055E+02  0.00000000000E+00 0. -1.
         11    1    3    3    0    0 -0.52269698573E+01  0.36164319188E+02  0.20619389966E+02  0.41956387342E+02  0.00000000000E+00 0.  1.
<mgrwt>
<rscale>  0 0.85763181E+02</rscale>
<asrwt>0</asrwt>
<pdfrwt beam="2">  1        4 0.68868805E-02 0.85763181E+02</pdfrwt>
<pdfrwt beam="1">  1       -4 0.63196425E-02 0.85763181E+02</pdfrwt>
<totfact> 0.32285120E+04</totfact>
</mgrwt>
</event>
<event>
 5    1  0.1270834E+001  0.8879931E+02  0.7546771E-02  0.1305786E+00
          2   -1    0    0  501    0  0.00000000000E+00  0.00000000000E+00  0.58676121911E+01  0.58676121911E+01  0.00000000000E+00 0. -1.
         -2   -1    0    0    0  501 -0.00000000000E+00 -0.00000000000E+00 -0.33596790665E+03  0.33596790665E+03  0.00000000000E+00 0.  1.
         23    2    1    2    0    0  0.00000000000E+00  0.00000000000E+00 -0.33010029446E+03  0.34183551884E+03  0.88799310468E+02 0.  0.
        -13    1    3    3    0    0 -0.25373418225E+02 -0.35171121752E+02 -0.20167356067E+03  0.20628388990E+03  0.00000000000E+00 0.  1.
         13    1    3    3    0    0  0.25373418225E+02  0.35171121752E+02 -0.12842673379E+03  0.13555162894E+03  0.00000000000E+00 0. -1.
<mgrwt>
<rscale>  0 0.88799310E+02</rscale>
<asrwt>0</asrwt>
<pdfrwt beam="1">  1        2 0.90270952E-03 0.88799310E+02</pdfrwt>
<pdfrwt beam="2">  1       -2 0.51687373E-01 0.88799310E+02</pdfrwt>
<totfact> 0.51102258E+04</totfact>
</mgrwt>
</event>
<event>
 5    1  0.1270834E+001  0.9132294E+02  0.7546771E-02  0.1299679E+00
          1   -1    0    0  501    0  0.00000000000E+00  0.00000000000E+00  0.15693327617E+03  0.15693327617E+03  0.00000000000E+00 0. -1.
         -1   -1    0    0    0  501 -0.00000000000E+00 -0.00000000000E+00 -0.13285708001E+02  0.13285708001E+02  0.00000000000E+00 0.  1.
         23    2    1    2    0    0  0.00000000000E+00  0.00000000000E+00  0.14364756817E+03  0.17021898417E+03  0.91322936503E+02 0.  0.
        -13    1    3    3    0    0 -0.35194020692E+02 -0.12025640698E+01  0.12600290077E+03  0.13083117463E+03  0.00000000000E+00 0. -1.
         13    1    3    3    0    0  0.35194020692E+02  0.12025640698E+01  0.17644667399E+02  0.39387809541E+02  0.00000000000E+00 0.  1.
<mgrwt>
<rscale>  0 0.91322937E+02</rscale>
<asrwt>0</asrwt>
<pdfrwt beam="1">  1        1 0.24143580E-01 0.91322937E+02</pdfrwt>
<pdfrwt beam="2">  1       -1 0.20439552E-02 0.91322937E+02</pdfrwt>
<totfact> 0.11258525E+05</totfact>
</mgrwt>
</event>
<event>
 5    1  0.1270834E+001  0.9200816E+02  0.7546771E-02  0.1298060E+00
         -1   -1    0    0    0  501 -0.00000000000E+00  0.00000000000E+00  0.11310391646E+02  0.11310391646E+02  0.00000000000E+00 0.  1.
          1   -1    0    0  501    0  0.00000000000E+00 -0.00000000000E+00 -0.18711777906E+03  0.18711777906E+03  0.00000000000E+00 0. -1.
         23    2    1    2    0    0  0.00000000000E+00  0.00000000000E+00 -0.17580738741E+03  0.19842817070E+03  0.92008159750E+02 0.  0.
        -13    1    3    3    0    0  0.32454778889E+01 -0.29687008335E+02 -0.16337130344E+03  0.16607839829E+03  0.00000000000E+00 0. -1.
         13    1    3    3    0    0 -0.32454778889E+01  0.29687008335E+02 -0.12436083968E+02  0.32349772412E+02  0.00000000000E+00 0.  1.
<mgrwt>
<rscale>  0 0.92008160E+02</rscale>
<asrwt>0</asrwt>
<pdfrwt beam="2">  1        1 0.28787352E-01 0.92008160E+02</pdfrwt>
<pdfrwt beam="1">  1       -1 0.17400602E-02 0.92008160E+02</pdfrwt>
<totfact> 0.11407459E+05</totfact>
</mgrwt>
</event>
<event>
 5    1  0.1270834E+001  0.9071442E+02  0.7546771E-02  0.1301131E+00
         -1   -1    0    0    0  501 -0.00000000000E+00  0.00000000000E+00  0.70704252792E+01  0.70704252792E+01  0.00000000000E+00 0.  1.
          1   -1    0    0  501    0  0.00000000000E+00 -0.00000000000E+00 -0.29096929270E+03  0.29096929270E+03  0.00000000000E+00 0. -1.
         23    2    1    2    0    0  0.00000000000E+00  0.00000000000E+00 -0.28389886742E+03  0.29803971798E+03  0.90714423165E+02 0.  0.
        -11    1    3    3    0    0  0.32893539193E+02 -0.29546329213E+02 -0.17518083657E+03  0.18067455823E+03  0.00000000000E+00 0. -1.
         11    1    3    3    0    0 -0.32893539193E+02  0.29546329213E+02 -0.10871803085E+03  0.11736515975E+03  0.00000000000E+00 0.  1.
<mgrwt>
<rscale>  0 0.90714423E+02</rscale>
<asrwt>0</asrwt>
<pdfrwt beam="2">  1        1 0.44764503E-01 0.90714423E+02</pdfrwt>
<pdfrwt beam="1">  1       -1 0.10877578E-02 0.90714423E+02</pdfrwt>
<totfact> 0.12911166E+05</totfact>
</mgrwt>
</event>
<event>
 5    1  0.1270834E+001  0.9103797E+02  0.7546771E-02  0.1300357E+00
         -1   -1    0    0    0  501 -0.00000000000E+00  0.00000000000E+00  0.37099715096E+02  0.37099715096E+02  0.00000000000E+00 0.  1.
          1   -1    0    0  501    0  0.00000000000E+00 -0.00000000000E+00 -0.55848891600E+02  0.55848891600E+02  0.00000000000E+00 0. -1.
         23    2    1    2    0    0  0.00000000000E+00  0.00000000000E+00 -0.18749176504E+02  0.92948606697E+02  0.91037969371E+02 0.  0.
        -11    1    3    3    0    0  0.29747167852E+02  0.33529631505E+02 -0.17468627429E+02  0.48106996667E+02  0.00000000000E+00 0.  1.
         11    1    3    3    0    0 -0.29747167852E+02 -0.33529631505E+02 -0.12805490752E+01  0.44841610029E+02  0.00000000000E+00 0. -1.
<mgrwt>
<rscale>  0 0.91037969E+02</rscale>
<asrwt>0</asrwt>
<pdfrwt beam="2">  1        1 0.85921371E-02 0.91037969E+02</pdfrwt>
<pdfrwt beam="1">  1       -1 0.57076485E-02 0.91037969E+02</pdfrwt>
<totfact> 0.95739956E+04</totfact>
</mgrwt>
</event>
<event>
 5    1  0.1270834E+001  0.8927264E+02  0.7546771E-02  0.1304623E+00
          1   -1    0    0  501    0  0.00000000000E+00  0.00000000000E+00  0.14780122460E+03  0.14780122460E+03  0.00000000000E+00 0. -1.
         -1   -1    0    0    0  501 -0.00000000000E+00 -0.00000000000E+00 -0.13480275434E+02  0.13480275434E+02  0.00000000000E+00 0.  1.
         23    2    1    2    0    0  0.00000000000E+00  0.00000000000E+00  0.13432094917E+03  0.16128150003E+03  0.89272643448E+02 0.  0.
        -11    1    3    3    0    0 -0.30343145082E+02  0.19202035176E+02  0.19260355145E+02  0.40747832932E+02  0.00000000000E+00 0.  1.
         11    1    3    3    0    0  0.30343145082E+02 -0.19202035176E+02  0.11506059402E+03  0.12053366710E+03  0.00000000000E+00 0. -1.
<mgrwt>
<rscale>  0 0.89272643E+02</rscale>
<asrwt>0</asrwt>
<pdfrwt beam="1">  1        1 0.22738649E-01 0.89272643E+02</pdfrwt>
<pdfrwt beam="2">  1       -1 0.20738886E-02 0.89272643E+02</pdfrwt>
<totfact> 0.11837039E+05</totfact>
</mgrwt>
</event>
<event>
 4    1  0.1270834E+001  0.1406935E+03  0.7546771E-02  0.1212399E+00
          1   -1    0    0  501    0  0.00000000000E+00  0.00000000000E+00  0.77418966689E+02  0.77418966689E+02  0.00000000000E+00 0. -1.
         -1   -1    0    0    0  501 -0.00000000000E+00 -0.00000000000E+00 -0.63920540115E+02  0.63920540115E+02  0.00000000000E+00 0.  1.
        -13    1    1    2    0    0 -0.63220092372E+02  0.73480191162E+01 -0.23353173099E+02  0.67794868230E+02  0.00000000000E+00 0.  1.
         13    1    1    2    0    0  0.63220092372E+02 -0.73480191162E+01  0.36851599674E+02  0.73544638574E+02  0.00000000000E+00 0. -1.
<mgrwt>
<rscale>  0 0.14069346E+03</rscale>
<asrwt>0</asrwt>
<pdfrwt beam="1">  1        1 0.11910610E-01 0.14069346E+03</pdfrwt>
<pdfrwt beam="2">  1       -1 0.98339292E-02 0.14069346E+03</pdfrwt>
<totfact> 0.29221814E+04</totfact>
</mgrwt>
</event>
<event>
 5    1  0.1270834E+001  0.7302201E+02  0.7546771E-02  0.1350108E+00
         -3   -1    0    0    0  501 -0.00000000000E+00  0.00000000000E+00  0.74751321631E+02  0.74751321631E+02  0.00000000000E+00 0.  1.
          3   -1    0    0  501    0  0.00000000000E+00 -0.00000000000E+00 -0.17833177483E+02  0.17833177483E+02  0.00000000000E+00 0. -1.
         23    2    1    2    0    0  0.00000000000E+00  0.00000000000E+00  0.56918144148E+02  0.92584499114E+02  0.73022012729E+02 0.  0.
        -11    1    3    3    0    0  0.27919720287E+01 -0.12580144973E+02  0.71772206964E+02  0.72919852220E+02  0.00000000000E+00 0.  1.
         11    1    3    3    0    0 -0.27919720287E+01  0.12580144973E+02 -0.14854062816E+02  0.19664646894E+02  0.00000000000E+00 0. -1.
<mgrwt>
<rscale>  0 0.73022013E+02</rscale>
<asrwt>0</asrwt>
<pdfrwt beam="2">  1        3 0.27435658E-02 0.73022013E+02</pdfrwt>
<pdfrwt beam="1">  1       -3 0.11500203E-01 0.73022013E+02</pdfrwt>
<totfact> 0.63950690E+04</totfact>
</mgrwt>
</event>
<event>
 5    1  0.1270834E+001  0.9089499E+02  0.7546771E-02  0.1300699E+00
          1   -1    0    0  501    0  0.00000000000E+00  0.00000000000E+00  0.92961040712E+01  0.92961040712E+01  0.00000000000E+00 0. -1.
         -1   -1    0    0    0  501 -0.00000000000E+00 -0.00000000000E+00 -0.22218712192E+03  0.22218712192E+03  0.00000000000E+00 0.  1.
         23    2    1    2    0    0  0.00000000000E+00  0.00000000000E+00 -0.21289101784E+03  0.23148322599E+03  0.90894985750E+02 0.  0.
        -11    1    3    3    0    0  0.54341321983E+01  0.45048858343E+02 -0.99930120271E+02  0.10974952559E+03  0.00000000000E+00 0. -1.
         11    1    3    3    0    0 -0.54341321983E+01 -0.45048858343E+02 -0.11296089757E+03  0.12173370039E+03  0.00000000000E+00 0.  1.
<mgrwt>
<rscale>  0 0.90894986E+02</rscale>
<asrwt>0</asrwt>
<pdfrwt beam="1">  1        1 0.14301699E-02 0.90894986E+02</pdfrwt>
<pdfrwt beam="2">  1       -1 0.34182634E-01 0.90894986E+02</pdfrwt>
<totfact> 0.67831378E+04</totfact>
</mgrwt>
</event>
<event>
 5    1  0.1270834E+001  0.9123087E+02  0.7546771E-02  0.1299898E+00
         -4   -1    0    0    0  501 -0.00000000000E+00  0.00000000000E+00  0.10480662680E+03  0.10480662680E+03  0.00000000000E+00 0. -1.
          4   -1    0    0  501    0  0.00000000000E+00 -0.00000000000E+00 -0.19853398570E+02  0.19853398570E+02  0.00000000000E+00 0.  1.
         23    2    1    2    0    0  0.00000000000E+00  0.00000000000E+00  0.84953228230E+02  0.12466002537E+03  0.91230866151E+02 0.  0.
        -13    1    3    3    0    0  0.38182395981E+02  0.24591674237E+02  0.48293461074E+02  0.66294073545E+02  0.00000000000E+00 0. -1.
         13    1    3    3    0    0 -0.38182395981E+02 -0.24591674237E+02  0.36659767156E+02  0.58365951826E+02  0.00000000000E+00 0.  1.
<mgrwt>
<rscale>  0 0.91230866E+02</rscale>
<asrwt>0</asrwt>
<pdfrwt beam="2">  1        4 0.30543691E-02 0.91230866E+02</pdfrwt>
<pdfrwt beam="1">  1       -4 0.16124096E-01 0.91230866E+02</pdfrwt>
<totfact> 0.24971135E+04</totfact>
</mgrwt>
</event>
<event>
 5    1  0.1270834E+001  0.9394220E+02  0.7546771E-02  0.1293576E+00
         -3   -1    0    0    0  501 -0.00000000000E+00  0.00000000000E+00  0.12231997011E+03  0.12231997011E+03  0.00000000000E+00 0.  1.
          3   -1    0    0  501    0  0.00000000000E+00 -0.00000000000E+00 -0.18036991303E+02  0.18036991303E+02  0.00000000000E+00 0. -1.
         23    2    1    2    0    0  0.00000000000E+00  0.00000000000E+00  0.10428297881E+03  0.14035696141E+03  0.93942200039E+02 0.  0.
        -11    1    3    3    0    0  0.39524811945E+02  0.11139538447E+01  0.14260425118E+02  0.42033455449E+02  0.00000000000E+00 0. -1.
         11    1    3    3    0    0 -0.39524811945E+02 -0.11139538447E+01  0.90022553689E+02  0.98323505965E+02  0.00000000000E+00 0.  1.
<mgrwt>
<rscale>  0 0.93942200E+02</rscale>
<asrwt>0</asrwt>
<pdfrwt beam="2">  1        3 0.27749218E-02 0.93942200E+02</pdfrwt>
<pdfrwt beam="1">  1       -3 0.18818456E-01 0.93942200E+02</pdfrwt>
<totfact> 0.29419182E+04</totfact>
</mgrwt>
</event>
<event>
 5    1  0.1270834E+001  0.9208516E+02  0.7546771E-02  0.1297879E+00
         -2   -1    0    0    0  501 -0.00000000000E+00  0.00000000000E+00  0.32691141704E+02  0.32691141704E+02  0.00000000000E+00 0.  1.
          2   -1    0    0  501    0  0.00000000000E+00 -0.00000000000E+00 -0.64846902700E+02  0.64846902700E+02  0.00000000000E+00 0. -1.
         23    2    1    2    0    0  0.00000000000E+00  0.00000000000E+00 -0.32155760997E+02  0.97538044404E+02  0.92085162436E+02 0.  0.
        -11    1    3    3    0    0 -0.10255524707E+02  0.15708118945E+02 -0.60615328795E+02  0.63451862642E+02  0.00000000000E+00 0. -1.
         11    1    3    3    0    0  0.10255524707E+02 -0.15708118945E+02  0.28459567799E+02  0.34086181762E+02  0.00000000000E+00 0.  1.
<mgrwt>
<rscale>  0 0.92085162E+02</rscale>
<asrwt>0</asrwt>
<pdfrwt beam="2">  1        2 0.99764465E-02 0.92085162E+02</pdfrwt>
<pdfrwt beam="1">  1       -2 0.50294064E-02 0.92085162E+02</pdfrwt>
<totfact> 0.10534056E+05</totfact>
</mgrwt>
</event>
<event>
 5    1  0.1270834E+001  0.9452472E+02  0.7546771E-02  0.1292250E+00
         -3   -1    0    0    0  501 -0.00000000000E+00  0.00000000000E+00  0.35408677818E+02  0.35408677818E+02  0.00000000000E+00 0.  1.
          3   -1    0    0  501    0  0.00000000000E+00 -0.00000000000E+00 -0.63084274189E+02  0.63084274189E+02  0.00000000000E+00 0. -1.
         23    2    1    2    0    0  0.00000000000E+00  0.00000000000E+00 -0.27675596371E+02  0.98492952007E+02  0.94524721425E+02 0.  0.
        -13    1    3    3    0    0 -0.24426876144E+02  0.94650970874E+01 -0.54827137977E+02  0.60764096305E+02  0.00000000000E+00 0. -1.
         13    1    3    3    0    0  0.24426876144E+02 -0.94650970874E+01  0.27151541605E+02  0.37728855702E+02  0.00000000000E+00 0.  1.
<mgrwt>
<rscale>  0 0.94524721E+02</rscale>
<asrwt>0</asrwt>
<pdfrwt beam="2">  1        3 0.97052728E-02 0.94524721E+02</pdfrwt>
<pdfrwt beam="1">  1       -3 0.54474890E-02 0.94524721E+02</pdfrwt>
<totfact> 0.31519964E+04</totfact>
</mgrwt>
</event>
<event>
 5    1  0.1270834E+001  0.9003300E+02  0.7546771E-02  0.1302772E+00
         -1   -1    0    0    0  501 -0.00000000000E+00  0.00000000000E+00  0.60729574636E+02  0.60729574636E+02  0.00000000000E+00 0.  1.
          1   -1    0    0  501    0  0.00000000000E+00 -0.00000000000E+00 -0.33369002601E+02  0.33369002601E+02  0.00000000000E+00 0. -1.
         23    2    1    2    0    0  0.00000000000E+00  0.00000000000E+00  0.27360572035E+02  0.94098577237E+02  0.90033001372E+02 0.  0.
        -13    1    3    3    0    0  0.15577539007E+02  0.94690046556E+01 -0.29338583881E+02  0.34540907267E+02  0.00000000000E+00 0. -1.
         13    1    3    3    0    0 -0.15577539007E+02 -0.94690046556E+01  0.56699155916E+02  0.59557669970E+02  0.00000000000E+00 0.  1.
<mgrwt>
<rscale>  0 0.90033001E+02</rscale>
<asrwt>0</asrwt>
<pdfrwt beam="2">  1        1 0.51336927E-02 0.90033001E+02</pdfrwt>
<pdfrwt beam="1">  1       -1 0.93430115E-02 0.90033001E+02</pdfrwt>
<totfact> 0.91391330E+04</totfact>
</mgrwt>
</event>
<event>
 5    1  0.1270834E+001  0.9115925E+02  0.7546771E-02  0.1300068E+00
          1   -1    0    0  501    0  0.00000000000E+00  0.00000000000E+00  0.28337667292E+02  0.28337667292E+02  0.00000000000E+00 0. -1.
         -1   -1    0    0    0  501 -0.00000000000E+00 -0.00000000000E+00 -0.73312391587E+02  0.73312391587E+02  0.00000000000E+00 0.  1.
         23    2    1    2    0    0  0.00000000000E+00  0.00000000000E+00 -0.44974724295E+02  0.10165005888E+03  0.91159248815E+02 0.  0.
        -11    1    3    3    0    0  0.24989709812E+02  0.32378734262E+02 -0.44917820790E+02  0.60749309901E+02  0.00000000000E+00 0.  1.
         11    1    3    3    0    0 -0.24989709812E+02 -0.32378734262E+02 -0.56903504625E-01  0.40900748977E+02  0.00000000000E+00 0. -1.
<mgrwt>
<rscale>  0 0.91159249E+02</rscale>
<asrwt>0</asrwt>
<pdfrwt beam="1">  1        1 0.43596412E-02 0.91159249E+02</pdfrwt>
<pdfrwt beam="2">  1       -1 0.11278829E-01 0.91159249E+02</pdfrwt>
<totfact> 0.85932422E+04</totfact>
</mgrwt>
</event>
<event>
 5    1  0.1270834E+001  0.9068861E+02  0.7546771E-02  0.1301193E+00
         -4   -1    0    0    0  501 -0.00000000000E+00  0.00000000000E+00  0.18214180926E+03  0.18214180926E+03  0.00000000000E+00 0. -1.
          4   -1    0    0  501    0  0.00000000000E+00 -0.00000000000E+00 -0.11288488966E+02  0.11288488966E+02  0.00000000000E+00 0.  1.
         23    2    1    2    0    0  0.00000000000E+00  0.00000000000E+00  0.17085332030E+03  0.19343029823E+03  0.90688605769E+02 0.  0.
        -11    1    3    3    0    0 -0.14215385576E+01  0.39985308950E+02  0.39917211801E+02  0.56517514999E+02  0.00000000000E+00 0.  1.
         11    1    3    3    0    0  0.14215385576E+01 -0.39985308950E+02  0.13093610850E+03  0.13691278323E+03  0.00000000000E+00 0. -1.
<mgrwt>
<rscale>  0 0.90688606E+02</rscale>
<asrwt>0</asrwt>
<pdfrwt beam="2">  1        4 0.17366907E-02 0.90688606E+02</pdfrwt>
<pdfrwt beam="1">  1       -4 0.28021815E-01 0.90688606E+02</pdfrwt>
<totfact> 0.21977204E+04</totfact>
</mgrwt>
</event>
<event>
 5    1  0.1270834E+001  0.8956932E+02  0.7546771E-02  0.1303898E+00
         -1   -1    0    0    0  501 -0.00000000000E+00  0.00000000000E+00  0.96582758528E+02  0.96582758528E+02  0.00000000000E+00 0.  1.
          1   -1    0    0  501    0  0.00000000000E+00 -0.00000000000E+00 -0.20766291757E+02  0.20766291757E+02  0.00000000000E+00 0. -1.
         23    2    1    2    0    0  0.00000000000E+00  0.00000000000E+00  0.75816466771E+02  0.11734905029E+03  0.89569319352E+02 0.  0.
        -11    1    3    3    0    0 -0.31833667656E+02  0.13242126726E+02  0.46161757776E+00  0.34481145680E+02  0.00000000000E+00 0. -1.
         11    1    3    3    0    0  0.31833667656E+02 -0.13242126726E+02  0.75354849193E+02  0.82867904605E+02  0.00000000000E+00 0.  1.
<mgrwt>
<rscale>  0 0.89569319E+02</rscale>
<asrwt>0</asrwt>
<pdfrwt beam="2">  1        1 0.31948142E-02 0.89569319E+02</pdfrwt>
<pdfrwt beam="1">  1       -1 0.14858886E-01 0.89569319E+02</pdfrwt>
<totfact> 0.85725000E+04</totfact>
</mgrwt>
</event>
<event>
 5    1  0.1270834E+001  0.9122737E+02  0.7546771E-02  0.1299906E+00
         -1   -1    0    0    0  501 -0.00000000000E+00  0.00000000000E+00  0.15538604591E+03  0.15538604591E+03  0.00000000000E+00 0.  1.
          1   -1    0    0  501    0  0.00000000000E+00 -0.00000000000E+00 -0.13389930548E+02  0.13389930548E+02  0.00000000000E+00 0. -1.
         23    2    1    2    0    0  0.00000000000E+00  0.00000000000E+00  0.14199611536E+03  0.16877597646E+03  0.91227372271E+02 0.  0.
        -13    1    3    3    0    0 -0.30544585084E+02 -0.24332168338E+02  0.11460540333E+03  0.12107611063E+03  0.00000000000E+00 0.  1.
         13    1    3    3    0    0  0.30544585084E+02  0.24332168338E+02  0.27390712033E+02  0.47699865824E+02  0.00000000000E+00 0. -1.
<mgrwt>
<rscale>  0 0.91227372E+02</rscale>
<asrwt>0</asrwt>
<pdfrwt beam="2">  1        1 0.20599894E-02 0.91227372E+02</pdfrwt>
<pdfrwt beam="1">  1       -1 0.23905544E-01 0.91227372E+02</pdfrwt>
<totfact> 0.74059561E+04</totfact>
</mgrwt>
</event>
<event>
 5    1  0.1270834E+001  0.9087047E+02  0.7546771E-02  0.1300757E+00
         -1   -1    0    0    0  501 -0.00000000000E+00  0.00000000000E+00  0.11632042265E+02  0.11632042265E+02  0.00000000000E+00 0.  1.
          1   -1    0    0  501    0  0.00000000000E+00 -0.00000000000E+00 -0.17747190148E+03  0.17747190148E+03  0.00000000000E+00 0. -1.
         23    2    1    2    0    0  0.00000000000E+00  0.00000000000E+00 -0.16583985921E+03  0.18910394374E+03  0.90870471747E+02 0.  0.
        -11    1    3    3    0    0 -0.45187386954E+00 -0.40317952221E+02 -0.12650338122E+03  0.13277366803E+03  0.00000000000E+00 0. -1.
         11    1    3    3    0    0  0.45187386954E+00  0.40317952221E+02 -0.39336477990E+02  0.56330275713E+02  0.00000000000E+00 0.  1.
<mgrwt>
<rscale>  0 0.90870472E+02</rscale>
<asrwt>0</asrwt>
<pdfrwt beam="2">  1        1 0.27303371E-01 0.90870472E+02</pdfrwt>
<pdfrwt beam="1">  1       -1 0.17895449E-02 0.90870472E+02</pdfrwt>
<totfact> 0.11676440E+05</totfact>
</mgrwt>
</event>
<event>
 5    1  0.1270834E+001  0.9010695E+02  0.7546771E-02  0.1302593E+00
         -2   -1    0    0    0  501 -0.00000000000E+00  0.00000000000E+00  0.59411495315E+01  0.59411495315E+01  0.00000000000E+00 0.  1.
          2   -1    0    0  501    0  0.00000000000E+00 -0.00000000000E+00 -0.34165364533E+03  0.34165364533E+03  0.00000000000E+00 0. -1.
         23    2    1    2    0    0  0.00000000000E+00  0.00000000000E+00 -0.33571249580E+03  0.34759479486E+03  0.90106945235E+02 0.  0.
        -11    1    3    3    0    0  0.22489979846E+02 -0.35492936186E+02 -0.23056628037E+03  0.23436372876E+03  0.00000000000E+00 0.  1.
         11    1    3    3    0    0 -0.22489979846E+02  0.35492936186E+02 -0.10514621543E+03  0.11323106611E+03  0.00000000000E+00 0. -1.
<mgrwt>
<rscale>  0 0.90106945E+02</rscale>
<asrwt>0</asrwt>
<pdfrwt beam="2">  1        2 0.52562100E-01 0.90106945E+02</pdfrwt>
<pdfrwt beam="1">  1       -2 0.91402299E-03 0.90106945E+02</pdfrwt>
<totfact> 0.19453108E+05</totfact>
</mgrwt>
</event>
<event>
 5    1  0.1270834E+001  0.8982020E+02  0.7546771E-02  0.1303288E+00
          1   -1    0    0  501    0  0.00000000000E+00  0.00000000000E+00  0.14391786206E+02  0.14391786206E+02  0.00000000000E+00 0. -1.
         -1   -1    0    0    0  501 -0.00000000000E+00 -0.00000000000E+00 -0.14014363341E+03  0.14014363341E+03  0.00000000000E+00 0.  1.
         23    2    1    2    0    0  0.00000000000E+00  0.00000000000E+00 -0.12575184720E+03  0.15453541962E+03  0.89820202854E+02 0.  0.
        -11    1    3    3    0    0  0.37220030541E+02  0.21970900302E+02 -0.83867829728E+02  0.94349689966E+02  0.00000000000E+00 0.  1.
         11    1    3    3    0    0 -0.37220030541E+02 -0.21970900302E+02 -0.41884017475E+02  0.60185729649E+02  0.00000000000E+00 0. -1.
<mgrwt>
<rscale>  0 0.89820203E+02</rscale>
<asrwt>0</asrwt>
<pdfrwt beam="1">  1        1 0.22141211E-02 0.89820203E+02</pdfrwt>
<pdfrwt beam="2">  1       -1 0.21560558E-01 0.89820203E+02</pdfrwt>
<totfact> 0.78969705E+04</totfact>
</mgrwt>
</event>
<event>
 5    1  0.1270834E+001  0.8739794E+02  0.7546771E-02  0.1309278E+00
          1   -1    0    0  501    0  0.00000000000E+00  0.00000000000E+00  0.31796134292E+02  0.31796134292E+02  0.00000000000E+00 0. -1.
         -1   -1    0    0    0  501 -0.00000000000E+00 -0.00000000000E+00 -0.60057614539E+02  0.60057614539E+02  0.00000000000E+00 0.  1.
         23    2    1    2    0    0  0.00000000000E+00  0.00000000000E+00 -0.28261480247E+02  0.91853748831E+02  0.87397939956E+02 0.  0.
        -11    1    3    3    0    0  0.31761582716E+02  0.10734759146E+02 -0.43587654102E+02  0.54990151670E+02  0.00000000000E+00 0.  1.
         11    1    3    3    0    0 -0.31761582716E+02 -0.10734759146E+02  0.15326173856E+02  0.36863597161E+02  0.00000000000E+00 0. -1.
<mgrwt>
<rscale>  0 0.87397940E+02</rscale>
<asrwt>0</asrwt>
<pdfrwt beam="1">  1        1 0.48917131E-02 0.87397940E+02</pdfrwt>
<pdfrwt beam="2">  1       -1 0.92396328E-02 0.87397940E+02</pdfrwt>
<totfact> 0.98701669E+04</totfact>
</mgrwt>
</event>
<event>
 5    1  0.1270834E+001  0.8718280E+02  0.7546771E-02  0.1309821E+00
          2   -1    0    0  501    0  0.00000000000E+00  0.00000000000E+00  0.11580894126E+02  0.11580894126E+02  0.00000000000E+00 0. -1.
         -2   -1    0    0    0  501 -0.00000000000E+00 -0.00000000000E+00 -0.16408146807E+03  0.16408146807E+03  0.00000000000E+00 0.  1.
         23    2    1    2    0    0  0.00000000000E+00  0.00000000000E+00 -0.15250057394E+03  0.17566236220E+03  0.87182798987E+02 0.  0.
        -13    1    3    3    0    0 -0.13838130975E+02  0.40590706933E+02 -0.92001235903E+02  0.10150530413E+03  0.00000000000E+00 0.  1.
         13    1    3    3    0    0  0.13838130975E+02 -0.40590706933E+02 -0.60499338040E+02  0.74157058069E+02  0.00000000000E+00 0. -1.
<mgrwt>
<rscale>  0 0.87182799E+02</rscale>
<asrwt>0</asrwt>
<pdfrwt beam="1">  1        2 0.17816761E-02 0.87182799E+02</pdfrwt>
<pdfrwt beam="2">  1       -2 0.25243301E-01 0.87182799E+02</pdfrwt>
<totfact> 0.75680840E+04</totfact>
</mgrwt>
</event>
<event>
 5    1  0.1270834E+001  0.1002598E+03  0.7546771E-02  0.1279751E+00
          2   -1    0    0  501    0  0.00000000000E+00  0.00000000000E+00  0.45952700392E+03  0.45952700392E+03  0.00000000000E+00 0. -1.
         -2   -1    0    0    0  501 -0.00000000000E+00 -0.00000000000E+00 -0.54686838129E+01  0.54686838129E+01  0.00000000000E+00 0.  1.
         23    2    1    2    0    0  0.00000000000E+00  0.00000000000E+00  0.45405832010E+03  0.46499568773E+03  0.10025982023E+03 0.  0.
        -13    1    3    3    0    0  0.18183932546E+02 -0.46694298490E+02  0.23357990339E+03  0.23889450430E+03  0.00000000000E+00 0.  1.
         13    1    3    3    0    0 -0.18183932546E+02  0.46694298490E+02  0.22047841671E+03  0.22610118343E+03  0.00000000000E+00 0. -1.
<mgrwt>
<rscale>  0 0.10025982E+03</rscale>
<asrwt>0</asrwt>
<pdfrwt beam="1">  1        2 0.70696432E-01 0.10025982E+03</pdfrwt>
<pdfrwt beam="2">  1       -2 0.84133633E-03 0.10025982E+03</pdfrwt>
<totfact> 0.16270391E+05</totfact>
</mgrwt>
</event>
<event>
 5    1  0.1270834E+001  0.9015041E+02  0.7546771E-02  0.1302488E+00
          4   -1    0    0  501    0  0.00000000000E+00  0.00000000000E+00  0.58656051192E+02  0.58656051192E+02  0.00000000000E+00 0.  1.
         -4   -1    0    0    0  501 -0.00000000000E+00 -0.00000000000E+00 -0.34638781980E+02  0.34638781980E+02  0.00000000000E+00 0. -1.
         23    2    1    2    0    0  0.00000000000E+00  0.00000000000E+00  0.24017269212E+02  0.93294833172E+02  0.90150411404E+02 0.  0.
        -13    1    3    3    0    0  0.16205083432E+02 -0.24834524644E+02  0.47139956088E+02  0.55691415885E+02  0.00000000000E+00 0.  1.
         13    1    3    3    0    0 -0.16205083432E+02  0.24834524644E+02 -0.23122686876E+02  0.37603417287E+02  0.00000000000E+00 0. -1.
<mgrwt>
<rscale>  0 0.90150411E+02</rscale>
<asrwt>0</asrwt>
<pdfrwt beam="1">  1        4 0.90240079E-02 0.90150411E+02</pdfrwt>
<pdfrwt beam="2">  1       -4 0.53290434E-02 0.90150411E+02</pdfrwt>
<totfact> 0.27717121E+04</totfact>
</mgrwt>
</event>
<event>
 5    1  0.1270834E+001  0.8910063E+02  0.7546771E-02  0.1305044E+00
          1   -1    0    0  501    0  0.00000000000E+00  0.00000000000E+00  0.11456260499E+03  0.11456260499E+03  0.00000000000E+00 0. -1.
         -1   -1    0    0    0  501 -0.00000000000E+00 -0.00000000000E+00 -0.17324419549E+02  0.17324419549E+02  0.00000000000E+00 0.  1.
         23    2    1    2    0    0  0.00000000000E+00  0.00000000000E+00  0.97238185444E+02  0.13188702454E+03  0.89100631502E+02 0.  0.
        -13    1    3    3    0    0  0.42699797794E+02  0.85373547204E+01  0.34688543801E+02  0.55672742238E+02  0.00000000000E+00 0.  1.
         13    1    3    3    0    0 -0.42699797794E+02 -0.85373547204E+01  0.62549641644E+02  0.76214282304E+02  0.00000000000E+00 0. -1.
<mgrwt>
<rscale>  0 0.89100632E+02</rscale>
<asrwt>0</asrwt>
<pdfrwt beam="1">  1        1 0.17625016E-01 0.89100632E+02</pdfrwt>
<pdfrwt beam="2">  1       -1 0.26652954E-02 0.89100632E+02</pdfrwt>
<totfact> 0.11376209E+05</totfact>
</mgrwt>
</event>
<event>
 5    1  0.1270834E+001  0.9013215E+02  0.7546771E-02  0.1302532E+00
          1   -1    0    0  501    0  0.00000000000E+00  0.00000000000E+00  0.81459365772E+02  0.81459365772E+02  0.00000000000E+00 0. -1.
         -1   -1    0    0    0  501 -0.00000000000E+00 -0.00000000000E+00 -0.24932073603E+02  0.24932073603E+02  0.00000000000E+00 0.  1.
         23    2    1    2    0    0  0.00000000000E+00  0.00000000000E+00  0.56527292170E+02  0.10639143938E+03  0.90132145277E+02 0.  0.
        -13    1    3    3    0    0  0.39187139968E+02 -0.95622378210E+01  0.45414695697E+01  0.40591788294E+02  0.00000000000E+00 0.  1.
         13    1    3    3    0    0 -0.39187139968E+02  0.95622378210E+01  0.51985822600E+02  0.65799651081E+02  0.00000000000E+00 0. -1.
<mgrwt>
<rscale>  0 0.90132145E+02</rscale>
<asrwt>0</asrwt>
<pdfrwt beam="1">  1        1 0.12532210E-01 0.90132145E+02</pdfrwt>
<pdfrwt beam="2">  1       -1 0.38357037E-02 0.90132145E+02</pdfrwt>
<totfact> 0.10427250E+05</totfact>
</mgrwt>
</event>
<event>
 5    1  0.1270834E+001  0.9037993E+02  0.7546771E-02  0.1301934E+00
          2   -1    0    0  501    0  0.00000000000E+00  0.00000000000E+00  0.76735062757E+02  0.76735062757E+02  0.00000000000E+00 0. -1.
         -2   -1    0    0    0  501 -0.00000000000E+00 -0.00000000000E+00 -0.26612771913E+02  0.26612771913E+02  0.00000000000E+00 0.  1.
         23    2    1    2    0    0  0.00000000000E+00  0.00000000000E+00  0.50122290844E+02  0.10334783467E+03  0.90379925268E+02 0.  0.
        -11    1    3    3    0    0 -0.47874347965E+01  0.42333041964E+02  0.78280399438E+01  0.43316096122E+02  0.00000000000E+00 0.  1.
         11    1    3    3    0    0  0.47874347965E+01 -0.42333041964E+02  0.42294250901E+02  0.60031738548E+02  0.00000000000E+00 0. -1.
<mgrwt>
<rscale>  0 0.90379925E+02</rscale>
<asrwt>0</asrwt>
<pdfrwt beam="1">  1        2 0.11805394E-01 0.90379925E+02</pdfrwt>
<pdfrwt beam="2">  1       -2 0.40942726E-02 0.90379925E+02</pdfrwt>
<totfact> 0.11630717E+05</totfact>
</mgrwt>
</event>
<event>
 5    1  0.1270834E+001  0.9369345E+02  0.7546771E-02  0.1294146E+00
         -2   -1    0    0    0  501 -0.00000000000E+00  0.00000000000E+00  0.89598116799E+01  0.89598116799E+01  0.00000000000E+00 0.  1.
          2   -1    0    0  501    0  0.00000000000E+00 -0.00000000000E+00 -0.24493994691E+03  0.24493994691E+03  0.00000000000E+00 0. -1.
         23    2    1    2    0    0  0.00000000000E+00  0.00000000000E+00 -0.23598013523E+03  0.25389975859E+03  0.93693453287E+02 0.  0.
        -13    1    3    3    0    0 -0.37518818676E+02 -0.27422029402E+02 -0.10196121875E+03  0.11205230734E+03  0.00000000000E+00 0.  1.
         13    1    3    3    0    0  0.37518818676E+02  0.27422029402E+02 -0.13401891648E+03  0.14184745125E+03  0.00000000000E+00 0. -1.
<mgrwt>
<rscale>  0 0.93693453E+02</rscale>
<asrwt>0</asrwt>
<pdfrwt beam="2">  1        2 0.37683073E-01 0.93693453E+02</pdfrwt>
<pdfrwt beam="1">  1       -2 0.13784324E-02 0.93693453E+02</pdfrwt>
<totfact> 0.15485023E+05</totfact>
</mgrwt>
</event>
<event>
 5    1  0.1270834E+001  0.9087452E+02  0.7546771E-02  0.1300748E+00
         -3   -1    0    0    0  501 -0.00000000000E+00  0.00000000000E+00  0.93518269987E+01  0.93518269987E+01  0.00000000000E+00 0.  1.
          3   -1    0    0  501    0  0.00000000000E+00 -0.00000000000E+00 -0.22076376028E+03  0.22076376028E+03  0.00000000000E+00 0. -1.
         23    2    1    2    0    0  0.00000000000E+00  0.00000000000E+00 -0.21141193328E+03  0.23011558728E+03  0.90874517743E+02 0.  0.
        -13    1    3    3    0    0  0.39758640104E+02 -0.18251964713E+02 -0.13678761726E+03  0.14361314673E+03  0.00000000000E+00 0.  1.
         13    1    3    3    0    0 -0.39758640104E+02  0.18251964713E+02 -0.74624316023E+02  0.86502440548E+02  0.00000000000E+00 0. -1.
<mgrwt>
<rscale>  0 0.90874518E+02</rscale>
<asrwt>0</asrwt>
<pdfrwt beam="2">  1        3 0.33963650E-01 0.90874518E+02</pdfrwt>
<pdfrwt beam="1">  1       -3 0.14387428E-02 0.90874518E+02</pdfrwt>
<totfact> 0.27255657E+04</totfact>
</mgrwt>
</event>
<event>
 5    1  0.1270834E+001  0.9403840E+02  0.7546771E-02  0.1293357E+00
         -3   -1    0    0    0  501 -0.00000000000E+00  0.00000000000E+00  0.24914206542E+02  0.24914206542E+02  0.00000000000E+00 0.  1.
          3   -1    0    0  501    0  0.00000000000E+00 -0.00000000000E+00 -0.88736727252E+02  0.88736727252E+02  0.00000000000E+00 0. -1.
         23    2    1    2    0    0  0.00000000000E+00  0.00000000000E+00 -0.63822520711E+02  0.11365093379E+03  0.94038399616E+02 0.  0.
        -13    1    3    3    0    0  0.43481431050E+02 -0.62964807242E+01 -0.11669266822E+02  0.45458247919E+02  0.00000000000E+00 0.  1.
         13    1    3    3    0    0 -0.43481431050E+02  0.62964807242E+01 -0.52153253888E+02  0.68192685875E+02  0.00000000000E+00 0. -1.
<mgrwt>
<rscale>  0 0.94038400E+02</rscale>
<asrwt>0</asrwt>
<pdfrwt beam="2">  1        3 0.13651804E-01 0.94038400E+02</pdfrwt>
<pdfrwt beam="1">  1       -3 0.38329548E-02 0.94038400E+02</pdfrwt>
<totfact> 0.30964468E+04</totfact>
</mgrwt>
</event>
<event>
 4    1  0.1270834E+001  0.4436733E+02  0.7546771E-02  0.1478330E+00
         -1   -1    0    0    0  501 -0.00000000000E+00  0.00000000000E+00  0.13863654306E+03  0.13863654306E+03  0.00000000000E+00 0. -1.
          1   -1    0    0  501    0  0.00000000000E+00 -0.00000000000E+00 -0.35496765321E+01  0.35496765321E+01  0.00000000000E+00 0.  1.
        -11    1    1    2    0    0  0.11423814556E+02 -0.18598885960E+02  0.54848094917E+02  0.59031649257E+02  0.00000000000E+00 0. -1.
         11    1    1    2    0    0 -0.11423814556E+02  0.18598885960E+02  0.80238771610E+02  0.83154570335E+02  0.00000000000E+00 0.  1.
<mgrwt>
<rscale>  0 0.44367325E+02</rscale>
<asrwt>0</asrwt>
<pdfrwt beam="2">  1        1 0.54610419E-03 0.44367325E+02</pdfrwt>
<pdfrwt beam="1">  1       -1 0.21328695E-01 0.44367325E+02</pdfrwt>
<totfact> 0.46998673E+05</totfact>
</mgrwt>
</event>
<event>
 5    1  0.1270834E+001  0.8984093E+02  0.7546771E-02  0.1303237E+00
          1   -1    0    0  501    0  0.00000000000E+00  0.00000000000E+00  0.27186677335E+03  0.27186677335E+03  0.00000000000E+00 0. -1.
         -1   -1    0    0    0  501 -0.00000000000E+00 -0.00000000000E+00 -0.74221942685E+01  0.74221942685E+01  0.00000000000E+00 0.  1.
         23    2    1    2    0    0  0.00000000000E+00  0.00000000000E+00  0.26444457908E+03  0.27928896761E+03  0.89840926240E+02 0.  0.
        -11    1    3    3    0    0  0.13038280377E+02  0.38858941198E+02  0.75083478468E+02  0.85542637352E+02  0.00000000000E+00 0. -1.
         11    1    3    3    0    0 -0.13038280377E+02 -0.38858941198E+02  0.18936110061E+03  0.19374633026E+03  0.00000000000E+00 0.  1.
<mgrwt>
<rscale>  0 0.89840926E+02</rscale>
<asrwt>0</asrwt>
<pdfrwt beam="1">  1        1 0.41825650E-01 0.89840926E+02</pdfrwt>
<pdfrwt beam="2">  1       -1 0.11418762E-02 0.89840926E+02</pdfrwt>
<totfact> 0.13075396E+05</totfact>
</mgrwt>
</event>
<event>
 5    1  0.1270834E+001  0.9044061E+02  0.7546771E-02  0.1301788E+00
         -1   -1    0    0    0  501 -0.00000000000E+00  0.00000000000E+00  0.17430837955E+02  0.17430837955E+02  0.00000000000E+00 0.  1.
          1   -1    0    0  501    0  0.00000000000E+00 -0.00000000000E+00 -0.11731369728E+03  0.11731369728E+03  0.00000000000E+00 0. -1.
         23    2    1    2    0    0  0.00000000000E+00  0.00000000000E+00 -0.99882859322E+02  0.13474453523E+03  0.90440611389E+02 0.  0.
        -13    1    3    3    0    0 -0.17100498727E+02 -0.20456012933E+02 -0.10435731149E+03  0.10770944241E+03  0.00000000000E+00 0. -1.
         13    1    3    3    0    0  0.17100498727E+02  0.20456012933E+02  0.44744521699E+01  0.27035092825E+02  0.00000000000E+00 0.  1.
<mgrwt>
<rscale>  0 0.90440611E+02</rscale>
<asrwt>0</asrwt>
<pdfrwt beam="2">  1        1 0.18048262E-01 0.90440611E+02</pdfrwt>
<pdfrwt beam="1">  1       -1 0.26816673E-02 0.90440611E+02</pdfrwt>
<totfact> 0.10970169E+05</totfact>
</mgrwt>
</event>
<event>
 5    1  0.1270834E+001  0.8228811E+02  0.7546771E-02  0.1322681E+00
          4   -1    0    0  501    0  0.00000000000E+00  0.00000000000E+00  0.10690686791E+03  0.10690686791E+03  0.00000000000E+00 0. -1.
         -4   -1    0    0    0  501 -0.00000000000E+00 -0.00000000000E+00 -0.15834655642E+02  0.15834655642E+02  0.00000000000E+00 0.  1.
         23    2    1    2    0    0  0.00000000000E+00  0.00000000000E+00  0.91072212265E+02  0.12274152355E+03  0.82288114306E+02 0.  0.
        -13    1    3    3    0    0  0.12937535654E+02 -0.28901829154E+02  0.63508822212E+01  0.32295963560E+02  0.00000000000E+00 0.  1.
         13    1    3    3    0    0 -0.12937535654E+02  0.28901829154E+02  0.84721330043E+02  0.90445559988E+02  0.00000000000E+00 0. -1.
<mgrwt>
<rscale>  0 0.82288114E+02</rscale>
<asrwt>0</asrwt>
<pdfrwt beam="1">  1        4 0.16447210E-01 0.82288114E+02</pdfrwt>
<pdfrwt beam="2">  1       -4 0.24361009E-02 0.82288114E+02</pdfrwt>
<totfact> 0.33056649E+04</totfact>
</mgrwt>
</event>
<event>
 5    1  0.1270834E+001  0.9017839E+02  0.7546771E-02  0.1302420E+00
          3   -1    0    0  501    0  0.00000000000E+00  0.00000000000E+00  0.74490542435E+02  0.74490542435E+02  0.00000000000E+00 0. -1.
         -3   -1    0    0    0  501 -0.00000000000E+00 -0.00000000000E+00 -0.27292532142E+02  0.27292532142E+02  0.00000000000E+00 0.  1.
         23    2    1    2    0    0  0.00000000000E+00  0.00000000000E+00  0.47198010294E+02  0.10178307458E+03  0.90178390397E+02 0.  0.
        -13    1    3    3    0    0 -0.20170821219E+02  0.76809856293E+01 -0.21082929198E+02  0.30171998151E+02  0.00000000000E+00 0.  1.
         13    1    3    3    0    0  0.20170821219E+02 -0.76809856293E+01  0.68280939492E+02  0.71611076426E+02  0.00000000000E+00 0. -1.
<mgrwt>
<rscale>  0 0.90178390E+02</rscale>
<asrwt>0</asrwt>
<pdfrwt beam="1">  1        3 0.11460083E-01 0.90178390E+02</pdfrwt>
<pdfrwt beam="2">  1       -3 0.41988511E-02 0.90178390E+02</pdfrwt>
<totfact> 0.35588042E+04</totfact>
</mgrwt>
</event>
<event>
 5    1  0.1270834E+001  0.9183210E+02  0.7546771E-02  0.1298475E+00
         -1   -1    0    0    0  501 -0.00000000000E+00  0.00000000000E+00  0.19972253232E+02  0.19972253232E+02  0.00000000000E+00 0.  1.
          1   -1    0    0  501    0  0.00000000000E+00 -0.00000000000E+00 -0.10556063501E+03  0.10556063501E+03  0.00000000000E+00 0. -1.
         23    2    1    2    0    0  0.00000000000E+00  0.00000000000E+00 -0.85588381783E+02  0.12553288825E+03  0.91832101879E+02 0.  0.
        -13    1    3    3    0    0  0.34112787767E+01  0.24756985344E+02  0.98610607026E+01  0.26866069017E+02  0.00000000000E+00 0.  1.
         13    1    3    3    0    0 -0.34112787767E+01 -0.24756985344E+02 -0.95449442485E+02  0.98666819230E+02  0.00000000000E+00 0. -1.
<mgrwt>
<rscale>  0 0.91832102E+02</rscale>
<asrwt>0</asrwt>
<pdfrwt beam="2">  1        1 0.16240098E-01 0.91832102E+02</pdfrwt>
<pdfrwt beam="1">  1       -1 0.30726543E-02 0.91832102E+02</pdfrwt>
<totfact> 0.10336467E+05</totfact>
</mgrwt>
</event>
<event>
 5    1  0.1270834E+001  0.8290981E+02  0.7546771E-02  0.1320991E+00
          2   -1    0    0  501    0  0.00000000000E+00  0.00000000000E+00  0.47276983912E+02  0.47276983912E+02  0.00000000000E+00 0.  1.
         -2   -1    0    0    0  501 -0.00000000000E+00 -0.00000000000E+00 -0.36349805346E+02  0.36349805346E+02  0.00000000000E+00 0. -1.
         23    2    1    2    0    0  0.00000000000E+00  0.00000000000E+00  0.10927178566E+02  0.83626789258E+02  0.82909810338E+02 0.  0.
        -13    1    3    3    0    0  0.22217314062E+01 -0.39267255928E+02 -0.77514541759E+01  0.40086637678E+02  0.00000000000E+00 0.  1.
         13    1    3    3    0    0 -0.22217314062E+01  0.39267255928E+02  0.18678632742E+02  0.43540151580E+02  0.00000000000E+00 0. -1.
<mgrwt>
<rscale>  0 0.82909810E+02</rscale>
<asrwt>0</asrwt>
<pdfrwt beam="1">  1        2 0.72733822E-02 0.82909810E+02</pdfrwt>
<pdfrwt beam="2">  1       -2 0.55922777E-02 0.82909810E+02</pdfrwt>
<totfact> 0.13040354E+05</totfact>
</mgrwt>
</event>
<event>
 4    1  0.1270834E+001  0.1280937E+03  0.7546771E-02  0.1230312E+00
         -3   -1    0    0    0  501 -0.00000000000E+00  0.00000000000E+00  0.25897721930E+03  0.25897721930E+03  0.00000000000E+00 0.  1.
          3   -1    0    0  501    0  0.00000000000E+00 -0.00000000000E+00 -0.15839223749E+02  0.15839223749E+02  0.00000000000E+00 0. -1.
        -13    1    1    2    0    0 -0.62255034080E+02 -0.14973953924E+02  0.11846770901E+03  0.13466442233E+03  0.00000000000E+00 0.  1.
         13    1    1    2    0    0  0.62255034080E+02  0.14973953924E+02  0.12467028654E+03  0.14015202072E+03  0.00000000000E+00 0. -1.
<mgrwt>
<rscale>  0 0.12809369E+03</rscale>
<asrwt>0</asrwt>
<pdfrwt beam="2">  1        3 0.24368038E-02 0.12809369E+03</pdfrwt>
<pdfrwt beam="1">  1       -3 0.39842646E-01 0.12809369E+03</pdfrwt>
<totfact> 0.98519263E+03</totfact>
</mgrwt>
</event>
<event>
 5    1  0.1270834E+001  0.9170784E+02  0.7546771E-02  0.1298768E+00
          3   -1    0    0  501    0  0.00000000000E+00  0.00000000000E+00  0.74436842892E+02  0.74436842892E+02  0.00000000000E+00 0. -1.
         -3   -1    0    0    0  501 -0.00000000000E+00 -0.00000000000E+00 -0.28246520158E+02  0.28246520158E+02  0.00000000000E+00 0.  1.
         23    2    1    2    0    0  0.00000000000E+00  0.00000000000E+00  0.46190322735E+02  0.10268336305E+03  0.91707835723E+02 0.  0.
        -13    1    3    3    0    0  0.40330878719E+02 -0.19267537106E+02  0.11634762982E+02  0.46186420884E+02  0.00000000000E+00 0.  1.
         13    1    3    3    0    0 -0.40330878719E+02  0.19267537106E+02  0.34555559752E+02  0.56496942166E+02  0.00000000000E+00 0. -1.
<mgrwt>
<rscale>  0 0.91707836E+02</rscale>
<asrwt>0</asrwt>
<pdfrwt beam="1">  1        3 0.11451822E-01 0.91707836E+02</pdfrwt>
<pdfrwt beam="2">  1       -3 0.43456185E-02 0.91707836E+02</pdfrwt>
<totfact> 0.33931842E+04</totfact>
</mgrwt>
</event>
<event>
 5    1  0.1270834E+001  0.9093302E+02  0.7546771E-02  0.1300608E+00
         -1   -1    0    0    0  501 -0.00000000000E+00  0.00000000000E+00  0.24077057742E+02  0.24077057742E+02  0.00000000000E+00 0.  1.
          1   -1    0    0  501    0  0.00000000000E+00 -0.00000000000E+00 -0.85857814645E+02  0.85857814645E+02  0.00000000000E+00 0. -1.
         23    2    1    2    0    0  0.00000000000E+00  0.00000000000E+00 -0.61780756903E+02  0.10993487239E+03  0.90933020643E+02 0.  0.
        -13    1    3    3    0    0 -0.15371413452E+02  0.40616650716E+02 -0.14615940077E+02  0.45821592849E+02  0.00000000000E+00 0.  1.
         13    1    3    3    0    0  0.15371413452E+02 -0.40616650716E+02 -0.47164816827E+02  0.64113279538E+02  0.00000000000E+00 0. -1.
<mgrwt>
<rscale>  0 0.90933021E+02</rscale>
<asrwt>0</asrwt>
<pdfrwt beam="2">  1        1 0.13208894E-01 0.90933021E+02</pdfrwt>
<pdfrwt beam="1">  1       -1 0.37041628E-02 0.90933021E+02</pdfrwt>
<totfact> 0.10263297E+05</totfact>
</mgrwt>
</event>
<event>
 5    1  0.1270834E+001  0.9009672E+02  0.7546771E-02  0.1302618E+00
         -1   -1    0    0    0  501 -0.00000000000E+00  0.00000000000E+00  0.53762004437E+01  0.53762004437E+01  0.00000000000E+00 0.  1.
          1   -1    0    0  501    0  0.00000000000E+00 -0.00000000000E+00 -0.37747003821E+03  0.37747003821E+03  0.00000000000E+00 0. -1.
         23    2    1    2    0    0  0.00000000000E+00  0.00000000000E+00 -0.37209383776E+03  0.38284623865E+03  0.90096716630E+02 0.  0.
        -11    1    3    3    0    0  0.33801994424E+02  0.27172593518E+02 -0.13427715921E+03  0.14110733557E+03  0.00000000000E+00 0. -1.
         11    1    3    3    0    0 -0.33801994424E+02 -0.27172593518E+02 -0.23781667855E+03  0.24173890308E+03  0.00000000000E+00 0.  1.
<mgrwt>
<rscale>  0 0.90096717E+02</rscale>
<asrwt>0</asrwt>
<pdfrwt beam="2">  1        1 0.58072318E-01 0.90096717E+02</pdfrwt>
<pdfrwt beam="1">  1       -1 0.82710770E-03 0.90096717E+02</pdfrwt>
<totfact> 0.13787816E+05</totfact>
</mgrwt>
</event>
<event>
 5    1  0.1270834E+001  0.8640820E+02  0.7546771E-02  0.1311790E+00
         -1   -1    0    0    0  501 -0.00000000000E+00  0.00000000000E+00  0.97492615579E+01  0.97492615579E+01  0.00000000000E+00 0.  1.
          1   -1    0    0  501    0  0.00000000000E+00 -0.00000000000E+00 -0.19146005357E+03  0.19146005357E+03  0.00000000000E+00 0. -1.
         23    2    1    2    0    0  0.00000000000E+00  0.00000000000E+00 -0.18171079201E+03  0.20120931513E+03  0.86408197299E+02 0.  0.
        -11    1    3    3    0    0 -0.15653766508E+02  0.29498212656E+02 -0.15468635769E+03  0.15824997382E+03  0.00000000000E+00 0. -1.
         11    1    3    3    0    0  0.15653766508E+02 -0.29498212656E+02 -0.27024434315E+02  0.42959341310E+02  0.00000000000E+00 0.  1.
<mgrwt>
<rscale>  0 0.86408197E+02</rscale>
<asrwt>0</asrwt>
<pdfrwt beam="2">  1        1 0.29455389E-01 0.86408197E+02</pdfrwt>
<pdfrwt beam="1">  1       -1 0.14998866E-02 0.86408197E+02</pdfrwt>
<totfact> 0.13554948E+05</totfact>
</mgrwt>
</event>
<event>
 5    1  0.1270834E+001  0.9107283E+02  0.7546771E-02  0.1300274E+00
          1   -1    0    0  501    0  0.00000000000E+00  0.00000000000E+00  0.12239460532E+03  0.12239460532E+03  0.00000000000E+00 0. -1.
         -1   -1    0    0    0  501 -0.00000000000E+00 -0.00000000000E+00 -0.16941637957E+02  0.16941637957E+02  0.00000000000E+00 0.  1.
         23    2    1    2    0    0  0.00000000000E+00  0.00000000000E+00  0.10545296736E+03  0.13933624328E+03  0.91072830005E+02 0.  0.
        -13    1    3    3    0    0 -0.20824549620E+02  0.39657903572E+02  0.40188984640E+02  0.60179445569E+02  0.00000000000E+00 0. -1.
         13    1    3    3    0    0  0.20824549620E+02 -0.39657903572E+02  0.65263982723E+02  0.79156797709E+02  0.00000000000E+00 0.  1.
<mgrwt>
<rscale>  0 0.91072830E+02</rscale>
<asrwt>0</asrwt>
<pdfrwt beam="1">  1        1 0.18829939E-01 0.91072830E+02</pdfrwt>
<pdfrwt beam="2">  1       -1 0.26064059E-02 0.91072830E+02</pdfrwt>
<totfact> 0.10844580E+05</totfact>
</mgrwt>
</event>
<event>
 5    1  0.1270834E+001  0.9757454E+02  0.7546771E-02  0.1285481E+00
          1   -1    0    0  501    0  0.00000000000E+00  0.00000000000E+00  0.26374982178E+02  0.26374982178E+02  0.00000000000E+00 0. -1.
         -1   -1    0    0    0  501 -0.00000000000E+00 -0.00000000000E+00 -0.90244526282E+02  0.90244526282E+02  0.00000000000E+00 0.  1.
         23    2    1    2    0    0  0.00000000000E+00  0.00000000000E+00 -0.63869544104E+02  0.11661950846E+03  0.97574541194E+02 0.  0.
        -13    1    3    3    0    0 -0.45627456325E+02 -0.14385520243E+02 -0.43360491960E+02  0.64567330953E+02  0.00000000000E+00 0.  1.
         13    1    3    3    0    0  0.45627456325E+02  0.14385520243E+02 -0.20509052145E+02  0.52052177507E+02  0.00000000000E+00 0. -1.
<mgrwt>
<rscale>  0 0.97574541E+02</rscale>
<asrwt>0</asrwt>
<pdfrwt beam="1">  1        1 0.40576895E-02 0.97574541E+02</pdfrwt>
<pdfrwt beam="2">  1       -1 0.13883773E-01 0.97574541E+02</pdfrwt>
<totfact> 0.69629994E+04</totfact>
</mgrwt>
</event>
<event>
 5    1  0.1270834E+001  0.1111720E+03  0.7546771E-02  0.1258415E+00
         -2   -1    0    0    0  501 -0.00000000000E+00  0.00000000000E+00  0.12492211347E+02  0.12492211347E+02  0.00000000000E+00 0.  1.
          2   -1    0    0  501    0  0.00000000000E+00 -0.00000000000E+00 -0.24733854785E+03  0.24733854785E+03  0.00000000000E+00 0. -1.
         23    2    1    2    0    0  0.00000000000E+00  0.00000000000E+00 -0.23484633650E+03  0.25983075920E+03  0.11117203631E+03 0.  0.
        -13    1    3    3    0    0 -0.52007958948E+01 -0.47639743368E+02 -0.51598354905E+02  0.70420051512E+02  0.00000000000E+00 0.  1.
         13    1    3    3    0    0  0.52007958948E+01  0.47639743368E+02 -0.18324798160E+03  0.18941070769E+03  0.00000000000E+00 0. -1.
<mgrwt>
<rscale>  0 0.11117204E+03</rscale>
<asrwt>0</asrwt>
<pdfrwt beam="2">  1        2 0.38052080E-01 0.11117204E+03</pdfrwt>
<pdfrwt beam="1">  1       -2 0.19218789E-02 0.11117204E+03</pdfrwt>
<totfact> 0.97677567E+04</totfact>
</mgrwt>
</event>
<event>
 5    1  0.1270834E+001  0.8825760E+02  0.7546771E-02  0.1307127E+00
         -2   -1    0    0    0  501 -0.00000000000E+00  0.00000000000E+00  0.92756579573E+02  0.92756579573E+02  0.00000000000E+00 0.  1.
          2   -1    0    0  501    0  0.00000000000E+00 -0.00000000000E+00 -0.20994207080E+02  0.20994207080E+02  0.00000000000E+00 0. -1.
         23    2    1    2    0    0  0.00000000000E+00  0.00000000000E+00  0.71762372493E+02  0.11375078665E+03  0.88257596604E+02 0.  0.
        -11    1    3    3    0    0  0.23093658537E+02  0.37603634911E+02  0.35854884061E+02  0.56858799971E+02  0.00000000000E+00 0. -1.
         11    1    3    3    0    0 -0.23093658537E+02 -0.37603634911E+02  0.35907488433E+02  0.56891986683E+02  0.00000000000E+00 0.  1.
<mgrwt>
<rscale>  0 0.88257597E+02</rscale>
<asrwt>0</asrwt>
<pdfrwt beam="2">  1        2 0.32298781E-02 0.88257597E+02</pdfrwt>
<pdfrwt beam="1">  1       -2 0.14270243E-01 0.88257597E+02</pdfrwt>
<totfact> 0.88440383E+04</totfact>
</mgrwt>
</event>
<event>
 5    1  0.1270834E+001  0.7699189E+02  0.7546771E-02  0.1337811E+00
          2   -1    0    0  501    0  0.00000000000E+00  0.00000000000E+00  0.11067489549E+03  0.11067489549E+03  0.00000000000E+00 0. -1.
         -2   -1    0    0    0  501 -0.00000000000E+00 -0.00000000000E+00 -0.13390006933E+02  0.13390006933E+02  0.00000000000E+00 0.  1.
         23    2    1    2    0    0  0.00000000000E+00  0.00000000000E+00  0.97284888554E+02  0.12406490242E+03  0.76991885750E+02 0.  0.
        -11    1    3    3    0    0  0.14710381006E+02  0.30537363032E+02  0.78048296582E+02  0.85090906974E+02  0.00000000000E+00 0. -1.
         11    1    3    3    0    0 -0.14710381006E+02 -0.30537363032E+02  0.19236591972E+02  0.38973995446E+02  0.00000000000E+00 0.  1.
<mgrwt>
<rscale>  0 0.76991886E+02</rscale>
<asrwt>0</asrwt>
<pdfrwt beam="1">  1        2 0.17026906E-01 0.76991886E+02</pdfrwt>
<pdfrwt beam="2">  1       -2 0.20600011E-02 0.76991886E+02</pdfrwt>
<totfact> 0.20012570E+05</totfact>
</mgrwt>
</event>
<event>
 5    1  0.1270834E+001  0.9117647E+02  0.7546771E-02  0.1300027E+00
          3   -1    0    0  501    0  0.00000000000E+00  0.00000000000E+00  0.66044962251E+02  0.66044962251E+02  0.00000000000E+00 0. -1.
         -3   -1    0    0    0  501 -0.00000000000E+00 -0.00000000000E+00 -0.31467759881E+02  0.31467759881E+02  0.00000000000E+00 0.  1.
         23    2    1    2    0    0  0.00000000000E+00  0.00000000000E+00  0.34577202370E+02  0.97512722133E+02  0.91176466558E+02 0.  0.
        -11    1    3    3    0    0 -0.39982753723E+02 -0.20303930327E+02  0.85072227951E+01  0.45642557134E+02  0.00000000000E+00 0.  1.
         11    1    3    3    0    0  0.39982753723E+02  0.20303930327E+02  0.26069979575E+02  0.51870164999E+02  0.00000000000E+00 0. -1.
<mgrwt>
<rscale>  0 0.91176467E+02</rscale>
<asrwt>0</asrwt>
<pdfrwt beam="1">  1        3 0.10160763E-01 0.91176467E+02</pdfrwt>
<pdfrwt beam="2">  1       -3 0.48411938E-02 0.91176467E+02</pdfrwt>
<totfact> 0.34856872E+04</totfact>
</mgrwt>
</event>
<event>
 5    1  0.1270834E+001  0.9161428E+02  0.7546771E-02  0.1298989E+00
         -2   -1    0    0    0  501 -0.00000000000E+00  0.00000000000E+00  0.97955023887E+02  0.97955023887E+02  0.00000000000E+00 0.  1.
          2   -1    0    0  501    0  0.00000000000E+00 -0.00000000000E+00 -0.21420994992E+02  0.21420994992E+02  0.00000000000E+00 0. -1.
         23    2    1    2    0    0  0.00000000000E+00  0.00000000000E+00  0.76534028894E+02  0.11937601888E+03  0.91614280026E+02 0.  0.
        -11    1    3    3    0    0  0.27735803156E+02  0.36286973174E+02  0.42832242718E+02  0.62614856186E+02  0.00000000000E+00 0.  1.
         11    1    3    3    0    0 -0.27735803156E+02 -0.36286973174E+02  0.33701786176E+02  0.56761162693E+02  0.00000000000E+00 0. -1.
<mgrwt>
<rscale>  0 0.91614280E+02</rscale>
<asrwt>0</asrwt>
<pdfrwt beam="2">  1        2 0.32955378E-02 0.91614280E+02</pdfrwt>
<pdfrwt beam="1">  1       -2 0.15070003E-01 0.91614280E+02</pdfrwt>
<totfact> 0.79347200E+04</totfact>
</mgrwt>
</event>
<event>
 5    1  0.1270834E+001  0.9190453E+02  0.7546771E-02  0.1298304E+00
         -1   -1    0    0    0  501 -0.00000000000E+00  0.00000000000E+00  0.33533888065E+02  0.33533888065E+02  0.00000000000E+00 0.  1.
          1   -1    0    0  501    0  0.00000000000E+00 -0.00000000000E+00 -0.62969457064E+02  0.62969457064E+02  0.00000000000E+00 0. -1.
         23    2    1    2    0    0  0.00000000000E+00  0.00000000000E+00 -0.29435568999E+02  0.96503345130E+02  0.91904531439E+02 0.  0.
        -13    1    3    3    0    0  0.45482003350E+02  0.21262971995E+00 -0.21599577580E+02  0.50350765553E+02  0.00000000000E+00 0.  1.
         13    1    3    3    0    0 -0.45482003350E+02 -0.21262971995E+00 -0.78359914186E+01  0.46152579577E+02  0.00000000000E+00 0. -1.
<mgrwt>
<rscale>  0 0.91904531E+02</rscale>
<asrwt>0</asrwt>
<pdfrwt beam="2">  1        1 0.96876087E-02 0.91904531E+02</pdfrwt>
<pdfrwt beam="1">  1       -1 0.51590597E-02 0.91904531E+02</pdfrwt>
<totfact> 0.94963556E+04</totfact>
</mgrwt>
</event>
<event>
 5    1  0.1270834E+001  0.9147179E+02  0.7546771E-02  0.1299326E+00
          1   -1    0    0  501    0  0.00000000000E+00  0.00000000000E+00  0.65382089666E+02  0.65382089666E+02  0.00000000000E+00 0. -1.
         -1   -1    0    0    0  501 -0.00000000000E+00 -0.00000000000E+00 -0.31993044114E+02  0.31993044114E+02  0.00000000000E+00 0.  1.
         23    2    1    2    0    0  0.00000000000E+00  0.00000000000E+00  0.33389045552E+02  0.97375133779E+02  0.91471789726E+02 0.  0.
        -13    1    3    3    0    0 -0.25186771631E+02 -0.36076385341E+02  0.34030151085E+01  0.44130030096E+02  0.00000000000E+00 0. -1.
         13    1    3    3    0    0  0.25186771631E+02  0.36076385341E+02  0.29986030444E+02  0.53245103683E+02  0.00000000000E+00 0.  1.
<mgrwt>
<rscale>  0 0.91471790E+02</rscale>
<asrwt>0</asrwt>
<pdfrwt beam="1">  1        1 0.10058783E-01 0.91471790E+02</pdfrwt>
<pdfrwt beam="2">  1       -1 0.49220068E-02 0.91471790E+02</pdfrwt>
<totfact> 0.96769259E+04</totfact>
</mgrwt>
</event>
<event>
 5    1  0.1270834E+001  0.8958819E+02  0.7546771E-02  0.1303852E+00
          2   -1    0    0  501    0  0.00000000000E+00  0.00000000000E+00  0.32101159815E+03  0.32101159815E+03  0.00000000000E+00 0. -1.
         -2   -1    0    0    0  501 -0.00000000000E+00 -0.00000000000E+00 -0.62505864724E+01  0.62505864724E+01  0.00000000000E+00 0.  1.
         23    2    1    2    0    0  0.00000000000E+00  0.00000000000E+00  0.31476101167E+03  0.32726218462E+03  0.89588185669E+02 0.  0.
        -11    1    3    3    0    0  0.42713384310E+02 -0.76421724529E+01  0.11675623199E+03  0.12455863562E+03  0.00000000000E+00 0.  1.
         11    1    3    3    0    0 -0.42713384310E+02  0.76421724529E+01  0.19800477969E+03  0.20270354900E+03  0.00000000000E+00 0. -1.
<mgrwt>
<rscale>  0 0.89588186E+02</rscale>
<asrwt>0</asrwt>
<pdfrwt beam="1">  1        2 0.49386387E-01 0.89588186E+02</pdfrwt>
<pdfrwt beam="2">  1       -2 0.96162894E-03 0.89588186E+02</pdfrwt>
<totfact> 0.19305702E+05</totfact>
</mgrwt>
</event>
<event>
 5    1  0.1270834E+001  0.8627063E+02  0.7546771E-02  0.1312143E+00
         -1   -1    0    0    0  501 -0.00000000000E+00  0.00000000000E+00  0.17320878532E+03  0.17320878532E+03  0.00000000000E+00 0.  1.
          1   -1    0    0  501    0  0.00000000000E+00 -0.00000000000E+00 -0.10742269044E+02  0.10742269044E+02  0.00000000000E+00 0. -1.
         23    2    1    2    0    0  0.00000000000E+00  0.00000000000E+00  0.16246651628E+03  0.18395105436E+03  0.86270629363E+02 0.  0.
        -13    1    3    3    0    0 -0.26982173057E+02  0.10352676288E+02  0.14951339778E+03  0.15228089731E+03  0.00000000000E+00 0.  1.
         13    1    3    3    0    0  0.26982173057E+02 -0.10352676288E+02  0.12953118496E+02  0.31670157056E+02  0.00000000000E+00 0. -1.
<mgrwt>
<rscale>  0 0.86270629E+02</rscale>
<asrwt>0</asrwt>
<pdfrwt beam="2">  1        1 0.16526569E-02 0.86270629E+02</pdfrwt>
<pdfrwt beam="1">  1       -1 0.26647503E-01 0.86270629E+02</pdfrwt>
<totfact> 0.83333696E+04</totfact>
</mgrwt>
</event>
<event>
 5    1  0.1270834E+001  0.9322497E+02  0.7546771E-02  0.1295225E+00
          3   -1    0    0  501    0  0.00000000000E+00  0.00000000000E+00  0.10651834592E+03  0.10651834592E+03  0.00000000000E+00 0. -1.
         -3   -1    0    0    0  501 -0.00000000000E+00 -0.00000000000E+00 -0.20397648426E+02  0.20397648426E+02  0.00000000000E+00 0.  1.
         23    2    1    2    0    0  0.00000000000E+00  0.00000000000E+00  0.86120697492E+02  0.12691599434E+03  0.93224970281E+02 0.  0.
        -13    1    3    3    0    0  0.33462609857E+01  0.40388007087E+02  0.11708776395E+02  0.42183930871E+02  0.00000000000E+00 0.  1.
         13    1    3    3    0    0 -0.33462609857E+01 -0.40388007087E+02  0.74411921097E+02  0.84732063473E+02  0.00000000000E+00 0. -1.
<mgrwt>
<rscale>  0 0.93224970E+02</rscale>
<asrwt>0</asrwt>
<pdfrwt beam="1">  1        3 0.16387438E-01 0.93224970E+02</pdfrwt>
<pdfrwt beam="2">  1       -3 0.31380998E-02 0.93224970E+02</pdfrwt>
<totfact> 0.30856533E+04</totfact>
</mgrwt>
</event>
<event>
 5    1  0.1270834E+001  0.8824228E+02  0.7546771E-02  0.1307165E+00
          4   -1    0    0  501    0  0.00000000000E+00  0.00000000000E+00  0.71008350869E+02  0.71008350869E+02  0.00000000000E+00 0.  1.
         -4   -1    0    0    0  501 -0.00000000000E+00 -0.00000000000E+00 -0.27414734668E+02  0.27414734668E+02  0.00000000000E+00 0. -1.
         23    2    1    2    0    0  0.00000000000E+00  0.00000000000E+00  0.43593616201E+02  0.98423085537E+02  0.88242282343E+02 0.  0.
        -11    1    3    3    0    0 -0.24653349386E+02 -0.99130622569E+01 -0.17489335330E+02  0.31810898911E+02  0.00000000000E+00 0. -1.
         11    1    3    3    0    0  0.24653349386E+02  0.99130622569E+01  0.61082951531E+02  0.66612186625E+02  0.00000000000E+00 0.  1.
<mgrwt>
<rscale>  0 0.88242282E+02</rscale>
<asrwt>0</asrwt>
<pdfrwt beam="1">  1        4 0.10924362E-01 0.88242282E+02</pdfrwt>
<pdfrwt beam="2">  1       -4 0.42176515E-02 0.88242282E+02</pdfrwt>
<totfact> 0.29008841E+04</totfact>
</mgrwt>
</event>
<event>
 5    1  0.1270834E+001  0.1119737E+03  0.7546771E-02  0.1256958E+00
          2   -1    0    0  501    0  0.00000000000E+00  0.00000000000E+00  0.21508741873E+03  0.21508741873E+03  0.00000000000E+00 0. -1.
         -2   -1    0    0    0  501 -0.00000000000E+00 -0.00000000000E+00 -0.14573265006E+02  0.14573265006E+02  0.00000000000E+00 0.  1.
         23    2    1    2    0    0  0.00000000000E+00  0.00000000000E+00  0.20051415372E+03  0.22966068373E+03  0.11197367463E+03 0.  0.
        -13    1    3    3    0    0  0.29966096521E+02 -0.18799758259E+02  0.11252845308E+02  0.37121750751E+02  0.00000000000E+00 0.  1.
         13    1    3    3    0    0 -0.29966096521E+02  0.18799758259E+02  0.18926130842E+03  0.19253893298E+03  0.00000000000E+00 0. -1.
<mgrwt>
<rscale>  0 0.11197367E+03</rscale>
<asrwt>0</asrwt>
<pdfrwt beam="1">  1        2 0.33090370E-01 0.11197367E+03</pdfrwt>
<pdfrwt beam="2">  1       -2 0.22420409E-02 0.11197367E+03</pdfrwt>
<totfact> 0.90785607E+04</totfact>
</mgrwt>
</event>
<event>
 5    1  0.1270834E+001  0.8943809E+02  0.7546771E-02  0.1304218E+00
         -3   -1    0    0    0  501 -0.00000000000E+00  0.00000000000E+00  0.92131764326E+02  0.92131764326E+02  0.00000000000E+00 0.  1.
          3   -1    0    0  501    0  0.00000000000E+00 -0.00000000000E+00 -0.21705792912E+02  0.21705792912E+02  0.00000000000E+00 0. -1.
         23    2    1    2    0    0  0.00000000000E+00  0.00000000000E+00  0.70425971414E+02  0.11383755724E+03  0.89438090254E+02 0.  0.
        -13    1    3    3    0    0  0.40214178875E+02 -0.59819437941E+01  0.58916942921E+02  0.71583308091E+02  0.00000000000E+00 0.  1.
         13    1    3    3    0    0 -0.40214178875E+02  0.59819437941E+01  0.11509028493E+02  0.42254249147E+02  0.00000000000E+00 0. -1.
<mgrwt>
<rscale>  0 0.89438090E+02</rscale>
<asrwt>0</asrwt>
<pdfrwt beam="2">  1        3 0.33393528E-02 0.89438090E+02</pdfrwt>
<pdfrwt beam="1">  1       -3 0.14174117E-01 0.89438090E+02</pdfrwt>
<totfact> 0.35479035E+04</totfact>
</mgrwt>
</event>
<event>
 5    1  0.1270834E+001  0.9096544E+02  0.7546771E-02  0.1300530E+00
         -1   -1    0    0    0  501 -0.00000000000E+00  0.00000000000E+00  0.56289747035E+02  0.56289747035E+02  0.00000000000E+00 0.  1.
          1   -1    0    0  501    0  0.00000000000E+00 -0.00000000000E+00 -0.36750528786E+02  0.36750528786E+02  0.00000000000E+00 0. -1.
         23    2    1    2    0    0  0.00000000000E+00  0.00000000000E+00  0.19539218249E+02  0.93040275822E+02  0.90965443302E+02 0.  0.
        -11    1    3    3    0    0  0.20433322805E+02 -0.35516630269E+02  0.29961378866E+02  0.50760574564E+02  0.00000000000E+00 0.  1.
         11    1    3    3    0    0 -0.20433322805E+02  0.35516630269E+02 -0.10422160617E+02  0.42279701258E+02  0.00000000000E+00 0. -1.
<mgrwt>
<rscale>  0 0.90965443E+02</rscale>
<asrwt>0</asrwt>
<pdfrwt beam="2">  1        1 0.56539275E-02 0.90965443E+02</pdfrwt>
<pdfrwt beam="1">  1       -1 0.86599611E-02 0.90965443E+02</pdfrwt>
<totfact> 0.90088328E+04</totfact>
</mgrwt>
</event>
<event>
 5    1  0.1270834E+001  0.9128921E+02  0.7546771E-02  0.1299759E+00
          2   -1    0    0  501    0  0.00000000000E+00  0.00000000000E+00  0.15572516725E+03  0.15572516725E+03  0.00000000000E+00 0. -1.
         -2   -1    0    0    0  501 -0.00000000000E+00 -0.00000000000E+00 -0.13378890796E+02  0.13378890796E+02  0.00000000000E+00 0.  1.
         23    2    1    2    0    0  0.00000000000E+00  0.00000000000E+00  0.14234627646E+03  0.16910405805E+03  0.91289210904E+02 0.  0.
        -13    1    3    3    0    0  0.16487778781E+02  0.27688052699E+02  0.13105335295E+03  0.13495723927E+03  0.00000000000E+00 0. -1.
         13    1    3    3    0    0 -0.16487778781E+02 -0.27688052699E+02  0.11292923505E+02  0.34146818779E+02  0.00000000000E+00 0.  1.
<mgrwt>
<rscale>  0 0.91289211E+02</rscale>
<asrwt>0</asrwt>
<pdfrwt beam="1">  1        2 0.23957717E-01 0.91289211E+02</pdfrwt>
<pdfrwt beam="2">  1       -2 0.20582910E-02 0.91289211E+02</pdfrwt>
<totfact> 0.14113782E+05</totfact>
</mgrwt>
</event>
<event>
 5    1  0.1270834E+001  0.8695740E+02  0.7546771E-02  0.1310392E+00
         -2   -1    0    0    0  501 -0.00000000000E+00  0.00000000000E+00  0.47333823562E+02  0.47333823562E+02  0.00000000000E+00 0. -1.
          2   -1    0    0  501    0  0.00000000000E+00 -0.00000000000E+00 -0.39937561075E+02  0.39937561075E+02  0.00000000000E+00 0.  1.
         23    2    1    2    0    0  0.00000000000E+00  0.00000000000E+00  0.73962624876E+01  0.87271384637E+02  0.86957402661E+02 0.  0.
        -11    1    3    3    0    0  0.28886945276E+02  0.11588359415E+02 -0.26770205170E+02  0.41053496394E+02  0.00000000000E+00 0.  1.
         11    1    3    3    0    0 -0.28886945276E+02 -0.11588359415E+02  0.34166467658E+02  0.46217888242E+02  0.00000000000E+00 0. -1.
<mgrwt>
<rscale>  0 0.86957403E+02</rscale>
<asrwt>0</asrwt>
<pdfrwt beam="2">  1        2 0.61442402E-02 0.86957403E+02</pdfrwt>
<pdfrwt beam="1">  1       -2 0.72821267E-02 0.86957403E+02</pdfrwt>
<totfact> 0.10929104E+05</totfact>
</mgrwt>
</event>
<event>
 5    1  0.1270834E+001  0.9051484E+02  0.7546771E-02  0.1301610E+00
         -1   -1    0    0    0  501 -0.00000000000E+00  0.00000000000E+00  0.25789724547E+02  0.25789724547E+02  0.00000000000E+00 0.  1.
          1   -1    0    0  501    0  0.00000000000E+00 -0.00000000000E+00 -0.79420544653E+02  0.79420544653E+02  0.00000000000E+00 0. -1.
         23    2    1    2    0    0  0.00000000000E+00  0.00000000000E+00 -0.53630820107E+02  0.10521026920E+03  0.90514837899E+02 0.  0.
        -11    1    3    3    0    0 -0.26983052042E+02 -0.11896325859E+02  0.13089507548E+02  0.32263646326E+02  0.00000000000E+00 0.  1.
         11    1    3    3    0    0  0.26983052042E+02  0.11896325859E+02 -0.66720327654E+02  0.72946622874E+02  0.00000000000E+00 0. -1.
<mgrwt>
<rscale>  0 0.90514838E+02</rscale>
<asrwt>0</asrwt>
<pdfrwt beam="2">  1        1 0.12218545E-01 0.90514838E+02</pdfrwt>
<pdfrwt beam="1">  1       -1 0.39676500E-02 0.90514838E+02</pdfrwt>
<totfact> 0.10266001E+05</totfact>
</mgrwt>
</event>
<event>
 5    1  0.1270834E+001  0.9611699E+02  0.7546771E-02  0.1288680E+00
         -1   -1    0    0    0  501 -0.00000000000E+00  0.00000000000E+00  0.54845632128E+02  0.54845632128E+02  0.00000000000E+00 0.  1.
          1   -1    0    0  501    0  0.00000000000E+00 -0.00000000000E+00 -0.42111265341E+02  0.42111265341E+02  0.00000000000E+00 0. -1.
         23    2    1    2    0    0  0.00000000000E+00  0.00000000000E+00  0.12734366787E+02  0.96956897469E+02  0.96116990534E+02 0.  0.
        -11    1    3    3    0    0  0.39832507922E+02 -0.22388247011E+02  0.21388807735E+02  0.50451396292E+02  0.00000000000E+00 0.  1.
         11    1    3    3    0    0 -0.39832507922E+02  0.22388247011E+02 -0.86544409481E+01  0.46505501176E+02  0.00000000000E+00 0. -1.
<mgrwt>
<rscale>  0 0.96116991E+02</rscale>
<asrwt>0</asrwt>
<pdfrwt beam="2">  1        1 0.64786562E-02 0.96116991E+02</pdfrwt>
<pdfrwt beam="1">  1       -1 0.84377895E-02 0.96116991E+02</pdfrwt>
<totfact> 0.78687861E+04</totfact>
</mgrwt>
</event>
<event>
 5    1  0.1270834E+001  0.8569134E+02  0.7546771E-02  0.1313634E+00
         -1   -1    0    0    0  501 -0.00000000000E+00  0.00000000000E+00  0.11683538601E+03  0.11683538601E+03  0.00000000000E+00 0.  1.
          1   -1    0    0  501    0  0.00000000000E+00 -0.00000000000E+00 -0.15712290846E+02  0.15712290846E+02  0.00000000000E+00 0. -1.
         23    2    1    2    0    0  0.00000000000E+00  0.00000000000E+00  0.10112309516E+03  0.13254767685E+03  0.85691342994E+02 0.  0.
        -13    1    3    3    0    0  0.20263896090E+02 -0.37237781077E+02  0.40967157233E+02  0.58954099061E+02  0.00000000000E+00 0.  1.
         13    1    3    3    0    0 -0.20263896090E+02  0.37237781077E+02  0.60155937929E+02  0.73593577793E+02  0.00000000000E+00 0. -1.
<mgrwt>
<rscale>  0 0.85691343E+02</rscale>
<asrwt>0</asrwt>
<pdfrwt beam="2">  1        1 0.24172756E-02 0.85691343E+02</pdfrwt>
<pdfrwt beam="1">  1       -1 0.17974674E-01 0.85691343E+02</pdfrwt>
<totfact> 0.92657004E+04</totfact>
</mgrwt>
</event>
<event>
 5    1  0.1270834E+001  0.9014690E+02  0.7546771E-02  0.1302496E+00
         -2   -1    0    0    0  501 -0.00000000000E+00  0.00000000000E+00  0.40993748814E+02  0.40993748814E+02  0.00000000000E+00 0.  1.
          2   -1    0    0  501    0  0.00000000000E+00 -0.00000000000E+00 -0.49559167313E+02  0.49559167313E+02  0.00000000000E+00 0. -1.
         23    2    1    2    0    0  0.00000000000E+00  0.00000000000E+00 -0.85654184992E+01  0.90552916128E+02  0.90146903580E+02 0.  0.
        -11    1    3    3    0    0 -0.19236450506E+02 -0.40548046086E+02 -0.88861946919E-01  0.44879761206E+02  0.00000000000E+00 0.  1.
         11    1    3    3    0    0  0.19236450506E+02  0.40548046086E+02 -0.84765565522E+01  0.45673154921E+02  0.00000000000E+00 0. -1.
<mgrwt>
<rscale>  0 0.90146904E+02</rscale>
<asrwt>0</asrwt>
<pdfrwt beam="2">  1        2 0.76244872E-02 0.90146904E+02</pdfrwt>
<pdfrwt beam="1">  1       -2 0.63067306E-02 0.90146904E+02</pdfrwt>
<totfact> 0.10416034E+05</totfact>
</mgrwt>
</event>
<event>
 5    1  0.1270834E+001  0.9299140E+02  0.7546771E-02  0.1295765E+00
         -3   -1    0    0    0  501 -0.00000000000E+00  0.00000000000E+00  0.15362789756E+02  0.15362789756E+02  0.00000000000E+00 0.  1.
          3   -1    0    0  501    0  0.00000000000E+00 -0.00000000000E+00 -0.14071988596E+03  0.14071988596E+03  0.00000000000E+00 0. -1.
         23    2    1    2    0    0  0.00000000000E+00  0.00000000000E+00 -0.12535709621E+03  0.15608267572E+03  0.92991397935E+02 0.  0.
        -13    1    3    3    0    0 -0.22670381780E+02 -0.61000871494E+01  0.46839643472E+01  0.23939440162E+02  0.00000000000E+00 0.  1.
         13    1    3    3    0    0  0.22670381780E+02  0.61000871494E+01 -0.13004106055E+03  0.13214323556E+03  0.00000000000E+00 0. -1.
<mgrwt>
<rscale>  0 0.92991398E+02</rscale>
<asrwt>0</asrwt>
<pdfrwt beam="2">  1        3 0.21649212E-01 0.92991398E+02</pdfrwt>
<pdfrwt beam="1">  1       -3 0.23635063E-02 0.92991398E+02</pdfrwt>
<totfact> 0.29327813E+04</totfact>
</mgrwt>
</event>
<event>
 5    1  0.1270834E+001  0.8798322E+02  0.7546771E-02  0.1307810E+00
          2   -1    0    0  501    0  0.00000000000E+00  0.00000000000E+00  0.37752403811E+02  0.37752403811E+02  0.00000000000E+00 0. -1.
         -2   -1    0    0    0  501 -0.00000000000E+00 -0.00000000000E+00 -0.51261949346E+02  0.51261949346E+02  0.00000000000E+00 0.  1.
         23    2    1    2    0    0  0.00000000000E+00  0.00000000000E+00 -0.13509545535E+02  0.89014353157E+02  0.87983221397E+02 0.  0.
        -13    1    3    3    0    0  0.80111020828E+00 -0.18260614127E+02  0.33728806640E+02  0.38363057793E+02  0.00000000000E+00 0. -1.
         13    1    3    3    0    0 -0.80111020828E+00  0.18260614127E+02 -0.47238352175E+02  0.50651295364E+02  0.00000000000E+00 0.  1.
<mgrwt>
<rscale>  0 0.87983221E+02</rscale>
<asrwt>0</asrwt>
<pdfrwt beam="1">  1        2 0.58080621E-02 0.87983221E+02</pdfrwt>
<pdfrwt beam="2">  1       -2 0.78864538E-02 0.87983221E+02</pdfrwt>
<totfact> 0.10419049E+05</totfact>
</mgrwt>
</event>
<event>
 5    1  0.1270834E+001  0.9895854E+02  0.7546771E-02  0.1282501E+00
          1   -1    0    0  501    0  0.00000000000E+00  0.00000000000E+00  0.64424273902E+02  0.64424273902E+02  0.00000000000E+00 0. -1.
         -1   -1    0    0    0  501 -0.00000000000E+00 -0.00000000000E+00 -0.38001179322E+02  0.38001179322E+02  0.00000000000E+00 0.  1.
         23    2    1    2    0    0  0.00000000000E+00  0.00000000000E+00  0.26423094580E+02  0.10242545322E+03  0.98958544557E+02 0.  0.
        -13    1    3    3    0    0  0.30466886804E+02  0.10964638471E+02 -0.25512334562E+02  0.41222975427E+02  0.00000000000E+00 0.  1.
         13    1    3    3    0    0 -0.30466886804E+02 -0.10964638471E+02  0.51935429142E+02  0.61202477797E+02  0.00000000000E+00 0. -1.
<mgrwt>
<rscale>  0 0.98958545E+02</rscale>
<asrwt>0</asrwt>
<pdfrwt beam="1">  1        1 0.99114267E-02 0.98958545E+02</pdfrwt>
<pdfrwt beam="2">  1       -1 0.58463353E-02 0.98958545E+02</pdfrwt>
<totfact> 0.77549305E+04</totfact>
</mgrwt>
</event>
<event>
 5    1  0.1270834E+001  0.8960965E+02  0.7546771E-02  0.1303800E+00
         -1   -1    0    0    0  501 -0.00000000000E+00  0.00000000000E+00  0.16943466343E+02  0.16943466343E+02  0.00000000000E+00 0.  1.
          1   -1    0    0  501    0  0.00000000000E+00 -0.00000000000E+00 -0.11848061608E+03  0.11848061608E+03  0.00000000000E+00 0. -1.
         23    2    1    2    0    0  0.00000000000E+00  0.00000000000E+00 -0.10153714973E+03  0.13542408242E+03  0.89609649720E+02 0.  0.
        -13    1    3    3    0    0 -0.43367906217E+01  0.44176803199E+02 -0.59970518644E+02  0.74611398595E+02  0.00000000000E+00 0.  1.
         13    1    3    3    0    0  0.43367906217E+01 -0.44176803199E+02 -0.41566631089E+02  0.60812683824E+02  0.00000000000E+00 0. -1.
<mgrwt>
<rscale>  0 0.89609650E+02</rscale>
<asrwt>0</asrwt>
<pdfrwt beam="2">  1        1 0.18227788E-01 0.89609650E+02</pdfrwt>
<pdfrwt beam="1">  1       -1 0.26066870E-02 0.89609650E+02</pdfrwt>
<totfact> 0.11266869E+05</totfact>
</mgrwt>
</event>
<event>
 5    1  0.1270834E+001  0.7936529E+02  0.7546771E-02  0.1330862E+00
         -1   -1    0    0    0  501 -0.00000000000E+00  0.00000000000E+00  0.67202513919E+02  0.67202513919E+02  0.00000000000E+00 0.  1.
          1   -1    0    0  501    0  0.00000000000E+00 -0.00000000000E+00 -0.23432343049E+02  0.23432343049E+02  0.00000000000E+00 0. -1.
         23    2    1    2    0    0  0.00000000000E+00  0.00000000000E+00  0.43770170870E+02  0.90634856968E+02  0.79365291152E+02 0.  0.
        -13    1    3    3    0    0 -0.58458667089E+01 -0.38112627025E+02  0.32595880879E+02  0.50489978675E+02  0.00000000000E+00 0. -1.
         13    1    3    3    0    0  0.58458667089E+01  0.38112627025E+02  0.11174289992E+02  0.40144878293E+02  0.00000000000E+00 0.  1.
<mgrwt>
<rscale>  0 0.79365291E+02</rscale>
<asrwt>0</asrwt>
<pdfrwt beam="2">  1        1 0.36049759E-02 0.79365291E+02</pdfrwt>
<pdfrwt beam="1">  1       -1 0.10338848E-01 0.79365291E+02</pdfrwt>
<totfact> 0.12393004E+05</totfact>
</mgrwt>
</event>
<event>
 5    1  0.1270834E+001  0.9154403E+02  0.7546771E-02  0.1299155E+00
         -1   -1    0    0    0  501 -0.00000000000E+00  0.00000000000E+00  0.12718986989E+03  0.12718986989E+03  0.00000000000E+00 0.  1.
          1   -1    0    0  501    0  0.00000000000E+00 -0.00000000000E+00 -0.16472046210E+02  0.16472046210E+02  0.00000000000E+00 0. -1.
         23    2    1    2    0    0  0.00000000000E+00  0.00000000000E+00  0.11071782368E+03  0.14366191610E+03  0.91544031249E+02 0.  0.
        -13    1    3    3    0    0  0.23883315322E+02  0.25178940361E+02  0.85235539538E+01  0.35735735063E+02  0.00000000000E+00 0. -1.
         13    1    3    3    0    0 -0.23883315322E+02 -0.25178940361E+02  0.10219426973E+03  0.10792618104E+03  0.00000000000E+00 0.  1.
<mgrwt>
<rscale>  0 0.91544031E+02</rscale>
<asrwt>0</asrwt>
<pdfrwt beam="2">  1        1 0.25341610E-02 0.91544031E+02</pdfrwt>
<pdfrwt beam="1">  1       -1 0.19567672E-01 0.91544031E+02</pdfrwt>
<totfact> 0.76781532E+04</totfact>
</mgrwt>
</event>
<event>
 5    1  0.1270834E+001  0.9097915E+02  0.7546771E-02  0.1300498E+00
          2   -1    0    0  501    0  0.00000000000E+00  0.00000000000E+00  0.10589033914E+02  0.10589033914E+02  0.00000000000E+00 0. -1.
         -2   -1    0    0    0  501 -0.00000000000E+00 -0.00000000000E+00 -0.19541926812E+03  0.19541926812E+03  0.00000000000E+00 0.  1.
         23    2    1    2    0    0  0.00000000000E+00  0.00000000000E+00 -0.18483023421E+03  0.20600830203E+03  0.90979146129E+02 0.  0.
        -11    1    3    3    0    0  0.33823633458E+02  0.30377763745E+02 -0.88867566871E+02  0.99821296085E+02  0.00000000000E+00 0.  1.
         11    1    3    3    0    0 -0.33823633458E+02 -0.30377763745E+02 -0.95962667335E+02  0.10618700595E+03  0.00000000000E+00 0. -1.
<mgrwt>
<rscale>  0 0.90979146E+02</rscale>
<asrwt>0</asrwt>
<pdfrwt beam="1">  1        2 0.16290820E-02 0.90979146E+02</pdfrwt>
<pdfrwt beam="2">  1       -2 0.30064505E-01 0.90979146E+02</pdfrwt>
<totfact> 0.63292845E+04</totfact>
</mgrwt>
</event>
<event>
 5    1  0.1270834E+001  0.9050429E+02  0.7546771E-02  0.1301635E+00
         -3   -1    0    0    0  501 -0.00000000000E+00  0.00000000000E+00  0.16609681899E+02  0.16609681899E+02  0.00000000000E+00 0.  1.
          3   -1    0    0  501    0  0.00000000000E+00 -0.00000000000E+00 -0.12328692783E+03  0.12328692783E+03  0.00000000000E+00 0. -1.
         23    2    1    2    0    0  0.00000000000E+00  0.00000000000E+00 -0.10667724593E+03  0.13989660973E+03  0.90504290585E+02 0.  0.
        -11    1    3    3    0    0 -0.38688464994E+02  0.14822825467E+02 -0.25205918056E+02  0.48495894501E+02  0.00000000000E+00 0.  1.
         11    1    3    3    0    0  0.38688464994E+02 -0.14822825467E+02 -0.81471327876E+02  0.91400715229E+02  0.00000000000E+00 0. -1.
<mgrwt>
<rscale>  0 0.90504291E+02</rscale>
<asrwt>0</asrwt>
<pdfrwt beam="2">  1        3 0.18967219E-01 0.90504291E+02</pdfrwt>
<pdfrwt beam="1">  1       -3 0.25553358E-02 0.90504291E+02</pdfrwt>
<totfact> 0.32583116E+04</totfact>
</mgrwt>
</event>
<event>
 5    1  0.1270834E+001  0.9343787E+02  0.7546771E-02  0.1294734E+00
          1   -1    0    0  501    0  0.00000000000E+00  0.00000000000E+00  0.12691531715E+03  0.12691531715E+03  0.00000000000E+00 0. -1.
         -1   -1    0    0    0  501 -0.00000000000E+00 -0.00000000000E+00 -0.17197758959E+02  0.17197758959E+02  0.00000000000E+00 0.  1.
         23    2    1    2    0    0  0.00000000000E+00  0.00000000000E+00  0.10971755819E+03  0.14411307611E+03  0.93437873102E+02 0.  0.
        -11    1    3    3    0    0  0.42348545534E+01 -0.46264457768E+02  0.62465662341E+02  0.77847883834E+02  0.00000000000E+00 0.  1.
         11    1    3    3    0    0 -0.42348545534E+01  0.46264457768E+02  0.47251895848E+02  0.66265192273E+02  0.00000000000E+00 0. -1.
<mgrwt>
<rscale>  0 0.93437873E+02</rscale>
<asrwt>0</asrwt>
<pdfrwt beam="1">  1        1 0.19525433E-01 0.93437873E+02</pdfrwt>
<pdfrwt beam="2">  1       -1 0.26458092E-02 0.93437873E+02</pdfrwt>
<totfact> 0.10180298E+05</totfact>
</mgrwt>
</event>
<event>
 5    1  0.1270834E+001  0.9236702E+02  0.7546771E-02  0.1297219E+00
          1   -1    0    0  501    0  0.00000000000E+00  0.00000000000E+00  0.35621462328E+02  0.35621462328E+02  0.00000000000E+00 0. -1.
         -1   -1    0    0    0  501 -0.00000000000E+00 -0.00000000000E+00 -0.59877290427E+02  0.59877290427E+02  0.00000000000E+00 0.  1.
         23    2    1    2    0    0  0.00000000000E+00  0.00000000000E+00 -0.24255828100E+02  0.95498752755E+02  0.92367021068E+02 0.  0.
        -13    1    3    3    0    0  0.10009658623E+02  0.20300510367E+00  0.34485992468E+02  0.35909861505E+02  0.00000000000E+00 0. -1.
         13    1    3    3    0    0 -0.10009658623E+02 -0.20300510367E+00 -0.58741820567E+02  0.59588891250E+02  0.00000000000E+00 0.  1.
<mgrwt>
<rscale>  0 0.92367021E+02</rscale>
<asrwt>0</asrwt>
<pdfrwt beam="1">  1        1 0.54802251E-02 0.92367021E+02</pdfrwt>
<pdfrwt beam="2">  1       -1 0.92118906E-02 0.92367021E+02</pdfrwt>
<totfact> 0.85836537E+04</totfact>
</mgrwt>
</event>
<event>
 5    1  0.1270834E+001  0.8514540E+02  0.7546771E-02  0.1315053E+00
          1   -1    0    0  501    0  0.00000000000E+00  0.00000000000E+00  0.24382349487E+02  0.24382349487E+02  0.00000000000E+00 0. -1.
         -1   -1    0    0    0  501 -0.00000000000E+00 -0.00000000000E+00 -0.74333883147E+02  0.74333883147E+02  0.00000000000E+00 0.  1.
         23    2    1    2    0    0  0.00000000000E+00  0.00000000000E+00 -0.49951533660E+02  0.98716232635E+02  0.85145398411E+02 0.  0.
        -11    1    3    3    0    0 -0.20853831848E+02 -0.51730288503E+01  0.17635226741E+02  0.27796470144E+02  0.00000000000E+00 0. -1.
         11    1    3    3    0    0  0.20853831848E+02  0.51730288503E+01 -0.67586760401E+02  0.70919762491E+02  0.00000000000E+00 0.  1.
<mgrwt>
<rscale>  0 0.85145398E+02</rscale>
<asrwt>0</asrwt>
<pdfrwt beam="1">  1        1 0.37511308E-02 0.85145398E+02</pdfrwt>
<pdfrwt beam="2">  1       -1 0.11435982E-01 0.85145398E+02</pdfrwt>
<totfact> 0.10203687E+05</totfact>
</mgrwt>
</event>
<event>
 5    1  0.1270834E+001  0.8877213E+02  0.7546771E-02  0.1305853E+00
         -1   -1    0    0    0  501 -0.00000000000E+00  0.00000000000E+00  0.18810151747E+02  0.18810151747E+02  0.00000000000E+00 0.  1.
          1   -1    0    0  501    0  0.00000000000E+00 -0.00000000000E+00 -0.10473721391E+03  0.10473721391E+03  0.00000000000E+00 0. -1.
         23    2    1    2    0    0  0.00000000000E+00  0.00000000000E+00 -0.85927062166E+02  0.12354736566E+03  0.88772132729E+02 0.  0.
        -13    1    3    3    0    0  0.81855230434E+00  0.36569203809E+02 -0.77955275929E+02  0.86110404367E+02  0.00000000000E+00 0.  1.
         13    1    3    3    0    0 -0.81855230434E+00 -0.36569203809E+02 -0.79717862364E+01  0.37436961293E+02  0.00000000000E+00 0. -1.
<mgrwt>
<rscale>  0 0.88772133E+02</rscale>
<asrwt>0</asrwt>
<pdfrwt beam="2">  1        1 0.16113418E-01 0.88772133E+02</pdfrwt>
<pdfrwt beam="1">  1       -1 0.28938694E-02 0.88772133E+02</pdfrwt>
<totfact> 0.11318763E+05</totfact>
</mgrwt>
</event>
<event>
 5    1  0.1270834E+001  0.9303320E+02  0.7546771E-02  0.1295668E+00
          4   -1    0    0  501    0  0.00000000000E+00  0.00000000000E+00  0.18756829024E+02  0.18756829024E+02  0.00000000000E+00 0.  1.
         -4   -1    0    0    0  501 -0.00000000000E+00 -0.00000000000E+00 -0.11536034264E+03  0.11536034264E+03  0.00000000000E+00 0. -1.
         23    2    1    2    0    0  0.00000000000E+00  0.00000000000E+00 -0.96603513618E+02  0.13411717167E+03  0.93033203172E+02 0.  0.
        -11    1    3    3    0    0 -0.64109398187E+01 -0.43886774746E+02 -0.28086095622E+02  0.52497408643E+02  0.00000000000E+00 0.  1.
         11    1    3    3    0    0  0.64109398187E+01  0.43886774746E+02 -0.68517417997E+02  0.81619763023E+02  0.00000000000E+00 0. -1.
<mgrwt>
<rscale>  0 0.93033203E+02</rscale>
<asrwt>0</asrwt>
<pdfrwt beam="1">  1        4 0.28856661E-02 0.93033203E+02</pdfrwt>
<pdfrwt beam="2">  1       -4 0.17747745E-01 0.93033203E+02</pdfrwt>
<totfact> 0.23196279E+04</totfact>
</mgrwt>
</event>
<event>
 5    1  0.1270834E+001  0.9551599E+02  0.7546771E-02  0.1290018E+00
          1   -1    0    0  501    0  0.00000000000E+00  0.00000000000E+00  0.56070387764E+01  0.56070387764E+01  0.00000000000E+00 0. -1.
         -1   -1    0    0    0  501 -0.00000000000E+00 -0.00000000000E+00 -0.40677907455E+03  0.40677907455E+03  0.00000000000E+00 0.  1.
         23    2    1    2    0    0  0.00000000000E+00  0.00000000000E+00 -0.40117203577E+03  0.41238611333E+03  0.95515989121E+02 0.  0.
        -13    1    3    3    0    0 -0.17950167947E+02 -0.41475876912E+02 -0.13392791052E+03  0.14134759323E+03  0.00000000000E+00 0.  1.
         13    1    3    3    0    0  0.17950167947E+02  0.41475876912E+02 -0.26724412525E+03  0.27103852010E+03  0.00000000000E+00 0. -1.
<mgrwt>
<rscale>  0 0.95515989E+02</rscale>
<asrwt>0</asrwt>
<pdfrwt beam="1">  1        1 0.86262127E-03 0.95515989E+02</pdfrwt>
<pdfrwt beam="2">  1       -1 0.62581402E-01 0.95515989E+02</pdfrwt>
<totfact> 0.46763733E+04</totfact>
</mgrwt>
</event>
<event>
 5    1  0.1270834E+001  0.9245020E+02  0.7546771E-02  0.1297024E+00
         -3   -1    0    0    0  501 -0.00000000000E+00  0.00000000000E+00  0.38395297389E+02  0.38395297389E+02  0.00000000000E+00 0.  1.
          3   -1    0    0  501    0  0.00000000000E+00 -0.00000000000E+00 -0.55651608395E+02  0.55651608395E+02  0.00000000000E+00 0. -1.
         23    2    1    2    0    0  0.00000000000E+00  0.00000000000E+00 -0.17256311006E+02  0.94046905784E+02  0.92450203991E+02 0.  0.
        -11    1    3    3    0    0  0.43830012247E+02  0.13879071691E+02 -0.13513328435E+02  0.47919814795E+02  0.00000000000E+00 0.  1.
         11    1    3    3    0    0 -0.43830012247E+02 -0.13879071691E+02 -0.37429825707E+01  0.46127090989E+02  0.00000000000E+00 0. -1.
<mgrwt>
<rscale>  0 0.92450204E+02</rscale>
<asrwt>0</asrwt>
<pdfrwt beam="2">  1        3 0.85617859E-02 0.92450204E+02</pdfrwt>
<pdfrwt beam="1">  1       -3 0.59069688E-02 0.92450204E+02</pdfrwt>
<totfact> 0.33814355E+04</totfact>
</mgrwt>
</event>
<event>
 5    1  0.1270834E+001  0.9092495E+02  0.7546771E-02  0.1300627E+00
         -3   -1    0    0    0  501 -0.00000000000E+00  0.00000000000E+00  0.60050372706E+02  0.60050372706E+02  0.00000000000E+00 0.  1.
          3   -1    0    0  501    0  0.00000000000E+00 -0.00000000000E+00 -0.34418384180E+02  0.34418384180E+02  0.00000000000E+00 0. -1.
         23    2    1    2    0    0  0.00000000000E+00  0.00000000000E+00  0.25631988526E+02  0.94468756887E+02  0.90924953626E+02 0.  0.
        -13    1    3    3    0    0  0.25938751741E+01 -0.36443553418E+02  0.40925521419E+02  0.54861271199E+02  0.00000000000E+00 0.  1.
         13    1    3    3    0    0 -0.25938751741E+01  0.36443553418E+02 -0.15293532892E+02  0.39607485688E+02  0.00000000000E+00 0. -1.
<mgrwt>
<rscale>  0 0.90924954E+02</rscale>
<asrwt>0</asrwt>
<pdfrwt beam="2">  1        3 0.52951361E-02 0.90924954E+02</pdfrwt>
<pdfrwt beam="1">  1       -3 0.92385188E-02 0.90924954E+02</pdfrwt>
<totfact> 0.35353078E+04</totfact>
</mgrwt>
</event>
<event>
 5    1  0.1270834E+001  0.9093290E+02  0.7546771E-02  0.1300608E+00
          1   -1    0    0  501    0  0.00000000000E+00  0.00000000000E+00  0.15038192470E+03  0.15038192470E+03  0.00000000000E+00 0. -1.
         -1   -1    0    0    0  501 -0.00000000000E+00 -0.00000000000E+00 -0.13746321416E+02  0.13746321416E+02  0.00000000000E+00 0.  1.
         23    2    1    2    0    0  0.00000000000E+00  0.00000000000E+00  0.13663560328E+03  0.16412824612E+03  0.90932904322E+02 0.  0.
        -13    1    3    3    0    0 -0.23941830115E+02  0.33170393438E+02  0.32503901742E+02  0.52249304862E+02  0.00000000000E+00 0.  1.
         13    1    3    3    0    0  0.23941830115E+02 -0.33170393438E+02  0.10413170154E+03  0.11187894125E+03  0.00000000000E+00 0. -1.
<mgrwt>
<rscale>  0 0.90932904E+02</rscale>
<asrwt>0</asrwt>
<pdfrwt beam="1">  1        1 0.23135679E-01 0.90932904E+02</pdfrwt>
<pdfrwt beam="2">  1       -1 0.21148188E-02 0.90932904E+02</pdfrwt>
<totfact> 0.11299886E+05</totfact>
</mgrwt>
</event>
<event>
 5    1  0.1270834E+001  0.8993149E+02  0.7546771E-02  0.1303018E+00
          1   -1    0    0  501    0  0.00000000000E+00  0.00000000000E+00  0.25494016032E+02  0.25494016032E+02  0.00000000000E+00 0. -1.
         -1   -1    0    0    0  501 -0.00000000000E+00 -0.00000000000E+00 -0.79309524322E+02  0.79309524322E+02  0.00000000000E+00 0.  1.
         23    2    1    2    0    0  0.00000000000E+00  0.00000000000E+00 -0.53815508290E+02  0.10480354035E+03  0.89931491360E+02 0.  0.
        -13    1    3    3    0    0 -0.28285900502E+01 -0.17499749680E+02  0.21250076088E+02  0.27673234258E+02  0.00000000000E+00 0. -1.
         13    1    3    3    0    0  0.28285900502E+01  0.17499749680E+02 -0.75065584378E+02  0.77130306097E+02  0.00000000000E+00 0.  1.
<mgrwt>
<rscale>  0 0.89931491E+02</rscale>
<asrwt>0</asrwt>
<pdfrwt beam="1">  1        1 0.39221563E-02 0.89931491E+02</pdfrwt>
<pdfrwt beam="2">  1       -1 0.12201465E-01 0.89931491E+02</pdfrwt>
<totfact> 0.87808382E+04</totfact>
</mgrwt>
</event>
<event>
 5    1  0.1270834E+001  0.9549330E+02  0.7546771E-02  0.1290069E+00
         -1   -1    0    0    0  501 -0.00000000000E+00  0.00000000000E+00  0.71221341273E+02  0.71221341273E+02  0.00000000000E+00 0.  1.
          1   -1    0    0  501    0  0.00000000000E+00 -0.00000000000E+00 -0.32009260671E+02  0.32009260671E+02  0.00000000000E+00 0. -1.
         23    2    1    2    0    0  0.00000000000E+00  0.00000000000E+00  0.39212080602E+02  0.10323060194E+03  0.95493297736E+02 0.  0.
        -11    1    3    3    0    0 -0.42312307040E+02  0.12812673141E+02  0.39101879000E+02  0.59020783301E+02  0.00000000000E+00 0.  1.
         11    1    3    3    0    0  0.42312307040E+02 -0.12812673141E+02  0.11020160172E+00  0.44209818643E+02  0.00000000000E+00 0. -1.
<mgrwt>
<rscale>  0 0.95493298E+02</rscale>
<asrwt>0</asrwt>
<pdfrwt beam="2">  1        1 0.49245017E-02 0.95493298E+02</pdfrwt>
<pdfrwt beam="1">  1       -1 0.10957129E-01 0.95493298E+02</pdfrwt>
<totfact> 0.76681824E+04</totfact>
</mgrwt>
</event>
<event>
 5    1  0.1270834E+001  0.9040148E+02  0.7546771E-02  0.1301882E+00
         -2   -1    0    0    0  501 -0.00000000000E+00  0.00000000000E+00  0.18563894160E+02  0.18563894160E+02  0.00000000000E+00 0.  1.
          2   -1    0    0  501    0  0.00000000000E+00 -0.00000000000E+00 -0.11005810611E+03  0.11005810611E+03  0.00000000000E+00 0. -1.
         23    2    1    2    0    0  0.00000000000E+00  0.00000000000E+00 -0.91494211952E+02  0.12862200027E+03  0.90401483026E+02 0.  0.
        -11    1    3    3    0    0  0.19002225426E+02  0.38889262448E+02 -0.27215471368E+02  0.51128672843E+02  0.00000000000E+00 0.  1.
         11    1    3    3    0    0 -0.19002225426E+02 -0.38889262448E+02 -0.64278740585E+02  0.77493327429E+02  0.00000000000E+00 0. -1.
<mgrwt>
<rscale>  0 0.90401483E+02</rscale>
<asrwt>0</asrwt>
<pdfrwt beam="2">  1        2 0.16932016E-01 0.90401483E+02</pdfrwt>
<pdfrwt beam="1">  1       -2 0.28559837E-02 0.90401483E+02</pdfrwt>
<totfact> 0.12934969E+05</totfact>
</mgrwt>
</event>
<event>
 5    1  0.1270834E+001  0.9158750E+02  0.7546771E-02  0.1299052E+00
          1   -1    0    0  501    0  0.00000000000E+00  0.00000000000E+00  0.19204532091E+02  0.19204532091E+02  0.00000000000E+00 0. -1.
         -1   -1    0    0    0  501 -0.00000000000E+00 -0.00000000000E+00 -0.10919648776E+03  0.10919648776E+03  0.00000000000E+00 0.  1.
         23    2    1    2    0    0  0.00000000000E+00  0.00000000000E+00 -0.89991955672E+02  0.12840101985E+03  0.91587498131E+02 0.  0.
        -11    1    3    3    0    0  0.21392408970E+02  0.40469888544E+02 -0.46780595374E+02  0.65451288329E+02  0.00000000000E+00 0.  1.
         11    1    3    3    0    0 -0.21392408970E+02 -0.40469888544E+02 -0.43211360298E+02  0.62949731525E+02  0.00000000000E+00 0. -1.
<mgrwt>
<rscale>  0 0.91587498E+02</rscale>
<asrwt>0</asrwt>
<pdfrwt beam="1">  1        1 0.29545435E-02 0.91587498E+02</pdfrwt>
<pdfrwt beam="2">  1       -1 0.16799459E-01 0.91587498E+02</pdfrwt>
<totfact> 0.79097951E+04</totfact>
</mgrwt>
</event>
<event>
 5    1  0.1270834E+001  0.9028545E+02  0.7546771E-02  0.1302162E+00
         -2   -1    0    0    0  501 -0.00000000000E+00  0.00000000000E+00  0.29477688099E+03  0.29477688099E+03  0.00000000000E+00 0.  1.
          2   -1    0    0  501    0  0.00000000000E+00 -0.00000000000E+00 -0.69132482445E+01  0.69132482445E+01  0.00000000000E+00 0. -1.
         23    2    1    2    0    0  0.00000000000E+00  0.00000000000E+00  0.28786363274E+03  0.30169012923E+03  0.90285452981E+02 0.  0.
        -13    1    3    3    0    0  0.32961755286E+02  0.30067121728E+02  0.16692683337E+03  0.17278621710E+03  0.00000000000E+00 0. -1.
         13    1    3    3    0    0 -0.32961755286E+02 -0.30067121728E+02  0.12093679937E+03  0.12890391213E+03  0.00000000000E+00 0.  1.
<mgrwt>
<rscale>  0 0.90285453E+02</rscale>
<asrwt>0</asrwt>
<pdfrwt beam="2">  1        2 0.10635769E-02 0.90285453E+02</pdfrwt>
<pdfrwt beam="1">  1       -2 0.45350280E-01 0.90285453E+02</pdfrwt>
<totfact> 0.52822885E+04</totfact>
</mgrwt>
</event>
<event>
 5    1  0.1270834E+001  0.8316669E+02  0.7546771E-02  0.1320298E+00
         -3   -1    0    0    0  501 -0.00000000000E+00  0.00000000000E+00  0.23425682801E+03  0.23425682801E+03  0.00000000000E+00 0.  1.
          3   -1    0    0  501    0  0.00000000000E+00 -0.00000000000E+00 -0.73815340476E+01  0.73815340476E+01  0.00000000000E+00 0. -1.
         23    2    1    2    0    0  0.00000000000E+00  0.00000000000E+00  0.22687529396E+03  0.24163836206E+03  0.83166694099E+02 0.  0.
        -13    1    3    3    0    0  0.40060351112E+02 -0.58181061939E+01  0.14107669778E+03  0.14676960430E+03  0.00000000000E+00 0. -1.
         13    1    3    3    0    0 -0.40060351112E+02  0.58181061939E+01  0.85798596181E+02  0.94868757753E+02  0.00000000000E+00 0.  1.
<mgrwt>
<rscale>  0 0.83166694E+02</rscale>
<asrwt>0</asrwt>
<pdfrwt beam="2">  1        3 0.11356208E-02 0.83166694E+02</pdfrwt>
<pdfrwt beam="1">  1       -3 0.36039506E-01 0.83166694E+02</pdfrwt>
<totfact> 0.33855740E+04</totfact>
</mgrwt>
</event>
<event>
 5    1  0.1270834E+001  0.9439133E+02  0.7546771E-02  0.1292553E+00
         -2   -1    0    0    0  501 -0.00000000000E+00  0.00000000000E+00  0.11081435029E+03  0.11081435029E+03  0.00000000000E+00 0.  1.
          2   -1    0    0  501    0  0.00000000000E+00 -0.00000000000E+00 -0.20100564240E+02  0.20100564240E+02  0.00000000000E+00 0. -1.
         23    2    1    2    0    0  0.00000000000E+00  0.00000000000E+00  0.90713786052E+02  0.13091491453E+03  0.94391333644E+02 0.  0.
        -13    1    3    3    0    0  0.40090686696E+02 -0.29798393655E+01  0.79647886604E+02  0.89218431071E+02  0.00000000000E+00 0.  1.
         13    1    3    3    0    0 -0.40090686696E+02  0.29798393655E+01  0.11065899448E+02  0.41696483461E+02  0.00000000000E+00 0. -1.
<mgrwt>
<rscale>  0 0.94391334E+02</rscale>
<asrwt>0</asrwt>
<pdfrwt beam="2">  1        2 0.30923946E-02 0.94391334E+02</pdfrwt>
<pdfrwt beam="1">  1       -2 0.17048361E-01 0.94391334E+02</pdfrwt>
<totfact> 0.70923128E+04</totfact>
</mgrwt>
</event>
<event>
 5    1  0.1270834E+001  0.9175498E+02  0.7546771E-02  0.1298657E+00
         -2   -1    0    0    0  501 -0.00000000000E+00  0.00000000000E+00  0.33735613982E+02  0.33735613982E+02  0.00000000000E+00 0.  1.
          2   -1    0    0  501    0  0.00000000000E+00 -0.00000000000E+00 -0.62389377258E+02  0.62389377258E+02  0.00000000000E+00 0. -1.
         23    2    1    2    0    0  0.00000000000E+00  0.00000000000E+00 -0.28653763276E+02  0.96124991241E+02  0.91754976928E+02 0.  0.
        -11    1    3    3    0    0  0.36517241819E+02  0.17204374559E+02  0.85114949449E+01  0.41254636106E+02  0.00000000000E+00 0.  1.
         11    1    3    3    0    0 -0.36517241819E+02 -0.17204374559E+02 -0.37165258221E+02  0.54870355135E+02  0.00000000000E+00 0. -1.
<mgrwt>
<rscale>  0 0.91754977E+02</rscale>
<asrwt>0</asrwt>
<pdfrwt beam="2">  1        2 0.95983656E-02 0.91754977E+02</pdfrwt>
<pdfrwt beam="1">  1       -2 0.51900945E-02 0.91754977E+02</pdfrwt>
<totfact> 0.10529764E+05</totfact>
</mgrwt>
</event>
<event>
 5    1  0.1270834E+001  0.1017408E+03  0.7546771E-02  0.1276677E+00
         -3   -1    0    0    0  501 -0.00000000000E+00  0.00000000000E+00  0.17753093062E+03  0.17753093062E+03  0.00000000000E+00 0.  1.
          3   -1    0    0  501    0  0.00000000000E+00 -0.00000000000E+00 -0.14576589344E+02  0.14576589344E+02  0.00000000000E+00 0. -1.
         23    2    1    2    0    0  0.00000000000E+00  0.00000000000E+00  0.16295434127E+03  0.19210751996E+03  0.10174075823E+03 0.  0.
        -13    1    3    3    0    0 -0.48745512822E+01 -0.42430222315E+02  0.29296006507E+02  0.51791321793E+02  0.00000000000E+00 0. -1.
         13    1    3    3    0    0  0.48745512822E+01  0.42430222315E+02  0.13365833476E+03  0.14031619817E+03  0.00000000000E+00 0.  1.
<mgrwt>
<rscale>  0 0.10174076E+03</rscale>
<asrwt>0</asrwt>
<pdfrwt beam="2">  1        3 0.22425523E-02 0.10174076E+03</pdfrwt>
<pdfrwt beam="1">  1       -3 0.27312449E-01 0.10174076E+03</pdfrwt>
<totfact> 0.21457961E+04</totfact>
</mgrwt>
</event>
<event>
 5    1  0.1270834E+001  0.9048146E+02  0.7546771E-02  0.1301690E+00
          1   -1    0    0  501    0  0.00000000000E+00  0.00000000000E+00  0.26615612025E+02  0.26615612025E+02  0.00000000000E+00 0. -1.
         -1   -1    0    0    0  501 -0.00000000000E+00 -0.00000000000E+00 -0.76899362190E+02  0.76899362190E+02  0.00000000000E+00 0.  1.
         23    2    1    2    0    0  0.00000000000E+00  0.00000000000E+00 -0.50283750166E+02  0.10351497422E+03  0.90481458631E+02 0.  0.
        -13    1    3    3    0    0  0.20397761417E+02 -0.40006163814E+02 -0.31424947041E+02  0.54809571340E+02  0.00000000000E+00 0.  1.
         13    1    3    3    0    0 -0.20397761417E+02  0.40006163814E+02 -0.18858803124E+02  0.48705402875E+02  0.00000000000E+00 0. -1.
<mgrwt>
<rscale>  0 0.90481459E+02</rscale>
<asrwt>0</asrwt>
<pdfrwt beam="1">  1        1 0.40947096E-02 0.90481459E+02</pdfrwt>
<pdfrwt beam="2">  1       -1 0.11830671E-01 0.90481459E+02</pdfrwt>
<totfact> 0.86897551E+04</totfact>
</mgrwt>
</event>
<event>
 5    1  0.1270834E+001  0.9073816E+02  0.7546771E-02  0.1301074E+00
          2   -1    0    0  501    0  0.00000000000E+00  0.00000000000E+00  0.15607393846E+02  0.15607393846E+02  0.00000000000E+00 0. -1.
         -2   -1    0    0    0  501 -0.00000000000E+00 -0.00000000000E+00 -0.13188322959E+03  0.13188322959E+03  0.00000000000E+00 0.  1.
         23    2    1    2    0    0  0.00000000000E+00  0.00000000000E+00 -0.11627583574E+03  0.14749062344E+03  0.90738161893E+02 0.  0.
        -11    1    3    3    0    0  0.38873877767E+02  0.17824298003E+02 -0.82760690277E+02  0.93156941916E+02  0.00000000000E+00 0.  1.
         11    1    3    3    0    0 -0.38873877767E+02 -0.17824298003E+02 -0.33515145466E+02  0.54333681520E+02  0.00000000000E+00 0. -1.
<mgrwt>
<rscale>  0 0.90738162E+02</rscale>
<asrwt>0</asrwt>
<pdfrwt beam="1">  1        2 0.24011376E-02 0.90738162E+02</pdfrwt>
<pdfrwt beam="2">  1       -2 0.20289727E-01 0.90738162E+02</pdfrwt>
<totfact> 0.73984346E+04</totfact>
</mgrwt>
</event>
<event>
 5    1  0.1270834E+001  0.9117014E+02  0.7546771E-02  0.1300043E+00
         -3   -1    0    0    0  501 -0.00000000000E+00  0.00000000000E+00  0.79806572377E+02  0.79806572377E+02  0.00000000000E+00 0.  1.
          3   -1    0    0  501    0  0.00000000000E+00 -0.00000000000E+00 -0.26037936206E+02  0.26037936206E+02  0.00000000000E+00 0. -1.
         23    2    1    2    0    0  0.00000000000E+00  0.00000000000E+00  0.53768636172E+02  0.10584450858E+03  0.91170136346E+02 0.  0.
        -11    1    3    3    0    0 -0.27496827423E+02 -0.36310099956E+02  0.24712503978E+02  0.51818980403E+02  0.00000000000E+00 0. -1.
         11    1    3    3    0    0  0.27496827423E+02  0.36310099956E+02  0.29056132194E+02  0.54025528180E+02  0.00000000000E+00 0.  1.
<mgrwt>
<rscale>  0 0.91170136E+02</rscale>
<asrwt>0</asrwt>
<pdfrwt beam="2">  1        3 0.40058364E-02 0.91170136E+02</pdfrwt>
<pdfrwt beam="1">  1       -3 0.12277934E-01 0.91170136E+02</pdfrwt>
<totfact> 0.34251531E+04</totfact>
</mgrwt>
</event>
<event>
 5    1  0.1270834E+001  0.9139360E+02  0.7546771E-02  0.1299512E+00
         -1   -1    0    0    0  501 -0.00000000000E+00  0.00000000000E+00  0.64452578968E+01  0.64452578968E+01  0.00000000000E+00 0.  1.
          1   -1    0    0  501    0  0.00000000000E+00 -0.00000000000E+00 -0.32398976518E+03  0.32398976518E+03  0.00000000000E+00 0. -1.
         23    2    1    2    0    0  0.00000000000E+00  0.00000000000E+00 -0.31754450729E+03  0.33043502308E+03  0.91393601363E+02 0.  0.
        -11    1    3    3    0    0 -0.67282659957E+01  0.40628559936E+02 -0.23037847084E+03  0.23403031699E+03  0.00000000000E+00 0. -1.
         11    1    3    3    0    0  0.67282659957E+01 -0.40628559936E+02 -0.87166036452E+02  0.96404706091E+02  0.00000000000E+00 0.  1.
<mgrwt>
<rscale>  0 0.91393601E+02</rscale>
<asrwt>0</asrwt>
<pdfrwt beam="2">  1        1 0.49844582E-01 0.91393601E+02</pdfrwt>
<pdfrwt beam="1">  1       -1 0.99157809E-03 0.91393601E+02</pdfrwt>
<totfact> 0.12917100E+05</totfact>
</mgrwt>
</event>
<event>
 5    1  0.1270834E+001  0.9074867E+02  0.7546771E-02  0.1301049E+00
          4   -1    0    0  501    0  0.00000000000E+00  0.00000000000E+00  0.29282981297E+02  0.29282981297E+02  0.00000000000E+00 0. -1.
         -4   -1    0    0    0  501 -0.00000000000E+00 -0.00000000000E+00 -0.70308082403E+02  0.70308082403E+02  0.00000000000E+00 0.  1.
         23    2    1    2    0    0  0.00000000000E+00  0.00000000000E+00 -0.41025101107E+02  0.99591063700E+02  0.90748669677E+02 0.  0.
        -13    1    3    3    0    0 -0.45089890759E+01  0.44999850524E+02 -0.16478403816E+02  0.48133723334E+02  0.00000000000E+00 0.  1.
         13    1    3    3    0    0  0.45089890759E+01 -0.44999850524E+02 -0.24546697291E+02  0.51457340366E+02  0.00000000000E+00 0. -1.
<mgrwt>
<rscale>  0 0.90748670E+02</rscale>
<asrwt>0</asrwt>
<pdfrwt beam="1">  1        4 0.45050740E-02 0.90748670E+02</pdfrwt>
<pdfrwt beam="2">  1       -4 0.10816628E-01 0.90748670E+02</pdfrwt>
<totfact> 0.26823275E+04</totfact>
</mgrwt>
</event>
<event>
 5    1  0.1270834E+001  0.9033998E+02  0.7546771E-02  0.1302030E+00
         -4   -1    0    0    0  501 -0.00000000000E+00  0.00000000000E+00  0.29071620961E+02  0.29071620961E+02  0.00000000000E+00 0.  1.
          4   -1    0    0  501    0  0.00000000000E+00 -0.00000000000E+00 -0.70182815205E+02  0.70182815205E+02  0.00000000000E+00 0. -1.
         23    2    1    2    0    0  0.00000000000E+00  0.00000000000E+00 -0.41111194244E+02  0.99254436166E+02  0.90339984539E+02 0.  0.
        -11    1    3    3    0    0  0.51894735100E+01  0.32383064448E+02 -0.54680691826E+02  0.63761834642E+02  0.00000000000E+00 0. -1.
         11    1    3    3    0    0 -0.51894735100E+01 -0.32383064448E+02  0.13569497582E+02  0.35492601524E+02  0.00000000000E+00 0.  1.
<mgrwt>
<rscale>  0 0.90339985E+02</rscale>
<asrwt>0</asrwt>
<pdfrwt beam="2">  1        4 0.10797356E-01 0.90339985E+02</pdfrwt>
<pdfrwt beam="1">  1       -4 0.44725571E-02 0.90339985E+02</pdfrwt>
<totfact> 0.27173910E+04</totfact>
</mgrwt>
</event>
<event>
 5    1  0.1270834E+001  0.8820808E+02  0.7546771E-02  0.1307250E+00
          1   -1    0    0  501    0  0.00000000000E+00  0.00000000000E+00  0.19961930162E+02  0.19961930162E+02  0.00000000000E+00 0. -1.
         -1   -1    0    0    0  501 -0.00000000000E+00 -0.00000000000E+00 -0.97443809585E+02  0.97443809585E+02  0.00000000000E+00 0.  1.
         23    2    1    2    0    0  0.00000000000E+00  0.00000000000E+00 -0.77481879422E+02  0.11740573975E+03  0.88208084021E+02 0.  0.
        -13    1    3    3    0    0  0.16448820453E+02  0.80050420428E+01 -0.92156069595E+02  0.93954167313E+02  0.00000000000E+00 0.  1.
         13    1    3    3    0    0 -0.16448820453E+02 -0.80050420428E+01  0.14674190172E+02  0.23451572434E+02  0.00000000000E+00 0. -1.
<mgrwt>
<rscale>  0 0.88208084E+02</rscale>
<asrwt>0</asrwt>
<pdfrwt beam="1">  1        1 0.30710662E-02 0.88208084E+02</pdfrwt>
<pdfrwt beam="2">  1       -1 0.14991355E-01 0.88208084E+02</pdfrwt>
<totfact> 0.89020826E+04</totfact>
</mgrwt>
</event>
<event>
 5    1  0.1270834E+001  0.9253535E+02  0.7546771E-02  0.1296826E+00
         -3   -1    0    0    0  501 -0.00000000000E+00  0.00000000000E+00  0.10838847698E+03  0.10838847698E+03  0.00000000000E+00 0.  1.
          3   -1    0    0  501    0  0.00000000000E+00 -0.00000000000E+00 -0.19750235240E+02  0.19750235240E+02  0.00000000000E+00 0. -1.
         23    2    1    2    0    0  0.00000000000E+00  0.00000000000E+00  0.88638241744E+02  0.12813871222E+03  0.92535353627E+02 0.  0.
        -13    1    3    3    0    0  0.20533786710E+02  0.17089857127E+02 -0.79908399363E+01  0.27884639789E+02  0.00000000000E+00 0. -1.
         13    1    3    3    0    0 -0.20533786710E+02 -0.17089857127E+02  0.96629081681E+02  0.10025407243E+03  0.00000000000E+00 0.  1.
<mgrwt>
<rscale>  0 0.92535354E+02</rscale>
<asrwt>0</asrwt>
<pdfrwt beam="2">  1        3 0.30384978E-02 0.92535354E+02</pdfrwt>
<pdfrwt beam="1">  1       -3 0.16675150E-01 0.92535354E+02</pdfrwt>
<totfact> 0.31410734E+04</totfact>
</mgrwt>
</event>
<event>
 5    1  0.1270834E+001  0.8697733E+02  0.7546771E-02  0.1310341E+00
          1   -1    0    0  501    0  0.00000000000E+00  0.00000000000E+00  0.20351040326E+02  0.20351040326E+02  0.00000000000E+00 0. -1.
         -1   -1    0    0    0  501 -0.00000000000E+00 -0.00000000000E+00 -0.92932055367E+02  0.92932055367E+02  0.00000000000E+00 0.  1.
         23    2    1    2    0    0  0.00000000000E+00  0.00000000000E+00 -0.72581015040E+02  0.11328309569E+03  0.86977330527E+02 0.  0.
        -11    1    3    3    0    0  0.12595742625E+02  0.38717482489E+02 -0.16385353547E+02  0.43888221580E+02  0.00000000000E+00 0.  1.
         11    1    3    3    0    0 -0.12595742625E+02 -0.38717482489E+02 -0.56195661493E+02  0.69394874113E+02  0.00000000000E+00 0. -1.
<mgrwt>
<rscale>  0 0.86977331E+02</rscale>
<asrwt>0</asrwt>
<pdfrwt beam="1">  1        1 0.31309293E-02 0.86977331E+02</pdfrwt>
<pdfrwt beam="2">  1       -1 0.14297239E-01 0.86977331E+02</pdfrwt>
<totfact> 0.93077487E+04</totfact>
</mgrwt>
</event>
<event>
 5    1  0.1270834E+001  0.9181613E+02  0.7546771E-02  0.1298512E+00
          1   -1    0    0  501    0  0.00000000000E+00  0.00000000000E+00  0.14020806189E+02  0.14020806189E+02  0.00000000000E+00 0. -1.
         -1   -1    0    0    0  501 -0.00000000000E+00 -0.00000000000E+00 -0.15031592554E+03  0.15031592554E+03  0.00000000000E+00 0.  1.
         23    2    1    2    0    0  0.00000000000E+00  0.00000000000E+00 -0.13629511936E+03  0.16433673173E+03  0.91816130590E+02 0.  0.
        -11    1    3    3    0    0  0.44991581650E+02 -0.90330283627E+01 -0.65805364239E+02  0.80225831148E+02  0.00000000000E+00 0.  1.
         11    1    3    3    0    0 -0.44991581650E+02  0.90330283627E+01 -0.70489755117E+02  0.84110900585E+02  0.00000000000E+00 0. -1.
<mgrwt>
<rscale>  0 0.91816131E+02</rscale>
<asrwt>0</asrwt>
<pdfrwt beam="1">  1        1 0.21570473E-02 0.91816131E+02</pdfrwt>
<pdfrwt beam="2">  1       -1 0.23125525E-01 0.91816131E+02</pdfrwt>
<totfact> 0.73406716E+04</totfact>
</mgrwt>
</event>
<event>
 5    1  0.1270834E+001  0.8800258E+02  0.7546771E-02  0.1307762E+00
         -2   -1    0    0    0  501 -0.00000000000E+00  0.00000000000E+00  0.38307045454E+02  0.38307045454E+02  0.00000000000E+00 0.  1.
          2   -1    0    0  501    0  0.00000000000E+00 -0.00000000000E+00 -0.50541964580E+02  0.50541964580E+02  0.00000000000E+00 0. -1.
         23    2    1    2    0    0  0.00000000000E+00  0.00000000000E+00 -0.12234919127E+02  0.88849010034E+02  0.88002575747E+02 0.  0.
        -11    1    3    3    0    0  0.16496708623E+02  0.71568249250E+01 -0.46662802365E+02  0.50007786023E+02  0.00000000000E+00 0. -1.
         11    1    3    3    0    0 -0.16496708623E+02 -0.71568249250E+01  0.34427883238E+02  0.38841224011E+02  0.00000000000E+00 0.  1.
<mgrwt>
<rscale>  0 0.88002576E+02</rscale>
<asrwt>0</asrwt>
<pdfrwt beam="2">  1        2 0.77756868E-02 0.88002576E+02</pdfrwt>
<pdfrwt beam="1">  1       -2 0.58933916E-02 0.88002576E+02</pdfrwt>
<totfact> 0.11208568E+05</totfact>
</mgrwt>
</event>
<event>
 5    1  0.1270834E+001  0.9216772E+02  0.7546771E-02  0.1297686E+00
          3   -1    0    0  501    0  0.00000000000E+00  0.00000000000E+00  0.35066137716E+02  0.35066137716E+02  0.00000000000E+00 0. -1.
         -3   -1    0    0    0  501 -0.00000000000E+00 -0.00000000000E+00 -0.60563333076E+02  0.60563333076E+02  0.00000000000E+00 0.  1.
         23    2    1    2    0    0  0.00000000000E+00  0.00000000000E+00 -0.25497195359E+02  0.95629470792E+02  0.92167720557E+02 0.  0.
        -13    1    3    3    0    0  0.54518842244E+01 -0.37143593254E+02 -0.40479833598E+02  0.55208572608E+02  0.00000000000E+00 0.  1.
         13    1    3    3    0    0 -0.54518842244E+01  0.37143593254E+02  0.14982638238E+02  0.40420898183E+02  0.00000000000E+00 0. -1.
<mgrwt>
<rscale>  0 0.92167721E+02</rscale>
<asrwt>0</asrwt>
<pdfrwt beam="1">  1        3 0.53947904E-02 0.92167721E+02</pdfrwt>
<pdfrwt beam="2">  1       -3 0.93174358E-02 0.92167721E+02</pdfrwt>
<totfact> 0.33982248E+04</totfact>
</mgrwt>
</event>
<event>
 5    1  0.1270834E+001  0.8873601E+02  0.7546771E-02  0.1305942E+00
         -1   -1    0    0    0  501 -0.00000000000E+00  0.00000000000E+00  0.15782215766E+02  0.15782215766E+02  0.00000000000E+00 0.  1.
          1   -1    0    0  501    0  0.00000000000E+00 -0.00000000000E+00 -0.12473026706E+03  0.12473026706E+03  0.00000000000E+00 0. -1.
         23    2    1    2    0    0  0.00000000000E+00  0.00000000000E+00 -0.10894805130E+03  0.14051248283E+03  0.88736012696E+02 0.  0.
        -11    1    3    3    0    0  0.29795784048E+02 -0.99596461163E+01 -0.10408391595E+03  0.10872186927E+03  0.00000000000E+00 0. -1.
         11    1    3    3    0    0 -0.29795784048E+02  0.99596461163E+01 -0.48641353467E+01  0.31790613559E+02  0.00000000000E+00 0.  1.
<mgrwt>
<rscale>  0 0.88736013E+02</rscale>
<asrwt>0</asrwt>
<pdfrwt beam="2">  1        1 0.19189273E-01 0.88736013E+02</pdfrwt>
<pdfrwt beam="1">  1       -1 0.24280331E-02 0.88736013E+02</pdfrwt>
<totfact> 0.11672466E+05</totfact>
</mgrwt>
</event>
<event>
 5    1  0.1270834E+001  0.9166514E+02  0.7546771E-02  0.1298869E+00
          3   -1    0    0  501    0  0.00000000000E+00  0.00000000000E+00  0.17628610883E+02  0.17628610883E+02  0.00000000000E+00 0. -1.
         -3   -1    0    0    0  501 -0.00000000000E+00 -0.00000000000E+00 -0.11915994488E+03  0.11915994488E+03  0.00000000000E+00 0.  1.
         23    2    1    2    0    0  0.00000000000E+00  0.00000000000E+00 -0.10153133400E+03  0.13678855576E+03  0.91665136254E+02 0.  0.
        -13    1    3    3    0    0  0.48017129786E+01  0.31324679495E+02 -0.13554589885E+01  0.31719540698E+02  0.00000000000E+00 0. -1.
         13    1    3    3    0    0 -0.48017129786E+01 -0.31324679495E+02 -0.10017587501E+03  0.10506901507E+03  0.00000000000E+00 0.  1.
<mgrwt>
<rscale>  0 0.91665136E+02</rscale>
<asrwt>0</asrwt>
<pdfrwt beam="1">  1        3 0.27120940E-02 0.91665136E+02</pdfrwt>
<pdfrwt beam="2">  1       -3 0.18332299E-01 0.91665136E+02</pdfrwt>
<totfact> 0.31673561E+04</totfact>
</mgrwt>
</event>
<event>
 5    1  0.1270834E+001  0.9596245E+02  0.7546771E-02  0.1289023E+00
          1   -1    0    0  501    0  0.00000000000E+00  0.00000000000E+00  0.16830937415E+03  0.16830937415E+03  0.00000000000E+00 0. -1.
         -1   -1    0    0    0  501 -0.00000000000E+00 -0.00000000000E+00 -0.13678369260E+02  0.13678369260E+02  0.00000000000E+00 0.  1.
         23    2    1    2    0    0  0.00000000000E+00  0.00000000000E+00  0.15463100489E+03  0.18198774341E+03  0.95962446189E+02 0.  0.
        -13    1    3    3    0    0  0.38763630280E+02 -0.20171404127E+02  0.39734573046E+02  0.59062178016E+02  0.00000000000E+00 0.  1.
         13    1    3    3    0    0 -0.38763630280E+02  0.20171404127E+02  0.11489643185E+03  0.12292556540E+03  0.00000000000E+00 0. -1.
<mgrwt>
<rscale>  0 0.95962446E+02</rscale>
<asrwt>0</asrwt>
<pdfrwt beam="1">  1        1 0.25893748E-01 0.95962446E+02</pdfrwt>
<pdfrwt beam="2">  1       -1 0.21043646E-02 0.95962446E+02</pdfrwt>
<totfact> 0.99777080E+04</totfact>
</mgrwt>
</event>
<event>
 5    1  0.1270834E+001  0.9253590E+02  0.7546771E-02  0.1296824E+00
          1   -1    0    0  501    0  0.00000000000E+00  0.00000000000E+00  0.23176255742E+03  0.23176255742E+03  0.00000000000E+00 0.  1.
         -1   -1    0    0    0  501 -0.00000000000E+00 -0.00000000000E+00 -0.92367077647E+01  0.92367077647E+01  0.00000000000E+00 0. -1.
         23    2    1    2    0    0  0.00000000000E+00  0.00000000000E+00  0.22252584966E+03  0.24099926519E+03  0.92535896034E+02 0.  0.
        -11    1    3    3    0    0 -0.64487071865E+01  0.45294400196E+02  0.12922271650E+03  0.13708274498E+03  0.00000000000E+00 0.  1.
         11    1    3    3    0    0  0.64487071865E+01 -0.45294400196E+02  0.93303133161E+02  0.10391652020E+03  0.00000000000E+00 0. -1.
<mgrwt>
<rscale>  0 0.92535896E+02</rscale>
<asrwt>0</asrwt>
<pdfrwt beam="1">  1        1 0.35655774E-01 0.92535896E+02</pdfrwt>
<pdfrwt beam="2">  1       -1 0.14210321E-02 0.92535896E+02</pdfrwt>
<totfact> 0.11712078E+05</totfact>
</mgrwt>
</event>
<event>
 5    1  0.1270834E+001  0.8611316E+02  0.7546771E-02  0.1312547E+00
          1   -1    0    0  501    0  0.00000000000E+00  0.00000000000E+00  0.32025773708E+02  0.32025773708E+02  0.00000000000E+00 0. -1.
         -1   -1    0    0    0  501 -0.00000000000E+00 -0.00000000000E+00 -0.57886782011E+02  0.57886782011E+02  0.00000000000E+00 0.  1.
         23    2    1    2    0    0  0.00000000000E+00  0.00000000000E+00 -0.25861008303E+02  0.89912555719E+02  0.86113157680E+02 0.  0.
        -11    1    3    3    0    0 -0.25504690935E+02 -0.58607705747E+01  0.22769137637E+02  0.34688204337E+02  0.00000000000E+00 0. -1.
         11    1    3    3    0    0  0.25504690935E+02  0.58607705747E+01 -0.48630145940E+02  0.55224351382E+02  0.00000000000E+00 0.  1.
<mgrwt>
<rscale>  0 0.86113158E+02</rscale>
<asrwt>0</asrwt>
<pdfrwt beam="1">  1        1 0.49270421E-02 0.86113158E+02</pdfrwt>
<pdfrwt beam="2">  1       -1 0.89056587E-02 0.86113158E+02</pdfrwt>
<totfact> 0.10304081E+05</totfact>
</mgrwt>
</event>
<event>
 5    1  0.1270834E+001  0.7026448E+02  0.7546771E-02  0.1359196E+00
         -1   -1    0    0    0  501 -0.00000000000E+00  0.00000000000E+00  0.17401916653E+03  0.17401916653E+03  0.00000000000E+00 0.  1.
          1   -1    0    0  501    0  0.00000000000E+00 -0.00000000000E+00 -0.70927488211E+01  0.70927488211E+01  0.00000000000E+00 0. -1.
         23    2    1    2    0    0  0.00000000000E+00  0.00000000000E+00  0.16692641771E+03  0.18111191535E+03  0.70264478600E+02 0.  0.
        -13    1    3    3    0    0  0.31479979659E+02  0.15391744303E+02  0.89973472880E+02  0.96556308618E+02  0.00000000000E+00 0. -1.
         13    1    3    3    0    0 -0.31479979659E+02 -0.15391744303E+02  0.76952944826E+02  0.84555606730E+02  0.00000000000E+00 0.  1.
<mgrwt>
<rscale>  0 0.70264479E+02</rscale>
<asrwt>0</asrwt>
<pdfrwt beam="2">  1        1 0.10911923E-02 0.70264479E+02</pdfrwt>
<pdfrwt beam="1">  1       -1 0.26772176E-01 0.70264479E+02</pdfrwt>
<totfact> 0.14116904E+05</totfact>
</mgrwt>
</event>
<event>
 5    1  0.1270834E+001  0.9173353E+02  0.7546771E-02  0.1298707E+00
         -1   -1    0    0    0  501 -0.00000000000E+00  0.00000000000E+00  0.21502180113E+02  0.21502180113E+02  0.00000000000E+00 0.  1.
          1   -1    0    0  501    0  0.00000000000E+00 -0.00000000000E+00 -0.97839380825E+02  0.97839380825E+02  0.00000000000E+00 0. -1.
         23    2    1    2    0    0  0.00000000000E+00  0.00000000000E+00 -0.76337200713E+02  0.11934156094E+03  0.91733526883E+02 0.  0.
        -13    1    3    3    0    0 -0.10914286548E+02 -0.35039771502E+02 -0.73959228425E+02  0.82564367054E+02  0.00000000000E+00 0. -1.
         13    1    3    3    0    0  0.10914286548E+02  0.35039771502E+02 -0.23779722876E+01  0.36777193884E+02  0.00000000000E+00 0.  1.
<mgrwt>
<rscale>  0 0.91733527E+02</rscale>
<asrwt>0</asrwt>
<pdfrwt beam="2">  1        1 0.15052212E-01 0.91733527E+02</pdfrwt>
<pdfrwt beam="1">  1       -1 0.33080277E-02 0.91733527E+02</pdfrwt>
<totfact> 0.10235801E+05</totfact>
</mgrwt>
</event>
<event>
 5    1  0.1270834E+001  0.8952277E+02  0.7546771E-02  0.1304012E+00
         -1   -1    0    0    0  501 -0.00000000000E+00  0.00000000000E+00  0.61703996828E+01  0.61703996828E+01  0.00000000000E+00 0.  1.
          1   -1    0    0  501    0  0.00000000000E+00 -0.00000000000E+00 -0.32470858049E+03  0.32470858049E+03  0.00000000000E+00 0. -1.
         23    2    1    2    0    0  0.00000000000E+00  0.00000000000E+00 -0.31853818081E+03  0.33087898018E+03  0.89522773015E+02 0.  0.
        -13    1    3    3    0    0  0.41161861030E+02  0.17529236807E+02 -0.16450752307E+03  0.17048254484E+03  0.00000000000E+00 0.  1.
         13    1    3    3    0    0 -0.41161861030E+02 -0.17529236807E+02 -0.15403065774E+03  0.16039643534E+03  0.00000000000E+00 0. -1.
<mgrwt>
<rscale>  0 0.89522773E+02</rscale>
<asrwt>0</asrwt>
<pdfrwt beam="2">  1        1 0.49955172E-01 0.89522773E+02</pdfrwt>
<pdfrwt beam="1">  1       -1 0.94929215E-03 0.89522773E+02</pdfrwt>
<totfact> 0.13652879E+05</totfact>
</mgrwt>
</event>
<event>
 5    1  0.1270834E+001  0.9247098E+02  0.7546771E-02  0.1296976E+00
         -3   -1    0    0    0  501 -0.00000000000E+00  0.00000000000E+00  0.10391008646E+03  0.10391008646E+03  0.00000000000E+00 0.  1.
          3   -1    0    0  501    0  0.00000000000E+00 -0.00000000000E+00 -0.20572790294E+02  0.20572790294E+02  0.00000000000E+00 0. -1.
         23    2    1    2    0    0  0.00000000000E+00  0.00000000000E+00  0.83337296168E+02  0.12448287676E+03  0.92470977462E+02 0.  0.
        -13    1    3    3    0    0 -0.44731475581E+02  0.56132204749E+01  0.27854206396E+02  0.52993112437E+02  0.00000000000E+00 0.  1.
         13    1    3    3    0    0  0.44731475581E+02 -0.56132204749E+01  0.55483089772E+02  0.71489764319E+02  0.00000000000E+00 0. -1.
<mgrwt>
<rscale>  0 0.92470977E+02</rscale>
<asrwt>0</asrwt>
<pdfrwt beam="2">  1        3 0.31650447E-02 0.92470977E+02</pdfrwt>
<pdfrwt beam="1">  1       -3 0.15986167E-01 0.92470977E+02</pdfrwt>
<totfact> 0.31704502E+04</totfact>
</mgrwt>
</event>
<event>
 5    1  0.1270834E+001  0.9191467E+02  0.7546771E-02  0.1298280E+00
         -1   -1    0    0    0  501 -0.00000000000E+00  0.00000000000E+00  0.11869207278E+03  0.11869207278E+03  0.00000000000E+00 0.  1.
          1   -1    0    0  501    0  0.00000000000E+00 -0.00000000000E+00 -0.17794590776E+02  0.17794590776E+02  0.00000000000E+00 0. -1.
         23    2    1    2    0    0  0.00000000000E+00  0.00000000000E+00  0.10089748201E+03  0.13648666356E+03  0.91914674857E+02 0.  0.
        -13    1    3    3    0    0  0.71623918179E+01 -0.34668020763E+02  0.93967651532E+02  0.10041459583E+03  0.00000000000E+00 0.  1.
         13    1    3    3    0    0 -0.71623918179E+01  0.34668020763E+02  0.69298304745E+01  0.36072067734E+02  0.00000000000E+00 0. -1.
<mgrwt>
<rscale>  0 0.91914675E+02</rscale>
<asrwt>0</asrwt>
<pdfrwt beam="2">  1        1 0.27376294E-02 0.91914675E+02</pdfrwt>
<pdfrwt beam="1">  1       -1 0.18260318E-01 0.91914675E+02</pdfrwt>
<totfact> 0.77081916E+04</totfact>
</mgrwt>
</event>
<event>
 5    1  0.1270834E+001  0.9068632E+02  0.7546771E-02  0.1301198E+00
         -1   -1    0    0    0  501 -0.00000000000E+00  0.00000000000E+00  0.81480006854E+02  0.81480006854E+02  0.00000000000E+00 0.  1.
          1   -1    0    0  501    0  0.00000000000E+00 -0.00000000000E+00 -0.25233212111E+02  0.25233212111E+02  0.00000000000E+00 0. -1.
         23    2    1    2    0    0  0.00000000000E+00  0.00000000000E+00  0.56246794743E+02  0.10671321897E+03  0.90686323021E+02 0.  0.
        -11    1    3    3    0    0  0.10020499875E+02  0.44137991862E+02  0.24915963191E+02  0.51666023314E+02  0.00000000000E+00 0. -1.
         11    1    3    3    0    0 -0.10020499875E+02 -0.44137991862E+02  0.31330831552E+02  0.55047195651E+02  0.00000000000E+00 0.  1.
<mgrwt>
<rscale>  0 0.90686323E+02</rscale>
<asrwt>0</asrwt>
<pdfrwt beam="2">  1        1 0.38820327E-02 0.90686323E+02</pdfrwt>
<pdfrwt beam="1">  1       -1 0.12535386E-01 0.90686323E+02</pdfrwt>
<totfact> 0.85561158E+04</totfact>
</mgrwt>
</event>
<event>
 5    1  0.1270834E+001  0.9490628E+02  0.7546771E-02  0.1291387E+00
         -2   -1    0    0    0  501 -0.00000000000E+00  0.00000000000E+00  0.88176504580E+02  0.88176504580E+02  0.00000000000E+00 0.  1.
          2   -1    0    0  501    0  0.00000000000E+00 -0.00000000000E+00 -0.25537420730E+02  0.25537420730E+02  0.00000000000E+00 0. -1.
         23    2    1    2    0    0  0.00000000000E+00  0.00000000000E+00  0.62639083851E+02  0.11371392531E+03  0.94906280002E+02 0.  0.
        -13    1    3    3    0    0  0.92862301760E+01 -0.29658420513E+02 -0.11646942049E+02  0.33188962583E+02  0.00000000000E+00 0. -1.
         13    1    3    3    0    0 -0.92862301760E+01  0.29658420513E+02  0.74286025900E+02  0.80524962727E+02  0.00000000000E+00 0.  1.
<mgrwt>
<rscale>  0 0.94906280E+02</rscale>
<asrwt>0</asrwt>
<pdfrwt beam="2">  1        2 0.39288340E-02 0.94906280E+02</pdfrwt>
<pdfrwt beam="1">  1       -2 0.13565616E-01 0.94906280E+02</pdfrwt>
<totfact> 0.74977532E+04</totfact>
</mgrwt>
</event>
<event>
 5    1  0.1270834E+001  0.9125410E+02  0.7546771E-02  0.1299843E+00
          1   -1    0    0  501    0  0.00000000000E+00  0.00000000000E+00  0.64466025677E+02  0.64466025677E+02  0.00000000000E+00 0. -1.
         -1   -1    0    0    0  501 -0.00000000000E+00 -0.00000000000E+00 -0.32293409903E+02  0.32293409903E+02  0.00000000000E+00 0.  1.
         23    2    1    2    0    0  0.00000000000E+00  0.00000000000E+00  0.32172615774E+02  0.96759435579E+02  0.91254102198E+02 0.  0.
        -11    1    3    3    0    0  0.42997569013E+02 -0.14512084713E+02  0.11063852963E+02  0.46709746158E+02  0.00000000000E+00 0.  1.
         11    1    3    3    0    0 -0.42997569013E+02  0.14512084713E+02  0.21108762811E+02  0.50049689421E+02  0.00000000000E+00 0. -1.
<mgrwt>
<rscale>  0 0.91254102E+02</rscale>
<asrwt>0</asrwt>
<pdfrwt beam="1">  1        1 0.99178501E-02 0.91254102E+02</pdfrwt>
<pdfrwt beam="2">  1       -1 0.49682169E-02 0.91254102E+02</pdfrwt>
<totfact> 0.97199894E+04</totfact>
</mgrwt>
</event>
<event>
 5    1  0.1270834E+001  0.9209671E+02  0.7546771E-02  0.1297852E+00
          1   -1    0    0  501    0  0.00000000000E+00  0.00000000000E+00  0.14074003904E+02  0.14074003904E+02  0.00000000000E+00 0. -1.
         -1   -1    0    0    0  501 -0.00000000000E+00 -0.00000000000E+00 -0.15066437229E+03  0.15066437229E+03  0.00000000000E+00 0.  1.
         23    2    1    2    0    0  0.00000000000E+00  0.00000000000E+00 -0.13659036839E+03  0.16473837620E+03  0.92096709253E+02 0.  0.
        -11    1    3    3    0    0  0.60314682697E+01 -0.45362244129E+02 -0.59114994734E+02  0.74757570883E+02  0.00000000000E+00 0. -1.
         11    1    3    3    0    0 -0.60314682697E+01  0.45362244129E+02 -0.77475373656E+02  0.89980805315E+02  0.00000000000E+00 0.  1.
<mgrwt>
<rscale>  0 0.92096709E+02</rscale>
<asrwt>0</asrwt>
<pdfrwt beam="1">  1        1 0.21652313E-02 0.92096709E+02</pdfrwt>
<pdfrwt beam="2">  1       -1 0.23179135E-01 0.92096709E+02</pdfrwt>
<totfact> 0.72787265E+04</totfact>
</mgrwt>
</event>
<event>
 5    1  0.1270834E+001  0.9426581E+02  0.7546771E-02  0.1292838E+00
          2   -1    0    0  501    0  0.00000000000E+00  0.00000000000E+00  0.49017988571E+02  0.49017988571E+02  0.00000000000E+00 0. -1.
         -2   -1    0    0    0  501 -0.00000000000E+00 -0.00000000000E+00 -0.45320316568E+02  0.45320316568E+02  0.00000000000E+00 0.  1.
         23    2    1    2    0    0  0.00000000000E+00  0.00000000000E+00  0.36976720029E+01  0.94338305139E+02  0.94265810548E+02 0.  0.
        -11    1    3    3    0    0 -0.97014854495E+01  0.25895408851E+02  0.40046497183E+02  0.48666343155E+02  0.00000000000E+00 0. -1.
         11    1    3    3    0    0  0.97014854495E+01 -0.25895408851E+02 -0.36348825180E+02  0.45671961984E+02  0.00000000000E+00 0.  1.
<mgrwt>
<rscale>  0 0.94265811E+02</rscale>
<asrwt>0</asrwt>
<pdfrwt beam="1">  1        2 0.75412290E-02 0.94265811E+02</pdfrwt>
<pdfrwt beam="2">  1       -2 0.69723564E-02 0.94265811E+02</pdfrwt>
<totfact> 0.91391139E+04</totfact>
</mgrwt>
</event>
<event>
 5    1  0.1270834E+001  0.9118358E+02  0.7546771E-02  0.1300011E+00
          3   -1    0    0  501    0  0.00000000000E+00  0.00000000000E+00  0.73941973825E+02  0.73941973825E+02  0.00000000000E+00 0. -1.
         -3   -1    0    0    0  501 -0.00000000000E+00 -0.00000000000E+00 -0.28111382495E+02  0.28111382495E+02  0.00000000000E+00 0.  1.
         23    2    1    2    0    0  0.00000000000E+00  0.00000000000E+00  0.45830591330E+02  0.10205335632E+03  0.91183575464E+02 0.  0.
        -13    1    3    3    0    0 -0.15334226904E+02  0.42369126972E+02  0.15134614752E+02  0.47532494136E+02  0.00000000000E+00 0.  1.
         13    1    3    3    0    0  0.15334226904E+02 -0.42369126972E+02  0.30695976578E+02  0.54520862183E+02  0.00000000000E+00 0. -1.
<mgrwt>
<rscale>  0 0.91183575E+02</rscale>
<asrwt>0</asrwt>
<pdfrwt beam="1">  1        3 0.11375688E-01 0.91183575E+02</pdfrwt>
<pdfrwt beam="2">  1       -3 0.43248281E-02 0.91183575E+02</pdfrwt>
<totfact> 0.34512636E+04</totfact>
</mgrwt>
</event>
<event>
 5    1  0.1270834E+001  0.9111085E+02  0.7546771E-02  0.1300184E+00
         -1   -1    0    0    0  501 -0.00000000000E+00  0.00000000000E+00  0.91076768336E+01  0.91076768336E+01  0.00000000000E+00 0.  1.
          1   -1    0    0  501    0  0.00000000000E+00 -0.00000000000E+00 -0.22786238028E+03  0.22786238028E+03  0.00000000000E+00 0. -1.
         23    2    1    2    0    0  0.00000000000E+00  0.00000000000E+00 -0.21875470345E+03  0.23697005711E+03  0.91110853845E+02 0.  0.
        -13    1    3    3    0    0  0.33088176999E+02  0.23977421663E+02 -0.56999580627E+02  0.70133418556E+02  0.00000000000E+00 0.  1.
         13    1    3    3    0    0 -0.33088176999E+02 -0.23977421663E+02 -0.16175512282E+03  0.16683663856E+03  0.00000000000E+00 0. -1.
<mgrwt>
<rscale>  0 0.91110854E+02</rscale>
<asrwt>0</asrwt>
<pdfrwt beam="2">  1        1 0.35055749E-01 0.91110854E+02</pdfrwt>
<pdfrwt beam="1">  1       -1 0.14011811E-02 0.91110854E+02</pdfrwt>
<totfact> 0.12168889E+05</totfact>
</mgrwt>
</event>
<event>
 5    1  0.1270834E+001  0.9280151E+02  0.7546771E-02  0.1296206E+00
         -4   -1    0    0    0  501 -0.00000000000E+00  0.00000000000E+00  0.51999931278E+03  0.51999931278E+03  0.00000000000E+00 0.  1.
          4   -1    0    0  501    0  0.00000000000E+00 -0.00000000000E+00 -0.41404480632E+01  0.41404480632E+01  0.00000000000E+00 0. -1.
         23    2    1    2    0    0  0.00000000000E+00  0.00000000000E+00  0.51585886472E+03  0.52413976085E+03  0.92801511787E+02 0.  0.
        -11    1    3    3    0    0 -0.43765532242E+02 -0.15324264302E+02  0.24852042553E+03  0.25280952671E+03  0.00000000000E+00 0.  1.
         11    1    3    3    0    0  0.43765532242E+02  0.15324264302E+02  0.26733843919E+03  0.27133023414E+03  0.00000000000E+00 0. -1.
<mgrwt>
<rscale>  0 0.92801512E+02</rscale>
<asrwt>0</asrwt>
<pdfrwt beam="2">  1        4 0.63699242E-03 0.92801512E+02</pdfrwt>
<pdfrwt beam="1">  1       -4 0.79999843E-01 0.92801512E+02</pdfrwt>
<totfact> 0.12059515E+04</totfact>
</mgrwt>
</event>
<event>
 5    1  0.1270834E+001  0.1045828E+03  0.7546771E-02  0.1270944E+00
         -2   -1    0    0    0  501 -0.00000000000E+00  0.00000000000E+00  0.67627276581E+02  0.67627276581E+02  0.00000000000E+00 0.  1.
          2   -1    0    0  501    0  0.00000000000E+00 -0.00000000000E+00 -0.40433228899E+02  0.40433228899E+02  0.00000000000E+00 0. -1.
         23    2    1    2    0    0  0.00000000000E+00  0.00000000000E+00  0.27194047682E+02  0.10806050548E+03  0.10458277399E+03 0.  0.
        -13    1    3    3    0    0 -0.42945035047E+02  0.29797532993E+02  0.12057460271E+02  0.53642812714E+02  0.00000000000E+00 0. -1.
         13    1    3    3    0    0  0.42945035047E+02 -0.29797532993E+02  0.15136587411E+02  0.54417692767E+02  0.00000000000E+00 0.  1.
<mgrwt>
<rscale>  0 0.10458277E+03</rscale>
<asrwt>0</asrwt>
<pdfrwt beam="2">  1        2 0.62204967E-02 0.10458277E+03</pdfrwt>
<pdfrwt beam="1">  1       -2 0.10404196E-01 0.10458277E+03</pdfrwt>
<totfact> 0.63894813E+04</totfact>
</mgrwt>
</event>
<event>
 5    1  0.1270834E+001  0.9107662E+02  0.7546771E-02  0.1300265E+00
         -3   -1    0    0    0  501 -0.00000000000E+00  0.00000000000E+00  0.26730585341E+02  0.26730585341E+02  0.00000000000E+00 0.  1.
          3   -1    0    0  501    0  0.00000000000E+00 -0.00000000000E+00 -0.77579217408E+02  0.77579217408E+02  0.00000000000E+00 0. -1.
         23    2    1    2    0    0  0.00000000000E+00  0.00000000000E+00 -0.50848632067E+02  0.10430980275E+03  0.91076624699E+02 0.  0.
        -13    1    3    3    0    0  0.16627126775E+02 -0.19807827263E+02  0.17504113721E+02  0.31228278255E+02  0.00000000000E+00 0.  1.
         13    1    3    3    0    0 -0.16627126775E+02  0.19807827263E+02 -0.68352745788E+02  0.73081524494E+02  0.00000000000E+00 0. -1.
<mgrwt>
<rscale>  0 0.91076625E+02</rscale>
<asrwt>0</asrwt>
<pdfrwt beam="2">  1        3 0.11935264E-01 0.91076625E+02</pdfrwt>
<pdfrwt beam="1">  1       -3 0.41123977E-02 0.91076625E+02</pdfrwt>
<totfact> 0.34457624E+04</totfact>
</mgrwt>
</event>
<event>
 5    1  0.1270834E+001  0.9231049E+02  0.7546771E-02  0.1297351E+00
          1   -1    0    0  501    0  0.00000000000E+00  0.00000000000E+00  0.35559348898E+03  0.35559348898E+03  0.00000000000E+00 0. -1.
         -1   -1    0    0    0  501 -0.00000000000E+00 -0.00000000000E+00 -0.59908488762E+01  0.59908488762E+01  0.00000000000E+00 0.  1.
         23    2    1    2    0    0  0.00000000000E+00  0.00000000000E+00  0.34960264011E+03  0.36158433786E+03  0.92310494612E+02 0.  0.
        -11    1    3    3    0    0 -0.20279053662E+02  0.37807160817E+02  0.10813263998E+03  0.11633266633E+03  0.00000000000E+00 0.  1.
         11    1    3    3    0    0  0.20279053662E+02 -0.37807160817E+02  0.24147000013E+03  0.24525167153E+03  0.00000000000E+00 0. -1.
<mgrwt>
<rscale>  0 0.92310495E+02</rscale>
<asrwt>0</asrwt>
<pdfrwt beam="1">  1        1 0.54706674E-01 0.92310495E+02</pdfrwt>
<pdfrwt beam="2">  1       -1 0.92166934E-03 0.92310495E+02</pdfrwt>
<totfact> 0.12792688E+05</totfact>
</mgrwt>
</event>
<event>
 5    1  0.1270834E+001  0.9105526E+02  0.7546771E-02  0.1300316E+00
          1   -1    0    0  501    0  0.00000000000E+00  0.00000000000E+00  0.29488120053E+02  0.29488120053E+02  0.00000000000E+00 0. -1.
         -1   -1    0    0    0  501 -0.00000000000E+00 -0.00000000000E+00 -0.70291537744E+02  0.70291537744E+02  0.00000000000E+00 0.  1.
         23    2    1    2    0    0  0.00000000000E+00  0.00000000000E+00 -0.40803417690E+02  0.99779657797E+02  0.91055264619E+02 0.  0.
        -13    1    3    3    0    0 -0.29741887311E+02  0.14700711450E+02 -0.54567126207E+02  0.63861271835E+02  0.00000000000E+00 0.  1.
         13    1    3    3    0    0  0.29741887311E+02 -0.14700711450E+02  0.13763708516E+02  0.35918385961E+02  0.00000000000E+00 0. -1.
<mgrwt>
<rscale>  0 0.91055265E+02</rscale>
<asrwt>0</asrwt>
<pdfrwt beam="1">  1        1 0.45366339E-02 0.91055265E+02</pdfrwt>
<pdfrwt beam="2">  1       -1 0.10814083E-01 0.91055265E+02</pdfrwt>
<totfact> 0.86776133E+04</totfact>
</mgrwt>
</event>
<event>
 5    1  0.1270834E+001  0.9672619E+02  0.7546771E-02  0.1287335E+00
         -1   -1    0    0    0  501 -0.00000000000E+00  0.00000000000E+00  0.26501917903E+02  0.26501917903E+02  0.00000000000E+00 0.  1.
          1   -1    0    0  501    0  0.00000000000E+00 -0.00000000000E+00 -0.88257353505E+02  0.88257353505E+02  0.00000000000E+00 0. -1.
         23    2    1    2    0    0  0.00000000000E+00  0.00000000000E+00 -0.61755435602E+02  0.11475927141E+03  0.96726193699E+02 0.  0.
        -11    1    3    3    0    0  0.20150537543E+02 -0.42429722344E+02 -0.17212403294E+02  0.50025916569E+02  0.00000000000E+00 0.  1.
         11    1    3    3    0    0 -0.20150537543E+02  0.42429722344E+02 -0.44543032308E+02  0.64733354838E+02  0.00000000000E+00 0. -1.
<mgrwt>
<rscale>  0 0.96726194E+02</rscale>
<asrwt>0</asrwt>
<pdfrwt beam="2">  1        1 0.13578055E-01 0.96726194E+02</pdfrwt>
<pdfrwt beam="1">  1       -1 0.40772181E-02 0.96726194E+02</pdfrwt>
<totfact> 0.86992869E+04</totfact>
</mgrwt>
</event>
<event>
 5    1  0.1270834E+001  0.9185115E+02  0.7546771E-02  0.1298430E+00
         -1   -1    0    0    0  501 -0.00000000000E+00  0.00000000000E+00  0.11404899912E+03  0.11404899912E+03  0.00000000000E+00 0.  1.
          1   -1    0    0  501    0  0.00000000000E+00 -0.00000000000E+00 -0.18493440167E+02  0.18493440167E+02  0.00000000000E+00 0. -1.
         23    2    1    2    0    0  0.00000000000E+00  0.00000000000E+00  0.95555558956E+02  0.13254243929E+03  0.91851147872E+02 0.  0.
        -13    1    3    3    0    0 -0.37032482329E+02  0.26291855800E+01  0.86788306334E+02  0.94395590366E+02  0.00000000000E+00 0.  1.
         13    1    3    3    0    0  0.37032482329E+02 -0.26291855800E+01  0.87672526219E+01  0.38146848924E+02  0.00000000000E+00 0. -1.
<mgrwt>
<rscale>  0 0.91851148E+02</rscale>
<asrwt>0</asrwt>
<pdfrwt beam="2">  1        1 0.28451447E-02 0.91851148E+02</pdfrwt>
<pdfrwt beam="1">  1       -1 0.17545999E-01 0.91851148E+02</pdfrwt>
<totfact> 0.77843201E+04</totfact>
</mgrwt>
</event>
<event>
 5    1  0.1270834E+001  0.8389581E+02  0.7546771E-02  0.1318346E+00
          2   -1    0    0  501    0  0.00000000000E+00  0.00000000000E+00  0.91001222292E+02  0.91001222292E+02  0.00000000000E+00 0. -1.
         -2   -1    0    0    0  501 -0.00000000000E+00 -0.00000000000E+00 -0.19336296575E+02  0.19336296575E+02  0.00000000000E+00 0.  1.
         23    2    1    2    0    0  0.00000000000E+00  0.00000000000E+00  0.71664925717E+02  0.11033751887E+03  0.83895807354E+02 0.  0.
        -11    1    3    3    0    0  0.14388682400E+02  0.13486655768E+02  0.84524121391E+02  0.86794303742E+02  0.00000000000E+00 0. -1.
         11    1    3    3    0    0 -0.14388682400E+02 -0.13486655768E+02 -0.12859195675E+02  0.23543215125E+02  0.00000000000E+00 0.  1.
<mgrwt>
<rscale>  0 0.83895807E+02</rscale>
<asrwt>0</asrwt>
<pdfrwt beam="1">  1        2 0.14000188E-01 0.83895807E+02</pdfrwt>
<pdfrwt beam="2">  1       -2 0.29748149E-02 0.83895807E+02</pdfrwt>
<totfact> 0.14984743E+05</totfact>
</mgrwt>
</event>
<event>
 5    1  0.1270834E+001  0.8558418E+02  0.7546771E-02  0.1313912E+00
         -2   -1    0    0    0  501 -0.00000000000E+00  0.00000000000E+00  0.74425462598E+02  0.74425462598E+02  0.00000000000E+00 0. -1.
          2   -1    0    0  501    0  0.00000000000E+00 -0.00000000000E+00 -0.24603985802E+02  0.24603985802E+02  0.00000000000E+00 0.  1.
         23    2    1    2    0    0  0.00000000000E+00  0.00000000000E+00  0.49821476796E+02  0.99029448400E+02  0.85584181367E+02 0.  0.
        -11    1    3    3    0    0  0.60064316186E+01  0.19587453606E+02 -0.18560158705E+02  0.27644620647E+02  0.00000000000E+00 0.  1.
         11    1    3    3    0    0 -0.60064316186E+01 -0.19587453606E+02  0.68381635501E+02  0.71384827753E+02  0.00000000000E+00 0. -1.
<mgrwt>
<rscale>  0 0.85584181E+02</rscale>
<asrwt>0</asrwt>
<pdfrwt beam="2">  1        2 0.37852286E-02 0.85584181E+02</pdfrwt>
<pdfrwt beam="1">  1       -2 0.11450071E-01 0.85584181E+02</pdfrwt>
<totfact> 0.10131412E+05</totfact>
</mgrwt>
</event>
<event>
 5    1  0.1270834E+001  0.8889265E+02  0.7546771E-02  0.1305556E+00
         -1   -1    0    0    0  501 -0.00000000000E+00  0.00000000000E+00  0.17625284972E+03  0.17625284972E+03  0.00000000000E+00 0.  1.
          1   -1    0    0  501    0  0.00000000000E+00 -0.00000000000E+00 -0.11208191307E+02  0.11208191307E+02  0.00000000000E+00 0. -1.
         23    2    1    2    0    0  0.00000000000E+00  0.00000000000E+00  0.16504465841E+03  0.18746104103E+03  0.88892646670E+02 0.  0.
        -13    1    3    3    0    0  0.24933766503E+02 -0.35836672536E+02  0.10010509125E+03  0.10921075544E+03  0.00000000000E+00 0.  1.
         13    1    3    3    0    0 -0.24933766503E+02  0.35836672536E+02  0.64939567166E+02  0.78250285585E+02  0.00000000000E+00 0. -1.
<mgrwt>
<rscale>  0 0.88892647E+02</rscale>
<asrwt>0</asrwt>
<pdfrwt beam="2">  1        1 0.17243373E-02 0.88892647E+02</pdfrwt>
<pdfrwt beam="1">  1       -1 0.27115821E-01 0.88892647E+02</pdfrwt>
<totfact> 0.76762160E+04</totfact>
</mgrwt>
</event>
<event>
 5    1  0.1270834E+001  0.9136316E+02  0.7546771E-02  0.1299584E+00
          1   -1    0    0  501    0  0.00000000000E+00  0.00000000000E+00  0.51851165114E+02  0.51851165114E+02  0.00000000000E+00 0. -1.
         -1   -1    0    0    0  501 -0.00000000000E+00 -0.00000000000E+00 -0.40246092681E+02  0.40246092681E+02  0.00000000000E+00 0.  1.
         23    2    1    2    0    0  0.00000000000E+00  0.00000000000E+00  0.11605072434E+02  0.92097257795E+02  0.91363160996E+02 0.  0.
        -13    1    3    3    0    0 -0.15331705603E+02  0.38568407063E+02 -0.13435450021E+02  0.43624471772E+02  0.00000000000E+00 0.  1.
         13    1    3    3    0    0  0.15331705603E+02 -0.38568407063E+02  0.25040522455E+02  0.48472786024E+02  0.00000000000E+00 0. -1.
<mgrwt>
<rscale>  0 0.91363161E+02</rscale>
<asrwt>0</asrwt>
<pdfrwt beam="1">  1        1 0.79771023E-02 0.91363161E+02</pdfrwt>
<pdfrwt beam="2">  1       -1 0.61917066E-02 0.91363161E+02</pdfrwt>
<totfact> 0.93740779E+04</totfact>
</mgrwt>
</event>
<event>
 5    1  0.1270834E+001  0.9462904E+02  0.7546771E-02  0.1292014E+00
          2   -1    0    0  501    0  0.00000000000E+00  0.00000000000E+00  0.12272831575E+02  0.12272831575E+02  0.00000000000E+00 0. -1.
         -2   -1    0    0    0  501 -0.00000000000E+00 -0.00000000000E+00 -0.18240809093E+03  0.18240809093E+03  0.00000000000E+00 0.  1.
         23    2    1    2    0    0  0.00000000000E+00  0.00000000000E+00 -0.17013525935E+03  0.19468092251E+03  0.94629039475E+02 0.  0.
        -11    1    3    3    0    0 -0.44742920176E+02  0.11967310192E+02 -0.65172471236E+02  0.79953714273E+02  0.00000000000E+00 0.  1.
         11    1    3    3    0    0  0.44742920176E+02 -0.11967310192E+02 -0.10496278812E+03  0.11472720823E+03  0.00000000000E+00 0. -1.
<mgrwt>
<rscale>  0 0.94629039E+02</rscale>
<asrwt>0</asrwt>
<pdfrwt beam="1">  1        2 0.18881280E-02 0.94629039E+02</pdfrwt>
<pdfrwt beam="2">  1       -2 0.28062782E-01 0.94629039E+02</pdfrwt>
<totfact> 0.58924125E+04</totfact>
</mgrwt>
</event>
<event>
 5    1  0.1270834E+001  0.8783021E+02  0.7546771E-02  0.1308193E+00
          1   -1    0    0  501    0  0.00000000000E+00  0.00000000000E+00  0.30096809387E+02  0.30096809387E+02  0.00000000000E+00 0. -1.
         -1   -1    0    0    0  501 -0.00000000000E+00 -0.00000000000E+00 -0.64077777249E+02  0.64077777249E+02  0.00000000000E+00 0.  1.
         23    2    1    2    0    0  0.00000000000E+00  0.00000000000E+00 -0.33980967862E+02  0.94174586636E+02  0.87830214569E+02 0.  0.
        -13    1    3    3    0    0  0.30473614062E+02 -0.10140313266E+02 -0.49105107387E+02  0.58675196451E+02  0.00000000000E+00 0.  1.
         13    1    3    3    0    0 -0.30473614062E+02  0.10140313266E+02  0.15124139525E+02  0.35499390185E+02  0.00000000000E+00 0. -1.
<mgrwt>
<rscale>  0 0.87830215E+02</rscale>
<asrwt>0</asrwt>
<pdfrwt beam="1">  1        1 0.46302784E-02 0.87830215E+02</pdfrwt>
<pdfrwt beam="2">  1       -1 0.98581194E-02 0.87830215E+02</pdfrwt>
<totfact> 0.96511597E+04</totfact>
</mgrwt>
</event>
<event>
 5    1  0.1270834E+001  0.9069316E+02  0.7546771E-02  0.1301182E+00
         -1   -1    0    0    0  501 -0.00000000000E+00  0.00000000000E+00  0.55981895336E+02  0.55981895336E+02  0.00000000000E+00 0. -1.
          1   -1    0    0  501    0  0.00000000000E+00 -0.00000000000E+00 -0.36731740319E+02  0.36731740319E+02  0.00000000000E+00 0.  1.
         23    2    1    2    0    0  0.00000000000E+00  0.00000000000E+00  0.19250155017E+02  0.92713635656E+02  0.90693162743E+02 0.  0.
        -13    1    3    3    0    0  0.21517640619E+02  0.92478294562E+01  0.49320299168E+02  0.54598746482E+02  0.00000000000E+00 0. -1.
         13    1    3    3    0    0 -0.21517640619E+02 -0.92478294562E+01 -0.30070144151E+02  0.38114889173E+02  0.00000000000E+00 0.  1.
<mgrwt>
<rscale>  0 0.90693163E+02</rscale>
<asrwt>0</asrwt>
<pdfrwt beam="2">  1        1 0.56510370E-02 0.90693163E+02</pdfrwt>
<pdfrwt beam="1">  1       -1 0.86125993E-02 0.90693163E+02</pdfrwt>
<totfact> 0.90849392E+04</totfact>
</mgrwt>
</event>
<event>
 5    1  0.1270834E+001  0.8771316E+02  0.7546771E-02  0.1308486E+00
          2   -1    0    0  501    0  0.00000000000E+00  0.00000000000E+00  0.27432899155E+02  0.27432899155E+02  0.00000000000E+00 0. -1.
         -2   -1    0    0    0  501 -0.00000000000E+00 -0.00000000000E+00 -0.70112887123E+02  0.70112887123E+02  0.00000000000E+00 0.  1.
         23    2    1    2    0    0  0.00000000000E+00  0.00000000000E+00 -0.42679987968E+02  0.97545786277E+02  0.87713163479E+02 0.  0.
        -13    1    3    3    0    0 -0.29987582182E+02 -0.11790276542E+02  0.11746310678E+02  0.34296377661E+02  0.00000000000E+00 0. -1.
         13    1    3    3    0    0  0.29987582182E+02  0.11790276542E+02 -0.54426298646E+02  0.63249408617E+02  0.00000000000E+00 0.  1.
<mgrwt>
<rscale>  0 0.87713163E+02</rscale>
<asrwt>0</asrwt>
<pdfrwt beam="1">  1        2 0.42204461E-02 0.87713163E+02</pdfrwt>
<pdfrwt beam="2">  1       -2 0.10786598E-01 0.87713163E+02</pdfrwt>
<totfact> 0.96907417E+04</totfact>
</mgrwt>
</event>
<event>
 5    1  0.1270834E+001  0.8865494E+02  0.7546771E-02  0.1306142E+00
         -3   -1    0    0    0  501 -0.00000000000E+00  0.00000000000E+00  0.12305933911E+02  0.12305933911E+02  0.00000000000E+00 0.  1.
          3   -1    0    0  501    0  0.00000000000E+00 -0.00000000000E+00 -0.15967294551E+03  0.15967294551E+03  0.00000000000E+00 0. -1.
         23    2    1    2    0    0  0.00000000000E+00  0.00000000000E+00 -0.14736701160E+03  0.17197887942E+03  0.88654942668E+02 0.  0.
        -13    1    3    3    0    0  0.36060760355E+02 -0.63113736423E+01 -0.25197950066E+02  0.44442643510E+02  0.00000000000E+00 0.  1.
         13    1    3    3    0    0 -0.36060760355E+02  0.63113736423E+01 -0.12216906153E+03  0.12753623591E+03  0.00000000000E+00 0. -1.
<mgrwt>
<rscale>  0 0.88654943E+02</rscale>
<asrwt>0</asrwt>
<pdfrwt beam="2">  1        3 0.24565068E-01 0.88654943E+02</pdfrwt>
<pdfrwt beam="1">  1       -3 0.18932207E-02 0.88654943E+02</pdfrwt>
<totfact> 0.32370762E+04</totfact>
</mgrwt>
</event>
<event>
 5    1  0.1270834E+001  0.8852178E+02  0.7546771E-02  0.1306471E+00
         -2   -1    0    0    0  501 -0.00000000000E+00  0.00000000000E+00  0.17934832256E+02  0.17934832256E+02  0.00000000000E+00 0.  1.
          2   -1    0    0  501    0  0.00000000000E+00 -0.00000000000E+00 -0.10923025449E+03  0.10923025449E+03  0.00000000000E+00 0. -1.
         23    2    1    2    0    0  0.00000000000E+00  0.00000000000E+00 -0.91295422231E+02  0.12716508674E+03  0.88521777919E+02 0.  0.
        -13    1    3    3    0    0 -0.41712644841E+02  0.19044601642E+01 -0.24561641669E+02  0.48444256105E+02  0.00000000000E+00 0.  1.
         13    1    3    3    0    0  0.41712644841E+02 -0.19044601642E+01 -0.66733780562E+02  0.78720830637E+02  0.00000000000E+00 0. -1.
<mgrwt>
<rscale>  0 0.88521778E+02</rscale>
<asrwt>0</asrwt>
<pdfrwt beam="2">  1        2 0.16804655E-01 0.88521778E+02</pdfrwt>
<pdfrwt beam="1">  1       -2 0.27592049E-02 0.88521778E+02</pdfrwt>
<totfact> 0.13667485E+05</totfact>
</mgrwt>
</event>
<event>
 5    1  0.1270834E+001  0.8881814E+02  0.7546771E-02  0.1305739E+00
         -1   -1    0    0    0  501 -0.00000000000E+00  0.00000000000E+00  0.48224072726E+02  0.48224072726E+02  0.00000000000E+00 0.  1.
          1   -1    0    0  501    0  0.00000000000E+00 -0.00000000000E+00 -0.40895872664E+02  0.40895872664E+02  0.00000000000E+00 0. -1.
         23    2    1    2    0    0  0.00000000000E+00  0.00000000000E+00  0.73282000617E+01  0.89119945389E+02  0.88818140884E+02 0.  0.
        -11    1    3    3    0    0 -0.27870728997E+02  0.33771418202E+02  0.11097330107E+02  0.45171196107E+02  0.00000000000E+00 0.  1.
         11    1    3    3    0    0  0.27870728997E+02 -0.33771418202E+02 -0.37691300454E+01  0.43948749283E+02  0.00000000000E+00 0. -1.
<mgrwt>
<rscale>  0 0.88818141E+02</rscale>
<asrwt>0</asrwt>
<pdfrwt beam="2">  1        1 0.62916727E-02 0.88818141E+02</pdfrwt>
<pdfrwt beam="1">  1       -1 0.74190881E-02 0.88818141E+02</pdfrwt>
<totfact> 0.97929384E+04</totfact>
</mgrwt>
</event>
<event>
 5    1  0.1270834E+001  0.9063610E+02  0.7546771E-02  0.1301319E+00
         -2   -1    0    0    0  501 -0.00000000000E+00  0.00000000000E+00  0.94057025529E+02  0.94057025529E+02  0.00000000000E+00 0.  1.
          2   -1    0    0  501    0  0.00000000000E+00 -0.00000000000E+00 -0.21834899704E+02  0.21834899704E+02  0.00000000000E+00 0. -1.
         23    2    1    2    0    0  0.00000000000E+00  0.00000000000E+00  0.72222125825E+02  0.11589192523E+03  0.90636101393E+02 0.  0.
        -13    1    3    3    0    0 -0.13771074741E+02 -0.31833547308E+02 -0.11832270631E+01  0.34704715241E+02  0.00000000000E+00 0. -1.
         13    1    3    3    0    0  0.13771074741E+02  0.31833547308E+02  0.73405352888E+02  0.81187209992E+02  0.00000000000E+00 0.  1.
<mgrwt>
<rscale>  0 0.90636101E+02</rscale>
<asrwt>0</asrwt>
<pdfrwt beam="2">  1        2 0.33592154E-02 0.90636101E+02</pdfrwt>
<pdfrwt beam="1">  1       -2 0.14470311E-01 0.90636101E+02</pdfrwt>
<totfact> 0.82468570E+04</totfact>
</mgrwt>
</event>
<event>
 5    1  0.1270834E+001  0.8963238E+02  0.7546771E-02  0.1303744E+00
         -4   -1    0    0    0  501 -0.00000000000E+00  0.00000000000E+00  0.24244085979E+02  0.24244085979E+02  0.00000000000E+00 0.  1.
          4   -1    0    0  501    0  0.00000000000E+00 -0.00000000000E+00 -0.82844570421E+02  0.82844570421E+02  0.00000000000E+00 0. -1.
         23    2    1    2    0    0  0.00000000000E+00  0.00000000000E+00 -0.58600484442E+02  0.10708865640E+03  0.89632380045E+02 0.  0.
        -11    1    3    3    0    0  0.38730204652E+02 -0.92755839433E+00 -0.23824085339E+01  0.38814494553E+02  0.00000000000E+00 0.  1.
         11    1    3    3    0    0 -0.38730204652E+02  0.92755839433E+00 -0.56218075908E+02  0.68274161846E+02  0.00000000000E+00 0. -1.
<mgrwt>
<rscale>  0 0.89632380E+02</rscale>
<asrwt>0</asrwt>
<pdfrwt beam="2">  1        4 0.12745319E-01 0.89632380E+02</pdfrwt>
<pdfrwt beam="1">  1       -4 0.37298594E-02 0.89632380E+02</pdfrwt>
<totfact> 0.27254593E+04</totfact>
</mgrwt>
</event>
<event>
 5    1  0.1270834E+001  0.9113211E+02  0.7546771E-02  0.1300133E+00
          4   -1    0    0  501    0  0.00000000000E+00  0.00000000000E+00  0.39165856353E+03  0.39165856353E+03  0.00000000000E+00 0. -1.
         -4   -1    0    0    0  501 -0.00000000000E+00 -0.00000000000E+00 -0.53012129224E+01  0.53012129224E+01  0.00000000000E+00 0.  1.
         23    2    1    2    0    0  0.00000000000E+00  0.00000000000E+00  0.38635735061E+03  0.39695977645E+03  0.91132111534E+02 0.  0.
        -11    1    3    3    0    0 -0.20686484705E+02 -0.40584647936E+02  0.19799214124E+03  0.20316479097E+03  0.00000000000E+00 0.  1.
         11    1    3    3    0    0  0.20686484705E+02  0.40584647936E+02  0.18836520937E+03  0.19379498548E+03  0.00000000000E+00 0. -1.
<mgrwt>
<rscale>  0 0.91132112E+02</rscale>
<asrwt>0</asrwt>
<pdfrwt beam="1">  1        4 0.60255141E-01 0.91132112E+02</pdfrwt>
<pdfrwt beam="2">  1       -4 0.81557153E-03 0.91132112E+02</pdfrwt>
<totfact> 0.15241206E+04</totfact>
</mgrwt>
</event>
<event>
 5    1  0.1270834E+001  0.9681416E+02  0.7546771E-02  0.1287142E+00
         -2   -1    0    0    0  501 -0.00000000000E+00  0.00000000000E+00  0.11665909038E+02  0.11665909038E+02  0.00000000000E+00 0.  1.
          2   -1    0    0  501    0  0.00000000000E+00 -0.00000000000E+00 -0.20086266826E+03  0.20086266826E+03  0.00000000000E+00 0. -1.
         23    2    1    2    0    0  0.00000000000E+00  0.00000000000E+00 -0.18919675922E+03  0.21252857730E+03  0.96814164604E+02 0.  0.
        -13    1    3    3    0    0 -0.20861104141E+02 -0.43578720998E+02 -0.10116757057E+03  0.11211230051E+03  0.00000000000E+00 0. -1.
         13    1    3    3    0    0  0.20861104141E+02  0.43578720998E+02 -0.88029188650E+02  0.10041627679E+03  0.00000000000E+00 0.  1.
<mgrwt>
<rscale>  0 0.96814165E+02</rscale>
<asrwt>0</asrwt>
<pdfrwt beam="2">  1        2 0.30901949E-01 0.96814165E+02</pdfrwt>
<pdfrwt beam="1">  1       -2 0.17947552E-02 0.96814165E+02</pdfrwt>
<totfact> 0.13172568E+05</totfact>
</mgrwt>
</event>
<event>
 5    1  0.1270834E+001  0.8544085E+02  0.7546771E-02  0.1314284E+00
         -3   -1    0    0    0  501 -0.00000000000E+00  0.00000000000E+00  0.11863626968E+03  0.11863626968E+03  0.00000000000E+00 0.  1.
          3   -1    0    0  501    0  0.00000000000E+00 -0.00000000000E+00 -0.15383448034E+02  0.15383448034E+02  0.00000000000E+00 0. -1.
         23    2    1    2    0    0  0.00000000000E+00  0.00000000000E+00  0.10325282165E+03  0.13401971772E+03  0.85440854152E+02 0.  0.
        -13    1    3    3    0    0 -0.21321456489E+02 -0.23853489240E+02  0.72206809056E+01  0.32798348868E+02  0.00000000000E+00 0. -1.
         13    1    3    3    0    0  0.21321456489E+02  0.23853489240E+02  0.96032140743E+02  0.10122136885E+03  0.00000000000E+00 0.  1.
<mgrwt>
<rscale>  0 0.85440854E+02</rscale>
<asrwt>0</asrwt>
<pdfrwt beam="2">  1        3 0.23666844E-02 0.85440854E+02</pdfrwt>
<pdfrwt beam="1">  1       -3 0.18251733E-01 0.85440854E+02</pdfrwt>
<totfact> 0.38506507E+04</totfact>
</mgrwt>
</event>
<event>
 5    1  0.1270834E+001  0.7202222E+02  0.7546771E-02  0.1353348E+00
          1   -1    0    0  501    0  0.00000000000E+00  0.00000000000E+00  0.14421205026E+03  0.14421205026E+03  0.00000000000E+00 0. -1.
         -1   -1    0    0    0  501 -0.00000000000E+00 -0.00000000000E+00 -0.89923135726E+01  0.89923135726E+01  0.00000000000E+00 0.  1.
         23    2    1    2    0    0  0.00000000000E+00  0.00000000000E+00  0.13521973668E+03  0.15320436383E+03  0.72022218151E+02 0.  0.
        -11    1    3    3    0    0  0.25175557956E+02  0.24511533605E+02  0.50836667070E+02  0.61797983113E+02  0.00000000000E+00 0. -1.
         11    1    3    3    0    0 -0.25175557956E+02 -0.24511533605E+02  0.84383069613E+02  0.91406380715E+02  0.00000000000E+00 0.  1.
<mgrwt>
<rscale>  0 0.72022218E+02</rscale>
<asrwt>0</asrwt>
<pdfrwt beam="1">  1        1 0.22186468E-01 0.72022218E+02</pdfrwt>
<pdfrwt beam="2">  1       -1 0.13834330E-02 0.72022218E+02</pdfrwt>
<totfact> 0.20854777E+05</totfact>
</mgrwt>
</event>
<event>
 5    1  0.1270834E+001  0.9115623E+02  0.7546771E-02  0.1300076E+00
          2   -1    0    0  501    0  0.00000000000E+00  0.00000000000E+00  0.34781856743E+03  0.34781856743E+03  0.00000000000E+00 0. -1.
         -2   -1    0    0    0  501 -0.00000000000E+00 -0.00000000000E+00 -0.59725516545E+01  0.59725516545E+01  0.00000000000E+00 0.  1.
         23    2    1    2    0    0  0.00000000000E+00  0.00000000000E+00  0.34184601577E+03  0.35379111908E+03  0.91156225467E+02 0.  0.
        -13    1    3    3    0    0 -0.39801626251E+02  0.16881319024E+02  0.22692682358E+03  0.23100850990E+03  0.00000000000E+00 0. -1.
         13    1    3    3    0    0  0.39801626251E+02 -0.16881319024E+02  0.11491919219E+03  0.12278260918E+03  0.00000000000E+00 0.  1.
<mgrwt>
<rscale>  0 0.91156225E+02</rscale>
<asrwt>0</asrwt>
<pdfrwt beam="1">  1        2 0.53510533E-01 0.91156225E+02</pdfrwt>
<pdfrwt beam="2">  1       -2 0.91885437E-03 0.91156225E+02</pdfrwt>
<totfact> 0.18987617E+05</totfact>
</mgrwt>
</event>
<event>
 5    1  0.1270834E+001  0.9151093E+02  0.7546771E-02  0.1299233E+00
          2   -1    0    0  501    0  0.00000000000E+00  0.00000000000E+00  0.36826491424E+03  0.36826491424E+03  0.00000000000E+00 0. -1.
         -2   -1    0    0    0  501 -0.00000000000E+00 -0.00000000000E+00 -0.56849368186E+01  0.56849368186E+01  0.00000000000E+00 0.  1.
         23    2    1    2    0    0  0.00000000000E+00  0.00000000000E+00  0.36257997742E+03  0.37394985106E+03  0.91510934209E+02 0.  0.
        -13    1    3    3    0    0 -0.30979231559E+02 -0.30397487271E+02  0.12209467047E+03  0.12957942961E+03  0.00000000000E+00 0.  1.
         13    1    3    3    0    0  0.30979231559E+02  0.30397487271E+02  0.24048530694E+03  0.24437042144E+03  0.00000000000E+00 0. -1.
<mgrwt>
<rscale>  0 0.91510934E+02</rscale>
<asrwt>0</asrwt>
<pdfrwt beam="1">  1        2 0.56656122E-01 0.91510934E+02</pdfrwt>
<pdfrwt beam="2">  1       -2 0.87460595E-03 0.91510934E+02</pdfrwt>
<totfact> 0.19187859E+05</totfact>
</mgrwt>
</event>
<event>
 5    1  0.1270834E+001  0.9184648E+02  0.7546771E-02  0.1298441E+00
         -1   -1    0    0    0  501 -0.00000000000E+00  0.00000000000E+00  0.60454773918E+01  0.60454773918E+01  0.00000000000E+00 0.  1.
          1   -1    0    0  501    0  0.00000000000E+00 -0.00000000000E+00 -0.34884652719E+03  0.34884652719E+03  0.00000000000E+00 0. -1.
         23    2    1    2    0    0  0.00000000000E+00  0.00000000000E+00 -0.34280104980E+03  0.35489200458E+03  0.91846476107E+02 0.  0.
        -13    1    3    3    0    0  0.25957399675E+02 -0.33818140737E+02 -0.10543060472E+03  0.11372363718E+03  0.00000000000E+00 0.  1.
         13    1    3    3    0    0 -0.25957399675E+02  0.33818140737E+02 -0.23737044508E+03  0.24116836741E+03  0.00000000000E+00 0. -1.
<mgrwt>
<rscale>  0 0.91846476E+02</rscale>
<asrwt>0</asrwt>
<pdfrwt beam="2">  1        1 0.53668707E-01 0.91846476E+02</pdfrwt>
<pdfrwt beam="1">  1       -1 0.93007327E-03 0.91846476E+02</pdfrwt>
<totfact> 0.12921332E+05</totfact>
</mgrwt>
</event>
<event>
 5    1  0.1270834E+001  0.9097974E+02  0.7546771E-02  0.1300496E+00
         -3   -1    0    0    0  501 -0.00000000000E+00  0.00000000000E+00  0.12353198350E+02  0.12353198350E+02  0.00000000000E+00 0.  1.
          3   -1    0    0  501    0  0.00000000000E+00 -0.00000000000E+00 -0.16751357182E+03  0.16751357182E+03  0.00000000000E+00 0. -1.
         23    2    1    2    0    0  0.00000000000E+00  0.00000000000E+00 -0.15516037347E+03  0.17986677017E+03  0.90979742340E+02 0.  0.
        -11    1    3    3    0    0 -0.20721281600E+02 -0.28190760358E+02 -0.13505740143E+03  0.13951556244E+03  0.00000000000E+00 0. -1.
         11    1    3    3    0    0  0.20721281600E+02  0.28190760358E+02 -0.20102972039E+02  0.40351207733E+02  0.00000000000E+00 0.  1.
<mgrwt>
<rscale>  0 0.90979742E+02</rscale>
<asrwt>0</asrwt>
<pdfrwt beam="2">  1        3 0.25771319E-01 0.90979742E+02</pdfrwt>
<pdfrwt beam="1">  1       -3 0.19004920E-02 0.90979742E+02</pdfrwt>
<totfact> 0.29746948E+04</totfact>
</mgrwt>
</event>
<event>
 5    1  0.1270834E+001  0.9125236E+02  0.7546771E-02  0.1299847E+00
          2   -1    0    0  501    0  0.00000000000E+00  0.00000000000E+00  0.43653155926E+02  0.43653155926E+02  0.00000000000E+00 0. -1.
         -2   -1    0    0    0  501 -0.00000000000E+00 -0.00000000000E+00 -0.47688380805E+02  0.47688380805E+02  0.00000000000E+00 0.  1.
         23    2    1    2    0    0  0.00000000000E+00  0.00000000000E+00 -0.40352248787E+01  0.91341536731E+02  0.91252360477E+02 0.  0.
        -11    1    3    3    0    0  0.28672576107E+02 -0.34814338912E+02  0.48879342786E+01  0.45365699774E+02  0.00000000000E+00 0.  1.
         11    1    3    3    0    0 -0.28672576107E+02  0.34814338912E+02 -0.89231591573E+01  0.45975836957E+02  0.00000000000E+00 0. -1.
<mgrwt>
<rscale>  0 0.91252360E+02</rscale>
<asrwt>0</asrwt>
<pdfrwt beam="1">  1        2 0.67158702E-02 0.91252360E+02</pdfrwt>
<pdfrwt beam="2">  1       -2 0.73366739E-02 0.91252360E+02</pdfrwt>
<totfact> 0.97338483E+04</totfact>
</mgrwt>
</event>
<event>
 5    1  0.1270834E+001  0.9023490E+02  0.7546771E-02  0.1302284E+00
         -2   -1    0    0    0  501 -0.00000000000E+00  0.00000000000E+00  0.53243063486E+02  0.53243063486E+02  0.00000000000E+00 0.  1.
          2   -1    0    0  501    0  0.00000000000E+00 -0.00000000000E+00 -0.38231914113E+02  0.38231914113E+02  0.00000000000E+00 0. -1.
         23    2    1    2    0    0  0.00000000000E+00  0.00000000000E+00  0.15011149373E+02  0.91474977599E+02  0.90234898577E+02 0.  0.
        -11    1    3    3    0    0  0.81218224290E+00 -0.32557475520E+02  0.39158634059E+02  0.50931792365E+02  0.00000000000E+00 0.  1.
         11    1    3    3    0    0 -0.81218224290E+00  0.32557475520E+02 -0.24147484686E+02  0.40543185233E+02  0.00000000000E+00 0. -1.
<mgrwt>
<rscale>  0 0.90234899E+02</rscale>
<asrwt>0</asrwt>
<pdfrwt beam="2">  1        2 0.58818329E-02 0.90234899E+02</pdfrwt>
<pdfrwt beam="1">  1       -2 0.81912406E-02 0.90234899E+02</pdfrwt>
<totfact> 0.97161835E+04</totfact>
</mgrwt>
</event>
<event>
 5    1  0.1270834E+001  0.9135282E+02  0.7546771E-02  0.1299608E+00
         -2   -1    0    0    0  501 -0.00000000000E+00  0.00000000000E+00  0.10349050188E+02  0.10349050188E+02  0.00000000000E+00 0.  1.
          2   -1    0    0  501    0  0.00000000000E+00 -0.00000000000E+00 -0.20159669866E+03  0.20159669866E+03  0.00000000000E+00 0. -1.
         23    2    1    2    0    0  0.00000000000E+00  0.00000000000E+00 -0.19124764847E+03  0.21194574885E+03  0.91352818287E+02 0.  0.
        -13    1    3    3    0    0  0.39328121249E+02  0.98319910407E+01 -0.46793730704E+02  0.61911407689E+02  0.00000000000E+00 0.  1.
         13    1    3    3    0    0 -0.39328121249E+02 -0.98319910407E+01 -0.14445391777E+03  0.15003434116E+03  0.00000000000E+00 0. -1.
<mgrwt>
<rscale>  0 0.91352818E+02</rscale>
<asrwt>0</asrwt>
<pdfrwt beam="2">  1        2 0.31014873E-01 0.91352818E+02</pdfrwt>
<pdfrwt beam="1">  1       -2 0.15921618E-02 0.91352818E+02</pdfrwt>
<totfact> 0.15432150E+05</totfact>
</mgrwt>
</event>
<event>
 5    1  0.1270834E+001  0.9401130E+02  0.7546771E-02  0.1293419E+00
         -4   -1    0    0    0  501 -0.00000000000E+00  0.00000000000E+00  0.45960822747E+02  0.45960822747E+02  0.00000000000E+00 0.  1.
          4   -1    0    0  501    0  0.00000000000E+00 -0.00000000000E+00 -0.48074233396E+02  0.48074233396E+02  0.00000000000E+00 0. -1.
         23    2    1    2    0    0  0.00000000000E+00  0.00000000000E+00 -0.21134106484E+01  0.94035056143E+02  0.94011303997E+02 0.  0.
        -13    1    3    3    0    0  0.15014779692E+02  0.30543580720E+02  0.31373352011E+02  0.46288671927E+02  0.00000000000E+00 0.  1.
         13    1    3    3    0    0 -0.15014779692E+02 -0.30543580720E+02 -0.33486762659E+02  0.47746384216E+02  0.00000000000E+00 0. -1.
<mgrwt>
<rscale>  0 0.94011304E+02</rscale>
<asrwt>0</asrwt>
<pdfrwt beam="2">  1        4 0.73960359E-02 0.94011304E+02</pdfrwt>
<pdfrwt beam="1">  1       -4 0.70708958E-02 0.94011304E+02</pdfrwt>
<totfact> 0.24686100E+04</totfact>
</mgrwt>
</event>
<event>
 5    1  0.1270834E+001  0.9210552E+02  0.7546771E-02  0.1297832E+00
         -1   -1    0    0    0  501 -0.00000000000E+00  0.00000000000E+00  0.30106110840E+03  0.30106110840E+03  0.00000000000E+00 0.  1.
          1   -1    0    0  501    0  0.00000000000E+00 -0.00000000000E+00 -0.70446051002E+01  0.70446051002E+01  0.00000000000E+00 0. -1.
         23    2    1    2    0    0  0.00000000000E+00  0.00000000000E+00  0.29401650330E+03  0.30810571350E+03  0.92105518178E+02 0.  0.
        -11    1    3    3    0    0 -0.13108168320E+02  0.43863672489E+02  0.16373754933E+03  0.17001714885E+03  0.00000000000E+00 0. -1.
         11    1    3    3    0    0  0.13108168320E+02 -0.43863672489E+02  0.13027895397E+03  0.13808856465E+03  0.00000000000E+00 0.  1.
<mgrwt>
<rscale>  0 0.92105518E+02</rscale>
<asrwt>0</asrwt>
<pdfrwt beam="2">  1        1 0.10837856E-02 0.92105518E+02</pdfrwt>
<pdfrwt beam="1">  1       -1 0.46317083E-01 0.92105518E+02</pdfrwt>
<totfact> 0.58918044E+04</totfact>
</mgrwt>
</event>
<event>
 5    1  0.1270834E+001  0.8879936E+02  0.7546771E-02  0.1305786E+00
         -2   -1    0    0    0  501 -0.00000000000E+00  0.00000000000E+00  0.67728314047E+02  0.67728314047E+02  0.00000000000E+00 0.  1.
          2   -1    0    0  501    0  0.00000000000E+00 -0.00000000000E+00 -0.29106461474E+02  0.29106461474E+02  0.00000000000E+00 0. -1.
         23    2    1    2    0    0  0.00000000000E+00  0.00000000000E+00  0.38621852573E+02  0.96834775521E+02  0.88799359537E+02 0.  0.
        -11    1    3    3    0    0 -0.19503395180E+02  0.39582411030E+02  0.13948435968E+02  0.46278597131E+02  0.00000000000E+00 0.  1.
         11    1    3    3    0    0  0.19503395180E+02 -0.39582411030E+02  0.24673416605E+02  0.50556178390E+02  0.00000000000E+00 0. -1.
<mgrwt>
<rscale>  0 0.88799360E+02</rscale>
<asrwt>0</asrwt>
<pdfrwt beam="2">  1        2 0.44779172E-02 0.88799360E+02</pdfrwt>
<pdfrwt beam="1">  1       -2 0.10419741E-01 0.88799360E+02</pdfrwt>
<totfact> 0.94900593E+04</totfact>
</mgrwt>
</event>
<event>
 5    1  0.1270834E+001  0.8987287E+02  0.7546771E-02  0.1303160E+00
          3   -1    0    0  501    0  0.00000000000E+00  0.00000000000E+00  0.64089698880E+02  0.64089698880E+02  0.00000000000E+00 0. -1.
         -3   -1    0    0    0  501 -0.00000000000E+00 -0.00000000000E+00 -0.31507142567E+02  0.31507142567E+02  0.00000000000E+00 0.  1.
         23    2    1    2    0    0  0.00000000000E+00  0.00000000000E+00  0.32582556313E+02  0.95596841448E+02  0.89872871985E+02 0.  0.
        -11    1    3    3    0    0 -0.21115339127E+02  0.21233586711E+02 -0.19347253863E+02  0.35651633666E+02  0.00000000000E+00 0.  1.
         11    1    3    3    0    0  0.21115339127E+02 -0.21233586711E+02  0.51929810175E+02  0.59945207781E+02  0.00000000000E+00 0. -1.
<mgrwt>
<rscale>  0 0.89872872E+02</rscale>
<asrwt>0</asrwt>
<pdfrwt beam="1">  1        3 0.98599537E-02 0.89872872E+02</pdfrwt>
<pdfrwt beam="2">  1       -3 0.48472527E-02 0.89872872E+02</pdfrwt>
<totfact> 0.36397844E+04</totfact>
</mgrwt>
</event>
<event>
 5    1  0.1270834E+001  0.8771111E+02  0.7546771E-02  0.1308491E+00
         -4   -1    0    0    0  501 -0.00000000000E+00  0.00000000000E+00  0.61817824430E+02  0.61817824430E+02  0.00000000000E+00 0.  1.
          4   -1    0    0  501    0  0.00000000000E+00 -0.00000000000E+00 -0.31112539321E+02  0.31112539321E+02  0.00000000000E+00 0. -1.
         23    2    1    2    0    0  0.00000000000E+00  0.00000000000E+00  0.30705285109E+02  0.92930363751E+02  0.87711105188E+02 0.  0.
        -11    1    3    3    0    0  0.34207303784E+02 -0.14515960795E+02 -0.93239738437E+01  0.38311737604E+02  0.00000000000E+00 0. -1.
         11    1    3    3    0    0 -0.34207303784E+02  0.14515960795E+02  0.40029258953E+02  0.54618626148E+02  0.00000000000E+00 0.  1.
<mgrwt>
<rscale>  0 0.87711105E+02</rscale>
<asrwt>0</asrwt>
<pdfrwt beam="2">  1        4 0.47865445E-02 0.87711105E+02</pdfrwt>
<pdfrwt beam="1">  1       -4 0.95104345E-02 0.87711105E+02</pdfrwt>
<totfact> 0.29872756E+04</totfact>
</mgrwt>
</event>
<event>
 5    1  0.1270834E+001  0.8049318E+02  0.7546771E-02  0.1327658E+00
         -1   -1    0    0    0  501 -0.00000000000E+00  0.00000000000E+00  0.25881820826E+02  0.25881820826E+02  0.00000000000E+00 0.  1.
          1   -1    0    0  501    0  0.00000000000E+00 -0.00000000000E+00 -0.62584008274E+02  0.62584008274E+02  0.00000000000E+00 0. -1.
         23    2    1    2    0    0  0.00000000000E+00  0.00000000000E+00 -0.36702187448E+02  0.88465829100E+02  0.80493182040E+02 0.  0.
        -13    1    3    3    0    0  0.17497610748E+02  0.34070182717E+02 -0.47635435827E+01  0.38595790959E+02  0.00000000000E+00 0.  1.
         13    1    3    3    0    0 -0.17497610748E+02 -0.34070182717E+02 -0.31938643865E+02  0.49870038141E+02  0.00000000000E+00 0. -1.
<mgrwt>
<rscale>  0 0.80493182E+02</rscale>
<asrwt>0</asrwt>
<pdfrwt beam="2">  1        1 0.96283089E-02 0.80493182E+02</pdfrwt>
<pdfrwt beam="1">  1       -1 0.39818186E-02 0.80493182E+02</pdfrwt>
<totfact> 0.13650992E+05</totfact>
</mgrwt>
</event>
<event>
 5    1  0.1270834E+001  0.9206737E+02  0.7546771E-02  0.1297921E+00
          2   -1    0    0  501    0  0.00000000000E+00  0.00000000000E+00  0.35359026651E+02  0.35359026651E+02  0.00000000000E+00 0. -1.
         -2   -1    0    0    0  501 -0.00000000000E+00 -0.00000000000E+00 -0.59930946824E+02  0.59930946824E+02  0.00000000000E+00 0.  1.
         23    2    1    2    0    0  0.00000000000E+00  0.00000000000E+00 -0.24571920174E+02  0.95289973475E+02  0.92067365466E+02 0.  0.
        -11    1    3    3    0    0 -0.11458140926E+02  0.33977945954E+02 -0.42163499210E+02  0.55349349322E+02  0.00000000000E+00 0.  1.
         11    1    3    3    0    0  0.11458140926E+02 -0.33977945954E+02  0.17591579036E+02  0.39940624153E+02  0.00000000000E+00 0. -1.
<mgrwt>
<rscale>  0 0.92067365E+02</rscale>
<asrwt>0</asrwt>
<pdfrwt beam="1">  1        2 0.54398503E-02 0.92067365E+02</pdfrwt>
<pdfrwt beam="2">  1       -2 0.92201456E-02 0.92067365E+02</pdfrwt>
<totfact> 0.89788161E+04</totfact>
</mgrwt>
</event>
<event>
 5    1  0.1270834E+001  0.8208801E+02  0.7546771E-02  0.1323228E+00
          1   -1    0    0  501    0  0.00000000000E+00  0.00000000000E+00  0.26485336996E+03  0.26485336996E+03  0.00000000000E+00 0. -1.
         -1   -1    0    0    0  501 -0.00000000000E+00 -0.00000000000E+00 -0.63605399461E+01  0.63605399461E+01  0.00000000000E+00 0.  1.
         23    2    1    2    0    0  0.00000000000E+00  0.00000000000E+00  0.25849283001E+03  0.27121390990E+03  0.82088012267E+02 0.  0.
        -13    1    3    3    0    0  0.34009710803E+02 -0.12683058851E+02  0.65944257211E+02  0.75273936192E+02  0.00000000000E+00 0.  1.
         13    1    3    3    0    0 -0.34009710803E+02  0.12683058851E+02  0.19254857280E+03  0.19593997371E+03  0.00000000000E+00 0. -1.
<mgrwt>
<rscale>  0 0.82088012E+02</rscale>
<asrwt>0</asrwt>
<pdfrwt beam="1">  1        1 0.40746664E-01 0.82088012E+02</pdfrwt>
<pdfrwt beam="2">  1       -1 0.97854481E-03 0.82088012E+02</pdfrwt>
<totfact> 0.16525926E+05</totfact>
</mgrwt>
</event>
<event>
 5    1  0.1270834E+001  0.9157993E+02  0.7546771E-02  0.1299070E+00
          2   -1    0    0  501    0  0.00000000000E+00  0.00000000000E+00  0.11194091559E+03  0.11194091559E+03  0.00000000000E+00 0.  1.
         -2   -1    0    0    0  501 -0.00000000000E+00 -0.00000000000E+00 -0.18730601704E+02  0.18730601704E+02  0.00000000000E+00 0. -1.
         23    2    1    2    0    0  0.00000000000E+00  0.00000000000E+00  0.93210313888E+02  0.13067151730E+03  0.91579925844E+02 0.  0.
        -11    1    3    3    0    0 -0.86592397859E+01  0.25115661697E+02  0.99820286890E+02  0.10329505589E+03  0.00000000000E+00 0.  1.
         11    1    3    3    0    0  0.86592397859E+01 -0.25115661697E+02 -0.66099730020E+01  0.27376461409E+02  0.00000000000E+00 0. -1.
<mgrwt>
<rscale>  0 0.91579926E+02</rscale>
<asrwt>0</asrwt>
<pdfrwt beam="1">  1        2 0.17221679E-01 0.91579926E+02</pdfrwt>
<pdfrwt beam="2">  1       -2 0.28816311E-02 0.91579926E+02</pdfrwt>
<totfact> 0.12550380E+05</totfact>
</mgrwt>
</event>
<event>
 5    1  0.1270834E+001  0.8893617E+02  0.7546771E-02  0.1305449E+00
          3   -1    0    0  501    0  0.00000000000E+00  0.00000000000E+00  0.93019078892E+02  0.93019078892E+02  0.00000000000E+00 0. -1.
         -3   -1    0    0    0  501 -0.00000000000E+00 -0.00000000000E+00 -0.21258118708E+02  0.21258118708E+02  0.00000000000E+00 0.  1.
         23    2    1    2    0    0  0.00000000000E+00  0.00000000000E+00  0.71760960183E+02  0.11427719760E+03  0.88936170847E+02 0.  0.
        -13    1    3    3    0    0 -0.17278094058E+02 -0.26431811593E+02  0.76110180107E+02  0.82401048016E+02  0.00000000000E+00 0. -1.
         13    1    3    3    0    0  0.17278094058E+02  0.26431811593E+02 -0.43492199232E+01  0.31876149584E+02  0.00000000000E+00 0.  1.
<mgrwt>
<rscale>  0 0.88936171E+02</rscale>
<asrwt>0</asrwt>
<pdfrwt beam="1">  1        3 0.14310627E-01 0.88936171E+02</pdfrwt>
<pdfrwt beam="2">  1       -3 0.32704799E-02 0.88936171E+02</pdfrwt>
<totfact> 0.35988471E+04</totfact>
</mgrwt>
</event>
<event>
 5    1  0.1270834E+001  0.9228903E+02  0.7546771E-02  0.1297401E+00
         -3   -1    0    0    0  501 -0.00000000000E+00  0.00000000000E+00  0.22583067481E+02  0.22583067481E+02  0.00000000000E+00 0.  1.
          3   -1    0    0  501    0  0.00000000000E+00 -0.00000000000E+00 -0.94288171614E+02  0.94288171614E+02  0.00000000000E+00 0. -1.
         23    2    1    2    0    0  0.00000000000E+00  0.00000000000E+00 -0.71705104132E+02  0.11687123909E+03  0.92289027348E+02 0.  0.
        -13    1    3    3    0    0 -0.26935825555E+02 -0.28700937128E+02 -0.53536521325E+01  0.39723344290E+02  0.00000000000E+00 0.  1.
         13    1    3    3    0    0  0.26935825555E+02  0.28700937128E+02 -0.66351452000E+02  0.77147894805E+02  0.00000000000E+00 0. -1.
<mgrwt>
<rscale>  0 0.92289027E+02</rscale>
<asrwt>0</asrwt>
<pdfrwt beam="2">  1        3 0.14505873E-01 0.92289027E+02</pdfrwt>
<pdfrwt beam="1">  1       -3 0.34743181E-02 0.92289027E+02</pdfrwt>
<totfact> 0.32374996E+04</totfact>
</mgrwt>
</event>
<event>
 5    1  0.1270834E+001  0.9134513E+02  0.7546771E-02  0.1299627E+00
          2   -1    0    0  501    0  0.00000000000E+00  0.00000000000E+00  0.52007683208E+02  0.52007683208E+02  0.00000000000E+00 0.  1.
         -2   -1    0    0    0  501 -0.00000000000E+00 -0.00000000000E+00 -0.40109136505E+02  0.40109136505E+02  0.00000000000E+00 0. -1.
         23    2    1    2    0    0  0.00000000000E+00  0.00000000000E+00  0.11898546702E+02  0.92116819713E+02  0.91345131564E+02 0.  0.
        -11    1    3    3    0    0  0.12303999453E+02 -0.27524970644E+02  0.40546109456E+02  0.50527214483E+02  0.00000000000E+00 0.  1.
         11    1    3    3    0    0 -0.12303999453E+02  0.27524970644E+02 -0.28647562753E+02  0.41589605230E+02  0.00000000000E+00 0. -1.
<mgrwt>
<rscale>  0 0.91345132E+02</rscale>
<asrwt>0</asrwt>
<pdfrwt beam="1">  1        2 0.80011821E-02 0.91345132E+02</pdfrwt>
<pdfrwt beam="2">  1       -2 0.61706363E-02 0.91345132E+02</pdfrwt>
<totfact> 0.10159023E+05</totfact>
</mgrwt>
</event>
<event>
 5    1  0.1270834E+001  0.9128853E+02  0.7546771E-02  0.1299761E+00
         -2   -1    0    0    0  501 -0.00000000000E+00  0.00000000000E+00  0.21976269981E+02  0.21976269981E+02  0.00000000000E+00 0. -1.
          2   -1    0    0  501    0  0.00000000000E+00 -0.00000000000E+00 -0.94802198678E+02  0.94802198678E+02  0.00000000000E+00 0.  1.
         23    2    1    2    0    0  0.00000000000E+00  0.00000000000E+00 -0.72825928697E+02  0.11677846866E+03  0.91288525302E+02 0.  0.
        -13    1    3    3    0    0 -0.87376341528E+01  0.35150048570E+02 -0.71945158117E+02  0.80547985335E+02  0.00000000000E+00 0.  1.
         13    1    3    3    0    0  0.87376341528E+01 -0.35150048570E+02 -0.88077058009E+00  0.36230483324E+02  0.00000000000E+00 0. -1.
<mgrwt>
<rscale>  0 0.91288525E+02</rscale>
<asrwt>0</asrwt>
<pdfrwt beam="2">  1        2 0.14584954E-01 0.91288525E+02</pdfrwt>
<pdfrwt beam="1">  1       -2 0.33809645E-02 0.91288525E+02</pdfrwt>
<totfact> 0.12030548E+05</totfact>
</mgrwt>
</event>
<event>
 5    1  0.1270834E+001  0.9018633E+02  0.7546771E-02  0.1302401E+00
          1   -1    0    0  501    0  0.00000000000E+00  0.00000000000E+00  0.17955383311E+02  0.17955383311E+02  0.00000000000E+00 0. -1.
         -1   -1    0    0    0  501 -0.00000000000E+00 -0.00000000000E+00 -0.11324701592E+03  0.11324701592E+03  0.00000000000E+00 0.  1.
         23    2    1    2    0    0  0.00000000000E+00  0.00000000000E+00 -0.95291632608E+02  0.13120239923E+03  0.90186331107E+02 0.  0.
        -13    1    3    3    0    0 -0.20153377980E+02 -0.15961033210E+02 -0.10154151737E+03  0.10474537210E+03  0.00000000000E+00 0.  1.
         13    1    3    3    0    0  0.20153377980E+02  0.15961033210E+02  0.62498847657E+01  0.26457027133E+02  0.00000000000E+00 0. -1.
<mgrwt>
<rscale>  0 0.90186331E+02</rscale>
<asrwt>0</asrwt>
<pdfrwt beam="1">  1        1 0.27623666E-02 0.90186331E+02</pdfrwt>
<pdfrwt beam="2">  1       -1 0.17422618E-01 0.90186331E+02</pdfrwt>
<totfact> 0.81722189E+04</totfact>
</mgrwt>
</event>
<event>
 5    1  0.1270834E+001  0.9033594E+02  0.7546771E-02  0.1302040E+00
         -3   -1    0    0    0  501 -0.00000000000E+00  0.00000000000E+00  0.37163741368E+02  0.37163741368E+02  0.00000000000E+00 0.  1.
          3   -1    0    0  501    0  0.00000000000E+00 -0.00000000000E+00 -0.54896134205E+02  0.54896134205E+02  0.00000000000E+00 0. -1.
         23    2    1    2    0    0  0.00000000000E+00  0.00000000000E+00 -0.17732392837E+02  0.92059875574E+02  0.90335944866E+02 0.  0.
        -13    1    3    3    0    0  0.13337702807E+02  0.24307025445E+02  0.27471241255E+02  0.39030691747E+02  0.00000000000E+00 0.  1.
         13    1    3    3    0    0 -0.13337702807E+02 -0.24307025445E+02 -0.45203634093E+02  0.53029183827E+02  0.00000000000E+00 0. -1.
<mgrwt>
<rscale>  0 0.90335945E+02</rscale>
<asrwt>0</asrwt>
<pdfrwt beam="2">  1        3 0.84455591E-02 0.90335945E+02</pdfrwt>
<pdfrwt beam="1">  1       -3 0.57174987E-02 0.90335945E+02</pdfrwt>
<totfact> 0.36170960E+04</totfact>
</mgrwt>
</event>
<event>
 5    1  0.1270834E+001  0.9460359E+02  0.7546771E-02  0.1292071E+00
         -1   -1    0    0    0  501 -0.00000000000E+00  0.00000000000E+00  0.59823001160E+02  0.59823001160E+02  0.00000000000E+00 0.  1.
          1   -1    0    0  501    0  0.00000000000E+00 -0.00000000000E+00 -0.37401332740E+02  0.37401332740E+02  0.00000000000E+00 0. -1.
         23    2    1    2    0    0  0.00000000000E+00  0.00000000000E+00  0.22421668420E+02  0.97224333901E+02  0.94603593418E+02 0.  0.
        -13    1    3    3    0    0 -0.89483243376E+01 -0.28248184162E+02  0.49102646551E+02  0.57350695856E+02  0.00000000000E+00 0.  1.
         13    1    3    3    0    0  0.89483243376E+01  0.28248184162E+02 -0.26680978131E+02  0.39873638045E+02  0.00000000000E+00 0. -1.
<mgrwt>
<rscale>  0 0.94603593E+02</rscale>
<asrwt>0</asrwt>
<pdfrwt beam="2">  1        1 0.57540512E-02 0.94603593E+02</pdfrwt>
<pdfrwt beam="1">  1       -1 0.92035386E-02 0.94603593E+02</pdfrwt>
<totfact> 0.80791850E+04</totfact>
</mgrwt>
</event>
<event>
 5    1  0.1270834E+001  0.9210492E+02  0.7546771E-02  0.1297833E+00
          1   -1    0    0  501    0  0.00000000000E+00  0.00000000000E+00  0.10430496093E+03  0.10430496093E+03  0.00000000000E+00 0. -1.
         -1   -1    0    0    0  501 -0.00000000000E+00 -0.00000000000E+00 -0.20332965023E+02  0.20332965023E+02  0.00000000000E+00 0.  1.
         23    2    1    2    0    0  0.00000000000E+00  0.00000000000E+00  0.83971995907E+02  0.12463792595E+03  0.92104921092E+02 0.  0.
        -13    1    3    3    0    0 -0.35399016921E+02 -0.84505859589E+01  0.37992289757E+01  0.36591487300E+02  0.00000000000E+00 0.  1.
         13    1    3    3    0    0  0.35399016921E+02  0.84505859589E+01  0.80172766931E+02  0.88046438653E+02  0.00000000000E+00 0. -1.
<mgrwt>
<rscale>  0 0.92104921E+02</rscale>
<asrwt>0</asrwt>
<pdfrwt beam="1">  1        1 0.16046917E-01 0.92104921E+02</pdfrwt>
<pdfrwt beam="2">  1       -1 0.31281485E-02 0.92104921E+02</pdfrwt>
<totfact> 0.10232461E+05</totfact>
</mgrwt>
</event>
<event>
 5    1  0.1270834E+001  0.9101471E+02  0.7546771E-02  0.1300413E+00
         -2   -1    0    0    0  501 -0.00000000000E+00  0.00000000000E+00  0.87233323843E+01  0.87233323843E+01  0.00000000000E+00 0.  1.
          2   -1    0    0  501    0  0.00000000000E+00 -0.00000000000E+00 -0.23740004976E+03  0.23740004976E+03  0.00000000000E+00 0. -1.
         23    2    1    2    0    0  0.00000000000E+00  0.00000000000E+00 -0.22867671738E+03  0.24612338215E+03  0.91014714023E+02 0.  0.
        -13    1    3    3    0    0  0.29323468851E+01 -0.33278125828E+02 -0.19790199057E+03  0.20070184401E+03  0.00000000000E+00 0. -1.
         13    1    3    3    0    0 -0.29323468851E+01  0.33278125828E+02 -0.30774726813E+02  0.45421538143E+02  0.00000000000E+00 0.  1.
<mgrwt>
<rscale>  0 0.91014714E+02</rscale>
<asrwt>0</asrwt>
<pdfrwt beam="2">  1        2 0.36523088E-01 0.91014714E+02</pdfrwt>
<pdfrwt beam="1">  1       -2 0.13420510E-02 0.91014714E+02</pdfrwt>
<totfact> 0.16547197E+05</totfact>
</mgrwt>
</event>
<event>
 5    1  0.1270834E+001  0.9250789E+02  0.7546771E-02  0.1296890E+00
          2   -1    0    0  501    0  0.00000000000E+00  0.00000000000E+00  0.19888052034E+02  0.19888052034E+02  0.00000000000E+00 0. -1.
         -2   -1    0    0    0  501 -0.00000000000E+00 -0.00000000000E+00 -0.10757350123E+03  0.10757350123E+03  0.00000000000E+00 0.  1.
         23    2    1    2    0    0  0.00000000000E+00  0.00000000000E+00 -0.87685449194E+02  0.12746155326E+03  0.92507889174E+02 0.  0.
        -11    1    3    3    0    0 -0.46165550419E+02 -0.24957789463E+01 -0.45762054500E+02  0.65051153642E+02  0.00000000000E+00 0. -1.
         11    1    3    3    0    0  0.46165550419E+02  0.24957789463E+01 -0.41923394694E+02  0.62410399620E+02  0.00000000000E+00 0.  1.
<mgrwt>
<rscale>  0 0.92507889E+02</rscale>
<asrwt>0</asrwt>
<pdfrwt beam="1">  1        2 0.30597003E-02 0.92507889E+02</pdfrwt>
<pdfrwt beam="2">  1       -2 0.16549769E-01 0.92507889E+02</pdfrwt>
<totfact> 0.75283859E+04</totfact>
</mgrwt>
</event>
<event>
 5    1  0.1270834E+001  0.9084336E+02  0.7546771E-02  0.1300822E+00
         -2   -1    0    0    0  501 -0.00000000000E+00  0.00000000000E+00  0.46408374378E+02  0.46408374378E+02  0.00000000000E+00 0.  1.
          2   -1    0    0  501    0  0.00000000000E+00 -0.00000000000E+00 -0.44455963147E+02  0.44455963147E+02  0.00000000000E+00 0. -1.
         23    2    1    2    0    0  0.00000000000E+00  0.00000000000E+00  0.19524112313E+01  0.90864337525E+02  0.90843359274E+02 0.  0.
        -11    1    3    3    0    0 -0.33359696642E+02 -0.16929560885E+01  0.31763071810E+02  0.46093689277E+02  0.00000000000E+00 0.  1.
         11    1    3    3    0    0  0.33359696642E+02  0.16929560885E+01 -0.29810660579E+02  0.44770648248E+02  0.00000000000E+00 0. -1.
<mgrwt>
<rscale>  0 0.90843359E+02</rscale>
<asrwt>0</asrwt>
<pdfrwt beam="2">  1        2 0.68393789E-02 0.90843359E+02</pdfrwt>
<pdfrwt beam="1">  1       -2 0.71397499E-02 0.90843359E+02</pdfrwt>
<totfact> 0.99070420E+04</totfact>
</mgrwt>
</event>
<event>
 5    1  0.1270834E+001  0.9404369E+02  0.7546771E-02  0.1293345E+00
          3   -1    0    0  501    0  0.00000000000E+00  0.00000000000E+00  0.44279834367E+02  0.44279834367E+02  0.00000000000E+00 0. -1.
         -3   -1    0    0    0  501 -0.00000000000E+00 -0.00000000000E+00 -0.49933651956E+02  0.49933651956E+02  0.00000000000E+00 0.  1.
         23    2    1    2    0    0  0.00000000000E+00  0.00000000000E+00 -0.56538175889E+01  0.94213486322E+02  0.94043688526E+02 0.  0.
        -13    1    3    3    0    0  0.13571424672E+02  0.24402588769E+02  0.35075035529E+02  0.44832220820E+02  0.00000000000E+00 0.  1.
         13    1    3    3    0    0 -0.13571424672E+02 -0.24402588769E+02 -0.40728853118E+02  0.49381265502E+02  0.00000000000E+00 0. -1.
<mgrwt>
<rscale>  0 0.94043689E+02</rscale>
<asrwt>0</asrwt>
<pdfrwt beam="1">  1        3 0.68122822E-02 0.94043689E+02</pdfrwt>
<pdfrwt beam="2">  1       -3 0.76821003E-02 0.94043689E+02</pdfrwt>
<totfact> 0.32258345E+04</totfact>
</mgrwt>
</event>
<event>
 5    1  0.1270834E+001  0.8676271E+02  0.7546771E-02  0.1310886E+00
          2   -1    0    0  501    0  0.00000000000E+00  0.00000000000E+00  0.20404451049E+03  0.20404451049E+03  0.00000000000E+00 0. -1.
         -2   -1    0    0    0  501 -0.00000000000E+00 -0.00000000000E+00 -0.92231940646E+01  0.92231940646E+01  0.00000000000E+00 0.  1.
         23    2    1    2    0    0  0.00000000000E+00  0.00000000000E+00  0.19482131642E+03  0.21326770455E+03  0.86762713606E+02 0.  0.
        -13    1    3    3    0    0  0.28419292803E+02 -0.29922720582E+02  0.64531747803E+02  0.76598772086E+02  0.00000000000E+00 0.  1.
         13    1    3    3    0    0 -0.28419292803E+02  0.29922720582E+02  0.13028956862E+03  0.13666893247E+03  0.00000000000E+00 0. -1.
<mgrwt>
<rscale>  0 0.86762714E+02</rscale>
<asrwt>0</asrwt>
<pdfrwt beam="1">  1        2 0.31391460E-01 0.86762714E+02</pdfrwt>
<pdfrwt beam="2">  1       -2 0.14189531E-02 0.86762714E+02</pdfrwt>
<totfact> 0.17797934E+05</totfact>
</mgrwt>
</event>
<event>
 5    1  0.1270834E+001  0.9024548E+02  0.7546771E-02  0.1302258E+00
          4   -1    0    0  501    0  0.00000000000E+00  0.00000000000E+00  0.75075618316E+01  0.75075618316E+01  0.00000000000E+00 0. -1.
         -4   -1    0    0    0  501 -0.00000000000E+00 -0.00000000000E+00 -0.27120147950E+03  0.27120147950E+03  0.00000000000E+00 0.  1.
         23    2    1    2    0    0  0.00000000000E+00  0.00000000000E+00 -0.26369391767E+03  0.27870904133E+03  0.90245484677E+02 0.  0.
        -11    1    3    3    0    0 -0.10032535130E+01 -0.39957522830E+02 -0.19651451793E+03  0.20053819064E+03  0.00000000000E+00 0.  1.
         11    1    3    3    0    0  0.10032535130E+01  0.39957522830E+02 -0.67179399734E+02  0.78170850686E+02  0.00000000000E+00 0. -1.
<mgrwt>
<rscale>  0 0.90245485E+02</rscale>
<asrwt>0</asrwt>
<pdfrwt beam="1">  1        4 0.11550096E-02 0.90245485E+02</pdfrwt>
<pdfrwt beam="2">  1       -4 0.41723302E-01 0.90245485E+02</pdfrwt>
<totfact> 0.19001316E+04</totfact>
</mgrwt>
</event>
<event>
 5    1  0.1270834E+001  0.8354633E+02  0.7546771E-02  0.1319278E+00
         -1   -1    0    0    0  501 -0.00000000000E+00  0.00000000000E+00  0.24299160570E+02  0.24299160570E+02  0.00000000000E+00 0. -1.
          1   -1    0    0  501    0  0.00000000000E+00 -0.00000000000E+00 -0.71813062297E+02  0.71813062297E+02  0.00000000000E+00 0.  1.
         23    2    1    2    0    0  0.00000000000E+00  0.00000000000E+00 -0.47513901727E+02  0.96112222867E+02  0.83546325636E+02 0.  0.
        -11    1    3    3    0    0 -0.22466926250E+01  0.19651312946E+02 -0.66084641744E+02  0.68981168464E+02  0.00000000000E+00 0.  1.
         11    1    3    3    0    0  0.22466926250E+01 -0.19651312946E+02  0.18570740017E+02  0.27131054403E+02  0.00000000000E+00 0. -1.
<mgrwt>
<rscale>  0 0.83546326E+02</rscale>
<asrwt>0</asrwt>
<pdfrwt beam="2">  1        1 0.11048163E-01 0.83546326E+02</pdfrwt>
<pdfrwt beam="1">  1       -1 0.37383324E-02 0.83546326E+02</pdfrwt>
<totfact> 0.12581933E+05</totfact>
</mgrwt>
</event>
<event>
 5    1  0.1270834E+001  0.8993978E+02  0.7546771E-02  0.1302998E+00
         -1   -1    0    0    0  501 -0.00000000000E+00  0.00000000000E+00  0.43654223209E+03  0.43654223209E+03  0.00000000000E+00 0.  1.
          1   -1    0    0  501    0  0.00000000000E+00 -0.00000000000E+00 -0.46325204800E+01  0.46325204800E+01  0.00000000000E+00 0. -1.
         23    2    1    2    0    0  0.00000000000E+00  0.00000000000E+00  0.43190971161E+03  0.44117475257E+03  0.89939776085E+02 0.  0.
        -13    1    3    3    0    0  0.43833233844E+02 -0.48697375535E+01  0.17284909948E+03  0.17838687711E+03  0.00000000000E+00 0.  1.
         13    1    3    3    0    0 -0.43833233844E+02  0.48697375535E+01  0.25906061213E+03  0.26278787546E+03  0.00000000000E+00 0. -1.
<mgrwt>
<rscale>  0 0.89939776E+02</rscale>
<asrwt>0</asrwt>
<pdfrwt beam="2">  1        1 0.71269580E-03 0.89939776E+02</pdfrwt>
<pdfrwt beam="1">  1       -1 0.67160311E-01 0.89939776E+02</pdfrwt>
<totfact> 0.52752487E+04</totfact>
</mgrwt>
</event>
<event>
 5    1  0.1270834E+001  0.9120084E+02  0.7546771E-02  0.1299969E+00
         -2   -1    0    0    0  501 -0.00000000000E+00  0.00000000000E+00  0.65715315388E+02  0.65715315388E+02  0.00000000000E+00 0. -1.
          2   -1    0    0  501    0  0.00000000000E+00 -0.00000000000E+00 -0.31642524763E+02  0.31642524763E+02  0.00000000000E+00 0.  1.
         23    2    1    2    0    0  0.00000000000E+00  0.00000000000E+00  0.34072790626E+02  0.97357840151E+02  0.91200844173E+02 0.  0.
        -13    1    3    3    0    0 -0.15131663249E+02 -0.32932973727E+02 -0.12505889000E+02  0.38339865034E+02  0.00000000000E+00 0.  1.
         13    1    3    3    0    0  0.15131663249E+02  0.32932973727E+02  0.46578679625E+02  0.59017975116E+02  0.00000000000E+00 0. -1.
<mgrwt>
<rscale>  0 0.91200844E+02</rscale>
<asrwt>0</asrwt>
<pdfrwt beam="2">  1        2 0.48680807E-02 0.91200844E+02</pdfrwt>
<pdfrwt beam="1">  1       -2 0.10110049E-01 0.91200844E+02</pdfrwt>
<totfact> 0.89658353E+04</totfact>
</mgrwt>
</event>
<event>
 5    1  0.1270834E+001  0.9211850E+02  0.7546771E-02  0.1297801E+00
         -3   -1    0    0    0  501 -0.00000000000E+00  0.00000000000E+00  0.41683777005E+02  0.41683777005E+02  0.00000000000E+00 0.  1.
          3   -1    0    0  501    0  0.00000000000E+00 -0.00000000000E+00 -0.50894012323E+02  0.50894012323E+02  0.00000000000E+00 0. -1.
         23    2    1    2    0    0  0.00000000000E+00  0.00000000000E+00 -0.92102353184E+01  0.92577789327E+02  0.92118503256E+02 0.  0.
        -13    1    3    3    0    0  0.30747378438E+01  0.39404925590E+02 -0.28371544633E+02  0.48653332038E+02  0.00000000000E+00 0. -1.
         13    1    3    3    0    0 -0.30747378438E+01 -0.39404925590E+02  0.19161309314E+02  0.43924457290E+02  0.00000000000E+00 0.  1.
<mgrwt>
<rscale>  0 0.92118503E+02</rscale>
<asrwt>0</asrwt>
<pdfrwt beam="2">  1        3 0.78298481E-02 0.92118503E+02</pdfrwt>
<pdfrwt beam="1">  1       -3 0.64128887E-02 0.92118503E+02</pdfrwt>
<totfact> 0.34256550E+04</totfact>
</mgrwt>
</event>
<event>
 5    1  0.1270834E+001  0.9270826E+02  0.7546771E-02  0.1296423E+00
         -1   -1    0    0    0  501 -0.00000000000E+00  0.00000000000E+00  0.23738743574E+02  0.23738743574E+02  0.00000000000E+00 0.  1.
          1   -1    0    0  501    0  0.00000000000E+00 -0.00000000000E+00 -0.90514712254E+02  0.90514712254E+02  0.00000000000E+00 0. -1.
         23    2    1    2    0    0  0.00000000000E+00  0.00000000000E+00 -0.66775968680E+02  0.11425345583E+03  0.92708263793E+02 0.  0.
        -13    1    3    3    0    0 -0.99662848013E+01  0.35470794495E+02  0.12772734498E+01  0.36866455245E+02  0.00000000000E+00 0.  1.
         13    1    3    3    0    0  0.99662848013E+01 -0.35470794495E+02 -0.68053242130E+02  0.77387000583E+02  0.00000000000E+00 0. -1.
<mgrwt>
<rscale>  0 0.92708264E+02</rscale>
<asrwt>0</asrwt>
<pdfrwt beam="2">  1        1 0.13925340E-01 0.92708264E+02</pdfrwt>
<pdfrwt beam="1">  1       -1 0.36521144E-02 0.92708264E+02</pdfrwt>
<totfact> 0.98171701E+04</totfact>
</mgrwt>
</event>
<event>
 5    1  0.1270834E+001  0.8945053E+02  0.7546771E-02  0.1304188E+00
         -1   -1    0    0    0  501 -0.00000000000E+00  0.00000000000E+00  0.18763158487E+03  0.18763158487E+03  0.00000000000E+00 0.  1.
          1   -1    0    0  501    0  0.00000000000E+00 -0.00000000000E+00 -0.10661048948E+02  0.10661048948E+02  0.00000000000E+00 0. -1.
         23    2    1    2    0    0  0.00000000000E+00  0.00000000000E+00  0.17697053592E+03  0.19829263382E+03  0.89450534050E+02 0.  0.
        -11    1    3    3    0    0 -0.33304663031E+02  0.26842551195E+02  0.11744181196E+03  0.12498920886E+03  0.00000000000E+00 0.  1.
         11    1    3    3    0    0  0.33304663031E+02 -0.26842551195E+02  0.59528723955E+02  0.73303424954E+02  0.00000000000E+00 0. -1.
<mgrwt>
<rscale>  0 0.89450534E+02</rscale>
<asrwt>0</asrwt>
<pdfrwt beam="2">  1        1 0.16401615E-02 0.89450534E+02</pdfrwt>
<pdfrwt beam="1">  1       -1 0.28866395E-01 0.89450534E+02</pdfrwt>
<totfact> 0.74276203E+04</totfact>
</mgrwt>
</event>
<event>
 5    1  0.1270834E+001  0.9191042E+02  0.7546771E-02  0.1298290E+00
         -1   -1    0    0    0  501 -0.00000000000E+00  0.00000000000E+00  0.26189093452E+02  0.26189093452E+02  0.00000000000E+00 0.  1.
          1   -1    0    0  501    0  0.00000000000E+00 -0.00000000000E+00 -0.80639721396E+02  0.80639721396E+02  0.00000000000E+00 0. -1.
         23    2    1    2    0    0  0.00000000000E+00  0.00000000000E+00 -0.54450627944E+02  0.10682881485E+03  0.91910417246E+02 0.  0.
        -13    1    3    3    0    0  0.29695515001E+02 -0.10611379845E+02 -0.66079599616E+02  0.73218429912E+02  0.00000000000E+00 0. -1.
         13    1    3    3    0    0 -0.29695515001E+02  0.10611379845E+02  0.11628971672E+02  0.33610384936E+02  0.00000000000E+00 0.  1.
<mgrwt>
<rscale>  0 0.91910417E+02</rscale>
<asrwt>0</asrwt>
<pdfrwt beam="2">  1        1 0.12406111E-01 0.91910417E+02</pdfrwt>
<pdfrwt beam="1">  1       -1 0.40290913E-02 0.91910417E+02</pdfrwt>
<totfact> 0.98673814E+04</totfact>
</mgrwt>
</event>
<event>
 5    1  0.1270834E+001  0.9196201E+02  0.7546771E-02  0.1298169E+00
          2   -1    0    0  501    0  0.00000000000E+00  0.00000000000E+00  0.27671741020E+03  0.27671741020E+03  0.00000000000E+00 0. -1.
         -2   -1    0    0    0  501 -0.00000000000E+00 -0.00000000000E+00 -0.76404758464E+01  0.76404758464E+01  0.00000000000E+00 0.  1.
         23    2    1    2    0    0  0.00000000000E+00  0.00000000000E+00  0.26907693435E+03  0.28435788604E+03  0.91962007131E+02 0.  0.
        -11    1    3    3    0    0 -0.28362765196E+01  0.45868215215E+02  0.13924322982E+03  0.14663087902E+03  0.00000000000E+00 0.  1.
         11    1    3    3    0    0  0.28362765196E+01 -0.45868215215E+02  0.12983370453E+03  0.13772700703E+03  0.00000000000E+00 0. -1.
<mgrwt>
<rscale>  0 0.91962007E+02</rscale>
<asrwt>0</asrwt>
<pdfrwt beam="1">  1        2 0.42571902E-01 0.91962007E+02</pdfrwt>
<pdfrwt beam="2">  1       -2 0.11754580E-02 0.91962007E+02</pdfrwt>
<totfact> 0.17037428E+05</totfact>
</mgrwt>
</event>
<event>
 5    1  0.1270834E+001  0.9575770E+02  0.7546771E-02  0.1289479E+00
          2   -1    0    0  501    0  0.00000000000E+00  0.00000000000E+00  0.38352632416E+03  0.38352632416E+03  0.00000000000E+00 0. -1.
         -2   -1    0    0    0  501 -0.00000000000E+00 -0.00000000000E+00 -0.59771234206E+01  0.59771234206E+01  0.00000000000E+00 0.  1.
         23    2    1    2    0    0  0.00000000000E+00  0.00000000000E+00  0.37754920074E+03  0.38950344758E+03  0.95757697854E+02 0.  0.
        -11    1    3    3    0    0 -0.23735733890E+02 -0.38544683062E+02  0.12532710508E+03  0.13325149502E+03  0.00000000000E+00 0.  1.
         11    1    3    3    0    0  0.23735733890E+02  0.38544683062E+02  0.25222209565E+03  0.25625195256E+03  0.00000000000E+00 0. -1.
<mgrwt>
<rscale>  0 0.95757698E+02</rscale>
<asrwt>0</asrwt>
<pdfrwt beam="1">  1        2 0.59004030E-01 0.95757698E+02</pdfrwt>
<pdfrwt beam="2">  1       -2 0.91955775E-03 0.95757698E+02</pdfrwt>
<totfact> 0.17255072E+05</totfact>
</mgrwt>
</event>
<event>
 5    1  0.1270834E+001  0.8640672E+02  0.7546771E-02  0.1311794E+00
          1   -1    0    0  501    0  0.00000000000E+00  0.00000000000E+00  0.17333868791E+02  0.17333868791E+02  0.00000000000E+00 0. -1.
         -1   -1    0    0    0  501 -0.00000000000E+00 -0.00000000000E+00 -0.10768112592E+03  0.10768112592E+03  0.00000000000E+00 0.  1.
         23    2    1    2    0    0  0.00000000000E+00  0.00000000000E+00 -0.90347257132E+02  0.12501499471E+03  0.86406724462E+02 0.  0.
        -13    1    3    3    0    0 -0.20749010322E+01  0.42949036339E+02 -0.39102916619E+02  0.58120246256E+02  0.00000000000E+00 0.  1.
         13    1    3    3    0    0  0.20749010322E+01 -0.42949036339E+02 -0.51244340513E+02  0.66894748459E+02  0.00000000000E+00 0. -1.
<mgrwt>
<rscale>  0 0.86406724E+02</rscale>
<asrwt>0</asrwt>
<pdfrwt beam="1">  1        1 0.26667491E-02 0.86406724E+02</pdfrwt>
<pdfrwt beam="2">  1       -1 0.16566327E-01 0.86406724E+02</pdfrwt>
<totfact> 0.92143504E+04</totfact>
</mgrwt>
</event>
<event>
 5    1  0.1270834E+001  0.9092125E+02  0.7546771E-02  0.1300636E+00
          2   -1    0    0  501    0  0.00000000000E+00  0.00000000000E+00  0.25281352712E+03  0.25281352712E+03  0.00000000000E+00 0. -1.
         -2   -1    0    0    0  501 -0.00000000000E+00 -0.00000000000E+00 -0.81746751865E+01  0.81746751865E+01  0.00000000000E+00 0.  1.
         23    2    1    2    0    0  0.00000000000E+00  0.00000000000E+00  0.24463885193E+03  0.26098820230E+03  0.90921250914E+02 0.  0.
        -11    1    3    3    0    0 -0.43456061120E+02 -0.33365482867E+01  0.85212723753E+02  0.95711911965E+02  0.00000000000E+00 0.  1.
         11    1    3    3    0    0  0.43456061120E+02  0.33365482867E+01  0.15942612818E+03  0.16527629034E+03  0.00000000000E+00 0. -1.
<mgrwt>
<rscale>  0 0.90921251E+02</rscale>
<asrwt>0</asrwt>
<pdfrwt beam="1">  1        2 0.38894383E-01 0.90921251E+02</pdfrwt>
<pdfrwt beam="2">  1       -2 0.12576425E-02 0.90921251E+02</pdfrwt>
<totfact> 0.16982883E+05</totfact>
</mgrwt>
</event>
<event>
 5    1  0.1270834E+001  0.9075016E+02  0.7546771E-02  0.1301045E+00
         -1   -1    0    0    0  501 -0.00000000000E+00  0.00000000000E+00  0.10815621478E+03  0.10815621478E+03  0.00000000000E+00 0.  1.
          1   -1    0    0  501    0  0.00000000000E+00 -0.00000000000E+00 -0.19036334152E+02  0.19036334152E+02  0.00000000000E+00 0. -1.
         23    2    1    2    0    0  0.00000000000E+00  0.00000000000E+00  0.89119880625E+02  0.12719254893E+03  0.90750159121E+02 0.  0.
        -11    1    3    3    0    0  0.20244336414E+02  0.37000628826E+02  0.21106456090E+02  0.47163144287E+02  0.00000000000E+00 0. -1.
         11    1    3    3    0    0 -0.20244336414E+02 -0.37000628826E+02  0.68013424535E+02  0.80029404642E+02  0.00000000000E+00 0.  1.
<mgrwt>
<rscale>  0 0.90750159E+02</rscale>
<asrwt>0</asrwt>
<pdfrwt beam="2">  1        1 0.29286669E-02 0.90750159E+02</pdfrwt>
<pdfrwt beam="1">  1       -1 0.16639417E-01 0.90750159E+02</pdfrwt>
<totfact> 0.81145708E+04</totfact>
</mgrwt>
</event>
<event>
 5    1  0.1270834E+001  0.9146052E+02  0.7546771E-02  0.1299353E+00
         -3   -1    0    0    0  501 -0.00000000000E+00  0.00000000000E+00  0.10395170615E+02  0.10395170615E+02  0.00000000000E+00 0.  1.
          3   -1    0    0  501    0  0.00000000000E+00 -0.00000000000E+00 -0.20117580915E+03  0.20117580915E+03  0.00000000000E+00 0. -1.
         23    2    1    2    0    0  0.00000000000E+00  0.00000000000E+00 -0.19078063854E+03  0.21157097977E+03  0.91460523937E+02 0.  0.
        -11    1    3    3    0    0 -0.34401491407E+02 -0.29851146511E+02 -0.85936145907E+02  0.97260345118E+02  0.00000000000E+00 0.  1.
         11    1    3    3    0    0  0.34401491407E+02  0.29851146511E+02 -0.10484449263E+03  0.11431063465E+03  0.00000000000E+00 0. -1.
<mgrwt>
<rscale>  0 0.91460524E+02</rscale>
<asrwt>0</asrwt>
<pdfrwt beam="2">  1        3 0.30950123E-01 0.91460524E+02</pdfrwt>
<pdfrwt beam="1">  1       -3 0.15992571E-02 0.91460524E+02</pdfrwt>
<totfact> 0.27678039E+04</totfact>
</mgrwt>
</event>
<event>
 5    1  0.1270834E+001  0.9115329E+02  0.7546771E-02  0.1300083E+00
          1   -1    0    0  501    0  0.00000000000E+00  0.00000000000E+00  0.53373010640E+02  0.53373010640E+02  0.00000000000E+00 0. -1.
         -1   -1    0    0    0  501 -0.00000000000E+00 -0.00000000000E+00 -0.38919116821E+02  0.38919116821E+02  0.00000000000E+00 0.  1.
         23    2    1    2    0    0  0.00000000000E+00  0.00000000000E+00  0.14453893820E+02  0.92292127461E+02  0.91153287076E+02 0.  0.
        -13    1    3    3    0    0  0.17267220886E+02  0.53117443831E+01  0.49592989234E+02  0.52781020516E+02  0.00000000000E+00 0. -1.
         13    1    3    3    0    0 -0.17267220886E+02 -0.53117443831E+01 -0.35139095415E+02  0.39511106945E+02  0.00000000000E+00 0.  1.
<mgrwt>
<rscale>  0 0.91153287E+02</rscale>
<asrwt>0</asrwt>
<pdfrwt beam="1">  1        1 0.82112324E-02 0.91153287E+02</pdfrwt>
<pdfrwt beam="2">  1       -1 0.59875564E-02 0.91153287E+02</pdfrwt>
<totfact> 0.94755414E+04</totfact>
</mgrwt>
</event>
<event>
 5    1  0.1270834E+001  0.8997222E+02  0.7546771E-02  0.1302919E+00
          3   -1    0    0  501    0  0.00000000000E+00  0.00000000000E+00  0.30552270850E+02  0.30552270850E+02  0.00000000000E+00 0.  1.
         -3   -1    0    0    0  501 -0.00000000000E+00 -0.00000000000E+00 -0.66238946652E+02  0.66238946652E+02  0.00000000000E+00 0. -1.
         23    2    1    2    0    0  0.00000000000E+00  0.00000000000E+00 -0.35686675802E+02  0.96791217501E+02  0.89972223245E+02 0.  0.
        -11    1    3    3    0    0  0.41199306012E+02 -0.17404486028E+02 -0.12633660142E+02  0.46474813807E+02  0.00000000000E+00 0.  1.
         11    1    3    3    0    0 -0.41199306012E+02  0.17404486028E+02 -0.23053015660E+02  0.50316403695E+02  0.00000000000E+00 0. -1.
<mgrwt>
<rscale>  0 0.89972223E+02</rscale>
<asrwt>0</asrwt>
<pdfrwt beam="1">  1        3 0.47003494E-02 0.89972223E+02</pdfrwt>
<pdfrwt beam="2">  1       -3 0.10190607E-01 0.89972223E+02</pdfrwt>
<totfact> 0.36196518E+04</totfact>
</mgrwt>
</event>
<event>
 5    1  0.1270834E+001  0.9038320E+02  0.7546771E-02  0.1301926E+00
         -3   -1    0    0    0  501 -0.00000000000E+00  0.00000000000E+00  0.56534680658E+01  0.56534680658E+01  0.00000000000E+00 0.  1.
          3   -1    0    0  501    0  0.00000000000E+00 -0.00000000000E+00 -0.36124384700E+03  0.36124384700E+03  0.00000000000E+00 0. -1.
         23    2    1    2    0    0  0.00000000000E+00  0.00000000000E+00 -0.35559037893E+03  0.36689731506E+03  0.90383196513E+02 0.  0.
        -11    1    3    3    0    0 -0.23747757692E+00 -0.44993452418E+02 -0.16066231594E+03  0.16684377998E+03  0.00000000000E+00 0.  1.
         11    1    3    3    0    0  0.23747757692E+00  0.44993452418E+02 -0.19492806299E+03  0.20005353508E+03  0.00000000000E+00 0. -1.
<mgrwt>
<rscale>  0 0.90383197E+02</rscale>
<asrwt>0</asrwt>
<pdfrwt beam="2">  1        3 0.55575992E-01 0.90383197E+02</pdfrwt>
<pdfrwt beam="1">  1       -3 0.86976407E-03 0.90383197E+02</pdfrwt>
<totfact> 0.22166083E+04</totfact>
</mgrwt>
</event>
<event>
 5    1  0.1270834E+001  0.9015233E+02  0.7546771E-02  0.1302483E+00
          1   -1    0    0  501    0  0.00000000000E+00  0.00000000000E+00  0.75840370575E+02  0.75840370575E+02  0.00000000000E+00 0. -1.
         -1   -1    0    0    0  501 -0.00000000000E+00 -0.00000000000E+00 -0.26791279865E+02  0.26791279865E+02  0.00000000000E+00 0.  1.
         23    2    1    2    0    0  0.00000000000E+00  0.00000000000E+00  0.49049090710E+02  0.10263165044E+03  0.90152328714E+02 0.  0.
        -13    1    3    3    0    0 -0.27334957063E+02  0.17548874776E+02 -0.11053693642E+02  0.34312490826E+02  0.00000000000E+00 0.  1.
         13    1    3    3    0    0  0.27334957063E+02 -0.17548874776E+02  0.60102784352E+02  0.68319159614E+02  0.00000000000E+00 0. -1.
<mgrwt>
<rscale>  0 0.90152329E+02</rscale>
<asrwt>0</asrwt>
<pdfrwt beam="1">  1        1 0.11667749E-01 0.90152329E+02</pdfrwt>
<pdfrwt beam="2">  1       -1 0.41217354E-02 0.90152329E+02</pdfrwt>
<totfact> 0.10305113E+05</totfact>
</mgrwt>
</event>
<event>
 5    1  0.1270834E+001  0.8771581E+02  0.7546771E-02  0.1308479E+00
          1   -1    0    0  501    0  0.00000000000E+00  0.00000000000E+00  0.28494192191E+03  0.28494192191E+03  0.00000000000E+00 0. -1.
         -1   -1    0    0    0  501 -0.00000000000E+00 -0.00000000000E+00 -0.67505533088E+01  0.67505533088E+01  0.00000000000E+00 0.  1.
         23    2    1    2    0    0  0.00000000000E+00  0.00000000000E+00  0.27819136860E+03  0.29169247521E+03  0.87715805502E+02 0.  0.
        -11    1    3    3    0    0 -0.42617508154E+02 -0.87521339934E+01  0.12068117136E+03  0.12828404800E+03  0.00000000000E+00 0.  1.
         11    1    3    3    0    0  0.42617508154E+02  0.87521339934E+01  0.15751019724E+03  0.16340842721E+03  0.00000000000E+00 0. -1.
<mgrwt>
<rscale>  0 0.87715806E+02</rscale>
<asrwt>0</asrwt>
<pdfrwt beam="1">  1        1 0.43837209E-01 0.87715806E+02</pdfrwt>
<pdfrwt beam="2">  1       -1 0.10385469E-02 0.87715806E+02</pdfrwt>
<totfact> 0.14061442E+05</totfact>
</mgrwt>
</event>
<event>
 5    1  0.1270834E+001  0.9061281E+02  0.7546771E-02  0.1301374E+00
          2   -1    0    0  501    0  0.00000000000E+00  0.00000000000E+00  0.12862715327E+03  0.12862715327E+03  0.00000000000E+00 0. -1.
         -2   -1    0    0    0  501 -0.00000000000E+00 -0.00000000000E+00 -0.15958297001E+02  0.15958297001E+02  0.00000000000E+00 0.  1.
         23    2    1    2    0    0  0.00000000000E+00  0.00000000000E+00  0.11266885627E+03  0.14458545028E+03  0.90612809565E+02 0.  0.
        -11    1    3    3    0    0 -0.17032710042E+02  0.26826661608E+02  0.10786366266E+03  0.11244711071E+03  0.00000000000E+00 0. -1.
         11    1    3    3    0    0  0.17032710042E+02 -0.26826661608E+02  0.48051936134E+01  0.32138339566E+02  0.00000000000E+00 0.  1.
<mgrwt>
<rscale>  0 0.90612810E+02</rscale>
<asrwt>0</asrwt>
<pdfrwt beam="1">  1        2 0.19788792E-01 0.90612810E+02</pdfrwt>
<pdfrwt beam="2">  1       -2 0.24551227E-02 0.90612810E+02</pdfrwt>
<totfact> 0.13508290E+05</totfact>
</mgrwt>
</event>
<event>
 5    1  0.1270834E+001  0.9082270E+02  0.7546771E-02  0.1300872E+00
          2   -1    0    0  501    0  0.00000000000E+00  0.00000000000E+00  0.72590989331E+01  0.72590989331E+01  0.00000000000E+00 0. -1.
         -2   -1    0    0    0  501 -0.00000000000E+00 -0.00000000000E+00 -0.28408356605E+03  0.28408356605E+03  0.00000000000E+00 0.  1.
         23    2    1    2    0    0  0.00000000000E+00  0.00000000000E+00 -0.27682446712E+03  0.29134266499E+03  0.90822700054E+02 0.  0.
        -13    1    3    3    0    0  0.42865859138E+02 -0.94174218626E+01 -0.17582438267E+03  0.18121915808E+03  0.00000000000E+00 0.  1.
         13    1    3    3    0    0 -0.42865859138E+02  0.94174218626E+01 -0.10100008445E+03  0.11012350690E+03  0.00000000000E+00 0. -1.
<mgrwt>
<rscale>  0 0.90822700E+02</rscale>
<asrwt>0</asrwt>
<pdfrwt beam="1">  1        2 0.11167844E-02 0.90822700E+02</pdfrwt>
<pdfrwt beam="2">  1       -2 0.43705167E-01 0.90822700E+02</pdfrwt>
<totfact> 0.53089364E+04</totfact>
</mgrwt>
</event>
<event>
 5    1  0.1270834E+001  0.8970536E+02  0.7546771E-02  0.1303567E+00
          1   -1    0    0  501    0  0.00000000000E+00  0.00000000000E+00  0.50283473904E+02  0.50283473904E+02  0.00000000000E+00 0.  1.
         -1   -1    0    0    0  501 -0.00000000000E+00 -0.00000000000E+00 -0.40008433667E+02  0.40008433667E+02  0.00000000000E+00 0. -1.
         23    2    1    2    0    0  0.00000000000E+00  0.00000000000E+00  0.10275040237E+02  0.90291907571E+02  0.89705362832E+02 0.  0.
        -11    1    3    3    0    0  0.24901717898E+02  0.12479444093E+02  0.40523198454E+02  0.49172773890E+02  0.00000000000E+00 0.  1.
         11    1    3    3    0    0 -0.24901717898E+02 -0.12479444093E+02 -0.30248158217E+02  0.41119133681E+02  0.00000000000E+00 0. -1.
<mgrwt>
<rscale>  0 0.89705363E+02</rscale>
<asrwt>0</asrwt>
<pdfrwt beam="1">  1        1 0.77359190E-02 0.89705363E+02</pdfrwt>
<pdfrwt beam="2">  1       -1 0.61551437E-02 0.89705363E+02</pdfrwt>
<totfact> 0.98199494E+04</totfact>
</mgrwt>
</event>
<event>
 5    1  0.1270834E+001  0.9164573E+02  0.7546771E-02  0.1298915E+00
          1   -1    0    0  501    0  0.00000000000E+00  0.00000000000E+00  0.99148240759E+01  0.99148240759E+01  0.00000000000E+00 0. -1.
         -1   -1    0    0    0  501 -0.00000000000E+00 -0.00000000000E+00 -0.21177731227E+03  0.21177731227E+03  0.00000000000E+00 0.  1.
         23    2    1    2    0    0  0.00000000000E+00  0.00000000000E+00 -0.20186248820E+03  0.22169213635E+03  0.91645726457E+02 0.  0.
        -13    1    3    3    0    0  0.29994698238E+02 -0.21975439398E+02 -0.16571079079E+03  0.16983129289E+03  0.00000000000E+00 0.  1.
         13    1    3    3    0    0 -0.29994698238E+02  0.21975439398E+02 -0.36151697403E+02  0.51860843459E+02  0.00000000000E+00 0. -1.
<mgrwt>
<rscale>  0 0.91645726E+02</rscale>
<asrwt>0</asrwt>
<pdfrwt beam="1">  1        1 0.15253575E-02 0.91645726E+02</pdfrwt>
<pdfrwt beam="2">  1       -1 0.32581126E-01 0.91645726E+02</pdfrwt>
<totfact> 0.67365887E+04</totfact>
</mgrwt>
</event>
<event>
 5    1  0.1270834E+001  0.9254324E+02  0.7546771E-02  0.1296807E+00
          2   -1    0    0  501    0  0.00000000000E+00  0.00000000000E+00  0.18658973163E+02  0.18658973163E+02  0.00000000000E+00 0. -1.
         -2   -1    0    0    0  501 -0.00000000000E+00 -0.00000000000E+00 -0.11474708043E+03  0.11474708043E+03  0.00000000000E+00 0.  1.
         23    2    1    2    0    0  0.00000000000E+00  0.00000000000E+00 -0.96088107271E+02  0.13340605360E+03  0.92543237341E+02 0.  0.
        -11    1    3    3    0    0  0.33653719560E+02 -0.10070728095E+02 -0.46279025026E+01  0.35431763802E+02  0.00000000000E+00 0. -1.
         11    1    3    3    0    0 -0.33653719560E+02  0.10070728095E+02 -0.91460204768E+02  0.97974289795E+02  0.00000000000E+00 0.  1.
<mgrwt>
<rscale>  0 0.92543237E+02</rscale>
<asrwt>0</asrwt>
<pdfrwt beam="1">  1        2 0.28706112E-02 0.92543237E+02</pdfrwt>
<pdfrwt beam="2">  1       -2 0.17653398E-01 0.92543237E+02</pdfrwt>
<totfact> 0.73704270E+04</totfact>
</mgrwt>
</event>
<event>
 5    1  0.1270834E+001  0.8878138E+02  0.7546771E-02  0.1305830E+00
          2   -1    0    0  501    0  0.00000000000E+00  0.00000000000E+00  0.32278256110E+03  0.32278256110E+03  0.00000000000E+00 0. -1.
         -2   -1    0    0    0  501 -0.00000000000E+00 -0.00000000000E+00 -0.61048324830E+01  0.61048324830E+01  0.00000000000E+00 0.  1.
         23    2    1    2    0    0  0.00000000000E+00  0.00000000000E+00  0.31667772862E+03  0.32888739358E+03  0.88781382371E+02 0.  0.
        -11    1    3    3    0    0  0.36736556321E+01 -0.43748960281E+02  0.13402838267E+03  0.14103572113E+03  0.00000000000E+00 0.  1.
         11    1    3    3    0    0 -0.36736556321E+01  0.43748960281E+02  0.18264934594E+03  0.18785167246E+03  0.00000000000E+00 0. -1.
<mgrwt>
<rscale>  0 0.88781382E+02</rscale>
<asrwt>0</asrwt>
<pdfrwt beam="1">  1        2 0.49658842E-01 0.88781382E+02</pdfrwt>
<pdfrwt beam="2">  1       -2 0.93920525E-03 0.88781382E+02</pdfrwt>
<totfact> 0.19815497E+05</totfact>
</mgrwt>
</event>
<event>
 5    1  0.1270834E+001  0.8947771E+02  0.7546771E-02  0.1304121E+00
         -4   -1    0    0    0  501 -0.00000000000E+00  0.00000000000E+00  0.88200599856E+01  0.88200599856E+01  0.00000000000E+00 0.  1.
          4   -1    0    0  501    0  0.00000000000E+00 -0.00000000000E+00 -0.22693328721E+03  0.22693328721E+03  0.00000000000E+00 0. -1.
         23    2    1    2    0    0  0.00000000000E+00  0.00000000000E+00 -0.21811322723E+03  0.23575334720E+03  0.89477711324E+02 0.  0.
        -11    1    3    3    0    0  0.40076115058E+01  0.41424621613E+02 -0.65802601465E+02  0.77859120116E+02  0.00000000000E+00 0.  1.
         11    1    3    3    0    0 -0.40076115058E+01 -0.41424621613E+02 -0.15231062576E+03  0.15789422708E+03  0.00000000000E+00 0. -1.
<mgrwt>
<rscale>  0 0.89477711E+02</rscale>
<asrwt>0</asrwt>
<pdfrwt beam="2">  1        4 0.34912813E-01 0.89477711E+02</pdfrwt>
<pdfrwt beam="1">  1       -4 0.13569323E-02 0.89477711E+02</pdfrwt>
<totfact> 0.21005680E+04</totfact>
</mgrwt>
</event>
<event>
 4    1  0.1270834E+001  0.2593382E+02  0.7546771E-02  0.1647940E+00
          2   -1    0    0  501    0  0.00000000000E+00  0.00000000000E+00  0.46864066331E+02  0.46864066331E+02  0.00000000000E+00 0.  1.
         -2   -1    0    0    0  501 -0.00000000000E+00 -0.00000000000E+00 -0.35878393166E+01  0.35878393166E+01  0.00000000000E+00 0. -1.
        -11    1    1    2    0    0  0.90482398480E+01 -0.74468606511E+01  0.32437216699E+02  0.34489120097E+02  0.00000000000E+00 0.  1.
         11    1    1    2    0    0 -0.90482398480E+01  0.74468606511E+01  0.10839010315E+02  0.15962785550E+02  0.00000000000E+00 0. -1.
<mgrwt>
<rscale>  0 0.25933819E+02</rscale>
<asrwt>0</asrwt>
<pdfrwt beam="1">  1        2 0.72098559E-02 0.25933819E+02</pdfrwt>
<pdfrwt beam="2">  1       -2 0.55197531E-03 0.25933819E+02</pdfrwt>
<totfact> 0.25366935E+06</totfact>
</mgrwt>
</event>
<event>
 5    1  0.1270834E+001  0.9076176E+02  0.7546771E-02  0.1301017E+00
          1   -1    0    0  501    0  0.00000000000E+00  0.00000000000E+00  0.42234934064E+02  0.42234934064E+02  0.00000000000E+00 0. -1.
         -1   -1    0    0    0  501 -0.00000000000E+00 -0.00000000000E+00 -0.48761153488E+02  0.48761153488E+02  0.00000000000E+00 0.  1.
         23    2    1    2    0    0  0.00000000000E+00  0.00000000000E+00 -0.65262194243E+01  0.90996087552E+02  0.90761756317E+02 0.  0.
        -11    1    3    3    0    0 -0.21737425239E+02  0.29797077356E+02  0.23244566585E+02  0.43596919051E+02  0.00000000000E+00 0. -1.
         11    1    3    3    0    0  0.21737425239E+02 -0.29797077356E+02 -0.29770786009E+02  0.47399168501E+02  0.00000000000E+00 0.  1.
<mgrwt>
<rscale>  0 0.90761756E+02</rscale>
<asrwt>0</asrwt>
<pdfrwt beam="1">  1        1 0.64976822E-02 0.90761756E+02</pdfrwt>
<pdfrwt beam="2">  1       -1 0.75017159E-02 0.90761756E+02</pdfrwt>
<totfact> 0.92595484E+04</totfact>
</mgrwt>
</event>
<event>
 5    1  0.1270834E+001  0.9913575E+02  0.7546771E-02  0.1282124E+00
          3   -1    0    0  501    0  0.00000000000E+00  0.00000000000E+00  0.29971361883E+02  0.29971361883E+02  0.00000000000E+00 0. -1.
         -3   -1    0    0    0  501 -0.00000000000E+00 -0.00000000000E+00 -0.81977389182E+02  0.81977389182E+02  0.00000000000E+00 0.  1.
         23    2    1    2    0    0  0.00000000000E+00  0.00000000000E+00 -0.52006027298E+02  0.11194875106E+03  0.99135745267E+02 0.  0.
        -11    1    3    3    0    0  0.36385794000E+02 -0.82764409373E+01  0.10841404866E+02  0.38858223571E+02  0.00000000000E+00 0. -1.
         11    1    3    3    0    0 -0.36385794000E+02  0.82764409373E+01 -0.62847432165E+02  0.73090527494E+02  0.00000000000E+00 0.  1.
<mgrwt>
<rscale>  0 0.99135745E+02</rscale>
<asrwt>0</asrwt>
<pdfrwt beam="1">  1        3 0.46109787E-02 0.99135745E+02</pdfrwt>
<pdfrwt beam="2">  1       -3 0.12611906E-01 0.99135745E+02</pdfrwt>
<totfact> 0.26891617E+04</totfact>
</mgrwt>
</event>
<event>
 5    1  0.1270834E+001  0.9107667E+02  0.7546771E-02  0.1300265E+00
          2   -1    0    0  501    0  0.00000000000E+00  0.00000000000E+00  0.94494350684E+02  0.94494350684E+02  0.00000000000E+00 0. -1.
         -2   -1    0    0    0  501 -0.00000000000E+00 -0.00000000000E+00 -0.21945647740E+02  0.21945647740E+02  0.00000000000E+00 0.  1.
         23    2    1    2    0    0  0.00000000000E+00  0.00000000000E+00  0.72548702943E+02  0.11643999842E+03  0.91076665147E+02 0.  0.
        -13    1    3    3    0    0 -0.58252441692E+01  0.15605633041E+02  0.90459583481E+02  0.91980462577E+02  0.00000000000E+00 0. -1.
         13    1    3    3    0    0  0.58252441692E+01 -0.15605633041E+02 -0.17910880538E+02  0.24459535848E+02  0.00000000000E+00 0.  1.
<mgrwt>
<rscale>  0 0.91076665E+02</rscale>
<asrwt>0</asrwt>
<pdfrwt beam="1">  1        2 0.14537592E-01 0.91076665E+02</pdfrwt>
<pdfrwt beam="2">  1       -2 0.33762535E-02 0.91076665E+02</pdfrwt>
<totfact> 0.12096191E+05</totfact>
</mgrwt>
</event>
<event>
 5    1  0.1270834E+001  0.9065531E+02  0.7546771E-02  0.1301272E+00
          2   -1    0    0  501    0  0.00000000000E+00  0.00000000000E+00  0.42024468563E+03  0.42024468563E+03  0.00000000000E+00 0. -1.
         -2   -1    0    0    0  501 -0.00000000000E+00 -0.00000000000E+00 -0.48890475188E+01  0.48890475188E+01  0.00000000000E+00 0.  1.
         23    2    1    2    0    0  0.00000000000E+00  0.00000000000E+00  0.41535563812E+03  0.42513373315E+03  0.90655308451E+02 0.  0.
        -13    1    3    3    0    0  0.16712168746E+01 -0.44983310234E+02  0.18272816896E+03  0.18819105955E+03  0.00000000000E+00 0.  1.
         13    1    3    3    0    0 -0.16712168746E+01  0.44983310234E+02  0.23262746916E+03  0.23694267360E+03  0.00000000000E+00 0. -1.
<mgrwt>
<rscale>  0 0.90655308E+02</rscale>
<asrwt>0</asrwt>
<pdfrwt beam="1">  1        2 0.64653000E-01 0.90655308E+02</pdfrwt>
<pdfrwt beam="2">  1       -2 0.75216149E-03 0.90655308E+02</pdfrwt>
<totfact> 0.20626620E+05</totfact>
</mgrwt>
</event>
<event>
 5    1  0.1270834E+001  0.9048432E+02  0.7546771E-02  0.1301683E+00
          1   -1    0    0  501    0  0.00000000000E+00  0.00000000000E+00  0.24859458117E+03  0.24859458117E+03  0.00000000000E+00 0. -1.
         -1   -1    0    0    0  501 -0.00000000000E+00 -0.00000000000E+00 -0.82336999520E+01  0.82336999520E+01  0.00000000000E+00 0.  1.
         23    2    1    2    0    0  0.00000000000E+00  0.00000000000E+00  0.24036088122E+03  0.25682828112E+03  0.90484323306E+02 0.  0.
        -13    1    3    3    0    0  0.37052113689E+02 -0.43420929867E+01  0.47530266928E+02  0.60422174527E+02  0.00000000000E+00 0.  1.
         13    1    3    3    0    0 -0.37052113689E+02  0.43420929867E+01  0.19283061429E+03  0.19640610659E+03  0.00000000000E+00 0. -1.
<mgrwt>
<rscale>  0 0.90484323E+02</rscale>
<asrwt>0</asrwt>
<pdfrwt beam="1">  1        1 0.38245315E-01 0.90484323E+02</pdfrwt>
<pdfrwt beam="2">  1       -1 0.12667233E-02 0.90484323E+02</pdfrwt>
<totfact> 0.12607436E+05</totfact>
</mgrwt>
</event>
<event>
 5    1  0.1270834E+001  0.9342069E+02  0.7546771E-02  0.1294773E+00
         -2   -1    0    0    0  501 -0.00000000000E+00  0.00000000000E+00  0.13785398125E+03  0.13785398125E+03  0.00000000000E+00 0.  1.
          2   -1    0    0  501    0  0.00000000000E+00 -0.00000000000E+00 -0.15827301636E+02  0.15827301636E+02  0.00000000000E+00 0. -1.
         23    2    1    2    0    0  0.00000000000E+00  0.00000000000E+00  0.12202667962E+03  0.15368128289E+03  0.93420694559E+02 0.  0.
        -13    1    3    3    0    0 -0.44518988514E+02  0.13330958845E+02  0.53262095940E+02  0.70685965127E+02  0.00000000000E+00 0.  1.
         13    1    3    3    0    0  0.44518988514E+02 -0.13330958845E+02  0.68764583676E+02  0.82995317760E+02  0.00000000000E+00 0. -1.
<mgrwt>
<rscale>  0 0.93420695E+02</rscale>
<asrwt>0</asrwt>
<pdfrwt beam="2">  1        2 0.24349696E-02 0.93420695E+02</pdfrwt>
<pdfrwt beam="1">  1       -2 0.21208304E-01 0.93420695E+02</pdfrwt>
<totfact> 0.67698754E+04</totfact>
</mgrwt>
</event>
<event>
 5    1  0.1270834E+001  0.9049240E+02  0.7546771E-02  0.1301664E+00
          2   -1    0    0  501    0  0.00000000000E+00  0.00000000000E+00  0.17669102022E+02  0.17669102022E+02  0.00000000000E+00 0. -1.
         -2   -1    0    0    0  501 -0.00000000000E+00 -0.00000000000E+00 -0.11586432751E+03  0.11586432751E+03  0.00000000000E+00 0.  1.
         23    2    1    2    0    0  0.00000000000E+00  0.00000000000E+00 -0.98195225486E+02  0.13353342953E+03  0.90492400199E+02 0.  0.
        -11    1    3    3    0    0  0.42441678950E+02 -0.29097458691E+01 -0.71836508422E+02  0.83488003182E+02  0.00000000000E+00 0.  1.
         11    1    3    3    0    0 -0.42441678950E+02  0.29097458691E+01 -0.26358717064E+02  0.50045426348E+02  0.00000000000E+00 0. -1.
<mgrwt>
<rscale>  0 0.90492400E+02</rscale>
<asrwt>0</asrwt>
<pdfrwt beam="1">  1        2 0.27183233E-02 0.90492400E+02</pdfrwt>
<pdfrwt beam="2">  1       -2 0.17825281E-01 0.90492400E+02</pdfrwt>
<totfact> 0.77722483E+04</totfact>
</mgrwt>
</event>
<event>
 5    1  0.1270834E+001  0.9099750E+02  0.7546771E-02  0.1300454E+00
          1   -1    0    0  501    0  0.00000000000E+00  0.00000000000E+00  0.17257737356E+03  0.17257737356E+03  0.00000000000E+00 0.  1.
         -1   -1    0    0    0  501 -0.00000000000E+00 -0.00000000000E+00 -0.11995410228E+02  0.11995410228E+02  0.00000000000E+00 0. -1.
         23    2    1    2    0    0  0.00000000000E+00  0.00000000000E+00  0.16058196333E+03  0.18457278379E+03  0.90997503084E+02 0.  0.
        -11    1    3    3    0    0 -0.32620337732E+02  0.27267162572E+02  0.47425069548E+02  0.63692399940E+02  0.00000000000E+00 0. -1.
         11    1    3    3    0    0  0.32620337732E+02 -0.27267162572E+02  0.11315689378E+03  0.12088038385E+03  0.00000000000E+00 0.  1.
<mgrwt>
<rscale>  0 0.90997503E+02</rscale>
<asrwt>0</asrwt>
<pdfrwt beam="1">  1        1 0.26550363E-01 0.90997503E+02</pdfrwt>
<pdfrwt beam="2">  1       -1 0.18454479E-02 0.90997503E+02</pdfrwt>
<totfact> 0.11571296E+05</totfact>
</mgrwt>
</event>
<event>
 5    1  0.1270834E+001  0.9667068E+02  0.7546771E-02  0.1287457E+00
          2   -1    0    0  501    0  0.00000000000E+00  0.00000000000E+00  0.23504134736E+02  0.23504134736E+02  0.00000000000E+00 0. -1.
         -2   -1    0    0    0  501 -0.00000000000E+00 -0.00000000000E+00 -0.99399753432E+02  0.99399753432E+02  0.00000000000E+00 0.  1.
         23    2    1    2    0    0  0.00000000000E+00  0.00000000000E+00 -0.75895618697E+02  0.12290388817E+03  0.96670682161E+02 0.  0.
        -13    1    3    3    0    0 -0.15958188219E+02 -0.36644323105E+02 -0.72505488845E+02  0.82792005047E+02  0.00000000000E+00 0.  1.
         13    1    3    3    0    0  0.15958188219E+02  0.36644323105E+02 -0.33901298519E+01  0.40111883121E+02  0.00000000000E+00 0. -1.
<mgrwt>
<rscale>  0 0.96670682E+02</rscale>
<asrwt>0</asrwt>
<pdfrwt beam="1">  1        2 0.36160207E-02 0.96670682E+02</pdfrwt>
<pdfrwt beam="2">  1       -2 0.15292270E-01 0.96670682E+02</pdfrwt>
<totfact> 0.69119708E+04</totfact>
</mgrwt>
</event>
<event>
 5    1  0.1270834E+001  0.9077508E+02  0.7546771E-02  0.1300986E+00
         -3   -1    0    0    0  501 -0.00000000000E+00  0.00000000000E+00  0.11687030030E+03  0.11687030030E+03  0.00000000000E+00 0.  1.
          3   -1    0    0  501    0  0.00000000000E+00 -0.00000000000E+00 -0.17626623879E+02  0.17626623879E+02  0.00000000000E+00 0. -1.
         23    2    1    2    0    0  0.00000000000E+00  0.00000000000E+00  0.99243676426E+02  0.13449692418E+03  0.90775080855E+02 0.  0.
        -11    1    3    3    0    0  0.52284915363E+01 -0.21645764531E+02 -0.89764953824E+01  0.24009450540E+02  0.00000000000E+00 0. -1.
         11    1    3    3    0    0 -0.52284915363E+01  0.21645764531E+02  0.10822017181E+03  0.11048747364E+03  0.00000000000E+00 0.  1.
<mgrwt>
<rscale>  0 0.90775081E+02</rscale>
<asrwt>0</asrwt>
<pdfrwt beam="2">  1        3 0.27117884E-02 0.90775081E+02</pdfrwt>
<pdfrwt beam="1">  1       -3 0.17980046E-01 0.90775081E+02</pdfrwt>
<totfact> 0.32672681E+04</totfact>
</mgrwt>
</event>
<event>
 5    1  0.1270834E+001  0.9328299E+02  0.7546771E-02  0.1295091E+00
         -1   -1    0    0    0  501 -0.00000000000E+00  0.00000000000E+00  0.16492760057E+03  0.16492760057E+03  0.00000000000E+00 0.  1.
          1   -1    0    0  501    0  0.00000000000E+00 -0.00000000000E+00 -0.13190205629E+02  0.13190205629E+02  0.00000000000E+00 0. -1.
         23    2    1    2    0    0  0.00000000000E+00  0.00000000000E+00  0.15173739494E+03  0.17811780620E+03  0.93282988061E+02 0.  0.
        -13    1    3    3    0    0 -0.22399254039E+02 -0.23370380919E+02  0.13998500370E+03  0.14367916532E+03  0.00000000000E+00 0.  1.
         13    1    3    3    0    0  0.22399254039E+02  0.23370380919E+02  0.11752391241E+02  0.34438640880E+02  0.00000000000E+00 0. -1.
<mgrwt>
<rscale>  0 0.93282988E+02</rscale>
<asrwt>0</asrwt>
<pdfrwt beam="2">  1        1 0.20292625E-02 0.93282988E+02</pdfrwt>
<pdfrwt beam="1">  1       -1 0.25373476E-01 0.93282988E+02</pdfrwt>
<totfact> 0.68875996E+04</totfact>
</mgrwt>
</event>
<event>
 5    1  0.1270834E+001  0.9146242E+02  0.7546771E-02  0.1299348E+00
          1   -1    0    0  501    0  0.00000000000E+00  0.00000000000E+00  0.63333962179E+02  0.63333962179E+02  0.00000000000E+00 0. -1.
         -1   -1    0    0    0  501 -0.00000000000E+00 -0.00000000000E+00 -0.33020884272E+02  0.33020884272E+02  0.00000000000E+00 0.  1.
         23    2    1    2    0    0  0.00000000000E+00  0.00000000000E+00  0.30313077907E+02  0.96354846450E+02  0.91462417103E+02 0.  0.
        -11    1    3    3    0    0 -0.47750205568E-01  0.43896625969E+02  0.16477019085E+01  0.43927565072E+02  0.00000000000E+00 0.  1.
         11    1    3    3    0    0  0.47750205568E-01 -0.43896625969E+02  0.28665375998E+02  0.52427281378E+02  0.00000000000E+00 0. -1.
<mgrwt>
<rscale>  0 0.91462417E+02</rscale>
<asrwt>0</asrwt>
<pdfrwt beam="1">  1        1 0.97436865E-02 0.91462417E+02</pdfrwt>
<pdfrwt beam="2">  1       -1 0.50801361E-02 0.91462417E+02</pdfrwt>
<totfact> 0.96326971E+04</totfact>
</mgrwt>
</event>
<event>
 5    1  0.1270834E+001  0.8689060E+02  0.7546771E-02  0.1310561E+00
         -1   -1    0    0    0  501 -0.00000000000E+00  0.00000000000E+00  0.82483156954E+02  0.82483156954E+02  0.00000000000E+00 0.  1.
          1   -1    0    0  501    0  0.00000000000E+00 -0.00000000000E+00 -0.22883388870E+02  0.22883388870E+02  0.00000000000E+00 0. -1.
         23    2    1    2    0    0  0.00000000000E+00  0.00000000000E+00  0.59599768084E+02  0.10536654582E+03  0.86890601466E+02 0.  0.
        -13    1    3    3    0    0  0.39297284569E+02 -0.11264053675E+02  0.47635865962E+02  0.62772057523E+02  0.00000000000E+00 0.  1.
         13    1    3    3    0    0 -0.39297284569E+02  0.11264053675E+02  0.11963902122E+02  0.42594488301E+02  0.00000000000E+00 0. -1.
<mgrwt>
<rscale>  0 0.86890601E+02</rscale>
<asrwt>0</asrwt>
<pdfrwt beam="2">  1        1 0.35205214E-02 0.86890601E+02</pdfrwt>
<pdfrwt beam="1">  1       -1 0.12689716E-01 0.86890601E+02</pdfrwt>
<totfact> 0.95251661E+04</totfact>
</mgrwt>
</event>
<event>
 5    1  0.1270834E+001  0.9300275E+02  0.7546771E-02  0.1295739E+00
          1   -1    0    0  501    0  0.00000000000E+00  0.00000000000E+00  0.80577455150E+02  0.80577455150E+02  0.00000000000E+00 0. -1.
         -1   -1    0    0    0  501 -0.00000000000E+00 -0.00000000000E+00 -0.26836013781E+02  0.26836013781E+02  0.00000000000E+00 0.  1.
         23    2    1    2    0    0  0.00000000000E+00  0.00000000000E+00  0.53741441369E+02  0.10741346893E+03  0.93002746127E+02 0.  0.
        -13    1    3    3    0    0 -0.23934373303E+02  0.76581365874E+01  0.72059752468E+02  0.76315851611E+02  0.00000000000E+00 0. -1.
         13    1    3    3    0    0  0.23934373303E+02 -0.76581365874E+01 -0.18318311099E+02  0.31097617319E+02  0.00000000000E+00 0.  1.
<mgrwt>
<rscale>  0 0.93002746E+02</rscale>
<asrwt>0</asrwt>
<pdfrwt beam="1">  1        1 0.12396531E-01 0.93002746E+02</pdfrwt>
<pdfrwt beam="2">  1       -1 0.41286176E-02 0.93002746E+02</pdfrwt>
<totfact> 0.95505566E+04</totfact>
</mgrwt>
</event>
<event>
 5    1  0.1270834E+001  0.7430600E+02  0.7546771E-02  0.1346034E+00
         -4   -1    0    0    0  501 -0.00000000000E+00  0.00000000000E+00  0.13416020113E+03  0.13416020113E+03  0.00000000000E+00 0. -1.
          4   -1    0    0  501    0  0.00000000000E+00 -0.00000000000E+00 -0.10288785110E+02  0.10288785110E+02  0.00000000000E+00 0.  1.
         23    2    1    2    0    0  0.00000000000E+00  0.00000000000E+00  0.12387141602E+03  0.14444898624E+03  0.74306001905E+02 0.  0.
        -13    1    3    3    0    0  0.11022556532E+02 -0.26567773333E+02  0.16221203936E+02  0.33022277170E+02  0.00000000000E+00 0.  1.
         13    1    3    3    0    0 -0.11022556532E+02  0.26567773333E+02  0.10765021208E+03  0.11142670907E+03  0.00000000000E+00 0. -1.
<mgrwt>
<rscale>  0 0.74306002E+02</rscale>
<asrwt>0</asrwt>
<pdfrwt beam="2">  1        4 0.15828901E-02 0.74306002E+02</pdfrwt>
<pdfrwt beam="1">  1       -4 0.20640030E-01 0.74306002E+02</pdfrwt>
<totfact> 0.41212586E+04</totfact>
</mgrwt>
</event>
<event>
 5    1  0.1270834E+001  0.7033668E+02  0.7546771E-02  0.1358952E+00
         -2   -1    0    0    0  501 -0.00000000000E+00  0.00000000000E+00  0.55799027843E+01  0.55799027843E+01  0.00000000000E+00 0.  1.
          2   -1    0    0  501    0  0.00000000000E+00 -0.00000000000E+00 -0.22165476812E+03  0.22165476812E+03  0.00000000000E+00 0. -1.
         23    2    1    2    0    0  0.00000000000E+00  0.00000000000E+00 -0.21607486534E+03  0.22723467091E+03  0.70336677710E+02 0.  0.
        -13    1    3    3    0    0  0.19042253798E+01 -0.33510917069E+02 -0.14195246636E+03  0.14586675544E+03  0.00000000000E+00 0. -1.
         13    1    3    3    0    0 -0.19042253798E+01  0.33510917069E+02 -0.74122398981E+02  0.81367915469E+02  0.00000000000E+00 0.  1.
<mgrwt>
<rscale>  0 0.70336678E+02</rscale>
<asrwt>0</asrwt>
<pdfrwt beam="2">  1        2 0.34100732E-01 0.70336678E+02</pdfrwt>
<pdfrwt beam="1">  1       -2 0.85844662E-03 0.70336678E+02</pdfrwt>
<totfact> 0.31892560E+05</totfact>
</mgrwt>
</event>
<event>
 5    1  0.1270834E+001  0.9260081E+02  0.7546771E-02  0.1296673E+00
          4   -1    0    0  501    0  0.00000000000E+00  0.00000000000E+00  0.15544885020E+03  0.15544885020E+03  0.00000000000E+00 0. -1.
         -4   -1    0    0    0  501 -0.00000000000E+00 -0.00000000000E+00 -0.13790564528E+02  0.13790564528E+02  0.00000000000E+00 0.  1.
         23    2    1    2    0    0  0.00000000000E+00  0.00000000000E+00  0.14165828567E+03  0.16923941473E+03  0.92600807763E+02 0.  0.
        -13    1    3    3    0    0 -0.10770888183E+02  0.22145323837E+02  0.14248736897E+03  0.14459971548E+03  0.00000000000E+00 0. -1.
         13    1    3    3    0    0  0.10770888183E+02 -0.22145323837E+02 -0.82908329783E+00  0.24639699252E+02  0.00000000000E+00 0.  1.
<mgrwt>
<rscale>  0 0.92600808E+02</rscale>
<asrwt>0</asrwt>
<pdfrwt beam="1">  1        4 0.23915207E-01 0.92600808E+02</pdfrwt>
<pdfrwt beam="2">  1       -4 0.21216254E-02 0.92600808E+02</pdfrwt>
<totfact> 0.21813340E+04</totfact>
</mgrwt>
</event>
<event>
 5    1  0.1270834E+001  0.8998737E+02  0.7546771E-02  0.1302882E+00
         -1   -1    0    0    0  501 -0.00000000000E+00  0.00000000000E+00  0.13911716117E+03  0.13911716117E+03  0.00000000000E+00 0.  1.
          1   -1    0    0  501    0  0.00000000000E+00 -0.00000000000E+00 -0.14551991862E+02  0.14551991862E+02  0.00000000000E+00 0. -1.
         23    2    1    2    0    0  0.00000000000E+00  0.00000000000E+00  0.12456516931E+03  0.15366915303E+03  0.89987372384E+02 0.  0.
        -13    1    3    3    0    0  0.44551829030E+02 -0.12151199670E+00  0.51543013316E+02  0.68129013326E+02  0.00000000000E+00 0. -1.
         13    1    3    3    0    0 -0.44551829030E+02  0.12151199670E+00  0.73022155989E+02  0.85540139703E+02  0.00000000000E+00 0.  1.
<mgrwt>
<rscale>  0 0.89987372E+02</rscale>
<asrwt>0</asrwt>
<pdfrwt beam="2">  1        1 0.22387681E-02 0.89987372E+02</pdfrwt>
<pdfrwt beam="1">  1       -1 0.21402639E-01 0.89987372E+02</pdfrwt>
<totfact> 0.78719629E+04</totfact>
</mgrwt>
</event>
<event>
 5    1  0.1270834E+001  0.9237233E+02  0.7546771E-02  0.1297206E+00
         -1   -1    0    0    0  501 -0.00000000000E+00  0.00000000000E+00  0.29488191650E+02  0.29488191650E+02  0.00000000000E+00 0.  1.
          1   -1    0    0  501    0  0.00000000000E+00 -0.00000000000E+00 -0.72339525659E+02  0.72339525659E+02  0.00000000000E+00 0. -1.
         23    2    1    2    0    0  0.00000000000E+00  0.00000000000E+00 -0.42851334009E+02  0.10182771731E+03  0.92372329115E+02 0.  0.
        -13    1    3    3    0    0 -0.32873332015E+02 -0.17604261576E+02  0.86143630003E+01  0.38272355993E+02  0.00000000000E+00 0.  1.
         13    1    3    3    0    0  0.32873332015E+02  0.17604261576E+02 -0.51465697009E+02  0.63555361316E+02  0.00000000000E+00 0. -1.
<mgrwt>
<rscale>  0 0.92372329E+02</rscale>
<asrwt>0</asrwt>
<pdfrwt beam="2">  1        1 0.11129158E-01 0.92372329E+02</pdfrwt>
<pdfrwt beam="1">  1       -1 0.45366448E-02 0.92372329E+02</pdfrwt>
<totfact> 0.95668214E+04</totfact>
</mgrwt>
</event>
<event>
 5    1  0.1270834E+001  0.9114205E+02  0.7546771E-02  0.1300109E+00
         -1   -1    0    0    0  501 -0.00000000000E+00  0.00000000000E+00  0.43690329425E+01  0.43690329425E+01  0.00000000000E+00 0.  1.
          1   -1    0    0  501    0  0.00000000000E+00 -0.00000000000E+00 -0.47532672506E+03  0.47532672506E+03  0.00000000000E+00 0. -1.
         23    2    1    2    0    0  0.00000000000E+00  0.00000000000E+00 -0.47095769212E+03  0.47969575800E+03  0.91142045626E+02 0.  0.
        -13    1    3    3    0    0  0.44697755313E+02 -0.83340922814E+01 -0.21936659566E+03  0.22402912693E+03  0.00000000000E+00 0. -1.
         13    1    3    3    0    0 -0.44697755313E+02  0.83340922814E+01 -0.25159109646E+03  0.25566663107E+03  0.00000000000E+00 0.  1.
<mgrwt>
<rscale>  0 0.91142046E+02</rscale>
<asrwt>0</asrwt>
<pdfrwt beam="2">  1        1 0.73127188E-01 0.91142046E+02</pdfrwt>
<pdfrwt beam="1">  1       -1 0.67215892E-03 0.91142046E+02</pdfrwt>
<totfact> 0.13853080E+05</totfact>
</mgrwt>
</event>
<event>
 5    1  0.1270834E+001  0.9185695E+02  0.7546771E-02  0.1298416E+00
          3   -1    0    0  501    0  0.00000000000E+00  0.00000000000E+00  0.61385566142E+02  0.61385566142E+02  0.00000000000E+00 0. -1.
         -3   -1    0    0    0  501 -0.00000000000E+00 -0.00000000000E+00 -0.34363532405E+02  0.34363532405E+02  0.00000000000E+00 0.  1.
         23    2    1    2    0    0  0.00000000000E+00  0.00000000000E+00  0.27022033736E+02  0.95749098547E+02  0.91856951644E+02 0.  0.
        -11    1    3    3    0    0 -0.31121630330E+02  0.21440240040E+02  0.40716424815E+02  0.55552380841E+02  0.00000000000E+00 0. -1.
         11    1    3    3    0    0  0.31121630330E+02 -0.21440240040E+02 -0.13694391079E+02  0.40196717706E+02  0.00000000000E+00 0.  1.
<mgrwt>
<rscale>  0 0.91856952E+02</rscale>
<asrwt>0</asrwt>
<pdfrwt beam="1">  1        3 0.94439332E-02 0.91856952E+02</pdfrwt>
<pdfrwt beam="2">  1       -3 0.52866973E-02 0.91856952E+02</pdfrwt>
<totfact> 0.34287216E+04</totfact>
</mgrwt>
</event>
<event>
 5    1  0.1270834E+001  0.9061577E+02  0.7546771E-02  0.1301367E+00
          2   -1    0    0  501    0  0.00000000000E+00  0.00000000000E+00  0.42873133353E+02  0.42873133353E+02  0.00000000000E+00 0. -1.
         -2   -1    0    0    0  501 -0.00000000000E+00 -0.00000000000E+00 -0.47880906935E+02  0.47880906935E+02  0.00000000000E+00 0.  1.
         23    2    1    2    0    0  0.00000000000E+00  0.00000000000E+00 -0.50077735824E+01  0.90754040288E+02  0.90615771433E+02 0.  0.
        -13    1    3    3    0    0  0.27216779398E+02 -0.99381665386E+01 -0.37389266998E+02  0.47301982216E+02  0.00000000000E+00 0.  1.
         13    1    3    3    0    0 -0.27216779398E+02  0.99381665386E+01  0.32381493415E+02  0.43452058072E+02  0.00000000000E+00 0. -1.
<mgrwt>
<rscale>  0 0.90615771E+02</rscale>
<asrwt>0</asrwt>
<pdfrwt beam="1">  1        2 0.65958667E-02 0.90615771E+02</pdfrwt>
<pdfrwt beam="2">  1       -2 0.73662934E-02 0.90615771E+02</pdfrwt>
<totfact> 0.98857593E+04</totfact>
</mgrwt>
</event>
<event>
 5    1  0.1270834E+001  0.9143511E+02  0.7546771E-02  0.1299413E+00
         -2   -1    0    0    0  501 -0.00000000000E+00  0.00000000000E+00  0.16290905363E+03  0.16290905363E+03  0.00000000000E+00 0.  1.
          2   -1    0    0  501    0  0.00000000000E+00 -0.00000000000E+00 -0.12829826558E+02  0.12829826558E+02  0.00000000000E+00 0. -1.
         23    2    1    2    0    0  0.00000000000E+00  0.00000000000E+00  0.15007922707E+03  0.17573888019E+03  0.91435111480E+02 0.  0.
        -13    1    3    3    0    0 -0.28421653912E+02 -0.35053214680E+02  0.60971283060E+02  0.75855228089E+02  0.00000000000E+00 0. -1.
         13    1    3    3    0    0  0.28421653912E+02  0.35053214680E+02  0.89107944015E+02  0.99883652101E+02  0.00000000000E+00 0.  1.
<mgrwt>
<rscale>  0 0.91435111E+02</rscale>
<asrwt>0</asrwt>
<pdfrwt beam="2">  1        2 0.19738196E-02 0.91435111E+02</pdfrwt>
<pdfrwt beam="1">  1       -2 0.25062930E-01 0.91435111E+02</pdfrwt>
<totfact> 0.67254778E+04</totfact>
</mgrwt>
</event>
<event>
 5    1  0.1270834E+001  0.7361023E+02  0.7546771E-02  0.1348229E+00
         -3   -1    0    0    0  501 -0.00000000000E+00  0.00000000000E+00  0.94641477966E+02  0.94641477966E+02  0.00000000000E+00 0.  1.
          3   -1    0    0  501    0  0.00000000000E+00 -0.00000000000E+00 -0.14313139261E+02  0.14313139261E+02  0.00000000000E+00 0. -1.
         23    2    1    2    0    0  0.00000000000E+00  0.00000000000E+00  0.80328338705E+02  0.10895461723E+03  0.73610234452E+02 0.  0.
        -13    1    3    3    0    0  0.17737187378E+02 -0.25194552482E+02  0.69960678990E+02  0.76445208454E+02  0.00000000000E+00 0.  1.
         13    1    3    3    0    0 -0.17737187378E+02  0.25194552482E+02  0.10367659715E+02  0.32509408773E+02  0.00000000000E+00 0. -1.
<mgrwt>
<rscale>  0 0.73610234E+02</rscale>
<asrwt>0</asrwt>
<pdfrwt beam="2">  1        3 0.22020215E-02 0.73610234E+02</pdfrwt>
<pdfrwt beam="1">  1       -3 0.14560227E-01 0.73610234E+02</pdfrwt>
<totfact> 0.60391087E+04</totfact>
</mgrwt>
</event>
<event>
 5    1  0.1270834E+001  0.9074406E+02  0.7546771E-02  0.1301060E+00
         -4   -1    0    0    0  501 -0.00000000000E+00  0.00000000000E+00  0.20016831578E+02  0.20016831578E+02  0.00000000000E+00 0.  1.
          4   -1    0    0  501    0  0.00000000000E+00 -0.00000000000E+00 -0.10284449847E+03  0.10284449847E+03  0.00000000000E+00 0. -1.
         23    2    1    2    0    0  0.00000000000E+00  0.00000000000E+00 -0.82827666894E+02  0.12286133005E+03  0.90744057759E+02 0.  0.
        -11    1    3    3    0    0  0.24738743907E+02 -0.33594517898E+02 -0.65558816862E+02  0.77708143403E+02  0.00000000000E+00 0. -1.
         11    1    3    3    0    0 -0.24738743907E+02  0.33594517898E+02 -0.17268850032E+02  0.45153186647E+02  0.00000000000E+00 0.  1.
<mgrwt>
<rscale>  0 0.90744058E+02</rscale>
<asrwt>0</asrwt>
<pdfrwt beam="2">  1        4 0.15822230E-01 0.90744058E+02</pdfrwt>
<pdfrwt beam="1">  1       -4 0.30795126E-02 0.90744058E+02</pdfrwt>
<totfact> 0.25435905E+04</totfact>
</mgrwt>
</event>
<event>
 5    1  0.1270834E+001  0.8965285E+02  0.7546771E-02  0.1303695E+00
          2   -1    0    0  501    0  0.00000000000E+00  0.00000000000E+00  0.32923369199E+02  0.32923369199E+02  0.00000000000E+00 0. -1.
         -2   -1    0    0    0  501 -0.00000000000E+00 -0.00000000000E+00 -0.61032892411E+02  0.61032892411E+02  0.00000000000E+00 0.  1.
         23    2    1    2    0    0  0.00000000000E+00  0.00000000000E+00 -0.28109523212E+02  0.93956261610E+02  0.89652851603E+02 0.  0.
        -13    1    3    3    0    0 -0.87365776496E+01 -0.35224154298E+02  0.13520599721E+02  0.38728225519E+02  0.00000000000E+00 0. -1.
         13    1    3    3    0    0  0.87365776496E+01  0.35224154298E+02 -0.41630122933E+02  0.55228036091E+02  0.00000000000E+00 0.  1.
<mgrwt>
<rscale>  0 0.89652852E+02</rscale>
<asrwt>0</asrwt>
<pdfrwt beam="1">  1        2 0.50651337E-02 0.89652852E+02</pdfrwt>
<pdfrwt beam="2">  1       -2 0.93896757E-02 0.89652852E+02</pdfrwt>
<totfact> 0.95271201E+04</totfact>
</mgrwt>
</event>
<event>
 5    1  0.1270834E+001  0.9193039E+02  0.7546771E-02  0.1298243E+00
          4   -1    0    0  501    0  0.00000000000E+00  0.00000000000E+00  0.14970330260E+02  0.14970330260E+02  0.00000000000E+00 0. -1.
         -4   -1    0    0    0  501 -0.00000000000E+00 -0.00000000000E+00 -0.14113242152E+03  0.14113242152E+03  0.00000000000E+00 0.  1.
         23    2    1    2    0    0  0.00000000000E+00  0.00000000000E+00 -0.12616209126E+03  0.15610275178E+03  0.91930385847E+02 0.  0.
        -13    1    3    3    0    0 -0.65283045277E+01 -0.30495847240E+02 -0.12041855870E+03  0.12439149786E+03  0.00000000000E+00 0.  1.
         13    1    3    3    0    0  0.65283045277E+01  0.30495847240E+02 -0.57435325520E+01  0.31711253918E+02  0.00000000000E+00 0. -1.
<mgrwt>
<rscale>  0 0.91930386E+02</rscale>
<asrwt>0</asrwt>
<pdfrwt beam="1">  1        4 0.23031277E-02 0.91930386E+02</pdfrwt>
<pdfrwt beam="2">  1       -4 0.21712680E-01 0.91930386E+02</pdfrwt>
<totfact> 0.22857692E+04</totfact>
</mgrwt>
</event>
<event>
 5    1  0.1270834E+001  0.9429541E+02  0.7546771E-02  0.1292771E+00
          2   -1    0    0  501    0  0.00000000000E+00  0.00000000000E+00  0.51496980974E+02  0.51496980974E+02  0.00000000000E+00 0. -1.
         -2   -1    0    0    0  501 -0.00000000000E+00 -0.00000000000E+00 -0.43165754140E+02  0.43165754140E+02  0.00000000000E+00 0.  1.
         23    2    1    2    0    0  0.00000000000E+00  0.00000000000E+00  0.83312268343E+01  0.94662735114E+02  0.94295408577E+02 0.  0.
        -11    1    3    3    0    0 -0.14955629647E+02 -0.44515680903E+02 -0.44685866965E-01  0.46960820917E+02  0.00000000000E+00 0.  1.
         11    1    3    3    0    0  0.14955629647E+02  0.44515680903E+02  0.83759127013E+01  0.47701914196E+02  0.00000000000E+00 0. -1.
<mgrwt>
<rscale>  0 0.94295409E+02</rscale>
<asrwt>0</asrwt>
<pdfrwt beam="1">  1        2 0.79226124E-02 0.94295409E+02</pdfrwt>
<pdfrwt beam="2">  1       -2 0.66408853E-02 0.94295409E+02</pdfrwt>
<totfact> 0.92523554E+04</totfact>
</mgrwt>
</event>
<event>
 5    1  0.1270834E+001  0.9129943E+02  0.7546771E-02  0.1299735E+00
         -1   -1    0    0    0  501 -0.00000000000E+00  0.00000000000E+00  0.58534865476E+02  0.58534865476E+02  0.00000000000E+00 0.  1.
          1   -1    0    0  501    0  0.00000000000E+00 -0.00000000000E+00 -0.35600943927E+02  0.35600943927E+02  0.00000000000E+00 0. -1.
         23    2    1    2    0    0  0.00000000000E+00  0.00000000000E+00  0.22933921548E+02  0.94135809403E+02  0.91299429650E+02 0.  0.
        -13    1    3    3    0    0  0.19908871562E+01 -0.39839214879E+02  0.34355012906E+02  0.52644027065E+02  0.00000000000E+00 0.  1.
         13    1    3    3    0    0 -0.19908871562E+01  0.39839214879E+02 -0.11421091357E+02  0.41491782339E+02  0.00000000000E+00 0. -1.
<mgrwt>
<rscale>  0 0.91299430E+02</rscale>
<asrwt>0</asrwt>
<pdfrwt beam="2">  1        1 0.54770683E-02 0.91299430E+02</pdfrwt>
<pdfrwt beam="1">  1       -1 0.90053639E-02 0.91299430E+02</pdfrwt>
<totfact> 0.88719048E+04</totfact>
</mgrwt>
</event>
<event>
 5    1  0.1270834E+001  0.9149383E+02  0.7546771E-02  0.1299274E+00
         -2   -1    0    0    0  501 -0.00000000000E+00  0.00000000000E+00  0.10103005206E+02  0.10103005206E+02  0.00000000000E+00 0.  1.
          2   -1    0    0  501    0  0.00000000000E+00 -0.00000000000E+00 -0.20714433792E+03  0.20714433792E+03  0.00000000000E+00 0. -1.
         23    2    1    2    0    0  0.00000000000E+00  0.00000000000E+00 -0.19704133271E+03  0.21724734312E+03  0.91493832017E+02 0.  0.
        -11    1    3    3    0    0 -0.31248016830E+02 -0.25592413819E+02 -0.14952268789E+03  0.15488203381E+03  0.00000000000E+00 0. -1.
         11    1    3    3    0    0  0.31248016830E+02  0.25592413819E+02 -0.47518644816E+02  0.62365309316E+02  0.00000000000E+00 0.  1.
<mgrwt>
<rscale>  0 0.91493832E+02</rscale>
<asrwt>0</asrwt>
<pdfrwt beam="2">  1        2 0.31868355E-01 0.91493832E+02</pdfrwt>
<pdfrwt beam="1">  1       -2 0.15543087E-02 0.91493832E+02</pdfrwt>
<totfact> 0.15520324E+05</totfact>
</mgrwt>
</event>
<event>
 5    1  0.1270834E+001  0.9233661E+02  0.7546771E-02  0.1297290E+00
          1   -1    0    0  501    0  0.00000000000E+00  0.00000000000E+00  0.47118049837E+02  0.47118049837E+02  0.00000000000E+00 0. -1.
         -1   -1    0    0    0  501 -0.00000000000E+00 -0.00000000000E+00 -0.45237705712E+02  0.45237705712E+02  0.00000000000E+00 0.  1.
         23    2    1    2    0    0  0.00000000000E+00  0.00000000000E+00  0.18803441258E+01  0.92355755549E+02  0.92336611856E+02 0.  0.
        -11    1    3    3    0    0 -0.23449121544E+02  0.30637905794E+02  0.26302280310E+02  0.46694245065E+02  0.00000000000E+00 0.  1.
         11    1    3    3    0    0  0.23449121544E+02 -0.30637905794E+02 -0.24421936185E+02  0.45661510484E+02  0.00000000000E+00 0. -1.
<mgrwt>
<rscale>  0 0.92336612E+02</rscale>
<asrwt>0</asrwt>
<pdfrwt beam="1">  1        1 0.72489308E-02 0.92336612E+02</pdfrwt>
<pdfrwt beam="2">  1       -1 0.69596470E-02 0.92336612E+02</pdfrwt>
<totfact> 0.89691139E+04</totfact>
</mgrwt>
</event>
<event>
 5    1  0.1270834E+001  0.9061712E+02  0.7546771E-02  0.1301364E+00
          2   -1    0    0  501    0  0.00000000000E+00  0.00000000000E+00  0.32145835005E+02  0.32145835005E+02  0.00000000000E+00 0. -1.
         -2   -1    0    0    0  501 -0.00000000000E+00 -0.00000000000E+00 -0.63861009760E+02  0.63861009760E+02  0.00000000000E+00 0.  1.
         23    2    1    2    0    0  0.00000000000E+00  0.00000000000E+00 -0.31715174755E+02  0.96006844765E+02  0.90617117213E+02 0.  0.
        -13    1    3    3    0    0 -0.34282488128E+02  0.22812225895E+02 -0.35880848756E+02  0.54617963620E+02  0.00000000000E+00 0.  1.
         13    1    3    3    0    0  0.34282488128E+02 -0.22812225895E+02  0.41656740009E+01  0.41388881145E+02  0.00000000000E+00 0. -1.
<mgrwt>
<rscale>  0 0.90617117E+02</rscale>
<asrwt>0</asrwt>
<pdfrwt beam="1">  1        2 0.49455131E-02 0.90617117E+02</pdfrwt>
<pdfrwt beam="2">  1       -2 0.98247707E-02 0.90617117E+02</pdfrwt>
<totfact> 0.91752520E+04</totfact>
</mgrwt>
</event>
<event>
 5    1  0.1270834E+001  0.8634914E+02  0.7546771E-02  0.1311942E+00
          2   -1    0    0  501    0  0.00000000000E+00  0.00000000000E+00  0.15041577417E+03  0.15041577417E+03  0.00000000000E+00 0. -1.
         -2   -1    0    0    0  501 -0.00000000000E+00 -0.00000000000E+00 -0.12392606584E+02  0.12392606584E+02  0.00000000000E+00 0.  1.
         23    2    1    2    0    0  0.00000000000E+00  0.00000000000E+00  0.13802316758E+03  0.16280838075E+03  0.86349140431E+02 0.  0.
        -13    1    3    3    0    0  0.40158971422E+02 -0.70661515902E+01  0.42255893825E+02  0.58721665908E+02  0.00000000000E+00 0.  1.
         13    1    3    3    0    0 -0.40158971422E+02  0.70661515902E+01  0.95767273756E+02  0.10408671484E+03  0.00000000000E+00 0. -1.
<mgrwt>
<rscale>  0 0.86349140E+02</rscale>
<asrwt>0</asrwt>
<pdfrwt beam="1">  1        2 0.23140887E-01 0.86349140E+02</pdfrwt>
<pdfrwt beam="2">  1       -2 0.19065550E-02 0.86349140E+02</pdfrwt>
<totfact> 0.16210463E+05</totfact>
</mgrwt>
</event>
<event>
 5    1  0.1270834E+001  0.9163175E+02  0.7546771E-02  0.1298948E+00
         -1   -1    0    0    0  501 -0.00000000000E+00  0.00000000000E+00  0.16846421656E+02  0.16846421656E+02  0.00000000000E+00 0.  1.
          1   -1    0    0  501    0  0.00000000000E+00 -0.00000000000E+00 -0.12460180942E+03  0.12460180942E+03  0.00000000000E+00 0. -1.
         23    2    1    2    0    0  0.00000000000E+00  0.00000000000E+00 -0.10775538777E+03  0.14144823108E+03  0.91631754772E+02 0.  0.
        -11    1    3    3    0    0 -0.31465175903E+01  0.44888069701E+02 -0.40575750702E+02  0.60590683438E+02  0.00000000000E+00 0.  1.
         11    1    3    3    0    0  0.31465175903E+01 -0.44888069701E+02 -0.67179637063E+02  0.80857547640E+02  0.00000000000E+00 0. -1.
<mgrwt>
<rscale>  0 0.91631755E+02</rscale>
<asrwt>0</asrwt>
<pdfrwt beam="2">  1        1 0.19169509E-01 0.91631755E+02</pdfrwt>
<pdfrwt beam="1">  1       -1 0.25917572E-02 0.91631755E+02</pdfrwt>
<totfact> 0.10699588E+05</totfact>
</mgrwt>
</event>
<event>
 5    1  0.1270834E+001  0.8877175E+02  0.7546771E-02  0.1305854E+00
         -2   -1    0    0    0  501 -0.00000000000E+00  0.00000000000E+00  0.10709901974E+02  0.10709901974E+02  0.00000000000E+00 0.  1.
          2   -1    0    0  501    0  0.00000000000E+00 -0.00000000000E+00 -0.18395181755E+03  0.18395181755E+03  0.00000000000E+00 0. -1.
         23    2    1    2    0    0  0.00000000000E+00  0.00000000000E+00 -0.17324191558E+03  0.19466171952E+03  0.88771750774E+02 0.  0.
        -13    1    3    3    0    0 -0.18346751608E+02 -0.25739758986E+02 -0.18291479468E+02  0.36520086368E+02  0.00000000000E+00 0.  1.
         13    1    3    3    0    0  0.18346751608E+02  0.25739758986E+02 -0.15495043611E+03  0.15814163316E+03  0.00000000000E+00 0. -1.
<mgrwt>
<rscale>  0 0.88771751E+02</rscale>
<asrwt>0</asrwt>
<pdfrwt beam="2">  1        2 0.28300280E-01 0.88771751E+02</pdfrwt>
<pdfrwt beam="1">  1       -2 0.16476772E-02 0.88771751E+02</pdfrwt>
<totfact> 0.16130173E+05</totfact>
</mgrwt>
</event>
<event>
 5    1  0.1270834E+001  0.9180027E+02  0.7546771E-02  0.1298550E+00
         -4   -1    0    0    0  501 -0.00000000000E+00  0.00000000000E+00  0.87227277772E+01  0.87227277772E+01  0.00000000000E+00 0.  1.
          4   -1    0    0  501    0  0.00000000000E+00 -0.00000000000E+00 -0.24153251454E+03  0.24153251454E+03  0.00000000000E+00 0. -1.
         23    2    1    2    0    0  0.00000000000E+00  0.00000000000E+00 -0.23280978676E+03  0.25025524231E+03  0.91800269578E+02 0.  0.
        -13    1    3    3    0    0  0.29896382598E+02  0.34301438231E+02 -0.99948733062E+02  0.10981863047E+03  0.00000000000E+00 0. -1.
         13    1    3    3    0    0 -0.29896382598E+02 -0.34301438231E+02 -0.13286105370E+03  0.14043661185E+03  0.00000000000E+00 0.  1.
<mgrwt>
<rscale>  0 0.91800270E+02</rscale>
<asrwt>0</asrwt>
<pdfrwt beam="2">  1        4 0.37158846E-01 0.91800270E+02</pdfrwt>
<pdfrwt beam="1">  1       -4 0.13419582E-02 0.91800270E+02</pdfrwt>
<totfact> 0.19103609E+04</totfact>
</mgrwt>
</event>
<event>
 5    1  0.1270834E+001  0.9283596E+02  0.7546771E-02  0.1296126E+00
          4   -1    0    0  501    0  0.00000000000E+00  0.00000000000E+00  0.28096277709E+02  0.28096277709E+02  0.00000000000E+00 0. -1.
         -4   -1    0    0    0  501 -0.00000000000E+00 -0.00000000000E+00 -0.76687336570E+02  0.76687336570E+02  0.00000000000E+00 0.  1.
         23    2    1    2    0    0  0.00000000000E+00  0.00000000000E+00 -0.48591058861E+02  0.10478361428E+03  0.92835956505E+02 0.  0.
        -11    1    3    3    0    0 -0.65222843035E+01 -0.21547465289E+02 -0.70112754404E+02  0.73638521054E+02  0.00000000000E+00 0.  1.
         11    1    3    3    0    0  0.65222843035E+01  0.21547465289E+02  0.21521695543E+02  0.31145093225E+02  0.00000000000E+00 0. -1.
<mgrwt>
<rscale>  0 0.92835957E+02</rscale>
<asrwt>0</asrwt>
<pdfrwt beam="1">  1        4 0.43225043E-02 0.92835957E+02</pdfrwt>
<pdfrwt beam="2">  1       -4 0.11798052E-01 0.92835957E+02</pdfrwt>
<totfact> 0.24914464E+04</totfact>
</mgrwt>
</event>
<event>
 5    1  0.1270834E+001  0.1049525E+03  0.7546771E-02  0.1270213E+00
         -1   -1    0    0    0  501 -0.00000000000E+00  0.00000000000E+00  0.24284343321E+02  0.24284343321E+02  0.00000000000E+00 0.  1.
          1   -1    0    0  501    0  0.00000000000E+00 -0.00000000000E+00 -0.11339641997E+03  0.11339641997E+03  0.00000000000E+00 0. -1.
         23    2    1    2    0    0  0.00000000000E+00  0.00000000000E+00 -0.89112076650E+02  0.13768076329E+03  0.10495251486E+03 0.  0.
        -13    1    3    3    0    0 -0.20196199008E+02 -0.32680102410E+02  0.23388817146E+01  0.38488256853E+02  0.00000000000E+00 0.  1.
         13    1    3    3    0    0  0.20196199008E+02  0.32680102410E+02 -0.91450958365E+02  0.99192506440E+02  0.00000000000E+00 0. -1.
<mgrwt>
<rscale>  0 0.10495251E+03</rscale>
<asrwt>0</asrwt>
<pdfrwt beam="2">  1        1 0.17445603E-01 0.10495251E+03</pdfrwt>
<pdfrwt beam="1">  1       -1 0.37360528E-02 0.10495251E+03</pdfrwt>
<totfact> 0.72535648E+04</totfact>
</mgrwt>
</event>
<event>
 5    1  0.1270834E+001  0.8959876E+02  0.7546771E-02  0.1303826E+00
         -3   -1    0    0    0  501 -0.00000000000E+00  0.00000000000E+00  0.48822857316E+02  0.48822857316E+02  0.00000000000E+00 0.  1.
          3   -1    0    0  501    0  0.00000000000E+00 -0.00000000000E+00 -0.41107472782E+02  0.41107472782E+02  0.00000000000E+00 0. -1.
         23    2    1    2    0    0  0.00000000000E+00  0.00000000000E+00  0.77153845346E+01  0.89930330098E+02  0.89598756202E+02 0.  0.
        -13    1    3    3    0    0 -0.94377956103E+01  0.36576651809E+02 -0.20315888066E+02  0.42891243296E+02  0.00000000000E+00 0. -1.
         13    1    3    3    0    0  0.94377956103E+01 -0.36576651809E+02  0.28031272600E+02  0.47039086802E+02  0.00000000000E+00 0.  1.
<mgrwt>
<rscale>  0 0.89598756E+02</rscale>
<asrwt>0</asrwt>
<pdfrwt beam="2">  1        3 0.63242266E-02 0.89598756E+02</pdfrwt>
<pdfrwt beam="1">  1       -3 0.75112088E-02 0.89598756E+02</pdfrwt>
<totfact> 0.37157662E+04</totfact>
</mgrwt>
</event>
<event>
 5    1  0.1270834E+001  0.9146535E+02  0.7546771E-02  0.1299341E+00
         -1   -1    0    0    0  501 -0.00000000000E+00  0.00000000000E+00  0.78110006468E+01  0.78110006468E+01  0.00000000000E+00 0.  1.
          1   -1    0    0  501    0  0.00000000000E+00 -0.00000000000E+00 -0.26776049655E+03  0.26776049655E+03  0.00000000000E+00 0. -1.
         23    2    1    2    0    0  0.00000000000E+00  0.00000000000E+00 -0.25994949590E+03  0.27557149720E+03  0.91465346700E+02 0.  0.
        -13    1    3    3    0    0 -0.67735284105E+01  0.45157005677E+02 -0.13762143537E+03  0.14499894938E+03  0.00000000000E+00 0. -1.
         13    1    3    3    0    0  0.67735284105E+01 -0.45157005677E+02 -0.12232806054E+03  0.13057254782E+03  0.00000000000E+00 0.  1.
<mgrwt>
<rscale>  0 0.91465347E+02</rscale>
<asrwt>0</asrwt>
<pdfrwt beam="2">  1        1 0.41193931E-01 0.91465347E+02</pdfrwt>
<pdfrwt beam="1">  1       -1 0.12016922E-02 0.91465347E+02</pdfrwt>
<totfact> 0.12428528E+05</totfact>
</mgrwt>
</event>
<event>
 5    1  0.1270834E+001  0.9336616E+02  0.7546771E-02  0.1294899E+00
          1   -1    0    0  501    0  0.00000000000E+00  0.00000000000E+00  0.15893201993E+02  0.15893201993E+02  0.00000000000E+00 0. -1.
         -1   -1    0    0    0  501 -0.00000000000E+00 -0.00000000000E+00 -0.13712215968E+03  0.13712215968E+03  0.00000000000E+00 0.  1.
         23    2    1    2    0    0  0.00000000000E+00  0.00000000000E+00 -0.12122895769E+03  0.15301536168E+03  0.93366164783E+02 0.  0.
        -11    1    3    3    0    0  0.36201616100E+02  0.13187307176E+02 -0.10381514578E+03  0.11073412560E+03  0.00000000000E+00 0.  1.
         11    1    3    3    0    0 -0.36201616100E+02 -0.13187307176E+02 -0.17413811906E+02  0.42281236074E+02  0.00000000000E+00 0. -1.
<mgrwt>
<rscale>  0 0.93366165E+02</rscale>
<asrwt>0</asrwt>
<pdfrwt beam="1">  1        1 0.24451078E-02 0.93366165E+02</pdfrwt>
<pdfrwt beam="2">  1       -1 0.21095718E-01 0.93366165E+02</pdfrwt>
<totfact> 0.71773567E+04</totfact>
</mgrwt>
</event>
<event>
 5    1  0.1270834E+001  0.8820180E+02  0.7546771E-02  0.1307266E+00
         -2   -1    0    0    0  501 -0.00000000000E+00  0.00000000000E+00  0.99326540572E+02  0.99326540572E+02  0.00000000000E+00 0.  1.
          2   -1    0    0  501    0  0.00000000000E+00 -0.00000000000E+00 -0.19580763628E+02  0.19580763628E+02  0.00000000000E+00 0. -1.
         23    2    1    2    0    0  0.00000000000E+00  0.00000000000E+00  0.79745776944E+02  0.11890730420E+03  0.88201802997E+02 0.  0.
        -13    1    3    3    0    0 -0.35265659485E+02 -0.22985581808E+02  0.22146888840E+02  0.47565621989E+02  0.00000000000E+00 0. -1.
         13    1    3    3    0    0  0.35265659485E+02  0.22985581808E+02  0.57598888104E+02  0.71341682211E+02  0.00000000000E+00 0.  1.
<mgrwt>
<rscale>  0 0.88201803E+02</rscale>
<asrwt>0</asrwt>
<pdfrwt beam="2">  1        2 0.30124252E-02 0.88201803E+02</pdfrwt>
<pdfrwt beam="1">  1       -2 0.15281006E-01 0.88201803E+02</pdfrwt>
<totfact> 0.86841584E+04</totfact>
</mgrwt>
</event>
<event>
 5    1  0.1270834E+001  0.9316392E+02  0.7546771E-02  0.1295366E+00
         -1   -1    0    0    0  501 -0.00000000000E+00  0.00000000000E+00  0.30276167021E+02  0.30276167021E+02  0.00000000000E+00 0.  1.
          1   -1    0    0  501    0  0.00000000000E+00 -0.00000000000E+00 -0.71669541051E+02  0.71669541051E+02  0.00000000000E+00 0. -1.
         23    2    1    2    0    0  0.00000000000E+00  0.00000000000E+00 -0.41393374030E+02  0.10194570807E+03  0.93163919951E+02 0.  0.
        -13    1    3    3    0    0  0.30113322777E+02 -0.18167357324E+02 -0.54121212723E+02  0.64544331645E+02  0.00000000000E+00 0. -1.
         13    1    3    3    0    0 -0.30113322777E+02  0.18167357324E+02  0.12727838694E+02  0.37401376427E+02  0.00000000000E+00 0.  1.
<mgrwt>
<rscale>  0 0.93163920E+02</rscale>
<asrwt>0</asrwt>
<pdfrwt beam="2">  1        1 0.11026083E-01 0.93163920E+02</pdfrwt>
<pdfrwt beam="1">  1       -1 0.46578719E-02 0.93163920E+02</pdfrwt>
<totfact> 0.93301769E+04</totfact>
</mgrwt>
</event>
<event>
 5    1  0.1270834E+001  0.9151461E+02  0.7546771E-02  0.1299225E+00
          2   -1    0    0  501    0  0.00000000000E+00  0.00000000000E+00  0.30403165627E+02  0.30403165627E+02  0.00000000000E+00 0. -1.
         -2   -1    0    0    0  501 -0.00000000000E+00 -0.00000000000E+00 -0.68865553325E+02  0.68865553325E+02  0.00000000000E+00 0.  1.
         23    2    1    2    0    0  0.00000000000E+00  0.00000000000E+00 -0.38462387698E+02  0.99268718953E+02  0.91514607004E+02 0.  0.
        -13    1    3    3    0    0  0.36116935375E+02  0.20137411995E+02  0.20190808660E+01  0.41400785865E+02  0.00000000000E+00 0.  1.
         13    1    3    3    0    0 -0.36116935375E+02 -0.20137411995E+02 -0.40481468564E+02  0.57867933087E+02  0.00000000000E+00 0. -1.
<mgrwt>
<rscale>  0 0.91514607E+02</rscale>
<asrwt>0</asrwt>
<pdfrwt beam="1">  1        2 0.46774101E-02 0.91514607E+02</pdfrwt>
<pdfrwt beam="2">  1       -2 0.10594700E-01 0.91514607E+02</pdfrwt>
<totfact> 0.87812408E+04</totfact>
</mgrwt>
</event>
<event>
 5    1  0.1270834E+001  0.9118863E+02  0.7546771E-02  0.1299999E+00
         -2   -1    0    0    0  501 -0.00000000000E+00  0.00000000000E+00  0.76480057813E+02  0.76480057813E+02  0.00000000000E+00 0. -1.
          2   -1    0    0  501    0  0.00000000000E+00 -0.00000000000E+00 -0.27181483560E+02  0.27181483560E+02  0.00000000000E+00 0.  1.
         23    2    1    2    0    0  0.00000000000E+00  0.00000000000E+00  0.49298574253E+02  0.10366154137E+03  0.91188627233E+02 0.  0.
        -11    1    3    3    0    0 -0.15438507590E+02  0.21361111750E+02 -0.17644435071E+02  0.31717041173E+02  0.00000000000E+00 0.  1.
         11    1    3    3    0    0  0.15438507590E+02 -0.21361111750E+02  0.66943009324E+02  0.71944500201E+02  0.00000000000E+00 0. -1.
<mgrwt>
<rscale>  0 0.91188627E+02</rscale>
<asrwt>0</asrwt>
<pdfrwt beam="2">  1        2 0.41817667E-02 0.91188627E+02</pdfrwt>
<pdfrwt beam="1">  1       -2 0.11766163E-01 0.91188627E+02</pdfrwt>
<totfact> 0.86108975E+04</totfact>
</mgrwt>
</event>
<event>
 5    1  0.1270834E+001  0.9200567E+02  0.7546771E-02  0.1298066E+00
         -2   -1    0    0    0  501 -0.00000000000E+00  0.00000000000E+00  0.10470204033E+02  0.10470204033E+02  0.00000000000E+00 0.  1.
          2   -1    0    0  501    0  0.00000000000E+00 -0.00000000000E+00 -0.20212221489E+03  0.20212221489E+03  0.00000000000E+00 0. -1.
         23    2    1    2    0    0  0.00000000000E+00  0.00000000000E+00 -0.19165201086E+03  0.21259241892E+03  0.92005670032E+02 0.  0.
        -13    1    3    3    0    0  0.38468793108E+02 -0.90694187795E+01 -0.41432111141E+02  0.57260127783E+02  0.00000000000E+00 0.  1.
         13    1    3    3    0    0 -0.38468793108E+02  0.90694187795E+01 -0.15021989971E+03  0.15533229114E+03  0.00000000000E+00 0. -1.
<mgrwt>
<rscale>  0 0.92005670E+02</rscale>
<asrwt>0</asrwt>
<pdfrwt beam="2">  1        2 0.31095724E-01 0.92005670E+02</pdfrwt>
<pdfrwt beam="1">  1       -2 0.16108007E-02 0.92005670E+02</pdfrwt>
<totfact> 0.15153042E+05</totfact>
</mgrwt>
</event>
<event>
 5    1  0.1270834E+001  0.9160650E+02  0.7546771E-02  0.1299007E+00
         -3   -1    0    0    0  501 -0.00000000000E+00  0.00000000000E+00  0.11975621243E+02  0.11975621243E+02  0.00000000000E+00 0.  1.
          3   -1    0    0  501    0  0.00000000000E+00 -0.00000000000E+00 -0.17518402555E+03  0.17518402555E+03  0.00000000000E+00 0. -1.
         23    2    1    2    0    0  0.00000000000E+00  0.00000000000E+00 -0.16320840431E+03  0.18715964680E+03  0.91606496229E+02 0.  0.
        -13    1    3    3    0    0  0.43839924930E+02  0.12651258057E+02 -0.89762267301E+02  0.10069388253E+03  0.00000000000E+00 0. -1.
         13    1    3    3    0    0 -0.43839924930E+02 -0.12651258057E+02 -0.73446137009E+02  0.86465764264E+02  0.00000000000E+00 0.  1.
<mgrwt>
<rscale>  0 0.91606496E+02</rscale>
<asrwt>0</asrwt>
<pdfrwt beam="2">  1        3 0.26951388E-01 0.91606496E+02</pdfrwt>
<pdfrwt beam="1">  1       -3 0.18424033E-02 0.91606496E+02</pdfrwt>
<totfact> 0.28807560E+04</totfact>
</mgrwt>
</event>
<event>
 5    1  0.1270834E+001  0.9362601E+02  0.7546771E-02  0.1294301E+00
         -1   -1    0    0    0  501 -0.00000000000E+00  0.00000000000E+00  0.44870053717E+02  0.44870053717E+02  0.00000000000E+00 0.  1.
          1   -1    0    0  501    0  0.00000000000E+00 -0.00000000000E+00 -0.48840088172E+02  0.48840088172E+02  0.00000000000E+00 0. -1.
         23    2    1    2    0    0  0.00000000000E+00  0.00000000000E+00 -0.39700344545E+01  0.93710141889E+02  0.93626008776E+02 0.  0.
        -11    1    3    3    0    0  0.45884988211E+02  0.46562583823E+01  0.60436929750E+01  0.46514934269E+02  0.00000000000E+00 0.  1.
         11    1    3    3    0    0 -0.45884988211E+02 -0.46562583823E+01 -0.10013727430E+02  0.47195207620E+02  0.00000000000E+00 0. -1.
<mgrwt>
<rscale>  0 0.93626009E+02</rscale>
<asrwt>0</asrwt>
<pdfrwt beam="2">  1        1 0.75138597E-02 0.93626009E+02</pdfrwt>
<pdfrwt beam="1">  1       -1 0.69030852E-02 0.93626009E+02</pdfrwt>
<totfact> 0.86735112E+04</totfact>
</mgrwt>
</event>
<event>
 5    1  0.1270834E+001  0.9122012E+02  0.7546771E-02  0.1299924E+00
          1   -1    0    0  501    0  0.00000000000E+00  0.00000000000E+00  0.43942357949E+03  0.43942357949E+03  0.00000000000E+00 0. -1.
         -1   -1    0    0    0  501 -0.00000000000E+00 -0.00000000000E+00 -0.47341051381E+01  0.47341051381E+01  0.00000000000E+00 0.  1.
         23    2    1    2    0    0  0.00000000000E+00  0.00000000000E+00  0.43468947435E+03  0.44415768462E+03  0.91220116760E+02 0.  0.
        -11    1    3    3    0    0  0.41917594604E+02 -0.14741865825E+02  0.16724526188E+03  0.17304734892E+03  0.00000000000E+00 0. -1.
         11    1    3    3    0    0 -0.41917594604E+02  0.14741865825E+02  0.26744421247E+03  0.27111033571E+03  0.00000000000E+00 0.  1.
<mgrwt>
<rscale>  0 0.91220117E+02</rscale>
<asrwt>0</asrwt>
<pdfrwt beam="1">  1        1 0.67603595E-01 0.91220117E+02</pdfrwt>
<pdfrwt beam="2">  1       -1 0.72832421E-03 0.91220117E+02</pdfrwt>
<totfact> 0.13671165E+05</totfact>
</mgrwt>
</event>
<event>
 5    1  0.1270834E+001  0.9150057E+02  0.7546771E-02  0.1299258E+00
         -2   -1    0    0    0  501 -0.00000000000E+00  0.00000000000E+00  0.56270695080E+01  0.56270695080E+01  0.00000000000E+00 0.  1.
          2   -1    0    0  501    0  0.00000000000E+00 -0.00000000000E+00 -0.37196778076E+03  0.37196778076E+03  0.00000000000E+00 0. -1.
         23    2    1    2    0    0  0.00000000000E+00  0.00000000000E+00 -0.36634071125E+03  0.37759485027E+03  0.91500569552E+02 0.  0.
        -11    1    3    3    0    0  0.42368327040E+02 -0.27010071317E+01 -0.25353236162E+03  0.25706230560E+03  0.00000000000E+00 0. -1.
         11    1    3    3    0    0 -0.42368327040E+02  0.27010071317E+01 -0.11280834964E+03  0.12053254467E+03  0.00000000000E+00 0.  1.
<mgrwt>
<rscale>  0 0.91500570E+02</rscale>
<asrwt>0</asrwt>
<pdfrwt beam="2">  1        2 0.57225799E-01 0.91500570E+02</pdfrwt>
<pdfrwt beam="1">  1       -2 0.86570321E-03 0.91500570E+02</pdfrwt>
<totfact> 0.19263352E+05</totfact>
</mgrwt>
</event>
<event>
 5    1  0.1270834E+001  0.9361547E+02  0.7546771E-02  0.1294325E+00
         -1   -1    0    0    0  501 -0.00000000000E+00  0.00000000000E+00  0.33715325607E+02  0.33715325607E+02  0.00000000000E+00 0.  1.
          1   -1    0    0  501    0  0.00000000000E+00 -0.00000000000E+00 -0.64984222854E+02  0.64984222854E+02  0.00000000000E+00 0. -1.
         23    2    1    2    0    0  0.00000000000E+00  0.00000000000E+00 -0.31268897247E+02  0.98699548461E+02  0.93615473782E+02 0.  0.
        -11    1    3    3    0    0  0.43840684098E+02 -0.13518650628E+02 -0.58455667243E+01  0.46248569139E+02  0.00000000000E+00 0.  1.
         11    1    3    3    0    0 -0.43840684098E+02  0.13518650628E+02 -0.25423330522E+02  0.52450979322E+02  0.00000000000E+00 0. -1.
<mgrwt>
<rscale>  0 0.93615474E+02</rscale>
<asrwt>0</asrwt>
<pdfrwt beam="2">  1        1 0.99975727E-02 0.93615474E+02</pdfrwt>
<pdfrwt beam="1">  1       -1 0.51869732E-02 0.93615474E+02</pdfrwt>
<totfact> 0.90661897E+04</totfact>
</mgrwt>
</event>
<event>
 5    1  0.1270834E+001  0.9155574E+02  0.7546771E-02  0.1299127E+00
         -1   -1    0    0    0  501 -0.00000000000E+00  0.00000000000E+00  0.75123746172E+02  0.75123746172E+02  0.00000000000E+00 0.  1.
          1   -1    0    0  501    0  0.00000000000E+00 -0.00000000000E+00 -0.27895483211E+02  0.27895483211E+02  0.00000000000E+00 0. -1.
         23    2    1    2    0    0  0.00000000000E+00  0.00000000000E+00  0.47228262961E+02  0.10301922938E+03  0.91555736033E+02 0.  0.
        -11    1    3    3    0    0  0.11210828252E+02  0.42426635969E+02  0.38281209495E+02  0.58233608081E+02  0.00000000000E+00 0.  1.
         11    1    3    3    0    0 -0.11210828252E+02 -0.42426635969E+02  0.89470534662E+01  0.44785621303E+02  0.00000000000E+00 0. -1.
<mgrwt>
<rscale>  0 0.91555736E+02</rscale>
<asrwt>0</asrwt>
<pdfrwt beam="2">  1        1 0.42916128E-02 0.91555736E+02</pdfrwt>
<pdfrwt beam="1">  1       -1 0.11557499E-01 0.91555736E+02</pdfrwt>
<totfact> 0.84642847E+04</totfact>
</mgrwt>
</event>
<event>
 5    1  0.1270834E+001  0.1016451E+03  0.7546771E-02  0.1276874E+00
         -1   -1    0    0    0  501 -0.00000000000E+00  0.00000000000E+00  0.17410763833E+03  0.17410763833E+03  0.00000000000E+00 0.  1.
          1   -1    0    0  501    0  0.00000000000E+00 -0.00000000000E+00 -0.14835256383E+02  0.14835256383E+02  0.00000000000E+00 0. -1.
         23    2    1    2    0    0  0.00000000000E+00  0.00000000000E+00  0.15927238195E+03  0.18894289472E+03  0.10164509733E+03 0.  0.
        -11    1    3    3    0    0  0.49632914530E+02 -0.90370181016E+01  0.68201994666E+02  0.84832811915E+02  0.00000000000E+00 0. -1.
         11    1    3    3    0    0 -0.49632914530E+02  0.90370181016E+01  0.91070387283E+02  0.10411008280E+03  0.00000000000E+00 0.  1.
<mgrwt>
<rscale>  0 0.10164510E+03</rscale>
<asrwt>0</asrwt>
<pdfrwt beam="2">  1        1 0.22823473E-02 0.10164510E+03</pdfrwt>
<pdfrwt beam="1">  1       -1 0.26785789E-01 0.10164510E+03</pdfrwt>
<totfact> 0.54290860E+04</totfact>
</mgrwt>
</event>
<event>
 5    1  0.1270834E+001  0.9269856E+02  0.7546771E-02  0.1296445E+00
          3   -1    0    0  501    0  0.00000000000E+00  0.00000000000E+00  0.13687675645E+02  0.13687675645E+02  0.00000000000E+00 0. -1.
         -3   -1    0    0    0  501 -0.00000000000E+00 -0.00000000000E+00 -0.15694816380E+03  0.15694816380E+03  0.00000000000E+00 0.  1.
         23    2    1    2    0    0  0.00000000000E+00  0.00000000000E+00 -0.14326048816E+03  0.17063583945E+03  0.92698555744E+02 0.  0.
        -13    1    3    3    0    0  0.44553875957E+02  0.97051505116E+01 -0.56337772424E+02  0.72478841126E+02  0.00000000000E+00 0. -1.
         13    1    3    3    0    0 -0.44553875957E+02 -0.97051505116E+01 -0.86922715733E+02  0.98156998323E+02  0.00000000000E+00 0.  1.
<mgrwt>
<rscale>  0 0.92698556E+02</rscale>
<asrwt>0</asrwt>
<pdfrwt beam="1">  1        3 0.21057962E-02 0.92698556E+02</pdfrwt>
<pdfrwt beam="2">  1       -3 0.24145872E-01 0.92698556E+02</pdfrwt>
<totfact> 0.28770439E+04</totfact>
</mgrwt>
</event>
<event>
 5    1  0.1270834E+001  0.9090741E+02  0.7546771E-02  0.1300669E+00
          1   -1    0    0  501    0  0.00000000000E+00  0.00000000000E+00  0.37726766515E+02  0.37726766515E+02  0.00000000000E+00 0. -1.
         -1   -1    0    0    0  501 -0.00000000000E+00 -0.00000000000E+00 -0.54763217551E+02  0.54763217551E+02  0.00000000000E+00 0.  1.
         23    2    1    2    0    0  0.00000000000E+00  0.00000000000E+00 -0.17036451037E+02  0.92489984066E+02  0.90907406126E+02 0.  0.
        -11    1    3    3    0    0 -0.12224629284E+02  0.43075174293E+02 -0.16472703747E+02  0.47710189376E+02  0.00000000000E+00 0.  1.
         11    1    3    3    0    0  0.12224629284E+02 -0.43075174293E+02 -0.56374728905E+00  0.44779794690E+02  0.00000000000E+00 0. -1.
<mgrwt>
<rscale>  0 0.90907406E+02</rscale>
<asrwt>0</asrwt>
<pdfrwt beam="1">  1        1 0.58041179E-02 0.90907406E+02</pdfrwt>
<pdfrwt beam="2">  1       -1 0.84251104E-02 0.90907406E+02</pdfrwt>
<totfact> 0.90614344E+04</totfact>
</mgrwt>
</event>
<event>
 5    1  0.1270834E+001  0.9006242E+02  0.7546771E-02  0.1302701E+00
         -2   -1    0    0    0  501 -0.00000000000E+00  0.00000000000E+00  0.10437748429E+03  0.10437748429E+03  0.00000000000E+00 0.  1.
          2   -1    0    0  501    0  0.00000000000E+00 -0.00000000000E+00 -0.19427655761E+02  0.19427655761E+02  0.00000000000E+00 0. -1.
         23    2    1    2    0    0  0.00000000000E+00  0.00000000000E+00  0.84949828525E+02  0.12380514005E+03  0.90062419109E+02 0.  0.
        -13    1    3    3    0    0  0.39944885661E+02  0.19846942750E+02  0.50983911613E+02  0.67741082589E+02  0.00000000000E+00 0. -1.
         13    1    3    3    0    0 -0.39944885661E+02 -0.19846942750E+02  0.33965916912E+02  0.56064057458E+02  0.00000000000E+00 0.  1.
<mgrwt>
<rscale>  0 0.90062419E+02</rscale>
<asrwt>0</asrwt>
<pdfrwt beam="2">  1        2 0.29888702E-02 0.90062419E+02</pdfrwt>
<pdfrwt beam="1">  1       -2 0.16058074E-01 0.90062419E+02</pdfrwt>
<totfact> 0.81235633E+04</totfact>
</mgrwt>
</event>
<event>
 5    1  0.1270834E+001  0.9577899E+02  0.7546771E-02  0.1289431E+00
          1   -1    0    0  501    0  0.00000000000E+00  0.00000000000E+00  0.10951316170E+03  0.10951316170E+03  0.00000000000E+00 0. -1.
         -1   -1    0    0    0  501 -0.00000000000E+00 -0.00000000000E+00 -0.20941809720E+02  0.20941809720E+02  0.00000000000E+00 0.  1.
         23    2    1    2    0    0  0.00000000000E+00  0.00000000000E+00  0.88571351982E+02  0.13045497142E+03  0.95778991314E+02 0.  0.
        -11    1    3    3    0    0 -0.52191329436E+01  0.35063055452E+02  0.42991186904E+00  0.35451967936E+02  0.00000000000E+00 0.  1.
         11    1    3    3    0    0  0.52191329436E+01 -0.35063055452E+02  0.88141440113E+02  0.95003003487E+02  0.00000000000E+00 0. -1.
<mgrwt>
<rscale>  0 0.95778991E+02</rscale>
<asrwt>0</asrwt>
<pdfrwt beam="1">  1        1 0.16848178E-01 0.95778991E+02</pdfrwt>
<pdfrwt beam="2">  1       -1 0.32218170E-02 0.95778991E+02</pdfrwt>
<totfact> 0.92719553E+04</totfact>
</mgrwt>
</event>
<event>
 5    1  0.1270834E+001  0.9409903E+02  0.7546771E-02  0.1293218E+00
         -3   -1    0    0    0  501 -0.00000000000E+00  0.00000000000E+00  0.41878285262E+02  0.41878285262E+02  0.00000000000E+00 0.  1.
          3   -1    0    0  501    0  0.00000000000E+00 -0.00000000000E+00 -0.52859297239E+02  0.52859297239E+02  0.00000000000E+00 0. -1.
         23    2    1    2    0    0  0.00000000000E+00  0.00000000000E+00 -0.10981011978E+02  0.94737582501E+02  0.94099027168E+02 0.  0.
        -13    1    3    3    0    0 -0.23188036917E+02 -0.15456499151E+01 -0.46677561561E+02  0.52142773641E+02  0.00000000000E+00 0. -1.
         13    1    3    3    0    0  0.23188036917E+02  0.15456499151E+01  0.35696549583E+02  0.42594808860E+02  0.00000000000E+00 0.  1.
<mgrwt>
<rscale>  0 0.94099027E+02</rscale>
<asrwt>0</asrwt>
<pdfrwt beam="2">  1        3 0.81321995E-02 0.94099027E+02</pdfrwt>
<pdfrwt beam="1">  1       -3 0.64428131E-02 0.94099027E+02</pdfrwt>
<totfact> 0.32170262E+04</totfact>
</mgrwt>
</event>
<event>
 5    1  0.1270834E+001  0.9207336E+02  0.7546771E-02  0.1297907E+00
          2   -1    0    0  501    0  0.00000000000E+00  0.00000000000E+00  0.83174379676E+02  0.83174379676E+02  0.00000000000E+00 0. -1.
         -2   -1    0    0    0  501 -0.00000000000E+00 -0.00000000000E+00 -0.25481116944E+02  0.25481116944E+02  0.00000000000E+00 0.  1.
         23    2    1    2    0    0  0.00000000000E+00  0.00000000000E+00  0.57693262732E+02  0.10865549662E+03  0.92073364124E+02 0.  0.
        -13    1    3    3    0    0 -0.32124595037E+02 -0.20516418158E+02  0.59311950787E+02  0.70504046171E+02  0.00000000000E+00 0. -1.
         13    1    3    3    0    0  0.32124595037E+02  0.20516418158E+02 -0.16186880548E+01  0.38151450449E+02  0.00000000000E+00 0.  1.
<mgrwt>
<rscale>  0 0.92073364E+02</rscale>
<asrwt>0</asrwt>
<pdfrwt beam="1">  1        2 0.12796058E-01 0.92073364E+02</pdfrwt>
<pdfrwt beam="2">  1       -2 0.39201719E-02 0.92073364E+02</pdfrwt>
<totfact> 0.11303207E+05</totfact>
</mgrwt>
</event>
<event>
 5    1  0.1270834E+001  0.9130212E+02  0.7546771E-02  0.1299729E+00
          2   -1    0    0  501    0  0.00000000000E+00  0.00000000000E+00  0.34763214272E+02  0.34763214272E+02  0.00000000000E+00 0.  1.
         -2   -1    0    0    0  501 -0.00000000000E+00 -0.00000000000E+00 -0.59948980087E+02  0.59948980087E+02  0.00000000000E+00 0. -1.
         23    2    1    2    0    0  0.00000000000E+00  0.00000000000E+00 -0.25185765815E+02  0.94712194359E+02  0.91302119147E+02 0.  0.
        -11    1    3    3    0    0 -0.29684098372E+02  0.33081101146E+02 -0.23398971146E+02  0.50229640651E+02  0.00000000000E+00 0. -1.
         11    1    3    3    0    0  0.29684098372E+02 -0.33081101146E+02 -0.17867946689E+01  0.44482553708E+02  0.00000000000E+00 0.  1.
<mgrwt>
<rscale>  0 0.91302119E+02</rscale>
<asrwt>0</asrwt>
<pdfrwt beam="1">  1        2 0.53481869E-02 0.91302119E+02</pdfrwt>
<pdfrwt beam="2">  1       -2 0.92229199E-02 0.91302119E+02</pdfrwt>
<totfact> 0.91604714E+04</totfact>
</mgrwt>
</event>
<event>
 5    1  0.1270834E+001  0.9232721E+02  0.7546771E-02  0.1297312E+00
         -1   -1    0    0    0  501 -0.00000000000E+00  0.00000000000E+00  0.23676106877E+02  0.23676106877E+02  0.00000000000E+00 0.  1.
          1   -1    0    0  501    0  0.00000000000E+00 -0.00000000000E+00 -0.90009665693E+02  0.90009665693E+02  0.00000000000E+00 0. -1.
         23    2    1    2    0    0  0.00000000000E+00  0.00000000000E+00 -0.66333558815E+02  0.11368577257E+03  0.92327210830E+02 0.  0.
        -11    1    3    3    0    0  0.39046580463E+02  0.17015874405E+02 -0.11246827227E+02  0.44052997063E+02  0.00000000000E+00 0.  1.
         11    1    3    3    0    0 -0.39046580463E+02 -0.17015874405E+02 -0.55086731589E+02  0.69632775506E+02  0.00000000000E+00 0. -1.
<mgrwt>
<rscale>  0 0.92327211E+02</rscale>
<asrwt>0</asrwt>
<pdfrwt beam="2">  1        1 0.13847641E-01 0.92327211E+02</pdfrwt>
<pdfrwt beam="1">  1       -1 0.36424780E-02 0.92327211E+02</pdfrwt>
<totfact> 0.99195921E+04</totfact>
</mgrwt>
</event>
<event>
 5    1  0.1270834E+001  0.8711036E+02  0.7546771E-02  0.1310004E+00
          4   -1    0    0  501    0  0.00000000000E+00  0.00000000000E+00  0.63955644948E+02  0.63955644948E+02  0.00000000000E+00 0. -1.
         -4   -1    0    0    0  501 -0.00000000000E+00 -0.00000000000E+00 -0.29662023709E+02  0.29662023709E+02  0.00000000000E+00 0.  1.
         23    2    1    2    0    0  0.00000000000E+00  0.00000000000E+00  0.34293621239E+02  0.93617668657E+02  0.87110363488E+02 0.  0.
        -11    1    3    3    0    0  0.10089459598E+02  0.86250701284E+01  0.61728998204E+02  0.63139989301E+02  0.00000000000E+00 0. -1.
         11    1    3    3    0    0 -0.10089459598E+02 -0.86250701284E+01 -0.27435376965E+02  0.30477679356E+02  0.00000000000E+00 0.  1.
<mgrwt>
<rscale>  0 0.87110363E+02</rscale>
<asrwt>0</asrwt>
<pdfrwt beam="1">  1        4 0.98393300E-02 0.87110363E+02</pdfrwt>
<pdfrwt beam="2">  1       -4 0.45633883E-02 0.87110363E+02</pdfrwt>
<totfact> 0.30380646E+04</totfact>
</mgrwt>
</event>
<event>
 5    1  0.1270834E+001  0.9189874E+02  0.7546771E-02  0.1298318E+00
         -1   -1    0    0    0  501 -0.00000000000E+00  0.00000000000E+00  0.46324326322E+03  0.46324326322E+03  0.00000000000E+00 0.  1.
          1   -1    0    0  501    0  0.00000000000E+00 -0.00000000000E+00 -0.45577446218E+01  0.45577446218E+01  0.00000000000E+00 0. -1.
         23    2    1    2    0    0  0.00000000000E+00  0.00000000000E+00  0.45868551860E+03  0.46780100784E+03  0.91898737565E+02 0.  0.
        -11    1    3    3    0    0  0.40352488963E+02  0.21885031591E+02  0.23960785421E+03  0.24396557497E+03  0.00000000000E+00 0.  1.
         11    1    3    3    0    0 -0.40352488963E+02 -0.21885031591E+02  0.21907766439E+03  0.22383543287E+03  0.00000000000E+00 0. -1.
<mgrwt>
<rscale>  0 0.91898738E+02</rscale>
<asrwt>0</asrwt>
<pdfrwt beam="2">  1        1 0.70119185E-03 0.91898738E+02</pdfrwt>
<pdfrwt beam="1">  1       -1 0.71268157E-01 0.91898738E+02</pdfrwt>
<totfact> 0.48224275E+04</totfact>
</mgrwt>
</event>
<event>
 5    1  0.1270834E+001  0.8762652E+02  0.7546771E-02  0.1308703E+00
         -1   -1    0    0    0  501 -0.00000000000E+00  0.00000000000E+00  0.18947211981E+02  0.18947211981E+02  0.00000000000E+00 0.  1.
          1   -1    0    0  501    0  0.00000000000E+00 -0.00000000000E+00 -0.10131314822E+03  0.10131314822E+03  0.00000000000E+00 0. -1.
         23    2    1    2    0    0  0.00000000000E+00  0.00000000000E+00 -0.82365936237E+02  0.12026036020E+03  0.87626518719E+02 0.  0.
        -13    1    3    3    0    0 -0.10668585844E+02 -0.36946540240E+02 -0.69995158257E+02  0.79863557015E+02  0.00000000000E+00 0. -1.
         13    1    3    3    0    0  0.10668585844E+02  0.36946540240E+02 -0.12370777980E+02  0.40396803184E+02  0.00000000000E+00 0.  1.
<mgrwt>
<rscale>  0 0.87626519E+02</rscale>
<asrwt>0</asrwt>
<pdfrwt beam="2">  1        1 0.15586638E-01 0.87626519E+02</pdfrwt>
<pdfrwt beam="1">  1       -1 0.29149557E-02 0.87626519E+02</pdfrwt>
<totfact> 0.11660197E+05</totfact>
</mgrwt>
</event>
<event>
 5    1  0.1270834E+001  0.9140865E+02  0.7546771E-02  0.1299476E+00
          2   -1    0    0  501    0  0.00000000000E+00  0.00000000000E+00  0.75191074848E+02  0.75191074848E+02  0.00000000000E+00 0. -1.
         -2   -1    0    0    0  501 -0.00000000000E+00 -0.00000000000E+00 -0.27781028087E+02  0.27781028087E+02  0.00000000000E+00 0.  1.
         23    2    1    2    0    0  0.00000000000E+00  0.00000000000E+00  0.47410046761E+02  0.10297210294E+03  0.91408650843E+02 0.  0.
        -11    1    3    3    0    0 -0.40104972918E+02 -0.17417765496E+02  0.87137316417E+01  0.44583814628E+02  0.00000000000E+00 0.  1.
         11    1    3    3    0    0  0.40104972918E+02  0.17417765496E+02  0.38696315120E+02  0.58388288308E+02  0.00000000000E+00 0. -1.
<mgrwt>
<rscale>  0 0.91408651E+02</rscale>
<asrwt>0</asrwt>
<pdfrwt beam="1">  1        2 0.11567858E-01 0.91408651E+02</pdfrwt>
<pdfrwt beam="2">  1       -2 0.42740044E-02 0.91408651E+02</pdfrwt>
<totfact> 0.11205565E+05</totfact>
</mgrwt>
</event>
<event>
 5    1  0.1270834E+001  0.8655930E+02  0.7546771E-02  0.1311404E+00
          2   -1    0    0  501    0  0.00000000000E+00  0.00000000000E+00  0.61847805586E+02  0.61847805586E+02  0.00000000000E+00 0.  1.
         -2   -1    0    0    0  501 -0.00000000000E+00 -0.00000000000E+00 -0.30286090150E+02  0.30286090150E+02  0.00000000000E+00 0. -1.
         23    2    1    2    0    0  0.00000000000E+00  0.00000000000E+00  0.31561715436E+02  0.92133895737E+02  0.86559302575E+02 0.  0.
        -11    1    3    3    0    0 -0.38438803223E+02 -0.18533444317E+02  0.23463603792E+02  0.48698776724E+02  0.00000000000E+00 0.  1.
         11    1    3    3    0    0  0.38438803223E+02  0.18533444317E+02  0.80981116444E+01  0.43435119013E+02  0.00000000000E+00 0. -1.
<mgrwt>
<rscale>  0 0.86559303E+02</rscale>
<asrwt>0</asrwt>
<pdfrwt beam="1">  1        2 0.95150470E-02 0.86559303E+02</pdfrwt>
<pdfrwt beam="2">  1       -2 0.46593985E-02 0.86559303E+02</pdfrwt>
<totfact> 0.12369484E+05</totfact>
</mgrwt>
</event>
<event>
 5    1  0.1270834E+001  0.9043133E+02  0.7546771E-02  0.1301811E+00
          1   -1    0    0  501    0  0.00000000000E+00  0.00000000000E+00  0.16820379339E+02  0.16820379339E+02  0.00000000000E+00 0. -1.
         -1   -1    0    0    0  501 -0.00000000000E+00 -0.00000000000E+00 -0.12154640149E+03  0.12154640149E+03  0.00000000000E+00 0.  1.
         23    2    1    2    0    0  0.00000000000E+00  0.00000000000E+00 -0.10472602215E+03  0.13836678083E+03  0.90431334841E+02 0.  0.
        -13    1    3    3    0    0  0.21490828861E+02  0.34847636770E+02 -0.23001379502E+02  0.46960376623E+02  0.00000000000E+00 0. -1.
         13    1    3    3    0    0 -0.21490828861E+02 -0.34847636770E+02 -0.81724642647E+02  0.91406404203E+02  0.00000000000E+00 0.  1.
<mgrwt>
<rscale>  0 0.90431335E+02</rscale>
<asrwt>0</asrwt>
<pdfrwt beam="1">  1        1 0.25877506E-02 0.90431335E+02</pdfrwt>
<pdfrwt beam="2">  1       -1 0.18699447E-01 0.90431335E+02</pdfrwt>
<totfact> 0.80003853E+04</totfact>
</mgrwt>
</event>
<event>
 5    1  0.1270834E+001  0.8896783E+02  0.7546771E-02  0.1305371E+00
         -2   -1    0    0    0  501 -0.00000000000E+00  0.00000000000E+00  0.67460793724E+01  0.67460793724E+01  0.00000000000E+00 0.  1.
          2   -1    0    0  501    0  0.00000000000E+00 -0.00000000000E+00 -0.29332872917E+03  0.29332872917E+03  0.00000000000E+00 0. -1.
         23    2    1    2    0    0  0.00000000000E+00  0.00000000000E+00 -0.28658264980E+03  0.30007480854E+03  0.88967834393E+02 0.  0.
        -11    1    3    3    0    0 -0.38711763415E+02 -0.15852456448E+02 -0.19432259560E+03  0.19877417379E+03  0.00000000000E+00 0. -1.
         11    1    3    3    0    0  0.38711763415E+02  0.15852456448E+02 -0.92260054193E+02  0.10130063476E+03  0.00000000000E+00 0.  1.
<mgrwt>
<rscale>  0 0.88967834E+02</rscale>
<asrwt>0</asrwt>
<pdfrwt beam="2">  1        2 0.45127495E-01 0.88967834E+02</pdfrwt>
<pdfrwt beam="1">  1       -2 0.10378584E-02 0.88967834E+02</pdfrwt>
<totfact> 0.19019139E+05</totfact>
</mgrwt>
</event>
<event>
 5    1  0.1270834E+001  0.9092736E+02  0.7546771E-02  0.1300621E+00
          1   -1    0    0  501    0  0.00000000000E+00  0.00000000000E+00  0.15560449889E+03  0.15560449889E+03  0.00000000000E+00 0. -1.
         -1   -1    0    0    0  501 -0.00000000000E+00 -0.00000000000E+00 -0.13283332397E+02  0.13283332397E+02  0.00000000000E+00 0.  1.
         23    2    1    2    0    0  0.00000000000E+00  0.00000000000E+00  0.14232116649E+03  0.16888783128E+03  0.90927361804E+02 0.  0.
        -13    1    3    3    0    0  0.35237484462E+02  0.28512498165E+02  0.77675616921E+02  0.89934111030E+02  0.00000000000E+00 0.  1.
         13    1    3    3    0    0 -0.35237484462E+02 -0.28512498165E+02  0.64645549571E+02  0.78953720255E+02  0.00000000000E+00 0. -1.
<mgrwt>
<rscale>  0 0.90927362E+02</rscale>
<asrwt>0</asrwt>
<pdfrwt beam="1">  1        1 0.23939152E-01 0.90927362E+02</pdfrwt>
<pdfrwt beam="2">  1       -1 0.20435897E-02 0.90927362E+02</pdfrwt>
<totfact> 0.11373133E+05</totfact>
</mgrwt>
</event>
<event>
 5    1  0.1270834E+001  0.8891135E+02  0.7546771E-02  0.1305510E+00
         -1   -1    0    0    0  501 -0.00000000000E+00  0.00000000000E+00  0.22688740872E+02  0.22688740872E+02  0.00000000000E+00 0.  1.
          1   -1    0    0  501    0  0.00000000000E+00 -0.00000000000E+00 -0.87105189955E+02  0.87105189955E+02  0.00000000000E+00 0. -1.
         23    2    1    2    0    0  0.00000000000E+00  0.00000000000E+00 -0.64416449083E+02  0.10979393083E+03  0.88911350985E+02 0.  0.
        -11    1    3    3    0    0  0.19547462259E+02 -0.38606221395E+02 -0.19629304026E+02  0.47516872663E+02  0.00000000000E+00 0. -1.
         11    1    3    3    0    0 -0.19547462259E+02  0.38606221395E+02 -0.44787145057E+02  0.62277058164E+02  0.00000000000E+00 0.  1.
<mgrwt>
<rscale>  0 0.88911351E+02</rscale>
<asrwt>0</asrwt>
<pdfrwt beam="2">  1        1 0.13400798E-01 0.88911351E+02</pdfrwt>
<pdfrwt beam="1">  1       -1 0.34905755E-02 0.88911351E+02</pdfrwt>
<totfact> 0.10938197E+05</totfact>
</mgrwt>
</event>
<event>
 5    1  0.1270834E+001  0.9964053E+02  0.7546771E-02  0.1281054E+00
          2   -1    0    0  501    0  0.00000000000E+00  0.00000000000E+00  0.25928762918E+02  0.25928762918E+02  0.00000000000E+00 0. -1.
         -2   -1    0    0    0  501 -0.00000000000E+00 -0.00000000000E+00 -0.95726078507E+02  0.95726078507E+02  0.00000000000E+00 0.  1.
         23    2    1    2    0    0  0.00000000000E+00  0.00000000000E+00 -0.69797315589E+02  0.12165484142E+03  0.99640529799E+02 0.  0.
        -13    1    3    3    0    0  0.39676841787E+02  0.28232602211E+02 -0.47746213633E+02  0.68198478854E+02  0.00000000000E+00 0.  1.
         13    1    3    3    0    0 -0.39676841787E+02 -0.28232602211E+02 -0.22051101956E+02  0.53456362570E+02  0.00000000000E+00 0. -1.
<mgrwt>
<rscale>  0 0.99640530E+02</rscale>
<asrwt>0</asrwt>
<pdfrwt beam="1">  1        2 0.39890405E-02 0.99640530E+02</pdfrwt>
<pdfrwt beam="2">  1       -2 0.14727089E-01 0.99640530E+02</pdfrwt>
<totfact> 0.64864662E+04</totfact>
</mgrwt>
</event>
<event>
 5    1  0.1270834E+001  0.5559839E+02  0.7546771E-02  0.1417290E+00
          1   -1    0    0  501    0  0.00000000000E+00  0.00000000000E+00  0.16611181974E+03  0.16611181974E+03  0.00000000000E+00 0. -1.
         -1   -1    0    0    0  501 -0.00000000000E+00 -0.00000000000E+00 -0.46522596305E+01  0.46522596305E+01  0.00000000000E+00 0.  1.
         23    2    1    2    0    0  0.00000000000E+00  0.00000000000E+00  0.16145956011E+03  0.17076407937E+03  0.55598392535E+02 0.  0.
        -11    1    3    3    0    0  0.23157977691E+02 -0.14398235152E+02  0.97324985239E+02  0.10107301251E+03  0.00000000000E+00 0. -1.
         11    1    3    3    0    0 -0.23157977691E+02  0.14398235152E+02  0.64134574867E+02  0.69691066857E+02  0.00000000000E+00 0.  1.
<mgrwt>
<rscale>  0 0.55598393E+02</rscale>
<asrwt>0</asrwt>
<pdfrwt beam="1">  1        1 0.25555660E-01 0.55598393E+02</pdfrwt>
<pdfrwt beam="2">  1       -1 0.71573238E-03 0.55598393E+02</pdfrwt>
<totfact> 0.41665860E+05</totfact>
</mgrwt>
</event>
<event>
 5    1  0.1270834E+001  0.9752962E+02  0.7546771E-02  0.1285578E+00
          1   -1    0    0  501    0  0.00000000000E+00  0.00000000000E+00  0.21592080814E+02  0.21592080814E+02  0.00000000000E+00 0. -1.
         -1   -1    0    0    0  501 -0.00000000000E+00 -0.00000000000E+00 -0.11013329141E+03  0.11013329141E+03  0.00000000000E+00 0.  1.
         23    2    1    2    0    0  0.00000000000E+00  0.00000000000E+00 -0.88541210597E+02  0.13172537223E+03  0.97529624801E+02 0.  0.
        -13    1    3    3    0    0  0.12791817969E+02 -0.19299569789E+02 -0.10223566000E+03  0.10482477845E+03  0.00000000000E+00 0.  1.
         13    1    3    3    0    0 -0.12791817969E+02  0.19299569789E+02  0.13694449404E+02  0.26900593776E+02  0.00000000000E+00 0. -1.
<mgrwt>
<rscale>  0 0.97529625E+02</rscale>
<asrwt>0</asrwt>
<pdfrwt beam="1">  1        1 0.33218586E-02 0.97529625E+02</pdfrwt>
<pdfrwt beam="2">  1       -1 0.16943583E-01 0.97529625E+02</pdfrwt>
<totfact> 0.67118841E+04</totfact>
</mgrwt>
</event>
<event>
 5    1  0.1270834E+001  0.9221730E+02  0.7546771E-02  0.1297569E+00
         -1   -1    0    0    0  501 -0.00000000000E+00  0.00000000000E+00  0.10920085804E+03  0.10920085804E+03  0.00000000000E+00 0.  1.
          1   -1    0    0  501    0  0.00000000000E+00 -0.00000000000E+00 -0.19468779773E+02  0.19468779773E+02  0.00000000000E+00 0. -1.
         23    2    1    2    0    0  0.00000000000E+00  0.00000000000E+00  0.89732078271E+02  0.12866963782E+03  0.92217296779E+02 0.  0.
        -13    1    3    3    0    0 -0.15562112858E+02  0.40828396878E+02  0.65413754407E+02  0.78664455848E+02  0.00000000000E+00 0.  1.
         13    1    3    3    0    0  0.15562112858E+02 -0.40828396878E+02  0.24318323864E+02  0.50005181970E+02  0.00000000000E+00 0. -1.
<mgrwt>
<rscale>  0 0.92217297E+02</rscale>
<asrwt>0</asrwt>
<pdfrwt beam="2">  1        1 0.29951969E-02 0.92217297E+02</pdfrwt>
<pdfrwt beam="1">  1       -1 0.16800132E-01 0.92217297E+02</pdfrwt>
<totfact> 0.77709214E+04</totfact>
</mgrwt>
</event>
<event>
 5    1  0.1270834E+001  0.9039017E+02  0.7546771E-02  0.1301910E+00
         -1   -1    0    0    0  501 -0.00000000000E+00  0.00000000000E+00  0.15060762588E+02  0.15060762588E+02  0.00000000000E+00 0.  1.
          1   -1    0    0  501    0  0.00000000000E+00 -0.00000000000E+00 -0.13562366503E+03  0.13562366503E+03  0.00000000000E+00 0. -1.
         23    2    1    2    0    0  0.00000000000E+00  0.00000000000E+00 -0.12056290244E+03  0.15068442762E+03  0.90390172483E+02 0.  0.
        -13    1    3    3    0    0  0.68659998372E+01 -0.32332149564E+02 -0.11166553420E+03  0.11645471814E+03  0.00000000000E+00 0. -1.
         13    1    3    3    0    0 -0.68659998372E+01  0.32332149564E+02 -0.88973682419E+01  0.34229709477E+02  0.00000000000E+00 0.  1.
<mgrwt>
<rscale>  0 0.90390172E+02</rscale>
<asrwt>0</asrwt>
<pdfrwt beam="2">  1        1 0.20865181E-01 0.90390172E+02</pdfrwt>
<pdfrwt beam="1">  1       -1 0.23170403E-02 0.90390172E+02</pdfrwt>
<totfact> 0.11270486E+05</totfact>
</mgrwt>
</event>
<event>
 5    1  0.1270834E+001  0.9094037E+02  0.7546771E-02  0.1300590E+00
          3   -1    0    0  501    0  0.00000000000E+00  0.00000000000E+00  0.67490088463E+02  0.67490088463E+02  0.00000000000E+00 0. -1.
         -3   -1    0    0    0  501 -0.00000000000E+00 -0.00000000000E+00 -0.30634689501E+02  0.30634689501E+02  0.00000000000E+00 0.  1.
         23    2    1    2    0    0  0.00000000000E+00  0.00000000000E+00  0.36855398961E+02  0.98124777964E+02  0.90940373970E+02 0.  0.
        -13    1    3    3    0    0 -0.44527320616E+02 -0.90646085342E+01  0.16658500854E+02  0.48397882803E+02  0.00000000000E+00 0.  1.
         13    1    3    3    0    0  0.44527320616E+02  0.90646085342E+01  0.20196898107E+02  0.49726895160E+02  0.00000000000E+00 0. -1.
<mgrwt>
<rscale>  0 0.90940374E+02</rscale>
<asrwt>0</asrwt>
<pdfrwt beam="1">  1        3 0.10383090E-01 0.90940374E+02</pdfrwt>
<pdfrwt beam="2">  1       -3 0.47130292E-02 0.90940374E+02</pdfrwt>
<totfact> 0.35057650E+04</totfact>
</mgrwt>
</event>
<event>
 5    1  0.1270834E+001  0.9519963E+02  0.7546771E-02  0.1290727E+00
          3   -1    0    0  501    0  0.00000000000E+00  0.00000000000E+00  0.26247196077E+02  0.26247196077E+02  0.00000000000E+00 0. -1.
         -3   -1    0    0    0  501 -0.00000000000E+00 -0.00000000000E+00 -0.86323223821E+02  0.86323223821E+02  0.00000000000E+00 0.  1.
         23    2    1    2    0    0  0.00000000000E+00  0.00000000000E+00 -0.60076027744E+02  0.11257041990E+03  0.95199634068E+02 0.  0.
        -13    1    3    3    0    0  0.32294071678E+02  0.22570909803E+02  0.15449132169E+01  0.39430188837E+02  0.00000000000E+00 0.  1.
         13    1    3    3    0    0 -0.32294071678E+02 -0.22570909803E+02 -0.61620940961E+02  0.73140231062E+02  0.00000000000E+00 0. -1.
<mgrwt>
<rscale>  0 0.95199634E+02</rscale>
<asrwt>0</asrwt>
<pdfrwt beam="1">  1        3 0.40380301E-02 0.95199634E+02</pdfrwt>
<pdfrwt beam="2">  1       -3 0.13280496E-01 0.95199634E+02</pdfrwt>
<totfact> 0.30011891E+04</totfact>
</mgrwt>
</event>
<event>
 5    1  0.1270834E+001  0.8902059E+02  0.7546771E-02  0.1305241E+00
         -2   -1    0    0    0  501 -0.00000000000E+00  0.00000000000E+00  0.64336426440E+02  0.64336426440E+02  0.00000000000E+00 0.  1.
          2   -1    0    0  501    0  0.00000000000E+00 -0.00000000000E+00 -0.30793852849E+02  0.30793852849E+02  0.00000000000E+00 0. -1.
         23    2    1    2    0    0  0.00000000000E+00  0.00000000000E+00  0.33542573590E+02  0.95130279289E+02  0.89020591969E+02 0.  0.
        -11    1    3    3    0    0  0.19658586972E+02  0.21291441924E+02 -0.19331738503E+02  0.34835350644E+02  0.00000000000E+00 0. -1.
         11    1    3    3    0    0 -0.19658586972E+02 -0.21291441924E+02  0.52874312094E+02  0.60294928645E+02  0.00000000000E+00 0.  1.
<mgrwt>
<rscale>  0 0.89020592E+02</rscale>
<asrwt>0</asrwt>
<pdfrwt beam="2">  1        2 0.47375158E-02 0.89020592E+02</pdfrwt>
<pdfrwt beam="1">  1       -2 0.98979117E-02 0.89020592E+02</pdfrwt>
<totfact> 0.95599855E+04</totfact>
</mgrwt>
</event>
<event>
 5    1  0.1270834E+001  0.9068457E+02  0.7546771E-02  0.1301202E+00
          1   -1    0    0  501    0  0.00000000000E+00  0.00000000000E+00  0.63316920687E+02  0.63316920687E+02  0.00000000000E+00 0. -1.
         -1   -1    0    0    0  501 -0.00000000000E+00 -0.00000000000E+00 -0.32470350365E+02  0.32470350365E+02  0.00000000000E+00 0.  1.
         23    2    1    2    0    0  0.00000000000E+00  0.00000000000E+00  0.30846570322E+02  0.95787271052E+02  0.90684565362E+02 0.  0.
        -11    1    3    3    0    0 -0.31676778351E+02  0.27279161920E+02 -0.31247347678E+01  0.41920578826E+02  0.00000000000E+00 0.  1.
         11    1    3    3    0    0  0.31676778351E+02 -0.27279161920E+02  0.33971305090E+02  0.53866692225E+02  0.00000000000E+00 0. -1.
<mgrwt>
<rscale>  0 0.90684565E+02</rscale>
<asrwt>0</asrwt>
<pdfrwt beam="1">  1        1 0.97410647E-02 0.90684565E+02</pdfrwt>
<pdfrwt beam="2">  1       -1 0.49954385E-02 0.90684565E+02</pdfrwt>
<totfact> 0.98627257E+04</totfact>
</mgrwt>
</event>
<event>
 5    1  0.1270834E+001  0.9382544E+02  0.7546771E-02  0.1293844E+00
         -2   -1    0    0    0  501 -0.00000000000E+00  0.00000000000E+00  0.68376731447E+01  0.68376731447E+01  0.00000000000E+00 0.  1.
          2   -1    0    0  501    0  0.00000000000E+00 -0.00000000000E+00 -0.32186434021E+03  0.32186434021E+03  0.00000000000E+00 0. -1.
         23    2    1    2    0    0  0.00000000000E+00  0.00000000000E+00 -0.31502666706E+03  0.32870201335E+03  0.93825436961E+02 0.  0.
        -11    1    3    3    0    0  0.37695051573E+02 -0.26810117009E+02 -0.13012812071E+03  0.13810513056E+03  0.00000000000E+00 0.  1.
         11    1    3    3    0    0 -0.37695051573E+02  0.26810117009E+02 -0.18489854635E+03  0.19059688279E+03  0.00000000000E+00 0. -1.
<mgrwt>
<rscale>  0 0.93825437E+02</rscale>
<asrwt>0</asrwt>
<pdfrwt beam="2">  1        2 0.49517574E-01 0.93825437E+02</pdfrwt>
<pdfrwt beam="1">  1       -2 0.10519501E-02 0.93825437E+02</pdfrwt>
<totfact> 0.17084018E+05</totfact>
</mgrwt>
</event>
<event>
 5    1  0.1270834E+001  0.7866950E+02  0.7546771E-02  0.1332870E+00
          1   -1    0    0  501    0  0.00000000000E+00  0.00000000000E+00  0.80935357350E+01  0.80935357350E+01  0.00000000000E+00 0. -1.
         -1   -1    0    0    0  501 -0.00000000000E+00 -0.00000000000E+00 -0.19116767241E+03  0.19116767241E+03  0.00000000000E+00 0.  1.
         23    2    1    2    0    0  0.00000000000E+00  0.00000000000E+00 -0.18307413667E+03  0.19926120814E+03  0.78669495689E+02 0.  0.
        -11    1    3    3    0    0  0.29437517615E+02 -0.19533227738E+02 -0.13534274342E+03  0.13987770596E+03  0.00000000000E+00 0.  1.
         11    1    3    3    0    0 -0.29437517615E+02  0.19533227738E+02 -0.47731393253E+02  0.59383502180E+02  0.00000000000E+00 0. -1.
<mgrwt>
<rscale>  0 0.78669496E+02</rscale>
<asrwt>0</asrwt>
<pdfrwt beam="1">  1        1 0.12451594E-02 0.78669496E+02</pdfrwt>
<pdfrwt beam="2">  1       -1 0.29410410E-01 0.78669496E+02</pdfrwt>
<totfact> 0.10305660E+05</totfact>
</mgrwt>
</event>
<event>
 5    1  0.1270834E+001  0.9341981E+02  0.7546771E-02  0.1294775E+00
         -2   -1    0    0    0  501 -0.00000000000E+00  0.00000000000E+00  0.79888337579E+01  0.79888337579E+01  0.00000000000E+00 0.  1.
          2   -1    0    0  501    0  0.00000000000E+00 -0.00000000000E+00 -0.27310812830E+03  0.27310812830E+03  0.00000000000E+00 0. -1.
         23    2    1    2    0    0  0.00000000000E+00  0.00000000000E+00 -0.26511929454E+03  0.28109696206E+03  0.93419814492E+02 0.  0.
        -11    1    3    3    0    0  0.14817325832E+02  0.44161422631E+02 -0.14299648089E+03  0.15039208072E+03  0.00000000000E+00 0.  1.
         11    1    3    3    0    0 -0.14817325832E+02 -0.44161422631E+02 -0.12212281365E+03  0.13070488134E+03  0.00000000000E+00 0. -1.
<mgrwt>
<rscale>  0 0.93419814E+02</rscale>
<asrwt>0</asrwt>
<pdfrwt beam="2">  1        2 0.42016629E-01 0.93419814E+02</pdfrwt>
<pdfrwt beam="1">  1       -2 0.12290515E-02 0.93419814E+02</pdfrwt>
<totfact> 0.16254340E+05</totfact>
</mgrwt>
</event>
<event>
 5    1  0.1270834E+001  0.9042968E+02  0.7546771E-02  0.1301814E+00
         -1   -1    0    0    0  501 -0.00000000000E+00  0.00000000000E+00  0.15274040781E+02  0.15274040781E+02  0.00000000000E+00 0.  1.
          1   -1    0    0  501    0  0.00000000000E+00 -0.00000000000E+00 -0.13384682764E+03  0.13384682764E+03  0.00000000000E+00 0. -1.
         23    2    1    2    0    0  0.00000000000E+00  0.00000000000E+00 -0.11857278685E+03  0.14912086842E+03  0.90429683263E+02 0.  0.
        -11    1    3    3    0    0 -0.34476776893E+02  0.25369687499E+02 -0.83302951458E+02  0.93657092152E+02  0.00000000000E+00 0.  1.
         11    1    3    3    0    0  0.34476776893E+02 -0.25369687499E+02 -0.35269835396E+02  0.55463776265E+02  0.00000000000E+00 0. -1.
<mgrwt>
<rscale>  0 0.90429683E+02</rscale>
<asrwt>0</asrwt>
<pdfrwt beam="2">  1        1 0.20591819E-01 0.90429683E+02</pdfrwt>
<pdfrwt beam="1">  1       -1 0.23498525E-02 0.90429683E+02</pdfrwt>
<totfact> 0.11230675E+05</totfact>
</mgrwt>
</event>
<event>
 5    1  0.1270834E+001  0.9057480E+02  0.7546771E-02  0.1301466E+00
          2   -1    0    0  501    0  0.00000000000E+00  0.00000000000E+00  0.24880736197E+03  0.24880736197E+03  0.00000000000E+00 0. -1.
         -2   -1    0    0    0  501 -0.00000000000E+00 -0.00000000000E+00 -0.82431181208E+01  0.82431181208E+01  0.00000000000E+00 0.  1.
         23    2    1    2    0    0  0.00000000000E+00  0.00000000000E+00  0.24056424384E+03  0.25705048009E+03  0.90574797245E+02 0.  0.
        -13    1    3    3    0    0 -0.22143399255E+02 -0.31304145041E+02  0.18866939899E+03  0.19252641829E+03  0.00000000000E+00 0. -1.
         13    1    3    3    0    0  0.22143399255E+02  0.31304145041E+02  0.51894844859E+02  0.64524061793E+02  0.00000000000E+00 0.  1.
<mgrwt>
<rscale>  0 0.90574797E+02</rscale>
<asrwt>0</asrwt>
<pdfrwt beam="1">  1        2 0.38278050E-01 0.90574797E+02</pdfrwt>
<pdfrwt beam="2">  1       -2 0.12681722E-02 0.90574797E+02</pdfrwt>
<totfact> 0.17056107E+05</totfact>
</mgrwt>
</event>
<event>
 5    1  0.1270834E+001  0.9081651E+02  0.7546771E-02  0.1300886E+00
          1   -1    0    0  501    0  0.00000000000E+00  0.00000000000E+00  0.13500381652E+03  0.13500381652E+03  0.00000000000E+00 0. -1.
         -1   -1    0    0    0  501 -0.00000000000E+00 -0.00000000000E+00 -0.15272971660E+02  0.15272971660E+02  0.00000000000E+00 0.  1.
         23    2    1    2    0    0  0.00000000000E+00  0.00000000000E+00  0.11973084486E+03  0.15027678818E+03  0.90816506510E+02 0.  0.
        -13    1    3    3    0    0 -0.29796659583E+02 -0.34148454047E+02  0.55199310765E+02  0.71420737500E+02  0.00000000000E+00 0.  1.
         13    1    3    3    0    0  0.29796659583E+02  0.34148454047E+02  0.64531534098E+02  0.78856050682E+02  0.00000000000E+00 0. -1.
<mgrwt>
<rscale>  0 0.90816507E+02</rscale>
<asrwt>0</asrwt>
<pdfrwt beam="1">  1        1 0.20769817E-01 0.90816507E+02</pdfrwt>
<pdfrwt beam="2">  1       -1 0.23496880E-02 0.90816507E+02</pdfrwt>
<totfact> 0.11119088E+05</totfact>
</mgrwt>
</event>
<event>
 5    1  0.1270834E+001  0.9709319E+02  0.7546771E-02  0.1286530E+00
         -1   -1    0    0    0  501 -0.00000000000E+00  0.00000000000E+00  0.13254093838E+02  0.13254093838E+02  0.00000000000E+00 0. -1.
          1   -1    0    0  501    0  0.00000000000E+00 -0.00000000000E+00 -0.17781462885E+03  0.17781462885E+03  0.00000000000E+00 0.  1.
         23    2    1    2    0    0  0.00000000000E+00  0.00000000000E+00 -0.16456053501E+03  0.19106872269E+03  0.97093187744E+02 0.  0.
        -13    1    3    3    0    0 -0.28946296354E+02 -0.17156102834E+02 -0.13416714256E+02  0.36224689902E+02  0.00000000000E+00 0. -1.
         13    1    3    3    0    0  0.28946296354E+02  0.17156102834E+02 -0.15114382075E+03  0.15484403278E+03  0.00000000000E+00 0.  1.
<mgrwt>
<rscale>  0 0.97093188E+02</rscale>
<asrwt>0</asrwt>
<pdfrwt beam="2">  1        1 0.27356096E-01 0.97093188E+02</pdfrwt>
<pdfrwt beam="1">  1       -1 0.20390914E-02 0.97093188E+02</pdfrwt>
<totfact> 0.97688257E+04</totfact>
</mgrwt>
</event>
<event>
 5    1  0.1270834E+001  0.9694644E+02  0.7546771E-02  0.1286851E+00
          1   -1    0    0  501    0  0.00000000000E+00  0.00000000000E+00  0.14110884507E+03  0.14110884507E+03  0.00000000000E+00 0. -1.
         -1   -1    0    0    0  501 -0.00000000000E+00 -0.00000000000E+00 -0.16651352695E+02  0.16651352695E+02  0.00000000000E+00 0.  1.
         23    2    1    2    0    0  0.00000000000E+00  0.00000000000E+00  0.12445749237E+03  0.15776019776E+03  0.96946441865E+02 0.  0.
        -11    1    3    3    0    0  0.27199233149E+02  0.14979978614E+02  0.16581572567E+01  0.31095779917E+02  0.00000000000E+00 0.  1.
         11    1    3    3    0    0 -0.27199233149E+02 -0.14979978614E+02  0.12279933512E+03  0.12666441784E+03  0.00000000000E+00 0. -1.
<mgrwt>
<rscale>  0 0.96946442E+02</rscale>
<asrwt>0</asrwt>
<pdfrwt beam="1">  1        1 0.21709052E-01 0.96946442E+02</pdfrwt>
<pdfrwt beam="2">  1       -1 0.25617467E-02 0.96946442E+02</pdfrwt>
<totfact> 0.93882130E+04</totfact>
</mgrwt>
</event>
<event>
 5    1  0.1270834E+001  0.8966382E+02  0.7546771E-02  0.1303668E+00
         -1   -1    0    0    0  501 -0.00000000000E+00  0.00000000000E+00  0.19953353095E+02  0.19953353095E+02  0.00000000000E+00 0.  1.
          1   -1    0    0  501    0  0.00000000000E+00 -0.00000000000E+00 -0.10072995258E+03  0.10072995258E+03  0.00000000000E+00 0. -1.
         23    2    1    2    0    0  0.00000000000E+00  0.00000000000E+00 -0.80776599481E+02  0.12068330567E+03  0.89663823497E+02 0.  0.
        -11    1    3    3    0    0 -0.26376137607E+02 -0.35182526875E+02 -0.28624524561E+02  0.52467840043E+02  0.00000000000E+00 0.  1.
         11    1    3    3    0    0  0.26376137607E+02  0.35182526875E+02 -0.52152074920E+02  0.68215465628E+02  0.00000000000E+00 0. -1.
<mgrwt>
<rscale>  0 0.89663823E+02</rscale>
<asrwt>0</asrwt>
<pdfrwt beam="2">  1        1 0.15496915E-01 0.89663823E+02</pdfrwt>
<pdfrwt beam="1">  1       -1 0.30697467E-02 0.89663823E+02</pdfrwt>
<totfact> 0.10944897E+05</totfact>
</mgrwt>
</event>
<event>
 5    1  0.1270834E+001  0.8970984E+02  0.7546771E-02  0.1303556E+00
          1   -1    0    0  501    0  0.00000000000E+00  0.00000000000E+00  0.33933113993E+03  0.33933113993E+03  0.00000000000E+00 0. -1.
         -1   -1    0    0    0  501 -0.00000000000E+00 -0.00000000000E+00 -0.59292053946E+01  0.59292053946E+01  0.00000000000E+00 0.  1.
         23    2    1    2    0    0  0.00000000000E+00  0.00000000000E+00  0.33340193454E+03  0.34526034533E+03  0.89709843952E+02 0.  0.
        -11    1    3    3    0    0  0.19050531491E+01 -0.44526627068E+02  0.18621710090E+03  0.19147599957E+03  0.00000000000E+00 0.  1.
         11    1    3    3    0    0 -0.19050531491E+01  0.44526627068E+02  0.14718483364E+03  0.15378434576E+03  0.00000000000E+00 0. -1.
<mgrwt>
<rscale>  0 0.89709844E+02</rscale>
<asrwt>0</asrwt>
<pdfrwt beam="1">  1        1 0.52204776E-01 0.89709844E+02</pdfrwt>
<pdfrwt beam="2">  1       -1 0.91218571E-03 0.89709844E+02</pdfrwt>
<totfact> 0.13687258E+05</totfact>
</mgrwt>
</event>
<event>
 5    1  0.1270834E+001  0.7014022E+02  0.7546771E-02  0.1359617E+00
         -3   -1    0    0    0  501 -0.00000000000E+00  0.00000000000E+00  0.64214294201E+02  0.64214294201E+02  0.00000000000E+00 0. -1.
          3   -1    0    0  501    0  0.00000000000E+00 -0.00000000000E+00 -0.19153254620E+02  0.19153254620E+02  0.00000000000E+00 0.  1.
         23    2    1    2    0    0  0.00000000000E+00  0.00000000000E+00  0.45061039580E+02  0.83367548821E+02  0.70140223184E+02 0.  0.
        -13    1    3    3    0    0 -0.33645276239E+01  0.26393917385E+02 -0.46242373771E+01  0.27006341706E+02  0.00000000000E+00 0.  1.
         13    1    3    3    0    0  0.33645276239E+01 -0.26393917385E+02  0.49685276958E+02  0.56361207114E+02  0.00000000000E+00 0. -1.
<mgrwt>
<rscale>  0 0.70140223E+02</rscale>
<asrwt>0</asrwt>
<pdfrwt beam="2">  1        3 0.29466546E-02 0.70140223E+02</pdfrwt>
<pdfrwt beam="1">  1       -3 0.98791221E-02 0.70140223E+02</pdfrwt>
<totfact> 0.72628676E+04</totfact>
</mgrwt>
</event>
<event>
 5    1  0.1270834E+001  0.9096220E+02  0.7546771E-02  0.1300538E+00
          2   -1    0    0  501    0  0.00000000000E+00  0.00000000000E+00  0.10678606663E+03  0.10678606663E+03  0.00000000000E+00 0. -1.
         -2   -1    0    0    0  501 -0.00000000000E+00 -0.00000000000E+00 -0.19370788265E+02  0.19370788265E+02  0.00000000000E+00 0.  1.
         23    2    1    2    0    0  0.00000000000E+00  0.00000000000E+00  0.87415278361E+02  0.12615685489E+03  0.90962196243E+02 0.  0.
        -11    1    3    3    0    0  0.44680247592E+02 -0.64397770833E+01  0.36018694178E+02  0.57750684706E+02  0.00000000000E+00 0.  1.
         11    1    3    3    0    0 -0.44680247592E+02  0.64397770833E+01  0.51396584183E+02  0.68406170186E+02  0.00000000000E+00 0. -1.
<mgrwt>
<rscale>  0 0.90962196E+02</rscale>
<asrwt>0</asrwt>
<pdfrwt beam="1">  1        2 0.16428625E-01 0.90962196E+02</pdfrwt>
<pdfrwt beam="2">  1       -2 0.29801213E-02 0.90962196E+02</pdfrwt>
<totfact> 0.12598961E+05</totfact>
</mgrwt>
</event>
<event>
 5    1  0.1270834E+001  0.8981799E+02  0.7546771E-02  0.1303293E+00
          1   -1    0    0  501    0  0.00000000000E+00  0.00000000000E+00  0.75226757519E+01  0.75226757519E+01  0.00000000000E+00 0. -1.
         -1   -1    0    0    0  501 -0.00000000000E+00 -0.00000000000E+00 -0.26809849208E+03  0.26809849208E+03  0.00000000000E+00 0.  1.
         23    2    1    2    0    0  0.00000000000E+00  0.00000000000E+00 -0.26057581633E+03  0.27562116783E+03  0.89817994311E+02 0.  0.
        -13    1    3    3    0    0  0.66357386544E+00  0.35644696235E+02 -0.21409294245E+03  0.21704094708E+03  0.00000000000E+00 0.  1.
         13    1    3    3    0    0 -0.66357386544E+00 -0.35644696235E+02 -0.46482873874E+02  0.58580220753E+02  0.00000000000E+00 0. -1.
<mgrwt>
<rscale>  0 0.89817994E+02</rscale>
<asrwt>0</asrwt>
<pdfrwt beam="1">  1        1 0.11573347E-02 0.89817994E+02</pdfrwt>
<pdfrwt beam="2">  1       -1 0.41245923E-01 0.89817994E+02</pdfrwt>
<totfact> 0.65730001E+04</totfact>
</mgrwt>
</event>
<event>
 5    1  0.1270834E+001  0.8436444E+02  0.7546771E-02  0.1317103E+00
          1   -1    0    0  501    0  0.00000000000E+00  0.00000000000E+00  0.84099827517E+02  0.84099827517E+02  0.00000000000E+00 0. -1.
         -1   -1    0    0    0  501 -0.00000000000E+00 -0.00000000000E+00 -0.21157471945E+02  0.21157471945E+02  0.00000000000E+00 0.  1.
         23    2    1    2    0    0  0.00000000000E+00  0.00000000000E+00  0.62942355572E+02  0.10525729946E+03  0.84364441354E+02 0.  0.
        -13    1    3    3    0    0  0.75269748179E+01 -0.41461476154E+02  0.33848396907E+02  0.54050192673E+02  0.00000000000E+00 0. -1.
         13    1    3    3    0    0 -0.75269748179E+01  0.41461476154E+02  0.29093958665E+02  0.51207106788E+02  0.00000000000E+00 0.  1.
<mgrwt>
<rscale>  0 0.84364441E+02</rscale>
<asrwt>0</asrwt>
<pdfrwt beam="1">  1        1 0.12938435E-01 0.84364441E+02</pdfrwt>
<pdfrwt beam="2">  1       -1 0.32549957E-02 0.84364441E+02</pdfrwt>
<totfact> 0.12546826E+05</totfact>
</mgrwt>
</event>
<event>
 5    1  0.1270834E+001  0.9171538E+02  0.7546771E-02  0.1298750E+00
         -2   -1    0    0    0  501 -0.00000000000E+00  0.00000000000E+00  0.25047226451E+02  0.25047226451E+02  0.00000000000E+00 0.  1.
          2   -1    0    0  501    0  0.00000000000E+00 -0.00000000000E+00 -0.83958497774E+02  0.83958497774E+02  0.00000000000E+00 0. -1.
         23    2    1    2    0    0  0.00000000000E+00  0.00000000000E+00 -0.58911271323E+02  0.10900572423E+03  0.91715375074E+02 0.  0.
        -11    1    3    3    0    0 -0.84147337135E+01  0.32550658950E+02  0.76097537566E+01  0.34471169023E+02  0.00000000000E+00 0.  1.
         11    1    3    3    0    0  0.84147337135E+01 -0.32550658950E+02 -0.66521025080E+02  0.74534555202E+02  0.00000000000E+00 0. -1.
<mgrwt>
<rscale>  0 0.91715375E+02</rscale>
<asrwt>0</asrwt>
<pdfrwt beam="2">  1        2 0.12916692E-01 0.91715375E+02</pdfrwt>
<pdfrwt beam="1">  1       -2 0.38534194E-02 0.91715375E+02</pdfrwt>
<totfact> 0.11457446E+05</totfact>
</mgrwt>
</event>
<event>
 5    1  0.1270834E+001  0.8972821E+02  0.7546771E-02  0.1303511E+00
          3   -1    0    0  501    0  0.00000000000E+00  0.00000000000E+00  0.14338237003E+03  0.14338237003E+03  0.00000000000E+00 0. -1.
         -3   -1    0    0    0  501 -0.00000000000E+00 -0.00000000000E+00 -0.14037904914E+02  0.14037904914E+02  0.00000000000E+00 0.  1.
         23    2    1    2    0    0  0.00000000000E+00  0.00000000000E+00  0.12934446511E+03  0.15742027494E+03  0.89728213551E+02 0.  0.
        -13    1    3    3    0    0 -0.22252037502E+02 -0.34073285917E+02  0.97804440568E+02  0.10593323643E+03  0.00000000000E+00 0.  1.
         13    1    3    3    0    0  0.22252037502E+02  0.34073285917E+02  0.31540024547E+02  0.51487038511E+02  0.00000000000E+00 0. -1.
<mgrwt>
<rscale>  0 0.89728214E+02</rscale>
<asrwt>0</asrwt>
<pdfrwt beam="1">  1        3 0.22058825E-01 0.89728214E+02</pdfrwt>
<pdfrwt beam="2">  1       -3 0.21596778E-02 0.89728214E+02</pdfrwt>
<totfact> 0.32223024E+04</totfact>
</mgrwt>
</event>
<event>
 5    1  0.1270834E+001  0.8792206E+02  0.7546771E-02  0.1307963E+00
         -1   -1    0    0    0  501 -0.00000000000E+00  0.00000000000E+00  0.23912530651E+03  0.23912530651E+03  0.00000000000E+00 0.  1.
          1   -1    0    0  501    0  0.00000000000E+00 -0.00000000000E+00 -0.80818386678E+01  0.80818386678E+01  0.00000000000E+00 0. -1.
         23    2    1    2    0    0  0.00000000000E+00  0.00000000000E+00  0.23104346784E+03  0.24720714518E+03  0.87922059771E+02 0.  0.
        -11    1    3    3    0    0 -0.32375521182E+02 -0.22302674368E+02  0.17083282061E+03  0.17529813534E+03  0.00000000000E+00 0.  1.
         11    1    3    3    0    0  0.32375521182E+02  0.22302674368E+02  0.60210647228E+02  0.71909009834E+02  0.00000000000E+00 0. -1.
<mgrwt>
<rscale>  0 0.87922060E+02</rscale>
<asrwt>0</asrwt>
<pdfrwt beam="2">  1        1 0.12433600E-02 0.87922060E+02</pdfrwt>
<pdfrwt beam="1">  1       -1 0.36788503E-01 0.87922060E+02</pdfrwt>
<totfact> 0.72260796E+04</totfact>
</mgrwt>
</event>
<event>
 5    1  0.1270834E+001  0.9069098E+02  0.7546771E-02  0.1301187E+00
          1   -1    0    0  501    0  0.00000000000E+00  0.00000000000E+00  0.19714335801E+03  0.19714335801E+03  0.00000000000E+00 0. -1.
         -1   -1    0    0    0  501 -0.00000000000E+00 -0.00000000000E+00 -0.10430042424E+02  0.10430042424E+02  0.00000000000E+00 0.  1.
         23    2    1    2    0    0  0.00000000000E+00  0.00000000000E+00  0.18671331559E+03  0.20757340044E+03  0.90690982741E+02 0.  0.
        -11    1    3    3    0    0  0.24070032438E+02 -0.24748794415E+02  0.16064672753E+03  0.16431445570E+03  0.00000000000E+00 0. -1.
         11    1    3    3    0    0 -0.24070032438E+02  0.24748794415E+02  0.26066588061E+02  0.43258944736E+02  0.00000000000E+00 0.  1.
<mgrwt>
<rscale>  0 0.90690983E+02</rscale>
<asrwt>0</asrwt>
<pdfrwt beam="1">  1        1 0.30329744E-01 0.90690983E+02</pdfrwt>
<pdfrwt beam="2">  1       -1 0.16046221E-02 0.90690983E+02</pdfrwt>
<totfact> 0.11977986E+05</totfact>
</mgrwt>
</event>
<event>
 5    1  0.1270834E+001  0.9177187E+02  0.7546771E-02  0.1298617E+00
          1   -1    0    0  501    0  0.00000000000E+00  0.00000000000E+00  0.22789839257E+02  0.22789839257E+02  0.00000000000E+00 0. -1.
         -1   -1    0    0    0  501 -0.00000000000E+00 -0.00000000000E+00 -0.92388500215E+02  0.92388500215E+02  0.00000000000E+00 0.  1.
         23    2    1    2    0    0  0.00000000000E+00  0.00000000000E+00 -0.69598660958E+02  0.11517833947E+03  0.91771870834E+02 0.  0.
        -13    1    3    3    0    0  0.17762054738E+02 -0.34321429480E+02 -0.65849290869E+02  0.76351687722E+02  0.00000000000E+00 0.  1.
         13    1    3    3    0    0 -0.17762054738E+02  0.34321429480E+02 -0.37493700897E+01  0.38826651750E+02  0.00000000000E+00 0. -1.
<mgrwt>
<rscale>  0 0.91771871E+02</rscale>
<asrwt>0</asrwt>
<pdfrwt beam="1">  1        1 0.35061291E-02 0.91771871E+02</pdfrwt>
<pdfrwt beam="2">  1       -1 0.14213616E-01 0.91771871E+02</pdfrwt>
<totfact> 0.81185247E+04</totfact>
</mgrwt>
</event>
<event>
 5    1  0.1270834E+001  0.9445153E+02  0.7546771E-02  0.1292416E+00
          3   -1    0    0  501    0  0.00000000000E+00  0.00000000000E+00  0.49937347840E+02  0.49937347840E+02  0.00000000000E+00 0. -1.
         -3   -1    0    0    0  501 -0.00000000000E+00 -0.00000000000E+00 -0.44661420078E+02  0.44661420078E+02  0.00000000000E+00 0.  1.
         23    2    1    2    0    0  0.00000000000E+00  0.00000000000E+00  0.52759277619E+01  0.94598767918E+02  0.94451529781E+02 0.  0.
        -13    1    3    3    0    0 -0.16945693031E+02  0.39769952607E+01  0.46607423610E+02  0.49751632528E+02  0.00000000000E+00 0. -1.
         13    1    3    3    0    0  0.16945693031E+02 -0.39769952607E+01 -0.41331495849E+02  0.44847135390E+02  0.00000000000E+00 0.  1.
<mgrwt>
<rscale>  0 0.94451530E+02</rscale>
<asrwt>0</asrwt>
<pdfrwt beam="1">  1        3 0.76826689E-02 0.94451530E+02</pdfrwt>
<pdfrwt beam="2">  1       -3 0.68709877E-02 0.94451530E+02</pdfrwt>
<totfact> 0.31851758E+04</totfact>
</mgrwt>
</event>
<event>
 5    1  0.1270834E+001  0.9122176E+02  0.7546771E-02  0.1299920E+00
         -2   -1    0    0    0  501 -0.00000000000E+00  0.00000000000E+00  0.60950672265E+02  0.60950672265E+02  0.00000000000E+00 0. -1.
          2   -1    0    0  501    0  0.00000000000E+00 -0.00000000000E+00 -0.34131739766E+02  0.34131739766E+02  0.00000000000E+00 0.  1.
         23    2    1    2    0    0  0.00000000000E+00  0.00000000000E+00  0.26818932499E+02  0.95082412032E+02  0.91221762411E+02 0.  0.
        -11    1    3    3    0    0 -0.94102714719E+01 -0.34632379769E+02 -0.15931424401E+02  0.39265318299E+02  0.00000000000E+00 0. -1.
         11    1    3    3    0    0  0.94102714719E+01  0.34632379769E+02  0.42750356900E+02  0.55817093733E+02  0.00000000000E+00 0.  1.
<mgrwt>
<rscale>  0 0.91221762E+02</rscale>
<asrwt>0</asrwt>
<pdfrwt beam="2">  1        2 0.52510369E-02 0.91221762E+02</pdfrwt>
<pdfrwt beam="1">  1       -2 0.93770265E-02 0.91221762E+02</pdfrwt>
<totfact> 0.91401932E+04</totfact>
</mgrwt>
</event>
<event>
 5    1  0.1270834E+001  0.9032851E+02  0.7546771E-02  0.1302058E+00
         -1   -1    0    0    0  501 -0.00000000000E+00  0.00000000000E+00  0.13321424741E+02  0.13321424741E+02  0.00000000000E+00 0.  1.
          1   -1    0    0  501    0  0.00000000000E+00 -0.00000000000E+00 -0.15312251046E+03  0.15312251046E+03  0.00000000000E+00 0. -1.
         23    2    1    2    0    0  0.00000000000E+00  0.00000000000E+00 -0.13980108572E+03  0.16644393520E+03  0.90328511539E+02 0.  0.
        -13    1    3    3    0    0 -0.18092092456E+01 -0.34583646019E+02 -0.12332179902E+03  0.12809202912E+03  0.00000000000E+00 0. -1.
         13    1    3    3    0    0  0.18092092456E+01  0.34583646019E+02 -0.16479286699E+02  0.38351906083E+02  0.00000000000E+00 0.  1.
<mgrwt>
<rscale>  0 0.90328512E+02</rscale>
<asrwt>0</asrwt>
<pdfrwt beam="2">  1        1 0.23557309E-01 0.90328512E+02</pdfrwt>
<pdfrwt beam="1">  1       -1 0.20494500E-02 0.90328512E+02</pdfrwt>
<totfact> 0.11542923E+05</totfact>
</mgrwt>
</event>
<event>
 5    1  0.1270834E+001  0.9217426E+02  0.7546771E-02  0.1297670E+00
          1   -1    0    0  501    0  0.00000000000E+00  0.00000000000E+00  0.21727599415E+02  0.21727599415E+02  0.00000000000E+00 0. -1.
         -1   -1    0    0    0  501 -0.00000000000E+00 -0.00000000000E+00 -0.97756932645E+02  0.97756932645E+02  0.00000000000E+00 0.  1.
         23    2    1    2    0    0  0.00000000000E+00  0.00000000000E+00 -0.76029333231E+02  0.11948453206E+03  0.92174258284E+02 0.  0.
        -13    1    3    3    0    0  0.87507978604E+00 -0.16788384418E+02  0.17611230910E+02  0.24346890359E+02  0.00000000000E+00 0. -1.
         13    1    3    3    0    0 -0.87507978604E+00  0.16788384418E+02 -0.93640564140E+02  0.95137641701E+02  0.00000000000E+00 0.  1.
<mgrwt>
<rscale>  0 0.92174258E+02</rscale>
<asrwt>0</asrwt>
<pdfrwt beam="1">  1        1 0.33427076E-02 0.92174258E+02</pdfrwt>
<pdfrwt beam="2">  1       -1 0.15039528E-01 0.92174258E+02</pdfrwt>
<totfact> 0.79453730E+04</totfact>
</mgrwt>
</event>
<event>
 5    1  0.1270834E+001  0.9244379E+02  0.7546771E-02  0.1297039E+00
          2   -1    0    0  501    0  0.00000000000E+00  0.00000000000E+00  0.24709262826E+03  0.24709262826E+03  0.00000000000E+00 0. -1.
         -2   -1    0    0    0  501 -0.00000000000E+00 -0.00000000000E+00 -0.86464084611E+01  0.86464084611E+01  0.00000000000E+00 0.  1.
         23    2    1    2    0    0  0.00000000000E+00  0.00000000000E+00  0.23844621980E+03  0.25573903672E+03  0.92443794636E+02 0.  0.
        -11    1    3    3    0    0 -0.42702776016E+02 -0.74595877633E+01  0.74848782845E+02  0.86495738753E+02  0.00000000000E+00 0.  1.
         11    1    3    3    0    0  0.42702776016E+02  0.74595877633E+01  0.16359743696E+03  0.16924329797E+03  0.00000000000E+00 0. -1.
<mgrwt>
<rscale>  0 0.92443795E+02</rscale>
<asrwt>0</asrwt>
<pdfrwt beam="1">  1        2 0.38014245E-01 0.92443795E+02</pdfrwt>
<pdfrwt beam="2">  1       -2 0.13302169E-02 0.92443795E+02</pdfrwt>
<totfact> 0.16106111E+05</totfact>
</mgrwt>
</event>
<event>
 5    1  0.1270834E+001  0.9321183E+02  0.7546771E-02  0.1295255E+00
          1   -1    0    0  501    0  0.00000000000E+00  0.00000000000E+00  0.82231870567E+01  0.82231870567E+01  0.00000000000E+00 0. -1.
         -1   -1    0    0    0  501 -0.00000000000E+00 -0.00000000000E+00 -0.26414469291E+03  0.26414469291E+03  0.00000000000E+00 0.  1.
         23    2    1    2    0    0  0.00000000000E+00  0.00000000000E+00 -0.25592150585E+03  0.27236787997E+03  0.93211828002E+02 0.  0.
        -11    1    3    3    0    0  0.22845348124E+02  0.37922696344E+02 -0.85408272195E+02  0.96200903261E+02  0.00000000000E+00 0. -1.
         11    1    3    3    0    0 -0.22845348124E+02 -0.37922696344E+02 -0.17051323366E+03  0.17616697671E+03  0.00000000000E+00 0.  1.
<mgrwt>
<rscale>  0 0.93211828E+02</rscale>
<asrwt>0</asrwt>
<pdfrwt beam="1">  1        1 0.12651058E-02 0.93211828E+02</pdfrwt>
<pdfrwt beam="2">  1       -1 0.40637643E-01 0.93211828E+02</pdfrwt>
<totfact> 0.59974694E+04</totfact>
</mgrwt>
</event>
<event>
 5    1  0.1270834E+001  0.9172682E+02  0.7546771E-02  0.1298723E+00
          3   -1    0    0  501    0  0.00000000000E+00  0.00000000000E+00  0.55644839953E+02  0.55644839953E+02  0.00000000000E+00 0. -1.
         -3   -1    0    0    0  501 -0.00000000000E+00 -0.00000000000E+00 -0.37801387666E+02  0.37801387666E+02  0.00000000000E+00 0.  1.
         23    2    1    2    0    0  0.00000000000E+00  0.00000000000E+00  0.17843452287E+02  0.93446227619E+02  0.91726815417E+02 0.  0.
        -13    1    3    3    0    0 -0.21924166878E+02 -0.12142836285E+02 -0.30208352598E+02  0.39251269190E+02  0.00000000000E+00 0.  1.
         13    1    3    3    0    0  0.21924166878E+02  0.12142836285E+02  0.48051804885E+02  0.54194958429E+02  0.00000000000E+00 0. -1.
<mgrwt>
<rscale>  0 0.91726815E+02</rscale>
<asrwt>0</asrwt>
<pdfrwt beam="1">  1        3 0.85607446E-02 0.91726815E+02</pdfrwt>
<pdfrwt beam="2">  1       -3 0.58155981E-02 0.91726815E+02</pdfrwt>
<totfact> 0.34592550E+04</totfact>
</mgrwt>
</event>
<event>
 5    1  0.1270834E+001  0.9165075E+02  0.7546771E-02  0.1298903E+00
         -1   -1    0    0    0  501 -0.00000000000E+00  0.00000000000E+00  0.19302014777E+02  0.19302014777E+02  0.00000000000E+00 0.  1.
          1   -1    0    0  501    0  0.00000000000E+00 -0.00000000000E+00 -0.10879512490E+03  0.10879512490E+03  0.00000000000E+00 0. -1.
         23    2    1    2    0    0  0.00000000000E+00  0.00000000000E+00 -0.89493110126E+02  0.12809713968E+03  0.91650752502E+02 0.  0.
        -11    1    3    3    0    0  0.24800824959E+02  0.15376172832E+02  0.46379014260E+01  0.29546873595E+02  0.00000000000E+00 0.  1.
         11    1    3    3    0    0 -0.24800824959E+02 -0.15376172832E+02 -0.94131011552E+02  0.98550266085E+02  0.00000000000E+00 0. -1.
<mgrwt>
<rscale>  0 0.91650753E+02</rscale>
<asrwt>0</asrwt>
<pdfrwt beam="2">  1        1 0.16737712E-01 0.91650753E+02</pdfrwt>
<pdfrwt beam="1">  1       -1 0.29695407E-02 0.91650753E+02</pdfrwt>
<totfact> 0.10445627E+05</totfact>
</mgrwt>
</event>
<event>
 5    1  0.1270834E+001  0.9051766E+02  0.7546771E-02  0.1301603E+00
         -2   -1    0    0    0  501 -0.00000000000E+00  0.00000000000E+00  0.10759879106E+02  0.10759879106E+02  0.00000000000E+00 0.  1.
          2   -1    0    0  501    0  0.00000000000E+00 -0.00000000000E+00 -0.19037031547E+03  0.19037031547E+03  0.00000000000E+00 0. -1.
         23    2    1    2    0    0  0.00000000000E+00  0.00000000000E+00 -0.17961043636E+03  0.20113019457E+03  0.90517657501E+02 0.  0.
        -13    1    3    3    0    0  0.48194123873E+00 -0.38782039937E+02 -0.14163464693E+03  0.14684907933E+03  0.00000000000E+00 0. -1.
         13    1    3    3    0    0 -0.48194123873E+00  0.38782039937E+02 -0.37975789426E+02  0.54281115239E+02  0.00000000000E+00 0.  1.
<mgrwt>
<rscale>  0 0.90517658E+02</rscale>
<asrwt>0</asrwt>
<pdfrwt beam="2">  1        2 0.29287740E-01 0.90517658E+02</pdfrwt>
<pdfrwt beam="1">  1       -2 0.16553660E-02 0.90517658E+02</pdfrwt>
<totfact> 0.15495334E+05</totfact>
</mgrwt>
</event>
<event>
 5    1  0.1270834E+001  0.8935379E+02  0.7546771E-02  0.1304424E+00
          1   -1    0    0  501    0  0.00000000000E+00  0.00000000000E+00  0.31796884294E+02  0.31796884294E+02  0.00000000000E+00 0. -1.
         -1   -1    0    0    0  501 -0.00000000000E+00 -0.00000000000E+00 -0.62774233428E+02  0.62774233428E+02  0.00000000000E+00 0.  1.
         23    2    1    2    0    0  0.00000000000E+00  0.00000000000E+00 -0.30977349134E+02  0.94571117722E+02  0.89353792017E+02 0.  0.
        -11    1    3    3    0    0  0.30778615909E+02  0.29987322315E+02 -0.25493554812E+01  0.43047205603E+02  0.00000000000E+00 0. -1.
         11    1    3    3    0    0 -0.30778615909E+02 -0.29987322315E+02 -0.28427993653E+02  0.51523912119E+02  0.00000000000E+00 0.  1.
<mgrwt>
<rscale>  0 0.89353792E+02</rscale>
<asrwt>0</asrwt>
<pdfrwt beam="1">  1        1 0.48918284E-02 0.89353792E+02</pdfrwt>
<pdfrwt beam="2">  1       -1 0.96575742E-02 0.89353792E+02</pdfrwt>
<totfact> 0.92685299E+04</totfact>
</mgrwt>
</event>
<event>
 5    1  0.1270834E+001  0.9090306E+02  0.7546771E-02  0.1300679E+00
          3   -1    0    0  501    0  0.00000000000E+00  0.00000000000E+00  0.22300248042E+02  0.22300248042E+02  0.00000000000E+00 0. -1.
         -3   -1    0    0    0  501 -0.00000000000E+00 -0.00000000000E+00 -0.92637613718E+02  0.92637613718E+02  0.00000000000E+00 0.  1.
         23    2    1    2    0    0  0.00000000000E+00  0.00000000000E+00 -0.70337365676E+02  0.11493786176E+03  0.90903064062E+02 0.  0.
        -11    1    3    3    0    0 -0.37062915075E+02 -0.21602675930E+02 -0.54156021951E+02  0.69088421568E+02  0.00000000000E+00 0.  1.
         11    1    3    3    0    0  0.37062915075E+02  0.21602675930E+02 -0.16181343725E+02  0.45849440192E+02  0.00000000000E+00 0. -1.
<mgrwt>
<rscale>  0 0.90903064E+02</rscale>
<asrwt>0</asrwt>
<pdfrwt beam="1">  1        3 0.34308075E-02 0.90903064E+02</pdfrwt>
<pdfrwt beam="2">  1       -3 0.14251940E-01 0.90903064E+02</pdfrwt>
<totfact> 0.33873502E+04</totfact>
</mgrwt>
</event>
<event>
 5    1  0.1270834E+001  0.9053399E+02  0.7546771E-02  0.1301564E+00
          1   -1    0    0  501    0  0.00000000000E+00  0.00000000000E+00  0.19420053450E+02  0.19420053450E+02  0.00000000000E+00 0. -1.
         -1   -1    0    0    0  501 -0.00000000000E+00 -0.00000000000E+00 -0.10551469111E+03  0.10551469111E+03  0.00000000000E+00 0.  1.
         23    2    1    2    0    0  0.00000000000E+00  0.00000000000E+00 -0.86094637665E+02  0.12493474456E+03  0.90533992316E+02 0.  0.
        -11    1    3    3    0    0 -0.30152314894E+02  0.10070269984E+01  0.35240577685E+01  0.30374251925E+02  0.00000000000E+00 0. -1.
         11    1    3    3    0    0  0.30152314894E+02 -0.10070269984E+01 -0.89618695434E+02  0.94560492639E+02  0.00000000000E+00 0.  1.
<mgrwt>
<rscale>  0 0.90533992E+02</rscale>
<asrwt>0</asrwt>
<pdfrwt beam="1">  1        1 0.29877006E-02 0.90533992E+02</pdfrwt>
<pdfrwt beam="2">  1       -1 0.16233029E-01 0.90533992E+02</pdfrwt>
<totfact> 0.82033763E+04</totfact>
</mgrwt>
</event>
<event>
 5    1  0.1270834E+001  0.9533856E+02  0.7546771E-02  0.1290415E+00
         -2   -1    0    0    0  501 -0.00000000000E+00  0.00000000000E+00  0.76873168267E+01  0.76873168267E+01  0.00000000000E+00 0.  1.
          2   -1    0    0  501    0  0.00000000000E+00 -0.00000000000E+00 -0.29559860280E+03  0.29559860280E+03  0.00000000000E+00 0. -1.
         23    2    1    2    0    0  0.00000000000E+00  0.00000000000E+00 -0.28791128598E+03  0.30328591963E+03  0.95338557012E+02 0.  0.
        -11    1    3    3    0    0  0.42255615443E+02 -0.32569203541E+01 -0.21337577872E+03  0.21754394386E+03  0.00000000000E+00 0. -1.
         11    1    3    3    0    0 -0.42255615443E+02  0.32569203541E+01 -0.74535507259E+02  0.85741975770E+02  0.00000000000E+00 0.  1.
<mgrwt>
<rscale>  0 0.95338557E+02</rscale>
<asrwt>0</asrwt>
<pdfrwt beam="2">  1        2 0.45476710E-01 0.95338557E+02</pdfrwt>
<pdfrwt beam="1">  1       -2 0.11826641E-02 0.95338557E+02</pdfrwt>
<totfact> 0.15855069E+05</totfact>
</mgrwt>
</event>
<event>
 5    1  0.1270834E+001  0.8917226E+02  0.7546771E-02  0.1304869E+00
          2   -1    0    0  501    0  0.00000000000E+00  0.00000000000E+00  0.23043156435E+03  0.23043156435E+03  0.00000000000E+00 0.  1.
         -2   -1    0    0    0  501 -0.00000000000E+00 -0.00000000000E+00 -0.86269561996E+01  0.86269561996E+01  0.00000000000E+00 0. -1.
         23    2    1    2    0    0  0.00000000000E+00  0.00000000000E+00  0.22180460815E+03  0.23905852054E+03  0.89172260543E+02 0.  0.
        -11    1    3    3    0    0  0.27143786547E+02 -0.31867906792E+02  0.69755275260E+02  0.81351994800E+02  0.00000000000E+00 0. -1.
         11    1    3    3    0    0 -0.27143786547E+02  0.31867906792E+02  0.15204933289E+03  0.15770652574E+03  0.00000000000E+00 0.  1.
<mgrwt>
<rscale>  0 0.89172261E+02</rscale>
<asrwt>0</asrwt>
<pdfrwt beam="1">  1        2 0.35451005E-01 0.89172261E+02</pdfrwt>
<pdfrwt beam="2">  1       -2 0.13272242E-02 0.89172261E+02</pdfrwt>
<totfact> 0.17287792E+05</totfact>
</mgrwt>
</event>
<event>
 5    1  0.1270834E+001  0.9538026E+02  0.7546771E-02  0.1290322E+00
         -2   -1    0    0    0  501 -0.00000000000E+00  0.00000000000E+00  0.81106158160E+01  0.81106158160E+01  0.00000000000E+00 0. -1.
          2   -1    0    0  501    0  0.00000000000E+00 -0.00000000000E+00 -0.28041628260E+03  0.28041628260E+03  0.00000000000E+00 0.  1.
         23    2    1    2    0    0  0.00000000000E+00  0.00000000000E+00 -0.27230566678E+03  0.28852689841E+03  0.95380264975E+02 0.  0.
        -13    1    3    3    0    0 -0.43054365162E+02  0.26897172700E+01 -0.74644802797E+02  0.86213453261E+02  0.00000000000E+00 0. -1.
         13    1    3    3    0    0  0.43054365162E+02 -0.26897172700E+01 -0.19766086398E+03  0.20231344515E+03  0.00000000000E+00 0.  1.
<mgrwt>
<rscale>  0 0.95380265E+02</rscale>
<asrwt>0</asrwt>
<pdfrwt beam="2">  1        2 0.43140967E-01 0.95380265E+02</pdfrwt>
<pdfrwt beam="1">  1       -2 0.12477870E-02 0.95380265E+02</pdfrwt>
<totfact> 0.15526061E+05</totfact>
</mgrwt>
</event>
<event>
 5    1  0.1270834E+001  0.5646015E+02  0.7546771E-02  0.1413317E+00
         -4   -1    0    0    0  501 -0.00000000000E+00  0.00000000000E+00  0.10039782610E+02  0.10039782610E+02  0.00000000000E+00 0.  1.
          4   -1    0    0  501    0  0.00000000000E+00 -0.00000000000E+00 -0.79377922872E+02  0.79377922872E+02  0.00000000000E+00 0. -1.
         23    2    1    2    0    0  0.00000000000E+00  0.00000000000E+00 -0.69338140262E+02  0.89417705482E+02  0.56460148411E+02 0.  0.
        -11    1    3    3    0    0 -0.12912777558E+02  0.25095827611E+02 -0.35666571849E+02  0.45482356307E+02  0.00000000000E+00 0. -1.
         11    1    3    3    0    0  0.12912777558E+02 -0.25095827611E+02 -0.33671568413E+02  0.43935349175E+02  0.00000000000E+00 0.  1.
<mgrwt>
<rscale>  0 0.56460148E+02</rscale>
<asrwt>0</asrwt>
<pdfrwt beam="2">  1        4 0.12211989E-01 0.56460148E+02</pdfrwt>
<pdfrwt beam="1">  1       -4 0.15445819E-02 0.56460148E+02</pdfrwt>
<totfact> 0.95102612E+04</totfact>
</mgrwt>
</event>
<event>
 5    1  0.1270834E+001  0.9332563E+02  0.7546771E-02  0.1294992E+00
         -2   -1    0    0    0  501 -0.00000000000E+00  0.00000000000E+00  0.23328219340E+02  0.23328219340E+02  0.00000000000E+00 0.  1.
          2   -1    0    0  501    0  0.00000000000E+00 -0.00000000000E+00 -0.93338380741E+02  0.93338380741E+02  0.00000000000E+00 0. -1.
         23    2    1    2    0    0  0.00000000000E+00  0.00000000000E+00 -0.70010161401E+02  0.11666660008E+03  0.93325628179E+02 0.  0.
        -13    1    3    3    0    0  0.18723565423E+02 -0.24486337507E+02  0.87889480449E+01  0.32053053434E+02  0.00000000000E+00 0.  1.
         13    1    3    3    0    0 -0.18723565423E+02  0.24486337507E+02 -0.78799109446E+02  0.84613546647E+02  0.00000000000E+00 0. -1.
<mgrwt>
<rscale>  0 0.93325628E+02</rscale>
<asrwt>0</asrwt>
<pdfrwt beam="2">  1        2 0.14359751E-01 0.93325628E+02</pdfrwt>
<pdfrwt beam="1">  1       -2 0.35889567E-02 0.93325628E+02</pdfrwt>
<totfact> 0.11264938E+05</totfact>
</mgrwt>
</event>
<event>
 5    1  0.1270834E+001  0.9117513E+02  0.7546771E-02  0.1300031E+00
          1   -1    0    0  501    0  0.00000000000E+00  0.00000000000E+00  0.17500033464E+03  0.17500033464E+03  0.00000000000E+00 0. -1.
         -1   -1    0    0    0  501 -0.00000000000E+00 -0.00000000000E+00 -0.11875555304E+02  0.11875555304E+02  0.00000000000E+00 0.  1.
         23    2    1    2    0    0  0.00000000000E+00  0.00000000000E+00  0.16312477934E+03  0.18687588995E+03  0.91175131528E+02 0.  0.
        -11    1    3    3    0    0 -0.14091327537E+01  0.32301846062E+02  0.15691799009E+02  0.35939219110E+02  0.00000000000E+00 0.  1.
         11    1    3    3    0    0  0.14091327537E+01 -0.32301846062E+02  0.14743298033E+03  0.15093667084E+03  0.00000000000E+00 0. -1.
<mgrwt>
<rscale>  0 0.91175132E+02</rscale>
<asrwt>0</asrwt>
<pdfrwt beam="1">  1        1 0.26923127E-01 0.91175132E+02</pdfrwt>
<pdfrwt beam="2">  1       -1 0.18270086E-02 0.91175132E+02</pdfrwt>
<totfact> 0.11541119E+05</totfact>
</mgrwt>
</event>
<event>
 5    1  0.1270834E+001  0.9201070E+02  0.7546771E-02  0.1298054E+00
          2   -1    0    0  501    0  0.00000000000E+00  0.00000000000E+00  0.31848214743E+03  0.31848214743E+03  0.00000000000E+00 0. -1.
         -2   -1    0    0    0  501 -0.00000000000E+00 -0.00000000000E+00 -0.66455606752E+01  0.66455606752E+01  0.00000000000E+00 0.  1.
         23    2    1    2    0    0  0.00000000000E+00  0.00000000000E+00  0.31183658676E+03  0.32512770811E+03  0.92010704480E+02 0.  0.
        -11    1    3    3    0    0  0.65974295236E+01 -0.43646889817E+02  0.11012932603E+03  0.11864672570E+03  0.00000000000E+00 0.  1.
         11    1    3    3    0    0 -0.65974295236E+01  0.43646889817E+02  0.20170726072E+03  0.20648098241E+03  0.00000000000E+00 0. -1.
<mgrwt>
<rscale>  0 0.92010704E+02</rscale>
<asrwt>0</asrwt>
<pdfrwt beam="1">  1        2 0.48997242E-01 0.92010704E+02</pdfrwt>
<pdfrwt beam="2">  1       -2 0.10223942E-02 0.92010704E+02</pdfrwt>
<totfact> 0.17928760E+05</totfact>
</mgrwt>
</event>
<event>
 5    1  0.1270834E+001  0.9028074E+02  0.7546771E-02  0.1302173E+00
         -1   -1    0    0    0  501 -0.00000000000E+00  0.00000000000E+00  0.26579606124E+02  0.26579606124E+02  0.00000000000E+00 0.  1.
          1   -1    0    0  501    0  0.00000000000E+00 -0.00000000000E+00 -0.76662272300E+02  0.76662272300E+02  0.00000000000E+00 0. -1.
         23    2    1    2    0    0  0.00000000000E+00  0.00000000000E+00 -0.50082666176E+02  0.10324187842E+03  0.90280739968E+02 0.  0.
        -11    1    3    3    0    0  0.21301716592E+02 -0.36630578992E+02 -0.72483112878E+01  0.42989539002E+02  0.00000000000E+00 0. -1.
         11    1    3    3    0    0 -0.21301716592E+02  0.36630578992E+02 -0.42834354888E+02  0.60252339422E+02  0.00000000000E+00 0.  1.
<mgrwt>
<rscale>  0 0.90280740E+02</rscale>
<asrwt>0</asrwt>
<pdfrwt beam="2">  1        1 0.11794196E-01 0.90280740E+02</pdfrwt>
<pdfrwt beam="1">  1       -1 0.40891702E-02 0.90280740E+02</pdfrwt>
<totfact> 0.10282174E+05</totfact>
</mgrwt>
</event>
<event>
 5    1  0.1270834E+001  0.9355097E+02  0.7546771E-02  0.1294473E+00
          1   -1    0    0  501    0  0.00000000000E+00  0.00000000000E+00  0.56737528958E+02  0.56737528958E+02  0.00000000000E+00 0. -1.
         -1   -1    0    0    0  501 -0.00000000000E+00 -0.00000000000E+00 -0.38562586521E+02  0.38562586521E+02  0.00000000000E+00 0.  1.
         23    2    1    2    0    0  0.00000000000E+00  0.00000000000E+00  0.18174942437E+02  0.95300115479E+02  0.93550967273E+02 0.  0.
        -13    1    3    3    0    0 -0.28450668309E+01  0.35826199014E+02 -0.21411156923E+02  0.41833581987E+02  0.00000000000E+00 0.  1.
         13    1    3    3    0    0  0.28450668309E+01 -0.35826199014E+02  0.39586099360E+02  0.53466533492E+02  0.00000000000E+00 0. -1.
<mgrwt>
<rscale>  0 0.93550967E+02</rscale>
<asrwt>0</asrwt>
<pdfrwt beam="1">  1        1 0.87288506E-02 0.93550967E+02</pdfrwt>
<pdfrwt beam="2">  1       -1 0.59327056E-02 0.93550967E+02</pdfrwt>
<totfact> 0.88952320E+04</totfact>
</mgrwt>
</event>
<event>
 5    1  0.1270834E+001  0.9121296E+02  0.7546771E-02  0.1299941E+00
          2   -1    0    0  501    0  0.00000000000E+00  0.00000000000E+00  0.29389057134E+02  0.29389057134E+02  0.00000000000E+00 0. -1.
         -2   -1    0    0    0  501 -0.00000000000E+00 -0.00000000000E+00 -0.70772973726E+02  0.70772973726E+02  0.00000000000E+00 0.  1.
         23    2    1    2    0    0  0.00000000000E+00  0.00000000000E+00 -0.41383916592E+02  0.10016203086E+03  0.91212958912E+02 0.  0.
        -13    1    3    3    0    0 -0.12778822555E+02  0.33238622268E+02 -0.51980374451E+02  0.63008441056E+02  0.00000000000E+00 0.  1.
         13    1    3    3    0    0  0.12778822555E+02 -0.33238622268E+02  0.10596457860E+02  0.37153589804E+02  0.00000000000E+00 0. -1.
<mgrwt>
<rscale>  0 0.91212959E+02</rscale>
<asrwt>0</asrwt>
<pdfrwt beam="1">  1        2 0.45213935E-02 0.91212959E+02</pdfrwt>
<pdfrwt beam="2">  1       -2 0.10888150E-01 0.91212959E+02</pdfrwt>
<totfact> 0.87876738E+04</totfact>
</mgrwt>
</event>
<event>
 5    1  0.1270834E+001  0.8779599E+02  0.7546771E-02  0.1308279E+00
          1   -1    0    0  501    0  0.00000000000E+00  0.00000000000E+00  0.58463589495E+02  0.58463589495E+02  0.00000000000E+00 0. -1.
         -1   -1    0    0    0  501 -0.00000000000E+00 -0.00000000000E+00 -0.32961265567E+02  0.32961265567E+02  0.00000000000E+00 0.  1.
         23    2    1    2    0    0  0.00000000000E+00  0.00000000000E+00  0.25502323928E+02  0.91424855062E+02  0.87795988503E+02 0.  0.
        -11    1    3    3    0    0 -0.11650289975E+02 -0.35146390100E+02 -0.11803899523E+02  0.38862964858E+02  0.00000000000E+00 0.  1.
         11    1    3    3    0    0  0.11650289975E+02  0.35146390100E+02  0.37306223452E+02  0.52561890204E+02  0.00000000000E+00 0. -1.
<mgrwt>
<rscale>  0 0.87795989E+02</rscale>
<asrwt>0</asrwt>
<pdfrwt beam="1">  1        1 0.89943984E-02 0.87795989E+02</pdfrwt>
<pdfrwt beam="2">  1       -1 0.50709639E-02 0.87795989E+02</pdfrwt>
<totfact> 0.10657147E+05</totfact>
</mgrwt>
</event>
<event>
 5    1  0.1270834E+001  0.9191247E+02  0.7546771E-02  0.1298285E+00
          1   -1    0    0  501    0  0.00000000000E+00  0.00000000000E+00  0.71820676509E+01  0.71820676509E+01  0.00000000000E+00 0. -1.
         -1   -1    0    0    0  501 -0.00000000000E+00 -0.00000000000E+00 -0.29406233183E+03  0.29406233183E+03  0.00000000000E+00 0.  1.
         23    2    1    2    0    0  0.00000000000E+00  0.00000000000E+00 -0.28688026417E+03  0.30124439948E+03  0.91912470552E+02 0.  0.
        -11    1    3    3    0    0 -0.39938923061E+01  0.45782028375E+02 -0.14286996815E+03  0.15007922273E+03  0.00000000000E+00 0.  1.
         11    1    3    3    0    0  0.39938923061E+01 -0.45782028375E+02 -0.14401029603E+03  0.15116517674E+03  0.00000000000E+00 0. -1.
<mgrwt>
<rscale>  0 0.91912471E+02</rscale>
<asrwt>0</asrwt>
<pdfrwt beam="1">  1        1 0.11049334E-02 0.91912471E+02</pdfrwt>
<pdfrwt beam="2">  1       -1 0.45240361E-01 0.91912471E+02</pdfrwt>
<totfact> 0.59790298E+04</totfact>
</mgrwt>
</event>
<event>
 5    1  0.1270834E+001  0.8860785E+02  0.7546771E-02  0.1306258E+00
          2   -1    0    0  501    0  0.00000000000E+00  0.00000000000E+00  0.26114310816E+03  0.26114310816E+03  0.00000000000E+00 0. -1.
         -2   -1    0    0    0  501 -0.00000000000E+00 -0.00000000000E+00 -0.75163299610E+01  0.75163299610E+01  0.00000000000E+00 0.  1.
         23    2    1    2    0    0  0.00000000000E+00  0.00000000000E+00  0.25362677820E+03  0.26865943812E+03  0.88607849945E+02 0.  0.
        -13    1    3    3    0    0  0.28550692318E+02  0.27297162411E+02  0.65979501716E+02  0.76899751328E+02  0.00000000000E+00 0.  1.
         13    1    3    3    0    0 -0.28550692318E+02 -0.27297162411E+02  0.18764727648E+03  0.19175968679E+03  0.00000000000E+00 0. -1.
<mgrwt>
<rscale>  0 0.88607850E+02</rscale>
<asrwt>0</asrwt>
<pdfrwt beam="1">  1        2 0.40175856E-01 0.88607850E+02</pdfrwt>
<pdfrwt beam="2">  1       -2 0.11563587E-02 0.88607850E+02</pdfrwt>
<totfact> 0.18412703E+05</totfact>
</mgrwt>
</event>
<event>
 5    1  0.1270834E+001  0.6187976E+02  0.7546771E-02  0.1390108E+00
          1   -1    0    0  501    0  0.00000000000E+00  0.00000000000E+00  0.12427972924E+02  0.12427972924E+02  0.00000000000E+00 0. -1.
         -1   -1    0    0    0  501 -0.00000000000E+00 -0.00000000000E+00 -0.77025935847E+02  0.77025935847E+02  0.00000000000E+00 0.  1.
         23    2    1    2    0    0  0.00000000000E+00  0.00000000000E+00 -0.64597962924E+02  0.89453908771E+02  0.61879762286E+02 0.  0.
        -11    1    3    3    0    0  0.28824570686E+02 -0.10885743740E+02 -0.28230433810E+02  0.41788906245E+02  0.00000000000E+00 0. -1.
         11    1    3    3    0    0 -0.28824570686E+02  0.10885743740E+02 -0.36367529114E+02  0.47665002526E+02  0.00000000000E+00 0.  1.
<mgrwt>
<rscale>  0 0.61879762E+02</rscale>
<asrwt>0</asrwt>
<pdfrwt beam="1">  1        1 0.19119958E-02 0.61879762E+02</pdfrwt>
<pdfrwt beam="2">  1       -1 0.11850144E-01 0.61879762E+02</pdfrwt>
<totfact> 0.22779357E+05</totfact>
</mgrwt>
</event>
<event>
 5    1  0.1270834E+001  0.9108028E+02  0.7546771E-02  0.1300257E+00
         -1   -1    0    0    0  501 -0.00000000000E+00  0.00000000000E+00  0.13499675175E+03  0.13499675175E+03  0.00000000000E+00 0.  1.
          1   -1    0    0  501    0  0.00000000000E+00 -0.00000000000E+00 -0.15362623982E+02  0.15362623982E+02  0.00000000000E+00 0. -1.
         23    2    1    2    0    0  0.00000000000E+00  0.00000000000E+00  0.11963412777E+03  0.15035937573E+03  0.91080279663E+02 0.  0.
        -11    1    3    3    0    0 -0.11976270703E+02 -0.19020407847E+02  0.12520170457E+03  0.12720327748E+03  0.00000000000E+00 0.  1.
         11    1    3    3    0    0  0.11976270703E+02  0.19020407847E+02 -0.55675768044E+01  0.23156098248E+02  0.00000000000E+00 0. -1.
<mgrwt>
<rscale>  0 0.91080280E+02</rscale>
<asrwt>0</asrwt>
<pdfrwt beam="2">  1        1 0.23634807E-02 0.91080280E+02</pdfrwt>
<pdfrwt beam="1">  1       -1 0.20768730E-01 0.91080280E+02</pdfrwt>
<totfact> 0.76806502E+04</totfact>
</mgrwt>
</event>
<event>
 5    1  0.1270834E+001  0.9407684E+02  0.7546771E-02  0.1293269E+00
         -1   -1    0    0    0  501 -0.00000000000E+00  0.00000000000E+00  0.48682134790E+02  0.48682134790E+02  0.00000000000E+00 0.  1.
          1   -1    0    0  501    0  0.00000000000E+00 -0.00000000000E+00 -0.45450205176E+02  0.45450205176E+02  0.00000000000E+00 0. -1.
         23    2    1    2    0    0  0.00000000000E+00  0.00000000000E+00  0.32319296144E+01  0.94132339966E+02  0.94076841244E+02 0.  0.
        -13    1    3    3    0    0  0.16158674110E+02  0.19241143469E+02  0.41404844060E+02  0.48432277075E+02  0.00000000000E+00 0.  1.
         13    1    3    3    0    0 -0.16158674110E+02 -0.19241143469E+02 -0.38172914446E+02  0.45700062891E+02  0.00000000000E+00 0. -1.
<mgrwt>
<rscale>  0 0.94076841E+02</rscale>
<asrwt>0</asrwt>
<pdfrwt beam="2">  1        1 0.69923393E-02 0.94076841E+02</pdfrwt>
<pdfrwt beam="1">  1       -1 0.74895592E-02 0.94076841E+02</pdfrwt>
<totfact> 0.84626287E+04</totfact>
</mgrwt>
</event>
<event>
 5    1  0.1270834E+001  0.8786006E+02  0.7546771E-02  0.1308118E+00
         -2   -1    0    0    0  501 -0.00000000000E+00  0.00000000000E+00  0.86088128399E+02  0.86088128399E+02  0.00000000000E+00 0.  1.
          2   -1    0    0  501    0  0.00000000000E+00 -0.00000000000E+00 -0.22417115947E+02  0.22417115947E+02  0.00000000000E+00 0. -1.
         23    2    1    2    0    0  0.00000000000E+00  0.00000000000E+00  0.63671012452E+02  0.10850524435E+03  0.87860060460E+02 0.  0.
        -11    1    3    3    0    0  0.83986286352E+01  0.39743912768E+02  0.11180263649E+02  0.42132100117E+02  0.00000000000E+00 0. -1.
         11    1    3    3    0    0 -0.83986286352E+01 -0.39743912768E+02  0.52490748803E+02  0.66373144230E+02  0.00000000000E+00 0.  1.
<mgrwt>
<rscale>  0 0.87860060E+02</rscale>
<asrwt>0</asrwt>
<pdfrwt beam="2">  1        2 0.34487871E-02 0.87860060E+02</pdfrwt>
<pdfrwt beam="1">  1       -2 0.13244327E-01 0.87860060E+02</pdfrwt>
<totfact> 0.91332462E+04</totfact>
</mgrwt>
</event>
<event>
 5    1  0.1270834E+001  0.9185012E+02  0.7546771E-02  0.1298432E+00
         -2   -1    0    0    0  501 -0.00000000000E+00  0.00000000000E+00  0.28004268633E+02  0.28004268633E+02  0.00000000000E+00 0.  1.
          2   -1    0    0  501    0  0.00000000000E+00 -0.00000000000E+00 -0.75313914856E+02  0.75313914856E+02  0.00000000000E+00 0. -1.
         23    2    1    2    0    0  0.00000000000E+00  0.00000000000E+00 -0.47309646223E+02  0.10331818349E+03  0.91850119291E+02 0.  0.
        -13    1    3    3    0    0 -0.17562761547E+02 -0.41269030611E+02 -0.34763462178E+02  0.56745764453E+02  0.00000000000E+00 0. -1.
         13    1    3    3    0    0  0.17562761547E+02  0.41269030611E+02 -0.12546184045E+02  0.46572419036E+02  0.00000000000E+00 0.  1.
<mgrwt>
<rscale>  0 0.91850119E+02</rscale>
<asrwt>0</asrwt>
<pdfrwt beam="2">  1        2 0.11586756E-01 0.91850119E+02</pdfrwt>
<pdfrwt beam="1">  1       -2 0.43083491E-02 0.91850119E+02</pdfrwt>
<totfact> 0.11060906E+05</totfact>
</mgrwt>
</event>
<event>
 5    1  0.1270834E+001  0.7573209E+02  0.7546771E-02  0.1341619E+00
         -2   -1    0    0    0  501 -0.00000000000E+00  0.00000000000E+00  0.20735224139E+02  0.20735224139E+02  0.00000000000E+00 0. -1.
          2   -1    0    0  501    0  0.00000000000E+00 -0.00000000000E+00 -0.69149845216E+02  0.69149845216E+02  0.00000000000E+00 0.  1.
         23    2    1    2    0    0  0.00000000000E+00  0.00000000000E+00 -0.48414621077E+02  0.89885069355E+02  0.75732094643E+02 0.  0.
        -11    1    3    3    0    0 -0.20073901625E+02 -0.14201790812E+02 -0.58384263997E+02  0.63351201023E+02  0.00000000000E+00 0.  1.
         11    1    3    3    0    0  0.20073901625E+02  0.14201790812E+02  0.99696429196E+01  0.26533868332E+02  0.00000000000E+00 0. -1.
<mgrwt>
<rscale>  0 0.75732095E+02</rscale>
<asrwt>0</asrwt>
<pdfrwt beam="2">  1        2 0.10638438E-01 0.75732095E+02</pdfrwt>
<pdfrwt beam="1">  1       -2 0.31900345E-02 0.75732095E+02</pdfrwt>
<totfact> 0.18386418E+05</totfact>
</mgrwt>
</event>
<event>
 5    1  0.1270834E+001  0.9064788E+02  0.7546771E-02  0.1301290E+00
         -3   -1    0    0    0  501 -0.00000000000E+00  0.00000000000E+00  0.95045292505E+01  0.95045292505E+01  0.00000000000E+00 0. -1.
          3   -1    0    0  501    0  0.00000000000E+00 -0.00000000000E+00 -0.21613479355E+03  0.21613479355E+03  0.00000000000E+00 0.  1.
         23    2    1    2    0    0  0.00000000000E+00  0.00000000000E+00 -0.20663026430E+03  0.22563932280E+03  0.90647878460E+02 0.  0.
        -13    1    3    3    0    0  0.24197439329E+02 -0.33494821247E+02 -0.14967283948E+03  0.15527194853E+03  0.00000000000E+00 0.  1.
         13    1    3    3    0    0 -0.24197439329E+02  0.33494821247E+02 -0.56957424817E+02  0.70367374274E+02  0.00000000000E+00 0. -1.
<mgrwt>
<rscale>  0 0.90647878E+02</rscale>
<asrwt>0</asrwt>
<pdfrwt beam="2">  1        3 0.33251503E-01 0.90647878E+02</pdfrwt>
<pdfrwt beam="1">  1       -3 0.14622354E-02 0.90647878E+02</pdfrwt>
<totfact> 0.27654789E+04</totfact>
</mgrwt>
</event>
<event>
 5    1  0.1270834E+001  0.9141968E+02  0.7546771E-02  0.1299450E+00
          4   -1    0    0  501    0  0.00000000000E+00  0.00000000000E+00  0.28110283657E+02  0.28110283657E+02  0.00000000000E+00 0. -1.
         -4   -1    0    0    0  501 -0.00000000000E+00 -0.00000000000E+00 -0.74328297925E+02  0.74328297925E+02  0.00000000000E+00 0.  1.
         23    2    1    2    0    0  0.00000000000E+00  0.00000000000E+00 -0.46218014268E+02  0.10243858158E+03  0.91419681435E+02 0.  0.
        -11    1    3    3    0    0 -0.25325735306E+02 -0.28049522091E+02  0.57045691407E+01  0.38219244726E+02  0.00000000000E+00 0. -1.
         11    1    3    3    0    0  0.25325735306E+02  0.28049522091E+02 -0.51922583409E+02  0.64219336856E+02  0.00000000000E+00 0.  1.
<mgrwt>
<rscale>  0 0.91419681E+02</rscale>
<asrwt>0</asrwt>
<pdfrwt beam="1">  1        4 0.43246591E-02 0.91419681E+02</pdfrwt>
<pdfrwt beam="2">  1       -4 0.11435123E-01 0.91419681E+02</pdfrwt>
<totfact> 0.26118885E+04</totfact>
</mgrwt>
</event>
<event>
 5    1  0.1270834E+001  0.8340601E+02  0.7546771E-02  0.1319654E+00
         -1   -1    0    0    0  501 -0.00000000000E+00  0.00000000000E+00  0.43873184601E+02  0.43873184601E+02  0.00000000000E+00 0.  1.
          1   -1    0    0  501    0  0.00000000000E+00 -0.00000000000E+00 -0.39640176890E+02  0.39640176890E+02  0.00000000000E+00 0. -1.
         23    2    1    2    0    0  0.00000000000E+00  0.00000000000E+00  0.42330077104E+01  0.83513361491E+02  0.83406014131E+02 0.  0.
        -11    1    3    3    0    0  0.21287708957E+00 -0.11823321132E+02  0.42159280541E+02  0.43786312644E+02  0.00000000000E+00 0.  1.
         11    1    3    3    0    0 -0.21287708957E+00  0.11823321132E+02 -0.37926272831E+02  0.39727048847E+02  0.00000000000E+00 0. -1.
<mgrwt>
<rscale>  0 0.83406014E+02</rscale>
<asrwt>0</asrwt>
<pdfrwt beam="2">  1        1 0.60984888E-02 0.83406014E+02</pdfrwt>
<pdfrwt beam="1">  1       -1 0.67497207E-02 0.83406014E+02</pdfrwt>
<totfact> 0.11621613E+05</totfact>
</mgrwt>
</event>
<event>
 5    1  0.1270834E+001  0.9044431E+02  0.7546771E-02  0.1301779E+00
         -1   -1    0    0    0  501 -0.00000000000E+00  0.00000000000E+00  0.11397515250E+02  0.11397515250E+02  0.00000000000E+00 0.  1.
          1   -1    0    0  501    0  0.00000000000E+00 -0.00000000000E+00 -0.17942889058E+03  0.17942889058E+03  0.00000000000E+00 0. -1.
         23    2    1    2    0    0  0.00000000000E+00  0.00000000000E+00 -0.16803137533E+03  0.19082640583E+03  0.90444314726E+02 0.  0.
        -11    1    3    3    0    0  0.42593744565E+02  0.60890594847E+01 -0.11338316322E+03  0.12127260789E+03  0.00000000000E+00 0. -1.
         11    1    3    3    0    0 -0.42593744565E+02 -0.60890594847E+01 -0.54648212102E+02  0.69553797936E+02  0.00000000000E+00 0.  1.
<mgrwt>
<rscale>  0 0.90444315E+02</rscale>
<asrwt>0</asrwt>
<pdfrwt beam="2">  1        1 0.27604446E-01 0.90444315E+02</pdfrwt>
<pdfrwt beam="1">  1       -1 0.17534638E-02 0.90444315E+02</pdfrwt>
<totfact> 0.11849428E+05</totfact>
</mgrwt>
</event>
<event>
 5    1  0.1270834E+001  0.9306172E+02  0.7546771E-02  0.1295602E+00
          2   -1    0    0  501    0  0.00000000000E+00  0.00000000000E+00  0.23706890461E+02  0.23706890461E+02  0.00000000000E+00 0. -1.
         -2   -1    0    0    0  501 -0.00000000000E+00 -0.00000000000E+00 -0.91328768047E+02  0.91328768047E+02  0.00000000000E+00 0.  1.
         23    2    1    2    0    0  0.00000000000E+00  0.00000000000E+00 -0.67621877585E+02  0.11503565851E+03  0.93061723604E+02 0.  0.
        -13    1    3    3    0    0 -0.77702344172E+01 -0.43118366335E+02 -0.53181057467E+02  0.68904244656E+02  0.00000000000E+00 0.  1.
         13    1    3    3    0    0  0.77702344172E+01  0.43118366335E+02 -0.14440820119E+02  0.46131413852E+02  0.00000000000E+00 0. -1.
<mgrwt>
<rscale>  0 0.93061724E+02</rscale>
<asrwt>0</asrwt>
<pdfrwt beam="1">  1        2 0.36472139E-02 0.93061724E+02</pdfrwt>
<pdfrwt beam="2">  1       -2 0.14050580E-01 0.93061724E+02</pdfrwt>
<totfact> 0.77906008E+04</totfact>
</mgrwt>
</event>
<event>
 5    1  0.1270834E+001  0.9133367E+02  0.7546771E-02  0.1299654E+00
         -2   -1    0    0    0  501 -0.00000000000E+00  0.00000000000E+00  0.13783840442E+02  0.13783840442E+02  0.00000000000E+00 0.  1.
          2   -1    0    0  501    0  0.00000000000E+00 -0.00000000000E+00 -0.15129745181E+03  0.15129745181E+03  0.00000000000E+00 0. -1.
         23    2    1    2    0    0  0.00000000000E+00  0.00000000000E+00 -0.13751361136E+03  0.16508129225E+03  0.91333672543E+02 0.  0.
        -11    1    3    3    0    0 -0.42257276883E+02 -0.13350680137E+02 -0.48830361087E+02  0.65941809753E+02  0.00000000000E+00 0.  1.
         11    1    3    3    0    0  0.42257276883E+02  0.13350680137E+02 -0.88683250278E+02  0.99139482496E+02  0.00000000000E+00 0. -1.
<mgrwt>
<rscale>  0 0.91333673E+02</rscale>
<asrwt>0</asrwt>
<pdfrwt beam="2">  1        2 0.23276531E-01 0.91333673E+02</pdfrwt>
<pdfrwt beam="1">  1       -2 0.21205908E-02 0.91333673E+02</pdfrwt>
<totfact> 0.13956724E+05</totfact>
</mgrwt>
</event>
<event>
 5    1  0.1270834E+001  0.9439373E+02  0.7546771E-02  0.1292547E+00
         -2   -1    0    0    0  501 -0.00000000000E+00  0.00000000000E+00  0.15467249986E+02  0.15467249986E+02  0.00000000000E+00 0.  1.
          2   -1    0    0  501    0  0.00000000000E+00 -0.00000000000E+00 -0.14401682691E+03  0.14401682691E+03  0.00000000000E+00 0. -1.
         23    2    1    2    0    0  0.00000000000E+00  0.00000000000E+00 -0.12854957692E+03  0.15948407690E+03  0.94393734200E+02 0.  0.
        -13    1    3    3    0    0  0.12199055494E+02  0.42463210792E+02 -0.92323709670E+02  0.10235042058E+03  0.00000000000E+00 0. -1.
         13    1    3    3    0    0 -0.12199055494E+02 -0.42463210792E+02 -0.36225867254E+02  0.57133656316E+02  0.00000000000E+00 0.  1.
<mgrwt>
<rscale>  0 0.94393734E+02</rscale>
<asrwt>0</asrwt>
<pdfrwt beam="2">  1        2 0.22156435E-01 0.94393734E+02</pdfrwt>
<pdfrwt beam="1">  1       -2 0.23795769E-02 0.94393734E+02</pdfrwt>
<totfact> 0.12545988E+05</totfact>
</mgrwt>
</event>
<event>
 5    1  0.1270834E+001  0.8756446E+02  0.7546771E-02  0.1308859E+00
          3   -1    0    0  501    0  0.00000000000E+00  0.00000000000E+00  0.96480201495E+02  0.96480201495E+02  0.00000000000E+00 0. -1.
         -3   -1    0    0    0  501 -0.00000000000E+00 -0.00000000000E+00 -0.19868156770E+02  0.19868156770E+02  0.00000000000E+00 0.  1.
         23    2    1    2    0    0  0.00000000000E+00  0.00000000000E+00  0.76612044725E+02  0.11634835826E+03  0.87564462391E+02 0.  0.
        -13    1    3    3    0    0 -0.39170505773E+02  0.19243709420E+02  0.33658382434E+02  0.55113842026E+02  0.00000000000E+00 0.  1.
         13    1    3    3    0    0  0.39170505773E+02 -0.19243709420E+02  0.42953662291E+02  0.61234516239E+02  0.00000000000E+00 0. -1.
<mgrwt>
<rscale>  0 0.87564462E+02</rscale>
<asrwt>0</asrwt>
<pdfrwt beam="1">  1        3 0.14843108E-01 0.87564462E+02</pdfrwt>
<pdfrwt beam="2">  1       -3 0.30566396E-02 0.87564462E+02</pdfrwt>
<totfact> 0.37370749E+04</totfact>
</mgrwt>
</event>
<event>
 5    1  0.1270834E+001  0.8537276E+02  0.7546771E-02  0.1314461E+00
         -4   -1    0    0    0  501 -0.00000000000E+00  0.00000000000E+00  0.12097514228E+03  0.12097514228E+03  0.00000000000E+00 0.  1.
          4   -1    0    0  501    0  0.00000000000E+00 -0.00000000000E+00 -0.15061994177E+02  0.15061994177E+02  0.00000000000E+00 0. -1.
         23    2    1    2    0    0  0.00000000000E+00  0.00000000000E+00  0.10591314810E+03  0.13603713646E+03  0.85372756511E+02 0.  0.
        -13    1    3    3    0    0  0.71617778270E+00  0.32095669004E+02  0.81276101739E+01  0.33116505349E+02  0.00000000000E+00 0. -1.
         13    1    3    3    0    0 -0.71617778270E+00 -0.32095669004E+02  0.97785537931E+02  0.10292063111E+03  0.00000000000E+00 0.  1.
<mgrwt>
<rscale>  0 0.85372757E+02</rscale>
<asrwt>0</asrwt>
<pdfrwt beam="2">  1        4 0.23172300E-02 0.85372757E+02</pdfrwt>
<pdfrwt beam="1">  1       -4 0.18611560E-01 0.85372757E+02</pdfrwt>
<totfact> 0.29093929E+04</totfact>
</mgrwt>
</event>
<event>
 5    1  0.1270834E+001  0.8883717E+02  0.7546771E-02  0.1305692E+00
          2   -1    0    0  501    0  0.00000000000E+00  0.00000000000E+00  0.10210246634E+02  0.10210246634E+02  0.00000000000E+00 0.  1.
         -2   -1    0    0    0  501 -0.00000000000E+00 -0.00000000000E+00 -0.19323831720E+03  0.19323831720E+03  0.00000000000E+00 0. -1.
         23    2    1    2    0    0  0.00000000000E+00  0.00000000000E+00 -0.18302807057E+03  0.20344856384E+03  0.88837174151E+02 0.  0.
        -11    1    3    3    0    0  0.27864056674E+02  0.31150996576E+02 -0.57069050102E+02  0.70736601004E+02  0.00000000000E+00 0.  1.
         11    1    3    3    0    0 -0.27864056674E+02 -0.31150996576E+02 -0.12595902047E+03  0.13271196283E+03  0.00000000000E+00 0. -1.
<mgrwt>
<rscale>  0 0.88837174E+02</rscale>
<asrwt>0</asrwt>
<pdfrwt beam="1">  1        2 0.15708073E-02 0.88837174E+02</pdfrwt>
<pdfrwt beam="2">  1       -2 0.29728970E-01 0.88837174E+02</pdfrwt>
<totfact> 0.67575979E+04</totfact>
</mgrwt>
</event>
<event>
 5    1  0.1270834E+001  0.9305424E+02  0.7546771E-02  0.1295620E+00
         -1   -1    0    0    0  501 -0.00000000000E+00  0.00000000000E+00  0.85525280823E+01  0.85525280823E+01  0.00000000000E+00 0.  1.
          1   -1    0    0  501    0  0.00000000000E+00 -0.00000000000E+00 -0.25311496022E+03  0.25311496022E+03  0.00000000000E+00 0. -1.
         23    2    1    2    0    0  0.00000000000E+00  0.00000000000E+00 -0.24456243214E+03  0.26166748830E+03  0.93054238062E+02 0.  0.
        -13    1    3    3    0    0  0.38728624780E+02  0.63217409589E+01 -0.19257542895E+03  0.19653286397E+03  0.00000000000E+00 0. -1.
         13    1    3    3    0    0 -0.38728624780E+02 -0.63217409589E+01 -0.51987003188E+02  0.65134624330E+02  0.00000000000E+00 0.  1.
<mgrwt>
<rscale>  0 0.93054238E+02</rscale>
<asrwt>0</asrwt>
<pdfrwt beam="2">  1        1 0.38940768E-01 0.93054238E+02</pdfrwt>
<pdfrwt beam="1">  1       -1 0.13157734E-02 0.93054238E+02</pdfrwt>
<totfact> 0.11738896E+05</totfact>
</mgrwt>
</event>
<event>
 5    1  0.1270834E+001  0.8596232E+02  0.7546771E-02  0.1312935E+00
          4   -1    0    0  501    0  0.00000000000E+00  0.00000000000E+00  0.18949410615E+02  0.18949410615E+02  0.00000000000E+00 0. -1.
         -4   -1    0    0    0  501 -0.00000000000E+00 -0.00000000000E+00 -0.97490108531E+02  0.97490108531E+02  0.00000000000E+00 0.  1.
         23    2    1    2    0    0  0.00000000000E+00  0.00000000000E+00 -0.78540697917E+02  0.11643951915E+03  0.85962319592E+02 0.  0.
        -11    1    3    3    0    0  0.37080455237E+02  0.17046581601E+02 -0.21004922574E+02  0.45899377743E+02  0.00000000000E+00 0. -1.
         11    1    3    3    0    0 -0.37080455237E+02 -0.17046581601E+02 -0.57535775342E+02  0.70540141403E+02  0.00000000000E+00 0.  1.
<mgrwt>
<rscale>  0 0.85962320E+02</rscale>
<asrwt>0</asrwt>
<pdfrwt beam="1">  1        4 0.29152940E-02 0.85962320E+02</pdfrwt>
<pdfrwt beam="2">  1       -4 0.14998478E-01 0.85962320E+02</pdfrwt>
<totfact> 0.29845131E+04</totfact>
</mgrwt>
</event>
<event>
 5    1  0.1270834E+001  0.9131081E+02  0.7546771E-02  0.1299708E+00
         -2   -1    0    0    0  501 -0.00000000000E+00  0.00000000000E+00  0.11422186759E+03  0.11422186759E+03  0.00000000000E+00 0.  1.
          2   -1    0    0  501    0  0.00000000000E+00 -0.00000000000E+00 -0.18248836608E+02  0.18248836608E+02  0.00000000000E+00 0. -1.
         23    2    1    2    0    0  0.00000000000E+00  0.00000000000E+00  0.95973030980E+02  0.13247070420E+03  0.91310814227E+02 0.  0.
        -11    1    3    3    0    0  0.14328493350E+02  0.18805961084E+02 -0.86760314875E+01  0.25184189809E+02  0.00000000000E+00 0. -1.
         11    1    3    3    0    0 -0.14328493350E+02 -0.18805961084E+02  0.10464906247E+03  0.10728651439E+03  0.00000000000E+00 0.  1.
<mgrwt>
<rscale>  0 0.91310814E+02</rscale>
<asrwt>0</asrwt>
<pdfrwt beam="2">  1        2 0.28075134E-02 0.91310814E+02</pdfrwt>
<pdfrwt beam="1">  1       -2 0.17572595E-01 0.91310814E+02</pdfrwt>
<totfact> 0.76334187E+04</totfact>
</mgrwt>
</event>
<event>
 5    1  0.1270834E+001  0.9112396E+02  0.7546771E-02  0.1300152E+00
         -2   -1    0    0    0  501 -0.00000000000E+00  0.00000000000E+00  0.46387211631E+03  0.46387211631E+03  0.00000000000E+00 0.  1.
          2   -1    0    0  501    0  0.00000000000E+00 -0.00000000000E+00 -0.44751432302E+01  0.44751432302E+01  0.00000000000E+00 0. -1.
         23    2    1    2    0    0  0.00000000000E+00  0.00000000000E+00  0.45939697308E+03  0.46834725954E+03  0.91123963060E+02 0.  0.
        -13    1    3    3    0    0  0.43617955895E+02  0.10416948220E+02  0.18830728494E+03  0.19357342908E+03  0.00000000000E+00 0.  1.
         13    1    3    3    0    0 -0.43617955895E+02 -0.10416948220E+02  0.27108968814E+03  0.27477383045E+03  0.00000000000E+00 0. -1.
<mgrwt>
<rscale>  0 0.91123963E+02</rscale>
<asrwt>0</asrwt>
<pdfrwt beam="2">  1        2 0.68848394E-03 0.91123963E+02</pdfrwt>
<pdfrwt beam="1">  1       -2 0.71364903E-01 0.91123963E+02</pdfrwt>
<totfact> 0.38492452E+04</totfact>
</mgrwt>
</event>
<event>
 5    1  0.1270834E+001  0.9010293E+02  0.7546771E-02  0.1302603E+00
          2   -1    0    0  501    0  0.00000000000E+00  0.00000000000E+00  0.58096511497E+02  0.58096511497E+02  0.00000000000E+00 0. -1.
         -2   -1    0    0    0  501 -0.00000000000E+00 -0.00000000000E+00 -0.34935567194E+02  0.34935567194E+02  0.00000000000E+00 0.  1.
         23    2    1    2    0    0  0.00000000000E+00  0.00000000000E+00  0.23160944304E+02  0.93032078691E+02  0.90102931831E+02 0.  0.
        -11    1    3    3    0    0  0.18661300334E+02 -0.16978178684E+02 -0.26957594244E+02  0.36921735726E+02  0.00000000000E+00 0.  1.
         11    1    3    3    0    0 -0.18661300334E+02  0.16978178684E+02  0.50118538547E+02  0.56110342965E+02  0.00000000000E+00 0. -1.
<mgrwt>
<rscale>  0 0.90102932E+02</rscale>
<asrwt>0</asrwt>
<pdfrwt beam="1">  1        2 0.89379249E-02 0.90102932E+02</pdfrwt>
<pdfrwt beam="2">  1       -2 0.53747026E-02 0.90102932E+02</pdfrwt>
<totfact> 0.10873224E+05</totfact>
</mgrwt>
</event>
<event>
 5    1  0.1270834E+001  0.9167176E+02  0.7546771E-02  0.1298853E+00
          3   -1    0    0  501    0  0.00000000000E+00  0.00000000000E+00  0.96591185061E+02  0.96591185061E+02  0.00000000000E+00 0. -1.
         -3   -1    0    0    0  501 -0.00000000000E+00 -0.00000000000E+00 -0.21750722784E+02  0.21750722784E+02  0.00000000000E+00 0.  1.
         23    2    1    2    0    0  0.00000000000E+00  0.00000000000E+00  0.74840462278E+02  0.11834190784E+03  0.91671764238E+02 0.  0.
        -13    1    3    3    0    0 -0.31198718826E+02 -0.17514689500E+02  0.74404975885E+02  0.82560431449E+02  0.00000000000E+00 0. -1.
         13    1    3    3    0    0  0.31198718826E+02  0.17514689500E+02  0.43548639292E+00  0.35781476396E+02  0.00000000000E+00 0.  1.
<mgrwt>
<rscale>  0 0.91671764E+02</rscale>
<asrwt>0</asrwt>
<pdfrwt beam="1">  1        3 0.14860182E-01 0.91671764E+02</pdfrwt>
<pdfrwt beam="2">  1       -3 0.33462651E-02 0.91671764E+02</pdfrwt>
<totfact> 0.32872158E+04</totfact>
</mgrwt>
</event>
<event>
 5    1  0.1270834E+001  0.8498380E+02  0.7546771E-02  0.1315475E+00
         -1   -1    0    0    0  501 -0.00000000000E+00  0.00000000000E+00  0.53549312756E+02  0.53549312756E+02  0.00000000000E+00 0.  1.
          1   -1    0    0  501    0  0.00000000000E+00 -0.00000000000E+00 -0.33717736211E+02  0.33717736211E+02  0.00000000000E+00 0. -1.
         23    2    1    2    0    0  0.00000000000E+00  0.00000000000E+00  0.19831576545E+02  0.87267048968E+02  0.84983800852E+02 0.  0.
        -13    1    3    3    0    0 -0.32758995460E+02  0.13119988840E+02  0.34221874656E+02  0.49157121515E+02  0.00000000000E+00 0.  1.
         13    1    3    3    0    0  0.32758995460E+02 -0.13119988840E+02 -0.14390298111E+02  0.38109927452E+02  0.00000000000E+00 0. -1.
<mgrwt>
<rscale>  0 0.84983801E+02</rscale>
<asrwt>0</asrwt>
<pdfrwt beam="2">  1        1 0.51873440E-02 0.84983801E+02</pdfrwt>
<pdfrwt beam="1">  1       -1 0.82383558E-02 0.84983801E+02</pdfrwt>
<totfact> 0.10776365E+05</totfact>
</mgrwt>
</event>
<event>
 5    1  0.1270834E+001  0.9376007E+02  0.7546771E-02  0.1293993E+00
          2   -1    0    0  501    0  0.00000000000E+00  0.00000000000E+00  0.18057011833E+03  0.18057011833E+03  0.00000000000E+00 0. -1.
         -2   -1    0    0    0  501 -0.00000000000E+00 -0.00000000000E+00 -0.12171103285E+02  0.12171103285E+02  0.00000000000E+00 0.  1.
         23    2    1    2    0    0  0.00000000000E+00  0.00000000000E+00  0.16839901504E+03  0.19274122161E+03  0.93760067413E+02 0.  0.
        -13    1    3    3    0    0 -0.67617530877E+01  0.44324622770E+02  0.11233643517E+03  0.12095399190E+03  0.00000000000E+00 0.  1.
         13    1    3    3    0    0  0.67617530877E+01 -0.44324622770E+02  0.56062579870E+02  0.71787229715E+02  0.00000000000E+00 0. -1.
<mgrwt>
<rscale>  0 0.93760067E+02</rscale>
<asrwt>0</asrwt>
<pdfrwt beam="1">  1        2 0.27780016E-01 0.93760067E+02</pdfrwt>
<pdfrwt beam="2">  1       -2 0.18724776E-02 0.93760067E+02</pdfrwt>
<totfact> 0.13825572E+05</totfact>
</mgrwt>
</event>
<event>
 5    1  0.1270834E+001  0.9167749E+02  0.7546771E-02  0.1298840E+00
          2   -1    0    0  501    0  0.00000000000E+00  0.00000000000E+00  0.40356580651E+03  0.40356580651E+03  0.00000000000E+00 0. -1.
         -2   -1    0    0    0  501 -0.00000000000E+00 -0.00000000000E+00 -0.52065619957E+01  0.52065619957E+01  0.00000000000E+00 0.  1.
         23    2    1    2    0    0  0.00000000000E+00  0.00000000000E+00  0.39835924451E+03  0.40877236850E+03  0.91677486678E+02 0.  0.
        -13    1    3    3    0    0 -0.43385962734E+02 -0.93433002655E+01  0.25032030460E+03  0.25422410176E+03  0.00000000000E+00 0.  1.
         13    1    3    3    0    0  0.43385962734E+02  0.93433002655E+01  0.14803893991E+03  0.15454826674E+03  0.00000000000E+00 0. -1.
<mgrwt>
<rscale>  0 0.91677487E+02</rscale>
<asrwt>0</asrwt>
<pdfrwt beam="1">  1        2 0.62087023E-01 0.91677487E+02</pdfrwt>
<pdfrwt beam="2">  1       -2 0.80100985E-03 0.91677487E+02</pdfrwt>
<totfact> 0.19736620E+05</totfact>
</mgrwt>
</event>
<event>
 5    1  0.1270834E+001  0.9155113E+02  0.7546771E-02  0.1299138E+00
         -1   -1    0    0    0  501 -0.00000000000E+00  0.00000000000E+00  0.28684362577E+03  0.28684362577E+03  0.00000000000E+00 0.  1.
          1   -1    0    0  501    0  0.00000000000E+00 -0.00000000000E+00 -0.73050332952E+01  0.73050332952E+01  0.00000000000E+00 0. -1.
         23    2    1    2    0    0  0.00000000000E+00  0.00000000000E+00  0.27953859247E+03  0.29414865906E+03  0.91551127503E+02 0.  0.
        -11    1    3    3    0    0 -0.41591352220E+02  0.23880733478E+01  0.20071866569E+03  0.20499640541E+03  0.00000000000E+00 0.  1.
         11    1    3    3    0    0  0.41591352220E+02 -0.23880733478E+01  0.78819926784E+02  0.89152253657E+02  0.00000000000E+00 0. -1.
<mgrwt>
<rscale>  0 0.91551128E+02</rscale>
<asrwt>0</asrwt>
<pdfrwt beam="2">  1        1 0.11238515E-02 0.91551128E+02</pdfrwt>
<pdfrwt beam="1">  1       -1 0.44129780E-01 0.91551128E+02</pdfrwt>
<totfact> 0.60988536E+04</totfact>
</mgrwt>
</event>
<event>
 5    1  0.1270834E+001  0.9660014E+02  0.7546771E-02  0.1287612E+00
          1   -1    0    0  501    0  0.00000000000E+00  0.00000000000E+00  0.95678873885E+01  0.95678873885E+01  0.00000000000E+00 0. -1.
         -1   -1    0    0    0  501 -0.00000000000E+00 -0.00000000000E+00 -0.24382567086E+03  0.24382567086E+03  0.00000000000E+00 0.  1.
         23    2    1    2    0    0  0.00000000000E+00  0.00000000000E+00 -0.23425778348E+03  0.25339355825E+03  0.96600135844E+02 0.  0.
        -13    1    3    3    0    0 -0.20710929992E+02 -0.41180530046E+02 -0.79287026470E+02  0.91712655847E+02  0.00000000000E+00 0.  1.
         13    1    3    3    0    0  0.20710929992E+02  0.41180530046E+02 -0.15497075701E+03  0.16168090241E+03  0.00000000000E+00 0. -1.
<mgrwt>
<rscale>  0 0.96600136E+02</rscale>
<asrwt>0</asrwt>
<pdfrwt beam="1">  1        1 0.14719828E-02 0.96600136E+02</pdfrwt>
<pdfrwt beam="2">  1       -1 0.37511639E-01 0.96600136E+02</pdfrwt>
<totfact> 0.56145427E+04</totfact>
</mgrwt>
</event>
<event>
 5    1  0.1270834E+001  0.1080202E+03  0.7546771E-02  0.1264281E+00
         -2   -1    0    0    0  501 -0.00000000000E+00  0.00000000000E+00  0.38083380527E+02  0.38083380527E+02  0.00000000000E+00 0.  1.
          2   -1    0    0  501    0  0.00000000000E+00 -0.00000000000E+00 -0.76597499425E+02  0.76597499425E+02  0.00000000000E+00 0. -1.
         23    2    1    2    0    0  0.00000000000E+00  0.00000000000E+00 -0.38514118898E+02  0.11468087995E+03  0.10802021511E+03 0.  0.
        -11    1    3    3    0    0  0.17208743370E+02 -0.29893286991E+02  0.24866971276E+02  0.42521943934E+02  0.00000000000E+00 0.  1.
         11    1    3    3    0    0 -0.17208743370E+02  0.29893286991E+02 -0.63381090174E+02  0.72158936017E+02  0.00000000000E+00 0. -1.
<mgrwt>
<rscale>  0 0.10802022E+03</rscale>
<asrwt>0</asrwt>
<pdfrwt beam="2">  1        2 0.11784230E-01 0.10802022E+03</pdfrwt>
<pdfrwt beam="1">  1       -2 0.58589817E-02 0.10802022E+03</pdfrwt>
<totfact> 0.70253994E+04</totfact>
</mgrwt>
</event>
<event>
 4    1  0.1270834E+001  0.5046305E+02  0.7546771E-02  0.1442860E+00
         -2   -1    0    0    0  501 -0.00000000000E+00  0.00000000000E+00  0.72964873699E+01  0.72964873699E+01  0.00000000000E+00 0.  1.
          2   -1    0    0  501    0  0.00000000000E+00 -0.00000000000E+00 -0.87251537030E+02  0.87251537030E+02  0.00000000000E+00 0. -1.
        -11    1    1    2    0    0 -0.32357904619E+01  0.16054781254E+02 -0.75939274642E+02  0.77685260984E+02  0.00000000000E+00 0. -1.
         11    1    1    2    0    0  0.32357904619E+01 -0.16054781254E+02 -0.40157750186E+01  0.16862763416E+02  0.00000000000E+00 0.  1.
<mgrwt>
<rscale>  0 0.50463045E+02</rscale>
<asrwt>0</asrwt>
<pdfrwt beam="2">  1        2 0.13423313E-01 0.50463045E+02</pdfrwt>
<pdfrwt beam="1">  1       -2 0.11225365E-02 0.50463045E+02</pdfrwt>
<totfact> 0.56509324E+05</totfact>
</mgrwt>
</event>
<event>
 4    1  0.1270834E+001  0.1563784E+03  0.7546771E-02  0.1192847E+00
         -1   -1    0    0    0  501 -0.00000000000E+00  0.00000000000E+00  0.11325971091E+03  0.11325971091E+03  0.00000000000E+00 0.  1.
          1   -1    0    0  501    0  0.00000000000E+00 -0.00000000000E+00 -0.53978177808E+02  0.53978177808E+02  0.00000000000E+00 0. -1.
        -13    1    1    2    0    0 -0.91578609831E+01 -0.67151884931E+02 -0.12058078759E+02  0.68837775465E+02  0.00000000000E+00 0. -1.
         13    1    1    2    0    0  0.91578609831E+01  0.67151884931E+02  0.71339611862E+02  0.98400113253E+02  0.00000000000E+00 0.  1.
<mgrwt>
<rscale>  0 0.15637842E+03</rscale>
<asrwt>0</asrwt>
<pdfrwt beam="2">  1        1 0.83043350E-02 0.15637842E+03</pdfrwt>
<pdfrwt beam="1">  1       -1 0.17424571E-01 0.15637842E+03</pdfrwt>
<totfact> 0.19588035E+04</totfact>
</mgrwt>
</event>
<event>
 5    1  0.1270834E+001  0.9530037E+02  0.7546771E-02  0.1290501E+00
          3   -1    0    0  501    0  0.00000000000E+00  0.00000000000E+00  0.26642530330E+03  0.26642530330E+03  0.00000000000E+00 0. -1.
         -3   -1    0    0    0  501 -0.00000000000E+00 -0.00000000000E+00 -0.85222387769E+01  0.85222387769E+01  0.00000000000E+00 0.  1.
         23    2    1    2    0    0  0.00000000000E+00  0.00000000000E+00  0.25790306453E+03  0.27494754208E+03  0.95300368330E+02 0.  0.
        -13    1    3    3    0    0  0.32209271768E+02  0.34877583585E+02  0.14072634476E+03  0.14851864238E+03  0.00000000000E+00 0.  1.
         13    1    3    3    0    0 -0.32209271768E+02 -0.34877583585E+02  0.11717671977E+03  0.12642889970E+03  0.00000000000E+00 0. -1.
<mgrwt>
<rscale>  0 0.95300368E+02</rscale>
<asrwt>0</asrwt>
<pdfrwt beam="1">  1        3 0.40988502E-01 0.95300368E+02</pdfrwt>
<pdfrwt beam="2">  1       -3 0.13111139E-02 0.95300368E+02</pdfrwt>
<totfact> 0.22218884E+04</totfact>
</mgrwt>
</event>
<event>
 5    1  0.1270834E+001  0.9090310E+02  0.7546771E-02  0.1300679E+00
         -1   -1    0    0    0  501 -0.00000000000E+00  0.00000000000E+00  0.13590071445E+03  0.13590071445E+03  0.00000000000E+00 0.  1.
          1   -1    0    0  501    0  0.00000000000E+00 -0.00000000000E+00 -0.15201122611E+02  0.15201122611E+02  0.00000000000E+00 0. -1.
         23    2    1    2    0    0  0.00000000000E+00  0.00000000000E+00  0.12069959184E+03  0.15110183706E+03  0.90903100569E+02 0.  0.
        -11    1    3    3    0    0  0.41659030708E+02  0.11735704597E+02  0.37278800362E+02  0.57121892111E+02  0.00000000000E+00 0. -1.
         11    1    3    3    0    0 -0.41659030708E+02 -0.11735704597E+02  0.83420791480E+02  0.93979944952E+02  0.00000000000E+00 0.  1.
<mgrwt>
<rscale>  0 0.90903101E+02</rscale>
<asrwt>0</asrwt>
<pdfrwt beam="2">  1        1 0.23386343E-02 0.90903101E+02</pdfrwt>
<pdfrwt beam="1">  1       -1 0.20907801E-01 0.90903101E+02</pdfrwt>
<totfact> 0.77081703E+04</totfact>
</mgrwt>
</event>
<event>
 5    1  0.1270834E+001  0.9053064E+02  0.7546771E-02  0.1301572E+00
         -2   -1    0    0    0  501 -0.00000000000E+00  0.00000000000E+00  0.30644909673E+03  0.30644909673E+03  0.00000000000E+00 0.  1.
          2   -1    0    0  501    0  0.00000000000E+00 -0.00000000000E+00 -0.66860995079E+01  0.66860995079E+01  0.00000000000E+00 0. -1.
         23    2    1    2    0    0  0.00000000000E+00  0.00000000000E+00  0.29976299722E+03  0.31313519624E+03  0.90530639119E+02 0.  0.
        -11    1    3    3    0    0  0.43179273180E+02 -0.63528711867E+01  0.19140838657E+03  0.19632111210E+03  0.00000000000E+00 0.  1.
         11    1    3    3    0    0 -0.43179273180E+02  0.63528711867E+01  0.10835461065E+03  0.11681408414E+03  0.00000000000E+00 0. -1.
<mgrwt>
<rscale>  0 0.90530639E+02</rscale>
<asrwt>0</asrwt>
<pdfrwt beam="2">  1        2 0.10286309E-02 0.90530639E+02</pdfrwt>
<pdfrwt beam="1">  1       -2 0.47146004E-01 0.90530639E+02</pdfrwt>
<totfact> 0.51321971E+04</totfact>
</mgrwt>
</event>
<event>
 5    1  0.1270834E+001  0.9188937E+02  0.7546771E-02  0.1298340E+00
         -3   -1    0    0    0  501 -0.00000000000E+00  0.00000000000E+00  0.22073262270E+03  0.22073262270E+03  0.00000000000E+00 0.  1.
          3   -1    0    0  501    0  0.00000000000E+00 -0.00000000000E+00 -0.95632182635E+01  0.95632182635E+01  0.00000000000E+00 0. -1.
         23    2    1    2    0    0  0.00000000000E+00  0.00000000000E+00  0.21116940443E+03  0.23029584096E+03  0.91889373678E+02 0.  0.
        -11    1    3    3    0    0 -0.44196543889E+02 -0.80422150412E+01  0.12974123414E+03  0.13729821394E+03  0.00000000000E+00 0.  1.
         11    1    3    3    0    0  0.44196543889E+02  0.80422150412E+01  0.81428170294E+02  0.92997627023E+02  0.00000000000E+00 0. -1.
<mgrwt>
<rscale>  0 0.91889374E+02</rscale>
<asrwt>0</asrwt>
<pdfrwt beam="2">  1        3 0.14712645E-02 0.91889374E+02</pdfrwt>
<pdfrwt beam="1">  1       -3 0.33958861E-01 0.91889374E+02</pdfrwt>
<totfact> 0.26440212E+04</totfact>
</mgrwt>
</event>
<event>
 5    1  0.1270834E+001  0.9159071E+02  0.7546771E-02  0.1299045E+00
          2   -1    0    0  501    0  0.00000000000E+00  0.00000000000E+00  0.18318205125E+03  0.18318205125E+03  0.00000000000E+00 0. -1.
         -2   -1    0    0    0  501 -0.00000000000E+00 -0.00000000000E+00 -0.11448798995E+02  0.11448798995E+02  0.00000000000E+00 0.  1.
         23    2    1    2    0    0  0.00000000000E+00  0.00000000000E+00  0.17173325225E+03  0.19463085024E+03  0.91590708792E+02 0.  0.
        -11    1    3    3    0    0 -0.15650441140E+02 -0.29439160438E+02  0.15258012123E+03  0.15618032485E+03  0.00000000000E+00 0. -1.
         11    1    3    3    0    0  0.15650441140E+02  0.29439160438E+02  0.19153131024E+02  0.38450525396E+02  0.00000000000E+00 0.  1.
<mgrwt>
<rscale>  0 0.91590709E+02</rscale>
<asrwt>0</asrwt>
<pdfrwt beam="1">  1        2 0.28181852E-01 0.91590709E+02</pdfrwt>
<pdfrwt beam="2">  1       -2 0.17613538E-02 0.91590709E+02</pdfrwt>
<totfact> 0.14805527E+05</totfact>
</mgrwt>
</event>
<event>
 5    1  0.1270834E+001  0.9150462E+02  0.7546771E-02  0.1299248E+00
          1   -1    0    0  501    0  0.00000000000E+00  0.00000000000E+00  0.30554937169E+03  0.30554937169E+03  0.00000000000E+00 0. -1.
         -1   -1    0    0    0  501 -0.00000000000E+00 -0.00000000000E+00 -0.68508531433E+01  0.68508531433E+01  0.00000000000E+00 0.  1.
         23    2    1    2    0    0  0.00000000000E+00  0.00000000000E+00  0.29869851855E+03  0.31240022483E+03  0.91504620068E+02 0.  0.
        -13    1    3    3    0    0 -0.28861029105E+02  0.28966944421E+02  0.21941867237E+03  0.22319631864E+03  0.00000000000E+00 0. -1.
         13    1    3    3    0    0  0.28861029105E+02 -0.28966944421E+02  0.79279846171E+02  0.89203906187E+02  0.00000000000E+00 0.  1.
<mgrwt>
<rscale>  0 0.91504620E+02</rscale>
<asrwt>0</asrwt>
<pdfrwt beam="1">  1        1 0.47007585E-01 0.91504620E+02</pdfrwt>
<pdfrwt beam="2">  1       -1 0.10539776E-02 0.91504620E+02</pdfrwt>
<totfact> 0.12734491E+05</totfact>
</mgrwt>
</event>
<event>
 5    1  0.1270834E+001  0.9208161E+02  0.7546771E-02  0.1297888E+00
         -4   -1    0    0    0  501 -0.00000000000E+00  0.00000000000E+00  0.86053910005E+02  0.86053910005E+02  0.00000000000E+00 0.  1.
          4   -1    0    0  501    0  0.00000000000E+00 -0.00000000000E+00 -0.24632880442E+02  0.24632880442E+02  0.00000000000E+00 0. -1.
         23    2    1    2    0    0  0.00000000000E+00  0.00000000000E+00  0.61421029563E+02  0.11068679045E+03  0.92081608950E+02 0.  0.
        -11    1    3    3    0    0  0.20282493675E+02 -0.58922963604E+01  0.79886845485E+02  0.82631754112E+02  0.00000000000E+00 0.  1.
         11    1    3    3    0    0 -0.20282493675E+02  0.58922963604E+01 -0.18465815922E+02  0.28055036335E+02  0.00000000000E+00 0. -1.
<mgrwt>
<rscale>  0 0.92081609E+02</rscale>
<asrwt>0</asrwt>
<pdfrwt beam="2">  1        4 0.37896740E-02 0.92081609E+02</pdfrwt>
<pdfrwt beam="1">  1       -4 0.13239063E-01 0.92081609E+02</pdfrwt>
<totfact> 0.25129954E+04</totfact>
</mgrwt>
</event>
<event>
 5    1  0.1270834E+001  0.1059393E+03  0.7546771E-02  0.1268280E+00
         -1   -1    0    0    0  501 -0.00000000000E+00  0.00000000000E+00  0.23923260676E+02  0.23923260676E+02  0.00000000000E+00 0.  1.
          1   -1    0    0  501    0  0.00000000000E+00 -0.00000000000E+00 -0.11728267520E+03  0.11728267520E+03  0.00000000000E+00 0. -1.
         23    2    1    2    0    0  0.00000000000E+00  0.00000000000E+00 -0.93359414520E+02  0.14120593587E+03  0.10593930359E+03 0.  0.
        -11    1    3    3    0    0 -0.23565589942E+01  0.45372816654E+02 -0.10383387741E+02  0.46605370960E+02  0.00000000000E+00 0.  1.
         11    1    3    3    0    0  0.23565589942E+01 -0.45372816654E+02 -0.82976026779E+02  0.94600564911E+02  0.00000000000E+00 0. -1.
<mgrwt>
<rscale>  0 0.10593930E+03</rscale>
<asrwt>0</asrwt>
<pdfrwt beam="2">  1        1 0.18043488E-01 0.10593930E+03</pdfrwt>
<pdfrwt beam="1">  1       -1 0.36805017E-02 0.10593930E+03</pdfrwt>
<totfact> 0.71120872E+04</totfact>
</mgrwt>
</event>
<event>
 5    1  0.1270834E+001  0.9134367E+02  0.7546771E-02  0.1299630E+00
          4   -1    0    0  501    0  0.00000000000E+00  0.00000000000E+00  0.30331409554E+03  0.30331409554E+03  0.00000000000E+00 0. -1.
         -4   -1    0    0    0  501 -0.00000000000E+00 -0.00000000000E+00 -0.68770834646E+01  0.68770834646E+01  0.00000000000E+00 0.  1.
         23    2    1    2    0    0  0.00000000000E+00  0.00000000000E+00  0.29643701207E+03  0.31019117900E+03  0.91343666469E+02 0.  0.
        -11    1    3    3    0    0 -0.28971564224E+02 -0.35052223395E+02  0.13384853871E+03  0.14136279997E+03  0.00000000000E+00 0.  1.
         11    1    3    3    0    0  0.28971564224E+02  0.35052223395E+02  0.16258847336E+03  0.16882837904E+03  0.00000000000E+00 0. -1.
<mgrwt>
<rscale>  0 0.91343666E+02</rscale>
<asrwt>0</asrwt>
<pdfrwt beam="1">  1        4 0.46663697E-01 0.91343666E+02</pdfrwt>
<pdfrwt beam="2">  1       -4 0.10580131E-02 0.91343666E+02</pdfrwt>
<totfact> 0.17428727E+04</totfact>
</mgrwt>
</event>
<event>
 5    1  0.1270834E+001  0.9121607E+02  0.7546771E-02  0.1299933E+00
         -2   -1    0    0    0  501 -0.00000000000E+00  0.00000000000E+00  0.19053889386E+03  0.19053889386E+03  0.00000000000E+00 0.  1.
          2   -1    0    0  501    0  0.00000000000E+00 -0.00000000000E+00 -0.10916894834E+02  0.10916894834E+02  0.00000000000E+00 0. -1.
         23    2    1    2    0    0  0.00000000000E+00  0.00000000000E+00  0.17962199902E+03  0.20145578869E+03  0.91216074590E+02 0.  0.
        -11    1    3    3    0    0 -0.29465392161E+02 -0.23265885845E+02  0.14700288453E+03  0.15172131966E+03  0.00000000000E+00 0.  1.
         11    1    3    3    0    0  0.29465392161E+02  0.23265885845E+02  0.32619114493E+02  0.49734469030E+02  0.00000000000E+00 0. -1.
<mgrwt>
<rscale>  0 0.91216075E+02</rscale>
<asrwt>0</asrwt>
<pdfrwt beam="2">  1        2 0.16795224E-02 0.91216075E+02</pdfrwt>
<pdfrwt beam="1">  1       -2 0.29313674E-01 0.91216075E+02</pdfrwt>
<totfact> 0.63551028E+04</totfact>
</mgrwt>
</event>
<event>
 5    1  0.1270834E+001  0.9147037E+02  0.7546771E-02  0.1299330E+00
          4   -1    0    0  501    0  0.00000000000E+00  0.00000000000E+00  0.48399987435E+03  0.48399987435E+03  0.00000000000E+00 0. -1.
         -4   -1    0    0    0  501 -0.00000000000E+00 -0.00000000000E+00 -0.43217104267E+01  0.43217104267E+01  0.00000000000E+00 0.  1.
         23    2    1    2    0    0  0.00000000000E+00  0.00000000000E+00  0.47967816393E+03  0.48832158478E+03  0.91470373422E+02 0.  0.
        -13    1    3    3    0    0 -0.39314306343E+02  0.22689237806E+02  0.26970225430E+03  0.27349537870E+03  0.00000000000E+00 0.  1.
         13    1    3    3    0    0  0.39314306343E+02 -0.22689237806E+02  0.20997590962E+03  0.21482620608E+03  0.00000000000E+00 0. -1.
<mgrwt>
<rscale>  0 0.91470373E+02</rscale>
<asrwt>0</asrwt>
<pdfrwt beam="1">  1        4 0.74461476E-01 0.91470373E+02</pdfrwt>
<pdfrwt beam="2">  1       -4 0.66487891E-03 0.91470373E+02</pdfrwt>
<totfact> 0.13176844E+04</totfact>
</mgrwt>
</event>
<event>
 5    1  0.1270834E+001  0.9030458E+02  0.7546771E-02  0.1302116E+00
         -4   -1    0    0    0  501 -0.00000000000E+00  0.00000000000E+00  0.92114423299E+02  0.92114423299E+02  0.00000000000E+00 0.  1.
          4   -1    0    0  501    0  0.00000000000E+00 -0.00000000000E+00 -0.22132571896E+02  0.22132571896E+02  0.00000000000E+00 0. -1.
         23    2    1    2    0    0  0.00000000000E+00  0.00000000000E+00  0.69981851403E+02  0.11424699520E+03  0.90304575662E+02 0.  0.
        -13    1    3    3    0    0  0.13859697609E+02 -0.42555234665E+02  0.27432913630E+02  0.52493846929E+02  0.00000000000E+00 0.  1.
         13    1    3    3    0    0 -0.13859697609E+02  0.42555234665E+02  0.42548937773E+02  0.61753148266E+02  0.00000000000E+00 0. -1.
<mgrwt>
<rscale>  0 0.90304576E+02</rscale>
<asrwt>0</asrwt>
<pdfrwt beam="2">  1        4 0.34050111E-02 0.90304576E+02</pdfrwt>
<pdfrwt beam="1">  1       -4 0.14171450E-01 0.90304576E+02</pdfrwt>
<totfact> 0.26275906E+04</totfact>
</mgrwt>
</event>
<event>
 5    1  0.1270834E+001  0.9028714E+02  0.7546771E-02  0.1302158E+00
         -1   -1    0    0    0  501 -0.00000000000E+00  0.00000000000E+00  0.59290161871E+01  0.59290161871E+01  0.00000000000E+00 0.  1.
          1   -1    0    0  501    0  0.00000000000E+00 -0.00000000000E+00 -0.34372345824E+03  0.34372345824E+03  0.00000000000E+00 0. -1.
         23    2    1    2    0    0  0.00000000000E+00  0.00000000000E+00 -0.33779444205E+03  0.34965247443E+03  0.90287140785E+02 0.  0.
        -11    1    3    3    0    0  0.36752582575E+02 -0.25316268864E+02 -0.14255275935E+03  0.14937521546E+03  0.00000000000E+00 0.  1.
         11    1    3    3    0    0 -0.36752582575E+02  0.25316268864E+02 -0.19524168270E+03  0.20027725896E+03  0.00000000000E+00 0. -1.
<mgrwt>
<rscale>  0 0.90287141E+02</rscale>
<asrwt>0</asrwt>
<pdfrwt beam="2">  1        1 0.52880544E-01 0.90287141E+02</pdfrwt>
<pdfrwt beam="1">  1       -1 0.91215614E-03 0.90287141E+02</pdfrwt>
<totfact> 0.13487418E+05</totfact>
</mgrwt>
</event>
<event>
 5    1  0.1270834E+001  0.9277377E+02  0.7546771E-02  0.1296270E+00
         -1   -1    0    0    0  501 -0.00000000000E+00  0.00000000000E+00  0.12703759398E+03  0.12703759398E+03  0.00000000000E+00 0.  1.
          1   -1    0    0  501    0  0.00000000000E+00 -0.00000000000E+00 -0.16937845407E+02  0.16937845407E+02  0.00000000000E+00 0. -1.
         23    2    1    2    0    0  0.00000000000E+00  0.00000000000E+00  0.11009974857E+03  0.14397543938E+03  0.92773770596E+02 0.  0.
        -13    1    3    3    0    0 -0.32213656882E+02  0.31806244257E+02  0.39346822850E+02  0.59979407565E+02  0.00000000000E+00 0.  1.
         13    1    3    3    0    0  0.32213656882E+02 -0.31806244257E+02  0.70752925718E+02  0.83996031817E+02  0.00000000000E+00 0. -1.
<mgrwt>
<rscale>  0 0.92773771E+02</rscale>
<asrwt>0</asrwt>
<pdfrwt beam="2">  1        1 0.26058225E-02 0.92773771E+02</pdfrwt>
<pdfrwt beam="1">  1       -1 0.19544245E-01 0.92773771E+02</pdfrwt>
<totfact> 0.74190497E+04</totfact>
</mgrwt>
</event>
<event>
 5    1  0.1270834E+001  0.9044877E+02  0.7546771E-02  0.1301769E+00
         -1   -1    0    0    0  501 -0.00000000000E+00  0.00000000000E+00  0.66979569018E+02  0.66979569018E+02  0.00000000000E+00 0.  1.
          1   -1    0    0  501    0  0.00000000000E+00 -0.00000000000E+00 -0.30535357158E+02  0.30535357158E+02  0.00000000000E+00 0. -1.
         23    2    1    2    0    0  0.00000000000E+00  0.00000000000E+00  0.36444211860E+02  0.97514926176E+02  0.90448771407E+02 0.  0.
        -11    1    3    3    0    0  0.37893574479E+02 -0.22374994243E+02  0.29461597137E+02  0.52957993354E+02  0.00000000000E+00 0.  1.
         11    1    3    3    0    0 -0.37893574479E+02  0.22374994243E+02  0.69826147229E+01  0.44556932823E+02  0.00000000000E+00 0. -1.
<mgrwt>
<rscale>  0 0.90448771E+02</rscale>
<asrwt>0</asrwt>
<pdfrwt beam="2">  1        1 0.46977473E-02 0.90448771E+02</pdfrwt>
<pdfrwt beam="1">  1       -1 0.10304549E-01 0.90448771E+02</pdfrwt>
<totfact> 0.88950739E+04</totfact>
</mgrwt>
</event>
<event>
 5    1  0.1270834E+001  0.9166040E+02  0.7546771E-02  0.1298880E+00
          1   -1    0    0  501    0  0.00000000000E+00  0.00000000000E+00  0.27964244105E+02  0.27964244105E+02  0.00000000000E+00 0. -1.
         -1   -1    0    0    0  501 -0.00000000000E+00 -0.00000000000E+00 -0.75110455056E+02  0.75110455056E+02  0.00000000000E+00 0.  1.
         23    2    1    2    0    0  0.00000000000E+00  0.00000000000E+00 -0.47146210950E+02  0.10307469916E+03  0.91660397120E+02 0.  0.
        -13    1    3    3    0    0  0.21065579480E+02 -0.14065283634E+02 -0.66523844290E+02  0.71182952324E+02  0.00000000000E+00 0.  1.
         13    1    3    3    0    0 -0.21065579480E+02  0.14065283634E+02  0.19377633339E+02  0.31891746837E+02  0.00000000000E+00 0. -1.
<mgrwt>
<rscale>  0 0.91660397E+02</rscale>
<asrwt>0</asrwt>
<pdfrwt beam="1">  1        1 0.43021914E-02 0.91660397E+02</pdfrwt>
<pdfrwt beam="2">  1       -1 0.11555455E-01 0.91660397E+02</pdfrwt>
<totfact> 0.84398308E+04</totfact>
</mgrwt>
</event>
<event>
 5    1  0.1270834E+001  0.9191523E+02  0.7546771E-02  0.1298279E+00
          1   -1    0    0  501    0  0.00000000000E+00  0.00000000000E+00  0.14656386041E+03  0.14656386041E+03  0.00000000000E+00 0. -1.
         -1   -1    0    0    0  501 -0.00000000000E+00 -0.00000000000E+00 -0.14410799434E+02  0.14410799434E+02  0.00000000000E+00 0.  1.
         23    2    1    2    0    0  0.00000000000E+00  0.00000000000E+00  0.13215306098E+03  0.16097465985E+03  0.91915230440E+02 0.  0.
        -13    1    3    3    0    0 -0.35711317523E+02 -0.15715883108E+02  0.23543334068E+02  0.45569460828E+02  0.00000000000E+00 0. -1.
         13    1    3    3    0    0  0.35711317523E+02  0.15715883108E+02  0.10860972691E+03  0.11540519902E+03  0.00000000000E+00 0.  1.
<mgrwt>
<rscale>  0 0.91915230E+02</rscale>
<asrwt>0</asrwt>
<pdfrwt beam="1">  1        1 0.22548285E-01 0.91915230E+02</pdfrwt>
<pdfrwt beam="2">  1       -1 0.22170462E-02 0.91915230E+02</pdfrwt>
<totfact> 0.10924935E+05</totfact>
</mgrwt>
</event>
<event>
 4    1  0.1270834E+001  0.1331672E+03  0.7546771E-02  0.1222830E+00
          1   -1    0    0  501    0  0.00000000000E+00  0.00000000000E+00  0.72813273452E+02  0.72813273452E+02  0.00000000000E+00 0. -1.
         -1   -1    0    0    0  501 -0.00000000000E+00 -0.00000000000E+00 -0.60886946737E+02  0.60886946737E+02  0.00000000000E+00 0.  1.
        -11    1    1    2    0    0 -0.38454831268E+02 -0.26470786823E+02 -0.41702122036E+02  0.62598271423E+02  0.00000000000E+00 0.  1.
         11    1    1    2    0    0  0.38454831268E+02  0.26470786823E+02  0.53628448751E+02  0.71101948766E+02  0.00000000000E+00 0. -1.
<mgrwt>
<rscale>  0 0.13316723E+03</rscale>
<asrwt>0</asrwt>
<pdfrwt beam="1">  1        1 0.11202042E-01 0.13316723E+03</pdfrwt>
<pdfrwt beam="2">  1       -1 0.93672226E-02 0.13316723E+03</pdfrwt>
<totfact> 0.33905669E+04</totfact>
</mgrwt>
</event>
<event>
 5    1  0.1270834E+001  0.9049438E+02  0.7546771E-02  0.1301659E+00
         -1   -1    0    0    0  501 -0.00000000000E+00  0.00000000000E+00  0.60828654932E+02  0.60828654932E+02  0.00000000000E+00 0.  1.
          1   -1    0    0  501    0  0.00000000000E+00 -0.00000000000E+00 -0.33656969791E+02  0.33656969791E+02  0.00000000000E+00 0. -1.
         23    2    1    2    0    0  0.00000000000E+00  0.00000000000E+00  0.27171685141E+02  0.94485624723E+02  0.90494379969E+02 0.  0.
        -13    1    3    3    0    0 -0.21506125408E+02 -0.57802602168E+01  0.54710632738E+02  0.59069265890E+02  0.00000000000E+00 0.  1.
         13    1    3    3    0    0  0.21506125408E+02  0.57802602168E+01 -0.27538947597E+02  0.35416358833E+02  0.00000000000E+00 0. -1.
<mgrwt>
<rscale>  0 0.90494380E+02</rscale>
<asrwt>0</asrwt>
<pdfrwt beam="2">  1        1 0.51779953E-02 0.90494380E+02</pdfrwt>
<pdfrwt beam="1">  1       -1 0.93582546E-02 0.90494380E+02</pdfrwt>
<totfact> 0.90192551E+04</totfact>
</mgrwt>
</event>
<event>
 5    1  0.1270834E+001  0.1051500E+03  0.7546771E-02  0.1269824E+00
         -1   -1    0    0    0  501 -0.00000000000E+00  0.00000000000E+00  0.34525193372E+02  0.34525193372E+02  0.00000000000E+00 0.  1.
          1   -1    0    0  501    0  0.00000000000E+00 -0.00000000000E+00 -0.80061258696E+02  0.80061258696E+02  0.00000000000E+00 0. -1.
         23    2    1    2    0    0  0.00000000000E+00  0.00000000000E+00 -0.45536065324E+02  0.11458645207E+03  0.10514999644E+03 0.  0.
        -11    1    3    3    0    0  0.43379823950E+02 -0.29701570779E+02 -0.23172862036E+02  0.57454103140E+02  0.00000000000E+00 0.  1.
         11    1    3    3    0    0 -0.43379823950E+02  0.29701570779E+02 -0.22363203288E+02  0.57132348928E+02  0.00000000000E+00 0. -1.
<mgrwt>
<rscale>  0 0.10515000E+03</rscale>
<asrwt>0</asrwt>
<pdfrwt beam="2">  1        1 0.12317117E-01 0.10515000E+03</pdfrwt>
<pdfrwt beam="1">  1       -1 0.53115682E-02 0.10515000E+03</pdfrwt>
<totfact> 0.67839848E+04</totfact>
</mgrwt>
</event>
<event>
 5    1  0.1270834E+001  0.9320370E+02  0.7546771E-02  0.1295274E+00
          1   -1    0    0  501    0  0.00000000000E+00  0.00000000000E+00  0.97378461550E+02  0.97378461550E+02  0.00000000000E+00 0. -1.
         -1   -1    0    0    0  501 -0.00000000000E+00 -0.00000000000E+00 -0.22301977493E+02  0.22301977493E+02  0.00000000000E+00 0.  1.
         23    2    1    2    0    0  0.00000000000E+00  0.00000000000E+00  0.75076484058E+02  0.11968043904E+03  0.93203696445E+02 0.  0.
        -11    1    3    3    0    0 -0.95676734915E+00 -0.29011722053E+02 -0.92756645757E+01  0.30473486403E+02  0.00000000000E+00 0.  1.
         11    1    3    3    0    0  0.95676734915E+00  0.29011722053E+02  0.84352148633E+02  0.89206952640E+02  0.00000000000E+00 0. -1.
<mgrwt>
<rscale>  0 0.93203696E+02</rscale>
<asrwt>0</asrwt>
<pdfrwt beam="1">  1        1 0.14981301E-01 0.93203696E+02</pdfrwt>
<pdfrwt beam="2">  1       -1 0.34310735E-02 0.93203696E+02</pdfrwt>
<totfact> 0.97924793E+04</totfact>
</mgrwt>
</event>
<event>
 5    1  0.1270834E+001  0.1077144E+03  0.7546771E-02  0.1264862E+00
          3   -1    0    0  501    0  0.00000000000E+00  0.00000000000E+00  0.44234540355E+03  0.44234540355E+03  0.00000000000E+00 0. -1.
         -3   -1    0    0    0  501 -0.00000000000E+00 -0.00000000000E+00 -0.65573156056E+01  0.65573156056E+01  0.00000000000E+00 0.  1.
         23    2    1    2    0    0  0.00000000000E+00  0.00000000000E+00  0.43578808795E+03  0.44890271916E+03  0.10771440791E+03 0.  0.
        -13    1    3    3    0    0 -0.49518170478E+02  0.99456671345E+01  0.13996764756E+03  0.14880157212E+03  0.00000000000E+00 0.  1.
         13    1    3    3    0    0  0.49518170478E+02 -0.99456671345E+01  0.29582044039E+03  0.30010114704E+03  0.00000000000E+00 0. -1.
<mgrwt>
<rscale>  0 0.10771441E+03</rscale>
<asrwt>0</asrwt>
<pdfrwt beam="1">  1        3 0.68053116E-01 0.10771441E+03</pdfrwt>
<pdfrwt beam="2">  1       -3 0.10088181E-02 0.10771441E+03</pdfrwt>
<totfact> 0.12258312E+04</totfact>
</mgrwt>
</event>
<event>
 5    1  0.1270834E+001  0.9388047E+02  0.7546771E-02  0.1293718E+00
         -2   -1    0    0    0  501 -0.00000000000E+00  0.00000000000E+00  0.12026467239E+03  0.12026467239E+03  0.00000000000E+00 0.  1.
          2   -1    0    0  501    0  0.00000000000E+00 -0.00000000000E+00 -0.18321137836E+02  0.18321137836E+02  0.00000000000E+00 0. -1.
         23    2    1    2    0    0  0.00000000000E+00  0.00000000000E+00  0.10194353456E+03  0.13858581023E+03  0.93880469529E+02 0.  0.
        -13    1    3    3    0    0  0.38588776391E+02 -0.23763157549E+02  0.69027519198E+02  0.82574691805E+02  0.00000000000E+00 0.  1.
         13    1    3    3    0    0 -0.38588776391E+02  0.23763157549E+02  0.32916015361E+02  0.56011118426E+02  0.00000000000E+00 0. -1.
<mgrwt>
<rscale>  0 0.93880470E+02</rscale>
<asrwt>0</asrwt>
<pdfrwt beam="2">  1        2 0.28186367E-02 0.93880470E+02</pdfrwt>
<pdfrwt beam="1">  1       -2 0.18502257E-01 0.93880470E+02</pdfrwt>
<totfact> 0.70029510E+04</totfact>
</mgrwt>
</event>
<event>
 5    1  0.1270834E+001  0.7789403E+02  0.7546771E-02  0.1335136E+00
         -2   -1    0    0    0  501 -0.00000000000E+00  0.00000000000E+00  0.68901650112E+02  0.68901650112E+02  0.00000000000E+00 0. -1.
          2   -1    0    0  501    0  0.00000000000E+00 -0.00000000000E+00 -0.22015003725E+02  0.22015003725E+02  0.00000000000E+00 0.  1.
         23    2    1    2    0    0  0.00000000000E+00  0.00000000000E+00  0.46886646387E+02  0.90916653837E+02  0.77894032733E+02 0.  0.
        -13    1    3    3    0    0  0.15263427292E+02  0.35780238088E+02  0.25680066904E+02  0.46611838481E+02  0.00000000000E+00 0.  1.
         13    1    3    3    0    0 -0.15263427292E+02 -0.35780238088E+02  0.21206579483E+02  0.44304815356E+02  0.00000000000E+00 0. -1.
<mgrwt>
<rscale>  0 0.77894033E+02</rscale>
<asrwt>0</asrwt>
<pdfrwt beam="2">  1        2 0.33869237E-02 0.77894033E+02</pdfrwt>
<pdfrwt beam="1">  1       -2 0.10600254E-01 0.77894033E+02</pdfrwt>
<totfact> 0.13010042E+05</totfact>
</mgrwt>
</event>
<event>
 5    1  0.1270834E+001  0.9254322E+02  0.7546771E-02  0.1296807E+00
         -2   -1    0    0    0  501 -0.00000000000E+00  0.00000000000E+00  0.21236213754E+02  0.21236213754E+02  0.00000000000E+00 0.  1.
          2   -1    0    0  501    0  0.00000000000E+00 -0.00000000000E+00 -0.10082127338E+03  0.10082127338E+03  0.00000000000E+00 0. -1.
         23    2    1    2    0    0  0.00000000000E+00  0.00000000000E+00 -0.79585059627E+02  0.12205748714E+03  0.92543224765E+02 0.  0.
        -13    1    3    3    0    0 -0.41628587479E+02 -0.20202018592E+02 -0.39745679357E+02  0.60998195696E+02  0.00000000000E+00 0.  1.
         13    1    3    3    0    0  0.41628587479E+02  0.20202018592E+02 -0.39839380270E+02  0.61059291439E+02  0.00000000000E+00 0. -1.
<mgrwt>
<rscale>  0 0.92543225E+02</rscale>
<asrwt>0</asrwt>
<pdfrwt beam="2">  1        2 0.15510965E-01 0.92543225E+02</pdfrwt>
<pdfrwt beam="1">  1       -2 0.32671098E-02 0.92543225E+02</pdfrwt>
<totfact> 0.11803989E+05</totfact>
</mgrwt>
</event>
<event>
 5    1  0.1270834E+001  0.9090362E+02  0.7546771E-02  0.1300678E+00
         -1   -1    0    0    0  501 -0.00000000000E+00  0.00000000000E+00  0.54212316872E+02  0.54212316872E+02  0.00000000000E+00 0.  1.
          1   -1    0    0  501    0  0.00000000000E+00 -0.00000000000E+00 -0.38106965223E+02  0.38106965223E+02  0.00000000000E+00 0. -1.
         23    2    1    2    0    0  0.00000000000E+00  0.00000000000E+00  0.16105351649E+02  0.92319282094E+02  0.90903616510E+02 0.  0.
        -13    1    3    3    0    0 -0.29402684775E+02 -0.22686243561E+02  0.34665411299E+02  0.50802305650E+02  0.00000000000E+00 0. -1.
         13    1    3    3    0    0  0.29402684775E+02  0.22686243561E+02 -0.18560059650E+02  0.41516976444E+02  0.00000000000E+00 0.  1.
<mgrwt>
<rscale>  0 0.90903617E+02</rscale>
<asrwt>0</asrwt>
<pdfrwt beam="2">  1        1 0.58626100E-02 0.90903617E+02</pdfrwt>
<pdfrwt beam="1">  1       -1 0.83403564E-02 0.90903617E+02</pdfrwt>
<totfact> 0.90763870E+04</totfact>
</mgrwt>
</event>
<event>
 5    1  0.1270834E+001  0.1084344E+03  0.7546771E-02  0.1263497E+00
          3   -1    0    0  501    0  0.00000000000E+00  0.00000000000E+00  0.91627076644E+02  0.91627076644E+02  0.00000000000E+00 0. -1.
         -3   -1    0    0    0  501 -0.00000000000E+00 -0.00000000000E+00 -0.32081172757E+02  0.32081172757E+02  0.00000000000E+00 0.  1.
         23    2    1    2    0    0  0.00000000000E+00  0.00000000000E+00  0.59545903887E+02  0.12370824940E+03  0.10843438707E+03 0.  0.
        -13    1    3    3    0    0  0.45752689058E+02 -0.15670336507E+01  0.62911687402E+02  0.77805170537E+02  0.00000000000E+00 0. -1.
         13    1    3    3    0    0 -0.45752689058E+02  0.15670336507E+01 -0.33657835151E+01  0.45903078864E+02  0.00000000000E+00 0.  1.
<mgrwt>
<rscale>  0 0.10843439E+03</rscale>
<asrwt>0</asrwt>
<pdfrwt beam="1">  1        3 0.14096473E-01 0.10843439E+03</pdfrwt>
<pdfrwt beam="2">  1       -3 0.49355651E-02 0.10843439E+03</pdfrwt>
<totfact> 0.20503015E+04</totfact>
</mgrwt>
</event>
<event>
 5    1  0.1270834E+001  0.9221442E+02  0.7546771E-02  0.1297576E+00
          2   -1    0    0  501    0  0.00000000000E+00  0.00000000000E+00  0.17152669495E+03  0.17152669495E+03  0.00000000000E+00 0. -1.
         -2   -1    0    0    0  501 -0.00000000000E+00 -0.00000000000E+00 -0.12393842973E+02  0.12393842973E+02  0.00000000000E+00 0.  1.
         23    2    1    2    0    0  0.00000000000E+00  0.00000000000E+00  0.15913285197E+03  0.18392053792E+03  0.92214422363E+02 0.  0.
        -13    1    3    3    0    0 -0.72395657425E+01 -0.33930333081E+02  0.14013439636E+03  0.14436525849E+03  0.00000000000E+00 0. -1.
         13    1    3    3    0    0  0.72395657425E+01  0.33930333081E+02  0.18998455609E+02  0.39555279428E+02  0.00000000000E+00 0.  1.
<mgrwt>
<rscale>  0 0.92214422E+02</rscale>
<asrwt>0</asrwt>
<pdfrwt beam="1">  1        2 0.26388720E-01 0.92214422E+02</pdfrwt>
<pdfrwt beam="2">  1       -2 0.19067452E-02 0.92214422E+02</pdfrwt>
<totfact> 0.14201781E+05</totfact>
</mgrwt>
</event>
<event>
 5    1  0.1270834E+001  0.8500652E+02  0.7546771E-02  0.1315415E+00
         -1   -1    0    0    0  501 -0.00000000000E+00  0.00000000000E+00  0.12873514070E+02  0.12873514070E+02  0.00000000000E+00 0.  1.
          1   -1    0    0  501    0  0.00000000000E+00 -0.00000000000E+00 -0.14032897299E+03  0.14032897299E+03  0.00000000000E+00 0. -1.
         23    2    1    2    0    0  0.00000000000E+00  0.00000000000E+00 -0.12745545892E+03  0.15320248706E+03  0.85006517590E+02 0.  0.
        -13    1    3    3    0    0 -0.26788924759E+02 -0.19584043514E+01 -0.43617688264E+01  0.27212255780E+02  0.00000000000E+00 0.  1.
         13    1    3    3    0    0  0.26788924759E+02  0.19584043514E+01 -0.12309369009E+03  0.12599023128E+03  0.00000000000E+00 0. -1.
<mgrwt>
<rscale>  0 0.85006518E+02</rscale>
<asrwt>0</asrwt>
<pdfrwt beam="2">  1        1 0.21589072E-01 0.85006518E+02</pdfrwt>
<pdfrwt beam="1">  1       -1 0.19805407E-02 0.85006518E+02</pdfrwt>
<totfact> 0.13374483E+05</totfact>
</mgrwt>
</event>
<event>
 5    1  0.1270834E+001  0.9141623E+02  0.7546771E-02  0.1299458E+00
         -1   -1    0    0    0  501 -0.00000000000E+00  0.00000000000E+00  0.84937898223E+02  0.84937898223E+02  0.00000000000E+00 0.  1.
          1   -1    0    0  501    0  0.00000000000E+00 -0.00000000000E+00 -0.24597170112E+02  0.24597170112E+02  0.00000000000E+00 0. -1.
         23    2    1    2    0    0  0.00000000000E+00  0.00000000000E+00  0.60340728111E+02  0.10953506834E+03  0.91416233384E+02 0.  0.
        -13    1    3    3    0    0  0.10802253231E+02  0.87080706216E+01 -0.22012828266E+02  0.26020833520E+02  0.00000000000E+00 0. -1.
         13    1    3    3    0    0 -0.10802253231E+02 -0.87080706216E+01  0.82353556377E+02  0.83514234815E+02  0.00000000000E+00 0.  1.
<mgrwt>
<rscale>  0 0.91416233E+02</rscale>
<asrwt>0</asrwt>
<pdfrwt beam="2">  1        1 0.37841801E-02 0.91416233E+02</pdfrwt>
<pdfrwt beam="1">  1       -1 0.13067369E-01 0.91416233E+02</pdfrwt>
<totfact> 0.83225764E+04</totfact>
</mgrwt>
</event>
<event>
 5    1  0.1270834E+001  0.9147257E+02  0.7546771E-02  0.1299324E+00
         -4   -1    0    0    0  501 -0.00000000000E+00  0.00000000000E+00  0.34647794007E+03  0.34647794007E+03  0.00000000000E+00 0.  1.
          4   -1    0    0  501    0  0.00000000000E+00 -0.00000000000E+00 -0.60373471005E+01  0.60373471005E+01  0.00000000000E+00 0. -1.
         23    2    1    2    0    0  0.00000000000E+00  0.00000000000E+00  0.34044059297E+03  0.35251528717E+03  0.91472566092E+02 0.  0.
        -11    1    3    3    0    0  0.18925422298E+02  0.41607266522E+02  0.17627864487E+03  0.18210847557E+03  0.00000000000E+00 0. -1.
         11    1    3    3    0    0 -0.18925422298E+02 -0.41607266522E+02  0.16416194810E+03  0.17040681160E+03  0.00000000000E+00 0.  1.
<mgrwt>
<rscale>  0 0.91472566E+02</rscale>
<asrwt>0</asrwt>
<pdfrwt beam="2">  1        4 0.92882290E-03 0.91472566E+02</pdfrwt>
<pdfrwt beam="1">  1       -4 0.53304283E-01 0.91472566E+02</pdfrwt>
<totfact> 0.16190067E+04</totfact>
</mgrwt>
</event>
<event>
 5    1  0.1270834E+001  0.9149256E+02  0.7546771E-02  0.1299277E+00
         -2   -1    0    0    0  501 -0.00000000000E+00  0.00000000000E+00  0.18581463117E+02  0.18581463117E+02  0.00000000000E+00 0.  1.
          2   -1    0    0  501    0  0.00000000000E+00 -0.00000000000E+00 -0.11262418579E+03  0.11262418579E+03  0.00000000000E+00 0. -1.
         23    2    1    2    0    0  0.00000000000E+00  0.00000000000E+00 -0.94042722676E+02  0.13120564891E+03  0.91492560448E+02 0.  0.
        -13    1    3    3    0    0 -0.39237016890E+02 -0.22774649984E+02 -0.38598912283E+02  0.59565965163E+02  0.00000000000E+00 0. -1.
         13    1    3    3    0    0  0.39237016890E+02  0.22774649984E+02 -0.55443810392E+02  0.71639683746E+02  0.00000000000E+00 0.  1.
<mgrwt>
<rscale>  0 0.91492560E+02</rscale>
<asrwt>0</asrwt>
<pdfrwt beam="2">  1        2 0.17326798E-01 0.91492560E+02</pdfrwt>
<pdfrwt beam="1">  1       -2 0.28586867E-02 0.91492560E+02</pdfrwt>
<totfact> 0.12607422E+05</totfact>
</mgrwt>
</event>
<event>
 5    1  0.1270834E+001  0.1114914E+03  0.7546771E-02  0.1257833E+00
         -2   -1    0    0    0  501 -0.00000000000E+00  0.00000000000E+00  0.32132665002E+02  0.32132665002E+02  0.00000000000E+00 0.  1.
          2   -1    0    0  501    0  0.00000000000E+00 -0.00000000000E+00 -0.96711062369E+02  0.96711062369E+02  0.00000000000E+00 0. -1.
         23    2    1    2    0    0  0.00000000000E+00  0.00000000000E+00 -0.64578397367E+02  0.12884372737E+03  0.11149141974E+03 0.  0.
        -11    1    3    3    0    0 -0.64988368246E+01 -0.39938892414E+02  0.12022162298E+02  0.42212348829E+02  0.00000000000E+00 0.  1.
         11    1    3    3    0    0  0.64988368246E+01  0.39938892414E+02 -0.76600559664E+02  0.86631378543E+02  0.00000000000E+00 0. -1.
<mgrwt>
<rscale>  0 0.11149142E+03</rscale>
<asrwt>0</asrwt>
<pdfrwt beam="2">  1        2 0.14878625E-01 0.11149142E+03</pdfrwt>
<pdfrwt beam="1">  1       -2 0.49434870E-02 0.11149142E+03</pdfrwt>
<totfact> 0.69123906E+04</totfact>
</mgrwt>
</event>
<event>
 5    1  0.1270834E+001  0.9016989E+02  0.7546771E-02  0.1302441E+00
          2   -1    0    0  501    0  0.00000000000E+00  0.00000000000E+00  0.21267202227E+03  0.21267202227E+03  0.00000000000E+00 0. -1.
         -2   -1    0    0    0  501 -0.00000000000E+00 -0.00000000000E+00 -0.95576856030E+01  0.95576856030E+01  0.00000000000E+00 0.  1.
         23    2    1    2    0    0  0.00000000000E+00  0.00000000000E+00  0.20311433667E+03  0.22222970788E+03  0.90169891326E+02 0.  0.
        -11    1    3    3    0    0 -0.38601363078E+02  0.18932071594E+02  0.13500305045E+03  0.14168384593E+03  0.00000000000E+00 0. -1.
         11    1    3    3    0    0  0.38601363078E+02 -0.18932071594E+02  0.68111286221E+02  0.80545861948E+02  0.00000000000E+00 0.  1.
<mgrwt>
<rscale>  0 0.90169891E+02</rscale>
<asrwt>0</asrwt>
<pdfrwt beam="1">  1        2 0.32718769E-01 0.90169891E+02</pdfrwt>
<pdfrwt beam="2">  1       -2 0.14704133E-02 0.90169891E+02</pdfrwt>
<totfact> 0.16295720E+05</totfact>
</mgrwt>
</event>
<event>
 5    1  0.1270834E+001  0.9103535E+02  0.7546771E-02  0.1300364E+00
          4   -1    0    0  501    0  0.00000000000E+00  0.00000000000E+00  0.35285733610E+02  0.35285733610E+02  0.00000000000E+00 0. -1.
         -4   -1    0    0    0  501 -0.00000000000E+00 -0.00000000000E+00 -0.58716611675E+02  0.58716611675E+02  0.00000000000E+00 0.  1.
         23    2    1    2    0    0  0.00000000000E+00  0.00000000000E+00 -0.23430878065E+02  0.94002345285E+02  0.91035349575E+02 0.  0.
        -13    1    3    3    0    0  0.24324704779E+02  0.32130800276E+02  0.10135019167E+02  0.41554761490E+02  0.00000000000E+00 0. -1.
         13    1    3    3    0    0 -0.24324704779E+02 -0.32130800276E+02 -0.33565897232E+02  0.52447583795E+02  0.00000000000E+00 0.  1.
<mgrwt>
<rscale>  0 0.91035350E+02</rscale>
<asrwt>0</asrwt>
<pdfrwt beam="1">  1        4 0.54285744E-02 0.91035350E+02</pdfrwt>
<pdfrwt beam="2">  1       -4 0.90333249E-02 0.91035350E+02</pdfrwt>
<totfact> 0.26948951E+04</totfact>
</mgrwt>
</event>
<event>
 5    1  0.1270834E+001  0.9093274E+02  0.7546771E-02  0.1300609E+00
          2   -1    0    0  501    0  0.00000000000E+00  0.00000000000E+00  0.20881012829E+03  0.20881012829E+03  0.00000000000E+00 0. -1.
         -2   -1    0    0    0  501 -0.00000000000E+00 -0.00000000000E+00 -0.98998592117E+01  0.98998592117E+01  0.00000000000E+00 0.  1.
         23    2    1    2    0    0  0.00000000000E+00  0.00000000000E+00  0.19891026908E+03  0.21870998750E+03  0.90932741563E+02 0.  0.
        -11    1    3    3    0    0  0.94486540715E+01  0.44144569739E+02  0.11244552735E+03  0.12116937204E+03  0.00000000000E+00 0. -1.
         11    1    3    3    0    0 -0.94486540715E+01 -0.44144569739E+02  0.86464741729E+02  0.97540615456E+02  0.00000000000E+00 0.  1.
<mgrwt>
<rscale>  0 0.90932742E+02</rscale>
<asrwt>0</asrwt>
<pdfrwt beam="1">  1        2 0.32124632E-01 0.90932742E+02</pdfrwt>
<pdfrwt beam="2">  1       -2 0.15230554E-02 0.90932742E+02</pdfrwt>
<totfact> 0.15825433E+05</totfact>
</mgrwt>
</event>
<event>
 5    1  0.1270834E+001  0.8951871E+02  0.7546771E-02  0.1304021E+00
         -1   -1    0    0    0  501 -0.00000000000E+00  0.00000000000E+00  0.36724169525E+02  0.36724169525E+02  0.00000000000E+00 0.  1.
          1   -1    0    0  501    0  0.00000000000E+00 -0.00000000000E+00 -0.54552628838E+02  0.54552628838E+02  0.00000000000E+00 0. -1.
         23    2    1    2    0    0  0.00000000000E+00  0.00000000000E+00 -0.17828459313E+02  0.91276798363E+02  0.89518712892E+02 0.  0.
        -11    1    3    3    0    0  0.46576544089E+01  0.33878559885E+02 -0.38359559652E+02  0.51389749768E+02  0.00000000000E+00 0. -1.
         11    1    3    3    0    0 -0.46576544089E+01 -0.33878559885E+02  0.20531100339E+02  0.39887048595E+02  0.00000000000E+00 0.  1.
<mgrwt>
<rscale>  0 0.89518713E+02</rscale>
<asrwt>0</asrwt>
<pdfrwt beam="2">  1        1 0.83927121E-02 0.89518713E+02</pdfrwt>
<pdfrwt beam="1">  1       -1 0.56498723E-02 0.89518713E+02</pdfrwt>
<totfact> 0.99968029E+04</totfact>
</mgrwt>
</event>
<event>
 5    1  0.1270834E+001  0.8857266E+02  0.7546771E-02  0.1306345E+00
          2   -1    0    0  501    0  0.00000000000E+00  0.00000000000E+00  0.21689825546E+03  0.21689825546E+03  0.00000000000E+00 0. -1.
         -2   -1    0    0    0  501 -0.00000000000E+00 -0.00000000000E+00 -0.90423920291E+01  0.90423920291E+01  0.00000000000E+00 0.  1.
         23    2    1    2    0    0  0.00000000000E+00  0.00000000000E+00  0.20785586343E+03  0.22594064748E+03  0.88572660709E+02 0.  0.
        -11    1    3    3    0    0 -0.32421315656E+02 -0.99743761941E+01  0.31298750470E+02  0.46154541167E+02  0.00000000000E+00 0.  1.
         11    1    3    3    0    0  0.32421315656E+02  0.99743761941E+01  0.17655711296E+03  0.17978610632E+03  0.00000000000E+00 0. -1.
<mgrwt>
<rscale>  0 0.88572661E+02</rscale>
<asrwt>0</asrwt>
<pdfrwt beam="1">  1        2 0.33368958E-01 0.88572661E+02</pdfrwt>
<pdfrwt beam="2">  1       -2 0.13911374E-02 0.88572661E+02</pdfrwt>
<totfact> 0.17217917E+05</totfact>
</mgrwt>
</event>
<event>
 5    1  0.1270834E+001  0.9778515E+02  0.7546771E-02  0.1285024E+00
         -1   -1    0    0    0  501 -0.00000000000E+00  0.00000000000E+00  0.18649395770E+02  0.18649395770E+02  0.00000000000E+00 0.  1.
          1   -1    0    0  501    0  0.00000000000E+00 -0.00000000000E+00 -0.12818024420E+03  0.12818024420E+03  0.00000000000E+00 0. -1.
         23    2    1    2    0    0  0.00000000000E+00  0.00000000000E+00 -0.10953084843E+03  0.14682963997E+03  0.97785154373E+02 0.  0.
        -13    1    3    3    0    0 -0.14175850736E+02 -0.44785114837E+02 -0.75123679426E+02  0.88601515030E+02  0.00000000000E+00 0.  1.
         13    1    3    3    0    0  0.14175850736E+02  0.44785114837E+02 -0.34407169004E+02  0.58228124939E+02  0.00000000000E+00 0. -1.
<mgrwt>
<rscale>  0 0.97785154E+02</rscale>
<asrwt>0</asrwt>
<pdfrwt beam="2">  1        1 0.19720038E-01 0.97785154E+02</pdfrwt>
<pdfrwt beam="1">  1       -1 0.28691377E-02 0.97785154E+02</pdfrwt>
<totfact> 0.90097068E+04</totfact>
</mgrwt>
</event>
<event>
 5    1  0.1270834E+001  0.9459370E+02  0.7546771E-02  0.1292094E+00
         -1   -1    0    0    0  501 -0.00000000000E+00  0.00000000000E+00  0.12440818431E+02  0.12440818431E+02  0.00000000000E+00 0.  1.
          1   -1    0    0  501    0  0.00000000000E+00 -0.00000000000E+00 -0.17981066199E+03  0.17981066199E+03  0.00000000000E+00 0. -1.
         23    2    1    2    0    0  0.00000000000E+00  0.00000000000E+00 -0.16736984356E+03  0.19225148042E+03  0.94593695301E+02 0.  0.
        -11    1    3    3    0    0  0.38129352645E+02  0.29435324681E+01 -0.27124508844E+02  0.46885508385E+02  0.00000000000E+00 0.  1.
         11    1    3    3    0    0 -0.38129352645E+02 -0.29435324681E+01 -0.14024533471E+03  0.14536597203E+03  0.00000000000E+00 0. -1.
<mgrwt>
<rscale>  0 0.94593695E+02</rscale>
<asrwt>0</asrwt>
<pdfrwt beam="2">  1        1 0.27663179E-01 0.94593695E+02</pdfrwt>
<pdfrwt beam="1">  1       -1 0.19139721E-02 0.94593695E+02</pdfrwt>
<totfact> 0.10505398E+05</totfact>
</mgrwt>
</event>
<event>
 5    1  0.1270834E+001  0.9499294E+02  0.7546771E-02  0.1291192E+00
         -2   -1    0    0    0  501 -0.00000000000E+00  0.00000000000E+00  0.39430384760E+02  0.39430384760E+02  0.00000000000E+00 0.  1.
          2   -1    0    0  501    0  0.00000000000E+00 -0.00000000000E+00 -0.57212599450E+02  0.57212599450E+02  0.00000000000E+00 0. -1.
         23    2    1    2    0    0  0.00000000000E+00  0.00000000000E+00 -0.17782214689E+02  0.96642984210E+02  0.94992943094E+02 0.  0.
        -11    1    3    3    0    0 -0.32709094324E+02 -0.29963986289E+02  0.83799152780E+01  0.45143640813E+02  0.00000000000E+00 0.  1.
         11    1    3    3    0    0  0.32709094324E+02  0.29963986289E+02 -0.26162129967E+02  0.51499343396E+02  0.00000000000E+00 0. -1.
<mgrwt>
<rscale>  0 0.94992943E+02</rscale>
<asrwt>0</asrwt>
<pdfrwt beam="2">  1        2 0.88019384E-02 0.94992943E+02</pdfrwt>
<pdfrwt beam="1">  1       -2 0.60662130E-02 0.94992943E+02</pdfrwt>
<totfact> 0.93212045E+04</totfact>
</mgrwt>
</event>
<event>
 5    1  0.1270834E+001  0.8546097E+02  0.7546771E-02  0.1314231E+00
         -2   -1    0    0    0  501 -0.00000000000E+00  0.00000000000E+00  0.25114644037E+02  0.25114644037E+02  0.00000000000E+00 0.  1.
          2   -1    0    0  501    0  0.00000000000E+00 -0.00000000000E+00 -0.72702371577E+02  0.72702371577E+02  0.00000000000E+00 0. -1.
         23    2    1    2    0    0  0.00000000000E+00  0.00000000000E+00 -0.47587727540E+02  0.97817015614E+02  0.85460966126E+02 0.  0.
        -13    1    3    3    0    0  0.25018264150E+02  0.20925829727E+02  0.78034254132E+01  0.33536507555E+02  0.00000000000E+00 0.  1.
         13    1    3    3    0    0 -0.25018264150E+02 -0.20925829727E+02 -0.55391152953E+02  0.64280508058E+02  0.00000000000E+00 0. -1.
<mgrwt>
<rscale>  0 0.85460966E+02</rscale>
<asrwt>0</asrwt>
<pdfrwt beam="2">  1        2 0.11184980E-01 0.85460966E+02</pdfrwt>
<pdfrwt beam="1">  1       -2 0.38637914E-02 0.85460966E+02</pdfrwt>
<totfact> 0.13379404E+05</totfact>
</mgrwt>
</event>
<event>
 5    1  0.1270834E+001  0.9083178E+02  0.7546771E-02  0.1300850E+00
          4   -1    0    0  501    0  0.00000000000E+00  0.00000000000E+00  0.90067268653E+02  0.90067268653E+02  0.00000000000E+00 0. -1.
         -4   -1    0    0    0  501 -0.00000000000E+00 -0.00000000000E+00 -0.22900695523E+02  0.22900695523E+02  0.00000000000E+00 0.  1.
         23    2    1    2    0    0  0.00000000000E+00  0.00000000000E+00  0.67166573129E+02  0.11296796418E+03  0.90831780695E+02 0.  0.
        -13    1    3    3    0    0 -0.20702244487E+02  0.22126468283E+02 -0.84907235327E+01  0.31468331884E+02  0.00000000000E+00 0.  1.
         13    1    3    3    0    0  0.20702244487E+02 -0.22126468283E+02  0.75657296662E+02  0.81499632292E+02  0.00000000000E+00 0. -1.
<mgrwt>
<rscale>  0 0.90831781E+02</rscale>
<asrwt>0</asrwt>
<pdfrwt beam="1">  1        4 0.13856503E-01 0.90831781E+02</pdfrwt>
<pdfrwt beam="2">  1       -4 0.35231840E-02 0.90831781E+02</pdfrwt>
<totfact> 0.25942280E+04</totfact>
</mgrwt>
</event>
<event>
 5    1  0.1270834E+001  0.9391746E+02  0.7546771E-02  0.1293633E+00
          4   -1    0    0  501    0  0.00000000000E+00  0.00000000000E+00  0.11959438340E+02  0.11959438340E+02  0.00000000000E+00 0. -1.
         -4   -1    0    0    0  501 -0.00000000000E+00 -0.00000000000E+00 -0.18438343834E+03  0.18438343834E+03  0.00000000000E+00 0.  1.
         23    2    1    2    0    0  0.00000000000E+00  0.00000000000E+00 -0.17242400000E+03  0.19634287668E+03  0.93917460820E+02 0.  0.
        -11    1    3    3    0    0  0.38600302176E+02 -0.19921345014E+02 -0.48915091812E+02  0.65418113105E+02  0.00000000000E+00 0. -1.
         11    1    3    3    0    0 -0.38600302176E+02  0.19921345014E+02 -0.12350890819E+03  0.13092476358E+03  0.00000000000E+00 0.  1.
<mgrwt>
<rscale>  0 0.93917461E+02</rscale>
<asrwt>0</asrwt>
<pdfrwt beam="1">  1        4 0.18399135E-02 0.93917461E+02</pdfrwt>
<pdfrwt beam="2">  1       -4 0.28366685E-01 0.93917461E+02</pdfrwt>
<totfact> 0.19891853E+04</totfact>
</mgrwt>
</event>
<event>
 5    1  0.1270834E+001  0.9274548E+02  0.7546771E-02  0.1296336E+00
         -1   -1    0    0    0  501 -0.00000000000E+00  0.00000000000E+00  0.10107911785E+02  0.10107911785E+02  0.00000000000E+00 0.  1.
          1   -1    0    0  501    0  0.00000000000E+00 -0.00000000000E+00 -0.21274730293E+03  0.21274730293E+03  0.00000000000E+00 0. -1.
         23    2    1    2    0    0  0.00000000000E+00  0.00000000000E+00 -0.20263939114E+03  0.22285521471E+03  0.92745479036E+02 0.  0.
        -11    1    3    3    0    0 -0.26053454968E+02 -0.38300559547E+02 -0.10653762509E+03  0.11617220381E+03  0.00000000000E+00 0. -1.
         11    1    3    3    0    0  0.26053454968E+02  0.38300559547E+02 -0.96101766055E+02  0.10668301091E+03  0.00000000000E+00 0.  1.
<mgrwt>
<rscale>  0 0.92745479E+02</rscale>
<asrwt>0</asrwt>
<pdfrwt beam="2">  1        1 0.32730351E-01 0.92745479E+02</pdfrwt>
<pdfrwt beam="1">  1       -1 0.15550635E-02 0.92745479E+02</pdfrwt>
<totfact> 0.11447551E+05</totfact>
</mgrwt>
</event>
<event>
 5    1  0.1270834E+001  0.9152882E+02  0.7546771E-02  0.1299191E+00
          3   -1    0    0  501    0  0.00000000000E+00  0.00000000000E+00  0.31861292589E+02  0.31861292589E+02  0.00000000000E+00 0.  1.
         -3   -1    0    0    0  501 -0.00000000000E+00 -0.00000000000E+00 -0.65734344234E+02  0.65734344234E+02  0.00000000000E+00 0. -1.
         23    2    1    2    0    0  0.00000000000E+00  0.00000000000E+00 -0.33873051645E+02  0.97595636823E+02  0.91528818954E+02 0.  0.
        -13    1    3    3    0    0  0.25560086021E+02  0.22077023462E+02 -0.49864968931E+02  0.60226473322E+02  0.00000000000E+00 0. -1.
         13    1    3    3    0    0 -0.25560086021E+02 -0.22077023462E+02  0.15991917285E+02  0.37369163501E+02  0.00000000000E+00 0.  1.
<mgrwt>
<rscale>  0 0.91528819E+02</rscale>
<asrwt>0</asrwt>
<pdfrwt beam="1">  1        3 0.49017373E-02 0.91528819E+02</pdfrwt>
<pdfrwt beam="2">  1       -3 0.10112976E-01 0.91528819E+02</pdfrwt>
<totfact> 0.34487063E+04</totfact>
</mgrwt>
</event>
<event>
 5    1  0.1270834E+001  0.9000097E+02  0.7546771E-02  0.1302849E+00
          2   -1    0    0  501    0  0.00000000000E+00  0.00000000000E+00  0.56669311751E+02  0.56669311751E+02  0.00000000000E+00 0. -1.
         -2   -1    0    0    0  501 -0.00000000000E+00 -0.00000000000E+00 -0.35734395648E+02  0.35734395648E+02  0.00000000000E+00 0.  1.
         23    2    1    2    0    0  0.00000000000E+00  0.00000000000E+00  0.20934916103E+02  0.92403707399E+02  0.90000969044E+02 0.  0.
        -13    1    3    3    0    0  0.35803570375E+02  0.10234071655E+02 -0.15473895980E+02  0.40324599577E+02  0.00000000000E+00 0.  1.
         13    1    3    3    0    0 -0.35803570375E+02 -0.10234071655E+02  0.36408812082E+02  0.52079107822E+02  0.00000000000E+00 0. -1.
<mgrwt>
<rscale>  0 0.90000969E+02</rscale>
<asrwt>0</asrwt>
<pdfrwt beam="1">  1        2 0.87183557E-02 0.90000969E+02</pdfrwt>
<pdfrwt beam="2">  1       -2 0.54975993E-02 0.90000969E+02</pdfrwt>
<totfact> 0.10836569E+05</totfact>
</mgrwt>
</event>
<event>
 5    1  0.1270834E+001  0.9279927E+02  0.7546771E-02  0.1296211E+00
         -1   -1    0    0    0  501 -0.00000000000E+00  0.00000000000E+00  0.13724830238E+03  0.13724830238E+03  0.00000000000E+00 0.  1.
          1   -1    0    0  501    0  0.00000000000E+00 -0.00000000000E+00 -0.15686359778E+02  0.15686359778E+02  0.00000000000E+00 0. -1.
         23    2    1    2    0    0  0.00000000000E+00  0.00000000000E+00  0.12156194260E+03  0.15293466216E+03  0.92799272626E+02 0.  0.
        -11    1    3    3    0    0 -0.41646490240E+02 -0.99706251904E+01  0.90219290372E+02  0.99866730552E+02  0.00000000000E+00 0.  1.
         11    1    3    3    0    0  0.41646490240E+02  0.99706251904E+01  0.31342652229E+02  0.53067931604E+02  0.00000000000E+00 0. -1.
<mgrwt>
<rscale>  0 0.92799273E+02</rscale>
<asrwt>0</asrwt>
<pdfrwt beam="2">  1        1 0.24132862E-02 0.92799273E+02</pdfrwt>
<pdfrwt beam="1">  1       -1 0.21115123E-01 0.92799273E+02</pdfrwt>
<totfact> 0.72902524E+04</totfact>
</mgrwt>
</event>
<event>
 5    1  0.1270834E+001  0.9093552E+02  0.7546771E-02  0.1300602E+00
         -2   -1    0    0    0  501 -0.00000000000E+00  0.00000000000E+00  0.25840313299E+02  0.25840313299E+02  0.00000000000E+00 0. -1.
          2   -1    0    0  501    0  0.00000000000E+00 -0.00000000000E+00 -0.80003561867E+02  0.80003561867E+02  0.00000000000E+00 0.  1.
         23    2    1    2    0    0  0.00000000000E+00  0.00000000000E+00 -0.54163248568E+02  0.10584387517E+03  0.90935517894E+02 0.  0.
        -11    1    3    3    0    0 -0.15990244696E+01  0.22236693094E+02  0.19041856970E+02  0.29319272090E+02  0.00000000000E+00 0. -1.
         11    1    3    3    0    0  0.15990244696E+01 -0.22236693094E+02 -0.73205105539E+02  0.76524603076E+02  0.00000000000E+00 0.  1.
<mgrwt>
<rscale>  0 0.90935518E+02</rscale>
<asrwt>0</asrwt>
<pdfrwt beam="2">  1        2 0.12308240E-01 0.90935518E+02</pdfrwt>
<pdfrwt beam="1">  1       -2 0.39754328E-02 0.90935518E+02</pdfrwt>
<totfact> 0.11570628E+05</totfact>
</mgrwt>
</event>
<event>
 5    1  0.1270834E+001  0.8962770E+02  0.7546771E-02  0.1303756E+00
         -2   -1    0    0    0  501 -0.00000000000E+00  0.00000000000E+00  0.19566141313E+03  0.19566141313E+03  0.00000000000E+00 0.  1.
          2   -1    0    0  501    0  0.00000000000E+00 -0.00000000000E+00 -0.10264063762E+02  0.10264063762E+02  0.00000000000E+00 0. -1.
         23    2    1    2    0    0  0.00000000000E+00  0.00000000000E+00  0.18539734937E+03  0.20592547689E+03  0.89627701524E+02 0.  0.
        -11    1    3    3    0    0  0.58231824033E+01 -0.33724310967E+02  0.15917111246E+03  0.16280872718E+03  0.00000000000E+00 0.  1.
         11    1    3    3    0    0 -0.58231824033E+01  0.33724310967E+02  0.26226236906E+02  0.43116749712E+02  0.00000000000E+00 0. -1.
<mgrwt>
<rscale>  0 0.89627702E+02</rscale>
<asrwt>0</asrwt>
<pdfrwt beam="2">  1        2 0.15790869E-02 0.89627702E+02</pdfrwt>
<pdfrwt beam="1">  1       -2 0.30101753E-01 0.89627702E+02</pdfrwt>
<totfact> 0.65719401E+04</totfact>
</mgrwt>
</event>
<event>
 5    1  0.1270834E+001  0.8980464E+02  0.7546771E-02  0.1303325E+00
          2   -1    0    0  501    0  0.00000000000E+00  0.00000000000E+00  0.58134748279E+02  0.58134748279E+02  0.00000000000E+00 0.  1.
         -2   -1    0    0    0  501 -0.00000000000E+00 -0.00000000000E+00 -0.34681812457E+02  0.34681812457E+02  0.00000000000E+00 0. -1.
         23    2    1    2    0    0  0.00000000000E+00  0.00000000000E+00  0.23452935822E+02  0.92816560736E+02  0.89804642131E+02 0.  0.
        -13    1    3    3    0    0  0.41659709450E+02  0.14083716751E+02  0.21104710948E+02  0.48777979593E+02  0.00000000000E+00 0.  1.
         13    1    3    3    0    0 -0.41659709450E+02 -0.14083716751E+02  0.23482248741E+01  0.44038581143E+02  0.00000000000E+00 0. -1.
<mgrwt>
<rscale>  0 0.89804642E+02</rscale>
<asrwt>0</asrwt>
<pdfrwt beam="1">  1        2 0.89438074E-02 0.89804642E+02</pdfrwt>
<pdfrwt beam="2">  1       -2 0.53356635E-02 0.89804642E+02</pdfrwt>
<totfact> 0.10977150E+05</totfact>
</mgrwt>
</event>
<event>
 5    1  0.1270834E+001  0.9170592E+02  0.7546771E-02  0.1298772E+00
         -1   -1    0    0    0  501 -0.00000000000E+00  0.00000000000E+00  0.41027839069E+02  0.41027839069E+02  0.00000000000E+00 0. -1.
          1   -1    0    0  501    0  0.00000000000E+00 -0.00000000000E+00 -0.51245546996E+02  0.51245546996E+02  0.00000000000E+00 0.  1.
         23    2    1    2    0    0  0.00000000000E+00  0.00000000000E+00 -0.10217707927E+02  0.92273386065E+02  0.91705922494E+02 0.  0.
        -11    1    3    3    0    0  0.11110006902E+02  0.18917102489E+02 -0.45622193690E+02  0.50622856271E+02  0.00000000000E+00 0.  1.
         11    1    3    3    0    0 -0.11110006902E+02 -0.18917102489E+02  0.35404485763E+02  0.41650529794E+02  0.00000000000E+00 0. -1.
<mgrwt>
<rscale>  0 0.91705922E+02</rscale>
<asrwt>0</asrwt>
<pdfrwt beam="2">  1        1 0.78839303E-02 0.91705922E+02</pdfrwt>
<pdfrwt beam="1">  1       -1 0.63119753E-02 0.91705922E+02</pdfrwt>
<totfact> 0.92600427E+04</totfact>
</mgrwt>
</event>
<event>
 5    1  0.1270834E+001  0.8962381E+02  0.7546771E-02  0.1303765E+00
         -3   -1    0    0    0  501 -0.00000000000E+00  0.00000000000E+00  0.64859236182E+01  0.64859236182E+01  0.00000000000E+00 0.  1.
          3   -1    0    0  501    0  0.00000000000E+00 -0.00000000000E+00 -0.30960999256E+03  0.30960999256E+03  0.00000000000E+00 0. -1.
         23    2    1    2    0    0  0.00000000000E+00  0.00000000000E+00 -0.30312406895E+03  0.31609591618E+03  0.89623808516E+02 0.  0.
        -13    1    3    3    0    0 -0.21736368478E+02  0.36500623858E+02 -0.20185514636E+03  0.20627715668E+03  0.00000000000E+00 0. -1.
         13    1    3    3    0    0  0.21736368478E+02 -0.36500623858E+02 -0.10126892259E+03  0.10981875950E+03  0.00000000000E+00 0.  1.
<mgrwt>
<rscale>  0 0.89623809E+02</rscale>
<asrwt>0</asrwt>
<pdfrwt beam="2">  1        3 0.47632296E-01 0.89623809E+02</pdfrwt>
<pdfrwt beam="1">  1       -3 0.99783462E-03 0.89623809E+02</pdfrwt>
<totfact> 0.24523710E+04</totfact>
</mgrwt>
</event>
<event>
 5    1  0.1270834E+001  0.8919469E+02  0.7546771E-02  0.1304814E+00
          4   -1    0    0  501    0  0.00000000000E+00  0.00000000000E+00  0.52131021998E+02  0.52131021998E+02  0.00000000000E+00 0. -1.
         -4   -1    0    0    0  501 -0.00000000000E+00 -0.00000000000E+00 -0.38152390139E+02  0.38152390139E+02  0.00000000000E+00 0.  1.
         23    2    1    2    0    0  0.00000000000E+00  0.00000000000E+00  0.13978631859E+02  0.90283412137E+02  0.89194687950E+02 0.  0.
        -11    1    3    3    0    0  0.16598760981E+02 -0.40683578683E+02  0.14714687168E+02  0.46337829675E+02  0.00000000000E+00 0. -1.
         11    1    3    3    0    0 -0.16598760981E+02  0.40683578683E+02 -0.73605530887E+00  0.43945582462E+02  0.00000000000E+00 0.  1.
<mgrwt>
<rscale>  0 0.89194688E+02</rscale>
<asrwt>0</asrwt>
<pdfrwt beam="1">  1        4 0.80201572E-02 0.89194688E+02</pdfrwt>
<pdfrwt beam="2">  1       -4 0.58695985E-02 0.89194688E+02</pdfrwt>
<totfact> 0.28733366E+04</totfact>
</mgrwt>
</event>
<event>
 5    1  0.1270834E+001  0.9242203E+02  0.7546771E-02  0.1297090E+00
         -2   -1    0    0    0  501 -0.00000000000E+00  0.00000000000E+00  0.14841477516E+02  0.14841477516E+02  0.00000000000E+00 0.  1.
          2   -1    0    0  501    0  0.00000000000E+00 -0.00000000000E+00 -0.14388446109E+03  0.14388446109E+03  0.00000000000E+00 0. -1.
         23    2    1    2    0    0  0.00000000000E+00  0.00000000000E+00 -0.12904298357E+03  0.15872593860E+03  0.92422031877E+02 0.  0.
        -11    1    3    3    0    0  0.22632133429E+02  0.30046896066E+00  0.46699353182E+01  0.23110864134E+02  0.00000000000E+00 0.  1.
         11    1    3    3    0    0 -0.22632133429E+02 -0.30046896066E+00 -0.13371291889E+03  0.13561507447E+03  0.00000000000E+00 0. -1.
<mgrwt>
<rscale>  0 0.92422032E+02</rscale>
<asrwt>0</asrwt>
<pdfrwt beam="2">  1        2 0.22136071E-01 0.92422032E+02</pdfrwt>
<pdfrwt beam="1">  1       -2 0.22833042E-02 0.92422032E+02</pdfrwt>
<totfact> 0.13285605E+05</totfact>
</mgrwt>
</event>
<event>
 5    1  0.1270834E+001  0.1048245E+03  0.7546771E-02  0.1270466E+00
         -3   -1    0    0    0  501 -0.00000000000E+00  0.00000000000E+00  0.55512661270E+02  0.55512661270E+02  0.00000000000E+00 0.  1.
          3   -1    0    0  501    0  0.00000000000E+00 -0.00000000000E+00 -0.49484964414E+02  0.49484964414E+02  0.00000000000E+00 0. -1.
         23    2    1    2    0    0  0.00000000000E+00  0.00000000000E+00  0.60276968562E+01  0.10499762568E+03  0.10482446408E+03 0.  0.
        -11    1    3    3    0    0  0.71398250405E+01 -0.16610013920E+02  0.52290362802E+02  0.55327675769E+02  0.00000000000E+00 0.  1.
         11    1    3    3    0    0 -0.71398250405E+01  0.16610013920E+02 -0.46262665946E+02  0.49669949914E+02  0.00000000000E+00 0. -1.
<mgrwt>
<rscale>  0 0.10482446E+03</rscale>
<asrwt>0</asrwt>
<pdfrwt beam="2">  1        3 0.76130715E-02 0.10482446E+03</pdfrwt>
<pdfrwt beam="1">  1       -3 0.85404094E-02 0.10482446E+03</pdfrwt>
<totfact> 0.23391271E+04</totfact>
</mgrwt>
</event>
<event>
 5    1  0.1270834E+001  0.9203477E+02  0.7546771E-02  0.1297998E+00
         -1   -1    0    0    0  501 -0.00000000000E+00  0.00000000000E+00  0.12740920972E+03  0.12740920972E+03  0.00000000000E+00 0.  1.
          1   -1    0    0  501    0  0.00000000000E+00 -0.00000000000E+00 -0.16620461538E+02  0.16620461538E+02  0.00000000000E+00 0. -1.
         23    2    1    2    0    0  0.00000000000E+00  0.00000000000E+00  0.11078874818E+03  0.14402967126E+03  0.92034773205E+02 0.  0.
        -11    1    3    3    0    0 -0.50537117892E+01 -0.40175630227E+02  0.21180342609E+02  0.45697135359E+02  0.00000000000E+00 0.  1.
         11    1    3    3    0    0  0.50537117892E+01  0.40175630227E+02  0.89608405573E+02  0.98332535899E+02  0.00000000000E+00 0. -1.
<mgrwt>
<rscale>  0 0.92034773E+02</rscale>
<asrwt>0</asrwt>
<pdfrwt beam="2">  1        1 0.25569942E-02 0.92034773E+02</pdfrwt>
<pdfrwt beam="1">  1       -1 0.19601416E-01 0.92034773E+02</pdfrwt>
<totfact> 0.75697431E+04</totfact>
</mgrwt>
</event>
<event>
 5    1  0.1270834E+001  0.8510301E+02  0.7546771E-02  0.1315163E+00
          3   -1    0    0  501    0  0.00000000000E+00  0.00000000000E+00  0.13375852025E+02  0.13375852025E+02  0.00000000000E+00 0. -1.
         -3   -1    0    0    0  501 -0.00000000000E+00 -0.00000000000E+00 -0.13536562269E+03  0.13536562269E+03  0.00000000000E+00 0.  1.
         23    2    1    2    0    0  0.00000000000E+00  0.00000000000E+00 -0.12198977067E+03  0.14874147472E+03  0.85103009074E+02 0.  0.
        -13    1    3    3    0    0  0.79973479136E+01  0.20761519854E+02 -0.12438980029E+03  0.12636384252E+03  0.00000000000E+00 0.  1.
         13    1    3    3    0    0 -0.79973479136E+01 -0.20761519854E+02  0.24000296276E+01  0.22377632192E+02  0.00000000000E+00 0. -1.
<mgrwt>
<rscale>  0 0.85103009E+02</rscale>
<asrwt>0</asrwt>
<pdfrwt beam="1">  1        3 0.20578233E-02 0.85103009E+02</pdfrwt>
<pdfrwt beam="2">  1       -3 0.20825481E-01 0.85103009E+02</pdfrwt>
<totfact> 0.37790274E+04</totfact>
</mgrwt>
</event>
<event>
 5    1  0.1270834E+001  0.9083912E+02  0.7546771E-02  0.1300832E+00
          1   -1    0    0  501    0  0.00000000000E+00  0.00000000000E+00  0.29141133880E+03  0.29141133880E+03  0.00000000000E+00 0. -1.
         -1   -1    0    0    0  501 -0.00000000000E+00 -0.00000000000E+00 -0.70791225824E+01  0.70791225824E+01  0.00000000000E+00 0.  1.
         23    2    1    2    0    0  0.00000000000E+00  0.00000000000E+00  0.28433221621E+03  0.29849046138E+03  0.90839123493E+02 0.  0.
        -11    1    3    3    0    0  0.38265357143E+01 -0.45018003690E+02  0.15746368423E+03  0.16381719960E+03  0.00000000000E+00 0. -1.
         11    1    3    3    0    0 -0.38265357143E+01  0.45018003690E+02  0.12686853198E+03  0.13467326178E+03  0.00000000000E+00 0.  1.
<mgrwt>
<rscale>  0 0.90839123E+02</rscale>
<asrwt>0</asrwt>
<pdfrwt beam="1">  1        1 0.44832504E-01 0.90839123E+02</pdfrwt>
<pdfrwt beam="2">  1       -1 0.10890960E-02 0.90839123E+02</pdfrwt>
<totfact> 0.12867778E+05</totfact>
</mgrwt>
</event>
<event>
 5    1  0.1270834E+001  0.9010505E+02  0.7546771E-02  0.1302598E+00
          1   -1    0    0  501    0  0.00000000000E+00  0.00000000000E+00  0.19495082112E+02  0.19495082112E+02  0.00000000000E+00 0. -1.
         -1   -1    0    0    0  501 -0.00000000000E+00 -0.00000000000E+00 -0.10411497141E+03  0.10411497141E+03  0.00000000000E+00 0.  1.
         23    2    1    2    0    0  0.00000000000E+00  0.00000000000E+00 -0.84619889300E+02  0.12361005352E+03  0.90105047955E+02 0.  0.
        -13    1    3    3    0    0 -0.30186888952E+02  0.18884229655E+01 -0.88116290845E+02  0.93162734600E+02  0.00000000000E+00 0.  1.
         13    1    3    3    0    0  0.30186888952E+02 -0.18884229655E+01  0.34964015441E+01  0.30447318924E+02  0.00000000000E+00 0. -1.
<mgrwt>
<rscale>  0 0.90105048E+02</rscale>
<asrwt>0</asrwt>
<pdfrwt beam="1">  1        1 0.29992434E-02 0.90105048E+02</pdfrwt>
<pdfrwt beam="2">  1       -1 0.16017688E-01 0.90105048E+02</pdfrwt>
<totfact> 0.83253589E+04</totfact>
</mgrwt>
</event>
<event>
 5    1  0.1270834E+001  0.9235652E+02  0.7546771E-02  0.1297243E+00
          4   -1    0    0  501    0  0.00000000000E+00  0.00000000000E+00  0.45242345616E+02  0.45242345616E+02  0.00000000000E+00 0.  1.
         -4   -1    0    0    0  501 -0.00000000000E+00 -0.00000000000E+00 -0.47133539137E+02  0.47133539137E+02  0.00000000000E+00 0. -1.
         23    2    1    2    0    0  0.00000000000E+00  0.00000000000E+00 -0.18911935216E+01  0.92375884753E+02  0.92356523706E+02 0.  0.
        -11    1    3    3    0    0 -0.27282270214E+02  0.12436763468E+02  0.34182080479E+02  0.45468780273E+02  0.00000000000E+00 0.  1.
         11    1    3    3    0    0  0.27282270214E+02 -0.12436763468E+02 -0.36073274001E+02  0.46907104480E+02  0.00000000000E+00 0. -1.
<mgrwt>
<rscale>  0 0.92356524E+02</rscale>
<asrwt>0</asrwt>
<pdfrwt beam="1">  1        4 0.69603609E-02 0.92356524E+02</pdfrwt>
<pdfrwt beam="2">  1       -4 0.72513137E-02 0.92356524E+02</pdfrwt>
<totfact> 0.26012749E+04</totfact>
</mgrwt>
</event>
<event>
 5    1  0.1270834E+001  0.9192315E+02  0.7546771E-02  0.1298260E+00
         -1   -1    0    0    0  501 -0.00000000000E+00  0.00000000000E+00  0.10464460984E+03  0.10464460984E+03  0.00000000000E+00 0.  1.
          1   -1    0    0  501    0  0.00000000000E+00 -0.00000000000E+00 -0.20187054844E+02  0.20187054844E+02  0.00000000000E+00 0. -1.
         23    2    1    2    0    0  0.00000000000E+00  0.00000000000E+00  0.84457555001E+02  0.12483166469E+03  0.91923152210E+02 0.  0.
        -11    1    3    3    0    0 -0.90713909462E+01  0.32327505288E+02 -0.39401902945E+00  0.33578460102E+02  0.00000000000E+00 0. -1.
         11    1    3    3    0    0  0.90713909462E+01 -0.32327505288E+02  0.84851574030E+02  0.91253204586E+02  0.00000000000E+00 0.  1.
<mgrwt>
<rscale>  0 0.91923152E+02</rscale>
<asrwt>0</asrwt>
<pdfrwt beam="2">  1        1 0.31057008E-02 0.91923152E+02</pdfrwt>
<pdfrwt beam="1">  1       -1 0.16099170E-01 0.91923152E+02</pdfrwt>
<totfact> 0.78999253E+04</totfact>
</mgrwt>
</event>
<event>
 5    1  0.1270834E+001  0.9401542E+02  0.7546771E-02  0.1293409E+00
          1   -1    0    0  501    0  0.00000000000E+00  0.00000000000E+00  0.20164744427E+03  0.20164744427E+03  0.00000000000E+00 0. -1.
         -1   -1    0    0    0  501 -0.00000000000E+00 -0.00000000000E+00 -0.10958357838E+02  0.10958357838E+02  0.00000000000E+00 0.  1.
         23    2    1    2    0    0  0.00000000000E+00  0.00000000000E+00  0.19068908643E+03  0.21260580211E+03  0.94015421108E+02 0.  0.
        -11    1    3    3    0    0 -0.92837380751E+01  0.32814781526E+02  0.22181330815E+02  0.40681803254E+02  0.00000000000E+00 0.  1.
         11    1    3    3    0    0  0.92837380751E+01 -0.32814781526E+02  0.16850775562E+03  0.17192399886E+03  0.00000000000E+00 0. -1.
<mgrwt>
<rscale>  0 0.94015421E+02</rscale>
<asrwt>0</asrwt>
<pdfrwt beam="1">  1        1 0.31022681E-01 0.94015421E+02</pdfrwt>
<pdfrwt beam="2">  1       -1 0.16859014E-02 0.94015421E+02</pdfrwt>
<totfact> 0.10921359E+05</totfact>
</mgrwt>
</event>
<event>
 5    1  0.1270834E+001  0.8940458E+02  0.7546771E-02  0.1304300E+00
          1   -1    0    0  501    0  0.00000000000E+00  0.00000000000E+00  0.23120263207E+02  0.23120263207E+02  0.00000000000E+00 0. -1.
         -1   -1    0    0    0  501 -0.00000000000E+00 -0.00000000000E+00 -0.86430453565E+02  0.86430453565E+02  0.00000000000E+00 0.  1.
         23    2    1    2    0    0  0.00000000000E+00  0.00000000000E+00 -0.63310190358E+02  0.10955071677E+03  0.89404582333E+02 0.  0.
        -11    1    3    3    0    0 -0.38365235588E+02 -0.38518908023E+01 -0.59369559002E+02  0.70791757293E+02  0.00000000000E+00 0.  1.
         11    1    3    3    0    0  0.38365235588E+02  0.38518908023E+01 -0.39406313555E+01  0.38758959480E+02  0.00000000000E+00 0. -1.
<mgrwt>
<rscale>  0 0.89404582E+02</rscale>
<asrwt>0</asrwt>
<pdfrwt beam="1">  1        1 0.35569636E-02 0.89404582E+02</pdfrwt>
<pdfrwt beam="2">  1       -1 0.13296993E-01 0.89404582E+02</pdfrwt>
<totfact> 0.87843932E+04</totfact>
</mgrwt>
</event>
<event>
 5    1  0.1270834E+001  0.9116096E+02  0.7546771E-02  0.1300064E+00
          2   -1    0    0  501    0  0.00000000000E+00  0.00000000000E+00  0.20304261577E+03  0.20304261577E+03  0.00000000000E+00 0. -1.
         -2   -1    0    0    0  501 -0.00000000000E+00 -0.00000000000E+00 -0.10232237034E+02  0.10232237034E+02  0.00000000000E+00 0.  1.
         23    2    1    2    0    0  0.00000000000E+00  0.00000000000E+00  0.19281037873E+03  0.21327485280E+03  0.91160960339E+02 0.  0.
        -13    1    3    3    0    0  0.16882617097E+02 -0.30164807750E+02  0.26899076508E+02  0.43800670127E+02  0.00000000000E+00 0.  1.
         13    1    3    3    0    0 -0.16882617097E+02  0.30164807750E+02  0.16591130223E+03  0.16947418267E+03  0.00000000000E+00 0. -1.
<mgrwt>
<rscale>  0 0.91160960E+02</rscale>
<asrwt>0</asrwt>
<pdfrwt beam="1">  1        2 0.31237323E-01 0.91160960E+02</pdfrwt>
<pdfrwt beam="2">  1       -2 0.15741905E-02 0.91160960E+02</pdfrwt>
<totfact> 0.15560040E+05</totfact>
</mgrwt>
</event>
<event>
 5    1  0.1270834E+001  0.9064234E+02  0.7546771E-02  0.1301304E+00
          2   -1    0    0  501    0  0.00000000000E+00  0.00000000000E+00  0.10592182908E+03  0.10592182908E+03  0.00000000000E+00 0. -1.
         -2   -1    0    0    0  501 -0.00000000000E+00 -0.00000000000E+00 -0.19391737136E+02  0.19391737136E+02  0.00000000000E+00 0.  1.
         23    2    1    2    0    0  0.00000000000E+00  0.00000000000E+00  0.86530091946E+02  0.12531356622E+03  0.90642335949E+02 0.  0.
        -13    1    3    3    0    0 -0.15467203385E+02  0.38555052979E+02  0.18216046290E+02  0.45360234051E+02  0.00000000000E+00 0.  1.
         13    1    3    3    0    0  0.15467203385E+02 -0.38555052979E+02  0.68314045656E+02  0.79953332168E+02  0.00000000000E+00 0. -1.
<mgrwt>
<rscale>  0 0.90642336E+02</rscale>
<asrwt>0</asrwt>
<pdfrwt beam="1">  1        2 0.16295666E-01 0.90642336E+02</pdfrwt>
<pdfrwt beam="2">  1       -2 0.29833442E-02 0.90642336E+02</pdfrwt>
<totfact> 0.12689310E+05</totfact>
</mgrwt>
</event>
<event>
 5    1  0.1270834E+001  0.9153854E+02  0.7546771E-02  0.1299168E+00
         -1   -1    0    0    0  501 -0.00000000000E+00  0.00000000000E+00  0.71667503371E+02  0.71667503371E+02  0.00000000000E+00 0.  1.
          1   -1    0    0  501    0  0.00000000000E+00 -0.00000000000E+00 -0.29229792331E+02  0.29229792331E+02  0.00000000000E+00 0. -1.
         23    2    1    2    0    0  0.00000000000E+00  0.00000000000E+00  0.42437711040E+02  0.10089729570E+03  0.91538543585E+02 0.  0.
        -13    1    3    3    0    0 -0.39731228251E+02 -0.20475610738E+02  0.32074930329E+02  0.55014746105E+02  0.00000000000E+00 0.  1.
         13    1    3    3    0    0  0.39731228251E+02  0.20475610738E+02  0.10362780711E+02  0.45882549597E+02  0.00000000000E+00 0. -1.
<mgrwt>
<rscale>  0 0.91538544E+02</rscale>
<asrwt>0</asrwt>
<pdfrwt beam="2">  1        1 0.44968911E-02 0.91538544E+02</pdfrwt>
<pdfrwt beam="1">  1       -1 0.11025770E-01 0.91538544E+02</pdfrwt>
<totfact> 0.85341825E+04</totfact>
</mgrwt>
</event>
<event>
 5    1  0.1270834E+001  0.8649017E+02  0.7546771E-02  0.1311581E+00
          1   -1    0    0  501    0  0.00000000000E+00  0.00000000000E+00  0.17023503512E+03  0.17023503512E+03  0.00000000000E+00 0. -1.
         -1   -1    0    0    0  501 -0.00000000000E+00 -0.00000000000E+00 -0.10985619707E+02  0.10985619707E+02  0.00000000000E+00 0.  1.
         23    2    1    2    0    0  0.00000000000E+00  0.00000000000E+00  0.15924941541E+03  0.18122065483E+03  0.86490169536E+02 0.  0.
        -13    1    3    3    0    0  0.25989414446E+02  0.20615437156E+02  0.13775456763E+03  0.14169250798E+03  0.00000000000E+00 0. -1.
         13    1    3    3    0    0 -0.25989414446E+02 -0.20615437156E+02  0.21494847777E+02  0.39528146850E+02  0.00000000000E+00 0.  1.
<mgrwt>
<rscale>  0 0.86490170E+02</rscale>
<asrwt>0</asrwt>
<pdfrwt beam="1">  1        1 0.26190003E-01 0.86490170E+02</pdfrwt>
<pdfrwt beam="2">  1       -1 0.16900955E-02 0.86490170E+02</pdfrwt>
<totfact> 0.13224799E+05</totfact>
</mgrwt>
</event>
<event>
 5    1  0.1270834E+001  0.8768667E+02  0.7546771E-02  0.1308552E+00
         -1   -1    0    0    0  501 -0.00000000000E+00  0.00000000000E+00  0.14541674001E+02  0.14541674001E+02  0.00000000000E+00 0.  1.
          1   -1    0    0  501    0  0.00000000000E+00 -0.00000000000E+00 -0.13218822165E+03  0.13218822165E+03  0.00000000000E+00 0. -1.
         23    2    1    2    0    0  0.00000000000E+00  0.00000000000E+00 -0.11764654765E+03  0.14672989565E+03  0.87686670047E+02 0.  0.
        -11    1    3    3    0    0 -0.35672328088E+01 -0.42376907279E+02 -0.40979549009E+02  0.59058029576E+02  0.00000000000E+00 0. -1.
         11    1    3    3    0    0  0.35672328088E+01  0.42376907279E+02 -0.76666998639E+02  0.87671866073E+02  0.00000000000E+00 0.  1.
<mgrwt>
<rscale>  0 0.87686670E+02</rscale>
<asrwt>0</asrwt>
<pdfrwt beam="2">  1        1 0.20336649E-01 0.87686670E+02</pdfrwt>
<pdfrwt beam="1">  1       -1 0.22371806E-02 0.87686670E+02</pdfrwt>
<totfact> 0.12175961E+05</totfact>
</mgrwt>
</event>
<event>
 5    1  0.1270834E+001  0.9089820E+02  0.7546771E-02  0.1300691E+00
         -1   -1    0    0    0  501 -0.00000000000E+00  0.00000000000E+00  0.10638006127E+02  0.10638006127E+02  0.00000000000E+00 0.  1.
          1   -1    0    0  501    0  0.00000000000E+00 -0.00000000000E+00 -0.19417367332E+03  0.19417367332E+03  0.00000000000E+00 0. -1.
         23    2    1    2    0    0  0.00000000000E+00  0.00000000000E+00 -0.18353566719E+03  0.20481167944E+03  0.90898200783E+02 0.  0.
        -13    1    3    3    0    0 -0.23409257407E+02  0.38174143150E+02 -0.10927363194E+03  0.11809312078E+03  0.00000000000E+00 0. -1.
         13    1    3    3    0    0  0.23409257407E+02 -0.38174143150E+02 -0.74262035249E+02  0.86718558665E+02  0.00000000000E+00 0.  1.
<mgrwt>
<rscale>  0 0.90898201E+02</rscale>
<asrwt>0</asrwt>
<pdfrwt beam="2">  1        1 0.29872875E-01 0.90898201E+02</pdfrwt>
<pdfrwt beam="1">  1       -1 0.16366162E-02 0.90898201E+02</pdfrwt>
<totfact> 0.11870087E+05</totfact>
</mgrwt>
</event>
<event>
 5    1  0.1270834E+001  0.9156253E+02  0.7546771E-02  0.1299111E+00
         -2   -1    0    0    0  501 -0.00000000000E+00  0.00000000000E+00  0.86139711459E+02  0.86139711459E+02  0.00000000000E+00 0.  1.
          2   -1    0    0  501    0  0.00000000000E+00 -0.00000000000E+00 -0.24331682349E+02  0.24331682349E+02  0.00000000000E+00 0. -1.
         23    2    1    2    0    0  0.00000000000E+00  0.00000000000E+00  0.61808029110E+02  0.11047139381E+03  0.91562527201E+02 0.  0.
        -13    1    3    3    0    0 -0.15950076182E+02  0.24728595335E+02  0.73218337551E+02  0.78910286473E+02  0.00000000000E+00 0.  1.
         13    1    3    3    0    0  0.15950076182E+02 -0.24728595335E+02 -0.11410308441E+02  0.31561107335E+02  0.00000000000E+00 0. -1.
<mgrwt>
<rscale>  0 0.91562527E+02</rscale>
<asrwt>0</asrwt>
<pdfrwt beam="2">  1        2 0.37433358E-02 0.91562527E+02</pdfrwt>
<pdfrwt beam="1">  1       -2 0.13252263E-01 0.91562527E+02</pdfrwt>
<totfact> 0.82474550E+04</totfact>
</mgrwt>
</event>
<event>
 5    1  0.1270834E+001  0.9179306E+02  0.7546771E-02  0.1298567E+00
         -2   -1    0    0    0  501 -0.00000000000E+00  0.00000000000E+00  0.56135025175E+01  0.56135025175E+01  0.00000000000E+00 0.  1.
          2   -1    0    0  501    0  0.00000000000E+00 -0.00000000000E+00 -0.37525436619E+03  0.37525436619E+03  0.00000000000E+00 0. -1.
         23    2    1    2    0    0  0.00000000000E+00  0.00000000000E+00 -0.36964086367E+03  0.38086786871E+03  0.91793057021E+02 0.  0.
        -11    1    3    3    0    0 -0.42265391905E+02 -0.84381558618E+01 -0.11935693533E+03  0.12690013333E+03  0.00000000000E+00 0.  1.
         11    1    3    3    0    0  0.42265391905E+02  0.84381558618E+01 -0.25028392834E+03  0.25396773538E+03  0.00000000000E+00 0. -1.
<mgrwt>
<rscale>  0 0.91793057E+02</rscale>
<asrwt>0</asrwt>
<pdfrwt beam="2">  1        2 0.57731446E-01 0.91793057E+02</pdfrwt>
<pdfrwt beam="1">  1       -2 0.86361570E-03 0.91793057E+02</pdfrwt>
<totfact> 0.19161717E+05</totfact>
</mgrwt>
</event>
<event>
 5    1  0.1270834E+001  0.9183253E+02  0.7546771E-02  0.1298474E+00
          1   -1    0    0  501    0  0.00000000000E+00  0.00000000000E+00  0.43763996871E+02  0.43763996871E+02  0.00000000000E+00 0. -1.
         -1   -1    0    0    0  501 -0.00000000000E+00 -0.00000000000E+00 -0.48174375180E+02  0.48174375180E+02  0.00000000000E+00 0.  1.
         23    2    1    2    0    0  0.00000000000E+00  0.00000000000E+00 -0.44103783087E+01  0.91938372052E+02  0.91832525930E+02 0.  0.
        -13    1    3    3    0    0  0.26394155133E+02 -0.92894068968E+01 -0.38652626310E+02  0.47717607089E+02  0.00000000000E+00 0.  1.
         13    1    3    3    0    0 -0.26394155133E+02  0.92894068968E+01  0.34242248001E+02  0.44220764962E+02  0.00000000000E+00 0. -1.
<mgrwt>
<rscale>  0 0.91832526E+02</rscale>
<asrwt>0</asrwt>
<pdfrwt beam="1">  1        1 0.67329226E-02 0.91832526E+02</pdfrwt>
<pdfrwt beam="2">  1       -1 0.74114423E-02 0.91832526E+02</pdfrwt>
<totfact> 0.90069114E+04</totfact>
</mgrwt>
</event>
<event>
 5    1  0.1270834E+001  0.9146354E+02  0.7546771E-02  0.1299346E+00
         -2   -1    0    0    0  501 -0.00000000000E+00  0.00000000000E+00  0.83168224955E+01  0.83168224955E+01  0.00000000000E+00 0.  1.
          2   -1    0    0  501    0  0.00000000000E+00 -0.00000000000E+00 -0.25146559932E+03  0.25146559932E+03  0.00000000000E+00 0. -1.
         23    2    1    2    0    0  0.00000000000E+00  0.00000000000E+00 -0.24314877682E+03  0.25978242182E+03  0.91463539255E+02 0.  0.
        -11    1    3    3    0    0  0.62055274163E+01  0.45240812134E+02 -0.11452779324E+03  0.12329580316E+03  0.00000000000E+00 0. -1.
         11    1    3    3    0    0 -0.62055274163E+01 -0.45240812134E+02 -0.12862098359E+03  0.13648661865E+03  0.00000000000E+00 0.  1.
<mgrwt>
<rscale>  0 0.91463539E+02</rscale>
<asrwt>0</asrwt>
<pdfrwt beam="2">  1        2 0.38687010E-01 0.91463539E+02</pdfrwt>
<pdfrwt beam="1">  1       -2 0.12795113E-02 0.91463539E+02</pdfrwt>
<totfact> 0.16681443E+05</totfact>
</mgrwt>
</event>
<event>
 5    1  0.1270834E+001  0.9227064E+02  0.7546771E-02  0.1297444E+00
          1   -1    0    0  501    0  0.00000000000E+00  0.00000000000E+00  0.91621614551E+02  0.91621614551E+02  0.00000000000E+00 0. -1.
         -1   -1    0    0    0  501 -0.00000000000E+00 -0.00000000000E+00 -0.23231068145E+02  0.23231068145E+02  0.00000000000E+00 0.  1.
         23    2    1    2    0    0  0.00000000000E+00  0.00000000000E+00  0.68390546406E+02  0.11485268270E+03  0.92270644762E+02 0.  0.
        -13    1    3    3    0    0  0.32816260707E+01  0.38470120921E+02  0.27610756157E+01  0.38708433343E+02  0.00000000000E+00 0.  1.
         13    1    3    3    0    0 -0.32816260707E+01 -0.38470120921E+02  0.65629470790E+02  0.76144249353E+02  0.00000000000E+00 0. -1.
<mgrwt>
<rscale>  0 0.92270645E+02</rscale>
<asrwt>0</asrwt>
<pdfrwt beam="1">  1        1 0.14095633E-01 0.92270645E+02</pdfrwt>
<pdfrwt beam="2">  1       -1 0.35740105E-02 0.92270645E+02</pdfrwt>
<totfact> 0.99651517E+04</totfact>
</mgrwt>
</event>
<event>
 5    1  0.1270834E+001  0.8948051E+02  0.7546771E-02  0.1304115E+00
         -3   -1    0    0    0  501 -0.00000000000E+00  0.00000000000E+00  0.20050394566E+02  0.20050394566E+02  0.00000000000E+00 0.  1.
          3   -1    0    0  501    0  0.00000000000E+00 -0.00000000000E+00 -0.99832972405E+02  0.99832972405E+02  0.00000000000E+00 0. -1.
         23    2    1    2    0    0  0.00000000000E+00  0.00000000000E+00 -0.79782577838E+02  0.11988336697E+03  0.89480511564E+02 0.  0.
        -13    1    3    3    0    0  0.33791328425E+02  0.14139392605E+02 -0.74308383565E+02  0.82846316563E+02  0.00000000000E+00 0. -1.
         13    1    3    3    0    0 -0.33791328425E+02 -0.14139392605E+02 -0.54741942731E+01  0.37037050408E+02  0.00000000000E+00 0.  1.
<mgrwt>
<rscale>  0 0.89480512E+02</rscale>
<asrwt>0</asrwt>
<pdfrwt beam="2">  1        3 0.15358919E-01 0.89480512E+02</pdfrwt>
<pdfrwt beam="1">  1       -3 0.30846761E-02 0.89480512E+02</pdfrwt>
<totfact> 0.34989860E+04</totfact>
</mgrwt>
</event>
<event>
 5    1  0.1270834E+001  0.9077703E+02  0.7546771E-02  0.1300981E+00
          2   -1    0    0  501    0  0.00000000000E+00  0.00000000000E+00  0.14250315565E+02  0.14250315565E+02  0.00000000000E+00 0. -1.
         -2   -1    0    0    0  501 -0.00000000000E+00 -0.00000000000E+00 -0.14456644173E+03  0.14456644173E+03  0.00000000000E+00 0.  1.
         23    2    1    2    0    0  0.00000000000E+00  0.00000000000E+00 -0.13031612616E+03  0.15881675729E+03  0.90777032661E+02 0.  0.
        -13    1    3    3    0    0  0.27207062027E+02  0.36142201702E+02 -0.71618161010E+02  0.84709172788E+02  0.00000000000E+00 0. -1.
         13    1    3    3    0    0 -0.27207062027E+02 -0.36142201702E+02 -0.58697965153E+02  0.74107584505E+02  0.00000000000E+00 0.  1.
<mgrwt>
<rscale>  0 0.90777033E+02</rscale>
<asrwt>0</asrwt>
<pdfrwt beam="1">  1        2 0.21923563E-02 0.90777033E+02</pdfrwt>
<pdfrwt beam="2">  1       -2 0.22240990E-01 0.90777033E+02</pdfrwt>
<totfact> 0.71582322E+04</totfact>
</mgrwt>
</event>
<event>
 5    1  0.1270834E+001  0.9155954E+02  0.7546771E-02  0.1299118E+00
          1   -1    0    0  501    0  0.00000000000E+00  0.00000000000E+00  0.82277111768E+02  0.82277111768E+02  0.00000000000E+00 0. -1.
         -1   -1    0    0    0  501 -0.00000000000E+00 -0.00000000000E+00 -0.25472298761E+02  0.25472298761E+02  0.00000000000E+00 0.  1.
         23    2    1    2    0    0  0.00000000000E+00  0.00000000000E+00  0.56804813006E+02  0.10774941053E+03  0.91559536307E+02 0.  0.
        -13    1    3    3    0    0 -0.14404807168E+02  0.13499908146E+02 -0.20205405625E+02  0.28248971768E+02  0.00000000000E+00 0.  1.
         13    1    3    3    0    0  0.14404807168E+02 -0.13499908146E+02  0.77010218632E+02  0.79500438761E+02  0.00000000000E+00 0. -1.
<mgrwt>
<rscale>  0 0.91559536E+02</rscale>
<asrwt>0</asrwt>
<pdfrwt beam="1">  1        1 0.12658017E-01 0.91559536E+02</pdfrwt>
<pdfrwt beam="2">  1       -1 0.39188152E-02 0.91559536E+02</pdfrwt>
<totfact> 0.10003563E+05</totfact>
</mgrwt>
</event>
<event>
 5    1  0.1270834E+001  0.9255056E+02  0.7546771E-02  0.1296790E+00
          2   -1    0    0  501    0  0.00000000000E+00  0.00000000000E+00  0.11152970395E+02  0.11152970395E+02  0.00000000000E+00 0. -1.
         -2   -1    0    0    0  501 -0.00000000000E+00 -0.00000000000E+00 -0.19200281679E+03  0.19200281679E+03  0.00000000000E+00 0.  1.
         23    2    1    2    0    0  0.00000000000E+00  0.00000000000E+00 -0.18084984639E+03  0.20315578718E+03  0.92550564155E+02 0.  0.
        -11    1    3    3    0    0  0.13152640173E+02 -0.31526805238E+02 -0.15894761896E+03  0.16257698781E+03  0.00000000000E+00 0.  1.
         11    1    3    3    0    0 -0.13152640173E+02  0.31526805238E+02 -0.21902227432E+02  0.40578799372E+02  0.00000000000E+00 0. -1.
<mgrwt>
<rscale>  0 0.92550564E+02</rscale>
<asrwt>0</asrwt>
<pdfrwt beam="1">  1        2 0.17158418E-02 0.92550564E+02</pdfrwt>
<pdfrwt beam="2">  1       -2 0.29538892E-01 0.92550564E+02</pdfrwt>
<totfact> 0.61040132E+04</totfact>
</mgrwt>
</event>
<event>
 5    1  0.1270834E+001  0.9019747E+02  0.7546771E-02  0.1302374E+00
          4   -1    0    0  501    0  0.00000000000E+00  0.00000000000E+00  0.11313856759E+03  0.11313856759E+03  0.00000000000E+00 0. -1.
         -4   -1    0    0    0  501 -0.00000000000E+00 -0.00000000000E+00 -0.17977034111E+02  0.17977034111E+02  0.00000000000E+00 0.  1.
         23    2    1    2    0    0  0.00000000000E+00  0.00000000000E+00  0.95161533482E+02  0.13111560170E+03  0.90197469784E+02 0.  0.
        -11    1    3    3    0    0  0.16093102167E+02 -0.31049266419E+02  0.88974114051E+02  0.95600407184E+02  0.00000000000E+00 0. -1.
         11    1    3    3    0    0 -0.16093102167E+02  0.31049266419E+02  0.61874194306E+01  0.35515194520E+02  0.00000000000E+00 0.  1.
<mgrwt>
<rscale>  0 0.90197470E+02</rscale>
<asrwt>0</asrwt>
<pdfrwt beam="1">  1        4 0.17405933E-01 0.90197470E+02</pdfrwt>
<pdfrwt beam="2">  1       -4 0.27656976E-02 0.90197470E+02</pdfrwt>
<totfact> 0.25384419E+04</totfact>
</mgrwt>
</event>
<event>
 5    1  0.1270834E+001  0.9141421E+02  0.7546771E-02  0.1299463E+00
         -1   -1    0    0    0  501 -0.00000000000E+00  0.00000000000E+00  0.35434175460E+02  0.35434175460E+02  0.00000000000E+00 0.  1.
          1   -1    0    0  501    0  0.00000000000E+00 -0.00000000000E+00 -0.58958321226E+02  0.58958321226E+02  0.00000000000E+00 0. -1.
         23    2    1    2    0    0  0.00000000000E+00  0.00000000000E+00 -0.23524145765E+02  0.94392496686E+02  0.91414211130E+02 0.  0.
        -13    1    3    3    0    0 -0.12571811083E+02 -0.20872184040E+02 -0.51692908539E+02  0.57147662189E+02  0.00000000000E+00 0. -1.
         13    1    3    3    0    0  0.12571811083E+02  0.20872184040E+02  0.28168762773E+02  0.37244834497E+02  0.00000000000E+00 0.  1.
<mgrwt>
<rscale>  0 0.91414211E+02</rscale>
<asrwt>0</asrwt>
<pdfrwt beam="2">  1        1 0.90705109E-02 0.91414211E+02</pdfrwt>
<pdfrwt beam="1">  1       -1 0.54514116E-02 0.91414211E+02</pdfrwt>
<totfact> 0.95424366E+04</totfact>
</mgrwt>
</event>
<event>
 5    1  0.1270834E+001  0.9182022E+02  0.7546771E-02  0.1298503E+00
          2   -1    0    0  501    0  0.00000000000E+00  0.00000000000E+00  0.13284043089E+03  0.13284043089E+03  0.00000000000E+00 0. -1.
         -2   -1    0    0    0  501 -0.00000000000E+00 -0.00000000000E+00 -0.15866691904E+02  0.15866691904E+02  0.00000000000E+00 0.  1.
         23    2    1    2    0    0  0.00000000000E+00  0.00000000000E+00  0.11697373899E+03  0.14870712279E+03  0.91820219763E+02 0.  0.
        -11    1    3    3    0    0 -0.41772079435E+02 -0.73853337032E+01  0.86923101280E+02  0.96721638274E+02  0.00000000000E+00 0. -1.
         11    1    3    3    0    0  0.41772079435E+02  0.73853337032E+01  0.30050637706E+02  0.51985484520E+02  0.00000000000E+00 0.  1.
<mgrwt>
<rscale>  0 0.91820220E+02</rscale>
<asrwt>0</asrwt>
<pdfrwt beam="1">  1        2 0.20436989E-01 0.91820220E+02</pdfrwt>
<pdfrwt beam="2">  1       -2 0.24410296E-02 0.91820220E+02</pdfrwt>
<totfact> 0.13168131E+05</totfact>
</mgrwt>
</event>
<event>
 5    1  0.1270834E+001  0.9085602E+02  0.7546771E-02  0.1300792E+00
          3   -1    0    0  501    0  0.00000000000E+00  0.00000000000E+00  0.10865818571E+03  0.10865818571E+03  0.00000000000E+00 0. -1.
         -3   -1    0    0    0  501 -0.00000000000E+00 -0.00000000000E+00 -0.18992623762E+02  0.18992623762E+02  0.00000000000E+00 0.  1.
         23    2    1    2    0    0  0.00000000000E+00  0.00000000000E+00  0.89665561949E+02  0.12765080947E+03  0.90856018840E+02 0.  0.
        -13    1    3    3    0    0  0.41416314859E+02  0.15837083180E+02  0.30954054746E+02  0.54076592398E+02  0.00000000000E+00 0.  1.
         13    1    3    3    0    0 -0.41416314859E+02 -0.15837083180E+02  0.58711507203E+02  0.73574217075E+02  0.00000000000E+00 0. -1.
<mgrwt>
<rscale>  0 0.90856019E+02</rscale>
<asrwt>0</asrwt>
<pdfrwt beam="1">  1        3 0.16716644E-01 0.90856019E+02</pdfrwt>
<pdfrwt beam="2">  1       -3 0.29219422E-02 0.90856019E+02</pdfrwt>
<totfact> 0.33045543E+04</totfact>
</mgrwt>
</event>
<event>
 5    1  0.1270834E+001  0.7975001E+02  0.7546771E-02  0.1329762E+00
          2   -1    0    0  501    0  0.00000000000E+00  0.00000000000E+00  0.25982190625E+03  0.25982190625E+03  0.00000000000E+00 0.  1.
         -2   -1    0    0    0  501 -0.00000000000E+00 -0.00000000000E+00 -0.61196380172E+01  0.61196380172E+01  0.00000000000E+00 0. -1.
         23    2    1    2    0    0  0.00000000000E+00  0.00000000000E+00  0.25370226824E+03  0.26594154427E+03  0.79750009786E+02 0.  0.
        -11    1    3    3    0    0  0.10239354274E+02  0.36088386327E+02  0.17193732556E+03  0.17598198750E+03  0.00000000000E+00 0.  1.
         11    1    3    3    0    0 -0.10239354274E+02 -0.36088386327E+02  0.81764942679E+02  0.89959556774E+02  0.00000000000E+00 0. -1.
<mgrwt>
<rscale>  0 0.79750010E+02</rscale>
<asrwt>0</asrwt>
<pdfrwt beam="1">  1        2 0.39972592E-01 0.79750010E+02</pdfrwt>
<pdfrwt beam="2">  1       -2 0.94148297E-03 0.79750010E+02</pdfrwt>
<totfact> 0.24296448E+05</totfact>
</mgrwt>
</event>
<event>
 5    1  0.1270834E+001  0.9117930E+02  0.7546771E-02  0.1300021E+00
          2   -1    0    0  501    0  0.00000000000E+00  0.00000000000E+00  0.28102152422E+02  0.28102152422E+02  0.00000000000E+00 0.  1.
         -2   -1    0    0    0  501 -0.00000000000E+00 -0.00000000000E+00 -0.73959322604E+02  0.73959322604E+02  0.00000000000E+00 0. -1.
         23    2    1    2    0    0  0.00000000000E+00  0.00000000000E+00 -0.45857170182E+02  0.10206147503E+03  0.91179299336E+02 0.  0.
        -13    1    3    3    0    0  0.95261315932E+00 -0.44523574148E+02 -0.12009333433E+02  0.46124616164E+02  0.00000000000E+00 0. -1.
         13    1    3    3    0    0 -0.95261315932E+00  0.44523574148E+02 -0.33847836750E+02  0.55936858862E+02  0.00000000000E+00 0.  1.
<mgrwt>
<rscale>  0 0.91179299E+02</rscale>
<asrwt>0</asrwt>
<pdfrwt beam="1">  1        2 0.43234081E-02 0.91179299E+02</pdfrwt>
<pdfrwt beam="2">  1       -2 0.11378357E-01 0.91179299E+02</pdfrwt>
<totfact> 0.86918706E+04</totfact>
</mgrwt>
</event>
<event>
 5    1  0.1270834E+001  0.9136553E+02  0.7546771E-02  0.1299578E+00
          2   -1    0    0  501    0  0.00000000000E+00  0.00000000000E+00  0.26988407050E+03  0.26988407050E+03  0.00000000000E+00 0. -1.
         -2   -1    0    0    0  501 -0.00000000000E+00 -0.00000000000E+00 -0.77326353155E+01  0.77326353155E+01  0.00000000000E+00 0.  1.
         23    2    1    2    0    0  0.00000000000E+00  0.00000000000E+00  0.26215143519E+03  0.27761670582E+03  0.91365531677E+02 0.  0.
        -11    1    3    3    0    0  0.44687880168E+02 -0.92211249075E+01  0.13778757453E+03  0.14514631058E+03  0.00000000000E+00 0.  1.
         11    1    3    3    0    0 -0.44687880168E+02  0.92211249075E+01  0.12436386065E+03  0.13247039524E+03  0.00000000000E+00 0. -1.
<mgrwt>
<rscale>  0 0.91365532E+02</rscale>
<asrwt>0</asrwt>
<pdfrwt beam="1">  1        2 0.41520619E-01 0.91365532E+02</pdfrwt>
<pdfrwt beam="2">  1       -2 0.11896364E-02 0.91365532E+02</pdfrwt>
<totfact> 0.17175602E+05</totfact>
</mgrwt>
</event>
<event>
 5    1  0.1270834E+001  0.9237020E+02  0.7546771E-02  0.1297211E+00
          1   -1    0    0  501    0  0.00000000000E+00  0.00000000000E+00  0.86123369035E+02  0.86123369035E+02  0.00000000000E+00 0. -1.
         -1   -1    0    0    0  501 -0.00000000000E+00 -0.00000000000E+00 -0.24767533313E+02  0.24767533313E+02  0.00000000000E+00 0.  1.
         23    2    1    2    0    0  0.00000000000E+00  0.00000000000E+00  0.61355835722E+02  0.11089090235E+03  0.92370198909E+02 0.  0.
        -11    1    3    3    0    0 -0.35768250309E+02 -0.68442800521E+01  0.64778425739E+02  0.74313231263E+02  0.00000000000E+00 0. -1.
         11    1    3    3    0    0  0.35768250309E+02  0.68442800521E+01 -0.34225900170E+01  0.36577671085E+02  0.00000000000E+00 0.  1.
<mgrwt>
<rscale>  0 0.92370199E+02</rscale>
<asrwt>0</asrwt>
<pdfrwt beam="1">  1        1 0.13249749E-01 0.92370199E+02</pdfrwt>
<pdfrwt beam="2">  1       -1 0.38103898E-02 0.92370199E+02</pdfrwt>
<totfact> 0.98361506E+04</totfact>
</mgrwt>
</event>
<event>
 5    1  0.1270834E+001  0.9624996E+02  0.7546771E-02  0.1288385E+00
          4   -1    0    0  501    0  0.00000000000E+00  0.00000000000E+00  0.15507708963E+02  0.15507708963E+02  0.00000000000E+00 0. -1.
         -4   -1    0    0    0  501 -0.00000000000E+00 -0.00000000000E+00 -0.14934595471E+03  0.14934595471E+03  0.00000000000E+00 0.  1.
         23    2    1    2    0    0  0.00000000000E+00  0.00000000000E+00 -0.13383824574E+03  0.16485366367E+03  0.96249957931E+02 0.  0.
        -13    1    3    3    0    0 -0.71308230607E+00 -0.39784962743E+02 -0.11327980796E+03  0.12006525992E+03  0.00000000000E+00 0.  1.
         13    1    3    3    0    0  0.71308230607E+00  0.39784962743E+02 -0.20558437781E+02  0.44788403754E+02  0.00000000000E+00 0. -1.
<mgrwt>
<rscale>  0 0.96249958E+02</rscale>
<asrwt>0</asrwt>
<pdfrwt beam="1">  1        4 0.23858014E-02 0.96249958E+02</pdfrwt>
<pdfrwt beam="2">  1       -4 0.22976300E-01 0.96249958E+02</pdfrwt>
<totfact> 0.19826871E+04</totfact>
</mgrwt>
</event>
<event>
 5    1  0.1270834E+001  0.8570914E+02  0.7546771E-02  0.1313588E+00
         -1   -1    0    0    0  501 -0.00000000000E+00  0.00000000000E+00  0.16261832148E+02  0.16261832148E+02  0.00000000000E+00 0.  1.
          1   -1    0    0  501    0  0.00000000000E+00 -0.00000000000E+00 -0.11293402724E+03  0.11293402724E+03  0.00000000000E+00 0. -1.
         23    2    1    2    0    0  0.00000000000E+00  0.00000000000E+00 -0.96672195089E+02  0.12919585938E+03  0.85709140579E+02 0.  0.
        -11    1    3    3    0    0  0.31661089407E+02 -0.16550632298E+02 -0.12659790069E+02  0.37902747875E+02  0.00000000000E+00 0.  1.
         11    1    3    3    0    0 -0.31661089407E+02  0.16550632298E+02 -0.84012405020E+02  0.91293111510E+02  0.00000000000E+00 0. -1.
<mgrwt>
<rscale>  0 0.85709141E+02</rscale>
<asrwt>0</asrwt>
<pdfrwt beam="2">  1        1 0.17374466E-01 0.85709141E+02</pdfrwt>
<pdfrwt beam="1">  1       -1 0.25018203E-02 0.85709141E+02</pdfrwt>
<totfact> 0.12602286E+05</totfact>
</mgrwt>
</event>
<event>
 5    1  0.1270834E+001  0.8953964E+02  0.7546771E-02  0.1303970E+00
         -3   -1    0    0    0  501 -0.00000000000E+00  0.00000000000E+00  0.90895887801E+02  0.90895887801E+02  0.00000000000E+00 0.  1.
          3   -1    0    0  501    0  0.00000000000E+00 -0.00000000000E+00 -0.22050909092E+02  0.22050909092E+02  0.00000000000E+00 0. -1.
         23    2    1    2    0    0  0.00000000000E+00  0.00000000000E+00  0.68844978709E+02  0.11294679689E+03  0.89539643929E+02 0.  0.
        -13    1    3    3    0    0 -0.40996012766E+02  0.13157393688E+02  0.49899762472E+02  0.65907331657E+02  0.00000000000E+00 0. -1.
         13    1    3    3    0    0  0.40996012766E+02 -0.13157393688E+02  0.18945216237E+02  0.47039465236E+02  0.00000000000E+00 0.  1.
<mgrwt>
<rscale>  0 0.89539644E+02</rscale>
<asrwt>0</asrwt>
<pdfrwt beam="2">  1        3 0.33924476E-02 0.89539644E+02</pdfrwt>
<pdfrwt beam="1">  1       -3 0.13983983E-01 0.89539644E+02</pdfrwt>
<totfact> 0.35436121E+04</totfact>
</mgrwt>
</event>
<event>
 5    1  0.1270834E+001  0.1141967E+03  0.7546771E-02  0.1252990E+00
         -2   -1    0    0    0  501 -0.00000000000E+00  0.00000000000E+00  0.39497597850E+02  0.39497597850E+02  0.00000000000E+00 0.  1.
          2   -1    0    0  501    0  0.00000000000E+00 -0.00000000000E+00 -0.82542289114E+02  0.82542289114E+02  0.00000000000E+00 0. -1.
         23    2    1    2    0    0  0.00000000000E+00  0.00000000000E+00 -0.43044691264E+02  0.12203988696E+03  0.11419670995E+03 0.  0.
        -11    1    3    3    0    0  0.46681238087E+02  0.32833796897E+02 -0.23381339076E+02  0.61675629101E+02  0.00000000000E+00 0.  1.
         11    1    3    3    0    0 -0.46681238087E+02 -0.32833796897E+02 -0.19663352188E+02  0.60364257863E+02  0.00000000000E+00 0. -1.
<mgrwt>
<rscale>  0 0.11419671E+03</rscale>
<asrwt>0</asrwt>
<pdfrwt beam="2">  1        2 0.12698814E-01 0.11419671E+03</pdfrwt>
<pdfrwt beam="1">  1       -2 0.60765535E-02 0.11419671E+03</pdfrwt>
<totfact> 0.61289903E+04</totfact>
</mgrwt>
</event>
<event>
 5    1  0.1270834E+001  0.9766559E+02  0.7546771E-02  0.1285283E+00
          2   -1    0    0  501    0  0.00000000000E+00  0.00000000000E+00  0.41479403415E+02  0.41479403415E+02  0.00000000000E+00 0. -1.
         -2   -1    0    0    0  501 -0.00000000000E+00 -0.00000000000E+00 -0.57489779992E+02  0.57489779992E+02  0.00000000000E+00 0.  1.
         23    2    1    2    0    0  0.00000000000E+00  0.00000000000E+00 -0.16010376578E+02  0.98969183407E+02  0.97665588136E+02 0.  0.
        -11    1    3    3    0    0  0.44620015233E+02  0.63460749853E+01  0.11045296699E+02  0.46402769381E+02  0.00000000000E+00 0.  1.
         11    1    3    3    0    0 -0.44620015233E+02 -0.63460749853E+01 -0.27055673276E+02  0.52566414026E+02  0.00000000000E+00 0. -1.
<mgrwt>
<rscale>  0 0.97665588E+02</rscale>
<asrwt>0</asrwt>
<pdfrwt beam="1">  1        2 0.63814467E-02 0.97665588E+02</pdfrwt>
<pdfrwt beam="2">  1       -2 0.88445815E-02 0.97665588E+02</pdfrwt>
<totfact> 0.78815225E+04</totfact>
</mgrwt>
</event>
<event>
 5    1  0.1270834E+001  0.9117047E+02  0.7546771E-02  0.1300042E+00
         -2   -1    0    0    0  501 -0.00000000000E+00  0.00000000000E+00  0.45015269795E+02  0.45015269795E+02  0.00000000000E+00 0.  1.
          2   -1    0    0  501    0  0.00000000000E+00 -0.00000000000E+00 -0.46162418580E+02  0.46162418580E+02  0.00000000000E+00 0. -1.
         23    2    1    2    0    0  0.00000000000E+00  0.00000000000E+00 -0.11471487852E+01  0.91177688376E+02  0.91170471685E+02 0.  0.
        -13    1    3    3    0    0  0.43914461030E+02 -0.11828822065E+02  0.25271238615E+01  0.45549832865E+02  0.00000000000E+00 0.  1.
         13    1    3    3    0    0 -0.43914461030E+02  0.11828822065E+02 -0.36742726467E+01  0.45627855511E+02  0.00000000000E+00 0. -1.
<mgrwt>
<rscale>  0 0.91170472E+02</rscale>
<asrwt>0</asrwt>
<pdfrwt beam="2">  1        2 0.71019105E-02 0.91170472E+02</pdfrwt>
<pdfrwt beam="1">  1       -2 0.69254261E-02 0.91170472E+02</pdfrwt>
<totfact> 0.99015568E+04</totfact>
</mgrwt>
</event>
<event>
 5    1  0.1270834E+001  0.9169412E+02  0.7546771E-02  0.1298800E+00
          4   -1    0    0  501    0  0.00000000000E+00  0.00000000000E+00  0.15124771932E+03  0.15124771932E+03  0.00000000000E+00 0. -1.
         -4   -1    0    0    0  501 -0.00000000000E+00 -0.00000000000E+00 -0.13897418155E+02  0.13897418155E+02  0.00000000000E+00 0.  1.
         23    2    1    2    0    0  0.00000000000E+00  0.00000000000E+00  0.13735030116E+03  0.16514513747E+03  0.91694117595E+02 0.  0.
        -13    1    3    3    0    0 -0.26768433395E+02 -0.21529722159E+02  0.13991147894E+02  0.37092184919E+02  0.00000000000E+00 0.  1.
         13    1    3    3    0    0  0.26768433395E+02  0.21529722159E+02  0.12335915327E+03  0.12805295255E+03  0.00000000000E+00 0. -1.
<mgrwt>
<rscale>  0 0.91694118E+02</rscale>
<asrwt>0</asrwt>
<pdfrwt beam="1">  1        4 0.23268879E-01 0.91694118E+02</pdfrwt>
<pdfrwt beam="2">  1       -4 0.21380644E-02 0.91694118E+02</pdfrwt>
<totfact> 0.22588450E+04</totfact>
</mgrwt>
</event>
<event>
 5    1  0.1270834E+001  0.9313410E+02  0.7546771E-02  0.1295435E+00
          3   -1    0    0  501    0  0.00000000000E+00  0.00000000000E+00  0.10369141114E+03  0.10369141114E+03  0.00000000000E+00 0. -1.
         -3   -1    0    0    0  501 -0.00000000000E+00 -0.00000000000E+00 -0.20912917575E+02  0.20912917575E+02  0.00000000000E+00 0.  1.
         23    2    1    2    0    0  0.00000000000E+00  0.00000000000E+00  0.82778493567E+02  0.12460432872E+03  0.93134095463E+02 0.  0.
        -13    1    3    3    0    0  0.12500145564E+02 -0.17353845149E+02  0.96731856066E+02  0.99067964340E+02  0.00000000000E+00 0. -1.
         13    1    3    3    0    0 -0.12500145564E+02  0.17353845149E+02 -0.13953362498E+02  0.25536364377E+02  0.00000000000E+00 0.  1.
<mgrwt>
<rscale>  0 0.93134095E+02</rscale>
<asrwt>0</asrwt>
<pdfrwt beam="1">  1        3 0.15952524E-01 0.93134095E+02</pdfrwt>
<pdfrwt beam="2">  1       -3 0.32173720E-02 0.93134095E+02</pdfrwt>
<totfact> 0.31084042E+04</totfact>
</mgrwt>
</event>
<event>
 5    1  0.1270834E+001  0.9005779E+02  0.7546771E-02  0.1302712E+00
          3   -1    0    0  501    0  0.00000000000E+00  0.00000000000E+00  0.42890411686E+02  0.42890411686E+02  0.00000000000E+00 0. -1.
         -3   -1    0    0    0  501 -0.00000000000E+00 -0.00000000000E+00 -0.47274001258E+02  0.47274001258E+02  0.00000000000E+00 0.  1.
         23    2    1    2    0    0  0.00000000000E+00  0.00000000000E+00 -0.43835895722E+01  0.90164412944E+02  0.90057789802E+02 0.  0.
        -13    1    3    3    0    0  0.11972550611E+02 -0.35051903637E+02  0.23443665377E+02  0.43835868452E+02  0.00000000000E+00 0.  1.
         13    1    3    3    0    0 -0.11972550611E+02  0.35051903637E+02 -0.27827254949E+02  0.46328544491E+02  0.00000000000E+00 0. -1.
<mgrwt>
<rscale>  0 0.90057790E+02</rscale>
<asrwt>0</asrwt>
<pdfrwt beam="1">  1        3 0.65985248E-02 0.90057790E+02</pdfrwt>
<pdfrwt beam="2">  1       -3 0.72729233E-02 0.90057790E+02</pdfrwt>
<totfact> 0.36626516E+04</totfact>
</mgrwt>
</event>
<event>
 5    1  0.1270834E+001  0.8209207E+02  0.7546771E-02  0.1323217E+00
         -2   -1    0    0    0  501 -0.00000000000E+00  0.00000000000E+00  0.11831770603E+03  0.11831770603E+03  0.00000000000E+00 0.  1.
          2   -1    0    0  501    0  0.00000000000E+00 -0.00000000000E+00 -0.14239432221E+02  0.14239432221E+02  0.00000000000E+00 0. -1.
         23    2    1    2    0    0  0.00000000000E+00  0.00000000000E+00  0.10407827381E+03  0.13255713825E+03  0.82092069182E+02 0.  0.
        -11    1    3    3    0    0  0.17177290178E+02  0.13085688350E+02 -0.43261277693E+01  0.22022940743E+02  0.00000000000E+00 0. -1.
         11    1    3    3    0    0 -0.17177290178E+02 -0.13085688350E+02  0.10840440158E+03  0.11053419751E+03  0.00000000000E+00 0.  1.
<mgrwt>
<rscale>  0 0.82092069E+02</rscale>
<asrwt>0</asrwt>
<pdfrwt beam="2">  1        2 0.21906820E-02 0.82092069E+02</pdfrwt>
<pdfrwt beam="1">  1       -2 0.18202723E-01 0.82092069E+02</pdfrwt>
<totfact> 0.98559386E+04</totfact>
</mgrwt>
</event>
<event>
 5    1  0.1270834E+001  0.8552521E+02  0.7546771E-02  0.1314065E+00
         -1   -1    0    0    0  501 -0.00000000000E+00  0.00000000000E+00  0.76173562640E+02  0.76173562640E+02  0.00000000000E+00 0.  1.
          1   -1    0    0  501    0  0.00000000000E+00 -0.00000000000E+00 -0.24006232792E+02  0.24006232792E+02  0.00000000000E+00 0. -1.
         23    2    1    2    0    0  0.00000000000E+00  0.00000000000E+00  0.52167329847E+02  0.10017979543E+03  0.85525207451E+02 0.  0.
        -13    1    3    3    0    0  0.12909638566E+02  0.12833418418E+01 -0.21645496705E+02  0.25235555508E+02  0.00000000000E+00 0. -1.
         13    1    3    3    0    0 -0.12909638566E+02 -0.12833418418E+01  0.73812826552E+02  0.74944239924E+02  0.00000000000E+00 0.  1.
<mgrwt>
<rscale>  0 0.85525207E+02</rscale>
<asrwt>0</asrwt>
<pdfrwt beam="2">  1        1 0.36932666E-02 0.85525207E+02</pdfrwt>
<pdfrwt beam="1">  1       -1 0.11719010E-01 0.85525207E+02</pdfrwt>
<totfact> 0.10049027E+05</totfact>
</mgrwt>
</event>
<event>
 5    1  0.1270834E+001  0.9037116E+02  0.7546771E-02  0.1301955E+00
         -2   -1    0    0    0  501 -0.00000000000E+00  0.00000000000E+00  0.24414778670E+03  0.24414778670E+03  0.00000000000E+00 0.  1.
          2   -1    0    0  501    0  0.00000000000E+00 -0.00000000000E+00 -0.83627080221E+01  0.83627080221E+01  0.00000000000E+00 0. -1.
         23    2    1    2    0    0  0.00000000000E+00  0.00000000000E+00  0.23578507868E+03  0.25251049472E+03  0.90371160320E+02 0.  0.
        -11    1    3    3    0    0  0.23527166908E+02  0.27737240333E+02  0.19280776525E+03  0.19620834952E+03  0.00000000000E+00 0.  1.
         11    1    3    3    0    0 -0.23527166908E+02 -0.27737240333E+02  0.42977313432E+02  0.56302145197E+02  0.00000000000E+00 0. -1.
<mgrwt>
<rscale>  0 0.90371160E+02</rscale>
<asrwt>0</asrwt>
<pdfrwt beam="2">  1        2 0.12865707E-02 0.90371160E+02</pdfrwt>
<pdfrwt beam="1">  1       -2 0.37561193E-01 0.90371160E+02</pdfrwt>
<totfact> 0.58147986E+04</totfact>
</mgrwt>
</event>
<event>
 5    1  0.1270834E+001  0.9084313E+02  0.7546771E-02  0.1300823E+00
         -1   -1    0    0    0  501 -0.00000000000E+00  0.00000000000E+00  0.18377217859E+03  0.18377217859E+03  0.00000000000E+00 0.  1.
          1   -1    0    0  501    0  0.00000000000E+00 -0.00000000000E+00 -0.11226502083E+02  0.11226502083E+02  0.00000000000E+00 0. -1.
         23    2    1    2    0    0  0.00000000000E+00  0.00000000000E+00  0.17254567651E+03  0.19499868068E+03  0.90843133937E+02 0.  0.
        -11    1    3    3    0    0  0.27231334780E+02 -0.28367239905E+02  0.37471534355E+02  0.54317232815E+02  0.00000000000E+00 0. -1.
         11    1    3    3    0    0 -0.27231334780E+02  0.28367239905E+02  0.13507414215E+03  0.14068144786E+03  0.00000000000E+00 0.  1.
<mgrwt>
<rscale>  0 0.90843134E+02</rscale>
<asrwt>0</asrwt>
<pdfrwt beam="2">  1        1 0.17271543E-02 0.90843134E+02</pdfrwt>
<pdfrwt beam="1">  1       -1 0.28272641E-01 0.90843134E+02</pdfrwt>
<totfact> 0.71755648E+04</totfact>
</mgrwt>
</event>
<event>
 5    1  0.1270834E+001  0.9335653E+02  0.7546771E-02  0.1294921E+00
          1   -1    0    0  501    0  0.00000000000E+00  0.00000000000E+00  0.32862992508E+02  0.32862992508E+02  0.00000000000E+00 0. -1.
         -1   -1    0    0    0  501 -0.00000000000E+00 -0.00000000000E+00 -0.66301340326E+02  0.66301340326E+02  0.00000000000E+00 0.  1.
         23    2    1    2    0    0  0.00000000000E+00  0.00000000000E+00 -0.33438347818E+02  0.99164332835E+02  0.93356530579E+02 0.  0.
        -11    1    3    3    0    0 -0.34551973937E+02 -0.13015310598E+02  0.13616635424E+02  0.39352890277E+02  0.00000000000E+00 0. -1.
         11    1    3    3    0    0  0.34551973937E+02  0.13015310598E+02 -0.47054983243E+02  0.59811442558E+02  0.00000000000E+00 0.  1.
<mgrwt>
<rscale>  0 0.93356531E+02</rscale>
<asrwt>0</asrwt>
<pdfrwt beam="1">  1        1 0.50558451E-02 0.93356531E+02</pdfrwt>
<pdfrwt beam="2">  1       -1 0.10200206E-01 0.93356531E+02</pdfrwt>
<totfact> 0.82197883E+04</totfact>
</mgrwt>
</event>
<event>
 5    1  0.1270834E+001  0.9130751E+02  0.7546771E-02  0.1299716E+00
         -2   -1    0    0    0  501 -0.00000000000E+00  0.00000000000E+00  0.67843535756E+02  0.67843535756E+02  0.00000000000E+00 0. -1.
          2   -1    0    0  501    0  0.00000000000E+00 -0.00000000000E+00 -0.30721652970E+02  0.30721652970E+02  0.00000000000E+00 0.  1.
         23    2    1    2    0    0  0.00000000000E+00  0.00000000000E+00  0.37121882785E+02  0.98565188726E+02  0.91307514735E+02 0.  0.
        -13    1    3    3    0    0  0.23802754746E+02  0.37265964744E+02  0.30818803797E+02  0.53899183011E+02  0.00000000000E+00 0. -1.
         13    1    3    3    0    0 -0.23802754746E+02 -0.37265964744E+02  0.63030789882E+01  0.44666005715E+02  0.00000000000E+00 0.  1.
<mgrwt>
<rscale>  0 0.91307515E+02</rscale>
<asrwt>0</asrwt>
<pdfrwt beam="2">  1        2 0.47264082E-02 0.91307515E+02</pdfrwt>
<pdfrwt beam="1">  1       -2 0.10437467E-01 0.91307515E+02</pdfrwt>
<totfact> 0.88650869E+04</totfact>
</mgrwt>
</event>
<event>
 5    1  0.1270834E+001  0.9178716E+02  0.7546771E-02  0.1298581E+00
         -2   -1    0    0    0  501 -0.00000000000E+00  0.00000000000E+00  0.16865863175E+02  0.16865863175E+02  0.00000000000E+00 0. -1.
          2   -1    0    0  501    0  0.00000000000E+00 -0.00000000000E+00 -0.12488069929E+03  0.12488069929E+03  0.00000000000E+00 0.  1.
         23    2    1    2    0    0  0.00000000000E+00  0.00000000000E+00 -0.10801483612E+03  0.14174656247E+03  0.91787162227E+02 0.  0.
        -11    1    3    3    0    0  0.19017514103E+02 -0.41382496576E+02 -0.62749269558E+02  0.77534816022E+02  0.00000000000E+00 0.  1.
         11    1    3    3    0    0 -0.19017514103E+02  0.41382496576E+02 -0.45265566559E+02  0.64211746445E+02  0.00000000000E+00 0. -1.
<mgrwt>
<rscale>  0 0.91787162E+02</rscale>
<asrwt>0</asrwt>
<pdfrwt beam="2">  1        2 0.19212415E-01 0.91787162E+02</pdfrwt>
<pdfrwt beam="1">  1       -2 0.25947482E-02 0.91787162E+02</pdfrwt>
<totfact> 0.12916707E+05</totfact>
</mgrwt>
</event>
<event>
 5    1  0.1270834E+001  0.8997141E+02  0.7546771E-02  0.1302921E+00
         -1   -1    0    0    0  501 -0.00000000000E+00  0.00000000000E+00  0.30222402427E+02  0.30222402427E+02  0.00000000000E+00 0.  1.
          1   -1    0    0  501    0  0.00000000000E+00 -0.00000000000E+00 -0.66960717038E+02  0.66960717038E+02  0.00000000000E+00 0. -1.
         23    2    1    2    0    0  0.00000000000E+00  0.00000000000E+00 -0.36738314611E+02  0.97183119465E+02  0.89971411840E+02 0.  0.
        -13    1    3    3    0    0 -0.12975328540E+02  0.29231586858E+02  0.15803197002E+02  0.35673321355E+02  0.00000000000E+00 0.  1.
         13    1    3    3    0    0  0.12975328540E+02 -0.29231586858E+02 -0.52541511613E+02  0.61509798110E+02  0.00000000000E+00 0. -1.
<mgrwt>
<rscale>  0 0.89971412E+02</rscale>
<asrwt>0</asrwt>
<pdfrwt beam="2">  1        1 0.10301649E-01 0.89971412E+02</pdfrwt>
<pdfrwt beam="1">  1       -1 0.46496003E-02 0.89971412E+02</pdfrwt>
<totfact> 0.10165878E+05</totfact>
</mgrwt>
</event>
<event>
 5    1  0.1270834E+001  0.8996586E+02  0.7546771E-02  0.1302934E+00
         -2   -1    0    0    0  501 -0.00000000000E+00  0.00000000000E+00  0.15940097010E+03  0.15940097010E+03  0.00000000000E+00 0.  1.
          2   -1    0    0  501    0  0.00000000000E+00 -0.00000000000E+00 -0.12694174773E+02  0.12694174773E+02  0.00000000000E+00 0. -1.
         23    2    1    2    0    0  0.00000000000E+00  0.00000000000E+00  0.14670679533E+03  0.17209514488E+03  0.89965855157E+02 0.  0.
        -11    1    3    3    0    0  0.33899135525E+00  0.31117288920E+02  0.13548751614E+03  0.13901535028E+03  0.00000000000E+00 0.  1.
         11    1    3    3    0    0 -0.33899135525E+00 -0.31117288920E+02  0.11219279194E+02  0.33079794596E+02  0.00000000000E+00 0. -1.
<mgrwt>
<rscale>  0 0.89965855E+02</rscale>
<asrwt>0</asrwt>
<pdfrwt beam="2">  1        2 0.19529501E-02 0.89965855E+02</pdfrwt>
<pdfrwt beam="1">  1       -2 0.24523225E-01 0.89965855E+02</pdfrwt>
<totfact> 0.70655716E+04</totfact>
</mgrwt>
</event>
<event>
 5    1  0.1270834E+001  0.9137277E+02  0.7546771E-02  0.1299561E+00
          3   -1    0    0  501    0  0.00000000000E+00  0.00000000000E+00  0.28963213312E+02  0.28963213312E+02  0.00000000000E+00 0. -1.
         -3   -1    0    0    0  501 -0.00000000000E+00 -0.00000000000E+00 -0.72065404151E+02  0.72065404151E+02  0.00000000000E+00 0.  1.
         23    2    1    2    0    0  0.00000000000E+00  0.00000000000E+00 -0.43102190839E+02  0.10102861746E+03  0.91372767777E+02 0.  0.
        -13    1    3    3    0    0 -0.25930581948E+02 -0.93294895966E+01 -0.61840958919E+02  0.67703313481E+02  0.00000000000E+00 0.  1.
         13    1    3    3    0    0  0.25930581948E+02  0.93294895966E+01  0.18738768080E+02  0.33325303981E+02  0.00000000000E+00 0. -1.
<mgrwt>
<rscale>  0 0.91372768E+02</rscale>
<asrwt>0</asrwt>
<pdfrwt beam="1">  1        3 0.44558790E-02 0.91372768E+02</pdfrwt>
<pdfrwt beam="2">  1       -3 0.11086985E-01 0.91372768E+02</pdfrwt>
<totfact> 0.34394452E+04</totfact>
</mgrwt>
</event>
<event>
 5    1  0.1270834E+001  0.9085820E+02  0.7546771E-02  0.1300787E+00
          1   -1    0    0  501    0  0.00000000000E+00  0.00000000000E+00  0.21345982881E+03  0.21345982881E+03  0.00000000000E+00 0. -1.
         -1   -1    0    0    0  501 -0.00000000000E+00 -0.00000000000E+00 -0.96683444626E+01  0.96683444626E+01  0.00000000000E+00 0.  1.
         23    2    1    2    0    0  0.00000000000E+00  0.00000000000E+00  0.20379148434E+03  0.22312817327E+03  0.90858200595E+02 0.  0.
        -13    1    3    3    0    0  0.29268795700E+02 -0.28872780949E+02  0.54434676668E+02  0.68216082454E+02  0.00000000000E+00 0. -1.
         13    1    3    3    0    0 -0.29268795700E+02  0.28872780949E+02  0.14935680768E+03  0.15491209082E+03  0.00000000000E+00 0.  1.
<mgrwt>
<rscale>  0 0.90858201E+02</rscale>
<asrwt>0</asrwt>
<pdfrwt beam="1">  1        1 0.32839970E-01 0.90858201E+02</pdfrwt>
<pdfrwt beam="2">  1       -1 0.14874378E-02 0.90858201E+02</pdfrwt>
<totfact> 0.12104486E+05</totfact>
</mgrwt>
</event>
<event>
 5    1  0.1270834E+001  0.8948905E+02  0.7546771E-02  0.1304094E+00
          2   -1    0    0  501    0  0.00000000000E+00  0.00000000000E+00  0.74904659686E+01  0.74904659686E+01  0.00000000000E+00 0. -1.
         -2   -1    0    0    0  501 -0.00000000000E+00 -0.00000000000E+00 -0.26728279321E+03  0.26728279321E+03  0.00000000000E+00 0.  1.
         23    2    1    2    0    0  0.00000000000E+00  0.00000000000E+00 -0.25979232724E+03  0.27477325918E+03  0.89489053331E+02 0.  0.
        -11    1    3    3    0    0 -0.21918166828E+01 -0.43096091097E+02 -0.93566477250E+02  0.10303767657E+03  0.00000000000E+00 0. -1.
         11    1    3    3    0    0  0.21918166828E+01  0.43096091097E+02 -0.16622584999E+03  0.17173558261E+03  0.00000000000E+00 0.  1.
<mgrwt>
<rscale>  0 0.89489053E+02</rscale>
<asrwt>0</asrwt>
<pdfrwt beam="1">  1        2 0.11523795E-02 0.89489053E+02</pdfrwt>
<pdfrwt beam="2">  1       -2 0.41120426E-01 0.89489053E+02</pdfrwt>
<totfact> 0.56961022E+04</totfact>
</mgrwt>
</event>
<event>
 5    1  0.1270834E+001  0.8924253E+02  0.7546771E-02  0.1304696E+00
         -1   -1    0    0    0  501 -0.00000000000E+00  0.00000000000E+00  0.35122096659E+02  0.35122096659E+02  0.00000000000E+00 0.  1.
          1   -1    0    0  501    0  0.00000000000E+00 -0.00000000000E+00 -0.56689589836E+02  0.56689589836E+02  0.00000000000E+00 0. -1.
         23    2    1    2    0    0  0.00000000000E+00  0.00000000000E+00 -0.21567493177E+02  0.91811686495E+02  0.89242529184E+02 0.  0.
        -11    1    3    3    0    0 -0.10578658535E+02 -0.31686111842E+02  0.19650653931E+02  0.38756494939E+02  0.00000000000E+00 0.  1.
         11    1    3    3    0    0  0.10578658535E+02  0.31686111842E+02 -0.41218147108E+02  0.53055191556E+02  0.00000000000E+00 0. -1.
<mgrwt>
<rscale>  0 0.89242529E+02</rscale>
<asrwt>0</asrwt>
<pdfrwt beam="2">  1        1 0.87214753E-02 0.89242529E+02</pdfrwt>
<pdfrwt beam="1">  1       -1 0.54033995E-02 0.89242529E+02</pdfrwt>
<totfact> 0.10140345E+05</totfact>
</mgrwt>
</event>
<event>
 5    1  0.1270834E+001  0.9114739E+02  0.7546771E-02  0.1300097E+00
         -1   -1    0    0    0  501 -0.00000000000E+00  0.00000000000E+00  0.85514786416E+02  0.85514786416E+02  0.00000000000E+00 0.  1.
          1   -1    0    0  501    0  0.00000000000E+00 -0.00000000000E+00 -0.24287746636E+02  0.24287746636E+02  0.00000000000E+00 0. -1.
         23    2    1    2    0    0  0.00000000000E+00  0.00000000000E+00  0.61227039780E+02  0.10980253305E+03  0.91147385396E+02 0.  0.
        -13    1    3    3    0    0  0.36055252117E+02 -0.27222187302E+02  0.37834789326E+02  0.58927921820E+02  0.00000000000E+00 0.  1.
         13    1    3    3    0    0 -0.36055252117E+02  0.27222187302E+02  0.23392250454E+02  0.50874611232E+02  0.00000000000E+00 0. -1.
<mgrwt>
<rscale>  0 0.91147385E+02</rscale>
<asrwt>0</asrwt>
<pdfrwt beam="2">  1        1 0.37365764E-02 0.91147385E+02</pdfrwt>
<pdfrwt beam="1">  1       -1 0.13156121E-01 0.91147385E+02</pdfrwt>
<totfact> 0.83759013E+04</totfact>
</mgrwt>
</event>
<event>
 5    1  0.1270834E+001  0.9236714E+02  0.7546771E-02  0.1297219E+00
         -1   -1    0    0    0  501 -0.00000000000E+00  0.00000000000E+00  0.89986001476E+01  0.89986001476E+01  0.00000000000E+00 0.  1.
          1   -1    0    0  501    0  0.00000000000E+00 -0.00000000000E+00 -0.23702820033E+03  0.23702820033E+03  0.00000000000E+00 0. -1.
         23    2    1    2    0    0  0.00000000000E+00  0.00000000000E+00 -0.22802960018E+03  0.24602680048E+03  0.92367136980E+02 0.  0.
        -13    1    3    3    0    0  0.10670800135E+02  0.34561718165E+02 -0.19049900649E+03  0.19390268129E+03  0.00000000000E+00 0. -1.
         13    1    3    3    0    0 -0.10670800135E+02 -0.34561718165E+02 -0.37530593690E+02  0.52124119185E+02  0.00000000000E+00 0.  1.
<mgrwt>
<rscale>  0 0.92367137E+02</rscale>
<asrwt>0</asrwt>
<pdfrwt beam="2">  1        1 0.36465870E-01 0.92367137E+02</pdfrwt>
<pdfrwt beam="1">  1       -1 0.13844003E-02 0.92367137E+02</pdfrwt>
<totfact> 0.11821445E+05</totfact>
</mgrwt>
</event>
<event>
 5    1  0.1270834E+001  0.8294872E+02  0.7546771E-02  0.1320886E+00
          2   -1    0    0  501    0  0.00000000000E+00  0.00000000000E+00  0.10506945506E+03  0.10506945506E+03  0.00000000000E+00 0. -1.
         -2   -1    0    0    0  501 -0.00000000000E+00 -0.00000000000E+00 -0.16371290409E+02  0.16371290409E+02  0.00000000000E+00 0.  1.
         23    2    1    2    0    0  0.00000000000E+00  0.00000000000E+00  0.88698164651E+02  0.12144074547E+03  0.82948720589E+02 0.  0.
        -11    1    3    3    0    0  0.12737861913E+02  0.34743902281E+02  0.71767451361E+02  0.80746262742E+02  0.00000000000E+00 0.  1.
         11    1    3    3    0    0 -0.12737861913E+02 -0.34743902281E+02  0.16930713289E+02  0.40694482726E+02  0.00000000000E+00 0. -1.
<mgrwt>
<rscale>  0 0.82948721E+02</rscale>
<asrwt>0</asrwt>
<pdfrwt beam="1">  1        2 0.16164531E-01 0.82948721E+02</pdfrwt>
<pdfrwt beam="2">  1       -2 0.25186601E-02 0.82948721E+02</pdfrwt>
<totfact> 0.16119912E+05</totfact>
</mgrwt>
</event>
<event>
 5    1  0.1270834E+001  0.8967002E+02  0.7546771E-02  0.1303653E+00
          1   -1    0    0  501    0  0.00000000000E+00  0.00000000000E+00  0.19161516389E+03  0.19161516389E+03  0.00000000000E+00 0. -1.
         -1   -1    0    0    0  501 -0.00000000000E+00 -0.00000000000E+00 -0.10490704495E+02  0.10490704495E+02  0.00000000000E+00 0.  1.
         23    2    1    2    0    0  0.00000000000E+00  0.00000000000E+00  0.18112445939E+03  0.20210586838E+03  0.89670018649E+02 0.  0.
        -11    1    3    3    0    0 -0.24922034662E+02 -0.36639559060E+02  0.75174129290E+02  0.87262333308E+02  0.00000000000E+00 0.  1.
         11    1    3    3    0    0  0.24922034662E+02  0.36639559060E+02  0.10595033010E+03  0.11484353508E+03  0.00000000000E+00 0. -1.
<mgrwt>
<rscale>  0 0.89670019E+02</rscale>
<asrwt>0</asrwt>
<pdfrwt beam="1">  1        1 0.29479253E-01 0.89670019E+02</pdfrwt>
<pdfrwt beam="2">  1       -1 0.16139547E-02 0.89670019E+02</pdfrwt>
<totfact> 0.12279174E+05</totfact>
</mgrwt>
</event>
<event>
 5    1  0.1270834E+001  0.9151810E+02  0.7546771E-02  0.1299216E+00
         -1   -1    0    0    0  501 -0.00000000000E+00  0.00000000000E+00  0.30646026659E+03  0.30646026659E+03  0.00000000000E+00 0.  1.
          1   -1    0    0  501    0  0.00000000000E+00 -0.00000000000E+00 -0.68325029281E+01  0.68325029281E+01  0.00000000000E+00 0. -1.
         23    2    1    2    0    0  0.00000000000E+00  0.00000000000E+00  0.29962776366E+03  0.31329276952E+03  0.91518100260E+02 0.  0.
        -11    1    3    3    0    0 -0.31413355057E+02  0.23770980164E+02  0.70114315724E+02  0.80423103915E+02  0.00000000000E+00 0. -1.
         11    1    3    3    0    0  0.31413355057E+02 -0.23770980164E+02  0.22951344794E+03  0.23286966560E+03  0.00000000000E+00 0.  1.
<mgrwt>
<rscale>  0 0.91518100E+02</rscale>
<asrwt>0</asrwt>
<pdfrwt beam="2">  1        1 0.10511545E-02 0.91518100E+02</pdfrwt>
<pdfrwt beam="1">  1       -1 0.47147723E-01 0.91518100E+02</pdfrwt>
<totfact> 0.59491185E+04</totfact>
</mgrwt>
</event>
<event>
 5    1  0.1270834E+001  0.8969568E+02  0.7546771E-02  0.1303590E+00
          2   -1    0    0  501    0  0.00000000000E+00  0.00000000000E+00  0.10295367271E+02  0.10295367271E+02  0.00000000000E+00 0. -1.
         -2   -1    0    0    0  501 -0.00000000000E+00 -0.00000000000E+00 -0.19536251781E+03  0.19536251781E+03  0.00000000000E+00 0.  1.
         23    2    1    2    0    0  0.00000000000E+00  0.00000000000E+00 -0.18506715054E+03  0.20565788508E+03  0.89695682657E+02 0.  0.
        -13    1    3    3    0    0  0.37113824818E+02  0.43365686034E+01 -0.35668958291E+02  0.51657684863E+02  0.00000000000E+00 0. -1.
         13    1    3    3    0    0 -0.37113824818E+02 -0.43365686034E+01 -0.14939819225E+03  0.15400020022E+03  0.00000000000E+00 0.  1.
<mgrwt>
<rscale>  0 0.89695683E+02</rscale>
<asrwt>0</asrwt>
<pdfrwt beam="1">  1        2 0.15839029E-02 0.89695683E+02</pdfrwt>
<pdfrwt beam="2">  1       -2 0.30055768E-01 0.89695683E+02</pdfrwt>
<totfact> 0.65635237E+04</totfact>
</mgrwt>
</event>
<event>
 5    1  0.1270834E+001  0.9759268E+02  0.7546771E-02  0.1285441E+00
          2   -1    0    0  501    0  0.00000000000E+00  0.00000000000E+00  0.11267824915E+03  0.11267824915E+03  0.00000000000E+00 0. -1.
         -2   -1    0    0    0  501 -0.00000000000E+00 -0.00000000000E+00 -0.21131699899E+02  0.21131699899E+02  0.00000000000E+00 0.  1.
         23    2    1    2    0    0  0.00000000000E+00  0.00000000000E+00  0.91546549250E+02  0.13380994905E+03  0.97592683050E+02 0.  0.
        -11    1    3    3    0    0  0.27818126154E+02 -0.26667875269E+02  0.47302359579E+01  0.38825234659E+02  0.00000000000E+00 0.  1.
         11    1    3    3    0    0 -0.27818126154E+02  0.26667875269E+02  0.86816313292E+02  0.94984714390E+02  0.00000000000E+00 0. -1.
<mgrwt>
<rscale>  0 0.97592683E+02</rscale>
<asrwt>0</asrwt>
<pdfrwt beam="1">  1        2 0.17335115E-01 0.97592683E+02</pdfrwt>
<pdfrwt beam="2">  1       -2 0.32510308E-02 0.97592683E+02</pdfrwt>
<totfact> 0.10554183E+05</totfact>
</mgrwt>
</event>
<event>
 5    1  0.1270834E+001  0.9014040E+02  0.7546771E-02  0.1302512E+00
          2   -1    0    0  501    0  0.00000000000E+00  0.00000000000E+00  0.15558185977E+02  0.15558185977E+02  0.00000000000E+00 0. -1.
         -2   -1    0    0    0  501 -0.00000000000E+00 -0.00000000000E+00 -0.13056295779E+03  0.13056295779E+03  0.00000000000E+00 0.  1.
         23    2    1    2    0    0  0.00000000000E+00  0.00000000000E+00 -0.11500477181E+03  0.14612114377E+03  0.90140396694E+02 0.  0.
        -13    1    3    3    0    0 -0.51815975383E+01 -0.44722026686E+02 -0.60908172164E+02  0.75741098885E+02  0.00000000000E+00 0.  1.
         13    1    3    3    0    0  0.51815975383E+01  0.44722026686E+02 -0.54096599650E+02  0.70380044883E+02  0.00000000000E+00 0. -1.
<mgrwt>
<rscale>  0 0.90140397E+02</rscale>
<asrwt>0</asrwt>
<pdfrwt beam="1">  1        2 0.23935670E-02 0.90140397E+02</pdfrwt>
<pdfrwt beam="2">  1       -2 0.20086609E-01 0.90140397E+02</pdfrwt>
<totfact> 0.75481491E+04</totfact>
</mgrwt>
</event>
<event>
 5    1  0.1270834E+001  0.9149779E+02  0.7546771E-02  0.1299265E+00
         -4   -1    0    0    0  501 -0.00000000000E+00  0.00000000000E+00  0.32355576359E+03  0.32355576359E+03  0.00000000000E+00 0.  1.
          4   -1    0    0  501    0  0.00000000000E+00 -0.00000000000E+00 -0.64686264050E+01  0.64686264050E+01  0.00000000000E+00 0. -1.
         23    2    1    2    0    0  0.00000000000E+00  0.00000000000E+00  0.31708713719E+03  0.33002439000E+03  0.91497789173E+02 0.  0.
        -13    1    3    3    0    0 -0.18412572959E+02 -0.39474408340E+02  0.20900290098E+03  0.21349347618E+03  0.00000000000E+00 0.  1.
         13    1    3    3    0    0  0.18412572959E+02  0.39474408340E+02  0.10808423621E+03  0.11653091382E+03  0.00000000000E+00 0. -1.
<mgrwt>
<rscale>  0 0.91497789E+02</rscale>
<asrwt>0</asrwt>
<pdfrwt beam="2">  1        4 0.99517355E-03 0.91497789E+02</pdfrwt>
<pdfrwt beam="1">  1       -4 0.49777797E-01 0.91497789E+02</pdfrwt>
<totfact> 0.16784403E+04</totfact>
</mgrwt>
</event>
<event>
 5    1  0.1270834E+001  0.9075429E+02  0.7546771E-02  0.1301035E+00
          2   -1    0    0  501    0  0.00000000000E+00  0.00000000000E+00  0.17025234743E+02  0.17025234743E+02  0.00000000000E+00 0. -1.
         -2   -1    0    0    0  501 -0.00000000000E+00 -0.00000000000E+00 -0.12094313176E+03  0.12094313176E+03  0.00000000000E+00 0.  1.
         23    2    1    2    0    0  0.00000000000E+00  0.00000000000E+00 -0.10391789701E+03  0.13796836650E+03  0.90754288244E+02 0.  0.
        -11    1    3    3    0    0 -0.33957174961E+02  0.30030111945E+02 -0.55070006665E+02  0.71327435036E+02  0.00000000000E+00 0.  1.
         11    1    3    3    0    0  0.33957174961E+02 -0.30030111945E+02 -0.48847890348E+02  0.66640931463E+02  0.00000000000E+00 0. -1.
<mgrwt>
<rscale>  0 0.90754288E+02</rscale>
<asrwt>0</asrwt>
<pdfrwt beam="1">  1        2 0.26192668E-02 0.90754288E+02</pdfrwt>
<pdfrwt beam="2">  1       -2 0.18606636E-01 0.90754288E+02</pdfrwt>
<totfact> 0.76107782E+04</totfact>
</mgrwt>
</event>
<event>
 5    1  0.1270834E+001  0.8357421E+02  0.7546771E-02  0.1319204E+00
          3   -1    0    0  501    0  0.00000000000E+00  0.00000000000E+00  0.13477995393E+03  0.13477995393E+03  0.00000000000E+00 0. -1.
         -3   -1    0    0    0  501 -0.00000000000E+00 -0.00000000000E+00 -0.12955650418E+02  0.12955650418E+02  0.00000000000E+00 0.  1.
         23    2    1    2    0    0  0.00000000000E+00  0.00000000000E+00  0.12182430351E+03  0.14773560435E+03  0.83574205745E+02 0.  0.
        -11    1    3    3    0    0 -0.93063243569E+00  0.25282301153E+02  0.21212211423E+01  0.25388194253E+02  0.00000000000E+00 0.  1.
         11    1    3    3    0    0  0.93063243569E+00 -0.25282301153E+02  0.11970308237E+03  0.12234741009E+03  0.00000000000E+00 0. -1.
<mgrwt>
<rscale>  0 0.83574206E+02</rscale>
<asrwt>0</asrwt>
<pdfrwt beam="1">  1        3 0.20735377E-01 0.83574206E+02</pdfrwt>
<pdfrwt beam="2">  1       -3 0.19931771E-02 0.83574206E+02</pdfrwt>
<totfact> 0.39749484E+04</totfact>
</mgrwt>
</event>
<event>
 5    1  0.1270834E+001  0.9396409E+02  0.7546771E-02  0.1293526E+00
         -2   -1    0    0    0  501 -0.00000000000E+00  0.00000000000E+00  0.21929903916E+02  0.21929903916E+02  0.00000000000E+00 0.  1.
          2   -1    0    0  501    0  0.00000000000E+00 -0.00000000000E+00 -0.10065308147E+03  0.10065308147E+03  0.00000000000E+00 0. -1.
         23    2    1    2    0    0  0.00000000000E+00  0.00000000000E+00 -0.78723177553E+02  0.12258298538E+03  0.93964086872E+02 0.  0.
        -13    1    3    3    0    0 -0.41806270803E+02 -0.18919155638E+02 -0.26211024765E+02  0.52846159252E+02  0.00000000000E+00 0.  1.
         13    1    3    3    0    0  0.41806270803E+02  0.18919155638E+02 -0.52512152788E+02  0.69736826132E+02  0.00000000000E+00 0. -1.
<mgrwt>
<rscale>  0 0.93964087E+02</rscale>
<asrwt>0</asrwt>
<pdfrwt beam="2">  1        2 0.15485090E-01 0.93964087E+02</pdfrwt>
<pdfrwt beam="1">  1       -2 0.33738313E-02 0.93964087E+02</pdfrwt>
<totfact> 0.11311455E+05</totfact>
</mgrwt>
</event>
<event>
 5    1  0.1270834E+001  0.8790923E+02  0.7546771E-02  0.1307995E+00
          1   -1    0    0  501    0  0.00000000000E+00  0.00000000000E+00  0.18053582898E+02  0.18053582898E+02  0.00000000000E+00 0. -1.
         -1   -1    0    0    0  501 -0.00000000000E+00 -0.00000000000E+00 -0.10701522520E+03  0.10701522520E+03  0.00000000000E+00 0.  1.
         23    2    1    2    0    0  0.00000000000E+00  0.00000000000E+00 -0.88961642301E+02  0.12506880810E+03  0.87909231359E+02 0.  0.
        -13    1    3    3    0    0 -0.11668684335E+02  0.42352625467E+02 -0.42416595197E+02  0.61066116842E+02  0.00000000000E+00 0. -1.
         13    1    3    3    0    0  0.11668684335E+02 -0.42352625467E+02 -0.46545047104E+02  0.64002691256E+02  0.00000000000E+00 0.  1.
<mgrwt>
<rscale>  0 0.87909231E+02</rscale>
<asrwt>0</asrwt>
<pdfrwt beam="1">  1        1 0.27774743E-02 0.87909231E+02</pdfrwt>
<pdfrwt beam="2">  1       -1 0.16463881E-01 0.87909231E+02</pdfrwt>
<totfact> 0.88250095E+04</totfact>
</mgrwt>
</event>
<event>
 5    1  0.1270834E+001  0.9061171E+02  0.7546771E-02  0.1301377E+00
         -2   -1    0    0    0  501 -0.00000000000E+00  0.00000000000E+00  0.22818252749E+02  0.22818252749E+02  0.00000000000E+00 0.  1.
          2   -1    0    0  501    0  0.00000000000E+00 -0.00000000000E+00 -0.89955197733E+02  0.89955197733E+02  0.00000000000E+00 0. -1.
         23    2    1    2    0    0  0.00000000000E+00  0.00000000000E+00 -0.67136944984E+02  0.11277345048E+03  0.90611708690E+02 0.  0.
        -13    1    3    3    0    0  0.19595328312E+02 -0.16204569542E+02 -0.80236965374E+02  0.84169683248E+02  0.00000000000E+00 0. -1.
         13    1    3    3    0    0 -0.19595328312E+02  0.16204569542E+02  0.13100020390E+02  0.28603767233E+02  0.00000000000E+00 0.  1.
<mgrwt>
<rscale>  0 0.90611709E+02</rscale>
<asrwt>0</asrwt>
<pdfrwt beam="2">  1        2 0.13839261E-01 0.90611709E+02</pdfrwt>
<pdfrwt beam="1">  1       -2 0.35105005E-02 0.90611709E+02</pdfrwt>
<totfact> 0.12089952E+05</totfact>
</mgrwt>
</event>
<event>
 5    1  0.1270834E+001  0.9138856E+02  0.7546771E-02  0.1299524E+00
         -1   -1    0    0    0  501 -0.00000000000E+00  0.00000000000E+00  0.29032614933E+02  0.29032614933E+02  0.00000000000E+00 0.  1.
          1   -1    0    0  501    0  0.00000000000E+00 -0.00000000000E+00 -0.71917993835E+02  0.71917993835E+02  0.00000000000E+00 0. -1.
         23    2    1    2    0    0  0.00000000000E+00  0.00000000000E+00 -0.42885378902E+02  0.10095060877E+03  0.91388564313E+02 0.  0.
        -13    1    3    3    0    0  0.27451259445E+02  0.33032126737E+02 -0.42134830169E+01  0.43156071196E+02  0.00000000000E+00 0.  1.
         13    1    3    3    0    0 -0.27451259445E+02 -0.33032126737E+02 -0.38671895885E+02  0.57794537573E+02  0.00000000000E+00 0. -1.
<mgrwt>
<rscale>  0 0.91388564E+02</rscale>
<asrwt>0</asrwt>
<pdfrwt beam="2">  1        1 0.11064307E-01 0.91388564E+02</pdfrwt>
<pdfrwt beam="1">  1       -1 0.44665562E-02 0.91388564E+02</pdfrwt>
<totfact> 0.98448472E+04</totfact>
</mgrwt>
</event>
<event>
 5    1  0.1270834E+001  0.9382331E+02  0.7546771E-02  0.1293848E+00
         -1   -1    0    0    0  501 -0.00000000000E+00  0.00000000000E+00  0.14426742017E+02  0.14426742017E+02  0.00000000000E+00 0.  1.
          1   -1    0    0  501    0  0.00000000000E+00 -0.00000000000E+00 -0.15254334749E+03  0.15254334749E+03  0.00000000000E+00 0. -1.
         23    2    1    2    0    0  0.00000000000E+00  0.00000000000E+00 -0.13811660548E+03  0.16697008951E+03  0.93823313110E+02 0.  0.
        -11    1    3    3    0    0  0.36793640780E+02  0.27474494348E+02 -0.51981001210E+02  0.69358808585E+02  0.00000000000E+00 0.  1.
         11    1    3    3    0    0 -0.36793640780E+02 -0.27474494348E+02 -0.86135604266E+02  0.97611280925E+02  0.00000000000E+00 0. -1.
<mgrwt>
<rscale>  0 0.93823313E+02</rscale>
<asrwt>0</asrwt>
<pdfrwt beam="2">  1        1 0.23468208E-01 0.93823313E+02</pdfrwt>
<pdfrwt beam="1">  1       -1 0.22194987E-02 0.93823313E+02</pdfrwt>
<totfact> 0.10410786E+05</totfact>
</mgrwt>
</event>
<event>
 5    1  0.1270834E+001  0.9220378E+02  0.7546771E-02  0.1297601E+00
         -4   -1    0    0    0  501 -0.00000000000E+00  0.00000000000E+00  0.16879264688E+03  0.16879264688E+03  0.00000000000E+00 0.  1.
          4   -1    0    0  501    0  0.00000000000E+00 -0.00000000000E+00 -0.12591687526E+02  0.12591687526E+02  0.00000000000E+00 0. -1.
         23    2    1    2    0    0  0.00000000000E+00  0.00000000000E+00  0.15620095936E+03  0.18138433441E+03  0.92203780102E+02 0.  0.
        -11    1    3    3    0    0 -0.31417692766E+02  0.91636747468E+01  0.14197701811E+03  0.14570009618E+03  0.00000000000E+00 0.  1.
         11    1    3    3    0    0  0.31417692766E+02 -0.91636747468E+01  0.14223941240E+02  0.35684238229E+02  0.00000000000E+00 0. -1.
<mgrwt>
<rscale>  0 0.92203780E+02</rscale>
<asrwt>0</asrwt>
<pdfrwt beam="2">  1        4 0.19371828E-02 0.92203780E+02</pdfrwt>
<pdfrwt beam="1">  1       -4 0.25968098E-01 0.92203780E+02</pdfrwt>
<totfact> 0.21531273E+04</totfact>
</mgrwt>
</event>
<event>
 5    1  0.1270834E+001  0.8971828E+02  0.7546771E-02  0.1303535E+00
          2   -1    0    0  501    0  0.00000000000E+00  0.00000000000E+00  0.41206274249E+02  0.41206274249E+02  0.00000000000E+00 0. -1.
         -2   -1    0    0    0  501 -0.00000000000E+00 -0.00000000000E+00 -0.48835823151E+02  0.48835823151E+02  0.00000000000E+00 0.  1.
         23    2    1    2    0    0  0.00000000000E+00  0.00000000000E+00 -0.76295489015E+01  0.90042097400E+02  0.89718277334E+02 0.  0.
        -13    1    3    3    0    0  0.79155631408E+00  0.37381912798E+02  0.21059927627E+02  0.42913337292E+02  0.00000000000E+00 0. -1.
         13    1    3    3    0    0 -0.79155631408E+00 -0.37381912798E+02 -0.28689476529E+02  0.47128760108E+02  0.00000000000E+00 0.  1.
<mgrwt>
<rscale>  0 0.89718277E+02</rscale>
<asrwt>0</asrwt>
<pdfrwt beam="1">  1        2 0.63394268E-02 0.89718277E+02</pdfrwt>
<pdfrwt beam="2">  1       -2 0.75132035E-02 0.89718277E+02</pdfrwt>
<totfact> 0.10069949E+05</totfact>
</mgrwt>
</event>
<event>
 5    1  0.1270834E+001  0.9231930E+02  0.7546771E-02  0.1297330E+00
         -2   -1    0    0    0  501 -0.00000000000E+00  0.00000000000E+00  0.49445819662E+03  0.49445819662E+03  0.00000000000E+00 0.  1.
          2   -1    0    0  501    0  0.00000000000E+00 -0.00000000000E+00 -0.43091879651E+01  0.43091879651E+01  0.00000000000E+00 0. -1.
         23    2    1    2    0    0  0.00000000000E+00  0.00000000000E+00  0.49014900866E+03  0.49876738459E+03  0.92319300477E+02 0.  0.
        -11    1    3    3    0    0 -0.16274062401E+02 -0.42828414364E+02  0.27544246219E+03  0.27922691160E+03  0.00000000000E+00 0.  1.
         11    1    3    3    0    0  0.16274062401E+02  0.42828414364E+02  0.21470654647E+03  0.21954047299E+03  0.00000000000E+00 0. -1.
<mgrwt>
<rscale>  0 0.92319300E+02</rscale>
<asrwt>0</asrwt>
<pdfrwt beam="2">  1        2 0.66295239E-03 0.92319300E+02</pdfrwt>
<pdfrwt beam="1">  1       -2 0.76070447E-01 0.92319300E+02</pdfrwt>
<totfact> 0.35456438E+04</totfact>
</mgrwt>
</event>
<event>
 5    1  0.1270834E+001  0.8972603E+02  0.7546771E-02  0.1303517E+00
         -2   -1    0    0    0  501 -0.00000000000E+00  0.00000000000E+00  0.18638821225E+03  0.18638821225E+03  0.00000000000E+00 0.  1.
          2   -1    0    0  501    0  0.00000000000E+00 -0.00000000000E+00 -0.10798377132E+02  0.10798377132E+02  0.00000000000E+00 0. -1.
         23    2    1    2    0    0  0.00000000000E+00  0.00000000000E+00  0.17558983512E+03  0.19718658938E+03  0.89726032094E+02 0.  0.
        -11    1    3    3    0    0 -0.33785428085E+02 -0.27710479623E+02  0.65451769763E+02  0.78697268040E+02  0.00000000000E+00 0.  1.
         11    1    3    3    0    0  0.33785428085E+02  0.27710479623E+02  0.11013806536E+03  0.11848932134E+03  0.00000000000E+00 0. -1.
<mgrwt>
<rscale>  0 0.89726032E+02</rscale>
<asrwt>0</asrwt>
<pdfrwt beam="2">  1        2 0.16612889E-02 0.89726032E+02</pdfrwt>
<pdfrwt beam="1">  1       -2 0.28675107E-01 0.89726032E+02</pdfrwt>
<totfact> 0.66885189E+04</totfact>
</mgrwt>
</event>
<event>
 5    1  0.1270834E+001  0.1026674E+03  0.7546771E-02  0.1274785E+00
          4   -1    0    0  501    0  0.00000000000E+00  0.00000000000E+00  0.43506494649E+02  0.43506494649E+02  0.00000000000E+00 0. -1.
         -4   -1    0    0    0  501 -0.00000000000E+00 -0.00000000000E+00 -0.60569107823E+02  0.60569107823E+02  0.00000000000E+00 0.  1.
         23    2    1    2    0    0  0.00000000000E+00  0.00000000000E+00 -0.17062613174E+02  0.10407560247E+03  0.10266741577E+03 0.  0.
        -13    1    3    3    0    0  0.33013390006E+02 -0.14543690296E+02 -0.45552719114E+02  0.58107254846E+02  0.00000000000E+00 0.  1.
         13    1    3    3    0    0 -0.33013390006E+02  0.14543690296E+02  0.28490105940E+02  0.45968347627E+02  0.00000000000E+00 0. -1.
<mgrwt>
<rscale>  0 0.10266742E+03</rscale>
<asrwt>0</asrwt>
<pdfrwt beam="1">  1        4 0.66933069E-02 0.10266742E+03</pdfrwt>
<pdfrwt beam="2">  1       -4 0.93183243E-02 0.10266742E+03</pdfrwt>
<totfact> 0.18945684E+04</totfact>
</mgrwt>
</event>
<event>
 5    1  0.1270834E+001  0.8692832E+02  0.7546771E-02  0.1310465E+00
         -3   -1    0    0    0  501 -0.00000000000E+00  0.00000000000E+00  0.38673059713E+02  0.38673059713E+02  0.00000000000E+00 0.  1.
          3   -1    0    0  501    0  0.00000000000E+00 -0.00000000000E+00 -0.48848815816E+02  0.48848815816E+02  0.00000000000E+00 0. -1.
         23    2    1    2    0    0  0.00000000000E+00  0.00000000000E+00 -0.10175756103E+02  0.87521875529E+02  0.86928319228E+02 0.  0.
        -13    1    3    3    0    0  0.15573706236E+02  0.26569556947E+02  0.25791582634E+02  0.40170728361E+02  0.00000000000E+00 0.  1.
         13    1    3    3    0    0 -0.15573706236E+02 -0.26569556947E+02 -0.35967338737E+02  0.47351147168E+02  0.00000000000E+00 0. -1.
<mgrwt>
<rscale>  0 0.86928319E+02</rscale>
<asrwt>0</asrwt>
<pdfrwt beam="2">  1        3 0.75152024E-02 0.86928319E+02</pdfrwt>
<pdfrwt beam="1">  1       -3 0.59497015E-02 0.86928319E+02</pdfrwt>
<totfact> 0.40547892E+04</totfact>
</mgrwt>
</event>
<event>
 5    1  0.1270834E+001  0.8952062E+02  0.7546771E-02  0.1304017E+00
          3   -1    0    0  501    0  0.00000000000E+00  0.00000000000E+00  0.61563338731E+02  0.61563338731E+02  0.00000000000E+00 0. -1.
         -3   -1    0    0    0  501 -0.00000000000E+00 -0.00000000000E+00 -0.32543484741E+02  0.32543484741E+02  0.00000000000E+00 0.  1.
         23    2    1    2    0    0  0.00000000000E+00  0.00000000000E+00  0.29019853991E+02  0.94106823472E+02  0.89520624988E+02 0.  0.
        -13    1    3    3    0    0  0.17823496818E+02 -0.49392397441E+01  0.57358537043E+02  0.60266698099E+02  0.00000000000E+00 0. -1.
         13    1    3    3    0    0 -0.17823496818E+02  0.49392397441E+01 -0.28338683053E+02  0.33840125372E+02  0.00000000000E+00 0.  1.
<mgrwt>
<rscale>  0 0.89520625E+02</rscale>
<asrwt>0</asrwt>
<pdfrwt beam="1">  1        3 0.94712829E-02 0.89520625E+02</pdfrwt>
<pdfrwt beam="2">  1       -3 0.50066900E-02 0.89520625E+02</pdfrwt>
<totfact> 0.36907048E+04</totfact>
</mgrwt>
</event>
<event>
 5    1  0.1270834E+001  0.9414522E+02  0.7546771E-02  0.1293113E+00
         -3   -1    0    0    0  501 -0.00000000000E+00  0.00000000000E+00  0.13355569296E+03  0.13355569296E+03  0.00000000000E+00 0.  1.
          3   -1    0    0  501    0  0.00000000000E+00 -0.00000000000E+00 -0.16591061703E+02  0.16591061703E+02  0.00000000000E+00 0. -1.
         23    2    1    2    0    0  0.00000000000E+00  0.00000000000E+00  0.11696463126E+03  0.15014675467E+03  0.94145222774E+02 0.  0.
        -13    1    3    3    0    0 -0.62024565215E+00 -0.46397350057E+02  0.45850608683E+02  0.65233251594E+02  0.00000000000E+00 0. -1.
         13    1    3    3    0    0  0.62024565215E+00  0.46397350057E+02  0.71114022578E+02  0.84913503073E+02  0.00000000000E+00 0.  1.
<mgrwt>
<rscale>  0 0.94145223E+02</rscale>
<asrwt>0</asrwt>
<pdfrwt beam="2">  1        3 0.25524711E-02 0.94145223E+02</pdfrwt>
<pdfrwt beam="1">  1       -3 0.20547029E-01 0.94145223E+02</pdfrwt>
<totfact> 0.28689780E+04</totfact>
</mgrwt>
</event>
<event>
 5    1  0.1270834E+001  0.9081030E+02  0.7546771E-02  0.1300901E+00
         -1   -1    0    0    0  501 -0.00000000000E+00  0.00000000000E+00  0.18388296306E+03  0.18388296306E+03  0.00000000000E+00 0.  1.
          1   -1    0    0  501    0  0.00000000000E+00 -0.00000000000E+00 -0.11211629053E+02  0.11211629053E+02  0.00000000000E+00 0. -1.
         23    2    1    2    0    0  0.00000000000E+00  0.00000000000E+00  0.17267133401E+03  0.19509459212E+03  0.90810298337E+02 0.  0.
        -13    1    3    3    0    0  0.29500990657E+02  0.17940315918E+02  0.22987219260E+02  0.41479822014E+02  0.00000000000E+00 0. -1.
         13    1    3    3    0    0 -0.29500990657E+02 -0.17940315918E+02  0.14968411475E+03  0.15361477010E+03  0.00000000000E+00 0.  1.
<mgrwt>
<rscale>  0 0.90810298E+02</rscale>
<asrwt>0</asrwt>
<pdfrwt beam="2">  1        1 0.17248662E-02 0.90810298E+02</pdfrwt>
<pdfrwt beam="1">  1       -1 0.28289684E-01 0.90810298E+02</pdfrwt>
<totfact> 0.71811472E+04</totfact>
</mgrwt>
</event>
<event>
 5    1  0.1270834E+001  0.9292001E+02  0.7546771E-02  0.1295931E+00
          1   -1    0    0  501    0  0.00000000000E+00  0.00000000000E+00  0.23626064584E+03  0.23626064584E+03  0.00000000000E+00 0. -1.
         -1   -1    0    0    0  501 -0.00000000000E+00 -0.00000000000E+00 -0.91362312951E+01  0.91362312951E+01  0.00000000000E+00 0.  1.
         23    2    1    2    0    0  0.00000000000E+00  0.00000000000E+00  0.22712441455E+03  0.24539687714E+03  0.92920006594E+02 0.  0.
        -13    1    3    3    0    0 -0.42292018903E+02 -0.63739421154E+01  0.65638654305E+02  0.78343314584E+02  0.00000000000E+00 0.  1.
         13    1    3    3    0    0  0.42292018903E+02  0.63739421154E+01  0.16148576024E+03  0.16705356255E+03  0.00000000000E+00 0. -1.
<mgrwt>
<rscale>  0 0.92920007E+02</rscale>
<asrwt>0</asrwt>
<pdfrwt beam="1">  1        1 0.36347787E-01 0.92920007E+02</pdfrwt>
<pdfrwt beam="2">  1       -1 0.14055742E-02 0.92920007E+02</pdfrwt>
<totfact> 0.11626458E+05</totfact>
</mgrwt>
</event>
<event>
 5    1  0.1270834E+001  0.9129634E+02  0.7546771E-02  0.1299742E+00
         -2   -1    0    0    0  501 -0.00000000000E+00  0.00000000000E+00  0.79449874671E+01  0.79449874671E+01  0.00000000000E+00 0.  1.
          2   -1    0    0  501    0  0.00000000000E+00 -0.00000000000E+00 -0.26227293982E+03  0.26227293982E+03  0.00000000000E+00 0. -1.
         23    2    1    2    0    0  0.00000000000E+00  0.00000000000E+00 -0.25432795235E+03  0.27021792729E+03  0.91296335519E+02 0.  0.
        -13    1    3    3    0    0 -0.11813603900E+02 -0.43196312148E+02 -0.10097818555E+03  0.11046301000E+03  0.00000000000E+00 0.  1.
         13    1    3    3    0    0  0.11813603900E+02  0.43196312148E+02 -0.15334976680E+03  0.15975491729E+03  0.00000000000E+00 0. -1.
<mgrwt>
<rscale>  0 0.91296336E+02</rscale>
<asrwt>0</asrwt>
<pdfrwt beam="2">  1        2 0.40349677E-01 0.91296336E+02</pdfrwt>
<pdfrwt beam="1">  1       -2 0.12223059E-02 0.91296336E+02</pdfrwt>
<totfact> 0.17027737E+05</totfact>
</mgrwt>
</event>
<event>
 5    1  0.1270834E+001  0.8981764E+02  0.7546771E-02  0.1303294E+00
         -2   -1    0    0    0  501 -0.00000000000E+00  0.00000000000E+00  0.58703899720E+02  0.58703899720E+02  0.00000000000E+00 0.  1.
          2   -1    0    0  501    0  0.00000000000E+00 -0.00000000000E+00 -0.34355503710E+02  0.34355503710E+02  0.00000000000E+00 0. -1.
         23    2    1    2    0    0  0.00000000000E+00  0.00000000000E+00  0.24348396010E+02  0.93059403430E+02  0.89817638460E+02 0.  0.
        -11    1    3    3    0    0  0.19828083114E+02 -0.99945335036E+01 -0.28270043736E+02  0.35947725279E+02  0.00000000000E+00 0. -1.
         11    1    3    3    0    0 -0.19828083114E+02  0.99945335036E+01  0.52618439746E+02  0.57111678151E+02  0.00000000000E+00 0.  1.
<mgrwt>
<rscale>  0 0.89817638E+02</rscale>
<asrwt>0</asrwt>
<pdfrwt beam="2">  1        2 0.52854621E-02 0.89817638E+02</pdfrwt>
<pdfrwt beam="1">  1       -2 0.90313692E-02 0.89817638E+02</pdfrwt>
<totfact> 0.95809494E+04</totfact>
</mgrwt>
</event>
<event>
 5    1  0.1270834E+001  0.9061677E+02  0.7546771E-02  0.1301365E+00
         -1   -1    0    0    0  501 -0.00000000000E+00  0.00000000000E+00  0.29038328993E+02  0.29038328993E+02  0.00000000000E+00 0.  1.
          1   -1    0    0  501    0  0.00000000000E+00 -0.00000000000E+00 -0.70694487819E+02  0.70694487819E+02  0.00000000000E+00 0. -1.
         23    2    1    2    0    0  0.00000000000E+00  0.00000000000E+00 -0.41656158827E+02  0.99732816812E+02  0.90616770970E+02 0.  0.
        -13    1    3    3    0    0  0.37452992479E+02  0.17300071648E+02 -0.21331957955E+00  0.41256085974E+02  0.00000000000E+00 0.  1.
         13    1    3    3    0    0 -0.37452992479E+02 -0.17300071648E+02 -0.41442839247E+02  0.58476730838E+02  0.00000000000E+00 0. -1.
<mgrwt>
<rscale>  0 0.90616771E+02</rscale>
<asrwt>0</asrwt>
<pdfrwt beam="2">  1        1 0.10876075E-01 0.90616771E+02</pdfrwt>
<pdfrwt beam="1">  1       -1 0.44674352E-02 0.90616771E+02</pdfrwt>
<totfact> 0.10050890E+05</totfact>
</mgrwt>
</event>
<event>
 5    1  0.1270834E+001  0.9158983E+02  0.7546771E-02  0.1299047E+00
          1   -1    0    0  501    0  0.00000000000E+00  0.00000000000E+00  0.19037668029E+02  0.19037668029E+02  0.00000000000E+00 0. -1.
         -1   -1    0    0    0  501 -0.00000000000E+00 -0.00000000000E+00 -0.11015920660E+03  0.11015920660E+03  0.00000000000E+00 0.  1.
         23    2    1    2    0    0  0.00000000000E+00  0.00000000000E+00 -0.91121538575E+02  0.12919687463E+03  0.91589833621E+02 0.  0.
        -11    1    3    3    0    0  0.33023296530E+02  0.26156733178E+02 -0.70891268039E+02  0.82463838671E+02  0.00000000000E+00 0.  1.
         11    1    3    3    0    0 -0.33023296530E+02 -0.26156733178E+02 -0.20230270536E+02  0.46733035962E+02  0.00000000000E+00 0. -1.
<mgrwt>
<rscale>  0 0.91589834E+02</rscale>
<asrwt>0</asrwt>
<pdfrwt beam="1">  1        1 0.29288720E-02 0.91589834E+02</pdfrwt>
<pdfrwt beam="2">  1       -1 0.16947570E-01 0.91589834E+02</pdfrwt>
<totfact> 0.78957509E+04</totfact>
</mgrwt>
</event>
<event>
 5    1  0.1270834E+001  0.9509828E+02  0.7546771E-02  0.1290955E+00
         -1   -1    0    0    0  501 -0.00000000000E+00  0.00000000000E+00  0.42580828528E+02  0.42580828528E+02  0.00000000000E+00 0.  1.
          1   -1    0    0  501    0  0.00000000000E+00 -0.00000000000E+00 -0.53097147377E+02  0.53097147377E+02  0.00000000000E+00 0. -1.
         23    2    1    2    0    0  0.00000000000E+00  0.00000000000E+00 -0.10516318849E+02  0.95677975905E+02  0.95098276068E+02 0.  0.
        -11    1    3    3    0    0  0.15262096682E+01  0.14069962315E+02  0.40412687701E+02  0.42819136875E+02  0.00000000000E+00 0.  1.
         11    1    3    3    0    0 -0.15262096682E+01 -0.14069962315E+02 -0.50929006550E+02  0.52858839030E+02  0.00000000000E+00 0. -1.
<mgrwt>
<rscale>  0 0.95098276E+02</rscale>
<asrwt>0</asrwt>
<pdfrwt beam="2">  1        1 0.81687920E-02 0.95098276E+02</pdfrwt>
<pdfrwt beam="1">  1       -1 0.65508967E-02 0.95098276E+02</pdfrwt>
<totfact> 0.84091931E+04</totfact>
</mgrwt>
</event>
<event>
 5    1  0.1270834E+001  0.9133086E+02  0.7546771E-02  0.1299660E+00
          1   -1    0    0  501    0  0.00000000000E+00  0.00000000000E+00  0.28514956526E+02  0.28514956526E+02  0.00000000000E+00 0. -1.
         -1   -1    0    0    0  501 -0.00000000000E+00 -0.00000000000E+00 -0.73131144420E+02  0.73131144420E+02  0.00000000000E+00 0.  1.
         23    2    1    2    0    0  0.00000000000E+00  0.00000000000E+00 -0.44616187895E+02  0.10164610095E+03  0.91330857958E+02 0.  0.
        -13    1    3    3    0    0 -0.10351085474E+02 -0.43789123511E+02 -0.13637191578E+02  0.47017074585E+02  0.00000000000E+00 0.  1.
         13    1    3    3    0    0  0.10351085474E+02  0.43789123511E+02 -0.30978996317E+02  0.54629026361E+02  0.00000000000E+00 0. -1.
<mgrwt>
<rscale>  0 0.91330858E+02</rscale>
<asrwt>0</asrwt>
<pdfrwt beam="1">  1        1 0.43869164E-02 0.91330858E+02</pdfrwt>
<pdfrwt beam="2">  1       -1 0.11250945E-01 0.91330858E+02</pdfrwt>
<totfact> 0.85555062E+04</totfact>
</mgrwt>
</event>
<event>
 5    1  0.1270834E+001  0.9127956E+02  0.7546771E-02  0.1299782E+00
          2   -1    0    0  501    0  0.00000000000E+00  0.00000000000E+00  0.70085070105E+02  0.70085070105E+02  0.00000000000E+00 0. -1.
         -2   -1    0    0    0  501 -0.00000000000E+00 -0.00000000000E+00 -0.29720876282E+02  0.29720876282E+02  0.00000000000E+00 0.  1.
         23    2    1    2    0    0  0.00000000000E+00  0.00000000000E+00  0.40364193823E+02  0.99805946387E+02  0.91279563930E+02 0.  0.
        -11    1    3    3    0    0  0.18329916626E+02 -0.31660995967E+01 -0.25388028926E+02  0.31473195626E+02  0.00000000000E+00 0.  1.
         11    1    3    3    0    0 -0.18329916626E+02  0.31660995967E+01  0.65752222749E+02  0.68332750761E+02  0.00000000000E+00 0. -1.
<mgrwt>
<rscale>  0 0.91279564E+02</rscale>
<asrwt>0</asrwt>
<pdfrwt beam="1">  1        2 0.10782318E-01 0.91279564E+02</pdfrwt>
<pdfrwt beam="2">  1       -2 0.45724425E-02 0.91279564E+02</pdfrwt>
<totfact> 0.11030834E+05</totfact>
</mgrwt>
</event>
<event>
 5    1  0.1270834E+001  0.9037861E+02  0.7546771E-02  0.1301937E+00
         -2   -1    0    0    0  501 -0.00000000000E+00  0.00000000000E+00  0.99588165965E+01  0.99588165965E+01  0.00000000000E+00 0.  1.
          2   -1    0    0  501    0  0.00000000000E+00 -0.00000000000E+00 -0.20505178764E+03  0.20505178764E+03  0.00000000000E+00 0. -1.
         23    2    1    2    0    0  0.00000000000E+00  0.00000000000E+00 -0.19509297104E+03  0.21501060423E+03  0.90378606890E+02 0.  0.
        -13    1    3    3    0    0 -0.96467202910E+01 -0.42294153738E+02 -0.12765924520E+03  0.13482854868E+03  0.00000000000E+00 0. -1.
         13    1    3    3    0    0  0.96467202910E+01  0.42294153738E+02 -0.67433725838E+02  0.80182055556E+02  0.00000000000E+00 0.  1.
<mgrwt>
<rscale>  0 0.90378607E+02</rscale>
<asrwt>0</asrwt>
<pdfrwt beam="2">  1        2 0.31546425E-01 0.90378607E+02</pdfrwt>
<pdfrwt beam="1">  1       -2 0.15321258E-02 0.90378607E+02</pdfrwt>
<totfact> 0.15981693E+05</totfact>
</mgrwt>
</event>
<event>
 5    1  0.1270834E+001  0.9084398E+02  0.7546771E-02  0.1300821E+00
         -1   -1    0    0    0  501 -0.00000000000E+00  0.00000000000E+00  0.58941292982E+01  0.58941292982E+01  0.00000000000E+00 0.  1.
          1   -1    0    0  501    0  0.00000000000E+00 -0.00000000000E+00 -0.35003596295E+03  0.35003596295E+03  0.00000000000E+00 0. -1.
         23    2    1    2    0    0  0.00000000000E+00  0.00000000000E+00 -0.34414183365E+03  0.35593009225E+03  0.90843981081E+02 0.  0.
        -13    1    3    3    0    0 -0.20912698489E+01  0.44442006516E+02 -0.20791439861E+03  0.21262140650E+03  0.00000000000E+00 0. -1.
         13    1    3    3    0    0  0.20912698489E+01 -0.44442006516E+02 -0.13622743504E+03  0.14330868575E+03  0.00000000000E+00 0.  1.
<mgrwt>
<rscale>  0 0.90843981E+02</rscale>
<asrwt>0</asrwt>
<pdfrwt beam="2">  1        1 0.53851703E-01 0.90843981E+02</pdfrwt>
<pdfrwt beam="1">  1       -1 0.90678884E-03 0.90843981E+02</pdfrwt>
<totfact> 0.13312301E+05</totfact>
</mgrwt>
</event>
<event>
 5    1  0.1270834E+001  0.9080527E+02  0.7546771E-02  0.1300913E+00
         -2   -1    0    0    0  501 -0.00000000000E+00  0.00000000000E+00  0.51355920523E+02  0.51355920523E+02  0.00000000000E+00 0.  1.
          2   -1    0    0  501    0  0.00000000000E+00 -0.00000000000E+00 -0.40139470587E+02  0.40139470587E+02  0.00000000000E+00 0. -1.
         23    2    1    2    0    0  0.00000000000E+00  0.00000000000E+00  0.11216449936E+02  0.91495391110E+02  0.90805274325E+02 0.  0.
        -13    1    3    3    0    0  0.18961602003E+02 -0.39392815123E+02 -0.67349045047E+01  0.44234547274E+02  0.00000000000E+00 0. -1.
         13    1    3    3    0    0 -0.18961602003E+02  0.39392815123E+02  0.17951354441E+02  0.47260843836E+02  0.00000000000E+00 0.  1.
<mgrwt>
<rscale>  0 0.90805274E+02</rscale>
<asrwt>0</asrwt>
<pdfrwt beam="2">  1        2 0.61753032E-02 0.90805274E+02</pdfrwt>
<pdfrwt beam="1">  1       -2 0.79009108E-02 0.90805274E+02</pdfrwt>
<totfact> 0.96609395E+04</totfact>
</mgrwt>
</event>
<event>
 5    1  0.1270834E+001  0.8993752E+02  0.7546771E-02  0.1303003E+00
         -2   -1    0    0    0  501 -0.00000000000E+00  0.00000000000E+00  0.13485848123E+02  0.13485848123E+02  0.00000000000E+00 0.  1.
          2   -1    0    0  501    0  0.00000000000E+00 -0.00000000000E+00 -0.14994899329E+03  0.14994899329E+03  0.00000000000E+00 0. -1.
         23    2    1    2    0    0  0.00000000000E+00  0.00000000000E+00 -0.13646314517E+03  0.16343484142E+03  0.89937519417E+02 0.  0.
        -11    1    3    3    0    0  0.36468319263E+02  0.50424816737E+01 -0.11515713521E+03  0.12089884499E+03  0.00000000000E+00 0. -1.
         11    1    3    3    0    0 -0.36468319263E+02 -0.50424816737E+01 -0.21306009965E+02  0.42535996425E+02  0.00000000000E+00 0.  1.
<mgrwt>
<rscale>  0 0.89937519E+02</rscale>
<asrwt>0</asrwt>
<pdfrwt beam="2">  1        2 0.23069076E-01 0.89937519E+02</pdfrwt>
<pdfrwt beam="1">  1       -2 0.20747458E-02 0.89937519E+02</pdfrwt>
<totfact> 0.14507558E+05</totfact>
</mgrwt>
</event>
<event>
 5    1  0.1270834E+001  0.9297063E+02  0.7546771E-02  0.1295813E+00
          2   -1    0    0  501    0  0.00000000000E+00  0.00000000000E+00  0.24567890810E+02  0.24567890810E+02  0.00000000000E+00 0.  1.
         -2   -1    0    0    0  501 -0.00000000000E+00 -0.00000000000E+00 -0.87955641272E+02  0.87955641272E+02  0.00000000000E+00 0. -1.
         23    2    1    2    0    0  0.00000000000E+00  0.00000000000E+00 -0.63387750462E+02  0.11252353208E+03  0.92970631726E+02 0.  0.
        -11    1    3    3    0    0 -0.31589393242E+02 -0.13449179645E+02 -0.69623505723E+02  0.77628620674E+02  0.00000000000E+00 0. -1.
         11    1    3    3    0    0  0.31589393242E+02  0.13449179645E+02  0.62357552605E+01  0.34894911409E+02  0.00000000000E+00 0.  1.
<mgrwt>
<rscale>  0 0.92970632E+02</rscale>
<asrwt>0</asrwt>
<pdfrwt beam="1">  1        2 0.37796755E-02 0.92970632E+02</pdfrwt>
<pdfrwt beam="2">  1       -2 0.13531637E-01 0.92970632E+02</pdfrwt>
<totfact> 0.78950547E+04</totfact>
</mgrwt>
</event>
<event>
 5    1  0.1270834E+001  0.8413132E+02  0.7546771E-02  0.1317720E+00
          2   -1    0    0  501    0  0.00000000000E+00  0.00000000000E+00  0.19247176112E+03  0.19247176112E+03  0.00000000000E+00 0. -1.
         -2   -1    0    0    0  501 -0.00000000000E+00 -0.00000000000E+00 -0.91936581608E+01  0.91936581608E+01  0.00000000000E+00 0.  1.
         23    2    1    2    0    0  0.00000000000E+00  0.00000000000E+00  0.18327810296E+03  0.20166541928E+03  0.84131315866E+02 0.  0.
        -11    1    3    3    0    0  0.31575963994E+02 -0.23388143911E+02  0.55645820722E+02  0.68121245890E+02  0.00000000000E+00 0. -1.
         11    1    3    3    0    0 -0.31575963994E+02  0.23388143911E+02  0.12763228224E+03  0.13354417339E+03  0.00000000000E+00 0.  1.
<mgrwt>
<rscale>  0 0.84131316E+02</rscale>
<asrwt>0</asrwt>
<pdfrwt beam="1">  1        2 0.29611037E-01 0.84131316E+02</pdfrwt>
<pdfrwt beam="2">  1       -2 0.14144091E-02 0.84131316E+02</pdfrwt>
<totfact> 0.18925391E+05</totfact>
</mgrwt>
</event>
<event>
 5    1  0.1270834E+001  0.9091779E+02  0.7546771E-02  0.1300644E+00
          3   -1    0    0  501    0  0.00000000000E+00  0.00000000000E+00  0.32876282063E+02  0.32876282063E+02  0.00000000000E+00 0. -1.
         -3   -1    0    0    0  501 -0.00000000000E+00 -0.00000000000E+00 -0.62857203294E+02  0.62857203294E+02  0.00000000000E+00 0.  1.
         23    2    1    2    0    0  0.00000000000E+00  0.00000000000E+00 -0.29980921231E+02  0.95733485358E+02  0.90917790233E+02 0.  0.
        -13    1    3    3    0    0  0.16757116559E+02 -0.13849878913E+02 -0.57028680171E+02  0.61031880713E+02  0.00000000000E+00 0.  1.
         13    1    3    3    0    0 -0.16757116559E+02  0.13849878913E+02  0.27047758940E+02  0.34701604645E+02  0.00000000000E+00 0. -1.
<mgrwt>
<rscale>  0 0.90917790E+02</rscale>
<asrwt>0</asrwt>
<pdfrwt beam="1">  1        3 0.50578896E-02 0.90917790E+02</pdfrwt>
<pdfrwt beam="2">  1       -3 0.96703390E-02 0.90917790E+02</pdfrwt>
<totfact> 0.35263818E+04</totfact>
</mgrwt>
</event>
<event>
 5    1  0.1270834E+001  0.9403764E+02  0.7546771E-02  0.1293358E+00
          1   -1    0    0  501    0  0.00000000000E+00  0.00000000000E+00  0.36978866537E+03  0.36978866537E+03  0.00000000000E+00 0. -1.
         -1   -1    0    0    0  501 -0.00000000000E+00 -0.00000000000E+00 -0.59784672697E+01  0.59784672697E+01  0.00000000000E+00 0.  1.
         23    2    1    2    0    0  0.00000000000E+00  0.00000000000E+00  0.36381019810E+03  0.37576713264E+03  0.94037639967E+02 0.  0.
        -11    1    3    3    0    0  0.46976994993E+02 -0.10937246409E+01  0.17529653833E+03  0.18148529044E+03  0.00000000000E+00 0.  1.
         11    1    3    3    0    0 -0.46976994993E+02  0.10937246409E+01  0.18851365977E+03  0.19428184221E+03  0.00000000000E+00 0. -1.
<mgrwt>
<rscale>  0 0.94037640E+02</rscale>
<asrwt>0</asrwt>
<pdfrwt beam="1">  1        1 0.56890546E-01 0.94037640E+02</pdfrwt>
<pdfrwt beam="2">  1       -1 0.91976448E-03 0.94037640E+02</pdfrwt>
<totfact> 0.12259939E+05</totfact>
</mgrwt>
</event>
<event>
 5    1  0.1270834E+001  0.1036316E+03  0.7546771E-02  0.1272839E+00
         -2   -1    0    0    0  501 -0.00000000000E+00  0.00000000000E+00  0.33397162495E+02  0.33397162495E+02  0.00000000000E+00 0.  1.
          2   -1    0    0  501    0  0.00000000000E+00 -0.00000000000E+00 -0.80392433726E+02  0.80392433726E+02  0.00000000000E+00 0. -1.
         23    2    1    2    0    0  0.00000000000E+00  0.00000000000E+00 -0.46995271230E+02  0.11378959622E+03  0.10363163943E+03 0.  0.
        -13    1    3    3    0    0 -0.42496923871E+02  0.29538719048E+02 -0.20729686572E+02  0.55751631069E+02  0.00000000000E+00 0.  1.
         13    1    3    3    0    0  0.42496923871E+02 -0.29538719048E+02 -0.26265584658E+02  0.58037965151E+02  0.00000000000E+00 0. -1.
<mgrwt>
<rscale>  0 0.10363164E+03</rscale>
<asrwt>0</asrwt>
<pdfrwt beam="2">  1        2 0.12368067E-01 0.10363164E+03</pdfrwt>
<pdfrwt beam="1">  1       -2 0.51380250E-02 0.10363164E+03</pdfrwt>
<totfact> 0.80261108E+04</totfact>
</mgrwt>
</event>
<event>
 5    1  0.1270834E+001  0.9024207E+02  0.7546771E-02  0.1302267E+00
         -2   -1    0    0    0  501 -0.00000000000E+00  0.00000000000E+00  0.96049775400E+01  0.96049775400E+01  0.00000000000E+00 0.  1.
          2   -1    0    0  501    0  0.00000000000E+00 -0.00000000000E+00 -0.21196381338E+03  0.21196381338E+03  0.00000000000E+00 0. -1.
         23    2    1    2    0    0  0.00000000000E+00  0.00000000000E+00 -0.20235883584E+03  0.22156879092E+03  0.90242067059E+02 0.  0.
        -13    1    3    3    0    0 -0.33925927017E+02 -0.20154252219E+02 -0.15490137145E+03  0.15984866995E+03  0.00000000000E+00 0. -1.
         13    1    3    3    0    0  0.33925927017E+02  0.20154252219E+02 -0.47457464383E+02  0.61720120966E+02  0.00000000000E+00 0.  1.
<mgrwt>
<rscale>  0 0.90242067E+02</rscale>
<asrwt>0</asrwt>
<pdfrwt beam="2">  1        2 0.32609816E-01 0.90242067E+02</pdfrwt>
<pdfrwt beam="1">  1       -2 0.14776889E-02 0.90242067E+02</pdfrwt>
<totfact> 0.16241047E+05</totfact>
</mgrwt>
</event>
<event>
 5    1  0.1270834E+001  0.9010370E+02  0.7546771E-02  0.1302601E+00
          3   -1    0    0  501    0  0.00000000000E+00  0.00000000000E+00  0.24704715437E+02  0.24704715437E+02  0.00000000000E+00 0. -1.
         -3   -1    0    0    0  501 -0.00000000000E+00 -0.00000000000E+00 -0.82157155847E+02  0.82157155847E+02  0.00000000000E+00 0.  1.
         23    2    1    2    0    0  0.00000000000E+00  0.00000000000E+00 -0.57452440410E+02  0.10686187128E+03  0.90103699286E+02 0.  0.
        -13    1    3    3    0    0 -0.20153035156E+01 -0.34879415528E+02 -0.62459887831E+02  0.71567259719E+02  0.00000000000E+00 0.  1.
         13    1    3    3    0    0  0.20153035156E+01  0.34879415528E+02  0.50074474204E+01  0.35294611565E+02  0.00000000000E+00 0. -1.
<mgrwt>
<rscale>  0 0.90103699E+02</rscale>
<asrwt>0</asrwt>
<pdfrwt beam="1">  1        3 0.38007254E-02 0.90103699E+02</pdfrwt>
<pdfrwt beam="2">  1       -3 0.12639563E-01 0.90103699E+02</pdfrwt>
<totfact> 0.35287155E+04</totfact>
</mgrwt>
</event>
<event>
 5    1  0.1270834E+001  0.9143058E+02  0.7546771E-02  0.1299424E+00
         -2   -1    0    0    0  501 -0.00000000000E+00  0.00000000000E+00  0.14364813275E+02  0.14364813275E+02  0.00000000000E+00 0.  1.
          2   -1    0    0  501    0  0.00000000000E+00 -0.00000000000E+00 -0.14548658068E+03  0.14548658068E+03  0.00000000000E+00 0. -1.
         23    2    1    2    0    0  0.00000000000E+00  0.00000000000E+00 -0.13112176741E+03  0.15985139396E+03  0.91430576189E+02 0.  0.
        -13    1    3    3    0    0  0.20370653034E+02 -0.39527076026E+02 -0.47014148592E+02  0.64712312677E+02  0.00000000000E+00 0.  1.
         13    1    3    3    0    0 -0.20370653034E+02  0.39527076026E+02 -0.84107618817E+02  0.95139081282E+02  0.00000000000E+00 0. -1.
<mgrwt>
<rscale>  0 0.91430576E+02</rscale>
<asrwt>0</asrwt>
<pdfrwt beam="2">  1        2 0.22382552E-01 0.91430576E+02</pdfrwt>
<pdfrwt beam="1">  1       -2 0.22099711E-02 0.91430576E+02</pdfrwt>
<totfact> 0.13732767E+05</totfact>
</mgrwt>
</event>
<event>
 5    1  0.1270834E+001  0.8755738E+02  0.7546771E-02  0.1308877E+00
          1   -1    0    0  501    0  0.00000000000E+00  0.00000000000E+00  0.57644183133E+02  0.57644183133E+02  0.00000000000E+00 0. -1.
         -1   -1    0    0    0  501 -0.00000000000E+00 -0.00000000000E+00 -0.33248347194E+02  0.33248347194E+02  0.00000000000E+00 0.  1.
         23    2    1    2    0    0  0.00000000000E+00  0.00000000000E+00  0.24395835939E+02  0.90892530327E+02  0.87557382659E+02 0.  0.
        -13    1    3    3    0    0  0.72470061634E+01 -0.28261291327E+02 -0.21685126022E+02  0.36351951479E+02  0.00000000000E+00 0.  1.
         13    1    3    3    0    0 -0.72470061634E+01  0.28261291327E+02  0.46080961961E+02  0.54540578847E+02  0.00000000000E+00 0. -1.
<mgrwt>
<rscale>  0 0.87557383E+02</rscale>
<asrwt>0</asrwt>
<pdfrwt beam="1">  1        1 0.88683358E-02 0.87557383E+02</pdfrwt>
<pdfrwt beam="2">  1       -1 0.51151304E-02 0.87557383E+02</pdfrwt>
<totfact> 0.10715256E+05</totfact>
</mgrwt>
</event>
<event>
 5    1  0.1270834E+001  0.9102986E+02  0.7546771E-02  0.1300377E+00
          2   -1    0    0  501    0  0.00000000000E+00  0.00000000000E+00  0.49137025475E+01  0.49137025475E+01  0.00000000000E+00 0.  1.
         -2   -1    0    0    0  501 -0.00000000000E+00 -0.00000000000E+00 -0.42159830315E+03  0.42159830315E+03  0.00000000000E+00 0. -1.
         23    2    1    2    0    0  0.00000000000E+00  0.00000000000E+00 -0.41668460060E+03  0.42651200570E+03  0.91029855678E+02 0.  0.
        -11    1    3    3    0    0 -0.12036682186E+02  0.42590020396E+02 -0.25810854535E+03  0.26187556728E+03  0.00000000000E+00 0.  1.
         11    1    3    3    0    0  0.12036682186E+02 -0.42590020396E+02 -0.15857605525E+03  0.16463643842E+03  0.00000000000E+00 0. -1.
<mgrwt>
<rscale>  0 0.91029856E+02</rscale>
<asrwt>0</asrwt>
<pdfrwt beam="1">  1        2 0.75595359E-03 0.91029856E+02</pdfrwt>
<pdfrwt beam="2">  1       -2 0.64861333E-01 0.91029856E+02</pdfrwt>
<totfact> 0.41347906E+04</totfact>
</mgrwt>
</event>
<event>
 5    1  0.1270834E+001  0.8708026E+02  0.7546771E-02  0.1310080E+00
          1   -1    0    0  501    0  0.00000000000E+00  0.00000000000E+00  0.30939923681E+03  0.30939923681E+03  0.00000000000E+00 0. -1.
         -1   -1    0    0    0  501 -0.00000000000E+00 -0.00000000000E+00 -0.61271742007E+01  0.61271742007E+01  0.00000000000E+00 0.  1.
         23    2    1    2    0    0  0.00000000000E+00  0.00000000000E+00  0.30327206261E+03  0.31552641101E+03  0.87080262321E+02 0.  0.
        -11    1    3    3    0    0  0.35060140726E+02 -0.17349878200E+02  0.82362650857E+02  0.91180250040E+02  0.00000000000E+00 0.  1.
         11    1    3    3    0    0 -0.35060140726E+02  0.17349878200E+02  0.22090941175E+03  0.22434616097E+03  0.00000000000E+00 0. -1.
<mgrwt>
<rscale>  0 0.87080262E+02</rscale>
<asrwt>0</asrwt>
<pdfrwt beam="1">  1        1 0.47599870E-01 0.87080262E+02</pdfrwt>
<pdfrwt beam="2">  1       -1 0.94264243E-03 0.87080262E+02</pdfrwt>
<totfact> 0.14560884E+05</totfact>
</mgrwt>
</event>
<event>
 5    1  0.1270834E+001  0.9063257E+02  0.7546771E-02  0.1301327E+00
          3   -1    0    0  501    0  0.00000000000E+00  0.00000000000E+00  0.27665983924E+03  0.27665983924E+03  0.00000000000E+00 0. -1.
         -3   -1    0    0    0  501 -0.00000000000E+00 -0.00000000000E+00 -0.74227095375E+01  0.74227095375E+01  0.00000000000E+00 0.  1.
         23    2    1    2    0    0  0.00000000000E+00  0.00000000000E+00  0.26923712970E+03  0.28408254878E+03  0.90632568702E+02 0.  0.
        -11    1    3    3    0    0 -0.76938414086E+01  0.37210861670E+02  0.57221182477E+02  0.68688478989E+02  0.00000000000E+00 0.  1.
         11    1    3    3    0    0  0.76938414086E+01 -0.37210861670E+02  0.21201594723E+03  0.21539406979E+03  0.00000000000E+00 0. -1.
<mgrwt>
<rscale>  0 0.90632569E+02</rscale>
<asrwt>0</asrwt>
<pdfrwt beam="1">  1        3 0.42563044E-01 0.90632569E+02</pdfrwt>
<pdfrwt beam="2">  1       -3 0.11419555E-02 0.90632569E+02</pdfrwt>
<totfact> 0.25059710E+04</totfact>
</mgrwt>
</event>
<event>
 5    1  0.1270834E+001  0.9125664E+02  0.7546771E-02  0.1299837E+00
         -2   -1    0    0    0  501 -0.00000000000E+00  0.00000000000E+00  0.45533586695E+02  0.45533586695E+02  0.00000000000E+00 0.  1.
          2   -1    0    0  501    0  0.00000000000E+00 -0.00000000000E+00 -0.45723251689E+02  0.45723251689E+02  0.00000000000E+00 0. -1.
         23    2    1    2    0    0  0.00000000000E+00  0.00000000000E+00 -0.18966499351E+00  0.91256838384E+02  0.91256641288E+02 0.  0.
        -13    1    3    3    0    0  0.43560825786E+02 -0.74247323998E+01 -0.11464617402E+02  0.45652049752E+02  0.00000000000E+00 0. -1.
         13    1    3    3    0    0 -0.43560825786E+02  0.74247323998E+01  0.11274952409E+02  0.45604788632E+02  0.00000000000E+00 0.  1.
<mgrwt>
<rscale>  0 0.91256641E+02</rscale>
<asrwt>0</asrwt>
<pdfrwt beam="2">  1        2 0.70343464E-02 0.91256641E+02</pdfrwt>
<pdfrwt beam="1">  1       -2 0.70051672E-02 0.91256641E+02</pdfrwt>
<totfact> 0.98502453E+04</totfact>
</mgrwt>
</event>
