<event>
 5    1  0.1287303E-005  0.2000409E+02  0.7818608E-02  0.1745247E+00
          3   -1    0    0  501    0  0.00000000000E+00  0.00000000000E+00  0.26995494883E+02  0.26995655076E+02  0.93000000000E-01 0. -1.
         -3   -1    0    0    0  501 -0.00000000000E+00 -0.00000000000E+00 -0.37050821508E+01  0.37062491476E+01  0.93000000000E-01 0.  1.
       1023    2    1    2    0    0  0.00000000000E+00  0.00000000000E+00  0.23290412733E+02  0.30701904224E+02  0.20004089525E+02 0.  0.
        -13    1    3    3    0    0 -0.32091564051E+01 -0.94723159549E+01  0.11766760262E+02  0.15443162692E+02  0.10570000000E+00 0.  1.
         13    1    3    3    0    0  0.32091564051E+01  0.94723159549E+01  0.11523652471E+02  0.15258741532E+02  0.10570000000E+00 0. -1.
<mgrwt>
<rscale>  0 0.20004090E+02</rscale>
<asrwt>0</asrwt>
<pdfrwt beam="1">  1        3 0.41532553E-02 0.20004090E+02</pdfrwt>
<pdfrwt beam="2">  1       -3 0.57011471E-03 0.20004090E+02</pdfrwt>
<totfact> 0.17218031E+06</totfact>
</mgrwt>
</event>
<event>
 5    1  0.1287303E-005  0.2000583E+02  0.7818608E-02  0.1745212E+00
          3   -1    0    0  501    0  0.00000000000E+00  0.00000000000E+00  0.14414085750E+01  0.14444056495E+01  0.93000000000E-01 0.  1.
         -3   -1    0    0    0  501 -0.00000000000E+00 -0.00000000000E+00 -0.69341891048E+02  0.69341953413E+02  0.93000000000E-01 0. -1.
       1023    2    1    2    0    0  0.00000000000E+00  0.00000000000E+00 -0.67900482473E+02  0.70786359063E+02  0.20005826882E+02 0.  0.
        -13    1    3    3    0    0 -0.72935939479E+01  0.68447470724E+01 -0.33969510849E+02  0.35411663545E+02  0.10570000000E+00 0.  1.
         13    1    3    3    0    0  0.72935939479E+01 -0.68447470724E+01 -0.33930971624E+02  0.35374695518E+02  0.10570000000E+00 0. -1.
<mgrwt>
<rscale>  0 0.20005827E+02</rscale>
<asrwt>0</asrwt>
<pdfrwt beam="1">  1        3 0.22199056E-03 0.20005827E+02</pdfrwt>
<pdfrwt beam="2">  1       -3 0.10668216E-01 0.20005827E+02</pdfrwt>
<totfact> 0.15273816E+06</totfact>
</mgrwt>
</event>
<event>
 5    1  0.1287303E-005  0.2000508E+02  0.7818608E-02  0.1745227E+00
          3   -1    0    0  501    0  0.00000000000E+00  0.00000000000E+00  0.96428515761E+02  0.96428560607E+02  0.93000000000E-01 0. -1.
         -3   -1    0    0    0  501 -0.00000000000E+00 -0.00000000000E+00 -0.10354353575E+01  0.10396034723E+01  0.93000000000E-01 0.  1.
       1023    2    1    2    0    0  0.00000000000E+00  0.00000000000E+00  0.95393080403E+02  0.97468164080E+02  0.20005079862E+02 0.  0.
        -13    1    3    3    0    0 -0.99849821401E+01  0.56473426431E+00  0.48399880662E+02  0.49422448480E+02  0.10570000000E+00 0. -1.
         13    1    3    3    0    0  0.99849821401E+01 -0.56473426431E+00  0.46993199741E+02  0.48045715600E+02  0.10570000000E+00 0.  1.
<mgrwt>
<rscale>  0 0.20005080E+02</rscale>
<asrwt>0</asrwt>
<pdfrwt beam="1">  1        3 0.14835489E-01 0.20005080E+02</pdfrwt>
<pdfrwt beam="2">  1       -3 0.15962173E-03 0.20005080E+02</pdfrwt>
<totfact> 0.14258510E+06</totfact>
</mgrwt>
</event>
<event>
 5    1  0.1287303E-005  0.2000321E+02  0.7818608E-02  0.1745264E+00
          3   -1    0    0  501    0  0.00000000000E+00  0.00000000000E+00  0.22120885317E+02  0.22121080810E+02  0.93000000000E-01 0.  1.
         -3   -1    0    0    0  501 -0.00000000000E+00 -0.00000000000E+00 -0.45213709942E+01  0.45223273508E+01  0.93000000000E-01 0. -1.
       1023    2    1    2    0    0  0.00000000000E+00  0.00000000000E+00  0.17599514323E+02  0.26643408161E+02  0.20003207094E+02 0.  0.
        -13    1    3    3    0    0 -0.71208526502E+01 -0.70210957388E+01  0.89812808365E+01  0.13441610982E+02  0.10570000000E+00 0. -1.
         13    1    3    3    0    0  0.71208526502E+01  0.70210957388E+01  0.86182334864E+01  0.13201797179E+02  0.10570000000E+00 0.  1.
<mgrwt>
<rscale>  0 0.20003207E+02</rscale>
<asrwt>0</asrwt>
<pdfrwt beam="1">  1        3 0.34033017E-02 0.20003207E+02</pdfrwt>
<pdfrwt beam="2">  1       -3 0.69568414E-03 0.20003207E+02</pdfrwt>
<totfact> 0.17459979E+06</totfact>
</mgrwt>
</event>
<event>
 5    1  0.1287303E-005  0.2001222E+02  0.7818608E-02  0.1745085E+00
         -3   -1    0    0    0  501 -0.00000000000E+00  0.00000000000E+00  0.11895043193E+03  0.11895046828E+03  0.93000000000E-01 0.  1.
          3   -1    0    0  501    0  0.00000000000E+00 -0.00000000000E+00 -0.83910885989E+00  0.84424681151E+00  0.93000000000E-01 0. -1.
       1023    2    1    2    0    0  0.00000000000E+00  0.00000000000E+00  0.11811132307E+03  0.11979471510E+03  0.20012224459E+02 0.  0.
        -13    1    3    3    0    0  0.63476910810E+00 -0.99847879184E+01  0.59716516316E+02  0.60548925795E+02  0.10570000000E+00 0.  1.
         13    1    3    3    0    0 -0.63476910810E+00  0.99847879184E+01  0.58394806753E+02  0.59245789300E+02  0.10570000000E+00 0. -1.
<mgrwt>
<rscale>  0 0.20012224E+02</rscale>
<asrwt>0</asrwt>
<pdfrwt beam="2">  1        3 0.12949175E-03 0.20012224E+02</pdfrwt>
<pdfrwt beam="1">  1       -3 0.18300456E-01 0.20012224E+02</pdfrwt>
<totfact> 0.13512333E+06</totfact>
</mgrwt>
</event>
<event>
 4    1  0.1287303E-005  0.2066490E+02  0.7818608E-02  0.1732420E+00
         -3   -1    0    0    0  501 -0.00000000000E+00  0.00000000000E+00  0.64072883581E+01  0.64079632570E+01  0.93000000000E-01 0.  1.
          3   -1    0    0  501    0  0.00000000000E+00 -0.00000000000E+00 -0.16660512605E+02  0.16660772169E+02  0.93000000000E-01 0. -1.
        -13    1    1    2    0    0 -0.26317349273E+01 -0.99903200227E+01 -0.52668933427E+01  0.11596717676E+02  0.10570000000E+00 0.  1.
         13    1    1    2    0    0  0.26317349273E+01  0.99903200227E+01 -0.49863309047E+01  0.11472017750E+02  0.10570000000E+00 0. -1.
<mgrwt>
<rscale>  0 0.20664896E+02</rscale>
<asrwt>0</asrwt>
<pdfrwt beam="2">  1        3 0.25632276E-02 0.20664896E+02</pdfrwt>
<pdfrwt beam="1">  1       -3 0.98580856E-03 0.20664896E+02</pdfrwt>
<totfact> 0.16477703E+06</totfact>
</mgrwt>
</event>
<event>
 5    1  0.1287303E-005  0.2000173E+02  0.7818608E-02  0.1745294E+00
         -3   -1    0    0    0  501 -0.00000000000E+00  0.00000000000E+00  0.10081260422E+02  0.10081689377E+02  0.93000000000E-01 0.  1.
          3   -1    0    0  501    0  0.00000000000E+00 -0.00000000000E+00 -0.99202529029E+01  0.99206888197E+01  0.93000000000E-01 0. -1.
       1023    2    1    2    0    0  0.00000000000E+00  0.00000000000E+00  0.16100751911E+00  0.20002378197E+02  0.20001730178E+02 0.  0.
        -13    1    3    3    0    0  0.78659506225E+01  0.61750050948E+01  0.32932060051E-01  0.10000806174E+02  0.10570000000E+00 0. -1.
         13    1    3    3    0    0 -0.78659506225E+01 -0.61750050948E+01  0.12807545906E+00  0.10001572023E+02  0.10570000000E+00 0.  1.
<mgrwt>
<rscale>  0 0.20001730E+02</rscale>
<asrwt>0</asrwt>
<pdfrwt beam="2">  1        3 0.15262593E-02 0.20001730E+02</pdfrwt>
<pdfrwt beam="1">  1       -3 0.15510297E-02 0.20001730E+02</pdfrwt>
<totfact> 0.17882146E+06</totfact>
</mgrwt>
</event>
<event>
 5    1  0.1287303E-005  0.2000550E+02  0.7818608E-02  0.1745219E+00
         -3   -1    0    0    0  501 -0.00000000000E+00  0.00000000000E+00  0.26509484449E+01  0.26525792463E+01  0.93000000000E-01 0. -1.
          3   -1    0    0  501    0  0.00000000000E+00 -0.00000000000E+00 -0.37729810769E+02  0.37729925386E+02  0.93000000000E-01 0.  1.
       1023    2    1    2    0    0  0.00000000000E+00  0.00000000000E+00 -0.35078862324E+02  0.40382504633E+02  0.20005501705E+02 0.  0.
        -13    1    3    3    0    0  0.54727585432E+01 -0.83706379056E+01 -0.17859787219E+02  0.20469534362E+02  0.10570000000E+00 0.  1.
         13    1    3    3    0    0 -0.54727585432E+01  0.83706379056E+01 -0.17219075105E+02  0.19912970270E+02  0.10570000000E+00 0. -1.
<mgrwt>
<rscale>  0 0.20005502E+02</rscale>
<asrwt>0</asrwt>
<pdfrwt beam="2">  1        3 0.58047201E-02 0.20005502E+02</pdfrwt>
<pdfrwt beam="1">  1       -3 0.40797251E-03 0.20005502E+02</pdfrwt>
<totfact> 0.16681819E+06</totfact>
</mgrwt>
</event>
<event>
 5    1  0.1287303E-005  0.2000242E+02  0.7818608E-02  0.1745280E+00
          3   -1    0    0  501    0  0.00000000000E+00  0.00000000000E+00  0.30787727518E+01  0.30801770497E+01  0.93000000000E-01 0. -1.
         -3   -1    0    0    0  501 -0.00000000000E+00 -0.00000000000E+00 -0.32479469938E+02  0.32479603083E+02  0.93000000000E-01 0.  1.
       1023    2    1    2    0    0  0.00000000000E+00  0.00000000000E+00 -0.29400697186E+02  0.35559780133E+02  0.20002424055E+02 0.  0.
        -13    1    3    3    0    0  0.55483187582E+01 -0.83201305876E+01 -0.14821648146E+02  0.17880180096E+02  0.10570000000E+00 0. -1.
         13    1    3    3    0    0 -0.55483187582E+01  0.83201305876E+01 -0.14579049040E+02  0.17679600036E+02  0.10570000000E+00 0.  1.
<mgrwt>
<rscale>  0 0.20002424E+02</rscale>
<asrwt>0</asrwt>
<pdfrwt beam="1">  1        3 0.47377563E-03 0.20002424E+02</pdfrwt>
<pdfrwt beam="2">  1       -3 0.49969596E-02 0.20002424E+02</pdfrwt>
<totfact> 0.16948747E+06</totfact>
</mgrwt>
</event>
<event>
 5    1  0.1287303E-005  0.2000273E+02  0.7818608E-02  0.1745274E+00
         -3   -1    0    0    0  501 -0.00000000000E+00  0.00000000000E+00  0.14845216814E+02  0.14845508117E+02  0.93000000000E-01 0. -1.
          3   -1    0    0  501    0  0.00000000000E+00 -0.00000000000E+00 -0.67373345487E+01  0.67379763892E+01  0.93000000000E-01 0.  1.
       1023    2    1    2    0    0  0.00000000000E+00  0.00000000000E+00  0.81078822653E+01  0.21583484506E+02  0.20002726029E+02 0.  0.
        -13    1    3    3    0    0  0.99893655840E+01 -0.47003593911E+00  0.39590658279E+01  0.10756102141E+02  0.10570000000E+00 0. -1.
         13    1    3    3    0    0 -0.99893655840E+01  0.47003593911E+00  0.41488164375E+01  0.10827382365E+02  0.10570000000E+00 0.  1.
<mgrwt>
<rscale>  0 0.20002726E+02</rscale>
<asrwt>0</asrwt>
<pdfrwt beam="2">  1        3 0.10365848E-02 0.20002726E+02</pdfrwt>
<pdfrwt beam="1">  1       -3 0.22839513E-02 0.20002726E+02</pdfrwt>
<totfact> 0.17777710E+06</totfact>
</mgrwt>
</event>
<event>
 5    1  0.1287303E-005  0.2000236E+02  0.7818608E-02  0.1745281E+00
          3   -1    0    0  501    0  0.00000000000E+00  0.00000000000E+00  0.10497834299E+01  0.10538948001E+01  0.93000000000E-01 0. -1.
         -3   -1    0    0    0  501 -0.00000000000E+00 -0.00000000000E+00 -0.95089864335E+02  0.95089909813E+02  0.93000000000E-01 0.  1.
       1023    2    1    2    0    0  0.00000000000E+00  0.00000000000E+00 -0.94040080905E+02  0.96143804613E+02  0.20002358582E+02 0.  0.
        -13    1    3    3    0    0  0.24910738369E+01  0.96853200936E+01 -0.46831381399E+02  0.47887371304E+02  0.10570000000E+00 0.  1.
         13    1    3    3    0    0 -0.24910738369E+01 -0.96853200936E+01 -0.47208699505E+02  0.48256433308E+02  0.10570000000E+00 0. -1.
<mgrwt>
<rscale>  0 0.20002359E+02</rscale>
<asrwt>0</asrwt>
<pdfrwt beam="1">  1        3 0.16182498E-03 0.20002359E+02</pdfrwt>
<pdfrwt beam="2">  1       -3 0.14629523E-01 0.20002359E+02</pdfrwt>
<totfact> 0.14312200E+06</totfact>
</mgrwt>
</event>
<event>
 5    1  0.1287303E-005  0.2000766E+02  0.7818608E-02  0.1745176E+00
         -3   -1    0    0    0  501 -0.00000000000E+00  0.00000000000E+00  0.24555655141E+02  0.24555831251E+02  0.93000000000E-01 0. -1.
          3   -1    0    0  501    0  0.00000000000E+00 -0.00000000000E+00 -0.40747797724E+01  0.40758409185E+01  0.93000000000E-01 0.  1.
       1023    2    1    2    0    0  0.00000000000E+00  0.00000000000E+00  0.20480875369E+02  0.28631672169E+02  0.20007658417E+02 0.  0.
        -13    1    3    3    0    0 -0.27547905550E+01  0.96145321541E+01  0.99639595289E+01  0.14118065077E+02  0.10570000000E+00 0.  1.
         13    1    3    3    0    0  0.27547905550E+01 -0.96145321541E+01  0.10516915840E+02  0.14513607092E+02  0.10570000000E+00 0. -1.
<mgrwt>
<rscale>  0 0.20007658E+02</rscale>
<asrwt>0</asrwt>
<pdfrwt beam="2">  1        3 0.62698438E-03 0.20007658E+02</pdfrwt>
<pdfrwt beam="1">  1       -3 0.37778882E-02 0.20007658E+02</pdfrwt>
<totfact> 0.17334143E+06</totfact>
</mgrwt>
</event>
<event>
 5    1  0.1287303E-005  0.2000986E+02  0.7818608E-02  0.1745132E+00
         -3   -1    0    0    0  501 -0.00000000000E+00  0.00000000000E+00  0.22365369694E+01  0.22384697040E+01  0.93000000000E-01 0.  1.
          3   -1    0    0  501    0  0.00000000000E+00 -0.00000000000E+00 -0.44734764622E+02  0.44734861291E+02  0.93000000000E-01 0. -1.
       1023    2    1    2    0    0  0.00000000000E+00  0.00000000000E+00 -0.42498227652E+02  0.46973330995E+02  0.20009859350E+02 0.  0.
        -13    1    3    3    0    0 -0.41744994430E+01 -0.90918086820E+01 -0.21240142727E+02  0.23478549067E+02  0.10570000000E+00 0. -1.
         13    1    3    3    0    0  0.41744994430E+01  0.90918086820E+01 -0.21258084925E+02  0.23494781929E+02  0.10570000000E+00 0.  1.
<mgrwt>
<rscale>  0 0.20009859E+02</rscale>
<asrwt>0</asrwt>
<pdfrwt beam="2">  1        3 0.68824269E-02 0.20009859E+02</pdfrwt>
<pdfrwt beam="1">  1       -3 0.34423875E-03 0.20009859E+02</pdfrwt>
<totfact> 0.16337934E+06</totfact>
</mgrwt>
</event>
<event>
 4    1  0.1287303E-005  0.2004496E+02  0.7818608E-02  0.1744436E+00
          3   -1    0    0  501    0  0.00000000000E+00  0.00000000000E+00  0.59507937122E+01  0.59515203776E+01  0.93000000000E-01 0.  1.
         -3   -1    0    0    0  501 -0.00000000000E+00 -0.00000000000E+00 -0.16878229575E+02  0.16878485791E+02  0.93000000000E-01 0. -1.
        -13    1    1    2    0    0  0.35669656728E+01  0.93608809975E+01 -0.58045867955E+01  0.11578157777E+02  0.10570000000E+00 0. -1.
         13    1    1    2    0    0 -0.35669656728E+01 -0.93608809975E+01 -0.51228490677E+01  0.11251848391E+02  0.10570000000E+00 0.  1.
<mgrwt>
<rscale>  0 0.20044958E+02</rscale>
<asrwt>0</asrwt>
<pdfrwt beam="1">  1        3 0.91558234E-03 0.20044958E+02</pdfrwt>
<pdfrwt beam="2">  1       -3 0.25967263E-02 0.20044958E+02</pdfrwt>
<totfact> 0.17617990E+06</totfact>
</mgrwt>
</event>
<event>
 4    1  0.1287303E-005  0.2046637E+02  0.7818608E-02  0.1736210E+00
         -3   -1    0    0    0  501 -0.00000000000E+00  0.00000000000E+00  0.48979867318E+01  0.48988695661E+01  0.93000000000E-01 0.  1.
          3   -1    0    0  501    0  0.00000000000E+00 -0.00000000000E+00 -0.21376916502E+02  0.21377118799E+02  0.93000000000E-01 0. -1.
        -13    1    1    2    0    0 -0.10184076256E+02 -0.48229420319E+00 -0.93579139606E+01  0.13839427122E+02  0.10570000000E+00 0. -1.
         13    1    1    2    0    0  0.10184076256E+02  0.48229420319E+00 -0.71210158098E+01  0.12436561243E+02  0.10570000000E+00 0.  1.
<mgrwt>
<rscale>  0 0.20466373E+02</rscale>
<asrwt>0</asrwt>
<pdfrwt beam="2">  1        3 0.32888398E-02 0.20466373E+02</pdfrwt>
<pdfrwt beam="1">  1       -3 0.75361990E-03 0.20466373E+02</pdfrwt>
<totfact> 0.16638246E+06</totfact>
</mgrwt>
</event>
<event>
 5    1  0.1287303E-005  0.2000243E+02  0.7818608E-02  0.1745280E+00
         -3   -1    0    0    0  501 -0.00000000000E+00  0.00000000000E+00  0.18181221587E+02  0.18181459440E+02  0.93000000000E-01 0. -1.
          3   -1    0    0  501    0  0.00000000000E+00 -0.00000000000E+00 -0.55008504776E+01  0.55016365726E+01  0.93000000000E-01 0.  1.
       1023    2    1    2    0    0  0.00000000000E+00  0.00000000000E+00  0.12680371109E+02  0.23683096013E+02  0.20002430485E+02 0.  0.
        -13    1    3    3    0    0  0.96173075570E+01 -0.27423212742E+01  0.63570640789E+01  0.11850585083E+02  0.10570000000E+00 0.  1.
         13    1    3    3    0    0 -0.96173075570E+01  0.27423212742E+01  0.63233070301E+01  0.11832510930E+02  0.10570000000E+00 0. -1.
<mgrwt>
<rscale>  0 0.20002430E+02</rscale>
<asrwt>0</asrwt>
<pdfrwt beam="2">  1        3 0.84636346E-03 0.20002430E+02</pdfrwt>
<pdfrwt beam="1">  1       -3 0.27971898E-02 0.20002430E+02</pdfrwt>
<totfact> 0.17645101E+06</totfact>
</mgrwt>
</event>
<event>
 5    1  0.1287303E-005  0.2000744E+02  0.7818608E-02  0.1745180E+00
          3   -1    0    0  501    0  0.00000000000E+00  0.00000000000E+00  0.12178426681E+02  0.12178781771E+02  0.93000000000E-01 0.  1.
         -3   -1    0    0    0  501 -0.00000000000E+00 -0.00000000000E+00 -0.82166131541E+01  0.82171394490E+01  0.93000000000E-01 0. -1.
       1023    2    1    2    0    0  0.00000000000E+00  0.00000000000E+00  0.39618135265E+01  0.20395921220E+02  0.20007439516E+02 0.  0.
        -13    1    3    3    0    0 -0.34055187469E+01  0.94035893789E+01  0.17817017485E+01  0.10159265955E+02  0.10570000000E+00 0. -1.
         13    1    3    3    0    0  0.34055187469E+01 -0.94035893789E+01  0.21801117781E+01  0.10236655264E+02  0.10570000000E+00 0.  1.
<mgrwt>
<rscale>  0 0.20007440E+02</rscale>
<asrwt>0</asrwt>
<pdfrwt beam="1">  1        3 0.18736719E-02 0.20007440E+02</pdfrwt>
<pdfrwt beam="2">  1       -3 0.12641621E-02 0.20007440E+02</pdfrwt>
<totfact> 0.17845231E+06</totfact>
</mgrwt>
</event>
<event>
 4    1  0.1287303E-005  0.2002826E+02  0.7818608E-02  0.1744767E+00
         -3   -1    0    0    0  501 -0.00000000000E+00  0.00000000000E+00  0.94556230079E+00  0.95012476269E+00  0.93000000000E-01 0. -1.
          3   -1    0    0  501    0  0.00000000000E+00 -0.00000000000E+00 -0.10579645342E+03  0.10579649430E+03  0.93000000000E-01 0.  1.
        -13    1    1    2    0    0 -0.10005688576E+02 -0.33083737950E+00 -0.53597980012E+02  0.54525020780E+02  0.10570000000E+00 0.  1.
         13    1    1    2    0    0  0.10005688576E+02  0.33083737950E+00 -0.51252911108E+02  0.52221598279E+02  0.10570000000E+00 0. -1.
<mgrwt>
<rscale>  0 0.20028263E+02</rscale>
<asrwt>0</asrwt>
<pdfrwt beam="2">  1        3 0.16276722E-01 0.20028263E+02</pdfrwt>
<pdfrwt beam="1">  1       -3 0.14582531E-03 0.20028263E+02</pdfrwt>
<totfact> 0.13906479E+06</totfact>
</mgrwt>
</event>
<event>
 5    1  0.1287303E-005  0.2000133E+02  0.7818608E-02  0.1745302E+00
          3   -1    0    0  501    0  0.00000000000E+00  0.00000000000E+00  0.10365438837E+03  0.10365443009E+03  0.93000000000E-01 0.  1.
         -3   -1    0    0    0  501 -0.00000000000E+00 -0.00000000000E+00 -0.96258950406E+00  0.96707163815E+00  0.93000000000E-01 0. -1.
       1023    2    1    2    0    0  0.00000000000E+00  0.00000000000E+00  0.10269179887E+03  0.10462150173E+03  0.20001326696E+02 0.  0.
        -13    1    3    3    0    0 -0.98382095080E+01 -0.17918934169E+01  0.51498092224E+02  0.52460136519E+02  0.10570000000E+00 0.  1.
         13    1    3    3    0    0  0.98382095080E+01  0.17918934169E+01  0.51193706643E+02  0.52161365211E+02  0.10570000000E+00 0. -1.
<mgrwt>
<rscale>  0 0.20001327E+02</rscale>
<asrwt>0</asrwt>
<pdfrwt beam="1">  1        3 0.15947167E-01 0.20001327E+02</pdfrwt>
<pdfrwt beam="2">  1       -3 0.14843877E-03 0.20001327E+02</pdfrwt>
<totfact> 0.14018058E+06</totfact>
</mgrwt>
</event>
<event>
 5    1  0.1287303E-005  0.2001201E+02  0.7818608E-02  0.1745089E+00
         -3   -1    0    0    0  501 -0.00000000000E+00  0.00000000000E+00  0.93306155410E+02  0.93306201757E+02  0.93000000000E-01 0. -1.
          3   -1    0    0  501    0  0.00000000000E+00 -0.00000000000E+00 -0.10709666982E+01  0.10749970552E+01  0.93000000000E-01 0.  1.
       1023    2    1    2    0    0  0.00000000000E+00  0.00000000000E+00  0.92235188712E+02  0.94381198813E+02  0.20012012708E+02 0.  0.
        -13    1    3    3    0    0  0.85469408328E+01  0.52017147714E+01  0.45971733979E+02  0.47048055557E+02  0.10570000000E+00 0.  1.
         13    1    3    3    0    0 -0.85469408328E+01 -0.52017147714E+01  0.46263454732E+02  0.47333143255E+02  0.10570000000E+00 0. -1.
<mgrwt>
<rscale>  0 0.20012013E+02</rscale>
<asrwt>0</asrwt>
<pdfrwt beam="2">  1        3 0.16507767E-03 0.20012013E+02</pdfrwt>
<pdfrwt beam="1">  1       -3 0.14355109E-01 0.20012013E+02</pdfrwt>
<totfact> 0.14359964E+06</totfact>
</mgrwt>
</event>
<event>
 5    1  0.1287303E-005  0.2000181E+02  0.7818608E-02  0.1745292E+00
         -3   -1    0    0    0  501 -0.00000000000E+00  0.00000000000E+00  0.83165378821E+00  0.83683751317E+00  0.93000000000E-01 0. -1.
          3   -1    0    0  501    0  0.00000000000E+00 -0.00000000000E+00 -0.11988524702E+03  0.11988528309E+03  0.93000000000E-01 0.  1.
       1023    2    1    2    0    0  0.00000000000E+00  0.00000000000E+00 -0.11905359323E+03  0.12072212061E+03  0.20001808469E+02 0.  0.
        -13    1    3    3    0    0 -0.66481550179E+01 -0.74705010484E+01 -0.59669873454E+02  0.60502159643E+02  0.10570000000E+00 0. -1.
         13    1    3    3    0    0  0.66481550179E+01  0.74705010484E+01 -0.59383719780E+02  0.60219960964E+02  0.10570000000E+00 0.  1.
<mgrwt>
<rscale>  0 0.20001808E+02</rscale>
<asrwt>0</asrwt>
<pdfrwt beam="2">  1        3 0.18444272E-01 0.20001808E+02</pdfrwt>
<pdfrwt beam="1">  1       -3 0.12834835E-03 0.20001808E+02</pdfrwt>
<totfact> 0.13495934E+06</totfact>
</mgrwt>
</event>
<event>
 5    1  0.1287303E-005  0.2000474E+02  0.7818608E-02  0.1745234E+00
         -3   -1    0    0    0  501 -0.00000000000E+00  0.00000000000E+00  0.12938286394E+02  0.12938620630E+02  0.93000000000E-01 0. -1.
          3   -1    0    0  501    0  0.00000000000E+00 -0.00000000000E+00 -0.77319474532E+01  0.77325067358E+01  0.93000000000E-01 0.  1.
       1023    2    1    2    0    0  0.00000000000E+00  0.00000000000E+00  0.52063389407E+01  0.20671127366E+02  0.20004737974E+02 0.  0.
        -13    1    3    3    0    0 -0.14884682068E+01 -0.98887284737E+01  0.24134099240E+01  0.10287769845E+02  0.10570000000E+00 0.  1.
         13    1    3    3    0    0  0.14884682068E+01  0.98887284737E+01  0.27929290167E+01  0.10383357521E+02  0.10570000000E+00 0. -1.
<mgrwt>
<rscale>  0 0.20004738E+02</rscale>
<asrwt>0</asrwt>
<pdfrwt beam="2">  1        3 0.11895991E-02 0.20004738E+02</pdfrwt>
<pdfrwt beam="1">  1       -3 0.19905743E-02 0.20004738E+02</pdfrwt>
<totfact> 0.17832917E+06</totfact>
</mgrwt>
</event>
<event>
 5    1  0.1287303E-005  0.2001006E+02  0.7818608E-02  0.1745128E+00
         -3   -1    0    0    0  501 -0.00000000000E+00  0.00000000000E+00  0.42730765453E+02  0.42730866656E+02  0.93000000000E-01 0. -1.
          3   -1    0    0  501    0  0.00000000000E+00 -0.00000000000E+00 -0.23415609644E+01  0.23434070816E+01  0.93000000000E-01 0.  1.
       1023    2    1    2    0    0  0.00000000000E+00  0.00000000000E+00  0.40389204488E+02  0.45074273737E+02  0.20010055316E+02 0.  0.
        -13    1    3    3    0    0 -0.39916904149E+01  0.91704562415E+01  0.20739642674E+02  0.23025525201E+02  0.10570000000E+00 0. -1.
         13    1    3    3    0    0  0.39916904149E+01 -0.91704562415E+01  0.19649561814E+02  0.22048748536E+02  0.10570000000E+00 0.  1.
<mgrwt>
<rscale>  0 0.20010055E+02</rscale>
<asrwt>0</asrwt>
<pdfrwt beam="2">  1        3 0.36038997E-03 0.20010055E+02</pdfrwt>
<pdfrwt beam="1">  1       -3 0.65741133E-02 0.20010055E+02</pdfrwt>
<totfact> 0.16434844E+06</totfact>
</mgrwt>
</event>
<event>
 4    1  0.1287303E-005  0.2001617E+02  0.7818608E-02  0.1745007E+00
          3   -1    0    0  501    0  0.00000000000E+00  0.00000000000E+00  0.94446978490E+01  0.94451557139E+01  0.93000000000E-01 0.  1.
         -3   -1    0    0    0  501 -0.00000000000E+00 -0.00000000000E+00 -0.10604160876E+02  0.10604568680E+02  0.93000000000E-01 0. -1.
        -13    1    1    2    0    0 -0.94254894292E+01  0.33542777540E+01 -0.33525124239E+00  0.10010724056E+02  0.10570000000E+00 0.  1.
         13    1    1    2    0    0  0.94254894292E+01 -0.33542777540E+01 -0.82421178447E+00  0.10039000338E+02  0.10570000000E+00 0. -1.
<mgrwt>
<rscale>  0 0.20016171E+02</rscale>
<asrwt>0</asrwt>
<pdfrwt beam="1">  1        3 0.14530970E-02 0.20016171E+02</pdfrwt>
<pdfrwt beam="2">  1       -3 0.16314759E-02 0.20016171E+02</pdfrwt>
<totfact> 0.17851316E+06</totfact>
</mgrwt>
</event>
<event>
 5    1  0.1287303E-005  0.2000155E+02  0.7818608E-02  0.1745297E+00
          3   -1    0    0  501    0  0.00000000000E+00  0.00000000000E+00  0.45853005922E+02  0.45853100234E+02  0.93000000000E-01 0.  1.
         -3   -1    0    0    0  501 -0.00000000000E+00 -0.00000000000E+00 -0.21801327285E+01  0.21821154218E+01  0.93000000000E-01 0. -1.
       1023    2    1    2    0    0  0.00000000000E+00  0.00000000000E+00  0.43672873193E+02  0.48035215655E+02  0.20001552193E+02 0.  0.
        -13    1    3    3    0    0  0.79797663983E+01 -0.60271932768E+01  0.21896210035E+02  0.24071952911E+02  0.10570000000E+00 0. -1.
         13    1    3    3    0    0 -0.79797663983E+01  0.60271932768E+01  0.21776663158E+02  0.23963262744E+02  0.10570000000E+00 0.  1.
<mgrwt>
<rscale>  0 0.20001552E+02</rscale>
<asrwt>0</asrwt>
<pdfrwt beam="1">  1        3 0.70544670E-02 0.20001552E+02</pdfrwt>
<pdfrwt beam="2">  1       -3 0.33556487E-03 0.20001552E+02</pdfrwt>
<totfact> 0.16300137E+06</totfact>
</mgrwt>
</event>
<event>
 4    1  0.1287303E-005  0.2006328E+02  0.7818608E-02  0.1744073E+00
         -3   -1    0    0    0  501 -0.00000000000E+00  0.00000000000E+00  0.80078315102E+02  0.80078369106E+02  0.93000000000E-01 0.  1.
          3   -1    0    0  501    0  0.00000000000E+00 -0.00000000000E+00 -0.12549174125E+01  0.12583587375E+01  0.93000000000E-01 0. -1.
        -13    1    1    2    0    0 -0.26098573400E+01 -0.96534998177E+01  0.36216399741E+02  0.37571800552E+02  0.10570000000E+00 0. -1.
         13    1    1    2    0    0  0.26098573400E+01  0.96534998177E+01  0.42606997949E+02  0.43764927291E+02  0.10570000000E+00 0.  1.
<mgrwt>
<rscale>  0 0.20063282E+02</rscale>
<asrwt>0</asrwt>
<pdfrwt beam="2">  1        3 0.19333312E-03 0.20063282E+02</pdfrwt>
<pdfrwt beam="1">  1       -3 0.12320008E-01 0.20063282E+02</pdfrwt>
<totfact> 0.14762083E+06</totfact>
</mgrwt>
</event>
<event>
 5    1  0.1287303E-005  0.2000241E+02  0.7818608E-02  0.1745280E+00
         -3   -1    0    0    0  501 -0.00000000000E+00  0.00000000000E+00  0.51043410799E+01  0.51051882296E+01  0.93000000000E-01 0.  1.
          3   -1    0    0  501    0  0.00000000000E+00 -0.00000000000E+00 -0.19593300659E+02  0.19593521371E+02  0.93000000000E-01 0. -1.
       1023    2    1    2    0    0  0.00000000000E+00  0.00000000000E+00 -0.14488959579E+02  0.24698709600E+02  0.20002407511E+02 0.  0.
        -13    1    3    3    0    0 -0.85526583152E+01 -0.51831200992E+01 -0.72621959078E+01  0.12359747575E+02  0.10570000000E+00 0. -1.
         13    1    3    3    0    0  0.85526583152E+01  0.51831200992E+01 -0.72267636709E+01  0.12338962025E+02  0.10570000000E+00 0.  1.
<mgrwt>
<rscale>  0 0.20002408E+02</rscale>
<asrwt>0</asrwt>
<pdfrwt beam="2">  1        3 0.30144360E-02 0.20002408E+02</pdfrwt>
<pdfrwt beam="1">  1       -3 0.78536540E-03 0.20002408E+02</pdfrwt>
<totfact> 0.17580730E+06</totfact>
</mgrwt>
</event>
<event>
 5    1  0.1287303E-005  0.2000541E+02  0.7818608E-02  0.1745220E+00
         -3   -1    0    0    0  501 -0.00000000000E+00  0.00000000000E+00  0.40627967877E+02  0.40628074318E+02  0.93000000000E-01 0. -1.
          3   -1    0    0  501    0  0.00000000000E+00 -0.00000000000E+00 -0.24617030825E+01  0.24634591668E+01  0.93000000000E-01 0.  1.
       1023    2    1    2    0    0  0.00000000000E+00  0.00000000000E+00  0.38166264795E+02  0.43091533485E+02  0.20005411511E+02 0.  0.
        -13    1    3    3    0    0 -0.47956616562E+01 -0.87775026733E+01  0.19072139671E+02  0.21536030461E+02  0.10570000000E+00 0.  1.
         13    1    3    3    0    0  0.47956616562E+01  0.87775026733E+01  0.19094125124E+02  0.21555503024E+02  0.10570000000E+00 0. -1.
<mgrwt>
<rscale>  0 0.20005412E+02</rscale>
<asrwt>0</asrwt>
<pdfrwt beam="2">  1        3 0.37886685E-03 0.20005412E+02</pdfrwt>
<pdfrwt beam="1">  1       -3 0.62505995E-02 0.20005412E+02</pdfrwt>
<totfact> 0.16543801E+06</totfact>
</mgrwt>
</event>
<event>
 4    1  0.1287303E-005  0.2332365E+02  0.7818608E-02  0.1686317E+00
          3   -1    0    0  501    0  0.00000000000E+00  0.00000000000E+00  0.13890098244E+03  0.13890101357E+03  0.93000000000E-01 0. -1.
         -3   -1    0    0    0  501 -0.00000000000E+00 -0.00000000000E+00 -0.97686213170E+00  0.98127907567E+00  0.93000000000E-01 0.  1.
        -13    1    1    2    0    0 -0.59518885745E+01  0.10026569747E+02  0.70000112178E+02  0.70964666954E+02  0.10570000000E+00 0. -1.
         13    1    1    2    0    0  0.59518885745E+01 -0.10026569747E+02  0.67924008129E+02  0.68917625694E+02  0.10570000000E+00 0.  1.
<mgrwt>
<rscale>  0 0.23323654E+02</rscale>
<asrwt>0</asrwt>
<pdfrwt beam="1">  1        3 0.21369727E-01 0.23323654E+02</pdfrwt>
<pdfrwt beam="2">  1       -3 0.15062862E-03 0.23323654E+02</pdfrwt>
<totfact> 0.92472021E+05</totfact>
</mgrwt>
</event>
<event>
 4    1  0.1287303E-005  0.2003498E+02  0.7818608E-02  0.1744633E+00
         -3   -1    0    0    0  501 -0.00000000000E+00  0.00000000000E+00  0.22477155178E+01  0.22496386485E+01  0.93000000000E-01 0. -1.
          3   -1    0    0  501    0  0.00000000000E+00 -0.00000000000E+00 -0.44624329083E+02  0.44624425992E+02  0.93000000000E-01 0.  1.
        -13    1    1    2    0    0  0.63841129379E+01  0.77176831735E+01 -0.20862137788E+02  0.23142158437E+02  0.10570000000E+00 0. -1.
         13    1    1    2    0    0 -0.63841129379E+01 -0.77176831735E+01 -0.21514475777E+02  0.23731906203E+02  0.10570000000E+00 0.  1.
<mgrwt>
<rscale>  0 0.20034983E+02</rscale>
<asrwt>0</asrwt>
<pdfrwt beam="2">  1        3 0.68654361E-02 0.20034983E+02</pdfrwt>
<pdfrwt beam="1">  1       -3 0.34595781E-03 0.20034983E+02</pdfrwt>
<totfact> 0.16298840E+06</totfact>
</mgrwt>
</event>
<event>
 5    1  0.1287303E-005  0.2000996E+02  0.7818608E-02  0.1745130E+00
          3   -1    0    0  501    0  0.00000000000E+00  0.00000000000E+00  0.18251066718E+01  0.18274745862E+01  0.93000000000E-01 0.  1.
         -3   -1    0    0    0  501 -0.00000000000E+00 -0.00000000000E+00 -0.54807933608E+02  0.54808012511E+02  0.93000000000E-01 0. -1.
       1023    2    1    2    0    0  0.00000000000E+00  0.00000000000E+00 -0.52982826936E+02  0.56635487097E+02  0.20009958735E+02 0.  0.
        -13    1    3    3    0    0  0.98935364440E+01 -0.14746254204E+01 -0.25986241666E+02  0.27845152395E+02  0.10570000000E+00 0.  1.
         13    1    3    3    0    0 -0.98935364440E+01  0.14746254204E+01 -0.26996585270E+02  0.28790334702E+02  0.10570000000E+00 0. -1.
<mgrwt>
<rscale>  0 0.20009959E+02</rscale>
<asrwt>0</asrwt>
<pdfrwt beam="1">  1        3 0.28097390E-03 0.20009959E+02</pdfrwt>
<pdfrwt beam="2">  1       -3 0.84321768E-02 0.20009959E+02</pdfrwt>
<totfact> 0.15881235E+06</totfact>
</mgrwt>
</event>
<event>
 5    1  0.1287303E-005  0.2000240E+02  0.7818608E-02  0.1745280E+00
         -3   -1    0    0    0  501 -0.00000000000E+00  0.00000000000E+00  0.76750004695E+02  0.76750061040E+02  0.93000000000E-01 0. -1.
          3   -1    0    0  501    0  0.00000000000E+00 -0.00000000000E+00 -0.13015287117E+01  0.13048471126E+01  0.93000000000E-01 0.  1.
       1023    2    1    2    0    0  0.00000000000E+00  0.00000000000E+00  0.75448475983E+02  0.78054908153E+02  0.20002403819E+02 0.  0.
        -13    1    3    3    0    0  0.89100011678E+01  0.45413697101E+01  0.37620442472E+02  0.38927124527E+02  0.10570000000E+00 0. -1.
         13    1    3    3    0    0 -0.89100011678E+01 -0.45413697101E+01  0.37828033512E+02  0.39127783626E+02  0.10570000000E+00 0.  1.
<mgrwt>
<rscale>  0 0.20002404E+02</rscale>
<asrwt>0</asrwt>
<pdfrwt beam="2">  1        3 0.20049473E-03 0.20002404E+02</pdfrwt>
<pdfrwt beam="1">  1       -3 0.11807956E-01 0.20002404E+02</pdfrwt>
<totfact> 0.14986525E+06</totfact>
</mgrwt>
</event>
<event>
 5    1  0.1287303E-005  0.2000473E+02  0.7818608E-02  0.1745234E+00
          3   -1    0    0  501    0  0.00000000000E+00  0.00000000000E+00  0.13874231296E+02  0.13874542985E+02  0.93000000000E-01 0. -1.
         -3   -1    0    0    0  501 -0.00000000000E+00 -0.00000000000E+00 -0.72103271296E+01  0.72109268694E+01  0.93000000000E-01 0.  1.
       1023    2    1    2    0    0  0.00000000000E+00  0.00000000000E+00  0.66639041661E+01  0.21085469854E+02  0.20004734946E+02 0.  0.
        -13    1    3    3    0    0  0.20286910460E+01 -0.97938051325E+01  0.33788086132E+01  0.10557543581E+02  0.10570000000E+00 0. -1.
         13    1    3    3    0    0 -0.20286910460E+01  0.97938051325E+01  0.32850955529E+01  0.10527926273E+02  0.10570000000E+00 0.  1.
<mgrwt>
<rscale>  0 0.20004735E+02</rscale>
<asrwt>0</asrwt>
<pdfrwt beam="1">  1        3 0.21345672E-02 0.20004735E+02</pdfrwt>
<pdfrwt beam="2">  1       -3 0.11093512E-02 0.20004735E+02</pdfrwt>
<totfact> 0.17805420E+06</totfact>
</mgrwt>
</event>
<event>
 5    1  0.1287303E-005  0.2000172E+02  0.7818608E-02  0.1745294E+00
          3   -1    0    0  501    0  0.00000000000E+00  0.00000000000E+00  0.13624163726E+02  0.13624481137E+02  0.93000000000E-01 0.  1.
         -3   -1    0    0    0  501 -0.00000000000E+00 -0.00000000000E+00 -0.73404667599E+01  0.73410558678E+01  0.93000000000E-01 0. -1.
       1023    2    1    2    0    0  0.00000000000E+00  0.00000000000E+00  0.62836969664E+01  0.20965537004E+02  0.20001722284E+02 0.  0.
        -13    1    3    3    0    0 -0.54937516925E+01 -0.83561187323E+01  0.31468931656E+01  0.10484280472E+02  0.10570000000E+00 0.  1.
         13    1    3    3    0    0  0.54937516925E+01  0.83561187323E+01  0.31368038007E+01  0.10481256533E+02  0.10570000000E+00 0. -1.
<mgrwt>
<rscale>  0 0.20001722E+02</rscale>
<asrwt>0</asrwt>
<pdfrwt beam="1">  1        3 0.20960949E-02 0.20001722E+02</pdfrwt>
<pdfrwt beam="2">  1       -3 0.11293723E-02 0.20001722E+02</pdfrwt>
<totfact> 0.17819013E+06</totfact>
</mgrwt>
</event>
<event>
 4    1  0.1287303E-005  0.2005964E+02  0.7818608E-02  0.1744145E+00
          3   -1    0    0  501    0  0.00000000000E+00  0.00000000000E+00  0.15467258554E+02  0.15467538142E+02  0.93000000000E-01 0. -1.
         -3   -1    0    0    0  501 -0.00000000000E+00 -0.00000000000E+00 -0.65032128486E+01  0.65038777936E+01  0.93000000000E-01 0.  1.
        -13    1    1    2    0    0 -0.99400800502E+01 -0.11706003931E+01  0.51838573266E+01  0.11272047106E+02  0.10570000000E+00 0. -1.
         13    1    1    2    0    0  0.99400800502E+01  0.11706003931E+01  0.37801883789E+01  0.10699368830E+02  0.10570000000E+00 0.  1.
<mgrwt>
<rscale>  0 0.20059636E+02</rscale>
<asrwt>0</asrwt>
<pdfrwt beam="1">  1        3 0.23796509E-02 0.20059636E+02</pdfrwt>
<pdfrwt beam="2">  1       -3 0.10005669E-02 0.20059636E+02</pdfrwt>
<totfact> 0.17643720E+06</totfact>
</mgrwt>
</event>
<event>
 5    1  0.1287303E-005  0.2000681E+02  0.7818608E-02  0.1745193E+00
         -3   -1    0    0    0  501 -0.00000000000E+00  0.00000000000E+00  0.31833454085E+01  0.31847035953E+01  0.93000000000E-01 0. -1.
          3   -1    0    0  501    0  0.00000000000E+00 -0.00000000000E+00 -0.31426750619E+02  0.31426888225E+02  0.93000000000E-01 0.  1.
       1023    2    1    2    0    0  0.00000000000E+00  0.00000000000E+00 -0.28243405211E+02  0.34611591820E+02  0.20006807602E+02 0.  0.
        -13    1    3    3    0    0  0.71478441759E+01 -0.69966078614E+01 -0.14316794510E+02  0.17464992856E+02  0.10570000000E+00 0.  1.
         13    1    3    3    0    0 -0.71478441759E+01  0.69966078614E+01 -0.13926610701E+02  0.17146598964E+02  0.10570000000E+00 0. -1.
<mgrwt>
<rscale>  0 0.20006808E+02</rscale>
<asrwt>0</asrwt>
<pdfrwt beam="2">  1        3 0.48349996E-02 0.20006808E+02</pdfrwt>
<pdfrwt beam="1">  1       -3 0.48986053E-03 0.20006808E+02</pdfrwt>
<totfact> 0.16991164E+06</totfact>
</mgrwt>
</event>
<event>
 5    1  0.1287303E-005  0.2000462E+02  0.7818608E-02  0.1745236E+00
         -3   -1    0    0    0  501 -0.00000000000E+00  0.00000000000E+00  0.18166148680E+01  0.18189938368E+01  0.93000000000E-01 0. -1.
          3   -1    0    0  501    0  0.00000000000E+00 -0.00000000000E+00 -0.55034410839E+02  0.55034489417E+02  0.93000000000E-01 0.  1.
       1023    2    1    2    0    0  0.00000000000E+00  0.00000000000E+00 -0.53217795971E+02  0.56853483254E+02  0.20004618219E+02 0.  0.
        -13    1    3    3    0    0  0.85315060167E+01  0.52168823681E+01 -0.27121710777E+02  0.28906760879E+02  0.10570000000E+00 0.  1.
         13    1    3    3    0    0 -0.85315060167E+01 -0.52168823681E+01 -0.26096085194E+02  0.27946722375E+02  0.10570000000E+00 0. -1.
<mgrwt>
<rscale>  0 0.20004618E+02</rscale>
<asrwt>0</asrwt>
<pdfrwt beam="2">  1        3 0.84670202E-02 0.20004618E+02</pdfrwt>
<pdfrwt beam="1">  1       -3 0.27966829E-03 0.20004618E+02</pdfrwt>
<totfact> 0.15877682E+06</totfact>
</mgrwt>
</event>
<event>
 5    1  0.1287303E-005  0.2000428E+02  0.7818608E-02  0.1745243E+00
         -3   -1    0    0    0  501 -0.00000000000E+00  0.00000000000E+00  0.31659736658E+01  0.31673393017E+01  0.93000000000E-01 0. -1.
          3   -1    0    0  501    0  0.00000000000E+00 -0.00000000000E+00 -0.31591121694E+02  0.31591258584E+02  0.93000000000E-01 0.  1.
       1023    2    1    2    0    0  0.00000000000E+00  0.00000000000E+00 -0.28425148029E+02  0.34758597885E+02  0.20004276706E+02 0.  0.
        -13    1    3    3    0    0  0.88802360420E+01  0.46001976773E+01 -0.14396363892E+02  0.17529600013E+02  0.10570000000E+00 0.  1.
         13    1    3    3    0    0 -0.88802360420E+01 -0.46001976773E+01 -0.14028784137E+02  0.17228997872E+02  0.10570000000E+00 0. -1.
<mgrwt>
<rscale>  0 0.20004277E+02</rscale>
<asrwt>0</asrwt>
<pdfrwt beam="2">  1        3 0.48602879E-02 0.20004277E+02</pdfrwt>
<pdfrwt beam="1">  1       -3 0.48718847E-03 0.20004277E+02</pdfrwt>
<totfact> 0.16987623E+06</totfact>
</mgrwt>
</event>
<event>
 4    1  0.1287303E-005  0.2002165E+02  0.7818608E-02  0.1744898E+00
          3   -1    0    0  501    0  0.00000000000E+00  0.00000000000E+00  0.82493025162E+01  0.82498267257E+01  0.93000000000E-01 0. -1.
         -3   -1    0    0    0  501 -0.00000000000E+00 -0.00000000000E+00 -0.12147406736E+02  0.12147762732E+02  0.93000000000E-01 0.  1.
        -13    1    1    2    0    0 -0.84862975952E+01 -0.53055055077E+01 -0.21523018651E+01  0.10237637002E+02  0.10570000000E+00 0.  1.
         13    1    1    2    0    0  0.84862975952E+01  0.53055055077E+01 -0.17458023542E+01  0.10159952456E+02  0.10570000000E+00 0. -1.
<mgrwt>
<rscale>  0 0.20021649E+02</rscale>
<asrwt>0</asrwt>
<pdfrwt beam="1">  1        3 0.12691912E-02 0.20021649E+02</pdfrwt>
<pdfrwt beam="2">  1       -3 0.18688995E-02 0.20021649E+02</pdfrwt>
<totfact> 0.17818185E+06</totfact>
</mgrwt>
</event>
<event>
 5    1  0.1287303E-005  0.2000381E+02  0.7818608E-02  0.1745252E+00
          3   -1    0    0  501    0  0.00000000000E+00  0.00000000000E+00  0.95329641428E+01  0.95334177685E+01  0.93000000000E-01 0.  1.
         -3   -1    0    0    0  501 -0.00000000000E+00 -0.00000000000E+00 -0.10493005660E+02  0.10493417783E+02  0.93000000000E-01 0. -1.
       1023    2    1    2    0    0  0.00000000000E+00  0.00000000000E+00 -0.96004151676E+00  0.20026835552E+02  0.20003811199E+02 0.  0.
        -13    1    3    3    0    0  0.77234888861E+01  0.63534017598E+01 -0.38531462757E+00  0.10008877777E+02  0.10570000000E+00 0. -1.
         13    1    3    3    0    0 -0.77234888861E+01 -0.63534017598E+01 -0.57472688919E+00  0.10017957775E+02  0.10570000000E+00 0.  1.
<mgrwt>
<rscale>  0 0.20003811E+02</rscale>
<asrwt>0</asrwt>
<pdfrwt beam="1">  1        3 0.14666765E-02 0.20003811E+02</pdfrwt>
<pdfrwt beam="2">  1       -3 0.16143752E-02 0.20003811E+02</pdfrwt>
<totfact> 0.17876582E+06</totfact>
</mgrwt>
</event>
<event>
 4    1  0.1287303E-005  0.2002424E+02  0.7818608E-02  0.1744846E+00
         -3   -1    0    0    0  501 -0.00000000000E+00  0.00000000000E+00  0.90023619652E+01  0.90028423263E+01  0.93000000000E-01 0. -1.
          3   -1    0    0  501    0  0.00000000000E+00 -0.00000000000E+00 -0.11134165680E+02  0.11134554072E+02  0.93000000000E-01 0.  1.
        -13    1    1    2    0    0  0.39292060123E+00 -0.99987586931E+01 -0.74503430036E+00  0.10034730221E+02  0.10570000000E+00 0. -1.
         13    1    1    2    0    0 -0.39292060123E+00  0.99987586931E+01 -0.13867694142E+01  0.10102666178E+02  0.10570000000E+00 0.  1.
<mgrwt>
<rscale>  0 0.20024239E+02</rscale>
<asrwt>0</asrwt>
<pdfrwt beam="2">  1        3 0.17130154E-02 0.20024239E+02</pdfrwt>
<pdfrwt beam="1">  1       -3 0.13850456E-02 0.20024239E+02</pdfrwt>
<totfact> 0.17829984E+06</totfact>
</mgrwt>
</event>
<event>
 5    1  0.1287303E-005  0.2000701E+02  0.7818608E-02  0.1745189E+00
         -3   -1    0    0    0  501 -0.00000000000E+00  0.00000000000E+00  0.55636471173E+02  0.55636548901E+02  0.93000000000E-01 0. -1.
          3   -1    0    0  501    0  0.00000000000E+00 -0.00000000000E+00 -0.17973619078E+01  0.17997663259E+01  0.93000000000E-01 0.  1.
       1023    2    1    2    0    0  0.00000000000E+00  0.00000000000E+00  0.53839109265E+02  0.57436315227E+02  0.20007014279E+02 0.  0.
        -13    1    3    3    0    0 -0.99800296592E+01  0.66562282625E+00  0.26568694672E+02  0.28389271826E+02  0.10570000000E+00 0. -1.
         13    1    3    3    0    0  0.99800296592E+01 -0.66562282625E+00  0.27270414593E+02  0.29047043400E+02  0.10570000000E+00 0.  1.
<mgrwt>
<rscale>  0 0.20007014E+02</rscale>
<asrwt>0</asrwt>
<pdfrwt beam="2">  1        3 0.27670814E-03 0.20007014E+02</pdfrwt>
<pdfrwt beam="1">  1       -3 0.85596483E-02 0.20007014E+02</pdfrwt>
<totfact> 0.15849798E+06</totfact>
</mgrwt>
</event>
