<event>
 4    1  0.4244376E-001  0.3749648E+02  0.7818608E-02  0.1527487E+00
          1   -1    0    0  501    0  0.00000000000E+00  0.00000000000E+00  0.99037595911E+01  0.99037606921E+01  0.46700000000E-02 0. -1.
         -1   -1    0    0    0  501 -0.00000000000E+00 -0.00000000000E+00 -0.35491211481E+02  0.35491211788E+02  0.46700000000E-02 0.  1.
        -11    1    1    2    0    0 -0.17842371657E+02  0.57152664015E+01 -0.13634198265E+02  0.23171229122E+02  0.51100000000E-03 0. -1.
         11    1    1    2    0    0  0.17842371657E+02 -0.57152664015E+01 -0.11953253625E+02  0.22223743359E+02  0.51100000000E-03 0.  1.
<mgrwt>
<rscale>  0 0.37496478E+02</rscale>
<asrwt>0</asrwt>
<pdfrwt beam="1">  1        1 0.15236554E-02 0.37496478E+02</pdfrwt>
<pdfrwt beam="2">  1       -1 0.54601864E-02 0.37496478E+02</pdfrwt>
<totfact> 0.84866207E+05</totfact>
</mgrwt>
</event>
<event>
 4    1  0.4244376E-001  0.5633363E+02  0.7818608E-02  0.1413895E+00
         -1   -1    0    0    0  501 -0.00000000000E+00  0.00000000000E+00  0.20174092342E+03  0.20174092348E+03  0.46700000000E-02 0.  1.
          1   -1    0    0  501    0  0.00000000000E+00 -0.00000000000E+00 -0.39326143239E+01  0.39326170967E+01  0.46700000000E-02 0. -1.
        -11    1    1    2    0    0  0.15728149301E+02  0.21443653636E+02  0.65013883603E+02  0.70242508662E+02  0.51100000000E-03 0. -1.
         11    1    1    2    0    0 -0.15728149301E+02 -0.21443653636E+02  0.13279442549E+03  0.13543103191E+03  0.51100000000E-03 0.  1.
<mgrwt>
<rscale>  0 0.56333632E+02</rscale>
<asrwt>0</asrwt>
<pdfrwt beam="2">  1        1 0.60501777E-03 0.56333632E+02</pdfrwt>
<pdfrwt beam="1">  1       -1 0.31037067E-01 0.56333632E+02</pdfrwt>
<totfact> 0.23752812E+05</totfact>
</mgrwt>
</event>
<event>
 4    1  0.4244376E-001  0.3286289E+02  0.7818608E-02  0.1568441E+00
          1   -1    0    0  501    0  0.00000000000E+00  0.00000000000E+00  0.12717811434E+03  0.12717811442E+03  0.46700000000E-02 0. -1.
         -1   -1    0    0    0  501 -0.00000000000E+00 -0.00000000000E+00 -0.21229438570E+01  0.21229489935E+01  0.46700000000E-02 0.  1.
        -11    1    1    2    0    0  0.45968398448E+01  0.15695098293E+02  0.68780057203E+02  0.70697689610E+02  0.51100000000E-03 0. -1.
         11    1    1    2    0    0 -0.45968398448E+01 -0.15695098293E+02  0.56275113277E+02  0.58603373807E+02  0.51100000000E-03 0.  1.
<mgrwt>
<rscale>  0 0.32862887E+02</rscale>
<asrwt>0</asrwt>
<pdfrwt beam="1">  1        1 0.19565866E-01 0.32862887E+02</pdfrwt>
<pdfrwt beam="2">  1       -1 0.32660711E-03 0.32862887E+02</pdfrwt>
<totfact> 0.14607266E+06</totfact>
</mgrwt>
</event>
<event>
 4    1  0.4244376E-001  0.4338118E+02  0.7818608E-02  0.1484708E+00
         -1   -1    0    0    0  501 -0.00000000000E+00  0.00000000000E+00  0.88243074451E+02  0.88243074575E+02  0.46700000000E-02 0. -1.
          1   -1    0    0  501    0  0.00000000000E+00 -0.00000000000E+00 -0.53316544468E+01  0.53316564920E+01  0.46700000000E-02 0.  1.
        -11    1    1    2    0    0  0.97495594102E+00 -0.16021080016E+02  0.72925969292E+02  0.74671430557E+02  0.51100000000E-03 0. -1.
         11    1    1    2    0    0 -0.97495594102E+00  0.16021080016E+02  0.99854507123E+01  0.18903300510E+02  0.51100000000E-03 0.  1.
<mgrwt>
<rscale>  0 0.43381179E+02</rscale>
<asrwt>0</asrwt>
<pdfrwt beam="2">  1        1 0.82025471E-03 0.43381179E+02</pdfrwt>
<pdfrwt beam="1">  1       -1 0.13575858E-01 0.43381179E+02</pdfrwt>
<totfact> 0.53805174E+05</totfact>
</mgrwt>
</event>
<event>
 4    1  0.4244376E-001  0.2327759E+02  0.7818608E-02  0.1687050E+00
          1   -1    0    0  501    0  0.00000000000E+00  0.00000000000E+00  0.49590945797E+01  0.49590967785E+01  0.46700000000E-02 0.  1.
         -1   -1    0    0    0  501 -0.00000000000E+00 -0.00000000000E+00 -0.27315762836E+02  0.27315763235E+02  0.46700000000E-02 0. -1.
        -11    1    1    2    0    0  0.10757567829E+02 -0.40609820402E+01 -0.86808051948E+01  0.14407401564E+02  0.51100000000E-03 0.  1.
         11    1    1    2    0    0 -0.10757567829E+02  0.40609820402E+01 -0.13675863062E+02  0.17867458450E+02  0.51100000000E-03 0. -1.
<mgrwt>
<rscale>  0 0.23277585E+02</rscale>
<asrwt>0</asrwt>
<pdfrwt beam="1">  1        1 0.76293784E-03 0.23277585E+02</pdfrwt>
<pdfrwt beam="2">  1       -1 0.42024252E-02 0.23277585E+02</pdfrwt>
<totfact> 0.26190454E+06</totfact>
</mgrwt>
</event>
<event>
 4    1  0.4244376E-001  0.2853588E+02  0.7818608E-02  0.1614860E+00
         -1   -1    0    0    0  501 -0.00000000000E+00  0.00000000000E+00  0.88671771189E+01  0.88671783487E+01  0.46700000000E-02 0.  1.
          1   -1    0    0  501    0  0.00000000000E+00 -0.00000000000E+00 -0.22958155695E+02  0.22958156170E+02  0.46700000000E-02 0. -1.
        -11    1    1    2    0    0 -0.13571754824E+02  0.22884289201E+01 -0.11239962868E+02  0.17769811520E+02  0.51100000000E-03 0.  1.
         11    1    1    2    0    0  0.13571754824E+02 -0.22884289201E+01 -0.28510157078E+01  0.14055522998E+02  0.51100000000E-03 0. -1.
<mgrwt>
<rscale>  0 0.28535876E+02</rscale>
<asrwt>0</asrwt>
<pdfrwt beam="2">  1        1 0.35320241E-02 0.28535876E+02</pdfrwt>
<pdfrwt beam="1">  1       -1 0.13641812E-02 0.28535876E+02</pdfrwt>
<totfact> 0.17566104E+06</totfact>
</mgrwt>
</event>
<event>
 4    1  0.4244376E-001  0.2277505E+02  0.7818608E-02  0.1695183E+00
          1   -1    0    0  501    0  0.00000000000E+00  0.00000000000E+00  0.78546279533E+01  0.78546293416E+01  0.46700000000E-02 0. -1.
         -1   -1    0    0    0  501 -0.00000000000E+00 -0.00000000000E+00 -0.16509463167E+02  0.16509463828E+02  0.46700000000E-02 0.  1.
        -11    1    1    2    0    0 -0.80512838186E+01  0.76908811240E+01 -0.68821093372E+01  0.13089547463E+02  0.51100000000E-03 0. -1.
         11    1    1    2    0    0  0.80512838186E+01 -0.76908811240E+01 -0.17727258766E+01  0.11274545706E+02  0.51100000000E-03 0.  1.
<mgrwt>
<rscale>  0 0.22775049E+02</rscale>
<asrwt>0</asrwt>
<pdfrwt beam="1">  1        1 0.12084045E-02 0.22775049E+02</pdfrwt>
<pdfrwt beam="2">  1       -1 0.25399176E-02 0.22775049E+02</pdfrwt>
<totfact> 0.28323278E+06</totfact>
</mgrwt>
</event>
<event>
 4    1  0.4244376E-001  0.2715208E+02  0.7818608E-02  0.1631885E+00
         -1   -1    0    0    0  501 -0.00000000000E+00  0.00000000000E+00  0.29560165845E+01  0.29560202734E+01  0.46700000000E-02 0. -1.
          1   -1    0    0  501    0  0.00000000000E+00 -0.00000000000E+00 -0.62350395297E+02  0.62350395472E+02  0.46700000000E-02 0.  1.
        -11    1    1    2    0    0 -0.12251173525E+02  0.46284054118E+01 -0.38300823985E+02  0.40477975587E+02  0.51100000000E-03 0.  1.
         11    1    1    2    0    0  0.12251173525E+02 -0.46284054118E+01 -0.21093554728E+02  0.24828440159E+02  0.51100000000E-03 0. -1.
<mgrwt>
<rscale>  0 0.27152085E+02</rscale>
<asrwt>0</asrwt>
<pdfrwt beam="2">  1        1 0.95923678E-02 0.27152085E+02</pdfrwt>
<pdfrwt beam="1">  1       -1 0.45477213E-03 0.27152085E+02</pdfrwt>
<totfact> 0.21146228E+06</totfact>
</mgrwt>
</event>
<event>
 4    1  0.4244376E-001  0.3437301E+02  0.7818608E-02  0.1554240E+00
         -1   -1    0    0    0  501 -0.00000000000E+00  0.00000000000E+00  0.11222701794E+02  0.11222702766E+02  0.46700000000E-02 0. -1.
          1   -1    0    0  501    0  0.00000000000E+00 -0.00000000000E+00 -0.26319498431E+02  0.26319498846E+02  0.46700000000E-02 0.  1.
        -11    1    1    2    0    0 -0.59940299862E+01  0.16101177385E+02 -0.80363555765E+01  0.18967322422E+02  0.51100000000E-03 0.  1.
         11    1    1    2    0    0  0.59940299862E+01 -0.16101177385E+02 -0.70604410609E+01  0.18574879189E+02  0.51100000000E-03 0. -1.
<mgrwt>
<rscale>  0 0.34373007E+02</rscale>
<asrwt>0</asrwt>
<pdfrwt beam="2">  1        1 0.40491537E-02 0.34373007E+02</pdfrwt>
<pdfrwt beam="1">  1       -1 0.17265696E-02 0.34373007E+02</pdfrwt>
<totfact> 0.11302253E+06</totfact>
</mgrwt>
</event>
<event>
 4    1  0.4244376E-001  0.2813606E+02  0.7818608E-02  0.1619656E+00
          1   -1    0    0  501    0  0.00000000000E+00  0.00000000000E+00  0.56091221456E+01  0.56091240897E+01  0.46700000000E-02 0.  1.
         -1   -1    0    0    0  501 -0.00000000000E+00 -0.00000000000E+00 -0.35283497433E+02  0.35283497742E+02  0.46700000000E-02 0. -1.
        -11    1    1    2    0    0 -0.11737203756E+02  0.55540123774E+01 -0.69700079858E+01  0.14737368051E+02  0.51100000000E-03 0.  1.
         11    1    1    2    0    0  0.11737203756E+02 -0.55540123774E+01 -0.22704367302E+02  0.26155253780E+02  0.51100000000E-03 0. -1.
<mgrwt>
<rscale>  0 0.28136062E+02</rscale>
<asrwt>0</asrwt>
<pdfrwt beam="1">  1        1 0.86294207E-03 0.28136062E+02</pdfrwt>
<pdfrwt beam="2">  1       -1 0.54282304E-02 0.28136062E+02</pdfrwt>
<totfact> 0.16675875E+06</totfact>
</mgrwt>
</event>
<event>
 4    1  0.4244376E-001  0.3506165E+02  0.7818608E-02  0.1548054E+00
         -1   -1    0    0    0  501 -0.00000000000E+00  0.00000000000E+00  0.67767761753E+01  0.67767777844E+01  0.46700000000E-02 0. -1.
          1   -1    0    0  501    0  0.00000000000E+00 -0.00000000000E+00 -0.45350451439E+02  0.45350451679E+02  0.46700000000E-02 0.  1.
        -11    1    1    2    0    0  0.73297326169E-01  0.13473550134E+02 -0.26123764761E+01  0.13724665272E+02  0.51100000000E-03 0. -1.
         11    1    1    2    0    0 -0.73297326169E-01 -0.13473550134E+02 -0.35961298787E+02  0.38402564191E+02  0.51100000000E-03 0.  1.
<mgrwt>
<rscale>  0 0.35061655E+02</rscale>
<asrwt>0</asrwt>
<pdfrwt beam="2">  1        1 0.69769925E-02 0.35061655E+02</pdfrwt>
<pdfrwt beam="1">  1       -1 0.10425811E-02 0.35061655E+02</pdfrwt>
<totfact> 0.11198029E+06</totfact>
</mgrwt>
</event>
<event>
 4    1  0.4244376E-001  0.2452422E+02  0.7818608E-02  0.1667931E+00
         -1   -1    0    0    0  501 -0.00000000000E+00  0.00000000000E+00  0.18515106567E+02  0.18515107156E+02  0.46700000000E-02 0.  1.
          1   -1    0    0  501    0  0.00000000000E+00 -0.00000000000E+00 -0.81208993224E+01  0.81209006652E+01  0.46700000000E-02 0. -1.
        -11    1    1    2    0    0  0.80873646941E+01 -0.64018089460E+01  0.12399146460E+02  0.16128467338E+02  0.51100000000E-03 0. -1.
         11    1    1    2    0    0 -0.80873646941E+01  0.64018089460E+01 -0.20049392158E+01  0.10507540483E+02  0.51100000000E-03 0.  1.
<mgrwt>
<rscale>  0 0.24524220E+02</rscale>
<asrwt>0</asrwt>
<pdfrwt beam="2">  1        1 0.12493693E-02 0.24524220E+02</pdfrwt>
<pdfrwt beam="1">  1       -1 0.28484780E-02 0.24524220E+02</pdfrwt>
<totfact> 0.23837872E+06</totfact>
</mgrwt>
</event>
<event>
 4    1  0.4244376E-001  0.2765673E+02  0.7818608E-02  0.1625535E+00
          1   -1    0    0  501    0  0.00000000000E+00  0.00000000000E+00  0.88017538351E+01  0.88017550740E+01  0.46700000000E-02 0.  1.
         -1   -1    0    0    0  501 -0.00000000000E+00 -0.00000000000E+00 -0.21725633468E+02  0.21725633970E+02  0.46700000000E-02 0. -1.
        -11    1    1    2    0    0  0.23895262577E+01 -0.12645009915E+02 -0.87520626394E+00  0.12898530837E+02  0.51100000000E-03 0.  1.
         11    1    1    2    0    0 -0.23895262577E+01  0.12645009915E+02 -0.12048673369E+02  0.17628858207E+02  0.51100000000E-03 0. -1.
<mgrwt>
<rscale>  0 0.27656732E+02</rscale>
<asrwt>0</asrwt>
<pdfrwt beam="1">  1        1 0.13541161E-02 0.27656732E+02</pdfrwt>
<pdfrwt beam="2">  1       -1 0.33424053E-02 0.27656732E+02</pdfrwt>
<totfact> 0.17952238E+06</totfact>
</mgrwt>
</event>
<event>
 4    1  0.4244376E-001  0.2041456E+02  0.7818608E-02  0.1737208E+00
         -1   -1    0    0    0  501 -0.00000000000E+00  0.00000000000E+00  0.26022488341E+02  0.26022488760E+02  0.46700000000E-02 0.  1.
          1   -1    0    0  501    0  0.00000000000E+00 -0.00000000000E+00 -0.40037870314E+01  0.40037897549E+01  0.46700000000E-02 0. -1.
        -11    1    1    2    0    0  0.10056043751E+02  0.57460655543E+00  0.85772063638E+01  0.13229612915E+02  0.51100000000E-03 0. -1.
         11    1    1    2    0    0 -0.10056043751E+02 -0.57460655543E+00  0.13441494946E+02  0.16796665599E+02  0.51100000000E-03 0.  1.
<mgrwt>
<rscale>  0 0.20414558E+02</rscale>
<asrwt>0</asrwt>
<pdfrwt beam="2">  1        1 0.61596746E-03 0.20414558E+02</pdfrwt>
<pdfrwt beam="1">  1       -1 0.40034601E-02 0.20414558E+02</pdfrwt>
<totfact> 0.35210003E+06</totfact>
</mgrwt>
</event>
<event>
 4    1  0.4244376E-001  0.3922948E+02  0.7818608E-02  0.1513959E+00
          1   -1    0    0  501    0  0.00000000000E+00  0.00000000000E+00  0.12491828159E+02  0.12491829032E+02  0.46700000000E-02 0.  1.
         -1   -1    0    0    0  501 -0.00000000000E+00 -0.00000000000E+00 -0.30799177505E+02  0.30799177859E+02  0.46700000000E-02 0. -1.
        -11    1    1    2    0    0  0.58518724433E+01  0.15683204973E+02  0.21288711918E+01  0.16874223601E+02  0.51100000000E-03 0.  1.
         11    1    1    2    0    0 -0.58518724433E+01 -0.15683204973E+02 -0.20436220537E+02  0.26416783291E+02  0.51100000000E-03 0. -1.
<mgrwt>
<rscale>  0 0.39229482E+02</rscale>
<asrwt>0</asrwt>
<pdfrwt beam="1">  1        1 0.19218198E-02 0.39229482E+02</pdfrwt>
<pdfrwt beam="2">  1       -1 0.47383351E-02 0.39229482E+02</pdfrwt>
<totfact> 0.77091470E+05</totfact>
</mgrwt>
</event>
<event>
 4    1  0.4244376E-001  0.3040822E+02  0.7818608E-02  0.1593620E+00
         -1   -1    0    0    0  501 -0.00000000000E+00  0.00000000000E+00  0.15916011470E+02  0.15916012155E+02  0.46700000000E-02 0.  1.
          1   -1    0    0  501    0  0.00000000000E+00 -0.00000000000E+00 -0.14524051442E+02  0.14524052193E+02  0.46700000000E-02 0. -1.
        -11    1    1    2    0    0  0.76076727194E+01  0.75824490426E+01 -0.10076086276E+02  0.14727448272E+02  0.51100000000E-03 0. -1.
         11    1    1    2    0    0 -0.76076727194E+01 -0.75824490426E+01  0.11468046304E+02  0.15712616077E+02  0.51100000000E-03 0.  1.
<mgrwt>
<rscale>  0 0.30408222E+02</rscale>
<asrwt>0</asrwt>
<pdfrwt beam="2">  1        1 0.22344696E-02 0.30408222E+02</pdfrwt>
<pdfrwt beam="1">  1       -1 0.24486173E-02 0.30408222E+02</pdfrwt>
<totfact> 0.14695451E+06</totfact>
</mgrwt>
</event>
<event>
 4    1  0.4244376E-001  0.2851014E+02  0.7818608E-02  0.1615166E+00
         -1   -1    0    0    0  501 -0.00000000000E+00  0.00000000000E+00  0.22999442108E+01  0.22999489520E+01  0.46700000000E-02 0. -1.
          1   -1    0    0  501    0  0.00000000000E+00 -0.00000000000E+00 -0.88352933662E+02  0.88352933785E+02  0.46700000000E-02 0.  1.
        -11    1    1    2    0    0 -0.74943463178E+00  0.12862757849E+02 -0.62418540908E+02  0.63734499615E+02  0.51100000000E-03 0.  1.
         11    1    1    2    0    0  0.74943463178E+00 -0.12862757849E+02 -0.23634448543E+02  0.26918383122E+02  0.51100000000E-03 0. -1.
<mgrwt>
<rscale>  0 0.28510141E+02</rscale>
<asrwt>0</asrwt>
<pdfrwt beam="2">  1        1 0.13592757E-01 0.28510141E+02</pdfrwt>
<pdfrwt beam="1">  1       -1 0.35383801E-03 0.28510141E+02</pdfrwt>
<totfact> 0.19531410E+06</totfact>
</mgrwt>
</event>
<event>
 4    1  0.4244376E-001  0.2475325E+02  0.7818608E-02  0.1664572E+00
         -1   -1    0    0    0  501 -0.00000000000E+00  0.00000000000E+00  0.45159118364E+02  0.45159118605E+02  0.46700000000E-02 0.  1.
          1   -1    0    0  501    0  0.00000000000E+00 -0.00000000000E+00 -0.33920216531E+01  0.33920248678E+01  0.46700000000E-02 0. -1.
        -11    1    1    2    0    0 -0.11071516185E+02  0.27698236192E+01  0.11491223523E+02  0.16195635579E+02  0.51100000000E-03 0. -1.
         11    1    1    2    0    0  0.11071516185E+02 -0.27698236192E+01  0.30275873188E+02  0.32355507894E+02  0.51100000000E-03 0.  1.
<mgrwt>
<rscale>  0 0.24753246E+02</rscale>
<asrwt>0</asrwt>
<pdfrwt beam="2">  1        1 0.52184977E-03 0.24753246E+02</pdfrwt>
<pdfrwt beam="1">  1       -1 0.69475567E-02 0.24753246E+02</pdfrwt>
<totfact> 0.21894851E+06</totfact>
</mgrwt>
</event>
<event>
 4    1  0.4244376E-001  0.3150285E+02  0.7818608E-02  0.1582047E+00
         -1   -1    0    0    0  501 -0.00000000000E+00  0.00000000000E+00  0.35218222089E+02  0.35218222399E+02  0.46700000000E-02 0.  1.
          1   -1    0    0  501    0  0.00000000000E+00 -0.00000000000E+00 -0.70448560835E+01  0.70448576314E+01  0.46700000000E-02 0. -1.
        -11    1    1    2    0    0 -0.12304106088E+02 -0.19803643074E+00  0.89582197380E+00  0.12338263343E+02  0.51100000000E-03 0. -1.
         11    1    1    2    0    0  0.12304106088E+02  0.19803643074E+00  0.27277544032E+02  0.29924816687E+02  0.51100000000E-03 0.  1.
<mgrwt>
<rscale>  0 0.31502847E+02</rscale>
<asrwt>0</asrwt>
<pdfrwt beam="2">  1        1 0.10838242E-02 0.31502847E+02</pdfrwt>
<pdfrwt beam="1">  1       -1 0.54181882E-02 0.31502847E+02</pdfrwt>
<totfact> 0.12820607E+06</totfact>
</mgrwt>
</event>
<event>
 4    1  0.4244376E-001  0.8799487E+02  0.7818608E-02  0.1307781E+00
         -1   -1    0    0    0  501 -0.00000000000E+00  0.00000000000E+00  0.21918196889E+02  0.21918197387E+02  0.46700000000E-02 0.  1.
          1   -1    0    0  501    0  0.00000000000E+00 -0.00000000000E+00 -0.88318129118E+02  0.88318129242E+02  0.46700000000E-02 0. -1.
        -11    1    1    2    0    0  0.28182939675E+02 -0.14396422710E+02  0.50910076841E+01  0.32053914505E+02  0.51100000000E-03 0.  1.
         11    1    1    2    0    0 -0.28182939675E+02  0.14396422710E+02 -0.71490939913E+02  0.78182412124E+02  0.51100000000E-03 0. -1.
<mgrwt>
<rscale>  0 0.87994868E+02</rscale>
<asrwt>0</asrwt>
<pdfrwt beam="2">  1        1 0.13587404E-01 0.87994868E+02</pdfrwt>
<pdfrwt beam="1">  1       -1 0.33720304E-02 0.87994868E+02</pdfrwt>
<totfact> 0.11275972E+05</totfact>
</mgrwt>
</event>
<event>
 4    1  0.4244376E-001  0.2552945E+02  0.7818608E-02  0.1653512E+00
         -1   -1    0    0    0  501 -0.00000000000E+00  0.00000000000E+00  0.10581961374E+03  0.10581961385E+03  0.46700000000E-02 0.  1.
          1   -1    0    0  501    0  0.00000000000E+00 -0.00000000000E+00 -0.15397689724E+01  0.15397760543E+01  0.46700000000E-02 0. -1.
        -11    1    1    2    0    0  0.78175982841E+01  0.96342646305E+01  0.39520998540E+02  0.41422738004E+02  0.51100000000E-03 0. -1.
         11    1    1    2    0    0 -0.78175982841E+01 -0.96342646305E+01  0.64758846230E+02  0.65936651895E+02  0.51100000000E-03 0.  1.
<mgrwt>
<rscale>  0 0.25529445E+02</rscale>
<asrwt>0</asrwt>
<pdfrwt beam="2">  1        1 0.23688810E-03 0.25529445E+02</pdfrwt>
<pdfrwt beam="1">  1       -1 0.16279941E-01 0.25529445E+02</pdfrwt>
<totfact> 0.18288543E+06</totfact>
</mgrwt>
</event>
<event>
 4    1  0.4244376E-001  0.4139476E+02  0.7818608E-02  0.1498191E+00
         -1   -1    0    0    0  501 -0.00000000000E+00  0.00000000000E+00  0.70385825767E+01  0.70385841259E+01  0.46700000000E-02 0. -1.
          1   -1    0    0  501    0  0.00000000000E+00 -0.00000000000E+00 -0.60861902242E+02  0.60861902422E+02  0.46700000000E-02 0.  1.
        -11    1    1    2    0    0 -0.13329641678E+01  0.19249940734E+02 -0.14631775650E+02  0.24216231554E+02  0.51100000000E-03 0.  1.
         11    1    1    2    0    0  0.13329641678E+01 -0.19249940734E+02 -0.39191544016E+02  0.43684254994E+02  0.51100000000E-03 0. -1.
<mgrwt>
<rscale>  0 0.41394762E+02</rscale>
<asrwt>0</asrwt>
<pdfrwt beam="2">  1        1 0.93633694E-02 0.41394762E+02</pdfrwt>
<pdfrwt beam="1">  1       -1 0.10828590E-02 0.41394762E+02</pdfrwt>
<totfact> 0.76461667E+05</totfact>
</mgrwt>
</event>
<event>
 4    1  0.4244376E-001  0.4645585E+02  0.7818608E-02  0.1465452E+00
         -1   -1    0    0    0  501 -0.00000000000E+00  0.00000000000E+00  0.31341333058E+02  0.31341333405E+02  0.46700000000E-02 0.  1.
          1   -1    0    0  501    0  0.00000000000E+00 -0.00000000000E+00 -0.17214854881E+02  0.17214855514E+02  0.46700000000E-02 0. -1.
        -11    1    1    2    0    0  0.11076478045E+02  0.82176684583E+01 -0.12471818961E+02  0.18594749507E+02  0.51100000000E-03 0. -1.
         11    1    1    2    0    0 -0.11076478045E+02 -0.82176684583E+01  0.26598297138E+02  0.29961439412E+02  0.51100000000E-03 0.  1.
<mgrwt>
<rscale>  0 0.46455851E+02</rscale>
<asrwt>0</asrwt>
<pdfrwt beam="2">  1        1 0.26484393E-02 0.46455851E+02</pdfrwt>
<pdfrwt beam="1">  1       -1 0.48217436E-02 0.46455851E+02</pdfrwt>
<totfact> 0.51221704E+05</totfact>
</mgrwt>
</event>
<event>
 4    1  0.4244376E-001  0.3539829E+02  0.7818608E-02  0.1545092E+00
          1   -1    0    0  501    0  0.00000000000E+00  0.00000000000E+00  0.42849266089E+01  0.42849291537E+01  0.46700000000E-02 0. -1.
         -1   -1    0    0    0  501 -0.00000000000E+00 -0.00000000000E+00 -0.73107349921E+02  0.73107350070E+02  0.46700000000E-02 0.  1.
        -11    1    1    2    0    0 -0.13202488607E+02 -0.80653673263E+01 -0.15615924438E+02  0.21982105264E+02  0.51100000000E-03 0. -1.
         11    1    1    2    0    0  0.13202488607E+02  0.80653673263E+01 -0.53206498875E+02  0.55410173960E+02  0.51100000000E-03 0.  1.
<mgrwt>
<rscale>  0 0.35398290E+02</rscale>
<asrwt>0</asrwt>
<pdfrwt beam="1">  1        1 0.65921974E-03 0.35398290E+02</pdfrwt>
<pdfrwt beam="2">  1       -1 0.11247284E-01 0.35398290E+02</pdfrwt>
<totfact> 0.90199435E+05</totfact>
</mgrwt>
</event>
<event>
 4    1  0.4244376E-001  0.3551708E+02  0.7818608E-02  0.1544056E+00
         -1   -1    0    0    0  501 -0.00000000000E+00  0.00000000000E+00  0.26384022892E+01  0.26384064221E+01  0.46700000000E-02 0. -1.
          1   -1    0    0  501    0  0.00000000000E+00 -0.00000000000E+00 -0.11952896288E+03  0.11952896297E+03  0.46700000000E-02 0.  1.
        -11    1    1    2    0    0  0.49687197021E+01 -0.15991570408E+02 -0.38111203773E+02  0.41627903536E+02  0.51100000000E-03 0.  1.
         11    1    1    2    0    0 -0.49687197021E+01  0.15991570408E+02 -0.78779356820E+02  0.80539465859E+02  0.51100000000E-03 0. -1.
<mgrwt>
<rscale>  0 0.35517080E+02</rscale>
<asrwt>0</asrwt>
<pdfrwt beam="2">  1        1 0.18389067E-01 0.35517080E+02</pdfrwt>
<pdfrwt beam="1">  1       -1 0.40590846E-03 0.35517080E+02</pdfrwt>
<totfact> 0.12025520E+06</totfact>
</mgrwt>
</event>
<event>
 4    1  0.4244376E-001  0.6456964E+02  0.7818608E-02  0.1379598E+00
          1   -1    0    0  501    0  0.00000000000E+00  0.00000000000E+00  0.28551664195E+02  0.28551664577E+02  0.46700000000E-02 0.  1.
         -1   -1    0    0    0  501 -0.00000000000E+00 -0.00000000000E+00 -0.36506088477E+02  0.36506088776E+02  0.46700000000E-02 0. -1.
        -11    1    1    2    0    0  0.10569582956E+02  0.27207953612E+02  0.99227557947E+01  0.30829367598E+02  0.51100000000E-03 0.  1.
         11    1    1    2    0    0 -0.10569582956E+02 -0.27207953612E+02 -0.17877180077E+02  0.34228385755E+02  0.51100000000E-03 0. -1.
<mgrwt>
<rscale>  0 0.64569640E+02</rscale>
<asrwt>0</asrwt>
<pdfrwt beam="1">  1        1 0.43925637E-02 0.64569640E+02</pdfrwt>
<pdfrwt beam="2">  1       -1 0.56163214E-02 0.64569640E+02</pdfrwt>
<totfact> 0.22500197E+05</totfact>
</mgrwt>
</event>
<event>
 4    1  0.4244376E-001  0.3448276E+02  0.7818608E-02  0.1553242E+00
          1   -1    0    0  501    0  0.00000000000E+00  0.00000000000E+00  0.16126202943E+02  0.16126203619E+02  0.46700000000E-02 0. -1.
         -1   -1    0    0    0  501 -0.00000000000E+00 -0.00000000000E+00 -0.18433678854E+02  0.18433679445E+02  0.46700000000E-02 0.  1.
        -11    1    1    2    0    0  0.15263139836E+02  0.66289012769E+01 -0.56759790966E+01  0.17581880126E+02  0.51100000000E-03 0.  1.
         11    1    1    2    0    0 -0.15263139836E+02 -0.66289012769E+01  0.33685031861E+01  0.16978002939E+02  0.51100000000E-03 0. -1.
<mgrwt>
<rscale>  0 0.34482765E+02</rscale>
<asrwt>0</asrwt>
<pdfrwt beam="1">  1        1 0.24809544E-02 0.34482765E+02</pdfrwt>
<pdfrwt beam="2">  1       -1 0.28359507E-02 0.34482765E+02</pdfrwt>
<totfact> 0.10865200E+06</totfact>
</mgrwt>
</event>
<event>
 4    1  0.4244376E-001  0.2437882E+02  0.7818608E-02  0.1670088E+00
         -1   -1    0    0    0  501 -0.00000000000E+00  0.00000000000E+00  0.33222776071E+02  0.33222776399E+02  0.46700000000E-02 0. -1.
          1   -1    0    0  501    0  0.00000000000E+00 -0.00000000000E+00 -0.44722829094E+01  0.44722853477E+01  0.46700000000E-02 0.  1.
        -11    1    1    2    0    0 -0.93260547275E+01 -0.65857353025E+01  0.77725899253E+01  0.13811602393E+02  0.51100000000E-03 0.  1.
         11    1    1    2    0    0  0.93260547275E+01  0.65857353025E+01  0.20977903236E+02  0.23883459354E+02  0.51100000000E-03 0. -1.
<mgrwt>
<rscale>  0 0.24378819E+02</rscale>
<asrwt>0</asrwt>
<pdfrwt beam="2">  1        1 0.68804372E-03 0.24378819E+02</pdfrwt>
<pdfrwt beam="1">  1       -1 0.51111967E-02 0.24378819E+02</pdfrwt>
<totfact> 0.23265540E+06</totfact>
</mgrwt>
</event>
<event>
 4    1  0.4244376E-001  0.2178645E+02  0.7818608E-02  0.1711972E+00
         -1   -1    0    0    0  501 -0.00000000000E+00  0.00000000000E+00  0.11003626942E+03  0.11003626952E+03  0.46700000000E-02 0.  1.
          1   -1    0    0  501    0  0.00000000000E+00 -0.00000000000E+00 -0.10783883154E+01  0.10783984272E+01  0.46700000000E-02 0. -1.
        -11    1    1    2    0    0  0.93166409817E+01  0.56331410377E+01  0.56320075237E+02  0.57362731386E+02  0.51100000000E-03 0. -1.
         11    1    1    2    0    0 -0.93166409817E+01 -0.56331410377E+01  0.52637805864E+02  0.53751936557E+02  0.51100000000E-03 0.  1.
<mgrwt>
<rscale>  0 0.21786454E+02</rscale>
<asrwt>0</asrwt>
<pdfrwt beam="2">  1        1 0.16590669E-03 0.21786454E+02</pdfrwt>
<pdfrwt beam="1">  1       -1 0.16928656E-01 0.21786454E+02</pdfrwt>
<totfact> 0.25950810E+06</totfact>
</mgrwt>
</event>
<event>
 4    1  0.4244376E-001  0.1230390E+03  0.7818608E-02  0.1238166E+00
         -1   -1    0    0    0  501 -0.00000000000E+00  0.00000000000E+00  0.11907816392E+03  0.11907816401E+03  0.46700000000E-02 0.  1.
          1   -1    0    0  501    0  0.00000000000E+00 -0.00000000000E+00 -0.31782898398E+02  0.31782898741E+02  0.46700000000E-02 0. -1.
        -11    1    1    2    0    0 -0.56920695562E+02 -0.13635951548E+02  0.66871094230E+02  0.88868712164E+02  0.51100000000E-03 0.  1.
         11    1    1    2    0    0  0.56920695562E+02  0.13635951548E+02  0.20424171289E+02  0.61992350585E+02  0.51100000000E-03 0. -1.
<mgrwt>
<rscale>  0 0.12303901E+03</rscale>
<asrwt>0</asrwt>
<pdfrwt beam="2">  1        1 0.48896768E-02 0.12303901E+03</pdfrwt>
<pdfrwt beam="1">  1       -1 0.18319717E-01 0.12303901E+03</pdfrwt>
<totfact> 0.36108597E+04</totfact>
</mgrwt>
</event>
<event>
 4    1  0.4244376E-001  0.7822636E+02  0.7818608E-02  0.1334161E+00
         -1   -1    0    0    0  501 -0.00000000000E+00  0.00000000000E+00  0.75164500966E+01  0.75164515474E+01  0.46700000000E-02 0.  1.
          1   -1    0    0  501    0  0.00000000000E+00 -0.00000000000E+00 -0.20353232687E+03  0.20353232692E+03  0.46700000000E-02 0. -1.
        -11    1    1    2    0    0  0.34245419769E+02  0.18725599319E+02 -0.91159306181E+02  0.99163581766E+02  0.51100000000E-03 0. -1.
         11    1    1    2    0    0 -0.34245419769E+02 -0.18725599319E+02 -0.10485657059E+03  0.11188519670E+03  0.51100000000E-03 0.  1.
<mgrwt>
<rscale>  0 0.78226357E+02</rscale>
<asrwt>0</asrwt>
<pdfrwt beam="2">  1        1 0.31312662E-01 0.78226357E+02</pdfrwt>
<pdfrwt beam="1">  1       -1 0.11563772E-02 0.78226357E+02</pdfrwt>
<totfact> 0.17850816E+05</totfact>
</mgrwt>
</event>
<event>
 4    1  0.4244376E-001  0.2631626E+02  0.7818608E-02  0.1642785E+00
         -1   -1    0    0    0  501 -0.00000000000E+00  0.00000000000E+00  0.97082547232E+02  0.97082547345E+02  0.46700000000E-02 0.  1.
          1   -1    0    0  501    0  0.00000000000E+00 -0.00000000000E+00 -0.17833899973E+01  0.17833961117E+01  0.46700000000E-02 0. -1.
        -11    1    1    2    0    0 -0.60388122149E+00  0.13143371719E+02  0.47074174471E+02  0.48878326435E+02  0.51100000000E-03 0. -1.
         11    1    1    2    0    0  0.60388122149E+00 -0.13143371719E+02  0.48224982764E+02  0.49987617022E+02  0.51100000000E-03 0.  1.
<mgrwt>
<rscale>  0 0.26316257E+02</rscale>
<asrwt>0</asrwt>
<pdfrwt beam="2">  1        1 0.27436819E-03 0.26316257E+02</pdfrwt>
<pdfrwt beam="1">  1       -1 0.14935776E-01 0.26316257E+02</pdfrwt>
<totfact> 0.17310051E+06</totfact>
</mgrwt>
</event>
<event>
 4    1  0.4244376E-001  0.4307222E+02  0.7818608E-02  0.1486748E+00
         -1   -1    0    0    0  501 -0.00000000000E+00  0.00000000000E+00  0.58321716681E+02  0.58321716868E+02  0.46700000000E-02 0. -1.
          1   -1    0    0  501    0  0.00000000000E+00 -0.00000000000E+00 -0.79525085330E+01  0.79525099042E+01  0.46700000000E-02 0.  1.
        -11    1    1    2    0    0  0.69902850781E+01  0.17414196309E+02  0.41445563993E+02  0.45495638181E+02  0.51100000000E-03 0. -1.
         11    1    1    2    0    0 -0.69902850781E+01 -0.17414196309E+02  0.89236441549E+01  0.20778588591E+02  0.51100000000E-03 0.  1.
<mgrwt>
<rscale>  0 0.43072218E+02</rscale>
<asrwt>0</asrwt>
<pdfrwt beam="2">  1        1 0.12234630E-02 0.43072218E+02</pdfrwt>
<pdfrwt beam="1">  1       -1 0.89725715E-02 0.43072218E+02</pdfrwt>
<totfact> 0.57835704E+05</totfact>
</mgrwt>
</event>
<event>
 4    1  0.4244376E-001  0.2026568E+02  0.7818608E-02  0.1740096E+00
          1   -1    0    0  501    0  0.00000000000E+00  0.00000000000E+00  0.22872117278E+01  0.22872164954E+01  0.46700000000E-02 0. -1.
         -1   -1    0    0    0  501 -0.00000000000E+00 -0.00000000000E+00 -0.44890593356E+02  0.44890593599E+02  0.46700000000E-02 0.  1.
        -11    1    1    2    0    0 -0.10063470396E+02  0.11110753759E+00 -0.18558413769E+02  0.21111620098E+02  0.51100000000E-03 0. -1.
         11    1    1    2    0    0  0.10063470396E+02 -0.11110753759E+00 -0.24044967859E+02  0.26066189996E+02  0.51100000000E-03 0.  1.
<mgrwt>
<rscale>  0 0.20265676E+02</rscale>
<asrwt>0</asrwt>
<pdfrwt beam="1">  1        1 0.35187915E-03 0.20265676E+02</pdfrwt>
<pdfrwt beam="2">  1       -1 0.69062449E-02 0.20265676E+02</pdfrwt>
<totfact> 0.34289914E+06</totfact>
</mgrwt>
</event>
<event>
 4    1  0.4244376E-001  0.6166342E+02  0.7818608E-02  0.1390981E+00
          1   -1    0    0  501    0  0.00000000000E+00  0.00000000000E+00  0.26411736372E+03  0.26411736376E+03  0.46700000000E-02 0. -1.
         -1   -1    0    0    0  501 -0.00000000000E+00 -0.00000000000E+00 -0.35991349583E+01  0.35991379880E+01  0.46700000000E-02 0.  1.
        -11    1    1    2    0    0 -0.49197433216E+01 -0.30256342042E+02  0.14462201940E+03  0.14783497084E+03  0.51100000000E-03 0. -1.
         11    1    1    2    0    0  0.49197433216E+01  0.30256342042E+02  0.11589620937E+03  0.11988153091E+03  0.51100000000E-03 0.  1.
<mgrwt>
<rscale>  0 0.61663423E+02</rscale>
<asrwt>0</asrwt>
<pdfrwt beam="1">  1        1 0.40633427E-01 0.61663423E+02</pdfrwt>
<pdfrwt beam="2">  1       -1 0.55371350E-03 0.61663423E+02</pdfrwt>
<totfact> 0.34741237E+05</totfact>
</mgrwt>
</event>
<event>
 4    1  0.4244376E-001  0.3017680E+02  0.7818608E-02  0.1596143E+00
          1   -1    0    0  501    0  0.00000000000E+00  0.00000000000E+00  0.42148446178E+01  0.42148472050E+01  0.46700000000E-02 0.  1.
         -1   -1    0    0    0  501 -0.00000000000E+00 -0.00000000000E+00 -0.54013783268E+02  0.54013783470E+02  0.46700000000E-02 0. -1.
        -11    1    1    2    0    0  0.67100702270E+01 -0.12998207703E+02 -0.32036666881E+02  0.35218268995E+02  0.51100000000E-03 0. -1.
         11    1    1    2    0    0 -0.67100702270E+01  0.12998207703E+02 -0.17762271769E+02  0.23010361679E+02  0.51100000000E-03 0.  1.
<mgrwt>
<rscale>  0 0.30176798E+02</rscale>
<asrwt>0</asrwt>
<pdfrwt beam="1">  1        1 0.64843789E-03 0.30176798E+02</pdfrwt>
<pdfrwt beam="2">  1       -1 0.83098125E-02 0.30176798E+02</pdfrwt>
<totfact> 0.13622507E+06</totfact>
</mgrwt>
</event>
<event>
 4    1  0.4244376E-001  0.2822780E+02  0.7818608E-02  0.1618547E+00
         -1   -1    0    0    0  501 -0.00000000000E+00  0.00000000000E+00  0.48607390908E+02  0.48607391132E+02  0.46700000000E-02 0.  1.
          1   -1    0    0  501    0  0.00000000000E+00 -0.00000000000E+00 -0.40981845754E+01  0.40981872362E+01  0.46700000000E-02 0. -1.
        -11    1    1    2    0    0 -0.11357537656E+02  0.29115146109E+01  0.75844987038E+01  0.13964068167E+02  0.51100000000E-03 0.  1.
         11    1    1    2    0    0  0.11357537656E+02 -0.29115146109E+01  0.36924707629E+02  0.38741510201E+02  0.51100000000E-03 0. -1.
<mgrwt>
<rscale>  0 0.28227797E+02</rscale>
<asrwt>0</asrwt>
<pdfrwt beam="2">  1        1 0.63049015E-03 0.28227797E+02</pdfrwt>
<pdfrwt beam="1">  1       -1 0.74780605E-02 0.28227797E+02</pdfrwt>
<totfact> 0.16082838E+06</totfact>
</mgrwt>
</event>
<event>
 4    1  0.4244376E-001  0.2751730E+02  0.7818608E-02  0.1627273E+00
          1   -1    0    0  501    0  0.00000000000E+00  0.00000000000E+00  0.26580343771E+01  0.26580384795E+01  0.46700000000E-02 0. -1.
         -1   -1    0    0    0  501 -0.00000000000E+00 -0.00000000000E+00 -0.71218134594E+02  0.71218134748E+02  0.46700000000E-02 0.  1.
        -11    1    1    2    0    0 -0.11923845710E+02 -0.13530418294E+01 -0.52347938383E+02  0.53705823445E+02  0.51100000000E-03 0.  1.
         11    1    1    2    0    0  0.11923845710E+02  0.13530418294E+01 -0.16212161835E+02  0.20170349782E+02  0.51100000000E-03 0. -1.
<mgrwt>
<rscale>  0 0.27517297E+02</rscale>
<asrwt>0</asrwt>
<pdfrwt beam="1">  1        1 0.40892875E-03 0.27517297E+02</pdfrwt>
<pdfrwt beam="2">  1       -1 0.10956635E-01 0.27517297E+02</pdfrwt>
<totfact> 0.16336878E+06</totfact>
</mgrwt>
</event>
<event>
 4    1  0.4244376E-001  0.2963778E+02  0.7818608E-02  0.1602127E+00
         -1   -1    0    0    0  501 -0.00000000000E+00  0.00000000000E+00  0.21976398657E+02  0.21976399153E+02  0.46700000000E-02 0.  1.
          1   -1    0    0  501    0  0.00000000000E+00 -0.00000000000E+00 -0.99925160582E+01  0.99925171495E+01  0.46700000000E-02 0. -1.
        -11    1    1    2    0    0 -0.13977804735E+02 -0.37785898427E+01  0.93931714028E+01  0.17259444825E+02  0.51100000000E-03 0. -1.
         11    1    1    2    0    0  0.13977804735E+02  0.37785898427E+01  0.25907111960E+01  0.14709471478E+02  0.51100000000E-03 0.  1.
<mgrwt>
<rscale>  0 0.29637783E+02</rscale>
<asrwt>0</asrwt>
<pdfrwt beam="2">  1        1 0.15373103E-02 0.29637783E+02</pdfrwt>
<pdfrwt beam="1">  1       -1 0.33809845E-02 0.29637783E+02</pdfrwt>
<totfact> 0.15293926E+06</totfact>
</mgrwt>
</event>
<event>
 4    1  0.4244376E-001  0.2554619E+02  0.7818608E-02  0.1653279E+00
         -1   -1    0    0    0  501 -0.00000000000E+00  0.00000000000E+00  0.15564990212E+01  0.15565060269E+01  0.46700000000E-02 0. -1.
          1   -1    0    0  501    0  0.00000000000E+00 -0.00000000000E+00 -0.10481956062E+03  0.10481956072E+03  0.46700000000E-02 0.  1.
        -11    1    1    2    0    0 -0.35022939759E+01  0.11748789163E+02 -0.66559475223E+02  0.67679124197E+02  0.51100000000E-03 0.  1.
         11    1    1    2    0    0  0.35022939759E+01 -0.11748789163E+02 -0.36703586373E+02  0.38696942551E+02  0.51100000000E-03 0. -1.
<mgrwt>
<rscale>  0 0.25546187E+02</rscale>
<asrwt>0</asrwt>
<pdfrwt beam="2">  1        1 0.16126081E-01 0.25546187E+02</pdfrwt>
<pdfrwt beam="1">  1       -1 0.23946202E-03 0.25546187E+02</pdfrwt>
<totfact> 0.25695711E+06</totfact>
</mgrwt>
</event>
<event>
 4    1  0.4244376E-001  0.3408483E+02  0.7818608E-02  0.1556881E+00
         -1   -1    0    0    0  501 -0.00000000000E+00  0.00000000000E+00  0.16653486467E+02  0.16653487122E+02  0.46700000000E-02 0. -1.
          1   -1    0    0  501    0  0.00000000000E+00 -0.00000000000E+00 -0.17440421870E+02  0.17440422496E+02  0.46700000000E-02 0.  1.
        -11    1    1    2    0    0  0.26938710239E+01 -0.16615495757E+02 -0.30610512283E+01  0.17108526390E+02  0.51100000000E-03 0.  1.
         11    1    1    2    0    0 -0.26938710239E+01  0.16615495757E+02  0.22741158255E+01  0.16985383228E+02  0.51100000000E-03 0. -1.
<mgrwt>
<rscale>  0 0.34084827E+02</rscale>
<asrwt>0</asrwt>
<pdfrwt beam="2">  1        1 0.26831419E-02 0.34084827E+02</pdfrwt>
<pdfrwt beam="1">  1       -1 0.25620749E-02 0.34084827E+02</pdfrwt>
<totfact> 0.11237945E+06</totfact>
</mgrwt>
</event>
<event>
 4    1  0.4244376E-001  0.2588973E+02  0.7818608E-02  0.1648542E+00
         -1   -1    0    0    0  501 -0.00000000000E+00  0.00000000000E+00  0.66897131547E+01  0.66897147847E+01  0.46700000000E-02 0.  1.
          1   -1    0    0  501    0  0.00000000000E+00 -0.00000000000E+00 -0.25048833298E+02  0.25048833733E+02  0.46700000000E-02 0. -1.
        -11    1    1    2    0    0  0.75170237579E+01 -0.87492274446E+01 -0.16381722781E+02  0.20035355464E+02  0.51100000000E-03 0. -1.
         11    1    1    2    0    0 -0.75170237579E+01  0.87492274446E+01 -0.19773973621E+01  0.11703193053E+02  0.51100000000E-03 0.  1.
<mgrwt>
<rscale>  0 0.25889731E+02</rscale>
<asrwt>0</asrwt>
<pdfrwt beam="2">  1        1 0.38536668E-02 0.25889731E+02</pdfrwt>
<pdfrwt beam="1">  1       -1 0.10291868E-02 0.25889731E+02</pdfrwt>
<totfact> 0.22205580E+06</totfact>
</mgrwt>
</event>
<event>
 4    1  0.4244376E-001  0.3599183E+02  0.7818608E-02  0.1539965E+00
         -1   -1    0    0    0  501 -0.00000000000E+00  0.00000000000E+00  0.54880355794E+01  0.54880375663E+01  0.46700000000E-02 0.  1.
          1   -1    0    0  501    0  0.00000000000E+00 -0.00000000000E+00 -0.59010725124E+02  0.59010725308E+02  0.46700000000E-02 0. -1.
        -11    1    1    2    0    0  0.25301614308E+01  0.12369192334E+02 -0.49742409542E+02  0.51319644808E+02  0.51100000000E-03 0. -1.
         11    1    1    2    0    0 -0.25301614308E+01 -0.12369192334E+02 -0.37802800021E+01  0.13179118067E+02  0.51100000000E-03 0.  1.
<mgrwt>
<rscale>  0 0.35991834E+02</rscale>
<asrwt>0</asrwt>
<pdfrwt beam="2">  1        1 0.90785728E-02 0.35991834E+02</pdfrwt>
<pdfrwt beam="1">  1       -1 0.84431337E-03 0.35991834E+02</pdfrwt>
<totfact> 0.10749175E+06</totfact>
</mgrwt>
</event>
<event>
 4    1  0.4244376E-001  0.2931049E+02  0.7818608E-02  0.1605838E+00
         -1   -1    0    0    0  501 -0.00000000000E+00  0.00000000000E+00  0.62677537804E+01  0.62677555202E+01  0.46700000000E-02 0.  1.
          1   -1    0    0  501    0  0.00000000000E+00 -0.00000000000E+00 -0.34266845761E+02  0.34266846079E+02  0.46700000000E-02 0. -1.
        -11    1    1    2    0    0 -0.96041963929E+01  0.10786900538E+02 -0.17437026293E+02  0.22641724709E+02  0.51100000000E-03 0.  1.
         11    1    1    2    0    0  0.96041963929E+01 -0.10786900538E+02 -0.10562065687E+02  0.17892876891E+02  0.51100000000E-03 0. -1.
<mgrwt>
<rscale>  0 0.29310489E+02</rscale>
<asrwt>0</asrwt>
<pdfrwt beam="2">  1        1 0.52718225E-02 0.29310489E+02</pdfrwt>
<pdfrwt beam="1">  1       -1 0.96426998E-03 0.29310489E+02</pdfrwt>
<totfact> 0.16882403E+06</totfact>
</mgrwt>
</event>
<event>
 4    1  0.4244376E-001  0.4158970E+02  0.7818608E-02  0.1496828E+00
         -1   -1    0    0    0  501 -0.00000000000E+00  0.00000000000E+00  0.20780163358E+01  0.20780215833E+01  0.46700000000E-02 0.  1.
          1   -1    0    0  501    0  0.00000000000E+00 -0.00000000000E+00 -0.20809520823E+03  0.20809520828E+03  0.46700000000E-02 0. -1.
        -11    1    1    2    0    0  0.10556091552E+02  0.17778980582E+02 -0.91819270085E+02  0.94118550661E+02  0.51100000000E-03 0. -1.
         11    1    1    2    0    0 -0.10556091552E+02 -0.17778980582E+02 -0.11419792181E+03  0.11605467920E+03  0.51100000000E-03 0.  1.
<mgrwt>
<rscale>  0 0.41589701E+02</rscale>
<asrwt>0</asrwt>
<pdfrwt beam="2">  1        1 0.32014631E-01 0.41589701E+02</pdfrwt>
<pdfrwt beam="1">  1       -1 0.31969539E-03 0.41589701E+02</pdfrwt>
<totfact> 0.89271609E+05</totfact>
</mgrwt>
</event>
<event>
 4    1  0.4244376E-001  0.6074931E+02  0.7818608E-02  0.1394714E+00
         -1   -1    0    0    0  501 -0.00000000000E+00  0.00000000000E+00  0.10869020695E+02  0.10869021698E+02  0.46700000000E-02 0.  1.
          1   -1    0    0  501    0  0.00000000000E+00 -0.00000000000E+00 -0.84885247824E+02  0.84885247953E+02  0.46700000000E-02 0. -1.
        -11    1    1    2    0    0 -0.18777492611E+02  0.18002816926E+02 -0.61726334552E+02  0.66983848975E+02  0.51100000000E-03 0. -1.
         11    1    1    2    0    0  0.18777492611E+02 -0.18002816926E+02 -0.12289892577E+02  0.28770420676E+02  0.51100000000E-03 0.  1.
<mgrwt>
<rscale>  0 0.60749307E+02</rscale>
<asrwt>0</asrwt>
<pdfrwt beam="2">  1        1 0.13059269E-01 0.60749307E+02</pdfrwt>
<pdfrwt beam="1">  1       -1 0.16721572E-02 0.60749307E+02</pdfrwt>
<totfact> 0.30014714E+05</totfact>
</mgrwt>
</event>
<event>
 4    1  0.4244376E-001  0.2681987E+02  0.7818608E-02  0.1636159E+00
          1   -1    0    0  501    0  0.00000000000E+00  0.00000000000E+00  0.14908656346E+02  0.14908657077E+02  0.46700000000E-02 0. -1.
         -1   -1    0    0    0  501 -0.00000000000E+00 -0.00000000000E+00 -0.12061872631E+02  0.12061873535E+02  0.46700000000E-02 0.  1.
        -11    1    1    2    0    0 -0.19914172931E+01  0.13037782554E+02 -0.10144414372E+01  0.13227948006E+02  0.51100000000E-03 0.  1.
         11    1    1    2    0    0  0.19914172931E+01 -0.13037782554E+02  0.38612251520E+01  0.13742582606E+02  0.51100000000E-03 0. -1.
<mgrwt>
<rscale>  0 0.26819868E+02</rscale>
<asrwt>0</asrwt>
<pdfrwt beam="1">  1        1 0.22936396E-02 0.26819868E+02</pdfrwt>
<pdfrwt beam="2">  1       -1 0.18556728E-02 0.26819868E+02</pdfrwt>
<totfact> 0.19895973E+06</totfact>
</mgrwt>
</event>
<event>
 4    1  0.4244376E-001  0.2160131E+02  0.7818608E-02  0.1715240E+00
         -1   -1    0    0    0  501 -0.00000000000E+00  0.00000000000E+00  0.22140833563E+01  0.22140882814E+01  0.46700000000E-02 0.  1.
          1   -1    0    0  501    0  0.00000000000E+00 -0.00000000000E+00 -0.52687249535E+02  0.52687249742E+02  0.46700000000E-02 0. -1.
        -11    1    1    2    0    0 -0.22035797564E+01 -0.99035411603E+01 -0.15823071250E+02  0.18796421875E+02  0.51100000000E-03 0. -1.
         11    1    1    2    0    0  0.22035797564E+01  0.99035411603E+01 -0.34650094929E+02  0.36104916149E+02  0.51100000000E-03 0.  1.
<mgrwt>
<rscale>  0 0.21601306E+02</rscale>
<asrwt>0</asrwt>
<pdfrwt beam="2">  1        1 0.81057302E-02 0.21601306E+02</pdfrwt>
<pdfrwt beam="1">  1       -1 0.34062864E-03 0.21601306E+02</pdfrwt>
<totfact> 0.35241537E+06</totfact>
</mgrwt>
</event>
<event>
 4    1  0.4244376E-001  0.2153467E+02  0.7818608E-02  0.1716426E+00
         -1   -1    0    0    0  501 -0.00000000000E+00  0.00000000000E+00  0.55673843300E+02  0.55673843496E+02  0.46700000000E-02 0.  1.
          1   -1    0    0  501    0  0.00000000000E+00 -0.00000000000E+00 -0.20824032079E+01  0.20824084444E+01  0.46700000000E-02 0. -1.
        -11    1    1    2    0    0 -0.38876247147E+01 -0.10033961507E+02  0.25786709360E+02  0.27941875193E+02  0.51100000000E-03 0. -1.
         11    1    1    2    0    0  0.38876247147E+01  0.10033961507E+02  0.27804730732E+02  0.29814376747E+02  0.51100000000E-03 0.  1.
<mgrwt>
<rscale>  0 0.21534674E+02</rscale>
<asrwt>0</asrwt>
<pdfrwt beam="2">  1        1 0.32037018E-03 0.21534674E+02</pdfrwt>
<pdfrwt beam="1">  1       -1 0.85652061E-02 0.21534674E+02</pdfrwt>
<totfact> 0.29323012E+06</totfact>
</mgrwt>
</event>
<event>
 4    1  0.4244376E-001  0.2478427E+02  0.7818608E-02  0.1664120E+00
         -1   -1    0    0    0  501 -0.00000000000E+00  0.00000000000E+00  0.28164569843E+02  0.28164570230E+02  0.46700000000E-02 0.  1.
          1   -1    0    0  501    0  0.00000000000E+00 -0.00000000000E+00 -0.54524186938E+01  0.54524206937E+01  0.46700000000E-02 0. -1.
        -11    1    1    2    0    0 -0.46482358899E+01  0.10436950634E+02  0.48469828003E+01  0.12410853232E+02  0.51100000000E-03 0. -1.
         11    1    1    2    0    0  0.46482358899E+01 -0.10436950634E+02  0.17865168349E+02  0.21206137692E+02  0.51100000000E-03 0.  1.
<mgrwt>
<rscale>  0 0.24784275E+02</rscale>
<asrwt>0</asrwt>
<pdfrwt beam="2">  1        1 0.83883381E-03 0.24784275E+02</pdfrwt>
<pdfrwt beam="1">  1       -1 0.43330110E-02 0.24784275E+02</pdfrwt>
<totfact> 0.22681310E+06</totfact>
</mgrwt>
</event>
<event>
 4    1  0.4244376E-001  0.2106234E+02  0.7818608E-02  0.1724992E+00
         -1   -1    0    0    0  501 -0.00000000000E+00  0.00000000000E+00  0.76572395585E+01  0.76572409826E+01  0.46700000000E-02 0.  1.
          1   -1    0    0  501    0  0.00000000000E+00 -0.00000000000E+00 -0.14483744737E+02  0.14483745490E+02  0.46700000000E-02 0. -1.
        -11    1    1    2    0    0 -0.77472825441E+01  0.68788833106E+01 -0.53983755499E+01  0.11682546009E+02  0.51100000000E-03 0. -1.
         11    1    1    2    0    0  0.77472825441E+01 -0.68788833106E+01 -0.14281296281E+01  0.10458440463E+02  0.51100000000E-03 0.  1.
<mgrwt>
<rscale>  0 0.21062339E+02</rscale>
<asrwt>0</asrwt>
<pdfrwt beam="2">  1        1 0.22282686E-02 0.21062339E+02</pdfrwt>
<pdfrwt beam="1">  1       -1 0.11780370E-02 0.21062339E+02</pdfrwt>
<totfact> 0.34853597E+06</totfact>
</mgrwt>
</event>
<event>
 4    1  0.4244376E-001  0.3631995E+02  0.7818608E-02  0.1537182E+00
          1   -1    0    0  501    0  0.00000000000E+00  0.00000000000E+00  0.29504293276E+02  0.29504293646E+02  0.46700000000E-02 0.  1.
         -1   -1    0    0    0  501 -0.00000000000E+00 -0.00000000000E+00 -0.11177515734E+02  0.11177516710E+02  0.46700000000E-02 0. -1.
        -11    1    1    2    0    0 -0.16515671388E+02  0.75120202010E+01  0.10021472860E+02  0.20727464086E+02  0.51100000000E-03 0. -1.
         11    1    1    2    0    0  0.16515671388E+02 -0.75120202010E+01  0.83053046823E+01  0.19954346269E+02  0.51100000000E-03 0.  1.
<mgrwt>
<rscale>  0 0.36319952E+02</rscale>
<asrwt>0</asrwt>
<pdfrwt beam="1">  1        1 0.45391222E-02 0.36319952E+02</pdfrwt>
<pdfrwt beam="2">  1       -1 0.17196179E-02 0.36319952E+02</pdfrwt>
<totfact> 0.99494914E+05</totfact>
</mgrwt>
</event>
<event>
 4    1  0.4244376E-001  0.2961078E+02  0.7818608E-02  0.1602431E+00
          1   -1    0    0  501    0  0.00000000000E+00  0.00000000000E+00  0.10547388050E+02  0.10547389084E+02  0.46700000000E-02 0. -1.
         -1   -1    0    0    0  501 -0.00000000000E+00 -0.00000000000E+00 -0.20782356112E+02  0.20782356637E+02  0.46700000000E-02 0.  1.
        -11    1    1    2    0    0  0.11030924925E+02 -0.97464019965E+01 -0.67990685107E+01  0.16214221827E+02  0.51100000000E-03 0. -1.
         11    1    1    2    0    0 -0.11030924925E+02  0.97464019965E+01 -0.34358995513E+01  0.15115523893E+02  0.51100000000E-03 0.  1.
<mgrwt>
<rscale>  0 0.29610782E+02</rscale>
<asrwt>0</asrwt>
<pdfrwt beam="1">  1        1 0.16226752E-02 0.29610782E+02</pdfrwt>
<pdfrwt beam="2">  1       -1 0.31972857E-02 0.29610782E+02</pdfrwt>
<totfact> 0.15380350E+06</totfact>
</mgrwt>
</event>
<event>
 4    1  0.4244376E-001  0.1527919E+03  0.7818608E-02  0.1197084E+00
          1   -1    0    0  501    0  0.00000000000E+00  0.00000000000E+00  0.25368231996E+02  0.25368232425E+02  0.46700000000E-02 0. -1.
         -1   -1    0    0    0  501 -0.00000000000E+00 -0.00000000000E+00 -0.23006494171E+03  0.23006494175E+03  0.46700000000E-02 0.  1.
        -11    1    1    2    0    0  0.42150360617E+01 -0.75703165432E+02 -0.86700974080E+02  0.11517723166E+03  0.51100000000E-03 0.  1.
         11    1    1    2    0    0 -0.42150360617E+01  0.75703165432E+02 -0.11799573563E+03  0.14025594252E+03  0.51100000000E-03 0. -1.
<mgrwt>
<rscale>  0 0.15279190E+03</rscale>
<asrwt>0</asrwt>
<pdfrwt beam="1">  1        1 0.39028051E-02 0.15279190E+03</pdfrwt>
<pdfrwt beam="2">  1       -1 0.35394605E-01 0.15279190E+03</pdfrwt>
<totfact> 0.17001339E+04</totfact>
</mgrwt>
</event>
<event>
 4    1  0.4244376E-001  0.2886098E+02  0.7818608E-02  0.1611031E+00
         -1   -1    0    0    0  501 -0.00000000000E+00  0.00000000000E+00  0.83575782091E+01  0.83575795139E+01  0.46700000000E-02 0.  1.
          1   -1    0    0  501    0  0.00000000000E+00 -0.00000000000E+00 -0.24916190079E+02  0.24916190517E+02  0.46700000000E-02 0. -1.
        -11    1    1    2    0    0  0.14195155772E+02 -0.11330739784E+01 -0.55871636026E+01  0.15297146839E+02  0.51100000000E-03 0. -1.
         11    1    1    2    0    0 -0.14195155772E+02  0.11330739784E+01 -0.10971448268E+02  0.17976623192E+02  0.51100000000E-03 0.  1.
<mgrwt>
<rscale>  0 0.28860980E+02</rscale>
<asrwt>0</asrwt>
<pdfrwt beam="2">  1        1 0.38332601E-02 0.28860980E+02</pdfrwt>
<pdfrwt beam="1">  1       -1 0.12857814E-02 0.28860980E+02</pdfrwt>
<totfact> 0.17178183E+06</totfact>
</mgrwt>
</event>
<event>
 4    1  0.4244376E-001  0.2409156E+02  0.7818608E-02  0.1674404E+00
          1   -1    0    0  501    0  0.00000000000E+00  0.00000000000E+00  0.15969667835E+02  0.15969668518E+02  0.46700000000E-02 0. -1.
         -1   -1    0    0    0  501 -0.00000000000E+00 -0.00000000000E+00 -0.90860225547E+01  0.90860237548E+01  0.46700000000E-02 0.  1.
        -11    1    1    2    0    0 -0.98797999151E+01 -0.26926740116E+01  0.10039175038E+02  0.14340361760E+02  0.51100000000E-03 0. -1.
         11    1    1    2    0    0  0.98797999151E+01  0.26926740116E+01 -0.31555297573E+01  0.10715330513E+02  0.51100000000E-03 0.  1.
<mgrwt>
<rscale>  0 0.24091558E+02</rscale>
<asrwt>0</asrwt>
<pdfrwt beam="1">  1        1 0.24568721E-02 0.24091558E+02</pdfrwt>
<pdfrwt beam="2">  1       -1 0.13978498E-02 0.24091558E+02</pdfrwt>
<totfact> 0.25692333E+06</totfact>
</mgrwt>
</event>
<event>
 4    1  0.4244376E-001  0.7198987E+02  0.7818608E-02  0.1353454E+00
         -1   -1    0    0    0  501 -0.00000000000E+00  0.00000000000E+00  0.31465673440E+02  0.31465673787E+02  0.46700000000E-02 0. -1.
          1   -1    0    0  501    0  0.00000000000E+00 -0.00000000000E+00 -0.41176152767E+02  0.41176153032E+02  0.46700000000E-02 0.  1.
        -11    1    1    2    0    0  0.29104773505E+02  0.21169771224E+02 -0.54840557757E+01  0.36404971123E+02  0.51100000000E-03 0.  1.
         11    1    1    2    0    0 -0.29104773505E+02 -0.21169771224E+02 -0.42264235514E+01  0.36236855696E+02  0.51100000000E-03 0. -1.
<mgrwt>
<rscale>  0 0.71989871E+02</rscale>
<asrwt>0</asrwt>
<pdfrwt beam="2">  1        1 0.63347928E-02 0.71989871E+02</pdfrwt>
<pdfrwt beam="1">  1       -1 0.48408729E-02 0.71989871E+02</pdfrwt>
<totfact> 0.17499975E+05</totfact>
</mgrwt>
</event>
<event>
 4    1  0.4244376E-001  0.2998653E+02  0.7818608E-02  0.1598238E+00
         -1   -1    0    0    0  501 -0.00000000000E+00  0.00000000000E+00  0.33571887332E+02  0.33571887656E+02  0.46700000000E-02 0.  1.
          1   -1    0    0  501    0  0.00000000000E+00 -0.00000000000E+00 -0.66960170793E+01  0.66960187078E+01  0.46700000000E-02 0. -1.
        -11    1    1    2    0    0  0.12971065827E+02 -0.62060518938E+01  0.77352025938E+01  0.16327798021E+02  0.51100000000E-03 0. -1.
         11    1    1    2    0    0 -0.12971065827E+02  0.62060518938E+01  0.19140667659E+02  0.23940108343E+02  0.51100000000E-03 0.  1.
<mgrwt>
<rscale>  0 0.29986528E+02</rscale>
<asrwt>0</asrwt>
<pdfrwt beam="2">  1        1 0.10301566E-02 0.29986528E+02</pdfrwt>
<pdfrwt beam="1">  1       -1 0.51649058E-02 0.29986528E+02</pdfrwt>
<totfact> 0.14443237E+06</totfact>
</mgrwt>
</event>
<event>
 4    1  0.4244376E-001  0.2588119E+02  0.7818608E-02  0.1648658E+00
          1   -1    0    0  501    0  0.00000000000E+00  0.00000000000E+00  0.20762351593E+01  0.20762404113E+01  0.46700000000E-02 0. -1.
         -1   -1    0    0    0  501 -0.00000000000E+00 -0.00000000000E+00 -0.80654991447E+02  0.80654991582E+02  0.46700000000E-02 0.  1.
        -11    1    1    2    0    0 -0.33243719498E+01 -0.12376524790E+02 -0.33545191572E+02  0.35909743700E+02  0.51100000000E-03 0. -1.
         11    1    1    2    0    0  0.33243719498E+01  0.12376524790E+02 -0.45033564715E+02  0.46821488293E+02  0.51100000000E-03 0.  1.
<mgrwt>
<rscale>  0 0.25881186E+02</rscale>
<asrwt>0</asrwt>
<pdfrwt beam="1">  1        1 0.31942127E-03 0.25881186E+02</pdfrwt>
<pdfrwt beam="2">  1       -1 0.12408458E-01 0.25881186E+02</pdfrwt>
<totfact> 0.18493998E+06</totfact>
</mgrwt>
</event>
<event>
 4    1  0.4244376E-001  0.2359663E+02  0.7818608E-02  0.1682017E+00
          1   -1    0    0  501    0  0.00000000000E+00  0.00000000000E+00  0.68583321126E+02  0.68583321285E+02  0.46700000000E-02 0. -1.
         -1   -1    0    0    0  501 -0.00000000000E+00 -0.00000000000E+00 -0.20296493033E+01  0.20296546759E+01  0.46700000000E-02 0.  1.
        -11    1    1    2    0    0 -0.56492644471E+01 -0.99523848458E+01  0.41864916434E+02  0.43400868438E+02  0.51100000000E-03 0. -1.
         11    1    1    2    0    0  0.56492644471E+01  0.99523848458E+01  0.24688755388E+02  0.27212107522E+02  0.51100000000E-03 0.  1.
<mgrwt>
<rscale>  0 0.23596634E+02</rscale>
<asrwt>0</asrwt>
<pdfrwt beam="1">  1        1 0.10551282E-01 0.23596634E+02</pdfrwt>
<pdfrwt beam="2">  1       -1 0.31225411E-03 0.23596634E+02</pdfrwt>
<totfact> 0.29481968E+06</totfact>
</mgrwt>
</event>
<event>
 4    1  0.4244376E-001  0.4811898E+02  0.7818608E-02  0.1455760E+00
         -1   -1    0    0    0  501 -0.00000000000E+00  0.00000000000E+00  0.10985166279E+03  0.10985166289E+03  0.46700000000E-02 0. -1.
          1   -1    0    0  501    0  0.00000000000E+00 -0.00000000000E+00 -0.52694600734E+01  0.52694621428E+01  0.46700000000E-02 0.  1.
        -11    1    1    2    0    0  0.22551256288E+02  0.29180749459E+01  0.33485844611E+02  0.40476858958E+02  0.51100000000E-03 0.  1.
         11    1    1    2    0    0 -0.22551256288E+02 -0.29180749459E+01  0.71096358108E+02  0.74644266076E+02  0.51100000000E-03 0. -1.
<mgrwt>
<rscale>  0 0.48118981E+02</rscale>
<asrwt>0</asrwt>
<pdfrwt beam="2">  1        1 0.81068644E-03 0.48118981E+02</pdfrwt>
<pdfrwt beam="1">  1       -1 0.16900254E-01 0.48118981E+02</pdfrwt>
<totfact> 0.40261960E+05</totfact>
</mgrwt>
</event>
<event>
 4    1  0.4244376E-001  0.2241451E+02  0.7818608E-02  0.1701180E+00
         -1   -1    0    0    0  501 -0.00000000000E+00  0.00000000000E+00  0.10136325387E+01  0.10136432964E+01  0.46700000000E-02 0. -1.
          1   -1    0    0  501    0  0.00000000000E+00 -0.00000000000E+00 -0.12391258961E+03  0.12391258970E+03  0.46700000000E-02 0.  1.
        -11    1    1    2    0    0  0.94367256069E+01  0.60232978053E+01 -0.64348764626E+02  0.65315353599E+02  0.51100000000E-03 0.  1.
         11    1    1    2    0    0 -0.94367256069E+01 -0.60232978053E+01 -0.58550192450E+02  0.59610879399E+02  0.51100000000E-03 0. -1.
<mgrwt>
<rscale>  0 0.22414505E+02</rscale>
<asrwt>0</asrwt>
<pdfrwt beam="2">  1        1 0.19063464E-01 0.22414505E+02</pdfrwt>
<pdfrwt beam="1">  1       -1 0.15594440E-03 0.22414505E+02</pdfrwt>
<totfact> 0.35299897E+06</totfact>
</mgrwt>
</event>
<event>
 4    1  0.4244376E-001  0.2758727E+02  0.7818608E-02  0.1626399E+00
          1   -1    0    0  501    0  0.00000000000E+00  0.00000000000E+00  0.12102261888E+03  0.12102261897E+03  0.46700000000E-02 0. -1.
         -1   -1    0    0    0  501 -0.00000000000E+00 -0.00000000000E+00 -0.15721357874E+01  0.15721427234E+01  0.46700000000E-02 0.  1.
        -11    1    1    2    0    0 -0.85291679471E+01  0.10086107286E+02  0.77382725145E+02  0.78501989893E+02  0.51100000000E-03 0.  1.
         11    1    1    2    0    0  0.85291679471E+01 -0.10086107286E+02  0.42067757952E+02  0.44092771805E+02  0.51100000000E-03 0. -1.
<mgrwt>
<rscale>  0 0.27587274E+02</rscale>
<asrwt>0</asrwt>
<pdfrwt beam="1">  1        1 0.18618875E-01 0.27587274E+02</pdfrwt>
<pdfrwt beam="2">  1       -1 0.24186746E-03 0.27587274E+02</pdfrwt>
<totfact> 0.21901531E+06</totfact>
</mgrwt>
</event>
<event>
 4    1  0.4244376E-001  0.2434240E+02  0.7818608E-02  0.1670631E+00
         -1   -1    0    0    0  501 -0.00000000000E+00  0.00000000000E+00  0.95695595108E+01  0.95695606503E+01  0.46700000000E-02 0. -1.
          1   -1    0    0  501    0  0.00000000000E+00 -0.00000000000E+00 -0.15480133676E+02  0.15480134381E+02  0.46700000000E-02 0.  1.
        -11    1    1    2    0    0 -0.45450841039E+01 -0.11001834874E+02 -0.34385082674E+00  0.11908668849E+02  0.51100000000E-03 0.  1.
         11    1    1    2    0    0  0.45450841039E+01  0.11001834874E+02 -0.55667233386E+01  0.13141026182E+02  0.51100000000E-03 0. -1.
<mgrwt>
<rscale>  0 0.24342398E+02</rscale>
<asrwt>0</asrwt>
<pdfrwt beam="2">  1        1 0.23815592E-02 0.24342398E+02</pdfrwt>
<pdfrwt beam="1">  1       -1 0.14722401E-02 0.24342398E+02</pdfrwt>
<totfact> 0.25044096E+06</totfact>
</mgrwt>
</event>
<event>
 4    1  0.4244376E-001  0.2494446E+02  0.7818608E-02  0.1661801E+00
         -1   -1    0    0    0  501 -0.00000000000E+00  0.00000000000E+00  0.13608536814E+02  0.13608537615E+02  0.46700000000E-02 0.  1.
          1   -1    0    0  501    0  0.00000000000E+00 -0.00000000000E+00 -0.11430799160E+02  0.11430800114E+02  0.46700000000E-02 0. -1.
        -11    1    1    2    0    0 -0.19516158590E+01  0.10836948762E+02 -0.47907318039E+01  0.12008304394E+02  0.51100000000E-03 0. -1.
         11    1    1    2    0    0  0.19516158590E+01 -0.10836948762E+02  0.69684694582E+01  0.13031033335E+02  0.51100000000E-03 0.  1.
<mgrwt>
<rscale>  0 0.24944456E+02</rscale>
<asrwt>0</asrwt>
<pdfrwt beam="2">  1        1 0.17585846E-02 0.24944456E+02</pdfrwt>
<pdfrwt beam="1">  1       -1 0.20936212E-02 0.24944456E+02</pdfrwt>
<totfact> 0.23308168E+06</totfact>
</mgrwt>
</event>
<event>
 4    1  0.4244376E-001  0.6532889E+02  0.7818608E-02  0.1376739E+00
          1   -1    0    0  501    0  0.00000000000E+00  0.00000000000E+00  0.31283863333E+02  0.31283863682E+02  0.46700000000E-02 0.  1.
         -1   -1    0    0    0  501 -0.00000000000E+00 -0.00000000000E+00 -0.34105956712E+02  0.34105957031E+02  0.46700000000E-02 0. -1.
        -11    1    1    2    0    0  0.57066390423E+01  0.31982973790E+02  0.19817706472E+01  0.32548483172E+02  0.51100000000E-03 0.  1.
         11    1    1    2    0    0 -0.57066390423E+01 -0.31982973790E+02 -0.48038640258E+01  0.32841337541E+02  0.51100000000E-03 0. -1.
<mgrwt>
<rscale>  0 0.65328894E+02</rscale>
<asrwt>0</asrwt>
<pdfrwt beam="1">  1        1 0.48129021E-02 0.65328894E+02</pdfrwt>
<pdfrwt beam="2">  1       -1 0.52470703E-02 0.65328894E+02</pdfrwt>
<totfact> 0.22028469E+05</totfact>
</mgrwt>
</event>
<event>
 4    1  0.4244376E-001  0.2902417E+02  0.7818608E-02  0.1609132E+00
          1   -1    0    0  501    0  0.00000000000E+00  0.00000000000E+00  0.23581290737E+02  0.23581291200E+02  0.46700000000E-02 0. -1.
         -1   -1    0    0    0  501 -0.00000000000E+00 -0.00000000000E+00 -0.89308358793E+01  0.89308371003E+01  0.46700000000E-02 0.  1.
        -11    1    1    2    0    0 -0.69928025463E+01 -0.12670288698E+02  0.85343729456E+01  0.16800923337E+02  0.51100000000E-03 0. -1.
         11    1    1    2    0    0  0.69928025463E+01  0.12670288698E+02  0.61160819123E+01  0.15711204962E+02  0.51100000000E-03 0.  1.
<mgrwt>
<rscale>  0 0.29024174E+02</rscale>
<asrwt>0</asrwt>
<pdfrwt beam="1">  1        1 0.36278910E-02 0.29024174E+02</pdfrwt>
<pdfrwt beam="2">  1       -1 0.13739749E-02 0.29024174E+02</pdfrwt>
<totfact> 0.16896059E+06</totfact>
</mgrwt>
</event>
<event>
 4    1  0.4244376E-001  0.2311091E+02  0.7818608E-02  0.1689719E+00
         -1   -1    0    0    0  501 -0.00000000000E+00  0.00000000000E+00  0.94961053948E+01  0.94961065431E+01  0.46700000000E-02 0. -1.
          1   -1    0    0  501    0  0.00000000000E+00 -0.00000000000E+00 -0.14061394818E+02  0.14061395594E+02  0.46700000000E-02 0.  1.
        -11    1    1    2    0    0  0.10241400327E+02 -0.16391122222E+01 -0.74757517849E+01  0.12785141163E+02  0.51100000000E-03 0.  1.
         11    1    1    2    0    0 -0.10241400327E+02  0.16391122222E+01  0.29104623615E+01  0.10772360974E+02  0.51100000000E-03 0. -1.
<mgrwt>
<rscale>  0 0.23110907E+02</rscale>
<asrwt>0</asrwt>
<pdfrwt beam="2">  1        1 0.21632917E-02 0.23110907E+02</pdfrwt>
<pdfrwt beam="1">  1       -1 0.14609394E-02 0.23110907E+02</pdfrwt>
<totfact> 0.28129085E+06</totfact>
</mgrwt>
</event>
<event>
 4    1  0.4244376E-001  0.3282979E+02  0.7818608E-02  0.1568763E+00
         -1   -1    0    0    0  501 -0.00000000000E+00  0.00000000000E+00  0.36942374541E+02  0.36942374836E+02  0.46700000000E-02 0. -1.
          1   -1    0    0  501    0  0.00000000000E+00 -0.00000000000E+00 -0.72937582339E+01  0.72937597290E+01  0.46700000000E-02 0.  1.
        -11    1    1    2    0    0  0.10587685717E+02  0.33258099888E-01  0.31726401243E+02  0.33446445716E+02  0.51100000000E-03 0. -1.
         11    1    1    2    0    0 -0.10587685717E+02 -0.33258099888E-01 -0.20777849363E+01  0.10789688849E+02  0.51100000000E-03 0.  1.
<mgrwt>
<rscale>  0 0.32829791E+02</rscale>
<asrwt>0</asrwt>
<pdfrwt beam="2">  1        1 0.11221168E-02 0.32829791E+02</pdfrwt>
<pdfrwt beam="1">  1       -1 0.56834423E-02 0.32829791E+02</pdfrwt>
<totfact> 0.11590049E+06</totfact>
</mgrwt>
</event>
<event>
 4    1  0.4244376E-001  0.2166247E+02  0.7818608E-02  0.1714156E+00
         -1   -1    0    0    0  501 -0.00000000000E+00  0.00000000000E+00  0.30952261942E+01  0.30952297172E+01  0.46700000000E-02 0.  1.
          1   -1    0    0  501    0  0.00000000000E+00 -0.00000000000E+00 -0.37902096825E+02  0.37902097112E+02  0.46700000000E-02 0. -1.
        -11    1    1    2    0    0 -0.91195131056E+00  0.10120001436E+02 -0.10304588749E+02  0.14471718412E+02  0.51100000000E-03 0.  1.
         11    1    1    2    0    0  0.91195131056E+00 -0.10120001436E+02 -0.24502281881E+02  0.26525608417E+02  0.51100000000E-03 0. -1.
<mgrwt>
<rscale>  0 0.21662469E+02</rscale>
<asrwt>0</asrwt>
<pdfrwt beam="2">  1        1 0.58310918E-02 0.21662469E+02</pdfrwt>
<pdfrwt beam="1">  1       -1 0.47618896E-03 0.21662469E+02</pdfrwt>
<totfact> 0.34249501E+06</totfact>
</mgrwt>
</event>
<event>
 4    1  0.4244376E-001  0.2725466E+02  0.7818608E-02  0.1630581E+00
          1   -1    0    0  501    0  0.00000000000E+00  0.00000000000E+00  0.21609322168E+02  0.21609322673E+02  0.46700000000E-02 0. -1.
         -1   -1    0    0    0  501 -0.00000000000E+00 -0.00000000000E+00 -0.85937031243E+01  0.85937043932E+01  0.46700000000E-02 0.  1.
        -11    1    1    2    0    0  0.89648016554E+01 -0.99444942242E+01  0.36948055756E+01  0.13889284452E+02  0.51100000000E-03 0. -1.
         11    1    1    2    0    0 -0.89648016554E+01  0.99444942242E+01  0.93208134681E+01  0.16313742614E+02  0.51100000000E-03 0.  1.
<mgrwt>
<rscale>  0 0.27254660E+02</rscale>
<asrwt>0</asrwt>
<pdfrwt beam="1">  1        1 0.33245112E-02 0.27254660E+02</pdfrwt>
<pdfrwt beam="2">  1       -1 0.13221083E-02 0.27254660E+02</pdfrwt>
<totfact> 0.19523391E+06</totfact>
</mgrwt>
</event>
<event>
 4    1  0.4244376E-001  0.2602044E+02  0.7818608E-02  0.1646763E+00
          1   -1    0    0  501    0  0.00000000000E+00  0.00000000000E+00  0.91045177260E+02  0.91045177380E+02  0.46700000000E-02 0.  1.
         -1   -1    0    0    0  501 -0.00000000000E+00 -0.00000000000E+00 -0.18591373637E+01  0.18591432290E+01  0.46700000000E-02 0. -1.
        -11    1    1    2    0    0 -0.12960159309E+02  0.11007046887E+01  0.43530921732E+02  0.45432570115E+02  0.51100000000E-03 0.  1.
         11    1    1    2    0    0  0.12960159309E+02 -0.11007046887E+01  0.45655118164E+02  0.47471750494E+02  0.51100000000E-03 0. -1.
<mgrwt>
<rscale>  0 0.26020436E+02</rscale>
<asrwt>0</asrwt>
<pdfrwt beam="1">  1        1 0.14006950E-01 0.26020436E+02</pdfrwt>
<pdfrwt beam="2">  1       -1 0.28602160E-03 0.26020436E+02</pdfrwt>
<totfact> 0.24235464E+06</totfact>
</mgrwt>
</event>
<event>
 4    1  0.4244376E-001  0.2610694E+02  0.7818608E-02  0.1645593E+00
          1   -1    0    0  501    0  0.00000000000E+00  0.00000000000E+00  0.45062347272E+02  0.45062347514E+02  0.46700000000E-02 0.  1.
         -1   -1    0    0    0  501 -0.00000000000E+00 -0.00000000000E+00 -0.37812709331E+01  0.37812738169E+01  0.46700000000E-02 0. -1.
        -11    1    1    2    0    0  0.11549501016E+02  0.60266600872E+01  0.22184930500E+02  0.25727081977E+02  0.51100000000E-03 0. -1.
         11    1    1    2    0    0 -0.11549501016E+02 -0.60266600872E+01  0.19096145840E+02  0.23116539354E+02  0.51100000000E-03 0.  1.
<mgrwt>
<rscale>  0 0.26106935E+02</rscale>
<asrwt>0</asrwt>
<pdfrwt beam="1">  1        1 0.69326690E-02 0.26106935E+02</pdfrwt>
<pdfrwt beam="2">  1       -1 0.58173424E-03 0.26106935E+02</pdfrwt>
<totfact> 0.22577878E+06</totfact>
</mgrwt>
</event>
<event>
 4    1  0.4244376E-001  0.2325093E+02  0.7818608E-02  0.1687475E+00
         -1   -1    0    0    0  501 -0.00000000000E+00  0.00000000000E+00  0.17651249744E+01  0.17651311521E+01  0.46700000000E-02 0. -1.
          1   -1    0    0  501    0  0.00000000000E+00 -0.00000000000E+00 -0.76567513590E+02  0.76567513733E+02  0.46700000000E-02 0.  1.
        -11    1    1    2    0    0  0.16741385443E+01 -0.11302993793E+02 -0.44619899639E+02  0.46059698789E+02  0.51100000000E-03 0. -1.
         11    1    1    2    0    0 -0.16741385443E+01  0.11302993793E+02 -0.30182488977E+02  0.32272946095E+02  0.51100000000E-03 0.  1.
<mgrwt>
<rscale>  0 0.23250934E+02</rscale>
<asrwt>0</asrwt>
<pdfrwt beam="2">  1        1 0.11779615E-01 0.23250934E+02</pdfrwt>
<pdfrwt beam="1">  1       -1 0.27155823E-03 0.23250934E+02</pdfrwt>
<totfact> 0.30804348E+06</totfact>
</mgrwt>
</event>
<event>
 4    1  0.4244376E-001  0.2432403E+02  0.7818608E-02  0.1670905E+00
          1   -1    0    0  501    0  0.00000000000E+00  0.00000000000E+00  0.90227640885E+01  0.90227652971E+01  0.46700000000E-02 0. -1.
         -1   -1    0    0    0  501 -0.00000000000E+00 -0.00000000000E+00 -0.16393487883E+02  0.16393488548E+02  0.46700000000E-02 0.  1.
        -11    1    1    2    0    0 -0.46467047521E+01 -0.11209904880E+02 -0.28359868659E+01  0.12461807823E+02  0.51100000000E-03 0. -1.
         11    1    1    2    0    0  0.46467047521E+01  0.11209904880E+02 -0.45347369286E+01  0.12954446022E+02  0.51100000000E-03 0.  1.
<mgrwt>
<rscale>  0 0.24324029E+02</rscale>
<asrwt>0</asrwt>
<pdfrwt beam="1">  1        1 0.13881177E-02 0.24324029E+02</pdfrwt>
<pdfrwt beam="2">  1       -1 0.25220752E-02 0.24324029E+02</pdfrwt>
<totfact> 0.24441771E+06</totfact>
</mgrwt>
</event>
<event>
 4    1  0.4244376E-001  0.2720894E+02  0.7818608E-02  0.1631161E+00
          1   -1    0    0  501    0  0.00000000000E+00  0.00000000000E+00  0.31304301052E+02  0.31304301400E+02  0.46700000000E-02 0.  1.
         -1   -1    0    0    0  501 -0.00000000000E+00 -0.00000000000E+00 -0.59123376142E+01  0.59123394586E+01  0.46700000000E-02 0. -1.
        -11    1    1    2    0    0 -0.10433151546E+02 -0.85803697764E+01  0.10486963374E+02  0.17101163638E+02  0.51100000000E-03 0.  1.
         11    1    1    2    0    0  0.10433151546E+02  0.85803697764E+01  0.14905000063E+02  0.20115477221E+02  0.51100000000E-03 0. -1.
<mgrwt>
<rscale>  0 0.27208942E+02</rscale>
<asrwt>0</asrwt>
<pdfrwt beam="1">  1        1 0.48160464E-02 0.27208942E+02</pdfrwt>
<pdfrwt beam="2">  1       -1 0.90959058E-03 0.27208942E+02</pdfrwt>
<totfact> 0.20013049E+06</totfact>
</mgrwt>
</event>
<event>
 4    1  0.4244376E-001  0.2711339E+02  0.7818608E-02  0.1632379E+00
         -1   -1    0    0    0  501 -0.00000000000E+00  0.00000000000E+00  0.64903564566E+01  0.64903581367E+01  0.46700000000E-02 0.  1.
          1   -1    0    0  501    0  0.00000000000E+00 -0.00000000000E+00 -0.28316468255E+02  0.28316468640E+02  0.46700000000E-02 0. -1.
        -11    1    1    2    0    0 -0.10753821868E+02 -0.11395146498E+01 -0.21408516266E+02  0.23984739885E+02  0.51100000000E-03 0. -1.
         11    1    1    2    0    0  0.10753821868E+02  0.11395146498E+01 -0.41759553319E+00  0.10822086892E+02  0.51100000000E-03 0.  1.
<mgrwt>
<rscale>  0 0.27113392E+02</rscale>
<asrwt>0</asrwt>
<pdfrwt beam="2">  1        1 0.43563798E-02 0.27113392E+02</pdfrwt>
<pdfrwt beam="1">  1       -1 0.99851655E-03 0.27113392E+02</pdfrwt>
<totfact> 0.20060644E+06</totfact>
</mgrwt>
</event>
<event>
 4    1  0.4244376E-001  0.2282161E+02  0.7818608E-02  0.1694418E+00
          1   -1    0    0  501    0  0.00000000000E+00  0.00000000000E+00  0.74382324733E+02  0.74382324879E+02  0.46700000000E-02 0.  1.
         -1   -1    0    0    0  501 -0.00000000000E+00 -0.00000000000E+00 -0.17505002681E+01  0.17505064974E+01  0.46700000000E-02 0. -1.
        -11    1    1    2    0    0  0.15838203571E+01 -0.10625617450E+02  0.23484553076E+02  0.25825113098E+02  0.51100000000E-03 0. -1.
         11    1    1    2    0    0 -0.15838203571E+01  0.10625617450E+02  0.49147271389E+02  0.50307718278E+02  0.51100000000E-03 0.  1.
<mgrwt>
<rscale>  0 0.22821614E+02</rscale>
<asrwt>0</asrwt>
<pdfrwt beam="1">  1        1 0.11443439E-01 0.22821614E+02</pdfrwt>
<pdfrwt beam="2">  1       -1 0.26930814E-03 0.22821614E+02</pdfrwt>
<totfact> 0.32045411E+06</totfact>
</mgrwt>
</event>
<event>
 4    1  0.4244376E-001  0.2435376E+02  0.7818608E-02  0.1670461E+00
         -1   -1    0    0    0  501 -0.00000000000E+00  0.00000000000E+00  0.54564351874E+01  0.54564371859E+01  0.46700000000E-02 0.  1.
          1   -1    0    0  501    0  0.00000000000E+00 -0.00000000000E+00 -0.27174583777E+02  0.27174584179E+02  0.46700000000E-02 0. -1.
        -11    1    1    2    0    0  0.95235107880E+01  0.64365199161E+01 -0.16243701009E+02  0.19899343434E+02  0.51100000000E-03 0. -1.
         11    1    1    2    0    0 -0.95235107880E+01 -0.64365199161E+01 -0.54744475809E+01  0.12731677931E+02  0.51100000000E-03 0.  1.
<mgrwt>
<rscale>  0 0.24353759E+02</rscale>
<asrwt>0</asrwt>
<pdfrwt beam="2">  1        1 0.41807053E-02 0.24353759E+02</pdfrwt>
<pdfrwt beam="1">  1       -1 0.83945177E-03 0.24353759E+02</pdfrwt>
<totfact> 0.25716033E+06</totfact>
</mgrwt>
</event>
<event>
 4    1  0.4244376E-001  0.2288550E+02  0.7818608E-02  0.1693373E+00
         -1   -1    0    0    0  501 -0.00000000000E+00  0.00000000000E+00  0.66708751633E+01  0.66708767979E+01  0.46700000000E-02 0. -1.
          1   -1    0    0  501    0  0.00000000000E+00 -0.00000000000E+00 -0.19628090202E+02  0.19628090758E+02  0.46700000000E-02 0.  1.
        -11    1    1    2    0    0 -0.51284436244E+01  0.10203542105E+02 -0.73099491321E+01  0.13559076741E+02  0.51100000000E-03 0. -1.
         11    1    1    2    0    0  0.51284436244E+01 -0.10203542105E+02 -0.56472659068E+01  0.12739890815E+02  0.51100000000E-03 0.  1.
<mgrwt>
<rscale>  0 0.22885504E+02</rscale>
<asrwt>0</asrwt>
<pdfrwt beam="2">  1        1 0.30197063E-02 0.22885504E+02</pdfrwt>
<pdfrwt beam="1">  1       -1 0.10262887E-02 0.22885504E+02</pdfrwt>
<totfact> 0.29205902E+06</totfact>
</mgrwt>
</event>
<event>
 4    1  0.4244376E-001  0.2988981E+02  0.7818608E-02  0.1599310E+00
         -1   -1    0    0    0  501 -0.00000000000E+00  0.00000000000E+00  0.22254608473E+02  0.22254608963E+02  0.46700000000E-02 0. -1.
          1   -1    0    0  501    0  0.00000000000E+00 -0.00000000000E+00 -0.10036131224E+02  0.10036132311E+02  0.46700000000E-02 0.  1.
        -11    1    1    2    0    0 -0.72979157610E+01  0.11049068767E+02  0.13594635436E+02  0.18977766148E+02  0.51100000000E-03 0. -1.
         11    1    1    2    0    0  0.72979157610E+01 -0.11049068767E+02 -0.13761581875E+01  0.13312975125E+02  0.51100000000E-03 0.  1.
<mgrwt>
<rscale>  0 0.29889811E+02</rscale>
<asrwt>0</asrwt>
<pdfrwt beam="2">  1        1 0.15440203E-02 0.29889811E+02</pdfrwt>
<pdfrwt beam="1">  1       -1 0.34237860E-02 0.29889811E+02</pdfrwt>
<totfact> 0.14984167E+06</totfact>
</mgrwt>
</event>
<event>
 4    1  0.4244376E-001  0.3085180E+02  0.7818608E-02  0.1588860E+00
          1   -1    0    0  501    0  0.00000000000E+00  0.00000000000E+00  0.13565731453E+02  0.13565732256E+02  0.46700000000E-02 0. -1.
         -1   -1    0    0    0  501 -0.00000000000E+00 -0.00000000000E+00 -0.17541143537E+02  0.17541144159E+02  0.46700000000E-02 0.  1.
        -11    1    1    2    0    0  0.14746525741E+02 -0.45226102631E+01 -0.17751563892E+01  0.15526274681E+02  0.51100000000E-03 0. -1.
         11    1    1    2    0    0 -0.14746525741E+02  0.45226102631E+01 -0.22002556956E+01  0.15580601734E+02  0.51100000000E-03 0.  1.
<mgrwt>
<rscale>  0 0.30851805E+02</rscale>
<asrwt>0</asrwt>
<pdfrwt beam="1">  1        1 0.20870357E-02 0.30851805E+02</pdfrwt>
<pdfrwt beam="2">  1       -1 0.26986376E-02 0.30851805E+02</pdfrwt>
<totfact> 0.14128601E+06</totfact>
</mgrwt>
</event>
<event>
 4    1  0.4244376E-001  0.2301920E+02  0.7818608E-02  0.1691199E+00
         -1   -1    0    0    0  501 -0.00000000000E+00  0.00000000000E+00  0.24521756080E+01  0.24521800548E+01  0.46700000000E-02 0.  1.
          1   -1    0    0  501    0  0.00000000000E+00 -0.00000000000E+00 -0.54021729377E+02  0.54021729579E+02  0.46700000000E-02 0. -1.
        -11    1    1    2    0    0  0.18102287483E+01  0.11003617663E+02 -0.18796260692E+02  0.21855341363E+02  0.51100000000E-03 0. -1.
         11    1    1    2    0    0 -0.18102287483E+01 -0.11003617663E+02 -0.32773293076E+02  0.34618568271E+02  0.51100000000E-03 0.  1.
<mgrwt>
<rscale>  0 0.23019201E+02</rscale>
<asrwt>0</asrwt>
<pdfrwt beam="2">  1        1 0.83110348E-02 0.23019201E+02</pdfrwt>
<pdfrwt beam="1">  1       -1 0.37725818E-03 0.23019201E+02</pdfrwt>
<totfact> 0.30574966E+06</totfact>
</mgrwt>
</event>
<event>
 4    1  0.4244376E-001  0.2929107E+02  0.7818608E-02  0.1606060E+00
          1   -1    0    0  501    0  0.00000000000E+00  0.00000000000E+00  0.85249190984E+01  0.85249203776E+01  0.46700000000E-02 0.  1.
         -1   -1    0    0    0  501 -0.00000000000E+00 -0.00000000000E+00 -0.25160555706E+02  0.25160556139E+02  0.46700000000E-02 0. -1.
        -11    1    1    2    0    0 -0.10390225188E+02 -0.97322484862E+01 -0.43642909189E+01  0.14890281244E+02  0.51100000000E-03 0.  1.
         11    1    1    2    0    0  0.10390225188E+02  0.97322484862E+01 -0.12271345688E+02  0.18795195272E+02  0.51100000000E-03 0. -1.
<mgrwt>
<rscale>  0 0.29291072E+02</rscale>
<asrwt>0</asrwt>
<pdfrwt beam="1">  1        1 0.13115262E-02 0.29291072E+02</pdfrwt>
<pdfrwt beam="2">  1       -1 0.38708548E-02 0.29291072E+02</pdfrwt>
<totfact> 0.15577921E+06</totfact>
</mgrwt>
</event>
<event>
 4    1  0.4244376E-001  0.3239363E+02  0.7818608E-02  0.1573044E+00
         -1   -1    0    0    0  501 -0.00000000000E+00  0.00000000000E+00  0.36398708497E+02  0.36398708796E+02  0.46700000000E-02 0.  1.
          1   -1    0    0  501    0  0.00000000000E+00 -0.00000000000E+00 -0.72073120788E+01  0.72073135918E+01  0.46700000000E-02 0. -1.
        -11    1    1    2    0    0  0.70706757891E+00  0.11166904946E+02 -0.11682283008E+01  0.11250087477E+02  0.51100000000E-03 0. -1.
         11    1    1    2    0    0 -0.70706757891E+00 -0.11166904946E+02  0.30359624719E+02  0.32355934911E+02  0.51100000000E-03 0.  1.
<mgrwt>
<rscale>  0 0.32393635E+02</rscale>
<asrwt>0</asrwt>
<pdfrwt beam="2">  1        1 0.11088174E-02 0.32393635E+02</pdfrwt>
<pdfrwt beam="1">  1       -1 0.55998015E-02 0.32393635E+02</pdfrwt>
<totfact> 0.11975495E+06</totfact>
</mgrwt>
</event>
<event>
 4    1  0.4244376E-001  0.2252287E+02  0.7818608E-02  0.1699363E+00
         -1   -1    0    0    0  501 -0.00000000000E+00  0.00000000000E+00  0.55909001866E+01  0.55909021370E+01  0.46700000000E-02 0.  1.
          1   -1    0    0  501    0  0.00000000000E+00 -0.00000000000E+00 -0.22683258642E+02  0.22683259123E+02  0.46700000000E-02 0. -1.
        -11    1    1    2    0    0 -0.54925805532E+01 -0.98057155570E+01 -0.94332892131E+01  0.14673358319E+02  0.51100000000E-03 0.  1.
         11    1    1    2    0    0  0.54925805532E+01  0.98057155570E+01 -0.76590692425E+01  0.13600802941E+02  0.51100000000E-03 0. -1.
<mgrwt>
<rscale>  0 0.22522866E+02</rscale>
<asrwt>0</asrwt>
<pdfrwt beam="2">  1        1 0.34897322E-02 0.22522866E+02</pdfrwt>
<pdfrwt beam="1">  1       -1 0.86013869E-03 0.22522866E+02</pdfrwt>
<totfact> 0.30500638E+06</totfact>
</mgrwt>
</event>
<event>
 4    1  0.4244376E-001  0.6690469E+02  0.7818608E-02  0.1370947E+00
         -1   -1    0    0    0  501 -0.00000000000E+00  0.00000000000E+00  0.15617136718E+02  0.15617137416E+02  0.46700000000E-02 0.  1.
          1   -1    0    0  501    0  0.00000000000E+00 -0.00000000000E+00 -0.71655860755E+02  0.71655860907E+02  0.46700000000E-02 0. -1.
        -11    1    1    2    0    0 -0.23488742906E+02 -0.26741539494E+01 -0.58893152040E+02  0.63460818621E+02  0.51100000000E-03 0. -1.
         11    1    1    2    0    0  0.23488742906E+02  0.26741539494E+01  0.28544280024E+01  0.23812179702E+02  0.51100000000E-03 0.  1.
<mgrwt>
<rscale>  0 0.66904691E+02</rscale>
<asrwt>0</asrwt>
<pdfrwt beam="2">  1        1 0.11023978E-01 0.66904691E+02</pdfrwt>
<pdfrwt beam="1">  1       -1 0.24026365E-02 0.66904691E+02</pdfrwt>
<totfact> 0.22804762E+05</totfact>
</mgrwt>
</event>
<event>
 4    1  0.4244376E-001  0.7613461E+02  0.7818608E-02  0.1340393E+00
          1   -1    0    0  501    0  0.00000000000E+00  0.00000000000E+00  0.10324559398E+03  0.10324559409E+03  0.46700000000E-02 0. -1.
         -1   -1    0    0    0  501 -0.00000000000E+00 -0.00000000000E+00 -0.14035656975E+02  0.14035657752E+02  0.46700000000E-02 0.  1.
        -11    1    1    2    0    0  0.19494905910E+02 -0.31979503014E+02  0.55095826257E+02  0.66620492648E+02  0.51100000000E-03 0. -1.
         11    1    1    2    0    0 -0.19494905910E+02  0.31979503014E+02  0.34114110753E+02  0.50660759195E+02  0.51100000000E-03 0.  1.
<mgrwt>
<rscale>  0 0.76134612E+02</rscale>
<asrwt>0</asrwt>
<pdfrwt beam="1">  1        1 0.15883937E-01 0.76134612E+02</pdfrwt>
<pdfrwt beam="2">  1       -1 0.21593320E-02 0.76134612E+02</pdfrwt>
<totfact> 0.17059617E+05</totfact>
</mgrwt>
</event>
<event>
 4    1  0.4244376E-001  0.2516983E+02  0.7818608E-02  0.1658574E+00
          1   -1    0    0  501    0  0.00000000000E+00  0.00000000000E+00  0.17598581081E+01  0.17598643043E+01  0.46700000000E-02 0.  1.
         -1   -1    0    0    0  501 -0.00000000000E+00 -0.00000000000E+00 -0.89995807016E+02  0.89995807137E+02  0.46700000000E-02 0. -1.
        -11    1    1    2    0    0  0.12484715262E+02 -0.13100921973E+01 -0.47369766315E+02  0.49004889733E+02  0.51100000000E-03 0.  1.
         11    1    1    2    0    0 -0.12484715262E+02  0.13100921973E+01 -0.40866182592E+02  0.42750781708E+02  0.51100000000E-03 0. -1.
<mgrwt>
<rscale>  0 0.25169834E+02</rscale>
<asrwt>0</asrwt>
<pdfrwt beam="1">  1        1 0.27074796E-03 0.25169834E+02</pdfrwt>
<pdfrwt beam="2">  1       -1 0.13845506E-01 0.25169834E+02</pdfrwt>
<totfact> 0.19393351E+06</totfact>
</mgrwt>
</event>
<event>
 4    1  0.4244376E-001  0.7011801E+02  0.7818608E-02  0.1359692E+00
         -1   -1    0    0    0  501 -0.00000000000E+00  0.00000000000E+00  0.64193525711E+02  0.64193525881E+02  0.46700000000E-02 0. -1.
          1   -1    0    0  501    0  0.00000000000E+00 -0.00000000000E+00 -0.19147318112E+02  0.19147318681E+02  0.46700000000E-02 0.  1.
        -11    1    1    2    0    0 -0.39716851457E+01  0.21464490877E+02 -0.10084627135E+02  0.24045755472E+02  0.51100000000E-03 0.  1.
         11    1    1    2    0    0  0.39716851457E+01 -0.21464490877E+02  0.55130834734E+02  0.59295089090E+02  0.51100000000E-03 0. -1.
<mgrwt>
<rscale>  0 0.70118012E+02</rscale>
<asrwt>0</asrwt>
<pdfrwt beam="2">  1        1 0.29457413E-02 0.70118012E+02</pdfrwt>
<pdfrwt beam="1">  1       -1 0.98759272E-02 0.70118012E+02</pdfrwt>
<totfact> 0.17065367E+05</totfact>
</mgrwt>
</event>
<event>
 4    1  0.4244376E-001  0.2167658E+02  0.7818608E-02  0.1713906E+00
          1   -1    0    0  501    0  0.00000000000E+00  0.00000000000E+00  0.98847727823E+02  0.98847727934E+02  0.46700000000E-02 0. -1.
         -1   -1    0    0    0  501 -0.00000000000E+00 -0.00000000000E+00 -0.11883736060E+01  0.11883827819E+01  0.46700000000E-02 0.  1.
        -11    1    1    2    0    0  0.99511520060E+01  0.33831517401E+01  0.61037353070E+02  0.61935689324E+02  0.51100000000E-03 0. -1.
         11    1    1    2    0    0 -0.99511520060E+01 -0.33831517401E+01  0.36622001147E+02  0.38100421391E+02  0.51100000000E-03 0.  1.
<mgrwt>
<rscale>  0 0.21676577E+02</rscale>
<asrwt>0</asrwt>
<pdfrwt beam="1">  1        1 0.15207347E-01 0.21676577E+02</pdfrwt>
<pdfrwt beam="2">  1       -1 0.18282738E-03 0.21676577E+02</pdfrwt>
<totfact> 0.37047203E+06</totfact>
</mgrwt>
</event>
<event>
 4    1  0.4244376E-001  0.2129819E+02  0.7818608E-02  0.1720680E+00
          1   -1    0    0  501    0  0.00000000000E+00  0.00000000000E+00  0.65512863950E+02  0.65512864116E+02  0.46700000000E-02 0. -1.
         -1   -1    0    0    0  501 -0.00000000000E+00 -0.00000000000E+00 -0.17310029157E+01  0.17310092152E+01  0.46700000000E-02 0.  1.
        -11    1    1    2    0    0 -0.10462203168E+02  0.85275524472E+00  0.37554922611E+02  0.38994321371E+02  0.51100000000E-03 0. -1.
         11    1    1    2    0    0  0.10462203168E+02 -0.85275524472E+00  0.26226938423E+02  0.28249551960E+02  0.51100000000E-03 0.  1.
<mgrwt>
<rscale>  0 0.21298185E+02</rscale>
<asrwt>0</asrwt>
<pdfrwt beam="1">  1        1 0.10078901E-01 0.21298185E+02</pdfrwt>
<pdfrwt beam="2">  1       -1 0.26630867E-03 0.21298185E+02</pdfrwt>
<totfact> 0.37018406E+06</totfact>
</mgrwt>
</event>
<event>
 4    1  0.4244376E-001  0.2733754E+02  0.7818608E-02  0.1629532E+00
          1   -1    0    0  501    0  0.00000000000E+00  0.00000000000E+00  0.41386684846E+02  0.41386685110E+02  0.46700000000E-02 0. -1.
         -1   -1    0    0    0  501 -0.00000000000E+00 -0.00000000000E+00 -0.45143807562E+01  0.45143831717E+01  0.46700000000E-02 0.  1.
        -11    1    1    2    0    0  0.12405859601E+02  0.49496193311E+00  0.28035404031E+02  0.30661608229E+02  0.51100000000E-03 0. -1.
         11    1    1    2    0    0 -0.12405859601E+02 -0.49496193311E+00  0.88369000594E+01  0.15239460052E+02  0.51100000000E-03 0.  1.
<mgrwt>
<rscale>  0 0.27337543E+02</rscale>
<asrwt>0</asrwt>
<pdfrwt beam="1">  1        1 0.63671824E-02 0.27337543E+02</pdfrwt>
<pdfrwt beam="2">  1       -1 0.69452034E-03 0.27337543E+02</pdfrwt>
<totfact> 0.20152805E+06</totfact>
</mgrwt>
</event>
<event>
 4    1  0.4244376E-001  0.2926979E+02  0.7818608E-02  0.1606303E+00
         -1   -1    0    0    0  501 -0.00000000000E+00  0.00000000000E+00  0.64004447780E+01  0.64004464817E+01  0.46700000000E-02 0. -1.
          1   -1    0    0  501    0  0.00000000000E+00 -0.00000000000E+00 -0.33463314752E+02  0.33463315078E+02  0.46700000000E-02 0.  1.
        -11    1    1    2    0    0 -0.12765111868E+02 -0.66433034786E+01 -0.17160078535E+02  0.22395308833E+02  0.51100000000E-03 0.  1.
         11    1    1    2    0    0  0.12765111868E+02  0.66433034786E+01 -0.99027914386E+01  0.17468452726E+02  0.51100000000E-03 0. -1.
<mgrwt>
<rscale>  0 0.29269789E+02</rscale>
<asrwt>0</asrwt>
<pdfrwt beam="2">  1        1 0.51482023E-02 0.29269789E+02</pdfrwt>
<pdfrwt beam="1">  1       -1 0.98468399E-03 0.29269789E+02</pdfrwt>
<totfact> 0.16912225E+06</totfact>
</mgrwt>
</event>
<event>
 4    1  0.4244376E-001  0.3633940E+02  0.7818608E-02  0.1537018E+00
          1   -1    0    0  501    0  0.00000000000E+00  0.00000000000E+00  0.16208699261E+02  0.16208699933E+02  0.46700000000E-02 0. -1.
         -1   -1    0    0    0  501 -0.00000000000E+00 -0.00000000000E+00 -0.20367947566E+02  0.20367948102E+02  0.46700000000E-02 0.  1.
        -11    1    1    2    0    0  0.23076766423E+01  0.17713103595E+02  0.12675262773E+01  0.17907708775E+02  0.51100000000E-03 0. -1.
         11    1    1    2    0    0 -0.23076766423E+01 -0.17713103595E+02 -0.54267745830E+01  0.18668939260E+02  0.51100000000E-03 0.  1.
<mgrwt>
<rscale>  0 0.36339398E+02</rscale>
<asrwt>0</asrwt>
<pdfrwt beam="1">  1        1 0.24936461E-02 0.36339398E+02</pdfrwt>
<pdfrwt beam="2">  1       -1 0.31335305E-02 0.36339398E+02</pdfrwt>
<totfact> 0.95397335E+05</totfact>
</mgrwt>
</event>
<event>
 4    1  0.4244376E-001  0.3867727E+02  0.7818608E-02  0.1518177E+00
         -1   -1    0    0    0  501 -0.00000000000E+00  0.00000000000E+00  0.77927315391E+02  0.77927315531E+02  0.46700000000E-02 0. -1.
          1   -1    0    0  501    0  0.00000000000E+00 -0.00000000000E+00 -0.47991216246E+01  0.47991238968E+01  0.46700000000E-02 0.  1.
        -11    1    1    2    0    0 -0.10083159693E+02 -0.11411642778E+02  0.62059730699E+02  0.63900750191E+02  0.51100000000E-03 0. -1.
         11    1    1    2    0    0  0.10083159693E+02  0.11411642778E+02  0.11068463067E+02  0.18825689237E+02  0.51100000000E-03 0.  1.
<mgrwt>
<rscale>  0 0.38677268E+02</rscale>
<asrwt>0</asrwt>
<pdfrwt beam="2">  1        1 0.73832660E-03 0.38677268E+02</pdfrwt>
<pdfrwt beam="1">  1       -1 0.11988818E-01 0.38677268E+02</pdfrwt>
<totfact> 0.72326453E+05</totfact>
</mgrwt>
</event>
<event>
 4    1  0.4244376E-001  0.3039252E+02  0.7818608E-02  0.1593790E+00
          1   -1    0    0  501    0  0.00000000000E+00  0.00000000000E+00  0.21557736317E+02  0.21557736823E+02  0.46700000000E-02 0. -1.
         -1   -1    0    0    0  501 -0.00000000000E+00 -0.00000000000E+00 -0.10711989560E+02  0.10711990578E+02  0.46700000000E-02 0.  1.
        -11    1    1    2    0    0  0.88825149035E+00 -0.11432949204E+02  0.16009956573E+02  0.19693146725E+02  0.51100000000E-03 0. -1.
         11    1    1    2    0    0 -0.88825149035E+00  0.11432949204E+02 -0.51642098150E+01  0.12576580676E+02  0.51100000000E-03 0.  1.
<mgrwt>
<rscale>  0 0.30392517E+02</rscale>
<asrwt>0</asrwt>
<pdfrwt beam="1">  1        1 0.33165749E-02 0.30392517E+02</pdfrwt>
<pdfrwt beam="2">  1       -1 0.16479985E-02 0.30392517E+02</pdfrwt>
<totfact> 0.15051725E+06</totfact>
</mgrwt>
</event>
<event>
 4    1  0.4244376E-001  0.4775200E+02  0.7818608E-02  0.1457858E+00
         -1   -1    0    0    0  501 -0.00000000000E+00  0.00000000000E+00  0.15663277603E+02  0.15663278299E+02  0.46700000000E-02 0.  1.
          1   -1    0    0  501    0  0.00000000000E+00 -0.00000000000E+00 -0.36394898859E+02  0.36394899159E+02  0.46700000000E-02 0. -1.
        -11    1    1    2    0    0  0.13009067013E+02 -0.78106606241E+01 -0.30462411097E+02  0.34032348348E+02  0.51100000000E-03 0. -1.
         11    1    1    2    0    0 -0.13009067013E+02  0.78106606241E+01  0.97307898408E+01  0.18025829111E+02  0.51100000000E-03 0.  1.
<mgrwt>
<rscale>  0 0.47752002E+02</rscale>
<asrwt>0</asrwt>
<pdfrwt beam="2">  1        1 0.55992153E-02 0.47752002E+02</pdfrwt>
<pdfrwt beam="1">  1       -1 0.24097351E-02 0.47752002E+02</pdfrwt>
<totfact> 0.50903034E+05</totfact>
</mgrwt>
</event>
<event>
 4    1  0.4244376E-001  0.2388794E+02  0.7818608E-02  0.1677508E+00
          1   -1    0    0  501    0  0.00000000000E+00  0.00000000000E+00  0.54276346676E+02  0.54276346877E+02  0.46700000000E-02 0. -1.
         -1   -1    0    0    0  501 -0.00000000000E+00 -0.00000000000E+00 -0.26283702344E+01  0.26283743832E+01  0.46700000000E-02 0.  1.
        -11    1    1    2    0    0  0.10190252297E+02  0.29332931851E+01  0.38917812735E+02  0.40336603713E+02  0.51100000000E-03 0. -1.
         11    1    1    2    0    0 -0.10190252297E+02 -0.29332931851E+01  0.12730163707E+02  0.16568117547E+02  0.51100000000E-03 0.  1.
<mgrwt>
<rscale>  0 0.23887943E+02</rscale>
<asrwt>0</asrwt>
<pdfrwt beam="1">  1        1 0.83502070E-02 0.23887943E+02</pdfrwt>
<pdfrwt beam="2">  1       -1 0.40436501E-03 0.23887943E+02</pdfrwt>
<totfact> 0.28107015E+06</totfact>
</mgrwt>
</event>
<event>
 4    1  0.4244376E-001  0.4131341E+02  0.7818608E-02  0.1498763E+00
          1   -1    0    0  501    0  0.00000000000E+00  0.00000000000E+00  0.72478803317E+02  0.72478803468E+02  0.46700000000E-02 0. -1.
         -1   -1    0    0    0  501 -0.00000000000E+00 -0.00000000000E+00 -0.58872310823E+01  0.58872329345E+01  0.46700000000E-02 0.  1.
        -11    1    1    2    0    0  0.46010532936E+01  0.15367223219E+02  0.57982636424E+02  0.60160679582E+02  0.51100000000E-03 0. -1.
         11    1    1    2    0    0 -0.46010532936E+01 -0.15367223219E+02  0.86089358113E+01  0.18205356820E+02  0.51100000000E-03 0.  1.
<mgrwt>
<rscale>  0 0.41313414E+02</rscale>
<asrwt>0</asrwt>
<pdfrwt beam="1">  1        1 0.11150586E-01 0.41313414E+02</pdfrwt>
<pdfrwt beam="2">  1       -1 0.90572798E-03 0.41313414E+02</pdfrwt>
<totfact> 0.78239482E+05</totfact>
</mgrwt>
</event>
<event>
 4    1  0.4244376E-001  0.2588420E+02  0.7818608E-02  0.1648617E+00
          1   -1    0    0  501    0  0.00000000000E+00  0.00000000000E+00  0.36814778485E+01  0.36814808105E+01  0.46700000000E-02 0. -1.
         -1   -1    0    0    0  501 -0.00000000000E+00 -0.00000000000E+00 -0.45497468927E+02  0.45497469166E+02  0.46700000000E-02 0.  1.
        -11    1    1    2    0    0  0.63591193939E+01 -0.86214122925E+01 -0.34704746927E+02  0.36320608598E+02  0.51100000000E-03 0. -1.
         11    1    1    2    0    0 -0.63591193939E+01  0.86214122925E+01 -0.71112441512E+01  0.12858341379E+02  0.51100000000E-03 0.  1.
<mgrwt>
<rscale>  0 0.25884204E+02</rscale>
<asrwt>0</asrwt>
<pdfrwt beam="1">  1        1 0.56638149E-03 0.25884204E+02</pdfrwt>
<pdfrwt beam="2">  1       -1 0.69996104E-02 0.25884204E+02</pdfrwt>
<totfact> 0.19758639E+06</totfact>
</mgrwt>
</event>
<event>
 4    1  0.4244376E-001  0.5842283E+02  0.7818608E-02  0.1404572E+00
          1   -1    0    0  501    0  0.00000000000E+00  0.00000000000E+00  0.45315284601E+02  0.45315284841E+02  0.46700000000E-02 0. -1.
         -1   -1    0    0    0  501 -0.00000000000E+00 -0.00000000000E+00 -0.18830439271E+02  0.18830439850E+02  0.46700000000E-02 0.  1.
        -11    1    1    2    0    0  0.28126234873E+02 -0.74765244455E+01  0.10481496530E+02  0.30932915732E+02  0.51100000000E-03 0. -1.
         11    1    1    2    0    0 -0.28126234873E+02  0.74765244455E+01  0.16003348800E+02  0.33212808959E+02  0.51100000000E-03 0.  1.
<mgrwt>
<rscale>  0 0.58422829E+02</rscale>
<asrwt>0</asrwt>
<pdfrwt beam="1">  1        1 0.69715822E-02 0.58422829E+02</pdfrwt>
<pdfrwt beam="2">  1       -1 0.28969907E-02 0.58422829E+02</pdfrwt>
<totfact> 0.30859460E+05</totfact>
</mgrwt>
</event>
<event>
 4    1  0.4244376E-001  0.2969083E+02  0.7818608E-02  0.1601532E+00
          1   -1    0    0  501    0  0.00000000000E+00  0.00000000000E+00  0.51526956470E+01  0.51526977633E+01  0.46700000000E-02 0.  1.
         -1   -1    0    0    0  501 -0.00000000000E+00 -0.00000000000E+00 -0.42771053853E+02  0.42771054108E+02  0.46700000000E-02 0. -1.
        -11    1    1    2    0    0  0.12225311862E+02 -0.84036885106E+01 -0.19702122483E+02  0.24662803192E+02  0.51100000000E-03 0. -1.
         11    1    1    2    0    0 -0.12225311862E+02  0.84036885106E+01 -0.17916235722E+02  0.23260948678E+02  0.51100000000E-03 0.  1.
<mgrwt>
<rscale>  0 0.29690826E+02</rscale>
<asrwt>0</asrwt>
<pdfrwt beam="1">  1        1 0.79272262E-03 0.29690826E+02</pdfrwt>
<pdfrwt beam="2">  1       -1 0.65801621E-02 0.29690826E+02</pdfrwt>
<totfact> 0.14479028E+06</totfact>
</mgrwt>
</event>
<event>
 4    1  0.4244376E-001  0.6013971E+02  0.7818608E-02  0.1397246E+00
         -1   -1    0    0    0  501 -0.00000000000E+00  0.00000000000E+00  0.19020399152E+02  0.19020399726E+02  0.46700000000E-02 0.  1.
          1   -1    0    0  501    0  0.00000000000E+00 -0.00000000000E+00 -0.47538239936E+02  0.47538240166E+02  0.46700000000E-02 0. -1.
        -11    1    1    2    0    0 -0.25317566058E+02  0.14941983137E+02 -0.72633213016E+01  0.30281972323E+02  0.51100000000E-03 0. -1.
         11    1    1    2    0    0  0.25317566058E+02 -0.14941983137E+02 -0.21254519482E+02  0.36276667568E+02  0.51100000000E-03 0.  1.
<mgrwt>
<rscale>  0 0.60139715E+02</rscale>
<asrwt>0</asrwt>
<pdfrwt beam="2">  1        1 0.73135754E-02 0.60139715E+02</pdfrwt>
<pdfrwt beam="1">  1       -1 0.29262153E-02 0.60139715E+02</pdfrwt>
<totfact> 0.28751602E+05</totfact>
</mgrwt>
</event>
<event>
 4    1  0.4244376E-001  0.5834067E+02  0.7818608E-02  0.1404930E+00
         -1   -1    0    0    0  501 -0.00000000000E+00  0.00000000000E+00  0.52911687942E+02  0.52911688149E+02  0.46700000000E-02 0. -1.
          1   -1    0    0  501    0  0.00000000000E+00 -0.00000000000E+00 -0.16081670765E+02  0.16081671443E+02  0.46700000000E-02 0.  1.
        -11    1    1    2    0    0 -0.12557955870E+02 -0.17225221349E+02  0.41963133298E+02  0.47067133571E+02  0.51100000000E-03 0. -1.
         11    1    1    2    0    0  0.12557955870E+02  0.17225221349E+02 -0.51331161199E+01  0.21926226021E+02  0.51100000000E-03 0.  1.
<mgrwt>
<rscale>  0 0.58340668E+02</rscale>
<asrwt>0</asrwt>
<pdfrwt beam="2">  1        1 0.24741032E-02 0.58340668E+02</pdfrwt>
<pdfrwt beam="1">  1       -1 0.81402598E-02 0.58340668E+02</pdfrwt>
<totfact> 0.27727725E+05</totfact>
</mgrwt>
</event>
<event>
 4    1  0.4244376E-001  0.6759339E+02  0.7818608E-02  0.1368473E+00
          1   -1    0    0  501    0  0.00000000000E+00  0.00000000000E+00  0.71454454064E+02  0.71454454216E+02  0.46700000000E-02 0. -1.
         -1   -1    0    0    0  501 -0.00000000000E+00 -0.00000000000E+00 -0.15985238905E+02  0.15985239587E+02  0.46700000000E-02 0.  1.
        -11    1    1    2    0    0 -0.31276334766E+02 -0.12666390113E+02  0.25290397448E+02  0.42169310620E+02  0.51100000000E-03 0. -1.
         11    1    1    2    0    0  0.31276334766E+02  0.12666390113E+02  0.30178817711E+02  0.45270383183E+02  0.51100000000E-03 0.  1.
<mgrwt>
<rscale>  0 0.67593389E+02</rscale>
<asrwt>0</asrwt>
<pdfrwt beam="1">  1        1 0.10992993E-01 0.67593389E+02</pdfrwt>
<pdfrwt beam="2">  1       -1 0.24592676E-02 0.67593389E+02</pdfrwt>
<totfact> 0.22188227E+05</totfact>
</mgrwt>
</event>
<event>
 4    1  0.4244376E-001  0.3831806E+02  0.7818608E-02  0.1520967E+00
         -1   -1    0    0    0  501 -0.00000000000E+00  0.00000000000E+00  0.20543479123E+02  0.20543479654E+02  0.46700000000E-02 0. -1.
          1   -1    0    0  501    0  0.00000000000E+00 -0.00000000000E+00 -0.17867880150E+02  0.17867880760E+02  0.46700000000E-02 0.  1.
        -11    1    1    2    0    0  0.20724226444E+01 -0.12108165695E+02 -0.13400578556E+02  0.18179057126E+02  0.51100000000E-03 0.  1.
         11    1    1    2    0    0 -0.20724226444E+01  0.12108165695E+02  0.16076177529E+02  0.20232303288E+02  0.51100000000E-03 0. -1.
<mgrwt>
<rscale>  0 0.38318061E+02</rscale>
<asrwt>0</asrwt>
<pdfrwt beam="2">  1        1 0.27489047E-02 0.38318061E+02</pdfrwt>
<pdfrwt beam="1">  1       -1 0.31605353E-02 0.38318061E+02</pdfrwt>
<totfact> 0.84093922E+05</totfact>
</mgrwt>
</event>
<event>
 4    1  0.4244376E-001  0.6000006E+02  0.7818608E-02  0.1397832E+00
          1   -1    0    0  501    0  0.00000000000E+00  0.00000000000E+00  0.19421288737E+02  0.19421289298E+02  0.46700000000E-02 0. -1.
         -1   -1    0    0    0  501 -0.00000000000E+00 -0.00000000000E+00 -0.46340984260E+02  0.46340984495E+02  0.46700000000E-02 0.  1.
        -11    1    1    2    0    0 -0.19521217237E+02  0.11022703115E+02  0.83901844187E+01  0.23936856544E+02  0.51100000000E-03 0. -1.
         11    1    1    2    0    0  0.19521217237E+02 -0.11022703115E+02 -0.35309879941E+02  0.41825417249E+02  0.51100000000E-03 0.  1.
<mgrwt>
<rscale>  0 0.60000055E+02</rscale>
<asrwt>0</asrwt>
<pdfrwt beam="1">  1        1 0.29878906E-02 0.60000055E+02</pdfrwt>
<pdfrwt beam="2">  1       -1 0.71293822E-02 0.60000055E+02</pdfrwt>
<totfact> 0.26267773E+05</totfact>
</mgrwt>
</event>
<event>
 4    1  0.4244376E-001  0.2858271E+02  0.7818608E-02  0.1614305E+00
          1   -1    0    0  501    0  0.00000000000E+00  0.00000000000E+00  0.14094092525E+03  0.14094092533E+03  0.46700000000E-02 0.  1.
         -1   -1    0    0    0  501 -0.00000000000E+00 -0.00000000000E+00 -0.14491336407E+01  0.14491411655E+01  0.46700000000E-02 0. -1.
        -11    1    1    2    0    0  0.71502938731E+01 -0.12357420110E+02  0.66555115758E+02  0.68069199849E+02  0.51100000000E-03 0. -1.
         11    1    1    2    0    0 -0.71502938731E+01  0.12357420110E+02  0.72936675853E+02  0.74320866646E+02  0.51100000000E-03 0.  1.
<mgrwt>
<rscale>  0 0.28582706E+02</rscale>
<asrwt>0</asrwt>
<pdfrwt beam="1">  1        1 0.21683217E-01 0.28582706E+02</pdfrwt>
<pdfrwt beam="2">  1       -1 0.22294425E-03 0.28582706E+02</pdfrwt>
<totfact> 0.20588421E+06</totfact>
</mgrwt>
</event>
<event>
 4    1  0.4244376E-001  0.2258438E+02  0.7818608E-02  0.1698337E+00
         -1   -1    0    0    0  501 -0.00000000000E+00  0.00000000000E+00  0.17070908275E+02  0.17070908914E+02  0.46700000000E-02 0.  1.
          1   -1    0    0  501    0  0.00000000000E+00 -0.00000000000E+00 -0.74696364998E+01  0.74696379596E+01  0.46700000000E-02 0. -1.
        -11    1    1    2    0    0 -0.91155510855E+01 -0.60548015407E+01  0.17737493328E+01  0.11086030861E+02  0.51100000000E-03 0. -1.
         11    1    1    2    0    0  0.91155510855E+01  0.60548015407E+01  0.78275224427E+01  0.13454516013E+02  0.51100000000E-03 0.  1.
<mgrwt>
<rscale>  0 0.22584376E+02</rscale>
<asrwt>0</asrwt>
<pdfrwt beam="2">  1        1 0.11491750E-02 0.22584376E+02</pdfrwt>
<pdfrwt beam="1">  1       -1 0.26262937E-02 0.22584376E+02</pdfrwt>
<totfact> 0.28811634E+06</totfact>
</mgrwt>
</event>
<event>
 4    1  0.4244376E-001  0.4219052E+02  0.7818608E-02  0.1492684E+00
         -1   -1    0    0    0  501 -0.00000000000E+00  0.00000000000E+00  0.83542278261E+02  0.83542278391E+02  0.46700000000E-02 0.  1.
          1   -1    0    0  501    0  0.00000000000E+00 -0.00000000000E+00 -0.53267619031E+01  0.53267639502E+01  0.46700000000E-02 0. -1.
        -11    1    1    2    0    0  0.70815648496E+01  0.19705270310E+02  0.44504224293E+02  0.49184064685E+02  0.51100000000E-03 0. -1.
         11    1    1    2    0    0 -0.70815648496E+01 -0.19705270310E+02  0.33711292064E+02  0.39684977656E+02  0.51100000000E-03 0.  1.
<mgrwt>
<rscale>  0 0.42190517E+02</rscale>
<asrwt>0</asrwt>
<pdfrwt beam="2">  1        1 0.81950204E-03 0.42190517E+02</pdfrwt>
<pdfrwt beam="1">  1       -1 0.12852658E-01 0.42190517E+02</pdfrwt>
<totfact> 0.58043282E+05</totfact>
</mgrwt>
</event>
<event>
 4    1  0.4244376E-001  0.2887568E+02  0.7818608E-02  0.1610860E+00
         -1   -1    0    0    0  501 -0.00000000000E+00  0.00000000000E+00  0.12012398096E+03  0.12012398105E+03  0.46700000000E-02 0.  1.
          1   -1    0    0  501    0  0.00000000000E+00 -0.00000000000E+00 -0.17352969855E+01  0.17353032694E+01  0.46700000000E-02 0. -1.
        -11    1    1    2    0    0  0.15835289951E+01  0.13795202479E+02  0.75881762704E+02  0.77141798571E+02  0.51100000000E-03 0. -1.
         11    1    1    2    0    0 -0.15835289951E+01 -0.13795202479E+02  0.42506921268E+02  0.44717485746E+02  0.51100000000E-03 0.  1.
<mgrwt>
<rscale>  0 0.28875676E+02</rscale>
<asrwt>0</asrwt>
<pdfrwt beam="2">  1        1 0.26696917E-03 0.28875676E+02</pdfrwt>
<pdfrwt beam="1">  1       -1 0.18480619E-01 0.28875676E+02</pdfrwt>
<totfact> 0.13466983E+06</totfact>
</mgrwt>
</event>
<event>
 4    1  0.4244376E-001  0.5741410E+02  0.7818608E-02  0.1409015E+00
          1   -1    0    0  501    0  0.00000000000E+00  0.00000000000E+00  0.20750163015E+02  0.20750163540E+02  0.46700000000E-02 0. -1.
         -1   -1    0    0    0  501 -0.00000000000E+00 -0.00000000000E+00 -0.39715101170E+02  0.39715101445E+02  0.46700000000E-02 0.  1.
        -11    1    1    2    0    0 -0.13868742513E+02  0.25118541042E+02 -0.85336319663E+01  0.29935029610E+02  0.51100000000E-03 0. -1.
         11    1    1    2    0    0  0.13868742513E+02 -0.25118541042E+02 -0.10431306189E+02  0.30530235375E+02  0.51100000000E-03 0.  1.
<mgrwt>
<rscale>  0 0.57414104E+02</rscale>
<asrwt>0</asrwt>
<pdfrwt beam="1">  1        1 0.31923328E-02 0.57414104E+02</pdfrwt>
<pdfrwt beam="2">  1       -1 0.61100156E-02 0.57414104E+02</pdfrwt>
<totfact> 0.29801703E+05</totfact>
</mgrwt>
</event>
<event>
 4    1  0.4244376E-001  0.3029467E+02  0.7818608E-02  0.1594854E+00
         -1   -1    0    0    0  501 -0.00000000000E+00  0.00000000000E+00  0.35337735504E+01  0.35337766361E+01  0.46700000000E-02 0.  1.
          1   -1    0    0  501    0  0.00000000000E+00 -0.00000000000E+00 -0.64928239408E+02  0.64928239576E+02  0.46700000000E-02 0. -1.
        -11    1    1    2    0    0  0.41663650108E+01  0.12150009648E+02 -0.48841112776E+02  0.50501837880E+02  0.51100000000E-03 0. -1.
         11    1    1    2    0    0 -0.41663650108E+01 -0.12150009648E+02 -0.12553353082E+02  0.17960178332E+02  0.51100000000E-03 0.  1.
<mgrwt>
<rscale>  0 0.30294673E+02</rscale>
<asrwt>0</asrwt>
<pdfrwt beam="2">  1        1 0.99889593E-02 0.30294673E+02</pdfrwt>
<pdfrwt beam="1">  1       -1 0.54365776E-03 0.30294673E+02</pdfrwt>
<totfact> 0.16405235E+06</totfact>
</mgrwt>
</event>
<event>
 4    1  0.4244376E-001  0.2981543E+02  0.7818608E-02  0.1600138E+00
         -1   -1    0    0    0  501 -0.00000000000E+00  0.00000000000E+00  0.37459038513E+01  0.37459067623E+01  0.46700000000E-02 0. -1.
          1   -1    0    0  501    0  0.00000000000E+00 -0.00000000000E+00 -0.59328761396E+02  0.59328761580E+02  0.46700000000E-02 0.  1.
        -11    1    1    2    0    0  0.53075802684E+01 -0.13885551839E+02 -0.25415862439E+02  0.29443930138E+02  0.51100000000E-03 0.  1.
         11    1    1    2    0    0 -0.53075802684E+01  0.13885551839E+02 -0.30166995107E+02  0.33630738205E+02  0.51100000000E-03 0. -1.
<mgrwt>
<rscale>  0 0.29815428E+02</rscale>
<asrwt>0</asrwt>
<pdfrwt beam="2">  1        1 0.91275013E-02 0.29815428E+02</pdfrwt>
<pdfrwt beam="1">  1       -1 0.57629318E-03 0.29815428E+02</pdfrwt>
<totfact> 0.16898341E+06</totfact>
</mgrwt>
</event>
<event>
 4    1  0.4244376E-001  0.3527906E+02  0.7818608E-02  0.1546136E+00
         -1   -1    0    0    0  501 -0.00000000000E+00  0.00000000000E+00  0.99522313442E+01  0.99522324399E+01  0.46700000000E-02 0.  1.
          1   -1    0    0  501    0  0.00000000000E+00 -0.00000000000E+00 -0.31264639496E+02  0.31264639845E+02  0.46700000000E-02 0. -1.
        -11    1    1    2    0    0 -0.17883490756E+01  0.13214653591E+02 -0.24146399895E+02  0.27583942613E+02  0.51100000000E-03 0. -1.
         11    1    1    2    0    0  0.17883490756E+01 -0.13214653591E+02  0.28339917434E+01  0.13632929671E+02  0.51100000000E-03 0.  1.
<mgrwt>
<rscale>  0 0.35279056E+02</rscale>
<asrwt>0</asrwt>
<pdfrwt beam="2">  1        1 0.48099446E-02 0.35279056E+02</pdfrwt>
<pdfrwt beam="1">  1       -1 0.15311126E-02 0.35279056E+02</pdfrwt>
<totfact> 0.10729488E+06</totfact>
</mgrwt>
</event>
<event>
 4    1  0.4244376E-001  0.3035920E+02  0.7818608E-02  0.1594152E+00
          1   -1    0    0  501    0  0.00000000000E+00  0.00000000000E+00  0.71691256899E+01  0.71691272109E+01  0.46700000000E-02 0. -1.
         -1   -1    0    0    0  501 -0.00000000000E+00 -0.00000000000E+00 -0.32140627436E+02  0.32140627776E+02  0.46700000000E-02 0.  1.
        -11    1    1    2    0    0  0.10761149026E+02  0.63604812606E+01 -0.23636429249E+02  0.26738340227E+02  0.51100000000E-03 0.  1.
         11    1    1    2    0    0 -0.10761149026E+02 -0.63604812606E+01 -0.13350724979E+01  0.12571414759E+02  0.51100000000E-03 0. -1.
<mgrwt>
<rscale>  0 0.30359199E+02</rscale>
<asrwt>0</asrwt>
<pdfrwt beam="1">  1        1 0.11029426E-02 0.30359199E+02</pdfrwt>
<pdfrwt beam="2">  1       -1 0.49447119E-02 0.30359199E+02</pdfrwt>
<totfact> 0.14081081E+06</totfact>
</mgrwt>
</event>
<event>
 4    1  0.4244376E-001  0.3175599E+02  0.7818608E-02  0.1579452E+00
          1   -1    0    0  501    0  0.00000000000E+00  0.00000000000E+00  0.62107816695E+01  0.62107834252E+01  0.46700000000E-02 0. -1.
         -1   -1    0    0    0  501 -0.00000000000E+00 -0.00000000000E+00 -0.40592428882E+02  0.40592429150E+02  0.46700000000E-02 0.  1.
        -11    1    1    2    0    0  0.15559705533E+02 -0.11881542642E+01 -0.12870033668E+02  0.20227553330E+02  0.51100000000E-03 0. -1.
         11    1    1    2    0    0 -0.15559705533E+02  0.11881542642E+01 -0.21511613544E+02  0.26575659246E+02  0.51100000000E-03 0.  1.
<mgrwt>
<rscale>  0 0.31755992E+02</rscale>
<asrwt>0</asrwt>
<pdfrwt beam="1">  1        1 0.95550505E-03 0.31755992E+02</pdfrwt>
<pdfrwt beam="2">  1       -1 0.62449890E-02 0.31755992E+02</pdfrwt>
<totfact> 0.12430004E+06</totfact>
</mgrwt>
</event>
<event>
 4    1  0.4244376E-001  0.2627122E+02  0.7818608E-02  0.1643387E+00
          1   -1    0    0  501    0  0.00000000000E+00  0.00000000000E+00  0.18783676038E+01  0.18783734091E+01  0.46700000000E-02 0.  1.
         -1   -1    0    0    0  501 -0.00000000000E+00 -0.00000000000E+00 -0.91858441903E+02  0.91858442022E+02  0.46700000000E-02 0. -1.
        -11    1    1    2    0    0  0.28613418922E+01 -0.10994757626E+02 -0.21464694494E+02  0.24285902962E+02  0.51100000000E-03 0.  1.
         11    1    1    2    0    0 -0.28613418922E+01  0.10994757626E+02 -0.68515379805E+02  0.69450912469E+02  0.51100000000E-03 0. -1.
<mgrwt>
<rscale>  0 0.26271216E+02</rscale>
<asrwt>0</asrwt>
<pdfrwt beam="1">  1        1 0.28898016E-03 0.26271216E+02</pdfrwt>
<pdfrwt beam="2">  1       -1 0.14132065E-01 0.26271216E+02</pdfrwt>
<totfact> 0.17530894E+06</totfact>
</mgrwt>
</event>
<event>
 4    1  0.4244376E-001  0.2734033E+02  0.7818608E-02  0.1629497E+00
          1   -1    0    0  501    0  0.00000000000E+00  0.00000000000E+00  0.66824608593E+02  0.66824608756E+02  0.46700000000E-02 0.  1.
         -1   -1    0    0    0  501 -0.00000000000E+00 -0.00000000000E+00 -0.27964745717E+01  0.27964784711E+01  0.46700000000E-02 0. -1.
        -11    1    1    2    0    0 -0.85031224706E+01  0.88247441708E+01  0.47439453332E+02  0.48996744118E+02  0.51100000000E-03 0. -1.
         11    1    1    2    0    0  0.85031224706E+01 -0.88247441708E+01  0.16588680689E+02  0.20624343110E+02  0.51100000000E-03 0.  1.
<mgrwt>
<rscale>  0 0.27340334E+02</rscale>
<asrwt>0</asrwt>
<pdfrwt beam="1">  1        1 0.10280709E-01 0.27340334E+02</pdfrwt>
<pdfrwt beam="2">  1       -1 0.43022718E-03 0.27340334E+02</pdfrwt>
<totfact> 0.20939255E+06</totfact>
</mgrwt>
</event>
<event>
 4    1  0.4244376E-001  0.3935463E+02  0.7818608E-02  0.1513015E+00
         -1   -1    0    0    0  501 -0.00000000000E+00  0.00000000000E+00  0.40353404367E+01  0.40353431390E+01  0.46700000000E-02 0.  1.
          1   -1    0    0  501    0  0.00000000000E+00 -0.00000000000E+00 -0.95951429193E+02  0.95951429306E+02  0.46700000000E-02 0. -1.
        -11    1    1    2    0    0 -0.19175871471E+02  0.69751484415E+00 -0.57031434198E+02  0.60172959547E+02  0.51100000000E-03 0. -1.
         11    1    1    2    0    0  0.19175871471E+02 -0.69751484415E+00 -0.34884654557E+02  0.39813812898E+02  0.51100000000E-03 0.  1.
<mgrwt>
<rscale>  0 0.39354635E+02</rscale>
<asrwt>0</asrwt>
<pdfrwt beam="2">  1        1 0.14761757E-01 0.39354635E+02</pdfrwt>
<pdfrwt beam="1">  1       -1 0.62082189E-03 0.39354635E+02</pdfrwt>
<totfact> 0.91085794E+05</totfact>
</mgrwt>
</event>
<event>
 4    1  0.4244376E-001  0.3526984E+02  0.7818608E-02  0.1546217E+00
         -1   -1    0    0    0  501 -0.00000000000E+00  0.00000000000E+00  0.68127776994E+01  0.68127793000E+01  0.46700000000E-02 0.  1.
          1   -1    0    0  501    0  0.00000000000E+00 -0.00000000000E+00 -0.45648106212E+02  0.45648106450E+02  0.46700000000E-02 0. -1.
        -11    1    1    2    0    0  0.93117112791E+01  0.95505894520E+01 -0.36575799684E+02  0.38932131314E+02  0.51100000000E-03 0. -1.
         11    1    1    2    0    0 -0.93117112791E+01 -0.95505894520E+01 -0.22595288280E+01  0.13528754437E+02  0.51100000000E-03 0.  1.
<mgrwt>
<rscale>  0 0.35269843E+02</rscale>
<asrwt>0</asrwt>
<pdfrwt beam="2">  1        1 0.70227855E-02 0.35269843E+02</pdfrwt>
<pdfrwt beam="1">  1       -1 0.10481198E-02 0.35269843E+02</pdfrwt>
<totfact> 0.11043891E+06</totfact>
</mgrwt>
</event>
<event>
 4    1  0.4244376E-001  0.2617312E+02  0.7818608E-02  0.1644702E+00
          1   -1    0    0  501    0  0.00000000000E+00  0.00000000000E+00  0.45987316327E+02  0.45987316564E+02  0.46700000000E-02 0. -1.
         -1   -1    0    0    0  501 -0.00000000000E+00 -0.00000000000E+00 -0.37240252952E+01  0.37240282234E+01  0.46700000000E-02 0.  1.
        -11    1    1    2    0    0  0.10263117281E+02 -0.25551286235E+01  0.35769757517E+02  0.37300614093E+02  0.51100000000E-03 0. -1.
         11    1    1    2    0    0 -0.10263117281E+02  0.25551286235E+01  0.64935335148E+01  0.12410730695E+02  0.51100000000E-03 0.  1.
<mgrwt>
<rscale>  0 0.26173117E+02</rscale>
<asrwt>0</asrwt>
<pdfrwt beam="1">  1        1 0.70749718E-02 0.26173117E+02</pdfrwt>
<pdfrwt beam="2">  1       -1 0.57292722E-03 0.26173117E+02</pdfrwt>
<totfact> 0.22478224E+06</totfact>
</mgrwt>
</event>
<event>
 4    1  0.4244376E-001  0.2046920E+02  0.7818608E-02  0.1736155E+00
          1   -1    0    0  501    0  0.00000000000E+00  0.00000000000E+00  0.10168800980E+03  0.10168800991E+03  0.46700000000E-02 0. -1.
         -1   -1    0    0    0  501 -0.00000000000E+00 -0.00000000000E+00 -0.10300766363E+01  0.10300872223E+01  0.46700000000E-02 0.  1.
        -11    1    1    2    0    0 -0.98627266038E+01 -0.20967440743E+01  0.41525986612E+02  0.42732625430E+02  0.51100000000E-03 0.  1.
         11    1    1    2    0    0  0.98627266038E+01  0.20967440743E+01  0.59131946549E+02  0.59985471697E+02  0.51100000000E-03 0. -1.
<mgrwt>
<rscale>  0 0.20469196E+02</rscale>
<asrwt>0</asrwt>
<pdfrwt beam="1">  1        1 0.15644305E-01 0.20469196E+02</pdfrwt>
<pdfrwt beam="2">  1       -1 0.15847420E-03 0.20469196E+02</pdfrwt>
<totfact> 0.42221804E+06</totfact>
</mgrwt>
</event>
<event>
 4    1  0.4244376E-001  0.2292768E+02  0.7818608E-02  0.1692685E+00
         -1   -1    0    0    0  501 -0.00000000000E+00  0.00000000000E+00  0.10577596140E+03  0.10577596151E+03  0.46700000000E-02 0. -1.
          1   -1    0    0  501    0  0.00000000000E+00 -0.00000000000E+00 -0.12424290973E+01  0.12424378740E+01  0.46700000000E-02 0.  1.
        -11    1    1    2    0    0  0.10727292702E+02  0.37164302834E+01  0.44838093900E+02  0.46253014255E+02  0.51100000000E-03 0.  1.
         11    1    1    2    0    0 -0.10727292702E+02 -0.37164302834E+01  0.59695438405E+02  0.60765385125E+02  0.51100000000E-03 0. -1.
<mgrwt>
<rscale>  0 0.22927678E+02</rscale>
<asrwt>0</asrwt>
<pdfrwt beam="2">  1        1 0.19114361E-03 0.22927678E+02</pdfrwt>
<pdfrwt beam="1">  1       -1 0.16273226E-01 0.22927678E+02</pdfrwt>
<totfact> 0.23318926E+06</totfact>
</mgrwt>
</event>
<event>
 4    1  0.4244376E-001  0.2684763E+02  0.7818608E-02  0.1635799E+00
          1   -1    0    0  501    0  0.00000000000E+00  0.00000000000E+00  0.36887821479E+01  0.36887851040E+01  0.46700000000E-02 0.  1.
         -1   -1    0    0    0  501 -0.00000000000E+00 -0.00000000000E+00 -0.48850457933E+02  0.48850458156E+02  0.46700000000E-02 0. -1.
        -11    1    1    2    0    0 -0.96361487429E+01  0.93426655191E+01 -0.22109467544E+02  0.25864441168E+02  0.51100000000E-03 0.  1.
         11    1    1    2    0    0  0.96361487429E+01 -0.93426655191E+01 -0.23052208241E+02  0.26674802092E+02  0.51100000000E-03 0. -1.
<mgrwt>
<rscale>  0 0.26847628E+02</rscale>
<asrwt>0</asrwt>
<pdfrwt beam="1">  1        1 0.56750523E-03 0.26847628E+02</pdfrwt>
<pdfrwt beam="2">  1       -1 0.75154549E-02 0.26847628E+02</pdfrwt>
<totfact> 0.18044978E+06</totfact>
</mgrwt>
</event>
<event>
 4    1  0.4244376E-001  0.3206605E+02  0.7818608E-02  0.1576313E+00
          1   -1    0    0  501    0  0.00000000000E+00  0.00000000000E+00  0.17287616290E+02  0.17287616920E+02  0.46700000000E-02 0. -1.
         -1   -1    0    0    0  501 -0.00000000000E+00 -0.00000000000E+00 -0.14869482665E+02  0.14869483398E+02  0.46700000000E-02 0.  1.
        -11    1    1    2    0    0 -0.10510337197E+02 -0.27608765525E+01 -0.10612887045E+02  0.15189568757E+02  0.51100000000E-03 0.  1.
         11    1    1    2    0    0  0.10510337197E+02  0.27608765525E+01  0.13031020670E+02  0.16967531562E+02  0.51100000000E-03 0. -1.
<mgrwt>
<rscale>  0 0.32066053E+02</rscale>
<asrwt>0</asrwt>
<pdfrwt beam="1">  1        1 0.26596334E-02 0.32066053E+02</pdfrwt>
<pdfrwt beam="2">  1       -1 0.22876128E-02 0.32066053E+02</pdfrwt>
<totfact> 0.13046446E+06</totfact>
</mgrwt>
</event>
<event>
 4    1  0.4244376E-001  0.6688002E+02  0.7818608E-02  0.1371036E+00
          1   -1    0    0  501    0  0.00000000000E+00  0.00000000000E+00  0.26929049461E+02  0.26929049866E+02  0.46700000000E-02 0. -1.
         -1   -1    0    0    0  501 -0.00000000000E+00 -0.00000000000E+00 -0.41525206563E+02  0.41525206826E+02  0.46700000000E-02 0.  1.
        -11    1    1    2    0    0  0.28847256914E+01 -0.17608266099E+02  0.21649450171E+02  0.28054792287E+02  0.51100000000E-03 0. -1.
         11    1    1    2    0    0 -0.28847256914E+01  0.17608266099E+02 -0.36245607273E+02  0.40399464405E+02  0.51100000000E-03 0.  1.
<mgrwt>
<rscale>  0 0.66880023E+02</rscale>
<asrwt>0</asrwt>
<pdfrwt beam="1">  1        1 0.41429308E-02 0.66880023E+02</pdfrwt>
<pdfrwt beam="2">  1       -1 0.63884933E-02 0.66880023E+02</pdfrwt>
<totfact> 0.20312629E+05</totfact>
</mgrwt>
</event>
<event>
 4    1  0.4244376E-001  0.2028343E+02  0.7818608E-02  0.1739750E+00
          1   -1    0    0  501    0  0.00000000000E+00  0.00000000000E+00  0.83835928043E+02  0.83835928173E+02  0.46700000000E-02 0. -1.
         -1   -1    0    0    0  501 -0.00000000000E+00 -0.00000000000E+00 -0.12268486601E+01  0.12268575483E+01  0.46700000000E-02 0.  1.
        -11    1    1    2    0    0  0.84559203849E+01  0.53650409000E+01  0.34583965737E+02  0.36004679415E+02  0.51100000000E-03 0.  1.
         11    1    1    2    0    0 -0.84559203849E+01 -0.53650409000E+01  0.48025113646E+02  0.49058106306E+02  0.51100000000E-03 0. -1.
<mgrwt>
<rscale>  0 0.20283430E+02</rscale>
<asrwt>0</asrwt>
<pdfrwt beam="1">  1        1 0.12897836E-01 0.20283430E+02</pdfrwt>
<pdfrwt beam="2">  1       -1 0.18874663E-03 0.20283430E+02</pdfrwt>
<totfact> 0.42220590E+06</totfact>
</mgrwt>
</event>
<event>
 4    1  0.4244376E-001  0.8876727E+02  0.7818608E-02  0.1305865E+00
          1   -1    0    0  501    0  0.00000000000E+00  0.00000000000E+00  0.19989563062E+02  0.19989563608E+02  0.46700000000E-02 0. -1.
         -1   -1    0    0    0  501 -0.00000000000E+00 -0.00000000000E+00 -0.98546780176E+02  0.98546780287E+02  0.46700000000E-02 0.  1.
        -11    1    1    2    0    0 -0.34061440543E+02 -0.12213717787E+02 -0.73598955102E+02  0.82013186905E+02  0.51100000000E-03 0.  1.
         11    1    1    2    0    0  0.34061440543E+02  0.12213717787E+02 -0.49582620128E+01  0.36523156989E+02  0.51100000000E-03 0. -1.
<mgrwt>
<rscale>  0 0.88767271E+02</rscale>
<asrwt>0</asrwt>
<pdfrwt beam="1">  1        1 0.30753175E-02 0.88767271E+02</pdfrwt>
<pdfrwt beam="2">  1       -1 0.15161043E-01 0.88767271E+02</pdfrwt>
<totfact> 0.87407622E+04</totfact>
</mgrwt>
</event>
<event>
 4    1  0.4244376E-001  0.1764254E+03  0.7818608E-02  0.1171308E+00
          1   -1    0    0  501    0  0.00000000000E+00  0.00000000000E+00  0.57884465806E+03  0.57884465808E+03  0.46700000000E-02 0. -1.
         -1   -1    0    0    0  501 -0.00000000000E+00 -0.00000000000E+00 -0.13443119361E+02  0.13443120172E+02  0.46700000000E-02 0.  1.
        -11    1    1    2    0    0  0.73557655888E+02 -0.47718267142E+02  0.25020107087E+03  0.26511947802E+03  0.51100000000E-03 0.  1.
         11    1    1    2    0    0 -0.73557655888E+02  0.47718267142E+02  0.31520046782E+03  0.32716830023E+03  0.51100000000E-03 0. -1.
<mgrwt>
<rscale>  0 0.17642537E+03</rscale>
<asrwt>0</asrwt>
<pdfrwt beam="1">  1        1 0.89053004E-01 0.17642537E+03</pdfrwt>
<pdfrwt beam="2">  1       -1 0.20681727E-02 0.17642537E+03</pdfrwt>
<totfact> 0.23238348E+04</totfact>
</mgrwt>
</event>
<event>
 4    1  0.4244376E-001  0.3087844E+02  0.7818608E-02  0.1588577E+00
          1   -1    0    0  501    0  0.00000000000E+00  0.00000000000E+00  0.40727593785E+02  0.40727594053E+02  0.46700000000E-02 0. -1.
         -1   -1    0    0    0  501 -0.00000000000E+00 -0.00000000000E+00 -0.58527747316E+01  0.58527765947E+01  0.46700000000E-02 0.  1.
        -11    1    1    2    0    0 -0.47887707113E+01  0.13655430071E+02  0.25556264316E+02  0.29368788559E+02  0.51100000000E-03 0.  1.
         11    1    1    2    0    0  0.47887707113E+01 -0.13655430071E+02  0.93185547374E+01  0.17211582089E+02  0.51100000000E-03 0. -1.
<mgrwt>
<rscale>  0 0.30878438E+02</rscale>
<asrwt>0</asrwt>
<pdfrwt beam="1">  1        1 0.62657836E-02 0.30878438E+02</pdfrwt>
<pdfrwt beam="2">  1       -1 0.90042708E-03 0.30878438E+02</pdfrwt>
<totfact> 0.15086753E+06</totfact>
</mgrwt>
</event>
<event>
 4    1  0.4244376E-001  0.2573884E+02  0.7818608E-02  0.1650611E+00
         -1   -1    0    0    0  501 -0.00000000000E+00  0.00000000000E+00  0.36861044064E+01  0.36861073646E+01  0.46700000000E-02 0. -1.
          1   -1    0    0  501    0  0.00000000000E+00 -0.00000000000E+00 -0.44931427699E+02  0.44931427941E+02  0.46700000000E-02 0.  1.
        -11    1    1    2    0    0 -0.77057912629E+01 -0.83128000731E+01 -0.32133997503E+02  0.34074560303E+02  0.51100000000E-03 0.  1.
         11    1    1    2    0    0  0.77057912629E+01  0.83128000731E+01 -0.91113257892E+01  0.14542975003E+02  0.51100000000E-03 0. -1.
<mgrwt>
<rscale>  0 0.25738843E+02</rscale>
<asrwt>0</asrwt>
<pdfrwt beam="2">  1        1 0.69125272E-02 0.25738843E+02</pdfrwt>
<pdfrwt beam="1">  1       -1 0.56709327E-03 0.25738843E+02</pdfrwt>
<totfact> 0.23330909E+06</totfact>
</mgrwt>
</event>
<event>
 4    1  0.4244376E-001  0.2291413E+02  0.7818608E-02  0.1692906E+00
         -1   -1    0    0    0  501 -0.00000000000E+00  0.00000000000E+00  0.23278286875E+01  0.23278333719E+01  0.46700000000E-02 0. -1.
          1   -1    0    0  501    0  0.00000000000E+00 -0.00000000000E+00 -0.56389108190E+02  0.56389108383E+02  0.46700000000E-02 0.  1.
        -11    1    1    2    0    0  0.40757638845E+01 -0.10517919837E+02 -0.21889159100E+02  0.24624657872E+02  0.51100000000E-03 0.  1.
         11    1    1    2    0    0 -0.40757638845E+01  0.10517919837E+02 -0.32172120402E+02  0.34092283883E+02  0.51100000000E-03 0. -1.
<mgrwt>
<rscale>  0 0.22914129E+02</rscale>
<asrwt>0</asrwt>
<pdfrwt beam="2">  1        1 0.86752468E-02 0.22914129E+02</pdfrwt>
<pdfrwt beam="1">  1       -1 0.35812791E-03 0.22914129E+02</pdfrwt>
<totfact> 0.30998669E+06</totfact>
</mgrwt>
</event>
<event>
 4    1  0.4244376E-001  0.3489638E+02  0.7818608E-02  0.1549523E+00
         -1   -1    0    0    0  501 -0.00000000000E+00  0.00000000000E+00  0.29308153788E+01  0.29308190994E+01  0.46700000000E-02 0. -1.
          1   -1    0    0  501    0  0.00000000000E+00 -0.00000000000E+00 -0.10387526163E+03  0.10387526174E+03  0.46700000000E-02 0.  1.
        -11    1    1    2    0    0 -0.15403976031E+02 -0.81947656946E+01 -0.50632899132E+02  0.53554898349E+02  0.51100000000E-03 0.  1.
         11    1    1    2    0    0  0.15403976031E+02  0.81947656946E+01 -0.50311547121E+02  0.53251182488E+02  0.51100000000E-03 0. -1.
<mgrwt>
<rscale>  0 0.34896385E+02</rscale>
<asrwt>0</asrwt>
<pdfrwt beam="2">  1        1 0.15980807E-01 0.34896385E+02</pdfrwt>
<pdfrwt beam="1">  1       -1 0.45089505E-03 0.34896385E+02</pdfrwt>
<totfact> 0.12318822E+06</totfact>
</mgrwt>
</event>
<event>
 4    1  0.4244376E-001  0.3894443E+02  0.7818608E-02  0.1516126E+00
          1   -1    0    0  501    0  0.00000000000E+00  0.00000000000E+00  0.14870831681E+02  0.14870832415E+02  0.46700000000E-02 0.  1.
         -1   -1    0    0    0  501 -0.00000000000E+00 -0.00000000000E+00 -0.25497375277E+02  0.25497375705E+02  0.46700000000E-02 0. -1.
        -11    1    1    2    0    0  0.17275494923E+02  0.87093009372E+01 -0.30251859296E+01  0.19581787401E+02  0.51100000000E-03 0.  1.
         11    1    1    2    0    0 -0.17275494923E+02 -0.87093009372E+01 -0.76013576664E+01  0.20786420718E+02  0.51100000000E-03 0. -1.
<mgrwt>
<rscale>  0 0.38944432E+02</rscale>
<asrwt>0</asrwt>
<pdfrwt beam="1">  1        1 0.22878203E-02 0.38944432E+02</pdfrwt>
<pdfrwt beam="2">  1       -1 0.39226732E-02 0.38944432E+02</pdfrwt>
<totfact> 0.79628356E+05</totfact>
</mgrwt>
</event>
<event>
 4    1  0.4244376E-001  0.4660337E+02  0.7818608E-02  0.1464573E+00
          1   -1    0    0  501    0  0.00000000000E+00  0.00000000000E+00  0.16817579208E+02  0.16817579856E+02  0.46700000000E-02 0.  1.
         -1   -1    0    0    0  501 -0.00000000000E+00 -0.00000000000E+00 -0.32285764043E+02  0.32285764380E+02  0.46700000000E-02 0. -1.
        -11    1    1    2    0    0 -0.92081503469E+01 -0.88914840115E+01  0.12781406345E+02  0.18089026208E+02  0.51100000000E-03 0.  1.
         11    1    1    2    0    0  0.92081503469E+01  0.88914840115E+01 -0.28249591179E+02  0.31014318029E+02  0.51100000000E-03 0. -1.
<mgrwt>
<rscale>  0 0.46603365E+02</rscale>
<asrwt>0</asrwt>
<pdfrwt beam="1">  1        1 0.25873200E-02 0.46603365E+02</pdfrwt>
<pdfrwt beam="2">  1       -1 0.49670407E-02 0.46603365E+02</pdfrwt>
<totfact> 0.50693361E+05</totfact>
</mgrwt>
</event>
<event>
 4    1  0.4244376E-001  0.2021940E+02  0.7818608E-02  0.1741000E+00
         -1   -1    0    0    0  501 -0.00000000000E+00  0.00000000000E+00  0.15352926621E+01  0.15352997646E+01  0.46700000000E-02 0. -1.
          1   -1    0    0  501    0  0.00000000000E+00 -0.00000000000E+00 -0.66570905006E+02  0.66570905170E+02  0.46700000000E-02 0.  1.
        -11    1    1    2    0    0  0.10046738984E+02 -0.39134557273E+00 -0.28959515645E+02  0.30655238740E+02  0.51100000000E-03 0. -1.
         11    1    1    2    0    0 -0.10046738984E+02  0.39134557273E+00 -0.36076096700E+02  0.37450966195E+02  0.51100000000E-03 0.  1.
<mgrwt>
<rscale>  0 0.20219403E+02</rscale>
<asrwt>0</asrwt>
<pdfrwt beam="2">  1        1 0.10241676E-01 0.20219403E+02</pdfrwt>
<pdfrwt beam="1">  1       -1 0.23619948E-03 0.20219403E+02</pdfrwt>
<totfact> 0.41629144E+06</totfact>
</mgrwt>
</event>
<event>
 4    1  0.4244376E-001  0.2626317E+02  0.7818608E-02  0.1643494E+00
          1   -1    0    0  501    0  0.00000000000E+00  0.00000000000E+00  0.13382111695E+02  0.13382112510E+02  0.46700000000E-02 0. -1.
         -1   -1    0    0    0  501 -0.00000000000E+00 -0.00000000000E+00 -0.12885750725E+02  0.12885751571E+02  0.46700000000E-02 0.  1.
        -11    1    1    2    0    0 -0.85701840453E+00 -0.11945200894E+02  0.56358178547E+01  0.13235737535E+02  0.51100000000E-03 0. -1.
         11    1    1    2    0    0  0.85701840453E+00  0.11945200894E+02 -0.51394568848E+01  0.13032126545E+02  0.51100000000E-03 0.  1.
<mgrwt>
<rscale>  0 0.26263174E+02</rscale>
<asrwt>0</asrwt>
<pdfrwt beam="1">  1        1 0.20587865E-02 0.26263174E+02</pdfrwt>
<pdfrwt beam="2">  1       -1 0.19824233E-02 0.26263174E+02</pdfrwt>
<totfact> 0.20796897E+06</totfact>
</mgrwt>
</event>
<event>
 4    1  0.4244376E-001  0.2043363E+02  0.7818608E-02  0.1736840E+00
         -1   -1    0    0    0  501 -0.00000000000E+00  0.00000000000E+00  0.24771838051E+02  0.24771838491E+02  0.46700000000E-02 0. -1.
          1   -1    0    0  501    0  0.00000000000E+00 -0.00000000000E+00 -0.42137887129E+01  0.42137913007E+01  0.46700000000E-02 0.  1.
        -11    1    1    2    0    0 -0.99512892743E+01 -0.22878016806E+01  0.10772745839E+02  0.14842986489E+02  0.51100000000E-03 0. -1.
         11    1    1    2    0    0  0.99512892743E+01  0.22878016806E+01  0.97853034992E+01  0.14142643303E+02  0.51100000000E-03 0.  1.
<mgrwt>
<rscale>  0 0.20433633E+02</rscale>
<asrwt>0</asrwt>
<pdfrwt beam="2">  1        1 0.64827542E-03 0.20433633E+02</pdfrwt>
<pdfrwt beam="1">  1       -1 0.38110522E-02 0.20433633E+02</pdfrwt>
<totfact> 0.35247202E+06</totfact>
</mgrwt>
</event>
<event>
 4    1  0.4244376E-001  0.2222300E+02  0.7818608E-02  0.1704424E+00
         -1   -1    0    0    0  501 -0.00000000000E+00  0.00000000000E+00  0.25101304081E+02  0.25101304516E+02  0.46700000000E-02 0. -1.
          1   -1    0    0  501    0  0.00000000000E+00 -0.00000000000E+00 -0.49186865361E+01  0.49186887531E+01  0.46700000000E-02 0.  1.
        -11    1    1    2    0    0  0.22242850143E+01 -0.10290037987E+02  0.52899538169E+01  0.11782017537E+02  0.51100000000E-03 0.  1.
         11    1    1    2    0    0 -0.22242850143E+01  0.10290037987E+02  0.14892663728E+02  0.18237975732E+02  0.51100000000E-03 0. -1.
<mgrwt>
<rscale>  0 0.22223005E+02</rscale>
<asrwt>0</asrwt>
<pdfrwt beam="2">  1        1 0.75672120E-03 0.22223005E+02</pdfrwt>
<pdfrwt beam="1">  1       -1 0.38617394E-02 0.22223005E+02</pdfrwt>
<totfact> 0.29221646E+06</totfact>
</mgrwt>
</event>
<event>
 4    1  0.4244376E-001  0.2732710E+02  0.7818608E-02  0.1629664E+00
         -1   -1    0    0    0  501 -0.00000000000E+00  0.00000000000E+00  0.72430752878E+02  0.72430753029E+02  0.46700000000E-02 0.  1.
          1   -1    0    0  501    0  0.00000000000E+00 -0.00000000000E+00 -0.25775308722E+01  0.25775351028E+01  0.46700000000E-02 0. -1.
        -11    1    1    2    0    0  0.12227860533E+02  0.40571221351E+01  0.47418413280E+02  0.49137426993E+02  0.51100000000E-03 0.  1.
         11    1    1    2    0    0 -0.12227860533E+02 -0.40571221351E+01  0.22434808726E+02  0.25870861139E+02  0.51100000000E-03 0. -1.
<mgrwt>
<rscale>  0 0.27327105E+02</rscale>
<asrwt>0</asrwt>
<pdfrwt beam="2">  1        1 0.39654350E-03 0.27327105E+02</pdfrwt>
<pdfrwt beam="1">  1       -1 0.11143195E-01 0.27327105E+02</pdfrwt>
<totfact> 0.16563919E+06</totfact>
</mgrwt>
</event>
<event>
 4    1  0.4244376E-001  0.3201974E+02  0.7818608E-02  0.1576779E+00
         -1   -1    0    0    0  501 -0.00000000000E+00  0.00000000000E+00  0.10055330575E+02  0.10055331660E+02  0.46700000000E-02 0.  1.
          1   -1    0    0  501    0  0.00000000000E+00 -0.00000000000E+00 -0.25490548927E+02  0.25490549354E+02  0.46700000000E-02 0. -1.
        -11    1    1    2    0    0 -0.81275124153E+01  0.93803089931E+01  0.35088827201E+01  0.12898019735E+02  0.51100000000E-03 0. -1.
         11    1    1    2    0    0  0.81275124153E+01 -0.93803089931E+01 -0.18944101072E+02  0.22647861280E+02  0.51100000000E-03 0.  1.
<mgrwt>
<rscale>  0 0.32019739E+02</rscale>
<asrwt>0</asrwt>
<pdfrwt beam="2">  1        1 0.39216230E-02 0.32019739E+02</pdfrwt>
<pdfrwt beam="1">  1       -1 0.15469741E-02 0.32019739E+02</pdfrwt>
<totfact> 0.13403305E+06</totfact>
</mgrwt>
</event>
<event>
 4    1  0.4244376E-001  0.3604452E+02  0.7818608E-02  0.1539516E+00
          1   -1    0    0  501    0  0.00000000000E+00  0.00000000000E+00  0.85319475568E+01  0.85319488349E+01  0.46700000000E-02 0. -1.
         -1   -1    0    0    0  501 -0.00000000000E+00 -0.00000000000E+00 -0.38068891138E+02  0.38068891424E+02  0.46700000000E-02 0.  1.
        -11    1    1    2    0    0  0.17998246512E+02  0.90683995545E+00 -0.15035262846E+02  0.23469519920E+02  0.51100000000E-03 0.  1.
         11    1    1    2    0    0 -0.17998246512E+02 -0.90683995545E+00 -0.14501680735E+02  0.23131320339E+02  0.51100000000E-03 0. -1.
<mgrwt>
<rscale>  0 0.36044518E+02</rscale>
<asrwt>0</asrwt>
<pdfrwt beam="1">  1        1 0.13126075E-02 0.36044518E+02</pdfrwt>
<pdfrwt beam="2">  1       -1 0.58567525E-02 0.36044518E+02</pdfrwt>
<totfact> 0.92679906E+05</totfact>
</mgrwt>
</event>
<event>
 4    1  0.4244376E-001  0.2543649E+02  0.7818608E-02  0.1654811E+00
          1   -1    0    0  501    0  0.00000000000E+00  0.00000000000E+00  0.18175982777E+02  0.18175983377E+02  0.46700000000E-02 0.  1.
         -1   -1    0    0    0  501 -0.00000000000E+00 -0.00000000000E+00 -0.88993091164E+01  0.88993103418E+01  0.46700000000E-02 0. -1.
        -11    1    1    2    0    0  0.58620094126E+01  0.11167874370E+02  0.63773458720E+01  0.14133474906E+02  0.51100000000E-03 0.  1.
         11    1    1    2    0    0 -0.58620094126E+01 -0.11167874370E+02  0.28993277886E+01  0.12941818813E+02  0.51100000000E-03 0. -1.
<mgrwt>
<rscale>  0 0.25436487E+02</rscale>
<asrwt>0</asrwt>
<pdfrwt beam="1">  1        1 0.27963052E-02 0.25436487E+02</pdfrwt>
<pdfrwt beam="2">  1       -1 0.13691246E-02 0.25436487E+02</pdfrwt>
<totfact> 0.22769054E+06</totfact>
</mgrwt>
</event>
<event>
 4    1  0.4244376E-001  0.3449280E+02  0.7818608E-02  0.1553151E+00
         -1   -1    0    0    0  501 -0.00000000000E+00  0.00000000000E+00  0.64326267972E+01  0.64326284924E+01  0.46700000000E-02 0. -1.
          1   -1    0    0  501    0  0.00000000000E+00 -0.00000000000E+00 -0.46239009288E+02  0.46239009524E+02  0.46700000000E-02 0.  1.
        -11    1    1    2    0    0  0.15320256194E+02 -0.19585508853E+01 -0.81845534790E+01  0.17479504780E+02  0.51100000000E-03 0.  1.
         11    1    1    2    0    0 -0.15320256194E+02  0.19585508853E+01 -0.31621829012E+02  0.35192133236E+02  0.51100000000E-03 0. -1.
<mgrwt>
<rscale>  0 0.34492802E+02</rscale>
<asrwt>0</asrwt>
<pdfrwt beam="2">  1        1 0.71136937E-02 0.34492802E+02</pdfrwt>
<pdfrwt beam="1">  1       -1 0.98963507E-03 0.34492802E+02</pdfrwt>
<totfact> 0.11669677E+06</totfact>
</mgrwt>
</event>
<event>
 4    1  0.4244376E-001  0.2317577E+02  0.7818608E-02  0.1688677E+00
          1   -1    0    0  501    0  0.00000000000E+00  0.00000000000E+00  0.48775101776E+02  0.48775102000E+02  0.46700000000E-02 0. -1.
         -1   -1    0    0    0  501 -0.00000000000E+00 -0.00000000000E+00 -0.27530217605E+01  0.27530257214E+01  0.46700000000E-02 0.  1.
        -11    1    1    2    0    0  0.54672992580E+00  0.11512626935E+02  0.25678641007E+02  0.28146617857E+02  0.51100000000E-03 0.  1.
         11    1    1    2    0    0 -0.54672992580E+00 -0.11512626935E+02  0.20343439009E+02  0.23381509864E+02  0.51100000000E-03 0. -1.
<mgrwt>
<rscale>  0 0.23175765E+02</rscale>
<asrwt>0</asrwt>
<pdfrwt beam="1">  1        1 0.75038616E-02 0.23175765E+02</pdfrwt>
<pdfrwt beam="2">  1       -1 0.42354216E-03 0.23175765E+02</pdfrwt>
<totfact> 0.29876947E+06</totfact>
</mgrwt>
</event>
<event>
 4    1  0.4244376E-001  0.4225637E+02  0.7818608E-02  0.1492234E+00
          1   -1    0    0  501    0  0.00000000000E+00  0.00000000000E+00  0.42313937893E+02  0.42313938150E+02  0.46700000000E-02 0.  1.
         -1   -1    0    0    0  501 -0.00000000000E+00 -0.00000000000E+00 -0.10549721708E+02  0.10549722741E+02  0.46700000000E-02 0. -1.
        -11    1    1    2    0    0 -0.73978185188E+01 -0.74623881801E+01  0.38813222854E+02  0.40210461633E+02  0.51100000000E-03 0.  1.
         11    1    1    2    0    0  0.73978185188E+01  0.74623881801E+01 -0.70490066690E+01  0.12653199258E+02  0.51100000000E-03 0. -1.
<mgrwt>
<rscale>  0 0.42256375E+02</rscale>
<asrwt>0</asrwt>
<pdfrwt beam="1">  1        1 0.65098366E-02 0.42256375E+02</pdfrwt>
<pdfrwt beam="2">  1       -1 0.16230342E-02 0.42256375E+02</pdfrwt>
<totfact> 0.70259096E+05</totfact>
</mgrwt>
</event>
<event>
 4    1  0.4244376E-001  0.2399127E+02  0.7818608E-02  0.1675928E+00
          1   -1    0    0  501    0  0.00000000000E+00  0.00000000000E+00  0.14611667440E+02  0.14611668187E+02  0.46700000000E-02 0. -1.
         -1   -1    0    0    0  501 -0.00000000000E+00 -0.00000000000E+00 -0.98479712666E+01  0.98479723739E+01  0.46700000000E-02 0.  1.
        -11    1    1    2    0    0 -0.68239206598E+01 -0.90701428900E+01 -0.15748864028E+01  0.11459216931E+02  0.51100000000E-03 0.  1.
         11    1    1    2    0    0  0.68239206598E+01  0.90701428900E+01  0.63385825764E+01  0.13000423630E+02  0.51100000000E-03 0. -1.
<mgrwt>
<rscale>  0 0.23991274E+02</rscale>
<asrwt>0</asrwt>
<pdfrwt beam="1">  1        1 0.22479490E-02 0.23991274E+02</pdfrwt>
<pdfrwt beam="2">  1       -1 0.15150727E-02 0.23991274E+02</pdfrwt>
<totfact> 0.25836538E+06</totfact>
</mgrwt>
</event>
<event>
 4    1  0.4244376E-001  0.3376608E+02  0.7818608E-02  0.1559839E+00
         -1   -1    0    0    0  501 -0.00000000000E+00  0.00000000000E+00  0.79070392189E+01  0.79070405980E+01  0.46700000000E-02 0. -1.
          1   -1    0    0  501    0  0.00000000000E+00 -0.00000000000E+00 -0.36048502340E+02  0.36048502642E+02  0.46700000000E-02 0.  1.
        -11    1    1    2    0    0 -0.14150839270E+02 -0.23018252401E+01 -0.25677080383E+02  0.29408453015E+02  0.51100000000E-03 0.  1.
         11    1    1    2    0    0  0.14150839270E+02  0.23018252401E+01 -0.24643827382E+01  0.14547090225E+02  0.51100000000E-03 0. -1.
<mgrwt>
<rscale>  0 0.33766075E+02</rscale>
<asrwt>0</asrwt>
<pdfrwt beam="2">  1        1 0.55459235E-02 0.33766075E+02</pdfrwt>
<pdfrwt beam="1">  1       -1 0.12164677E-02 0.33766075E+02</pdfrwt>
<totfact> 0.12058294E+06</totfact>
</mgrwt>
</event>
<event>
 4    1  0.4244376E-001  0.3238988E+02  0.7818608E-02  0.1573081E+00
          1   -1    0    0  501    0  0.00000000000E+00  0.00000000000E+00  0.18846370822E+02  0.18846371401E+02  0.46700000000E-02 0. -1.
         -1   -1    0    0    0  501 -0.00000000000E+00 -0.00000000000E+00 -0.13916532916E+02  0.13916533699E+02  0.46700000000E-02 0.  1.
        -11    1    1    2    0    0  0.14674233841E+02 -0.52268552733E+01  0.69457212096E+01  0.17055679355E+02  0.51100000000E-03 0. -1.
         11    1    1    2    0    0 -0.14674233841E+02  0.52268552733E+01 -0.20158833027E+01  0.15707225745E+02  0.51100000000E-03 0.  1.
<mgrwt>
<rscale>  0 0.32389885E+02</rscale>
<asrwt>0</asrwt>
<pdfrwt beam="1">  1        1 0.28994418E-02 0.32389885E+02</pdfrwt>
<pdfrwt beam="2">  1       -1 0.21410052E-02 0.32389885E+02</pdfrwt>
<totfact> 0.12796969E+06</totfact>
</mgrwt>
</event>
<event>
 4    1  0.4244376E-001  0.3554207E+02  0.7818608E-02  0.1543839E+00
          1   -1    0    0  501    0  0.00000000000E+00  0.00000000000E+00  0.89355228992E+01  0.89355241196E+01  0.46700000000E-02 0. -1.
         -1   -1    0    0    0  501 -0.00000000000E+00 -0.00000000000E+00 -0.35343163260E+02  0.35343163568E+02  0.46700000000E-02 0.  1.
        -11    1    1    2    0    0 -0.90584196717E+01  0.10854766359E+02  0.20984989541E+00  0.14139482200E+02  0.51100000000E-03 0. -1.
         11    1    1    2    0    0  0.90584196717E+01 -0.10854766359E+02 -0.26617490256E+02  0.30139205488E+02  0.51100000000E-03 0.  1.
<mgrwt>
<rscale>  0 0.35542070E+02</rscale>
<asrwt>0</asrwt>
<pdfrwt beam="1">  1        1 0.13746960E-02 0.35542070E+02</pdfrwt>
<pdfrwt beam="2">  1       -1 0.54374098E-02 0.35542070E+02</pdfrwt>
<totfact> 0.96444837E+05</totfact>
</mgrwt>
</event>
<event>
 4    1  0.4244376E-001  0.2301521E+02  0.7818608E-02  0.1691264E+00
         -1   -1    0    0    0  501 -0.00000000000E+00  0.00000000000E+00  0.53280681718E+01  0.53280702184E+01  0.46700000000E-02 0. -1.
          1   -1    0    0  501    0  0.00000000000E+00 -0.00000000000E+00 -0.24854202720E+02  0.24854203159E+02  0.46700000000E-02 0.  1.
        -11    1    1    2    0    0  0.96858138524E+01  0.62030923643E+01 -0.92873706211E+01  0.14783389266E+02  0.51100000000E-03 0.  1.
         11    1    1    2    0    0 -0.96858138524E+01 -0.62030923643E+01 -0.10238763927E+02  0.15398884112E+02  0.51100000000E-03 0. -1.
<mgrwt>
<rscale>  0 0.23015206E+02</rscale>
<asrwt>0</asrwt>
<pdfrwt beam="2">  1        1 0.38237236E-02 0.23015206E+02</pdfrwt>
<pdfrwt beam="1">  1       -1 0.81970300E-03 0.23015206E+02</pdfrwt>
<totfact> 0.29155955E+06</totfact>
</mgrwt>
</event>
<event>
 4    1  0.4244376E-001  0.3468614E+02  0.7818608E-02  0.1551405E+00
         -1   -1    0    0    0  501 -0.00000000000E+00  0.00000000000E+00  0.68737960053E+01  0.68737975917E+01  0.46700000000E-02 0.  1.
          1   -1    0    0  501    0  0.00000000000E+00 -0.00000000000E+00 -0.43757777612E+02  0.43757777861E+02  0.46700000000E-02 0. -1.
        -11    1    1    2    0    0  0.13918484989E+02  0.74890207797E+01 -0.80204215687E+01  0.17723905299E+02  0.51100000000E-03 0. -1.
         11    1    1    2    0    0 -0.13918484989E+02 -0.74890207797E+01 -0.28863560038E+02  0.32907670154E+02  0.51100000000E-03 0.  1.
<mgrwt>
<rscale>  0 0.34686140E+02</rscale>
<asrwt>0</asrwt>
<pdfrwt beam="2">  1        1 0.67319658E-02 0.34686140E+02</pdfrwt>
<pdfrwt beam="1">  1       -1 0.10575072E-02 0.34686140E+02</pdfrwt>
<totfact> 0.11462044E+06</totfact>
</mgrwt>
</event>
<event>
 4    1  0.4244376E-001  0.4378123E+02  0.7818608E-02  0.1482097E+00
          1   -1    0    0  501    0  0.00000000000E+00  0.00000000000E+00  0.35518370797E+02  0.35518371104E+02  0.46700000000E-02 0. -1.
         -1   -1    0    0    0  501 -0.00000000000E+00 -0.00000000000E+00 -0.13491578980E+02  0.13491579788E+02  0.46700000000E-02 0.  1.
        -11    1    1    2    0    0  0.15990896523E+02 -0.14276762863E+02  0.15977427303E+02  0.26735985355E+02  0.51100000000E-03 0. -1.
         11    1    1    2    0    0 -0.15990896523E+02  0.14276762863E+02  0.60493645145E+01  0.22273965537E+02  0.51100000000E-03 0.  1.
<mgrwt>
<rscale>  0 0.43781226E+02</rscale>
<asrwt>0</asrwt>
<pdfrwt beam="1">  1        1 0.54643649E-02 0.43781226E+02</pdfrwt>
<pdfrwt beam="2">  1       -1 0.20756276E-02 0.43781226E+02</pdfrwt>
<totfact> 0.63333529E+05</totfact>
</mgrwt>
</event>
<event>
 4    1  0.4244376E-001  0.3229986E+02  0.7818608E-02  0.1573975E+00
          1   -1    0    0  501    0  0.00000000000E+00  0.00000000000E+00  0.26255788578E+01  0.26255830109E+01  0.46700000000E-02 0. -1.
         -1   -1    0    0    0  501 -0.00000000000E+00 -0.00000000000E+00 -0.99338100789E+02  0.99338100899E+02  0.46700000000E-02 0.  1.
        -11    1    1    2    0    0  0.56875140681E+01  0.14815727097E+02 -0.38903472131E+02  0.42015874736E+02  0.51100000000E-03 0. -1.
         11    1    1    2    0    0 -0.56875140681E+01 -0.14815727097E+02 -0.57809049800E+02  0.59947809174E+02  0.51100000000E-03 0.  1.
<mgrwt>
<rscale>  0 0.32299860E+02</rscale>
<asrwt>0</asrwt>
<pdfrwt beam="1">  1        1 0.40393561E-03 0.32299860E+02</pdfrwt>
<pdfrwt beam="2">  1       -1 0.15282782E-01 0.32299860E+02</pdfrwt>
<totfact> 0.10713164E+06</totfact>
</mgrwt>
</event>
<event>
 4    1  0.4244376E-001  0.3416602E+02  0.7818608E-02  0.1556134E+00
          1   -1    0    0  501    0  0.00000000000E+00  0.00000000000E+00  0.17845598667E+03  0.17845598673E+03  0.46700000000E-02 0.  1.
         -1   -1    0    0    0  501 -0.00000000000E+00 -0.00000000000E+00 -0.16352975718E+01  0.16353042400E+01  0.46700000000E-02 0. -1.
        -11    1    1    2    0    0  0.16916533986E+02 -0.21886002720E+01  0.93327301358E+02  0.94873306426E+02  0.51100000000E-03 0.  1.
         11    1    1    2    0    0 -0.16916533986E+02  0.21886002720E+01  0.83493387738E+02  0.85217984543E+02  0.51100000000E-03 0. -1.
<mgrwt>
<rscale>  0 0.34166021E+02</rscale>
<asrwt>0</asrwt>
<pdfrwt beam="1">  1        1 0.27454762E-01 0.34166021E+02</pdfrwt>
<pdfrwt beam="2">  1       -1 0.25158481E-03 0.34166021E+02</pdfrwt>
<totfact> 0.13999411E+06</totfact>
</mgrwt>
</event>
<event>
 4    1  0.4244376E-001  0.2961305E+02  0.7818608E-02  0.1602406E+00
         -1   -1    0    0    0  501 -0.00000000000E+00  0.00000000000E+00  0.13711005734E+02  0.13711006530E+02  0.46700000000E-02 0. -1.
          1   -1    0    0  501    0  0.00000000000E+00 -0.00000000000E+00 -0.15989575320E+02  0.15989576002E+02  0.46700000000E-02 0.  1.
        -11    1    1    2    0    0 -0.12741573932E+02 -0.45716714810E+01 -0.71557908462E+01  0.15311865637E+02  0.51100000000E-03 0.  1.
         11    1    1    2    0    0  0.12741573932E+02  0.45716714810E+01  0.48772212603E+01  0.14388716895E+02  0.51100000000E-03 0. -1.
<mgrwt>
<rscale>  0 0.29613050E+02</rscale>
<asrwt>0</asrwt>
<pdfrwt beam="2">  1        1 0.24599348E-02 0.29613050E+02</pdfrwt>
<pdfrwt beam="1">  1       -1 0.21093856E-02 0.29613050E+02</pdfrwt>
<totfact> 0.15756709E+06</totfact>
</mgrwt>
</event>
<event>
 4    1  0.4244376E-001  0.2685288E+02  0.7818608E-02  0.1635731E+00
         -1   -1    0    0    0  501 -0.00000000000E+00  0.00000000000E+00  0.61487458671E+01  0.61487476406E+01  0.46700000000E-02 0. -1.
          1   -1    0    0  501    0  0.00000000000E+00 -0.00000000000E+00 -0.29318047559E+02  0.29318047931E+02  0.46700000000E-02 0.  1.
        -11    1    1    2    0    0 -0.12489464997E+01 -0.13139179216E+02 -0.83302260422E+01  0.15607388122E+02  0.51100000000E-03 0.  1.
         11    1    1    2    0    0  0.12489464997E+01  0.13139179216E+02 -0.14839075650E+02  0.19859407449E+02  0.51100000000E-03 0. -1.
<mgrwt>
<rscale>  0 0.26852878E+02</rscale>
<asrwt>0</asrwt>
<pdfrwt beam="2">  1        1 0.45104689E-02 0.26852878E+02</pdfrwt>
<pdfrwt beam="1">  1       -1 0.94596108E-03 0.26852878E+02</pdfrwt>
<totfact> 0.20562459E+06</totfact>
</mgrwt>
</event>
<event>
 4    1  0.4244376E-001  0.5623686E+02  0.7818608E-02  0.1414339E+00
          1   -1    0    0  501    0  0.00000000000E+00  0.00000000000E+00  0.25639197855E+03  0.25639197859E+03  0.46700000000E-02 0. -1.
         -1   -1    0    0    0  501 -0.00000000000E+00 -0.00000000000E+00 -0.30837381175E+01  0.30837416536E+01  0.46700000000E-02 0.  1.
        -11    1    1    2    0    0 -0.24207947941E+02 -0.14302848491E+02  0.12562278692E+03  0.12873104059E+03  0.51100000000E-03 0. -1.
         11    1    1    2    0    0  0.24207947941E+02  0.14302848491E+02  0.12768545351E+03  0.13074467965E+03  0.51100000000E-03 0.  1.
<mgrwt>
<rscale>  0 0.56236863E+02</rscale>
<asrwt>0</asrwt>
<pdfrwt beam="1">  1        1 0.39444921E-01 0.56236863E+02</pdfrwt>
<pdfrwt beam="2">  1       -1 0.47442151E-03 0.56236863E+02</pdfrwt>
<totfact> 0.43681163E+05</totfact>
</mgrwt>
</event>
<event>
 4    1  0.4244376E-001  0.3521475E+02  0.7818608E-02  0.1546702E+00
          1   -1    0    0  501    0  0.00000000000E+00  0.00000000000E+00  0.75276188592E+02  0.75276188737E+02  0.46700000000E-02 0.  1.
         -1   -1    0    0    0  501 -0.00000000000E+00 -0.00000000000E+00 -0.41184283383E+01  0.41184309860E+01  0.46700000000E-02 0. -1.
        -11    1    1    2    0    0  0.16126047966E+02 -0.76629228943E+00  0.19735221241E+02  0.25497364267E+02  0.51100000000E-03 0. -1.
         11    1    1    2    0    0 -0.16126047966E+02  0.76629228943E+00  0.51422539013E+02  0.53897255456E+02  0.51100000000E-03 0.  1.
<mgrwt>
<rscale>  0 0.35214753E+02</rscale>
<asrwt>0</asrwt>
<pdfrwt beam="1">  1        1 0.11580953E-01 0.35214753E+02</pdfrwt>
<pdfrwt beam="2">  1       -1 0.63360454E-03 0.35214753E+02</pdfrwt>
<totfact> 0.11610975E+06</totfact>
</mgrwt>
</event>
<event>
 4    1  0.4244376E-001  0.4836036E+02  0.7818608E-02  0.1454391E+00
         -1   -1    0    0    0  501 -0.00000000000E+00  0.00000000000E+00  0.20991954617E+02  0.20991955137E+02  0.46700000000E-02 0.  1.
          1   -1    0    0  501    0  0.00000000000E+00 -0.00000000000E+00 -0.27852622803E+02  0.27852623195E+02  0.46700000000E-02 0. -1.
        -11    1    1    2    0    0 -0.15036025831E+02 -0.35001073552E+01 -0.22227108740E+02  0.27062468245E+02  0.51100000000E-03 0. -1.
         11    1    1    2    0    0  0.15036025831E+02  0.35001073552E+01  0.15366440554E+02  0.21782110087E+02  0.51100000000E-03 0.  1.
<mgrwt>
<rscale>  0 0.48360356E+02</rscale>
<asrwt>0</asrwt>
<pdfrwt beam="2">  1        1 0.42850189E-02 0.48360356E+02</pdfrwt>
<pdfrwt beam="1">  1       -1 0.32295316E-02 0.48360356E+02</pdfrwt>
<totfact> 0.48138516E+05</totfact>
</mgrwt>
</event>
<event>
 4    1  0.4244376E-001  0.1564362E+03  0.7818608E-02  0.1192780E+00
         -1   -1    0    0    0  501 -0.00000000000E+00  0.00000000000E+00  0.20279236856E+02  0.20279237394E+02  0.46700000000E-02 0.  1.
          1   -1    0    0  501    0  0.00000000000E+00 -0.00000000000E+00 -0.30169130224E+03  0.30169130228E+03  0.46700000000E-02 0. -1.
        -11    1    1    2    0    0  0.26226361135E+02  0.55929764917E+02 -0.41954950262E+02  0.74673813843E+02  0.51100000000E-03 0.  1.
         11    1    1    2    0    0 -0.26226361135E+02 -0.55929764917E+02 -0.23945711513E+03  0.24729672583E+03  0.51100000000E-03 0. -1.
<mgrwt>
<rscale>  0 0.15643618E+03</rscale>
<asrwt>0</asrwt>
<pdfrwt beam="2">  1        1 0.46414043E-01 0.15643618E+03</pdfrwt>
<pdfrwt beam="1">  1       -1 0.31198828E-02 0.15643618E+03</pdfrwt>
<totfact> 0.29164242E+04</totfact>
</mgrwt>
</event>
<event>
 4    1  0.4244376E-001  0.3859114E+02  0.7818608E-02  0.1518843E+00
          1   -1    0    0  501    0  0.00000000000E+00  0.00000000000E+00  0.15517024926E+02  0.15517025629E+02  0.46700000000E-02 0. -1.
         -1   -1    0    0    0  501 -0.00000000000E+00 -0.00000000000E+00 -0.23994223247E+02  0.23994223702E+02  0.46700000000E-02 0.  1.
        -11    1    1    2    0    0  0.18458246196E+01 -0.10638234764E+02  0.12134556896E+02  0.16242739262E+02  0.51100000000E-03 0. -1.
         11    1    1    2    0    0 -0.18458246196E+01  0.10638234764E+02 -0.20611755217E+02  0.23268510069E+02  0.51100000000E-03 0.  1.
<mgrwt>
<rscale>  0 0.38591138E+02</rscale>
<asrwt>0</asrwt>
<pdfrwt beam="1">  1        1 0.23872347E-02 0.38591138E+02</pdfrwt>
<pdfrwt beam="2">  1       -1 0.36914191E-02 0.38591138E+02</pdfrwt>
<totfact> 0.81750557E+05</totfact>
</mgrwt>
</event>
<event>
 4    1  0.4244376E-001  0.2795197E+02  0.7818608E-02  0.1621897E+00
          1   -1    0    0  501    0  0.00000000000E+00  0.00000000000E+00  0.49819068625E+01  0.49819090513E+01  0.46700000000E-02 0.  1.
         -1   -1    0    0    0  501 -0.00000000000E+00 -0.00000000000E+00 -0.39207505762E+02  0.39207506040E+02  0.46700000000E-02 0. -1.
        -11    1    1    2    0    0 -0.56615963132E+01 -0.11312081131E+02 -0.26507066698E+02  0.29370758205E+02  0.51100000000E-03 0. -1.
         11    1    1    2    0    0  0.56615963132E+01  0.11312081131E+02 -0.77185322012E+01  0.14818656887E+02  0.51100000000E-03 0.  1.
<mgrwt>
<rscale>  0 0.27951973E+02</rscale>
<asrwt>0</asrwt>
<pdfrwt beam="1">  1        1 0.76644743E-03 0.27951973E+02</pdfrwt>
<pdfrwt beam="2">  1       -1 0.60319239E-02 0.27951973E+02</pdfrwt>
<totfact> 0.16782300E+06</totfact>
</mgrwt>
</event>
<event>
 4    1  0.4244376E-001  0.3851588E+02  0.7818608E-02  0.1519426E+00
          1   -1    0    0  501    0  0.00000000000E+00  0.00000000000E+00  0.16141313903E+03  0.16141313910E+03  0.46700000000E-02 0.  1.
         -1   -1    0    0    0  501 -0.00000000000E+00 -0.00000000000E+00 -0.22976316036E+01  0.22976363496E+01  0.46700000000E-02 0. -1.
        -11    1    1    2    0    0  0.17767390451E+02 -0.49788156736E+01  0.10299308016E+03  0.10463289794E+03  0.51100000000E-03 0.  1.
         11    1    1    2    0    0 -0.17767390451E+02  0.49788156736E+01  0.56122427265E+02  0.59077877512E+02  0.51100000000E-03 0. -1.
<mgrwt>
<rscale>  0 0.38515884E+02</rscale>
<asrwt>0</asrwt>
<pdfrwt beam="1">  1        1 0.24832807E-01 0.38515884E+02</pdfrwt>
<pdfrwt beam="2">  1       -1 0.35348193E-03 0.38515884E+02</pdfrwt>
<totfact> 0.10326959E+06</totfact>
</mgrwt>
</event>
<event>
 4    1  0.4244376E-001  0.5775505E+02  0.7818608E-02  0.1407502E+00
          1   -1    0    0  501    0  0.00000000000E+00  0.00000000000E+00  0.11027231925E+03  0.11027231935E+03  0.46700000000E-02 0.  1.
         -1   -1    0    0    0  501 -0.00000000000E+00 -0.00000000000E+00 -0.75622909453E+01  0.75622923872E+01  0.46700000000E-02 0. -1.
        -11    1    1    2    0    0 -0.19942811733E+02  0.89676173492E+01  0.89838303063E+02  0.92461097756E+02  0.51100000000E-03 0.  1.
         11    1    1    2    0    0  0.19942811733E+02 -0.89676173492E+01  0.12871725242E+02  0.25373513980E+02  0.51100000000E-03 0. -1.
<mgrwt>
<rscale>  0 0.57755050E+02</rscale>
<asrwt>0</asrwt>
<pdfrwt beam="1">  1        1 0.16964973E-01 0.57755050E+02</pdfrwt>
<pdfrwt beam="2">  1       -1 0.11634295E-02 0.57755050E+02</pdfrwt>
<totfact> 0.35457998E+05</totfact>
</mgrwt>
</event>
<event>
 4    1  0.4244376E-001  0.2135822E+02  0.7818608E-02  0.1719594E+00
          1   -1    0    0  501    0  0.00000000000E+00  0.00000000000E+00  0.85519018208E+02  0.85519018335E+02  0.46700000000E-02 0. -1.
         -1   -1    0    0    0  501 -0.00000000000E+00 -0.00000000000E+00 -0.13335393786E+01  0.13335475556E+01  0.46700000000E-02 0.  1.
        -11    1    1    2    0    0  0.19405819614E+01  0.10357693107E+02  0.35054484937E+02  0.36604160683E+02  0.51100000000E-03 0. -1.
         11    1    1    2    0    0 -0.19405819614E+01 -0.10357693107E+02  0.49130993892E+02  0.50248405208E+02  0.51100000000E-03 0.  1.
<mgrwt>
<rscale>  0 0.21358215E+02</rscale>
<asrwt>0</asrwt>
<pdfrwt beam="1">  1        1 0.13156776E-01 0.21358215E+02</pdfrwt>
<pdfrwt beam="2">  1       -1 0.20516050E-03 0.21358215E+02</pdfrwt>
<totfact> 0.37710835E+06</totfact>
</mgrwt>
</event>
<event>
 4    1  0.4244376E-001  0.3594513E+02  0.7818608E-02  0.1540364E+00
         -1   -1    0    0    0  501 -0.00000000000E+00  0.00000000000E+00  0.65898728961E+01  0.65898745508E+01  0.46700000000E-02 0. -1.
          1   -1    0    0  501    0  0.00000000000E+00 -0.00000000000E+00 -0.49016574311E+02  0.49016574534E+02  0.46700000000E-02 0.  1.
        -11    1    1    2    0    0  0.14071364803E+02  0.25353495090E+01 -0.43674573192E+01  0.14950116663E+02  0.51100000000E-03 0. -1.
         11    1    1    2    0    0 -0.14071364803E+02 -0.25353495090E+01 -0.38059244096E+02  0.40656332421E+02  0.51100000000E-03 0.  1.
<mgrwt>
<rscale>  0 0.35945127E+02</rscale>
<asrwt>0</asrwt>
<pdfrwt beam="2">  1        1 0.75410113E-02 0.35945127E+02</pdfrwt>
<pdfrwt beam="1">  1       -1 0.10138268E-02 0.35945127E+02</pdfrwt>
<totfact> 0.10607410E+06</totfact>
</mgrwt>
</event>
<event>
 4    1  0.4244376E-001  0.3491726E+02  0.7818608E-02  0.1549337E+00
          1   -1    0    0  501    0  0.00000000000E+00  0.00000000000E+00  0.25894100108E+02  0.25894100529E+02  0.46700000000E-02 0.  1.
         -1   -1    0    0    0  501 -0.00000000000E+00 -0.00000000000E+00 -0.11771165824E+02  0.11771166750E+02  0.46700000000E-02 0. -1.
        -11    1    1    2    0    0 -0.21560505522E+01  0.14631512340E+02  0.17069230880E+02  0.22585135608E+02  0.51100000000E-03 0.  1.
         11    1    1    2    0    0  0.21560505522E+01 -0.14631512340E+02 -0.29462965962E+01  0.15080131671E+02  0.51100000000E-03 0. -1.
<mgrwt>
<rscale>  0 0.34917261E+02</rscale>
<asrwt>0</asrwt>
<pdfrwt beam="1">  1        1 0.39837078E-02 0.34917261E+02</pdfrwt>
<pdfrwt beam="2">  1       -1 0.18109487E-02 0.34917261E+02</pdfrwt>
<totfact> 0.10864267E+06</totfact>
</mgrwt>
</event>
<event>
 4    1  0.4244376E-001  0.3466028E+02  0.7818608E-02  0.1551638E+00
          1   -1    0    0  501    0  0.00000000000E+00  0.00000000000E+00  0.75768664770E+01  0.75768679162E+01  0.46700000000E-02 0.  1.
         -1   -1    0    0    0  501 -0.00000000000E+00 -0.00000000000E+00 -0.39638249465E+02  0.39638249740E+02  0.46700000000E-02 0. -1.
        -11    1    1    2    0    0  0.16753840499E+02 -0.43177878641E+01 -0.14668942687E+02  0.22682864531E+02  0.51100000000E-03 0. -1.
         11    1    1    2    0    0 -0.16753840499E+02  0.43177878641E+01 -0.17392440300E+02  0.24532253125E+02  0.51100000000E-03 0.  1.
<mgrwt>
<rscale>  0 0.34660281E+02</rscale>
<asrwt>0</asrwt>
<pdfrwt beam="1">  1        1 0.11656719E-02 0.34660281E+02</pdfrwt>
<pdfrwt beam="2">  1       -1 0.60981922E-02 0.34660281E+02</pdfrwt>
<totfact> 0.10134216E+06</totfact>
</mgrwt>
</event>
<event>
 4    1  0.4244376E-001  0.2365508E+02  0.7818608E-02  0.1681106E+00
          1   -1    0    0  501    0  0.00000000000E+00  0.00000000000E+00  0.55270022442E+02  0.55270022640E+02  0.46700000000E-02 0.  1.
         -1   -1    0    0    0  501 -0.00000000000E+00 -0.00000000000E+00 -0.25310378877E+01  0.25310421960E+01  0.46700000000E-02 0. -1.
        -11    1    1    2    0    0  0.92840648340E+01 -0.68760894863E+01  0.20180072839E+02  0.23253167667E+02  0.51100000000E-03 0. -1.
         11    1    1    2    0    0 -0.92840648340E+01  0.68760894863E+01  0.32558911715E+02  0.34547897169E+02  0.51100000000E-03 0.  1.
<mgrwt>
<rscale>  0 0.23655076E+02</rscale>
<asrwt>0</asrwt>
<pdfrwt beam="1">  1        1 0.85030803E-02 0.23655076E+02</pdfrwt>
<pdfrwt beam="2">  1       -1 0.38939081E-03 0.23655076E+02</pdfrwt>
<totfact> 0.28784700E+06</totfact>
</mgrwt>
</event>
<event>
 4    1  0.4244376E-001  0.7465859E+02  0.7818608E-02  0.1344932E+00
          1   -1    0    0  501    0  0.00000000000E+00  0.00000000000E+00  0.65938913129E+02  0.65938913294E+02  0.46700000000E-02 0. -1.
         -1   -1    0    0    0  501 -0.00000000000E+00 -0.00000000000E+00 -0.21132837166E+02  0.21132837682E+02  0.46700000000E-02 0.  1.
        -11    1    1    2    0    0 -0.32339983105E+02 -0.47298229356E+01  0.43435648995E+02  0.54359004186E+02  0.51100000000E-03 0. -1.
         11    1    1    2    0    0  0.32339983105E+02  0.47298229356E+01  0.13704269676E+01  0.32712746790E+02  0.51100000000E-03 0.  1.
<mgrwt>
<rscale>  0 0.74658592E+02</rscale>
<asrwt>0</asrwt>
<pdfrwt beam="1">  1        1 0.10144448E-01 0.74658592E+02</pdfrwt>
<pdfrwt beam="2">  1       -1 0.32512058E-02 0.74658592E+02</pdfrwt>
<totfact> 0.16849351E+05</totfact>
</mgrwt>
</event>
<event>
 4    1  0.4244376E-001  0.3495839E+02  0.7818608E-02  0.1548970E+00
          1   -1    0    0  501    0  0.00000000000E+00  0.00000000000E+00  0.85777568658E+02  0.85777568785E+02  0.46700000000E-02 0.  1.
         -1   -1    0    0    0  501 -0.00000000000E+00 -0.00000000000E+00 -0.35617956781E+01  0.35617987396E+01  0.46700000000E-02 0. -1.
        -11    1    1    2    0    0 -0.70668418773E+01  0.15473276042E+02  0.30834603192E+02  0.35215554516E+02  0.51100000000E-03 0. -1.
         11    1    1    2    0    0  0.70668418773E+01 -0.15473276042E+02  0.51381169788E+02  0.54123813009E+02  0.51100000000E-03 0.  1.
<mgrwt>
<rscale>  0 0.34958393E+02</rscale>
<asrwt>0</asrwt>
<pdfrwt beam="1">  1        1 0.13196549E-01 0.34958393E+02</pdfrwt>
<pdfrwt beam="2">  1       -1 0.54796884E-03 0.34958393E+02</pdfrwt>
<totfact> 0.11988050E+06</totfact>
</mgrwt>
</event>
<event>
 4    1  0.4244376E-001  0.8098996E+02  0.7818608E-02  0.1326265E+00
         -1   -1    0    0    0  501 -0.00000000000E+00  0.00000000000E+00  0.51612892320E+02  0.51612892531E+02  0.46700000000E-02 0.  1.
          1   -1    0    0  501    0  0.00000000000E+00 -0.00000000000E+00 -0.31771969613E+02  0.31771969956E+02  0.46700000000E-02 0. -1.
        -11    1    1    2    0    0 -0.25883648620E+02 -0.25270092337E+02 -0.88194859545E+01  0.37233374348E+02  0.51100000000E-03 0. -1.
         11    1    1    2    0    0  0.25883648620E+02  0.25270092337E+02  0.28660408661E+02  0.46151488139E+02  0.51100000000E-03 0.  1.
<mgrwt>
<rscale>  0 0.80989957E+02</rscale>
<asrwt>0</asrwt>
<pdfrwt beam="2">  1        1 0.48879954E-02 0.80989957E+02</pdfrwt>
<pdfrwt beam="1">  1       -1 0.79404449E-02 0.80989957E+02</pdfrwt>
<totfact> 0.12230486E+05</totfact>
</mgrwt>
</event>
<event>
 4    1  0.4244376E-001  0.2518435E+02  0.7818608E-02  0.1658368E+00
          1   -1    0    0  501    0  0.00000000000E+00  0.00000000000E+00  0.16808788276E+02  0.16808788925E+02  0.46700000000E-02 0.  1.
         -1   -1    0    0    0  501 -0.00000000000E+00 -0.00000000000E+00 -0.94333319654E+01  0.94333331214E+01  0.46700000000E-02 0. -1.
        -11    1    1    2    0    0 -0.10631210501E+02 -0.64423952650E+01  0.15944183843E+01  0.12532727704E+02  0.51100000000E-03 0. -1.
         11    1    1    2    0    0  0.10631210501E+02  0.64423952650E+01  0.57810379267E+01  0.13709394342E+02  0.51100000000E-03 0.  1.
<mgrwt>
<rscale>  0 0.25184353E+02</rscale>
<asrwt>0</asrwt>
<pdfrwt beam="1">  1        1 0.25859675E-02 0.25184353E+02</pdfrwt>
<pdfrwt beam="2">  1       -1 0.14512820E-02 0.25184353E+02</pdfrwt>
<totfact> 0.23218911E+06</totfact>
</mgrwt>
</event>
<event>
 4    1  0.4244376E-001  0.4618608E+02  0.7818608E-02  0.1467070E+00
          1   -1    0    0  501    0  0.00000000000E+00  0.00000000000E+00  0.35689206549E+02  0.35689206855E+02  0.46700000000E-02 0. -1.
         -1   -1    0    0    0  501 -0.00000000000E+00 -0.00000000000E+00 -0.14942567169E+02  0.14942567899E+02  0.46700000000E-02 0.  1.
        -11    1    1    2    0    0 -0.11143619718E+02 -0.50291338054E+01  0.31850318636E+02  0.34116202086E+02  0.51100000000E-03 0. -1.
         11    1    1    2    0    0  0.11143619718E+02  0.50291338054E+01 -0.11103679256E+02  0.16515572668E+02  0.51100000000E-03 0.  1.
<mgrwt>
<rscale>  0 0.46186075E+02</rscale>
<asrwt>0</asrwt>
<pdfrwt beam="1">  1        1 0.54906472E-02 0.46186075E+02</pdfrwt>
<pdfrwt beam="2">  1       -1 0.22988566E-02 0.46186075E+02</pdfrwt>
<totfact> 0.55325416E+05</totfact>
</mgrwt>
</event>
<event>
 4    1  0.4244376E-001  0.3878410E+02  0.7818608E-02  0.1517355E+00
         -1   -1    0    0    0  501 -0.00000000000E+00  0.00000000000E+00  0.24532088150E+01  0.24532132599E+01  0.46700000000E-02 0. -1.
          1   -1    0    0  501    0  0.00000000000E+00 -0.00000000000E+00 -0.15328956617E+03  0.15328956625E+03  0.46700000000E-02 0.  1.
        -11    1    1    2    0    0  0.93228076954E+01 -0.16199185238E+02 -0.54659515687E+02  0.57766694566E+02  0.51100000000E-03 0. -1.
         11    1    1    2    0    0 -0.93228076954E+01  0.16199185238E+02 -0.96176841672E+02  0.97976084939E+02  0.51100000000E-03 0.  1.
<mgrwt>
<rscale>  0 0.38784103E+02</rscale>
<asrwt>0</asrwt>
<pdfrwt beam="2">  1        1 0.23583003E-01 0.38784103E+02</pdfrwt>
<pdfrwt beam="1">  1       -1 0.37741721E-03 0.38784103E+02</pdfrwt>
<totfact> 0.10073616E+06</totfact>
</mgrwt>
</event>
<event>
 4    1  0.4244376E-001  0.3297577E+02  0.7818608E-02  0.1567348E+00
          1   -1    0    0  501    0  0.00000000000E+00  0.00000000000E+00  0.34959190111E+02  0.34959190423E+02  0.46700000000E-02 0.  1.
         -1   -1    0    0    0  501 -0.00000000000E+00 -0.00000000000E+00 -0.77762202684E+01  0.77762216706E+01  0.46700000000E-02 0. -1.
        -11    1    1    2    0    0 -0.18509299889E+01 -0.16383487595E+02  0.13690110158E+02  0.21430439193E+02  0.51100000000E-03 0. -1.
         11    1    1    2    0    0  0.18509299889E+01  0.16383487595E+02  0.13492859685E+02  0.21304972901E+02  0.51100000000E-03 0.  1.
<mgrwt>
<rscale>  0 0.32975773E+02</rscale>
<asrwt>0</asrwt>
<pdfrwt beam="1">  1        1 0.53783370E-02 0.32975773E+02</pdfrwt>
<pdfrwt beam="2">  1       -1 0.11963417E-02 0.32975773E+02</pdfrwt>
<totfact> 0.12742593E+06</totfact>
</mgrwt>
</event>
<event>
 4    1  0.4244376E-001  0.3031062E+02  0.7818608E-02  0.1594680E+00
         -1   -1    0    0    0  501 -0.00000000000E+00  0.00000000000E+00  0.85658282485E+01  0.85658295215E+01  0.46700000000E-02 0. -1.
          1   -1    0    0  501    0  0.00000000000E+00 -0.00000000000E+00 -0.26813921628E+02  0.26813922035E+02  0.46700000000E-02 0.  1.
        -11    1    1    2    0    0  0.12950794224E+01  0.12511040260E+02 -0.18992578280E+02  0.22779846116E+02  0.51100000000E-03 0.  1.
         11    1    1    2    0    0 -0.12950794224E+01 -0.12511040260E+02  0.74448489988E+00  0.12599905441E+02  0.51100000000E-03 0. -1.
<mgrwt>
<rscale>  0 0.30310624E+02</rscale>
<asrwt>0</asrwt>
<pdfrwt beam="2">  1        1 0.41252188E-02 0.30310624E+02</pdfrwt>
<pdfrwt beam="1">  1       -1 0.13178199E-02 0.30310624E+02</pdfrwt>
<totfact> 0.15345529E+06</totfact>
</mgrwt>
</event>
<event>
 4    1  0.4244376E-001  0.3431018E+02  0.7818608E-02  0.1554813E+00
          1   -1    0    0  501    0  0.00000000000E+00  0.00000000000E+00  0.46989204177E+01  0.46989227383E+01  0.46700000000E-02 0. -1.
         -1   -1    0    0    0  501 -0.00000000000E+00 -0.00000000000E+00 -0.62630787886E+02  0.62630788060E+02  0.46700000000E-02 0.  1.
        -11    1    1    2    0    0 -0.11283883547E+02 -0.20849237628E+01 -0.39408035996E+01  0.12132718915E+02  0.51100000000E-03 0. -1.
         11    1    1    2    0    0  0.11283883547E+02  0.20849237628E+01 -0.53991063868E+02  0.55196991883E+02  0.51100000000E-03 0.  1.
<mgrwt>
<rscale>  0 0.34310183E+02</rscale>
<asrwt>0</asrwt>
<pdfrwt beam="1">  1        1 0.72291107E-03 0.34310183E+02</pdfrwt>
<pdfrwt beam="2">  1       -1 0.96355054E-02 0.34310183E+02</pdfrwt>
<totfact> 0.99035821E+05</totfact>
</mgrwt>
</event>
<event>
 4    1  0.4244376E-001  0.6642326E+02  0.7818608E-02  0.1372696E+00
          1   -1    0    0  501    0  0.00000000000E+00  0.00000000000E+00  0.18746939127E+02  0.18746939709E+02  0.46700000000E-02 0. -1.
         -1   -1    0    0    0  501 -0.00000000000E+00 -0.00000000000E+00 -0.58836937374E+02  0.58836937559E+02  0.46700000000E-02 0.  1.
        -11    1    1    2    0    0 -0.10838154713E+02 -0.31082584569E+02 -0.25192236773E+02  0.41451676142E+02  0.51100000000E-03 0. -1.
         11    1    1    2    0    0  0.10838154713E+02  0.31082584569E+02 -0.14897761474E+02  0.36132201127E+02  0.51100000000E-03 0.  1.
<mgrwt>
<rscale>  0 0.66423264E+02</rscale>
<asrwt>0</asrwt>
<pdfrwt beam="1">  1        1 0.28841446E-02 0.66423264E+02</pdfrwt>
<pdfrwt beam="2">  1       -1 0.90518365E-02 0.66423264E+02</pdfrwt>
<totfact> 0.19786832E+05</totfact>
</mgrwt>
</event>
<event>
 4    1  0.4244376E-001  0.2076296E+02  0.7818608E-02  0.1730568E+00
          1   -1    0    0  501    0  0.00000000000E+00  0.00000000000E+00  0.37772561198E+02  0.37772561487E+02  0.46700000000E-02 0. -1.
         -1   -1    0    0    0  501 -0.00000000000E+00 -0.00000000000E+00 -0.28532629483E+01  0.28532667700E+01  0.46700000000E-02 0.  1.
        -11    1    1    2    0    0  0.92150725323E+01  0.44109584775E+01  0.21068070883E+02  0.23414476878E+02  0.51100000000E-03 0. -1.
         11    1    1    2    0    0 -0.92150725323E+01 -0.44109584775E+01  0.13851227367E+02  0.17211351379E+02  0.51100000000E-03 0.  1.
<mgrwt>
<rscale>  0 0.20762961E+02</rscale>
<asrwt>0</asrwt>
<pdfrwt beam="1">  1        1 0.58111640E-02 0.20762961E+02</pdfrwt>
<pdfrwt beam="2">  1       -1 0.43896382E-03 0.20762961E+02</pdfrwt>
<totfact> 0.37677134E+06</totfact>
</mgrwt>
</event>
<event>
 4    1  0.4244376E-001  0.7235221E+02  0.7818608E-02  0.1352272E+00
         -1   -1    0    0    0  501 -0.00000000000E+00  0.00000000000E+00  0.61188361837E+02  0.61188362016E+02  0.46700000000E-02 0.  1.
          1   -1    0    0  501    0  0.00000000000E+00 -0.00000000000E+00 -0.21388225004E+02  0.21388225514E+02  0.46700000000E-02 0. -1.
        -11    1    1    2    0    0 -0.24080622214E+02 -0.21243959558E+02  0.88671242069E+00  0.32124265643E+02  0.51100000000E-03 0. -1.
         11    1    1    2    0    0  0.24080622214E+02  0.21243959558E+02  0.38913424413E+02  0.50452321886E+02  0.51100000000E-03 0.  1.
<mgrwt>
<rscale>  0 0.72352207E+02</rscale>
<asrwt>0</asrwt>
<pdfrwt beam="2">  1        1 0.32904963E-02 0.72352207E+02</pdfrwt>
<pdfrwt beam="1">  1       -1 0.94135940E-02 0.72352207E+02</pdfrwt>
<totfact> 0.15873382E+05</totfact>
</mgrwt>
</event>
<event>
 4    1  0.4244376E-001  0.5442436E+02  0.7818608E-02  0.1422841E+00
         -1   -1    0    0    0  501 -0.00000000000E+00  0.00000000000E+00  0.19903170232E+02  0.19903170780E+02  0.46700000000E-02 0. -1.
          1   -1    0    0  501    0  0.00000000000E+00 -0.00000000000E+00 -0.37205264216E+02  0.37205264509E+02  0.46700000000E-02 0.  1.
        -11    1    1    2    0    0 -0.58525967773E+01 -0.17707551686E+02 -0.29444815834E+02  0.34854088075E+02  0.51100000000E-03 0.  1.
         11    1    1    2    0    0  0.58525967773E+01  0.17707551686E+02  0.12142721851E+02  0.22254347215E+02  0.51100000000E-03 0. -1.
<mgrwt>
<rscale>  0 0.54424360E+02</rscale>
<asrwt>0</asrwt>
<pdfrwt beam="2">  1        1 0.57238869E-02 0.54424360E+02</pdfrwt>
<pdfrwt beam="1">  1       -1 0.30620262E-02 0.54424360E+02</pdfrwt>
<totfact> 0.36399090E+05</totfact>
</mgrwt>
</event>
<event>
 4    1  0.4244376E-001  0.5493167E+02  0.7818608E-02  0.1420422E+00
         -1   -1    0    0    0  501 -0.00000000000E+00  0.00000000000E+00  0.44611705961E+02  0.44611706206E+02  0.46700000000E-02 0.  1.
          1   -1    0    0  501    0  0.00000000000E+00 -0.00000000000E+00 -0.16909733318E+02  0.16909733963E+02  0.46700000000E-02 0. -1.
        -11    1    1    2    0    0 -0.11646703867E+02  0.11317254455E+02 -0.10956792363E+02  0.19590233753E+02  0.51100000000E-03 0. -1.
         11    1    1    2    0    0  0.11646703867E+02 -0.11317254455E+02  0.38658765007E+02  0.41931206415E+02  0.51100000000E-03 0.  1.
<mgrwt>
<rscale>  0 0.54931669E+02</rscale>
<asrwt>0</asrwt>
<pdfrwt beam="2">  1        1 0.26014975E-02 0.54931669E+02</pdfrwt>
<pdfrwt beam="1">  1       -1 0.68633393E-02 0.54931669E+02</pdfrwt>
<totfact> 0.32822738E+05</totfact>
</mgrwt>
</event>
<event>
 4    1  0.4244376E-001  0.2365873E+02  0.7818608E-02  0.1681050E+00
         -1   -1    0    0    0  501 -0.00000000000E+00  0.00000000000E+00  0.40406902490E+02  0.40406902760E+02  0.46700000000E-02 0. -1.
          1   -1    0    0  501    0  0.00000000000E+00 -0.00000000000E+00 -0.34631154757E+01  0.34631186244E+01  0.46700000000E-02 0.  1.
        -11    1    1    2    0    0  0.11503292352E+02  0.22770070692E+01  0.15585308486E+02  0.19504162043E+02  0.51100000000E-03 0. -1.
         11    1    1    2    0    0 -0.11503292352E+02 -0.22770070692E+01  0.21358478528E+02  0.24365859341E+02  0.51100000000E-03 0.  1.
<mgrwt>
<rscale>  0 0.23658727E+02</rscale>
<asrwt>0</asrwt>
<pdfrwt beam="2">  1        1 0.53278723E-03 0.23658727E+02</pdfrwt>
<pdfrwt beam="1">  1       -1 0.62164471E-02 0.23658727E+02</pdfrwt>
<totfact> 0.24502275E+06</totfact>
</mgrwt>
</event>
<event>
 4    1  0.4244376E-001  0.2768118E+02  0.7818608E-02  0.1625232E+00
          1   -1    0    0  501    0  0.00000000000E+00  0.00000000000E+00  0.68328446883E+02  0.68328447043E+02  0.46700000000E-02 0. -1.
         -1   -1    0    0    0  501 -0.00000000000E+00 -0.00000000000E+00 -0.28035428370E+01  0.28035467265E+01  0.46700000000E-02 0.  1.
        -11    1    1    2    0    0  0.98649585392E+01  0.64375690045E+01  0.51435118289E+02  0.52766761274E+02  0.51100000000E-03 0. -1.
         11    1    1    2    0    0 -0.98649585392E+01 -0.64375690045E+01  0.14089785757E+02  0.18365232496E+02  0.51100000000E-03 0.  1.
<mgrwt>
<rscale>  0 0.27681176E+02</rscale>
<asrwt>0</asrwt>
<pdfrwt beam="1">  1        1 0.10512068E-01 0.27681176E+02</pdfrwt>
<pdfrwt beam="2">  1       -1 0.43131462E-03 0.27681176E+02</pdfrwt>
<totfact> 0.20384410E+06</totfact>
</mgrwt>
</event>
<event>
 4    1  0.4244376E-001  0.3447196E+02  0.7818608E-02  0.1553340E+00
         -1   -1    0    0    0  501 -0.00000000000E+00  0.00000000000E+00  0.53736242153E+02  0.53736242356E+02  0.46700000000E-02 0. -1.
          1   -1    0    0  501    0  0.00000000000E+00 -0.00000000000E+00 -0.55284664974E+01  0.55284684698E+01  0.46700000000E-02 0.  1.
        -11    1    1    2    0    0  0.71738091571E-01 -0.16579688785E+02  0.32202074257E+02  0.36219674395E+02  0.51100000000E-03 0. -1.
         11    1    1    2    0    0 -0.71738091571E-01  0.16579688785E+02  0.16005701398E+02  0.23045036430E+02  0.51100000000E-03 0.  1.
<mgrwt>
<rscale>  0 0.34471964E+02</rscale>
<asrwt>0</asrwt>
<pdfrwt beam="2">  1        1 0.85053349E-03 0.34471964E+02</pdfrwt>
<pdfrwt beam="1">  1       -1 0.82671142E-02 0.34471964E+02</pdfrwt>
<totfact> 0.99643146E+05</totfact>
</mgrwt>
</event>
<event>
 4    1  0.4244376E-001  0.2503150E+02  0.7818608E-02  0.1660550E+00
          1   -1    0    0  501    0  0.00000000000E+00  0.00000000000E+00  0.24581644551E+01  0.24581688912E+01  0.46700000000E-02 0. -1.
         -1   -1    0    0    0  501 -0.00000000000E+00 -0.00000000000E+00 -0.63723932278E+02  0.63723932450E+02  0.46700000000E-02 0.  1.
        -11    1    1    2    0    0  0.89191234881E+01 -0.67144582659E+01 -0.15674248394E+02  0.19243616515E+02  0.51100000000E-03 0. -1.
         11    1    1    2    0    0 -0.89191234881E+01  0.67144582659E+01 -0.45591519429E+02  0.46938484826E+02  0.51100000000E-03 0.  1.
<mgrwt>
<rscale>  0 0.25031505E+02</rscale>
<asrwt>0</asrwt>
<pdfrwt beam="1">  1        1 0.37817955E-03 0.25031505E+02</pdfrwt>
<pdfrwt beam="2">  1       -1 0.98036810E-02 0.25031505E+02</pdfrwt>
<totfact> 0.20578513E+06</totfact>
</mgrwt>
</event>
<event>
 4    1  0.4244376E-001  0.2234566E+02  0.7818608E-02  0.1702342E+00
          1   -1    0    0  501    0  0.00000000000E+00  0.00000000000E+00  0.11005956057E+02  0.11005957048E+02  0.46700000000E-02 0. -1.
         -1   -1    0    0    0  501 -0.00000000000E+00 -0.00000000000E+00 -0.11342235106E+02  0.11342236068E+02  0.46700000000E-02 0.  1.
        -11    1    1    2    0    0  0.56600096110E+01 -0.95042803711E+01 -0.17383837198E+01  0.11197724429E+02  0.51100000000E-03 0.  1.
         11    1    1    2    0    0 -0.56600096110E+01  0.95042803711E+01  0.14021046705E+01  0.11150468687E+02  0.51100000000E-03 0. -1.
<mgrwt>
<rscale>  0 0.22345663E+02</rscale>
<asrwt>0</asrwt>
<pdfrwt beam="1">  1        1 0.16932242E-02 0.22345663E+02</pdfrwt>
<pdfrwt beam="2">  1       -1 0.17449594E-02 0.22345663E+02</pdfrwt>
<totfact> 0.30079083E+06</totfact>
</mgrwt>
</event>
<event>
 4    1  0.4244376E-001  0.6637469E+02  0.7818608E-02  0.1372874E+00
         -1   -1    0    0    0  501 -0.00000000000E+00  0.00000000000E+00  0.45628879674E+02  0.45628879913E+02  0.46700000000E-02 0.  1.
          1   -1    0    0  501    0  0.00000000000E+00 -0.00000000000E+00 -0.24138218652E+02  0.24138219103E+02  0.46700000000E-02 0. -1.
        -11    1    1    2    0    0 -0.23921829423E+02  0.30719504277E+01 -0.13216959065E+02  0.27502341892E+02  0.51100000000E-03 0. -1.
         11    1    1    2    0    0  0.23921829423E+02 -0.30719504277E+01  0.34707620087E+02  0.42264757124E+02  0.51100000000E-03 0.  1.
<mgrwt>
<rscale>  0 0.66374691E+02</rscale>
<asrwt>0</asrwt>
<pdfrwt beam="2">  1        1 0.37135722E-02 0.66374691E+02</pdfrwt>
<pdfrwt beam="1">  1       -1 0.70198276E-02 0.66374691E+02</pdfrwt>
<totfact> 0.20467228E+05</totfact>
</mgrwt>
</event>
<event>
 4    1  0.4244376E-001  0.2726946E+02  0.7818608E-02  0.1630393E+00
          1   -1    0    0  501    0  0.00000000000E+00  0.00000000000E+00  0.38373949984E+01  0.38373978400E+01  0.46700000000E-02 0.  1.
         -1   -1    0    0    0  501 -0.00000000000E+00 -0.00000000000E+00 -0.48445838853E+02  0.48445839078E+02  0.46700000000E-02 0. -1.
        -11    1    1    2    0    0  0.31197499863E+01 -0.13272160309E+02 -0.22014589456E+02  0.25894501896E+02  0.51100000000E-03 0. -1.
         11    1    1    2    0    0 -0.31197499863E+01  0.13272160309E+02 -0.22593854399E+02  0.26388735023E+02  0.51100000000E-03 0.  1.
<mgrwt>
<rscale>  0 0.27269463E+02</rscale>
<asrwt>0</asrwt>
<pdfrwt beam="1">  1        1 0.59036873E-03 0.27269463E+02</pdfrwt>
<pdfrwt beam="2">  1       -1 0.74532058E-02 0.27269463E+02</pdfrwt>
<totfact> 0.17423361E+06</totfact>
</mgrwt>
</event>
<event>
 4    1  0.4244376E-001  0.3688051E+02  0.7818608E-02  0.1532508E+00
         -1   -1    0    0    0  501 -0.00000000000E+00  0.00000000000E+00  0.32098977576E+02  0.32098977916E+02  0.46700000000E-02 0.  1.
          1   -1    0    0  501    0  0.00000000000E+00 -0.00000000000E+00 -0.10593579159E+02  0.10593580188E+02  0.46700000000E-02 0. -1.
        -11    1    1    2    0    0 -0.17361564771E+01 -0.14248065028E+02  0.24153860402E+02  0.28096807095E+02  0.51100000000E-03 0.  1.
         11    1    1    2    0    0  0.17361564771E+01  0.14248065028E+02 -0.26484619843E+01  0.14595751009E+02  0.51100000000E-03 0. -1.
<mgrwt>
<rscale>  0 0.36880515E+02</rscale>
<asrwt>0</asrwt>
<pdfrwt beam="2">  1        1 0.16297815E-02 0.36880515E+02</pdfrwt>
<pdfrwt beam="1">  1       -1 0.49383043E-02 0.36880515E+02</pdfrwt>
<totfact> 0.89032804E+05</totfact>
</mgrwt>
</event>
<event>
 4    1  0.4244376E-001  0.8204141E+02  0.7818608E-02  0.1323356E+00
         -1   -1    0    0    0  501 -0.00000000000E+00  0.00000000000E+00  0.12901133415E+03  0.12901133424E+03  0.46700000000E-02 0.  1.
          1   -1    0    0  501    0  0.00000000000E+00 -0.00000000000E+00 -0.13043026536E+02  0.13043027372E+02  0.46700000000E-02 0. -1.
        -11    1    1    2    0    0  0.18254001518E+02  0.26172716167E+02  0.10261775936E+03  0.10746452521E+03  0.51100000000E-03 0.  1.
         11    1    1    2    0    0 -0.18254001518E+02 -0.26172716167E+02  0.13350548258E+02  0.34589836398E+02  0.51100000000E-03 0. -1.
<mgrwt>
<rscale>  0 0.82041412E+02</rscale>
<asrwt>0</asrwt>
<pdfrwt beam="2">  1        1 0.20066195E-02 0.82041412E+02</pdfrwt>
<pdfrwt beam="1">  1       -1 0.19847898E-01 0.82041412E+02</pdfrwt>
<totfact> 0.10157805E+05</totfact>
</mgrwt>
</event>
<event>
 4    1  0.4244376E-001  0.6074772E+02  0.7818608E-02  0.1394720E+00
          1   -1    0    0  501    0  0.00000000000E+00  0.00000000000E+00  0.10423852555E+03  0.10423852566E+03  0.46700000000E-02 0.  1.
         -1   -1    0    0    0  501 -0.00000000000E+00 -0.00000000000E+00 -0.88505798090E+01  0.88505810411E+01  0.46700000000E-02 0. -1.
        -11    1    1    2    0    0  0.26454401462E+02  0.14923823518E+02  0.47926487257E+02  0.56740673650E+02  0.51100000000E-03 0.  1.
         11    1    1    2    0    0 -0.26454401462E+02 -0.14923823518E+02  0.47461458487E+02  0.56348433050E+02  0.51100000000E-03 0. -1.
<mgrwt>
<rscale>  0 0.60747723E+02</rscale>
<asrwt>0</asrwt>
<pdfrwt beam="1">  1        1 0.16036696E-01 0.60747723E+02</pdfrwt>
<pdfrwt beam="2">  1       -1 0.13616278E-02 0.60747723E+02</pdfrwt>
<totfact> 0.30881343E+05</totfact>
</mgrwt>
</event>
<event>
 4    1  0.4244376E-001  0.2948512E+02  0.7818608E-02  0.1603851E+00
         -1   -1    0    0    0  501 -0.00000000000E+00  0.00000000000E+00  0.29441997590E+02  0.29441997960E+02  0.46700000000E-02 0. -1.
          1   -1    0    0  501    0  0.00000000000E+00 -0.00000000000E+00 -0.73820772294E+01  0.73820787065E+01  0.46700000000E-02 0.  1.
        -11    1    1    2    0    0  0.90926877264E+01  0.11443505325E+02  0.13436279947E+02  0.19853574068E+02  0.51100000000E-03 0.  1.
         11    1    1    2    0    0 -0.90926877264E+01 -0.11443505325E+02  0.86236404135E+01  0.16970502599E+02  0.51100000000E-03 0. -1.
<mgrwt>
<rscale>  0 0.29485124E+02</rscale>
<asrwt>0</asrwt>
<pdfrwt beam="2">  1        1 0.11357043E-02 0.29485124E+02</pdfrwt>
<pdfrwt beam="1">  1       -1 0.45295383E-02 0.29485124E+02</pdfrwt>
<totfact> 0.15172726E+06</totfact>
</mgrwt>
</event>
<event>
 4    1  0.4244376E-001  0.4466065E+02  0.7818608E-02  0.1476471E+00
         -1   -1    0    0    0  501 -0.00000000000E+00  0.00000000000E+00  0.50228794493E+02  0.50228794710E+02  0.46700000000E-02 0.  1.
          1   -1    0    0  501    0  0.00000000000E+00 -0.00000000000E+00 -0.99274392211E+01  0.99274403195E+01  0.46700000000E-02 0. -1.
        -11    1    1    2    0    0 -0.16733683701E+02  0.11549748773E+02  0.77154683813E+01  0.21747214063E+02  0.51100000000E-03 0. -1.
         11    1    1    2    0    0  0.16733683701E+02 -0.11549748773E+02  0.32585886891E+02  0.38409020967E+02  0.51100000000E-03 0.  1.
<mgrwt>
<rscale>  0 0.44660647E+02</rscale>
<asrwt>0</asrwt>
<pdfrwt beam="2">  1        1 0.15272985E-02 0.44660647E+02</pdfrwt>
<pdfrwt beam="1">  1       -1 0.77275069E-02 0.44660647E+02</pdfrwt>
<totfact> 0.53845091E+05</totfact>
</mgrwt>
</event>
<event>
 4    1  0.4244376E-001  0.2128916E+02  0.7818608E-02  0.1720844E+00
         -1   -1    0    0    0  501 -0.00000000000E+00  0.00000000000E+00  0.11252850674E+03  0.11252850684E+03  0.46700000000E-02 0.  1.
          1   -1    0    0  501    0  0.00000000000E+00 -0.00000000000E+00 -0.10069135085E+01  0.10069243380E+01  0.46700000000E-02 0. -1.
        -11    1    1    2    0    0 -0.73266657297E+01  0.76955924171E+01  0.59154372562E+02  0.60101097884E+02  0.51100000000E-03 0. -1.
         11    1    1    2    0    0  0.73266657297E+01 -0.76955924171E+01  0.52367220671E+02  0.53434333293E+02  0.51100000000E-03 0.  1.
<mgrwt>
<rscale>  0 0.21289161E+02</rscale>
<asrwt>0</asrwt>
<pdfrwt beam="2">  1        1 0.15491052E-03 0.21289161E+02</pdfrwt>
<pdfrwt beam="1">  1       -1 0.17312089E-01 0.21289161E+02</pdfrwt>
<totfact> 0.27203381E+06</totfact>
</mgrwt>
</event>
<event>
 4    1  0.4244376E-001  0.2335386E+02  0.7818608E-02  0.1685838E+00
          1   -1    0    0  501    0  0.00000000000E+00  0.00000000000E+00  0.45662014111E+02  0.45662014350E+02  0.46700000000E-02 0.  1.
         -1   -1    0    0    0  501 -0.00000000000E+00 -0.00000000000E+00 -0.29860828541E+01  0.29860865058E+01  0.46700000000E-02 0. -1.
        -11    1    1    2    0    0 -0.21623529868E+01  0.10737157679E+02  0.29770819742E+02  0.31721665054E+02  0.51100000000E-03 0. -1.
         11    1    1    2    0    0  0.21623529868E+01 -0.10737157679E+02  0.12905111515E+02  0.16926435801E+02  0.51100000000E-03 0.  1.
<mgrwt>
<rscale>  0 0.23353856E+02</rscale>
<asrwt>0</asrwt>
<pdfrwt beam="1">  1        1 0.70249259E-02 0.23353856E+02</pdfrwt>
<pdfrwt beam="2">  1       -1 0.45939764E-03 0.23353856E+02</pdfrwt>
<totfact> 0.29221998E+06</totfact>
</mgrwt>
</event>
<event>
 4    1  0.4244376E-001  0.4294965E+02  0.7818608E-02  0.1487563E+00
         -1   -1    0    0    0  501 -0.00000000000E+00  0.00000000000E+00  0.68124760728E+01  0.68124776734E+01  0.46700000000E-02 0.  1.
          1   -1    0    0  501    0  0.00000000000E+00 -0.00000000000E+00 -0.67694638696E+02  0.67694638857E+02  0.46700000000E-02 0. -1.
        -11    1    1    2    0    0  0.11545415591E+02 -0.14806737165E+02 -0.12360301591E+02  0.22479171300E+02  0.51100000000E-03 0.  1.
         11    1    1    2    0    0 -0.11545415591E+02  0.14806737165E+02 -0.48521861032E+02  0.52027945230E+02  0.51100000000E-03 0. -1.
<mgrwt>
<rscale>  0 0.42949653E+02</rscale>
<asrwt>0</asrwt>
<pdfrwt beam="2">  1        1 0.10414559E-01 0.42949653E+02</pdfrwt>
<pdfrwt beam="1">  1       -1 0.10480734E-02 0.42949653E+02</pdfrwt>
<totfact> 0.70541041E+05</totfact>
</mgrwt>
</event>
<event>
 4    1  0.4244376E-001  0.7857272E+02  0.7818608E-02  0.1333151E+00
         -1   -1    0    0    0  501 -0.00000000000E+00  0.00000000000E+00  0.15234127596E+02  0.15234128312E+02  0.46700000000E-02 0.  1.
          1   -1    0    0  501    0  0.00000000000E+00 -0.00000000000E+00 -0.10131317798E+03  0.10131317809E+03  0.46700000000E-02 0. -1.
        -11    1    1    2    0    0 -0.28820040488E+02  0.15472580669E+02 -0.75313681297E+02  0.82110572261E+02  0.51100000000E-03 0. -1.
         11    1    1    2    0    0  0.28820040488E+02 -0.15472580669E+02 -0.10765369087E+02  0.34436734138E+02  0.51100000000E-03 0.  1.
<mgrwt>
<rscale>  0 0.78572716E+02</rscale>
<asrwt>0</asrwt>
<pdfrwt beam="2">  1        1 0.15586642E-01 0.78572716E+02</pdfrwt>
<pdfrwt beam="1">  1       -1 0.23437121E-02 0.78572716E+02</pdfrwt>
<totfact> 0.15637423E+05</totfact>
</mgrwt>
</event>
<event>
 4    1  0.4244376E-001  0.3033514E+02  0.7818608E-02  0.1594413E+00
          1   -1    0    0  501    0  0.00000000000E+00  0.00000000000E+00  0.57019925118E+02  0.57019925309E+02  0.46700000000E-02 0. -1.
         -1   -1    0    0    0  501 -0.00000000000E+00 -0.00000000000E+00 -0.40346429193E+01  0.40346456220E+01  0.46700000000E-02 0.  1.
        -11    1    1    2    0    0  0.11002191308E+02 -0.10220499639E+02  0.22200275312E+02  0.26802221002E+02  0.51100000000E-03 0.  1.
         11    1    1    2    0    0 -0.11002191308E+02  0.10220499639E+02  0.30785006887E+02  0.34252349930E+02  0.51100000000E-03 0. -1.
<mgrwt>
<rscale>  0 0.30335136E+02</rscale>
<asrwt>0</asrwt>
<pdfrwt beam="1">  1        1 0.87722967E-02 0.30335136E+02</pdfrwt>
<pdfrwt beam="2">  1       -1 0.62071450E-03 0.30335136E+02</pdfrwt>
<totfact> 0.16163174E+06</totfact>
</mgrwt>
</event>
<event>
 4    1  0.4244376E-001  0.3988469E+02  0.7818608E-02  0.1509062E+00
          1   -1    0    0  501    0  0.00000000000E+00  0.00000000000E+00  0.10095698777E+03  0.10095698788E+03  0.46700000000E-02 0.  1.
         -1   -1    0    0    0  501 -0.00000000000E+00 -0.00000000000E+00 -0.39392721883E+01  0.39392749564E+01  0.46700000000E-02 0. -1.
        -11    1    1    2    0    0  0.17158196667E+02  0.15807411099E+01  0.74913039051E+02  0.76869147747E+02  0.51100000000E-03 0.  1.
         11    1    1    2    0    0 -0.17158196667E+02 -0.15807411099E+01  0.22104676531E+02  0.28027115087E+02  0.51100000000E-03 0. -1.
<mgrwt>
<rscale>  0 0.39884694E+02</rscale>
<asrwt>0</asrwt>
<pdfrwt beam="1">  1        1 0.15531845E-01 0.39884694E+02</pdfrwt>
<pdfrwt beam="2">  1       -1 0.60604206E-03 0.39884694E+02</pdfrwt>
<totfact> 0.88714495E+05</totfact>
</mgrwt>
</event>
<event>
 4    1  0.4244376E-001  0.3434134E+02  0.7818608E-02  0.1554529E+00
         -1   -1    0    0    0  501 -0.00000000000E+00  0.00000000000E+00  0.11128386216E+02  0.11128387196E+02  0.46700000000E-02 0.  1.
          1   -1    0    0  501    0  0.00000000000E+00 -0.00000000000E+00 -0.26493685457E+02  0.26493685868E+02  0.46700000000E-02 0. -1.
        -11    1    1    2    0    0 -0.14001715592E+02 -0.25151110345E+01 -0.18216764839E+02  0.23113293675E+02  0.51100000000E-03 0. -1.
         11    1    1    2    0    0  0.14001715592E+02  0.25151110345E+01  0.28514655982E+01  0.14508779389E+02  0.51100000000E-03 0.  1.
<mgrwt>
<rscale>  0 0.34341345E+02</rscale>
<asrwt>0</asrwt>
<pdfrwt beam="2">  1        1 0.40759517E-02 0.34341345E+02</pdfrwt>
<pdfrwt beam="1">  1       -1 0.17120595E-02 0.34341345E+02</pdfrwt>
<totfact> 0.11332638E+06</totfact>
</mgrwt>
</event>
<event>
 4    1  0.4244376E-001  0.2340457E+02  0.7818608E-02  0.1685035E+00
         -1   -1    0    0    0  501 -0.00000000000E+00  0.00000000000E+00  0.35103650633E+01  0.35103681697E+01  0.46700000000E-02 0. -1.
          1   -1    0    0  501    0  0.00000000000E+00 -0.00000000000E+00 -0.39011161070E+02  0.39011161349E+02  0.46700000000E-02 0.  1.
        -11    1    1    2    0    0  0.86439954033E+01 -0.63041888333E+01 -0.26364817174E+02  0.28452856416E+02  0.51100000000E-03 0.  1.
         11    1    1    2    0    0 -0.86439954033E+01  0.63041888333E+01 -0.91359788329E+01  0.14068673103E+02  0.51100000000E-03 0. -1.
<mgrwt>
<rscale>  0 0.23404571E+02</rscale>
<asrwt>0</asrwt>
<pdfrwt beam="2">  1        1 0.60017170E-02 0.23404571E+02</pdfrwt>
<pdfrwt beam="1">  1       -1 0.54005645E-03 0.23404571E+02</pdfrwt>
<totfact> 0.28774395E+06</totfact>
</mgrwt>
</event>
<event>
 4    1  0.4244376E-001  0.2720085E+02  0.7818608E-02  0.1631264E+00
          1   -1    0    0  501    0  0.00000000000E+00  0.00000000000E+00  0.22316361852E+01  0.22316410715E+01  0.46700000000E-02 0.  1.
         -1   -1    0    0    0  501 -0.00000000000E+00 -0.00000000000E+00 -0.82885953484E+02  0.82885953615E+02  0.46700000000E-02 0. -1.
        -11    1    1    2    0    0 -0.18887949268E+01 -0.13443015961E+02 -0.37729181221E+02  0.40097049023E+02  0.51100000000E-03 0.  1.
         11    1    1    2    0    0  0.18887949268E+01  0.13443015961E+02 -0.42925136077E+02  0.45020545664E+02  0.51100000000E-03 0. -1.
<mgrwt>
<rscale>  0 0.27200846E+02</rscale>
<asrwt>0</asrwt>
<pdfrwt beam="1">  1        1 0.34332909E-03 0.27200846E+02</pdfrwt>
<pdfrwt beam="2">  1       -1 0.12751683E-01 0.27200846E+02</pdfrwt>
<totfact> 0.16435548E+06</totfact>
</mgrwt>
</event>
<event>
 4    1  0.4244376E-001  0.7206569E+02  0.7818608E-02  0.1353206E+00
         -1   -1    0    0    0  501 -0.00000000000E+00  0.00000000000E+00  0.10668463822E+02  0.10668464845E+02  0.46700000000E-02 0.  1.
          1   -1    0    0  501    0  0.00000000000E+00 -0.00000000000E+00 -0.12170130247E+03  0.12170130256E+03  0.46700000000E-02 0. -1.
        -11    1    1    2    0    0  0.21953512882E+02 -0.26845309708E+02 -0.73488727427E+02  0.81260202069E+02  0.51100000000E-03 0. -1.
         11    1    1    2    0    0 -0.21953512882E+02  0.26845309708E+02 -0.37544111223E+02  0.51109565337E+02  0.51100000000E-03 0.  1.
<mgrwt>
<rscale>  0 0.72065693E+02</rscale>
<asrwt>0</asrwt>
<pdfrwt beam="2">  1        1 0.18723276E-01 0.72065693E+02</pdfrwt>
<pdfrwt beam="1">  1       -1 0.16413023E-02 0.72065693E+02</pdfrwt>
<totfact> 0.20245149E+05</totfact>
</mgrwt>
</event>
<event>
 4    1  0.4244376E-001  0.3688463E+02  0.7818608E-02  0.1532474E+00
         -1   -1    0    0    0  501 -0.00000000000E+00  0.00000000000E+00  0.45727172138E+01  0.45727195985E+01  0.46700000000E-02 0. -1.
          1   -1    0    0  501    0  0.00000000000E+00 -0.00000000000E+00 -0.74380053858E+02  0.74380054005E+02  0.46700000000E-02 0.  1.
        -11    1    1    2    0    0  0.13387765011E+02 -0.43606063416E+01 -0.94077812296E+01  0.16933797199E+02  0.51100000000E-03 0. -1.
         11    1    1    2    0    0 -0.13387765011E+02  0.43606063416E+01 -0.60399555414E+02  0.62018976404E+02  0.51100000000E-03 0.  1.
<mgrwt>
<rscale>  0 0.36884634E+02</rscale>
<asrwt>0</asrwt>
<pdfrwt beam="2">  1        1 0.11443084E-01 0.36884634E+02</pdfrwt>
<pdfrwt beam="1">  1       -1 0.70349521E-03 0.36884634E+02</pdfrwt>
<totfact> 0.10362634E+06</totfact>
</mgrwt>
</event>
<event>
 4    1  0.4244376E-001  0.2469450E+02  0.7818608E-02  0.1665429E+00
         -1   -1    0    0    0  501 -0.00000000000E+00  0.00000000000E+00  0.37243217761E+02  0.37243218054E+02  0.46700000000E-02 0. -1.
          1   -1    0    0  501    0  0.00000000000E+00 -0.00000000000E+00 -0.40934833508E+01  0.40934860147E+01  0.46700000000E-02 0.  1.
        -11    1    1    2    0    0  0.91110063918E+01  0.64231605315E+01  0.25461986987E+02  0.27795327130E+02  0.51100000000E-03 0. -1.
         11    1    1    2    0    0 -0.91110063918E+01 -0.64231605315E+01  0.76877474235E+01  0.13541376939E+02  0.51100000000E-03 0.  1.
<mgrwt>
<rscale>  0 0.24694498E+02</rscale>
<asrwt>0</asrwt>
<pdfrwt beam="2">  1        1 0.62976689E-03 0.24694498E+02</pdfrwt>
<pdfrwt beam="1">  1       -1 0.57297261E-02 0.24694498E+02</pdfrwt>
<totfact> 0.22390921E+06</totfact>
</mgrwt>
</event>
<event>
 4    1  0.4244376E-001  0.2565270E+02  0.7818608E-02  0.1651800E+00
         -1   -1    0    0    0  501 -0.00000000000E+00  0.00000000000E+00  0.78283814100E+01  0.78283828029E+01  0.46700000000E-02 0. -1.
          1   -1    0    0  501    0  0.00000000000E+00 -0.00000000000E+00 -0.21015225231E+02  0.21015225750E+02  0.46700000000E-02 0.  1.
        -11    1    1    2    0    0  0.38406008406E+01 -0.11908898924E+02 -0.34244923467E+01  0.12973019560E+02  0.51100000000E-03 0. -1.
         11    1    1    2    0    0 -0.38406008406E+01  0.11908898924E+02 -0.97623514744E+01  0.15870588993E+02  0.51100000000E-03 0.  1.
<mgrwt>
<rscale>  0 0.25652698E+02</rscale>
<asrwt>0</asrwt>
<pdfrwt beam="2">  1        1 0.32331117E-02 0.25652698E+02</pdfrwt>
<pdfrwt beam="1">  1       -1 0.12043665E-02 0.25652698E+02</pdfrwt>
<totfact> 0.22483159E+06</totfact>
</mgrwt>
</event>
<event>
 4    1  0.4244376E-001  0.2415906E+02  0.7818608E-02  0.1673383E+00
         -1   -1    0    0    0  501 -0.00000000000E+00  0.00000000000E+00  0.64325756292E+02  0.64325756461E+02  0.46700000000E-02 0.  1.
          1   -1    0    0  501    0  0.00000000000E+00 -0.00000000000E+00 -0.22683735364E+01  0.22683783436E+01  0.46700000000E-02 0. -1.
        -11    1    1    2    0    0 -0.94283778187E+01 -0.71397911981E+01  0.24251945830E+02  0.26981990354E+02  0.51100000000E-03 0. -1.
         11    1    1    2    0    0  0.94283778187E+01  0.71397911981E+01  0.37805436925E+02  0.39612144451E+02  0.51100000000E-03 0.  1.
<mgrwt>
<rscale>  0 0.24159057E+02</rscale>
<asrwt>0</asrwt>
<pdfrwt beam="2">  1        1 0.34898099E-03 0.24159057E+02</pdfrwt>
<pdfrwt beam="1">  1       -1 0.98962687E-02 0.24159057E+02</pdfrwt>
<totfact> 0.22279994E+06</totfact>
</mgrwt>
</event>
<event>
 4    1  0.4244376E-001  0.2343319E+02  0.7818608E-02  0.1684583E+00
         -1   -1    0    0    0  501 -0.00000000000E+00  0.00000000000E+00  0.37918699857E+01  0.37918728614E+01  0.46700000000E-02 0. -1.
          1   -1    0    0  501    0  0.00000000000E+00 -0.00000000000E+00 -0.36203384308E+02  0.36203384609E+02  0.46700000000E-02 0.  1.
        -11    1    1    2    0    0  0.10597057401E+02 -0.32349316672E+01 -0.22708600422E+02  0.25267428477E+02  0.51100000000E-03 0. -1.
         11    1    1    2    0    0 -0.10597057401E+02  0.32349316672E+01 -0.97029139005E+01  0.14727828994E+02  0.51100000000E-03 0.  1.
<mgrwt>
<rscale>  0 0.23433189E+02</rscale>
<asrwt>0</asrwt>
<pdfrwt beam="2">  1        1 0.55697514E-02 0.23433189E+02</pdfrwt>
<pdfrwt beam="1">  1       -1 0.58336488E-03 0.23433189E+02</pdfrwt>
<totfact> 0.28561218E+06</totfact>
</mgrwt>
</event>
<event>
 4    1  0.4244376E-001  0.2595429E+02  0.7818608E-02  0.1647662E+00
         -1   -1    0    0    0  501 -0.00000000000E+00  0.00000000000E+00  0.27814378639E+01  0.27814417843E+01  0.46700000000E-02 0.  1.
          1   -1    0    0  501    0  0.00000000000E+00 -0.00000000000E+00 -0.60546452433E+02  0.60546452613E+02  0.46700000000E-02 0. -1.
        -11    1    1    2    0    0  0.10350059488E+02 -0.84743313666E+00 -0.98938286735E+01  0.14343281368E+02  0.51100000000E-03 0.  1.
         11    1    1    2    0    0 -0.10350059488E+02  0.84743313666E+00 -0.47871185896E+02  0.48984613030E+02  0.51100000000E-03 0. -1.
<mgrwt>
<rscale>  0 0.25954293E+02</rscale>
<asrwt>0</asrwt>
<pdfrwt beam="2">  1        1 0.93148382E-02 0.25954293E+02</pdfrwt>
<pdfrwt beam="1">  1       -1 0.42791388E-03 0.25954293E+02</pdfrwt>
<totfact> 0.23425533E+06</totfact>
</mgrwt>
</event>
<event>
 4    1  0.4244376E-001  0.3201058E+02  0.7818608E-02  0.1576872E+00
          1   -1    0    0  501    0  0.00000000000E+00  0.00000000000E+00  0.11283738248E+02  0.11283739214E+02  0.46700000000E-02 0.  1.
         -1   -1    0    0    0  501 -0.00000000000E+00 -0.00000000000E+00 -0.22702517108E+02  0.22702517588E+02  0.46700000000E-02 0. -1.
        -11    1    1    2    0    0 -0.13942967443E+02  0.27124109560E+01  0.21218823073E+01  0.14361960141E+02  0.51100000000E-03 0.  1.
         11    1    1    2    0    0  0.13942967443E+02 -0.27124109560E+01 -0.13540661168E+02  0.19624296661E+02  0.51100000000E-03 0. -1.
<mgrwt>
<rscale>  0 0.32010579E+02</rscale>
<asrwt>0</asrwt>
<pdfrwt beam="1">  1        1 0.17359598E-02 0.32010579E+02</pdfrwt>
<pdfrwt beam="2">  1       -1 0.34926951E-02 0.32010579E+02</pdfrwt>
<totfact> 0.12755645E+06</totfact>
</mgrwt>
</event>
<event>
 4    1  0.4244376E-001  0.6612963E+02  0.7818608E-02  0.1373772E+00
          1   -1    0    0  501    0  0.00000000000E+00  0.00000000000E+00  0.10993690686E+02  0.10993691678E+02  0.46700000000E-02 0.  1.
         -1   -1    0    0    0  501 -0.00000000000E+00 -0.00000000000E+00 -0.99446302732E+02  0.99446302841E+02  0.46700000000E-02 0. -1.
        -11    1    1    2    0    0 -0.30909075126E+02 -0.47135358061E+01 -0.26263053577E+02  0.40833029870E+02  0.51100000000E-03 0.  1.
         11    1    1    2    0    0  0.30909075126E+02  0.47135358061E+01 -0.62189558468E+02  0.69606964649E+02  0.51100000000E-03 0. -1.
<mgrwt>
<rscale>  0 0.66129629E+02</rscale>
<asrwt>0</asrwt>
<pdfrwt beam="1">  1        1 0.16913372E-02 0.66129629E+02</pdfrwt>
<pdfrwt beam="2">  1       -1 0.15299431E-01 0.66129629E+02</pdfrwt>
<totfact> 0.18503115E+05</totfact>
</mgrwt>
</event>
<event>
 4    1  0.4244376E-001  0.2317020E+02  0.7818608E-02  0.1688766E+00
          1   -1    0    0  501    0  0.00000000000E+00  0.00000000000E+00  0.18792614786E+01  0.18792672811E+01  0.46700000000E-02 0.  1.
         -1   -1    0    0    0  501 -0.00000000000E+00 -0.00000000000E+00 -0.71418636247E+02  0.71418636400E+02  0.46700000000E-02 0. -1.
        -11    1    1    2    0    0  0.96825131513E+01 -0.40580036501E+01 -0.19273254101E+02  0.21947135997E+02  0.51100000000E-03 0.  1.
         11    1    1    2    0    0 -0.96825131513E+01  0.40580036501E+01 -0.50266120667E+02  0.51350767684E+02  0.51100000000E-03 0. -1.
<mgrwt>
<rscale>  0 0.23170197E+02</rscale>
<asrwt>0</asrwt>
<pdfrwt beam="1">  1        1 0.28911766E-03 0.23170197E+02</pdfrwt>
<pdfrwt beam="2">  1       -1 0.10987481E-01 0.23170197E+02</pdfrwt>
<totfact> 0.24164028E+06</totfact>
</mgrwt>
</event>
<event>
 4    1  0.4244376E-001  0.2634636E+02  0.7818608E-02  0.1642384E+00
          1   -1    0    0  501    0  0.00000000000E+00  0.00000000000E+00  0.22968746182E+02  0.22968746657E+02  0.46700000000E-02 0. -1.
         -1   -1    0    0    0  501 -0.00000000000E+00 -0.00000000000E+00 -0.75551655412E+01  0.75551669845E+01  0.46700000000E-02 0.  1.
        -11    1    1    2    0    0 -0.12071113011E-01  0.13117524326E+02  0.63053993874E+01  0.14554300115E+02  0.51100000000E-03 0.  1.
         11    1    1    2    0    0  0.12071113011E-01 -0.13117524326E+02  0.91081812532E+01  0.15969613526E+02  0.51100000000E-03 0. -1.
<mgrwt>
<rscale>  0 0.26346363E+02</rscale>
<asrwt>0</asrwt>
<pdfrwt beam="1">  1        1 0.35336533E-02 0.26346363E+02</pdfrwt>
<pdfrwt beam="2">  1       -1 0.11623333E-02 0.26346363E+02</pdfrwt>
<totfact> 0.21215525E+06</totfact>
</mgrwt>
</event>
<event>
 4    1  0.4244376E-001  0.4194280E+02  0.7818608E-02  0.1494383E+00
          1   -1    0    0  501    0  0.00000000000E+00  0.00000000000E+00  0.72868083114E+01  0.72868098078E+01  0.46700000000E-02 0.  1.
         -1   -1    0    0    0  501 -0.00000000000E+00 -0.00000000000E+00 -0.60355583597E+02  0.60355583777E+02  0.46700000000E-02 0. -1.
        -11    1    1    2    0    0  0.20132991910E+02  0.40136998633E+01 -0.33443286934E+02  0.39241567134E+02  0.51100000000E-03 0. -1.
         11    1    1    2    0    0 -0.20132991910E+02 -0.40136998633E+01 -0.19625488351E+02  0.28400826452E+02  0.51100000000E-03 0.  1.
<mgrwt>
<rscale>  0 0.41942800E+02</rscale>
<asrwt>0</asrwt>
<pdfrwt beam="1">  1        1 0.11210476E-02 0.41942800E+02</pdfrwt>
<pdfrwt beam="2">  1       -1 0.92854742E-02 0.41942800E+02</pdfrwt>
<totfact> 0.61437687E+05</totfact>
</mgrwt>
</event>
<event>
 4    1  0.4244376E-001  0.5027610E+02  0.7818608E-02  0.1443858E+00
          1   -1    0    0  501    0  0.00000000000E+00  0.00000000000E+00  0.45639944595E+02  0.45639944834E+02  0.46700000000E-02 0. -1.
         -1   -1    0    0    0  501 -0.00000000000E+00 -0.00000000000E+00 -0.13845797891E+02  0.13845798679E+02  0.46700000000E-02 0.  1.
        -11    1    1    2    0    0 -0.15050803418E+02  0.10036430394E+02  0.36549092683E+02  0.40781034744E+02  0.51100000000E-03 0. -1.
         11    1    1    2    0    0  0.15050803418E+02 -0.10036430394E+02 -0.47549459791E+01  0.18704708769E+02  0.51100000000E-03 0.  1.
<mgrwt>
<rscale>  0 0.50276097E+02</rscale>
<asrwt>0</asrwt>
<pdfrwt beam="1">  1        1 0.70215300E-02 0.50276097E+02</pdfrwt>
<pdfrwt beam="2">  1       -1 0.21301228E-02 0.50276097E+02</pdfrwt>
<totfact> 0.45564716E+05</totfact>
</mgrwt>
</event>
<event>
 4    1  0.4244376E-001  0.3245635E+02  0.7818608E-02  0.1572423E+00
          1   -1    0    0  501    0  0.00000000000E+00  0.00000000000E+00  0.71877106223E+02  0.71877106374E+02  0.46700000000E-02 0. -1.
         -1   -1    0    0    0  501 -0.00000000000E+00 -0.00000000000E+00 -0.36639408381E+01  0.36639438143E+01  0.46700000000E-02 0.  1.
        -11    1    1    2    0    0 -0.97360442807E+01  0.43120207924E+01  0.56039562945E+01  0.12032805490E+02  0.51100000000E-03 0.  1.
         11    1    1    2    0    0  0.97360442807E+01 -0.43120207924E+01  0.62609209090E+02  0.63508244699E+02  0.51100000000E-03 0. -1.
<mgrwt>
<rscale>  0 0.32456345E+02</rscale>
<asrwt>0</asrwt>
<pdfrwt beam="1">  1        1 0.11058016E-01 0.32456345E+02</pdfrwt>
<pdfrwt beam="2">  1       -1 0.56368350E-03 0.32456345E+02</pdfrwt>
<totfact> 0.14059292E+06</totfact>
</mgrwt>
</event>
<event>
 4    1  0.4244376E-001  0.3459460E+02  0.7818608E-02  0.1552230E+00
          1   -1    0    0  501    0  0.00000000000E+00  0.00000000000E+00  0.18702855648E+02  0.18702856231E+02  0.46700000000E-02 0.  1.
         -1   -1    0    0    0  501 -0.00000000000E+00 -0.00000000000E+00 -0.15997372783E+02  0.15997373465E+02  0.46700000000E-02 0. -1.
        -11    1    1    2    0    0 -0.12497062745E+02  0.10394317209E+02  0.72850341847E+01  0.17812639636E+02  0.51100000000E-03 0.  1.
         11    1    1    2    0    0  0.12497062745E+02 -0.10394317209E+02 -0.45795513199E+01  0.16887590060E+02  0.51100000000E-03 0. -1.
<mgrwt>
<rscale>  0 0.34594599E+02</rscale>
<asrwt>0</asrwt>
<pdfrwt beam="1">  1        1 0.28773625E-02 0.34594599E+02</pdfrwt>
<pdfrwt beam="2">  1       -1 0.24611344E-02 0.34594599E+02</pdfrwt>
<totfact> 0.10882925E+06</totfact>
</mgrwt>
</event>
<event>
 4    1  0.4244376E-001  0.2255544E+02  0.7818608E-02  0.1698819E+00
          1   -1    0    0  501    0  0.00000000000E+00  0.00000000000E+00  0.40393513453E+01  0.40393540449E+01  0.46700000000E-02 0.  1.
         -1   -1    0    0    0  501 -0.00000000000E+00 -0.00000000000E+00 -0.31486966906E+02  0.31486967252E+02  0.46700000000E-02 0. -1.
        -11    1    1    2    0    0  0.12689027454E+01 -0.11186819486E+02 -0.12688650349E+02  0.16963398608E+02  0.51100000000E-03 0. -1.
         11    1    1    2    0    0 -0.12689027454E+01  0.11186819486E+02 -0.14758965212E+02  0.18562922689E+02  0.51100000000E-03 0.  1.
<mgrwt>
<rscale>  0 0.22555441E+02</rscale>
<asrwt>0</asrwt>
<pdfrwt beam="1">  1        1 0.62143892E-03 0.22555441E+02</pdfrwt>
<pdfrwt beam="2">  1       -1 0.48441488E-02 0.22555441E+02</pdfrwt>
<totfact> 0.27831657E+06</totfact>
</mgrwt>
</event>
<event>
 4    1  0.4244376E-001  0.3523888E+02  0.7818608E-02  0.1546489E+00
         -1   -1    0    0    0  501 -0.00000000000E+00  0.00000000000E+00  0.46976303631E+02  0.46976303864E+02  0.46700000000E-02 0. -1.
          1   -1    0    0  501    0  0.00000000000E+00 -0.00000000000E+00 -0.66085354524E+01  0.66085371025E+01  0.46700000000E-02 0.  1.
        -11    1    1    2    0    0  0.34178518207E+01 -0.14222899504E+02  0.35119412986E+02  0.38043997557E+02  0.51100000000E-03 0. -1.
         11    1    1    2    0    0 -0.34178518207E+01  0.14222899504E+02  0.52483551926E+01  0.15540843409E+02  0.51100000000E-03 0.  1.
<mgrwt>
<rscale>  0 0.35238877E+02</rscale>
<asrwt>0</asrwt>
<pdfrwt beam="2">  1        1 0.10166979E-02 0.35238877E+02</pdfrwt>
<pdfrwt beam="1">  1       -1 0.72271241E-02 0.35238877E+02</pdfrwt>
<totfact> 0.95895430E+05</totfact>
</mgrwt>
</event>
<event>
 4    1  0.4244376E-001  0.2227026E+02  0.7818608E-02  0.1703619E+00
         -1   -1    0    0    0  501 -0.00000000000E+00  0.00000000000E+00  0.33123728084E+02  0.33123728413E+02  0.46700000000E-02 0. -1.
          1   -1    0    0  501    0  0.00000000000E+00 -0.00000000000E+00 -0.37432704356E+01  0.37432733487E+01  0.46700000000E-02 0.  1.
        -11    1    1    2    0    0  0.95586983758E+01  0.40750604735E+01  0.80651111503E+01  0.13153739036E+02  0.51100000000E-03 0.  1.
         11    1    1    2    0    0 -0.95586983758E+01 -0.40750604735E+01  0.21315346498E+02  0.23713262725E+02  0.51100000000E-03 0. -1.
<mgrwt>
<rscale>  0 0.22270261E+02</rscale>
<asrwt>0</asrwt>
<pdfrwt beam="2">  1        1 0.57588803E-03 0.22270261E+02</pdfrwt>
<pdfrwt beam="1">  1       -1 0.50959582E-02 0.22270261E+02</pdfrwt>
<totfact> 0.28527976E+06</totfact>
</mgrwt>
</event>
<event>
 4    1  0.4244376E-001  0.1108106E+03  0.7818608E-02  0.1259076E+00
          1   -1    0    0  501    0  0.00000000000E+00  0.00000000000E+00  0.44167046899E+02  0.44167047146E+02  0.46700000000E-02 0. -1.
         -1   -1    0    0    0  501 -0.00000000000E+00 -0.00000000000E+00 -0.69503168813E+02  0.69503168970E+02  0.46700000000E-02 0.  1.
        -11    1    1    2    0    0  0.22416933664E+02 -0.66461771920E+01 -0.64194356569E+02  0.68319879989E+02  0.51100000000E-03 0.  1.
         11    1    1    2    0    0 -0.22416933664E+02  0.66461771920E+01  0.38858234654E+02  0.45350336127E+02  0.51100000000E-03 0. -1.
<mgrwt>
<rscale>  0 0.11081064E+03</rscale>
<asrwt>0</asrwt>
<pdfrwt beam="1">  1        1 0.67949303E-02 0.11081064E+03</pdfrwt>
<pdfrwt beam="2">  1       -1 0.10692795E-01 0.11081064E+03</pdfrwt>
<totfact> 0.52684026E+04</totfact>
</mgrwt>
</event>
<event>
 4    1  0.4244376E-001  0.3088927E+02  0.7818608E-02  0.1588462E+00
         -1   -1    0    0    0  501 -0.00000000000E+00  0.00000000000E+00  0.37696552139E+01  0.37696581066E+01  0.46700000000E-02 0. -1.
          1   -1    0    0  501    0  0.00000000000E+00 -0.00000000000E+00 -0.63278087082E+02  0.63278087255E+02  0.46700000000E-02 0.  1.
        -11    1    1    2    0    0 -0.36676313224E+01 -0.14910714539E+02 -0.33357480745E+02  0.36721961406E+02  0.51100000000E-03 0. -1.
         11    1    1    2    0    0  0.36676313224E+01  0.14910714539E+02 -0.26150951124E+02  0.30325783956E+02  0.51100000000E-03 0.  1.
<mgrwt>
<rscale>  0 0.30889265E+02</rscale>
<asrwt>0</asrwt>
<pdfrwt beam="2">  1        1 0.97350898E-02 0.30889265E+02</pdfrwt>
<pdfrwt beam="1">  1       -1 0.57994724E-03 0.30889265E+02</pdfrwt>
<totfact> 0.15627309E+06</totfact>
</mgrwt>
</event>
<event>
 4    1  0.4244376E-001  0.2232207E+02  0.7818608E-02  0.1702741E+00
         -1   -1    0    0    0  501 -0.00000000000E+00  0.00000000000E+00  0.15887900190E+01  0.15887968824E+01  0.46700000000E-02 0.  1.
          1   -1    0    0  501    0  0.00000000000E+00 -0.00000000000E+00 -0.78404591614E+02  0.78404591753E+02  0.46700000000E-02 0. -1.
        -11    1    1    2    0    0  0.69022628643E+01 -0.86637228382E+01 -0.33510826415E+02  0.35294147013E+02  0.51100000000E-03 0.  1.
         11    1    1    2    0    0 -0.69022628643E+01  0.86637228382E+01 -0.43304975180E+02  0.44699241623E+02  0.51100000000E-03 0. -1.
<mgrwt>
<rscale>  0 0.22322071E+02</rscale>
<asrwt>0</asrwt>
<pdfrwt beam="2">  1        1 0.12062242E-01 0.22322071E+02</pdfrwt>
<pdfrwt beam="1">  1       -1 0.24442983E-03 0.22322071E+02</pdfrwt>
<totfact> 0.33859326E+06</totfact>
</mgrwt>
</event>
<event>
 4    1  0.4244376E-001  0.2527560E+02  0.7818608E-02  0.1657075E+00
         -1   -1    0    0    0  501 -0.00000000000E+00  0.00000000000E+00  0.67028721427E+02  0.67028721589E+02  0.46700000000E-02 0.  1.
          1   -1    0    0  501    0  0.00000000000E+00 -0.00000000000E+00 -0.23827662469E+01  0.23827708233E+01  0.46700000000E-02 0. -1.
        -11    1    1    2    0    0  0.21042647350E+01 -0.10309511181E+02  0.51546278488E+02  0.52609246118E+02  0.51100000000E-03 0.  1.
         11    1    1    2    0    0 -0.21042647350E+01  0.10309511181E+02  0.13099676692E+02  0.16802246295E+02  0.51100000000E-03 0. -1.
<mgrwt>
<rscale>  0 0.25275596E+02</rscale>
<asrwt>0</asrwt>
<pdfrwt beam="2">  1        1 0.36657983E-03 0.25275596E+02</pdfrwt>
<pdfrwt beam="1">  1       -1 0.10312110E-01 0.25275596E+02</pdfrwt>
<totfact> 0.20004999E+06</totfact>
</mgrwt>
</event>
<event>
 4    1  0.4244376E-001  0.2509638E+02  0.7818608E-02  0.1659621E+00
         -1   -1    0    0    0  501 -0.00000000000E+00  0.00000000000E+00  0.58528975977E+01  0.58528994607E+01  0.46700000000E-02 0. -1.
          1   -1    0    0  501    0  0.00000000000E+00 -0.00000000000E+00 -0.26902406947E+02  0.26902407352E+02  0.46700000000E-02 0.  1.
        -11    1    1    2    0    0 -0.62028933356E+01  0.91193001934E+01 -0.18336186458E+02  0.21397505832E+02  0.51100000000E-03 0.  1.
         11    1    1    2    0    0  0.62028933356E+01 -0.91193001934E+01 -0.27133228914E+01  0.11357800981E+02  0.51100000000E-03 0. -1.
<mgrwt>
<rscale>  0 0.25096380E+02</rscale>
<asrwt>0</asrwt>
<pdfrwt beam="2">  1        1 0.41388319E-02 0.25096380E+02</pdfrwt>
<pdfrwt beam="1">  1       -1 0.90044598E-03 0.25096380E+02</pdfrwt>
<totfact> 0.23970747E+06</totfact>
</mgrwt>
</event>
<event>
 4    1  0.4244376E-001  0.2799853E+02  0.7818608E-02  0.1621328E+00
         -1   -1    0    0    0  501 -0.00000000000E+00  0.00000000000E+00  0.65977065622E+01  0.65977082150E+01  0.46700000000E-02 0.  1.
          1   -1    0    0  501    0  0.00000000000E+00 -0.00000000000E+00 -0.29704162542E+02  0.29704162909E+02  0.46700000000E-02 0. -1.
        -11    1    1    2    0    0  0.78675340996E+01 -0.11467878686E+02 -0.94750625747E+01  0.16828165242E+02  0.51100000000E-03 0.  1.
         11    1    1    2    0    0 -0.78675340996E+01  0.11467878686E+02 -0.13631393405E+02  0.19473705882E+02  0.51100000000E-03 0. -1.
<mgrwt>
<rscale>  0 0.27998527E+02</rscale>
<asrwt>0</asrwt>
<pdfrwt beam="2">  1        1 0.45698713E-02 0.27998527E+02</pdfrwt>
<pdfrwt beam="1">  1       -1 0.10150319E-02 0.27998527E+02</pdfrwt>
<totfact> 0.18649473E+06</totfact>
</mgrwt>
</event>
<event>
 4    1  0.4244376E-001  0.2371560E+02  0.7818608E-02  0.1680166E+00
         -1   -1    0    0    0  501 -0.00000000000E+00  0.00000000000E+00  0.58018561890E+01  0.58018580685E+01  0.46700000000E-02 0. -1.
          1   -1    0    0  501    0  0.00000000000E+00 -0.00000000000E+00 -0.24234901858E+02  0.24234902308E+02  0.46700000000E-02 0.  1.
        -11    1    1    2    0    0  0.10612223166E+02  0.52519067551E+01 -0.10023185531E+02  0.15513415277E+02  0.51100000000E-03 0. -1.
         11    1    1    2    0    0 -0.10612223166E+02 -0.52519067551E+01 -0.84098601383E+01  0.14523345100E+02  0.51100000000E-03 0.  1.
<mgrwt>
<rscale>  0 0.23715602E+02</rscale>
<asrwt>0</asrwt>
<pdfrwt beam="2">  1        1 0.37284466E-02 0.23715602E+02</pdfrwt>
<pdfrwt beam="1">  1       -1 0.89259345E-03 0.23715602E+02</pdfrwt>
<totfact> 0.27179713E+06</totfact>
</mgrwt>
</event>
<event>
 4    1  0.4244376E-001  0.2640329E+02  0.7818608E-02  0.1641627E+00
         -1   -1    0    0    0  501 -0.00000000000E+00  0.00000000000E+00  0.40591832711E+02  0.40591832980E+02  0.46700000000E-02 0.  1.
          1   -1    0    0  501    0  0.00000000000E+00 -0.00000000000E+00 -0.42935559579E+01  0.42935584976E+01  0.46700000000E-02 0. -1.
        -11    1    1    2    0    0  0.54246922583E+01 -0.11044052146E+02  0.10016668723E+02  0.15866065248E+02  0.51100000000E-03 0. -1.
         11    1    1    2    0    0 -0.54246922583E+01  0.11044052146E+02  0.26281608030E+02  0.29019326229E+02  0.51100000000E-03 0.  1.
<mgrwt>
<rscale>  0 0.26403285E+02</rscale>
<asrwt>0</asrwt>
<pdfrwt beam="2">  1        1 0.66054728E-03 0.26403285E+02</pdfrwt>
<pdfrwt beam="1">  1       -1 0.62448976E-02 0.26403285E+02</pdfrwt>
<totfact> 0.19077183E+06</totfact>
</mgrwt>
</event>
<event>
 4    1  0.4244376E-001  0.3712947E+02  0.7818608E-02  0.1530465E+00
          1   -1    0    0  501    0  0.00000000000E+00  0.00000000000E+00  0.11695216594E+03  0.11695216603E+03  0.46700000000E-02 0. -1.
         -1   -1    0    0    0  501 -0.00000000000E+00 -0.00000000000E+00 -0.29469235860E+01  0.29469272863E+01  0.46700000000E-02 0.  1.
        -11    1    1    2    0    0 -0.85705186128E+01 -0.16300327329E+02  0.64572268145E+02  0.67147094308E+02  0.51100000000E-03 0. -1.
         11    1    1    2    0    0  0.85705186128E+01  0.16300327329E+02  0.49432974210E+02  0.52751999013E+02  0.51100000000E-03 0.  1.
<mgrwt>
<rscale>  0 0.37129467E+02</rscale>
<asrwt>0</asrwt>
<pdfrwt beam="1">  1        1 0.17992641E-01 0.37129467E+02</pdfrwt>
<pdfrwt beam="2">  1       -1 0.45337314E-03 0.37129467E+02</pdfrwt>
<totfact> 0.10769407E+06</totfact>
</mgrwt>
</event>
<event>
 4    1  0.4244376E-001  0.3919171E+02  0.7818608E-02  0.1514245E+00
         -1   -1    0    0    0  501 -0.00000000000E+00  0.00000000000E+00  0.35252910599E+02  0.35252910909E+02  0.46700000000E-02 0.  1.
          1   -1    0    0  501    0  0.00000000000E+00 -0.00000000000E+00 -0.10892648971E+02  0.10892649972E+02  0.46700000000E-02 0. -1.
        -11    1    1    2    0    0  0.13767931458E+02 -0.51696927093E+01 -0.30682193609E+01  0.15023169761E+02  0.51100000000E-03 0. -1.
         11    1    1    2    0    0 -0.13767931458E+02  0.51696927093E+01  0.27428480990E+02  0.31122391120E+02  0.51100000000E-03 0.  1.
<mgrwt>
<rscale>  0 0.39191714E+02</rscale>
<asrwt>0</asrwt>
<pdfrwt beam="2">  1        1 0.16757922E-02 0.39191714E+02</pdfrwt>
<pdfrwt beam="1">  1       -1 0.54235249E-02 0.39191714E+02</pdfrwt>
<totfact> 0.76392234E+05</totfact>
</mgrwt>
</event>
<event>
 4    1  0.4244376E-001  0.3305843E+02  0.7818608E-02  0.1566551E+00
         -1   -1    0    0    0  501 -0.00000000000E+00  0.00000000000E+00  0.10834234598E+03  0.10834234608E+03  0.46700000000E-02 0. -1.
          1   -1    0    0  501    0  0.00000000000E+00 -0.00000000000E+00 -0.25217719667E+01  0.25217762909E+01  0.46700000000E-02 0.  1.
        -11    1    1    2    0    0 -0.22848341240E+01  0.13677085539E+02  0.83079807587E+02  0.84229077906E+02  0.51100000000E-03 0. -1.
         11    1    1    2    0    0  0.22848341240E+01 -0.13677085539E+02  0.22740766429E+02  0.26635044469E+02  0.51100000000E-03 0.  1.
<mgrwt>
<rscale>  0 0.33058429E+02</rscale>
<asrwt>0</asrwt>
<pdfrwt beam="2">  1        1 0.38796525E-03 0.33058429E+02</pdfrwt>
<pdfrwt beam="1">  1       -1 0.16668054E-01 0.33058429E+02</pdfrwt>
<totfact> 0.99952634E+05</totfact>
</mgrwt>
</event>
<event>
 4    1  0.4244376E-001  0.2493107E+02  0.7818608E-02  0.1661994E+00
         -1   -1    0    0    0  501 -0.00000000000E+00  0.00000000000E+00  0.15095648095E+02  0.15095648817E+02  0.46700000000E-02 0.  1.
          1   -1    0    0  501    0  0.00000000000E+00 -0.00000000000E+00 -0.10293665198E+02  0.10293666258E+02  0.46700000000E-02 0. -1.
        -11    1    1    2    0    0  0.73090776793E+01 -0.97969139099E+01 -0.90906897730E-01  0.12223354818E+02  0.51100000000E-03 0. -1.
         11    1    1    2    0    0 -0.73090776793E+01  0.97969139099E+01  0.48928897943E+01  0.13165960257E+02  0.51100000000E-03 0.  1.
<mgrwt>
<rscale>  0 0.24931071E+02</rscale>
<asrwt>0</asrwt>
<pdfrwt beam="2">  1        1 0.15836410E-02 0.24931071E+02</pdfrwt>
<pdfrwt beam="1">  1       -1 0.23224075E-02 0.24931071E+02</pdfrwt>
<totfact> 0.23214991E+06</totfact>
</mgrwt>
</event>
<event>
 4    1  0.4244376E-001  0.2085167E+02  0.7818608E-02  0.1728903E+00
          1   -1    0    0  501    0  0.00000000000E+00  0.00000000000E+00  0.43920421517E+02  0.43920421765E+02  0.46700000000E-02 0. -1.
         -1   -1    0    0    0  501 -0.00000000000E+00 -0.00000000000E+00 -0.24748837159E+01  0.24748881219E+01  0.46700000000E-02 0.  1.
        -11    1    1    2    0    0  0.93429090265E+01 -0.42529657750E+01  0.16668366017E+02  0.19575803761E+02  0.51100000000E-03 0. -1.
         11    1    1    2    0    0 -0.93429090265E+01  0.42529657750E+01  0.24777171784E+02  0.26819506126E+02  0.51100000000E-03 0.  1.
<mgrwt>
<rscale>  0 0.20851671E+02</rscale>
<asrwt>0</asrwt>
<pdfrwt beam="1">  1        1 0.67569883E-02 0.20851671E+02</pdfrwt>
<pdfrwt beam="2">  1       -1 0.38075170E-03 0.20851671E+02</pdfrwt>
<totfact> 0.37671507E+06</totfact>
</mgrwt>
</event>
<event>
 4    1  0.4244376E-001  0.2451470E+02  0.7818608E-02  0.1668072E+00
          1   -1    0    0  501    0  0.00000000000E+00  0.00000000000E+00  0.20106223291E+02  0.20106223833E+02  0.46700000000E-02 0. -1.
         -1   -1    0    0    0  501 -0.00000000000E+00 -0.00000000000E+00 -0.74724437471E+01  0.74724452064E+01  0.46700000000E-02 0.  1.
        -11    1    1    2    0    0 -0.91089230501E+01 -0.59007142528E+01  0.12725527130E+02  0.16725129262E+02  0.51100000000E-03 0. -1.
         11    1    1    2    0    0  0.91089230501E+01  0.59007142528E+01 -0.91747586525E-01  0.10853539778E+02  0.51100000000E-03 0.  1.
<mgrwt>
<rscale>  0 0.24514702E+02</rscale>
<asrwt>0</asrwt>
<pdfrwt beam="1">  1        1 0.30932653E-02 0.24514702E+02</pdfrwt>
<pdfrwt beam="2">  1       -1 0.11496069E-02 0.24514702E+02</pdfrwt>
<totfact> 0.24942886E+06</totfact>
</mgrwt>
</event>
<event>
 4    1  0.4244376E-001  0.2673039E+02  0.7818608E-02  0.1637323E+00
         -1   -1    0    0    0  501 -0.00000000000E+00  0.00000000000E+00  0.58687017761E+01  0.58687036342E+01  0.46700000000E-02 0.  1.
          1   -1    0    0  501    0  0.00000000000E+00 -0.00000000000E+00 -0.30437461987E+02  0.30437462345E+02  0.46700000000E-02 0. -1.
        -11    1    1    2    0    0  0.28482678410E+01  0.11932002067E+02 -0.50789276123E+01  0.13277078329E+02  0.51100000000E-03 0.  1.
         11    1    1    2    0    0 -0.28482678410E+01 -0.11932002067E+02 -0.19489832599E+02  0.23029087650E+02  0.51100000000E-03 0. -1.
<mgrwt>
<rscale>  0 0.26730389E+02</rscale>
<asrwt>0</asrwt>
<pdfrwt beam="2">  1        1 0.46826866E-02 0.26730389E+02</pdfrwt>
<pdfrwt beam="1">  1       -1 0.90287738E-03 0.26730389E+02</pdfrwt>
<totfact> 0.20829893E+06</totfact>
</mgrwt>
</event>
<event>
 4    1  0.4244376E-001  0.2593432E+02  0.7818608E-02  0.1647934E+00
         -1   -1    0    0    0  501 -0.00000000000E+00  0.00000000000E+00  0.53615450405E+02  0.53615450609E+02  0.46700000000E-02 0. -1.
          1   -1    0    0  501    0  0.00000000000E+00 -0.00000000000E+00 -0.31361703203E+01  0.31361737973E+01  0.46700000000E-02 0.  1.
        -11    1    1    2    0    0  0.37223041145E+01 -0.10383937821E+02  0.40156212041E+02  0.41643763979E+02  0.51100000000E-03 0. -1.
         11    1    1    2    0    0 -0.37223041145E+01  0.10383937821E+02  0.10323068044E+02  0.15107860427E+02  0.51100000000E-03 0.  1.
<mgrwt>
<rscale>  0 0.25934324E+02</rscale>
<asrwt>0</asrwt>
<pdfrwt beam="2">  1        1 0.48248806E-03 0.25934324E+02</pdfrwt>
<pdfrwt beam="1">  1       -1 0.82485305E-02 0.25934324E+02</pdfrwt>
<totfact> 0.19350928E+06</totfact>
</mgrwt>
</event>
<event>
 4    1  0.4244376E-001  0.3555346E+02  0.7818608E-02  0.1543740E+00
          1   -1    0    0  501    0  0.00000000000E+00  0.00000000000E+00  0.11262775629E+02  0.11262776597E+02  0.46700000000E-02 0.  1.
         -1   -1    0    0    0  501 -0.00000000000E+00 -0.00000000000E+00 -0.28058096113E+02  0.28058096501E+02  0.46700000000E-02 0. -1.
        -11    1    1    2    0    0  0.13761983435E+02 -0.85834603798E+01 -0.35036275604E+00  0.16223154270E+02  0.51100000000E-03 0. -1.
         11    1    1    2    0    0 -0.13761983435E+02  0.85834603798E+01 -0.16444957728E+02  0.23097718829E+02  0.51100000000E-03 0.  1.
<mgrwt>
<rscale>  0 0.35553457E+02</rscale>
<asrwt>0</asrwt>
<pdfrwt beam="1">  1        1 0.17327348E-02 0.35553457E+02</pdfrwt>
<pdfrwt beam="2">  1       -1 0.43166302E-02 0.35553457E+02</pdfrwt>
<totfact> 0.98170535E+05</totfact>
</mgrwt>
</event>
<event>
 4    1  0.4244376E-001  0.2460418E+02  0.7818608E-02  0.1666753E+00
          1   -1    0    0  501    0  0.00000000000E+00  0.00000000000E+00  0.15444056510E+02  0.15444057216E+02  0.46700000000E-02 0.  1.
         -1   -1    0    0    0  501 -0.00000000000E+00 -0.00000000000E+00 -0.97993266820E+01  0.97993277948E+01  0.46700000000E-02 0. -1.
        -11    1    1    2    0    0  0.11176761485E+02 -0.15199845401E+01  0.78602309180E+01  0.13748220999E+02  0.51100000000E-03 0.  1.
         11    1    1    2    0    0 -0.11176761485E+02  0.15199845401E+01 -0.22155010901E+01  0.11495164011E+02  0.51100000000E-03 0. -1.
<mgrwt>
<rscale>  0 0.24604177E+02</rscale>
<asrwt>0</asrwt>
<pdfrwt beam="1">  1        1 0.23760088E-02 0.24604177E+02</pdfrwt>
<pdfrwt beam="2">  1       -1 0.15075889E-02 0.24604177E+02</pdfrwt>
<totfact> 0.24423274E+06</totfact>
</mgrwt>
</event>
<event>
 4    1  0.4244376E-001  0.2166333E+02  0.7818608E-02  0.1714140E+00
         -1   -1    0    0    0  501 -0.00000000000E+00  0.00000000000E+00  0.81094731403E+01  0.81094744850E+01  0.46700000000E-02 0.  1.
          1   -1    0    0  501    0  0.00000000000E+00 -0.00000000000E+00 -0.14467639400E+02  0.14467640154E+02  0.46700000000E-02 0. -1.
        -11    1    1    2    0    0  0.73798246274E+01  0.79251924529E+01 -0.29358513494E+01  0.11220058393E+02  0.51100000000E-03 0. -1.
         11    1    1    2    0    0 -0.73798246274E+01 -0.79251924529E+01 -0.34223149101E+01  0.11357056245E+02  0.51100000000E-03 0.  1.
<mgrwt>
<rscale>  0 0.21663329E+02</rscale>
<asrwt>0</asrwt>
<pdfrwt beam="2">  1        1 0.22257908E-02 0.21663329E+02</pdfrwt>
<pdfrwt beam="1">  1       -1 0.12476114E-02 0.21663329E+02</pdfrwt>
<totfact> 0.32683971E+06</totfact>
</mgrwt>
</event>
<event>
 4    1  0.4244376E-001  0.3683903E+02  0.7818608E-02  0.1532851E+00
         -1   -1    0    0    0  501 -0.00000000000E+00  0.00000000000E+00  0.87370869286E+02  0.87370869411E+02  0.46700000000E-02 0. -1.
          1   -1    0    0  501    0  0.00000000000E+00 -0.00000000000E+00 -0.38831981329E+01  0.38832009410E+01  0.46700000000E-02 0.  1.
        -11    1    1    2    0    0  0.18143740498E+02 -0.22010631970E+01  0.47413388885E+02  0.50814067386E+02  0.51100000000E-03 0. -1.
         11    1    1    2    0    0 -0.18143740498E+02  0.22010631970E+01  0.36074282269E+02  0.40440002966E+02  0.51100000000E-03 0.  1.
<mgrwt>
<rscale>  0 0.36839030E+02</rscale>
<asrwt>0</asrwt>
<pdfrwt beam="2">  1        1 0.59741526E-03 0.36839030E+02</pdfrwt>
<pdfrwt beam="1">  1       -1 0.13441674E-01 0.36839030E+02</pdfrwt>
<totfact> 0.79977344E+05</totfact>
</mgrwt>
</event>
<event>
 4    1  0.4244376E-001  0.3676915E+02  0.7818608E-02  0.1533429E+00
          1   -1    0    0  501    0  0.00000000000E+00  0.00000000000E+00  0.62771114678E+01  0.62771132050E+01  0.46700000000E-02 0.  1.
         -1   -1    0    0    0  501 -0.00000000000E+00 -0.00000000000E+00 -0.53845231645E+02  0.53845231847E+02  0.46700000000E-02 0. -1.
        -11    1    1    2    0    0  0.10938599315E+02 -0.52601287066E+01 -0.12056020136E+01  0.12197351576E+02  0.51100000000E-03 0.  1.
         11    1    1    2    0    0 -0.10938599315E+02  0.52601287066E+01 -0.46362518164E+02  0.47924993476E+02  0.51100000000E-03 0. -1.
<mgrwt>
<rscale>  0 0.36769149E+02</rscale>
<asrwt>0</asrwt>
<pdfrwt beam="1">  1        1 0.96570964E-03 0.36769149E+02</pdfrwt>
<pdfrwt beam="2">  1       -1 0.82838816E-02 0.36769149E+02</pdfrwt>
<totfact> 0.85436001E+05</totfact>
</mgrwt>
</event>
<event>
 4    1  0.4244376E-001  0.2071449E+02  0.7818608E-02  0.1731482E+00
          1   -1    0    0  501    0  0.00000000000E+00  0.00000000000E+00  0.28903808543E+01  0.28903846270E+01  0.46700000000E-02 0. -1.
         -1   -1    0    0    0  501 -0.00000000000E+00 -0.00000000000E+00 -0.37113610312E+02  0.37113610606E+02  0.46700000000E-02 0.  1.
        -11    1    1    2    0    0  0.10146722306E+02  0.19667146666E+01 -0.18405105580E+02  0.21108572946E+02  0.51100000000E-03 0. -1.
         11    1    1    2    0    0 -0.10146722306E+02 -0.19667146666E+01 -0.15818123878E+02  0.18895422287E+02  0.51100000000E-03 0.  1.
<mgrwt>
<rscale>  0 0.20714493E+02</rscale>
<asrwt>0</asrwt>
<pdfrwt beam="1">  1        1 0.44467432E-03 0.20714493E+02</pdfrwt>
<pdfrwt beam="2">  1       -1 0.57097862E-02 0.20714493E+02</pdfrwt>
<totfact> 0.33220482E+06</totfact>
</mgrwt>
</event>
<event>
 4    1  0.4244376E-001  0.3437247E+02  0.7818608E-02  0.1554245E+00
          1   -1    0    0  501    0  0.00000000000E+00  0.00000000000E+00  0.31955737340E+02  0.31955737681E+02  0.46700000000E-02 0. -1.
         -1   -1    0    0    0  501 -0.00000000000E+00 -0.00000000000E+00 -0.92429918826E+01  0.92429930624E+01  0.46700000000E-02 0.  1.
        -11    1    1    2    0    0  0.15512326043E+02  0.46737132544E+01  0.18230385102E+02  0.24388989239E+02  0.51100000000E-03 0. -1.
         11    1    1    2    0    0 -0.15512326043E+02 -0.46737132544E+01  0.44823603552E+01  0.16809741505E+02  0.51100000000E-03 0.  1.
<mgrwt>
<rscale>  0 0.34372469E+02</rscale>
<asrwt>0</asrwt>
<pdfrwt beam="1">  1        1 0.49162673E-02 0.34372469E+02</pdfrwt>
<pdfrwt beam="2">  1       -1 0.14219989E-02 0.34372469E+02</pdfrwt>
<totfact> 0.11450717E+06</totfact>
</mgrwt>
</event>
<event>
 4    1  0.4244376E-001  0.2160933E+02  0.7818608E-02  0.1715097E+00
         -1   -1    0    0    0  501 -0.00000000000E+00  0.00000000000E+00  0.10921310037E+02  0.10921311036E+02  0.46700000000E-02 0. -1.
          1   -1    0    0  501    0  0.00000000000E+00 -0.00000000000E+00 -0.10689268006E+02  0.10689269027E+02  0.46700000000E-02 0.  1.
        -11    1    1    2    0    0  0.10699437734E+02 -0.26450968834E+00  0.15969501770E+01  0.10821191400E+02  0.51100000000E-03 0. -1.
         11    1    1    2    0    0 -0.10699437734E+02  0.26450968834E+00 -0.13649081464E+01  0.10789388662E+02  0.51100000000E-03 0.  1.
<mgrwt>
<rscale>  0 0.21609334E+02</rscale>
<asrwt>0</asrwt>
<pdfrwt beam="2">  1        1 0.16445029E-02 0.21609334E+02</pdfrwt>
<pdfrwt beam="1">  1       -1 0.16802017E-02 0.21609334E+02</pdfrwt>
<totfact> 0.32453773E+06</totfact>
</mgrwt>
</event>
<event>
 4    1  0.4244376E-001  0.2696290E+02  0.7818608E-02  0.1634310E+00
          1   -1    0    0  501    0  0.00000000000E+00  0.00000000000E+00  0.61391165434E+02  0.61391165612E+02  0.46700000000E-02 0.  1.
         -1   -1    0    0    0  501 -0.00000000000E+00 -0.00000000000E+00 -0.29605134746E+01  0.29605171579E+01  0.46700000000E-02 0. -1.
        -11    1    1    2    0    0  0.79700511446E+01 -0.98079884367E+01  0.18012906557E+02  0.22004162227E+02  0.51100000000E-03 0.  1.
         11    1    1    2    0    0 -0.79700511446E+01  0.98079884367E+01  0.40417745403E+02  0.42347520543E+02  0.51100000000E-03 0. -1.
<mgrwt>
<rscale>  0 0.26962900E+02</rscale>
<asrwt>0</asrwt>
<pdfrwt beam="1">  1        1 0.94447946E-02 0.26962900E+02</pdfrwt>
<pdfrwt beam="2">  1       -1 0.45546393E-03 0.26962900E+02</pdfrwt>
<totfact> 0.21464475E+06</totfact>
</mgrwt>
</event>
<event>
 4    1  0.4244376E-001  0.4486775E+02  0.7818608E-02  0.1475169E+00
         -1   -1    0    0    0  501 -0.00000000000E+00  0.00000000000E+00  0.94515904039E+02  0.94515904155E+02  0.46700000000E-02 0.  1.
          1   -1    0    0  501    0  0.00000000000E+00 -0.00000000000E+00 -0.53248033676E+01  0.53248054155E+01  0.46700000000E-02 0. -1.
        -11    1    1    2    0    0  0.15769601770E+02 -0.12774184626E+02  0.23319519256E+02  0.30913752788E+02  0.51100000000E-03 0. -1.
         11    1    1    2    0    0 -0.15769601770E+02  0.12774184626E+02  0.65871581416E+02  0.68926956783E+02  0.51100000000E-03 0.  1.
<mgrwt>
<rscale>  0 0.44867748E+02</rscale>
<asrwt>0</asrwt>
<pdfrwt beam="2">  1        1 0.81920074E-03 0.44867748E+02</pdfrwt>
<pdfrwt beam="1">  1       -1 0.14540907E-01 0.44867748E+02</pdfrwt>
<totfact> 0.49028405E+05</totfact>
</mgrwt>
</event>
<event>
 4    1  0.4244376E-001  0.2158928E+02  0.7818608E-02  0.1715453E+00
          1   -1    0    0  501    0  0.00000000000E+00  0.00000000000E+00  0.12655852293E+02  0.12655853155E+02  0.46700000000E-02 0. -1.
         -1   -1    0    0    0  501 -0.00000000000E+00 -0.00000000000E+00 -0.92071440842E+01  0.92071452685E+01  0.46700000000E-02 0.  1.
        -11    1    1    2    0    0 -0.83860270906E+01 -0.67968470974E+01  0.17660691342E+01  0.10938079414E+02  0.51100000000E-03 0. -1.
         11    1    1    2    0    0  0.83860270906E+01  0.67968470974E+01  0.16826390747E+01  0.10924919009E+02  0.51100000000E-03 0.  1.
<mgrwt>
<rscale>  0 0.21589282E+02</rscale>
<asrwt>0</asrwt>
<pdfrwt beam="1">  1        1 0.19470544E-02 0.21589282E+02</pdfrwt>
<pdfrwt beam="2">  1       -1 0.14164839E-02 0.21589282E+02</pdfrwt>
<totfact> 0.32756984E+06</totfact>
</mgrwt>
</event>
<event>
 4    1  0.4244376E-001  0.2137463E+02  0.7818608E-02  0.1719297E+00
          1   -1    0    0  501    0  0.00000000000E+00  0.00000000000E+00  0.24545234153E+02  0.24545234598E+02  0.46700000000E-02 0.  1.
         -1   -1    0    0    0  501 -0.00000000000E+00 -0.00000000000E+00 -0.46533958279E+01  0.46533981713E+01  0.46700000000E-02 0. -1.
        -11    1    1    2    0    0 -0.55386797730E+01 -0.86883715798E+01  0.60691629662E+01  0.11958240410E+02  0.51100000000E-03 0. -1.
         11    1    1    2    0    0  0.55386797730E+01  0.86883715798E+01  0.13822675359E+02  0.17240392359E+02  0.51100000000E-03 0.  1.
<mgrwt>
<rscale>  0 0.21374633E+02</rscale>
<asrwt>0</asrwt>
<pdfrwt beam="1">  1        1 0.37761900E-02 0.21374633E+02</pdfrwt>
<pdfrwt beam="2">  1       -1 0.71590727E-03 0.21374633E+02</pdfrwt>
<totfact> 0.34490492E+06</totfact>
</mgrwt>
</event>
<event>
 4    1  0.4244376E-001  0.3791619E+02  0.7818608E-02  0.1524131E+00
          1   -1    0    0  501    0  0.00000000000E+00  0.00000000000E+00  0.23120389828E+02  0.23120390300E+02  0.46700000000E-02 0. -1.
         -1   -1    0    0    0  501 -0.00000000000E+00 -0.00000000000E+00 -0.15545121594E+02  0.15545122296E+02  0.46700000000E-02 0.  1.
        -11    1    1    2    0    0  0.91486822390E+01  0.10759907610E+02  0.16684116905E+02  0.21859408858E+02  0.51100000000E-03 0. -1.
         11    1    1    2    0    0 -0.91486822390E+01 -0.10759907610E+02 -0.91088486708E+01  0.16806103738E+02  0.51100000000E-03 0.  1.
<mgrwt>
<rscale>  0 0.37916186E+02</rscale>
<asrwt>0</asrwt>
<pdfrwt beam="1">  1        1 0.35569831E-02 0.37916186E+02</pdfrwt>
<pdfrwt beam="2">  1       -1 0.23915573E-02 0.37916186E+02</pdfrwt>
<totfact> 0.87929090E+05</totfact>
</mgrwt>
</event>
<event>
 4    1  0.4244376E-001  0.3459792E+02  0.7818608E-02  0.1552200E+00
         -1   -1    0    0    0  501 -0.00000000000E+00  0.00000000000E+00  0.97624694485E+01  0.97624705655E+01  0.46700000000E-02 0. -1.
          1   -1    0    0  501    0  0.00000000000E+00 -0.00000000000E+00 -0.30653505495E+02  0.30653505850E+02  0.46700000000E-02 0.  1.
        -11    1    1    2    0    0  0.13062142540E+02  0.90207784373E+01 -0.18476149066E+02  0.24359024938E+02  0.51100000000E-03 0.  1.
         11    1    1    2    0    0 -0.13062142540E+02 -0.90207784373E+01 -0.24148869797E+01  0.16056951477E+02  0.51100000000E-03 0. -1.
<mgrwt>
<rscale>  0 0.34597916E+02</rscale>
<asrwt>0</asrwt>
<pdfrwt beam="2">  1        1 0.47159240E-02 0.34597916E+02</pdfrwt>
<pdfrwt beam="1">  1       -1 0.15019185E-02 0.34597916E+02</pdfrwt>
<totfact> 0.11237534E+06</totfact>
</mgrwt>
</event>
<event>
 4    1  0.4244376E-001  0.2025454E+02  0.7818608E-02  0.1740313E+00
          1   -1    0    0  501    0  0.00000000000E+00  0.00000000000E+00  0.11986235233E+02  0.11986236143E+02  0.46700000000E-02 0.  1.
         -1   -1    0    0    0  501 -0.00000000000E+00 -0.00000000000E+00 -0.85566160205E+01  0.85566172949E+01  0.46700000000E-02 0. -1.
        -11    1    1    2    0    0  0.64275989279E+01 -0.77166720509E+01  0.39218462896E+00  0.10050615134E+02  0.51100000000E-03 0. -1.
         11    1    1    2    0    0 -0.64275989279E+01  0.77166720509E+01  0.30374345836E+01  0.10492238304E+02  0.51100000000E-03 0.  1.
<mgrwt>
<rscale>  0 0.20254544E+02</rscale>
<asrwt>0</asrwt>
<pdfrwt beam="1">  1        1 0.18440363E-02 0.20254544E+02</pdfrwt>
<pdfrwt beam="2">  1       -1 0.13164026E-02 0.20254544E+02</pdfrwt>
<totfact> 0.37804949E+06</totfact>
</mgrwt>
</event>
<event>
 4    1  0.4244376E-001  0.2664296E+02  0.7818608E-02  0.1638466E+00
         -1   -1    0    0    0  501 -0.00000000000E+00  0.00000000000E+00  0.13065616527E+01  0.13065699986E+01  0.46700000000E-02 0.  1.
          1   -1    0    0  501    0  0.00000000000E+00 -0.00000000000E+00 -0.13582310158E+03  0.13582310166E+03  0.46700000000E-02 0. -1.
        -11    1    1    2    0    0 -0.12806020903E+02  0.35860810635E+01 -0.63246018509E+02  0.64629041508E+02  0.51100000000E-03 0. -1.
         11    1    1    2    0    0  0.12806020903E+02 -0.35860810635E+01 -0.71270521420E+02  0.72500630152E+02  0.51100000000E-03 0.  1.
<mgrwt>
<rscale>  0 0.26642960E+02</rscale>
<asrwt>0</asrwt>
<pdfrwt beam="2">  1        1 0.20895851E-01 0.26642960E+02</pdfrwt>
<pdfrwt beam="1">  1       -1 0.20101024E-03 0.26642960E+02</pdfrwt>
<totfact> 0.24108428E+06</totfact>
</mgrwt>
</event>
<event>
 4    1  0.4244376E-001  0.4998538E+02  0.7818608E-02  0.1445420E+00
         -1   -1    0    0    0  501 -0.00000000000E+00  0.00000000000E+00  0.37729760861E+02  0.37729761150E+02  0.46700000000E-02 0. -1.
          1   -1    0    0  501    0  0.00000000000E+00 -0.00000000000E+00 -0.16555489119E+02  0.16555489777E+02  0.46700000000E-02 0.  1.
        -11    1    1    2    0    0  0.10598692011E+02 -0.22617043092E+02  0.11541205406E+02  0.27514765727E+02  0.51100000000E-03 0.  1.
         11    1    1    2    0    0 -0.10598692011E+02  0.22617043092E+02  0.96330663363E+01  0.26770485200E+02  0.51100000000E-03 0. -1.
<mgrwt>
<rscale>  0 0.49985385E+02</rscale>
<asrwt>0</asrwt>
<pdfrwt beam="2">  1        1 0.25469984E-02 0.49985385E+02</pdfrwt>
<pdfrwt beam="1">  1       -1 0.58045787E-02 0.49985385E+02</pdfrwt>
<totfact> 0.42116485E+05</totfact>
</mgrwt>
</event>
<event>
 4    1  0.4244376E-001  0.3034457E+02  0.7818608E-02  0.1594311E+00
          1   -1    0    0  501    0  0.00000000000E+00  0.00000000000E+00  0.16995842620E+02  0.16995843262E+02  0.46700000000E-02 0. -1.
         -1   -1    0    0    0  501 -0.00000000000E+00 -0.00000000000E+00 -0.13544381836E+02  0.13544382641E+02  0.46700000000E-02 0.  1.
        -11    1    1    2    0    0 -0.12412679347E+02 -0.44336796063E+00 -0.70440650186E+01  0.14279006827E+02  0.51100000000E-03 0. -1.
         11    1    1    2    0    0  0.12412679347E+02  0.44336796063E+00  0.10495525803E+02  0.16261219076E+02  0.51100000000E-03 0.  1.
<mgrwt>
<rscale>  0 0.30344568E+02</rscale>
<asrwt>0</asrwt>
<pdfrwt beam="1">  1        1 0.26147451E-02 0.30344568E+02</pdfrwt>
<pdfrwt beam="2">  1       -1 0.20837512E-02 0.30344568E+02</pdfrwt>
<totfact> 0.14905062E+06</totfact>
</mgrwt>
</event>
<event>
 4    1  0.4244376E-001  0.2356593E+02  0.7818608E-02  0.1682497E+00
         -1   -1    0    0    0  501 -0.00000000000E+00  0.00000000000E+00  0.14795375368E+02  0.14795376105E+02  0.46700000000E-02 0.  1.
          1   -1    0    0  501    0  0.00000000000E+00 -0.00000000000E+00 -0.93838932894E+01  0.93838944514E+01  0.46700000000E-02 0. -1.
        -11    1    1    2    0    0 -0.69717254244E+00  0.11407202017E+02  0.56488352788E+01  0.12748319406E+02  0.51100000000E-03 0.  1.
         11    1    1    2    0    0  0.69717254244E+00 -0.11407202017E+02 -0.23735320063E+00  0.11430951150E+02  0.51100000000E-03 0. -1.
<mgrwt>
<rscale>  0 0.23565929E+02</rscale>
<asrwt>0</asrwt>
<pdfrwt beam="2">  1        1 0.14436760E-02 0.23565929E+02</pdfrwt>
<pdfrwt beam="1">  1       -1 0.22762117E-02 0.23565929E+02</pdfrwt>
<totfact> 0.26381989E+06</totfact>
</mgrwt>
</event>
<event>
 4    1  0.4244376E-001  0.5944167E+02  0.7818608E-02  0.1400190E+00
          1   -1    0    0  501    0  0.00000000000E+00  0.00000000000E+00  0.86669423095E+01  0.86669435677E+01  0.46700000000E-02 0. -1.
         -1   -1    0    0    0  501 -0.00000000000E+00 -0.00000000000E+00 -0.10191921964E+03  0.10191921974E+03  0.46700000000E-02 0.  1.
        -11    1    1    2    0    0  0.28876812652E+02 -0.19983545662E+01 -0.34081873242E+02  0.44715073676E+02  0.51100000000E-03 0. -1.
         11    1    1    2    0    0 -0.28876812652E+02  0.19983545662E+01 -0.59170404084E+02  0.65871089634E+02  0.51100000000E-03 0.  1.
<mgrwt>
<rscale>  0 0.59441671E+02</rscale>
<asrwt>0</asrwt>
<pdfrwt beam="1">  1        1 0.13333759E-02 0.59441671E+02</pdfrwt>
<pdfrwt beam="2">  1       -1 0.15679879E-01 0.59441671E+02</pdfrwt>
<totfact> 0.24107637E+05</totfact>
</mgrwt>
</event>
<event>
 4    1  0.4244376E-001  0.7915770E+02  0.7818608E-02  0.1331459E+00
          1   -1    0    0  501    0  0.00000000000E+00  0.00000000000E+00  0.96939348357E+02  0.96939348469E+02  0.46700000000E-02 0. -1.
         -1   -1    0    0    0  501 -0.00000000000E+00 -0.00000000000E+00 -0.16159438848E+02  0.16159439523E+02  0.46700000000E-02 0.  1.
        -11    1    1    2    0    0 -0.18611671155E+01 -0.18354822504E+02 -0.96401736050E+01  0.20815772856E+02  0.51100000000E-03 0.  1.
         11    1    1    2    0    0  0.18611671155E+01  0.18354822504E+02  0.90420083113E+02  0.92283015136E+02  0.51100000000E-03 0. -1.
<mgrwt>
<rscale>  0 0.79157704E+02</rscale>
<asrwt>0</asrwt>
<pdfrwt beam="1">  1        1 0.14913746E-01 0.79157704E+02</pdfrwt>
<pdfrwt beam="2">  1       -1 0.24860676E-02 0.79157704E+02</pdfrwt>
<totfact> 0.15225318E+05</totfact>
</mgrwt>
</event>
<event>
 4    1  0.4244376E-001  0.2187713E+02  0.7818608E-02  0.1710386E+00
         -1   -1    0    0    0  501 -0.00000000000E+00  0.00000000000E+00  0.30656833696E+01  0.30656869266E+01  0.46700000000E-02 0. -1.
          1   -1    0    0  501    0  0.00000000000E+00 -0.00000000000E+00 -0.39029523714E+02  0.39029523993E+02  0.46700000000E-02 0.  1.
        -11    1    1    2    0    0 -0.10883486249E+02 -0.10757090545E+01 -0.17574563257E+02  0.20699582045E+02  0.51100000000E-03 0. -1.
         11    1    1    2    0    0  0.10883486249E+02  0.10757090545E+01 -0.18389277087E+02  0.21395628875E+02  0.51100000000E-03 0.  1.
<mgrwt>
<rscale>  0 0.21877133E+02</rscale>
<asrwt>0</asrwt>
<pdfrwt beam="2">  1        1 0.60045420E-02 0.21877133E+02</pdfrwt>
<pdfrwt beam="1">  1       -1 0.47164392E-03 0.21877133E+02</pdfrwt>
<totfact> 0.33553902E+06</totfact>
</mgrwt>
</event>
<event>
 4    1  0.4244376E-001  0.2888217E+02  0.7818608E-02  0.1610784E+00
          1   -1    0    0  501    0  0.00000000000E+00  0.00000000000E+00  0.29622680978E+01  0.29622717789E+01  0.46700000000E-02 0. -1.
         -1   -1    0    0    0  501 -0.00000000000E+00 -0.00000000000E+00 -0.70400386650E+02  0.70400386805E+02  0.46700000000E-02 0.  1.
        -11    1    1    2    0    0  0.84883444481E+01  0.54824974610E+01 -0.75138377035E+01  0.12592359873E+02  0.51100000000E-03 0. -1.
         11    1    1    2    0    0 -0.84883444481E+01 -0.54824974610E+01 -0.59924280849E+02  0.60770298711E+02  0.51100000000E-03 0.  1.
<mgrwt>
<rscale>  0 0.28882172E+02</rscale>
<asrwt>0</asrwt>
<pdfrwt beam="1">  1        1 0.45573390E-03 0.28882172E+02</pdfrwt>
<pdfrwt beam="2">  1       -1 0.10830828E-01 0.28882172E+02</pdfrwt>
<totfact> 0.14627662E+06</totfact>
</mgrwt>
</event>
<event>
 4    1  0.4244376E-001  0.2139324E+02  0.7818608E-02  0.1718962E+00
          1   -1    0    0  501    0  0.00000000000E+00  0.00000000000E+00  0.94640082953E+02  0.94640083068E+02  0.46700000000E-02 0. -1.
         -1   -1    0    0    0  501 -0.00000000000E+00 -0.00000000000E+00 -0.12089718441E+01  0.12089808637E+01  0.46700000000E-02 0.  1.
        -11    1    1    2    0    0  0.10396177040E+02 -0.18635333123E+01  0.54298304754E+02  0.55315993644E+02  0.51100000000E-03 0. -1.
         11    1    1    2    0    0 -0.10396177040E+02  0.18635333123E+01  0.39132806355E+02  0.40533070287E+02  0.51100000000E-03 0.  1.
<mgrwt>
<rscale>  0 0.21393236E+02</rscale>
<asrwt>0</asrwt>
<pdfrwt beam="1">  1        1 0.14560018E-01 0.21393236E+02</pdfrwt>
<pdfrwt beam="2">  1       -1 0.18599631E-03 0.21393236E+02</pdfrwt>
<totfact> 0.37972685E+06</totfact>
</mgrwt>
</event>
<event>
 4    1  0.4244376E-001  0.2234160E+02  0.7818608E-02  0.1702410E+00
          1   -1    0    0  501    0  0.00000000000E+00  0.00000000000E+00  0.40608690845E+01  0.40608717697E+01  0.46700000000E-02 0.  1.
         -1   -1    0    0    0  501 -0.00000000000E+00 -0.00000000000E+00 -0.30729069346E+02  0.30729069701E+02  0.46700000000E-02 0. -1.
        -11    1    1    2    0    0  0.11000165450E+02 -0.17168753332E+01 -0.11910764545E+02  0.16303914044E+02  0.51100000000E-03 0. -1.
         11    1    1    2    0    0 -0.11000165450E+02  0.17168753332E+01 -0.14757435716E+02  0.18486027427E+02  0.51100000000E-03 0.  1.
<mgrwt>
<rscale>  0 0.22341601E+02</rscale>
<asrwt>0</asrwt>
<pdfrwt beam="1">  1        1 0.62474934E-03 0.22341601E+02</pdfrwt>
<pdfrwt beam="2">  1       -1 0.47275492E-02 0.22341601E+02</pdfrwt>
<totfact> 0.28482607E+06</totfact>
</mgrwt>
</event>
<event>
 4    1  0.4244376E-001  0.3668871E+02  0.7818608E-02  0.1534096E+00
         -1   -1    0    0    0  501 -0.00000000000E+00  0.00000000000E+00  0.18822394044E+02  0.18822394624E+02  0.46700000000E-02 0.  1.
          1   -1    0    0  501    0  0.00000000000E+00 -0.00000000000E+00 -0.17878453183E+02  0.17878453793E+02  0.46700000000E-02 0. -1.
        -11    1    1    2    0    0  0.17334847984E+02 -0.47996464365E+01 -0.31322416877E+01  0.18257724360E+02  0.51100000000E-03 0. -1.
         11    1    1    2    0    0 -0.17334847984E+02  0.47996464365E+01  0.40761825491E+01  0.18443124057E+02  0.51100000000E-03 0.  1.
<mgrwt>
<rscale>  0 0.36688707E+02</rscale>
<asrwt>0</asrwt>
<pdfrwt beam="2">  1        1 0.27505314E-02 0.36688707E+02</pdfrwt>
<pdfrwt beam="1">  1       -1 0.28957530E-02 0.36688707E+02</pdfrwt>
<totfact> 0.93776027E+05</totfact>
</mgrwt>
</event>
<event>
 4    1  0.4244376E-001  0.2757660E+02  0.7818608E-02  0.1626532E+00
          1   -1    0    0  501    0  0.00000000000E+00  0.00000000000E+00  0.31579779519E+01  0.31579814049E+01  0.46700000000E-02 0.  1.
         -1   -1    0    0    0  501 -0.00000000000E+00 -0.00000000000E+00 -0.60202165593E+02  0.60202165774E+02  0.46700000000E-02 0. -1.
        -11    1    1    2    0    0 -0.10034323927E+02  0.94438022309E+01 -0.27386766978E+02  0.30657920070E+02  0.51100000000E-03 0. -1.
         11    1    1    2    0    0  0.10034323927E+02 -0.94438022309E+01 -0.29657420664E+02  0.32702227110E+02  0.51100000000E-03 0.  1.
<mgrwt>
<rscale>  0 0.27576601E+02</rscale>
<asrwt>0</asrwt>
<pdfrwt beam="1">  1        1 0.48584309E-03 0.27576601E+02</pdfrwt>
<pdfrwt beam="2">  1       -1 0.92618710E-02 0.27576601E+02</pdfrwt>
<totfact> 0.16591216E+06</totfact>
</mgrwt>
</event>
<event>
 4    1  0.4244376E-001  0.4403521E+02  0.7818608E-02  0.1480456E+00
         -1   -1    0    0    0  501 -0.00000000000E+00  0.00000000000E+00  0.62120381871E+02  0.62120382046E+02  0.46700000000E-02 0. -1.
          1   -1    0    0  501    0  0.00000000000E+00 -0.00000000000E+00 -0.78037988622E+01  0.78038002595E+01  0.46700000000E-02 0.  1.
        -11    1    1    2    0    0  0.16516781033E+01 -0.12935759675E+02 -0.10115689346E+01  0.13079953780E+02  0.51100000000E-03 0.  1.
         11    1    1    2    0    0 -0.16516781033E+01  0.12935759675E+02  0.55328151943E+02  0.56844228525E+02  0.51100000000E-03 0. -1.
<mgrwt>
<rscale>  0 0.44035214E+02</rscale>
<asrwt>0</asrwt>
<pdfrwt beam="2">  1        1 0.12005846E-02 0.44035214E+02</pdfrwt>
<pdfrwt beam="1">  1       -1 0.95569815E-02 0.44035214E+02</pdfrwt>
<totfact> 0.54395140E+05</totfact>
</mgrwt>
</event>
<event>
 4    1  0.4244376E-001  0.2160065E+02  0.7818608E-02  0.1715252E+00
          1   -1    0    0  501    0  0.00000000000E+00  0.00000000000E+00  0.54156728029E+02  0.54156728230E+02  0.46700000000E-02 0.  1.
         -1   -1    0    0    0  501 -0.00000000000E+00 -0.00000000000E+00 -0.21538749429E+01  0.21538800056E+01  0.46700000000E-02 0. -1.
        -11    1    1    2    0    0 -0.10727124881E+02  0.99109851700E+00  0.28009722077E+02  0.30009965271E+02  0.51100000000E-03 0. -1.
         11    1    1    2    0    0  0.10727124881E+02 -0.99109851700E+00  0.23993131009E+02  0.26300642965E+02  0.51100000000E-03 0.  1.
<mgrwt>
<rscale>  0 0.21600645E+02</rscale>
<asrwt>0</asrwt>
<pdfrwt beam="1">  1        1 0.83318045E-02 0.21600645E+02</pdfrwt>
<pdfrwt beam="2">  1       -1 0.33136579E-03 0.21600645E+02</pdfrwt>
<totfact> 0.35317019E+06</totfact>
</mgrwt>
</event>
<event>
 4    1  0.4244376E-001  0.2171169E+02  0.7818608E-02  0.1713286E+00
         -1   -1    0    0    0  501 -0.00000000000E+00  0.00000000000E+00  0.56238026633E+02  0.56238026827E+02  0.46700000000E-02 0.  1.
          1   -1    0    0  501    0  0.00000000000E+00 -0.00000000000E+00 -0.20955429234E+01  0.20955481270E+01  0.46700000000E-02 0. -1.
        -11    1    1    2    0    0  0.10479684807E+02 -0.22126153748E+01  0.31824483627E+02  0.33578523178E+02  0.51100000000E-03 0. -1.
         11    1    1    2    0    0 -0.10479684807E+02  0.22126153748E+01  0.22318000083E+02  0.24755051776E+02  0.51100000000E-03 0.  1.
<mgrwt>
<rscale>  0 0.21711689E+02</rscale>
<asrwt>0</asrwt>
<pdfrwt beam="2">  1        1 0.32239166E-03 0.21711689E+02</pdfrwt>
<pdfrwt beam="1">  1       -1 0.86520039E-02 0.21711689E+02</pdfrwt>
<totfact> 0.28761381E+06</totfact>
</mgrwt>
</event>
<event>
 4    1  0.4244376E-001  0.5222615E+02  0.7818608E-02  0.1433691E+00
         -1   -1    0    0    0  501 -0.00000000000E+00  0.00000000000E+00  0.10285810915E+02  0.10285811975E+02  0.46700000000E-02 0. -1.
          1   -1    0    0  501    0  0.00000000000E+00 -0.00000000000E+00 -0.66294493368E+02  0.66294493532E+02  0.46700000000E-02 0.  1.
        -11    1    1    2    0    0  0.94238791356E+01  0.14566109843E+02  0.61378509155E+00  0.17359659741E+02  0.51100000000E-03 0. -1.
         11    1    1    2    0    0 -0.94238791356E+01 -0.14566109843E+02 -0.56622467545E+02  0.59220645767E+02  0.51100000000E-03 0.  1.
<mgrwt>
<rscale>  0 0.52226149E+02</rscale>
<asrwt>0</asrwt>
<pdfrwt beam="2">  1        1 0.10199153E-01 0.52226149E+02</pdfrwt>
<pdfrwt beam="1">  1       -1 0.15824326E-02 0.52226149E+02</pdfrwt>
<totfact> 0.42980944E+05</totfact>
</mgrwt>
</event>
<event>
 4    1  0.4244376E-001  0.2551404E+02  0.7818608E-02  0.1653726E+00
         -1   -1    0    0    0  501 -0.00000000000E+00  0.00000000000E+00  0.63518125664E+01  0.63518142831E+01  0.46700000000E-02 0.  1.
          1   -1    0    0  501    0  0.00000000000E+00 -0.00000000000E+00 -0.25621277638E+02  0.25621278064E+02  0.46700000000E-02 0. -1.
        -11    1    1    2    0    0 -0.76152294477E+01  0.69528386196E+01 -0.22287490604E+00  0.10314230844E+02  0.51100000000E-03 0.  1.
         11    1    1    2    0    0  0.76152294477E+01 -0.69528386196E+01 -0.19046590166E+02  0.21658861503E+02  0.51100000000E-03 0. -1.
<mgrwt>
<rscale>  0 0.25514042E+02</rscale>
<asrwt>0</asrwt>
<pdfrwt beam="2">  1        1 0.39417351E-02 0.25514042E+02</pdfrwt>
<pdfrwt beam="1">  1       -1 0.97720211E-03 0.25514042E+02</pdfrwt>
<totfact> 0.23005419E+06</totfact>
</mgrwt>
</event>
<event>
 4    1  0.4244376E-001  0.2066088E+02  0.7818608E-02  0.1732496E+00
         -1   -1    0    0    0  501 -0.00000000000E+00  0.00000000000E+00  0.57125592913E+01  0.57125612002E+01  0.46700000000E-02 0. -1.
          1   -1    0    0  501    0  0.00000000000E+00 -0.00000000000E+00 -0.18681283263E+02  0.18681283846E+02  0.46700000000E-02 0.  1.
        -11    1    1    2    0    0 -0.81275375228E+01 -0.63747570019E+01 -0.63030773451E+01  0.12100544504E+02  0.51100000000E-03 0. -1.
         11    1    1    2    0    0  0.81275375228E+01  0.63747570019E+01 -0.66656466263E+01  0.12293300542E+02  0.51100000000E-03 0.  1.
<mgrwt>
<rscale>  0 0.20660878E+02</rscale>
<asrwt>0</asrwt>
<pdfrwt beam="2">  1        1 0.28740437E-02 0.20660878E+02</pdfrwt>
<pdfrwt beam="1">  1       -1 0.87885548E-03 0.20660878E+02</pdfrwt>
<totfact> 0.36795609E+06</totfact>
</mgrwt>
</event>
<event>
 4    1  0.4244376E-001  0.5038715E+02  0.7818608E-02  0.1443264E+00
         -1   -1    0    0    0  501 -0.00000000000E+00  0.00000000000E+00  0.90085966652E+02  0.90085966773E+02  0.46700000000E-02 0.  1.
          1   -1    0    0  501    0  0.00000000000E+00 -0.00000000000E+00 -0.70456714911E+01  0.70456730388E+01  0.46700000000E-02 0. -1.
        -11    1    1    2    0    0 -0.13016029364E+02 -0.15321465773E+02  0.12249976621E+02  0.23542010562E+02  0.51100000000E-03 0. -1.
         11    1    1    2    0    0  0.13016029364E+02  0.15321465773E+02  0.70790318540E+02  0.73589629250E+02  0.51100000000E-03 0.  1.
<mgrwt>
<rscale>  0 0.50387149E+02</rscale>
<asrwt>0</asrwt>
<pdfrwt beam="2">  1        1 0.10839496E-02 0.50387149E+02</pdfrwt>
<pdfrwt beam="1">  1       -1 0.13859379E-01 0.50387149E+02</pdfrwt>
<totfact> 0.37134691E+05</totfact>
</mgrwt>
</event>
<event>
 4    1  0.4244376E-001  0.2937832E+02  0.7818608E-02  0.1605064E+00
         -1   -1    0    0    0  501 -0.00000000000E+00  0.00000000000E+00  0.39970822615E+01  0.39970849896E+01  0.46700000000E-02 0. -1.
          1   -1    0    0  501    0  0.00000000000E+00 -0.00000000000E+00 -0.53982213650E+02  0.53982213852E+02  0.46700000000E-02 0.  1.
        -11    1    1    2    0    0  0.10955972347E+02 -0.92516537166E-01 -0.44301974836E+02  0.45636683315E+02  0.51100000000E-03 0.  1.
         11    1    1    2    0    0 -0.10955972347E+02  0.92516537166E-01 -0.56831565520E+01  0.12342615526E+02  0.51100000000E-03 0. -1.
<mgrwt>
<rscale>  0 0.29378321E+02</rscale>
<asrwt>0</asrwt>
<pdfrwt beam="2">  1        1 0.83049557E-02 0.29378321E+02</pdfrwt>
<pdfrwt beam="1">  1       -1 0.61493600E-03 0.29378321E+02</pdfrwt>
<totfact> 0.17358767E+06</totfact>
</mgrwt>
</event>
<event>
 4    1  0.4244376E-001  0.2571681E+02  0.7818608E-02  0.1650915E+00
         -1   -1    0    0    0  501 -0.00000000000E+00  0.00000000000E+00  0.96048375568E+01  0.96048386922E+01  0.46700000000E-02 0.  1.
          1   -1    0    0  501    0  0.00000000000E+00 -0.00000000000E+00 -0.17214085219E+02  0.17214085853E+02  0.46700000000E-02 0. -1.
        -11    1    1    2    0    0  0.16271527435E+01  0.10256716929E+02  0.41025801976E+01  0.11165976570E+02  0.51100000000E-03 0.  1.
         11    1    1    2    0    0 -0.16271527435E+01 -0.10256716929E+02 -0.11711827860E+02  0.15652947975E+02  0.51100000000E-03 0. -1.
<mgrwt>
<rscale>  0 0.25716805E+02</rscale>
<asrwt>0</asrwt>
<pdfrwt beam="2">  1        1 0.26483209E-02 0.25716805E+02</pdfrwt>
<pdfrwt beam="1">  1       -1 0.14776675E-02 0.25716805E+02</pdfrwt>
<totfact> 0.22131065E+06</totfact>
</mgrwt>
</event>
<event>
 4    1  0.4244376E-001  0.3476466E+02  0.7818608E-02  0.1550700E+00
          1   -1    0    0  501    0  0.00000000000E+00  0.00000000000E+00  0.98291359943E+01  0.98291371037E+01  0.46700000000E-02 0.  1.
         -1   -1    0    0    0  501 -0.00000000000E+00 -0.00000000000E+00 -0.30739767552E+02  0.30739767907E+02  0.46700000000E-02 0. -1.
        -11    1    1    2    0    0 -0.11520986585E+02  0.13011435789E+02 -0.10059939078E+02  0.20080661535E+02  0.51100000000E-03 0.  1.
         11    1    1    2    0    0  0.11520986585E+02 -0.13011435789E+02 -0.10850692480E+02  0.20488243476E+02  0.51100000000E-03 0. -1.
<mgrwt>
<rscale>  0 0.34764659E+02</rscale>
<asrwt>0</asrwt>
<pdfrwt beam="1">  1        1 0.15121749E-02 0.34764659E+02</pdfrwt>
<pdfrwt beam="2">  1       -1 0.47291951E-02 0.34764659E+02</pdfrwt>
<totfact> 0.10278905E+06</totfact>
</mgrwt>
</event>
<event>
 4    1  0.4244376E-001  0.3252954E+02  0.7818608E-02  0.1571701E+00
         -1   -1    0    0    0  501 -0.00000000000E+00  0.00000000000E+00  0.14734074273E+02  0.14734075013E+02  0.46700000000E-02 0. -1.
          1   -1    0    0  501    0  0.00000000000E+00 -0.00000000000E+00 -0.17954490784E+02  0.17954491391E+02  0.46700000000E-02 0.  1.
        -11    1    1    2    0    0  0.22254860083E+01 -0.14526962511E+02  0.53921701446E+01  0.15654421960E+02  0.51100000000E-03 0. -1.
         11    1    1    2    0    0 -0.22254860083E+01  0.14526962511E+02 -0.86125866557E+01  0.17034144444E+02  0.51100000000E-03 0.  1.
<mgrwt>
<rscale>  0 0.32529545E+02</rscale>
<asrwt>0</asrwt>
<pdfrwt beam="2">  1        1 0.27622295E-02 0.32529545E+02</pdfrwt>
<pdfrwt beam="1">  1       -1 0.22667808E-02 0.32529545E+02</pdfrwt>
<totfact> 0.12625885E+06</totfact>
</mgrwt>
</event>
<event>
 4    1  0.4244376E-001  0.2688240E+02  0.7818608E-02  0.1635349E+00
          1   -1    0    0  501    0  0.00000000000E+00  0.00000000000E+00  0.61986498355E+01  0.61986515946E+01  0.46700000000E-02 0.  1.
         -1   -1    0    0    0  501 -0.00000000000E+00 -0.00000000000E+00 -0.29145987003E+02  0.29145987377E+02  0.46700000000E-02 0. -1.
        -11    1    1    2    0    0 -0.10521405161E+02 -0.51643155645E+01 -0.28224383068E+01  0.12055549762E+02  0.51100000000E-03 0.  1.
         11    1    1    2    0    0  0.10521405161E+02  0.51643155645E+01 -0.20124898861E+02  0.23289089210E+02  0.51100000000E-03 0. -1.
<mgrwt>
<rscale>  0 0.26882396E+02</rscale>
<asrwt>0</asrwt>
<pdfrwt beam="1">  1        1 0.95363862E-03 0.26882396E+02</pdfrwt>
<pdfrwt beam="2">  1       -1 0.44839981E-02 0.26882396E+02</pdfrwt>
<totfact> 0.18792615E+06</totfact>
</mgrwt>
</event>
<event>
 4    1  0.4244376E-001  0.3632989E+02  0.7818608E-02  0.1537098E+00
         -1   -1    0    0    0  501 -0.00000000000E+00  0.00000000000E+00  0.35739250553E+02  0.35739250858E+02  0.46700000000E-02 0.  1.
          1   -1    0    0  501    0  0.00000000000E+00 -0.00000000000E+00 -0.92325737878E+01  0.92325749689E+01  0.46700000000E-02 0. -1.
        -11    1    1    2    0    0  0.16495739422E+02  0.21885899959E+01  0.42358750829E+01  0.17170963375E+02  0.51100000000E-03 0. -1.
         11    1    1    2    0    0 -0.16495739422E+02 -0.21885899959E+01  0.22270801682E+02  0.27800862452E+02  0.51100000000E-03 0.  1.
<mgrwt>
<rscale>  0 0.36329894E+02</rscale>
<asrwt>0</asrwt>
<pdfrwt beam="2">  1        1 0.14203961E-02 0.36329894E+02</pdfrwt>
<pdfrwt beam="1">  1       -1 0.54983464E-02 0.36329894E+02</pdfrwt>
<totfact> 0.91456106E+05</totfact>
</mgrwt>
</event>
<event>
 4    1  0.4244376E-001  0.3072570E+02  0.7818608E-02  0.1590203E+00
         -1   -1    0    0    0  501 -0.00000000000E+00  0.00000000000E+00  0.10867599653E+03  0.10867599663E+03  0.46700000000E-02 0.  1.
          1   -1    0    0  501    0  0.00000000000E+00 -0.00000000000E+00 -0.21717473983E+01  0.21717524193E+01  0.46700000000E-02 0. -1.
        -11    1    1    2    0    0 -0.13784700640E+02  0.47168336535E+01  0.35670358865E+02  0.38531039348E+02  0.51100000000E-03 0. -1.
         11    1    1    2    0    0  0.13784700640E+02 -0.47168336535E+01  0.70833890270E+02  0.72316709704E+02  0.51100000000E-03 0.  1.
<mgrwt>
<rscale>  0 0.30725696E+02</rscale>
<asrwt>0</asrwt>
<pdfrwt beam="2">  1        1 0.33411531E-03 0.30725696E+02</pdfrwt>
<pdfrwt beam="1">  1       -1 0.16719388E-01 0.30725696E+02</pdfrwt>
<totfact> 0.11866044E+06</totfact>
</mgrwt>
</event>
<event>
 4    1  0.4244376E-001  0.2129760E+02  0.7818608E-02  0.1720691E+00
         -1   -1    0    0    0  501 -0.00000000000E+00  0.00000000000E+00  0.78162155476E+01  0.78162169427E+01  0.46700000000E-02 0.  1.
          1   -1    0    0  501    0  0.00000000000E+00 -0.00000000000E+00 -0.14507904243E+02  0.14507904994E+02  0.46700000000E-02 0. -1.
        -11    1    1    2    0    0  0.10113021334E+02 -0.33202729371E+01 -0.36765133654E+01  0.11261179497E+02  0.51100000000E-03 0. -1.
         11    1    1    2    0    0 -0.10113021334E+02  0.33202729371E+01 -0.30151753296E+01  0.11062942439E+02  0.51100000000E-03 0.  1.
<mgrwt>
<rscale>  0 0.21297599E+02</rscale>
<asrwt>0</asrwt>
<pdfrwt beam="2">  1        1 0.22319854E-02 0.21297599E+02</pdfrwt>
<pdfrwt beam="1">  1       -1 0.12024949E-02 0.21297599E+02</pdfrwt>
<totfact> 0.33984513E+06</totfact>
</mgrwt>
</event>
<event>
 4    1  0.4244376E-001  0.5618104E+02  0.7818608E-02  0.1414595E+00
          1   -1    0    0  501    0  0.00000000000E+00  0.00000000000E+00  0.89129445083E+01  0.89129457318E+01  0.46700000000E-02 0. -1.
         -1   -1    0    0    0  501 -0.00000000000E+00 -0.00000000000E+00 -0.88531596240E+02  0.88531596363E+02  0.46700000000E-02 0.  1.
        -11    1    1    2    0    0 -0.21256688337E+02 -0.33588157320E+01 -0.84950431330E+01  0.23136425832E+02  0.51100000000E-03 0. -1.
         11    1    1    2    0    0  0.21256688337E+02  0.33588157320E+01 -0.71123608598E+02  0.74308116263E+02  0.51100000000E-03 0.  1.
<mgrwt>
<rscale>  0 0.56181038E+02</rscale>
<asrwt>0</asrwt>
<pdfrwt beam="1">  1        1 0.13712224E-02 0.56181038E+02</pdfrwt>
<pdfrwt beam="2">  1       -1 0.13620245E-01 0.56181038E+02</pdfrwt>
<totfact> 0.28409436E+05</totfact>
</mgrwt>
</event>
<event>
 4    1  0.4244376E-001  0.2661929E+02  0.7818608E-02  0.1638777E+00
          1   -1    0    0  501    0  0.00000000000E+00  0.00000000000E+00  0.12845209232E+02  0.12845210081E+02  0.46700000000E-02 0.  1.
         -1   -1    0    0    0  501 -0.00000000000E+00 -0.00000000000E+00 -0.13790871965E+02  0.13790872756E+02  0.46700000000E-02 0. -1.
        -11    1    1    2    0    0  0.17749854331E+01  0.13142007924E+02 -0.16065562018E+01  0.13358292131E+02  0.51100000000E-03 0.  1.
         11    1    1    2    0    0 -0.17749854331E+01 -0.13142007924E+02  0.66089346843E+00  0.13277790705E+02  0.51100000000E-03 0. -1.
<mgrwt>
<rscale>  0 0.26619291E+02</rscale>
<asrwt>0</asrwt>
<pdfrwt beam="1">  1        1 0.19761862E-02 0.26619291E+02</pdfrwt>
<pdfrwt beam="2">  1       -1 0.21216727E-02 0.26619291E+02</pdfrwt>
<totfact> 0.20099558E+06</totfact>
</mgrwt>
</event>
<event>
 4    1  0.4244376E-001  0.4296867E+02  0.7818608E-02  0.1487436E+00
         -1   -1    0    0    0  501 -0.00000000000E+00  0.00000000000E+00  0.25223630130E+02  0.25223630562E+02  0.46700000000E-02 0.  1.
          1   -1    0    0  501    0  0.00000000000E+00 -0.00000000000E+00 -0.18299374727E+02  0.18299375322E+02  0.46700000000E-02 0. -1.
        -11    1    1    2    0    0 -0.10877969813E+02  0.15420645022E+02 -0.69392431420E+01  0.20106705743E+02  0.51100000000E-03 0. -1.
         11    1    1    2    0    0  0.10877969813E+02 -0.15420645022E+02  0.13863498546E+02  0.23416300142E+02  0.51100000000E-03 0.  1.
<mgrwt>
<rscale>  0 0.42968671E+02</rscale>
<asrwt>0</asrwt>
<pdfrwt beam="2">  1        1 0.28152885E-02 0.42968671E+02</pdfrwt>
<pdfrwt beam="1">  1       -1 0.38805585E-02 0.42968671E+02</pdfrwt>
<totfact> 0.62998334E+05</totfact>
</mgrwt>
</event>
<event>
 4    1  0.4244376E-001  0.3717262E+02  0.7818608E-02  0.1530112E+00
          1   -1    0    0  501    0  0.00000000000E+00  0.00000000000E+00  0.44451834819E+01  0.44451859350E+01  0.46700000000E-02 0.  1.
         -1   -1    0    0    0  501 -0.00000000000E+00 -0.00000000000E+00 -0.77713518830E+02  0.77713518970E+02  0.46700000000E-02 0. -1.
        -11    1    1    2    0    0 -0.12898632468E+02 -0.88303639076E+00 -0.71219545671E+01  0.14760647341E+02  0.51100000000E-03 0.  1.
         11    1    1    2    0    0  0.12898632468E+02  0.88303639076E+00 -0.66146380781E+02  0.67398057565E+02  0.51100000000E-03 0. -1.
<mgrwt>
<rscale>  0 0.37172622E+02</rscale>
<asrwt>0</asrwt>
<pdfrwt beam="1">  1        1 0.68387464E-03 0.37172622E+02</pdfrwt>
<pdfrwt beam="2">  1       -1 0.11955925E-01 0.37172622E+02</pdfrwt>
<totfact> 0.79589801E+05</totfact>
</mgrwt>
</event>
<event>
 4    1  0.4244376E-001  0.2153433E+02  0.7818608E-02  0.1716432E+00
         -1   -1    0    0    0  501 -0.00000000000E+00  0.00000000000E+00  0.70218961683E+01  0.70218977212E+01  0.46700000000E-02 0.  1.
          1   -1    0    0  501    0  0.00000000000E+00 -0.00000000000E+00 -0.16510046747E+02  0.16510047408E+02  0.46700000000E-02 0. -1.
        -11    1    1    2    0    0 -0.13739021034E+01  0.99765505674E+01 -0.58113279145E+00  0.10087461712E+02  0.51100000000E-03 0.  1.
         11    1    1    2    0    0  0.13739021034E+01 -0.99765505674E+01 -0.89070177877E+01  0.13444483417E+02  0.51100000000E-03 0. -1.
<mgrwt>
<rscale>  0 0.21534332E+02</rscale>
<asrwt>0</asrwt>
<pdfrwt beam="2">  1        1 0.25400074E-02 0.21534332E+02</pdfrwt>
<pdfrwt beam="1">  1       -1 0.10802919E-02 0.21534332E+02</pdfrwt>
<totfact> 0.33317922E+06</totfact>
</mgrwt>
</event>
<event>
 4    1  0.4244376E-001  0.3165720E+02  0.7818608E-02  0.1580461E+00
         -1   -1    0    0    0  501 -0.00000000000E+00  0.00000000000E+00  0.10585101798E+03  0.10585101808E+03  0.46700000000E-02 0.  1.
          1   -1    0    0  501    0  0.00000000000E+00 -0.00000000000E+00 -0.23669517042E+01  0.23669563111E+01  0.46700000000E-02 0. -1.
        -11    1    1    2    0    0  0.15821590032E+02 -0.45840518719E+00  0.51372976780E+02  0.53756074912E+02  0.51100000000E-03 0. -1.
         11    1    1    2    0    0 -0.15821590032E+02  0.45840518719E+00  0.52111089494E+02  0.54461899480E+02  0.51100000000E-03 0.  1.
<mgrwt>
<rscale>  0 0.31657195E+02</rscale>
<asrwt>0</asrwt>
<pdfrwt beam="2">  1        1 0.36414678E-03 0.31657195E+02</pdfrwt>
<pdfrwt beam="1">  1       -1 0.16284772E-01 0.31657195E+02</pdfrwt>
<totfact> 0.11113589E+06</totfact>
</mgrwt>
</event>
<event>
 4    1  0.4244376E-001  0.6607497E+02  0.7818608E-02  0.1373973E+00
          1   -1    0    0  501    0  0.00000000000E+00  0.00000000000E+00  0.27608753936E+02  0.27608754330E+02  0.46700000000E-02 0. -1.
         -1   -1    0    0    0  501 -0.00000000000E+00 -0.00000000000E+00 -0.39533666796E+02  0.39533667072E+02  0.46700000000E-02 0.  1.
        -11    1    1    2    0    0  0.14026269824E+02 -0.20379291452E+02  0.16287016261E+02  0.29619565564E+02  0.51100000000E-03 0. -1.
         11    1    1    2    0    0 -0.14026269824E+02  0.20379291452E+02 -0.28211929121E+02  0.37522855838E+02  0.51100000000E-03 0.  1.
<mgrwt>
<rscale>  0 0.66074967E+02</rscale>
<asrwt>0</asrwt>
<pdfrwt beam="1">  1        1 0.42475006E-02 0.66074967E+02</pdfrwt>
<pdfrwt beam="2">  1       -1 0.60821026E-02 0.66074967E+02</pdfrwt>
<totfact> 0.21055513E+05</totfact>
</mgrwt>
</event>
<event>
 4    1  0.4244376E-001  0.3406779E+02  0.7818608E-02  0.1557038E+00
         -1   -1    0    0    0  501 -0.00000000000E+00  0.00000000000E+00  0.62676319918E+02  0.62676320092E+02  0.46700000000E-02 0.  1.
          1   -1    0    0  501    0  0.00000000000E+00 -0.00000000000E+00 -0.46293964987E+01  0.46293988542E+01  0.46700000000E-02 0. -1.
        -11    1    1    2    0    0 -0.15068459214E+02 -0.78529629111E+01  0.31382786467E+02  0.35687627776E+02  0.51100000000E-03 0. -1.
         11    1    1    2    0    0  0.15068459214E+02  0.78529629111E+01  0.26664136952E+02  0.31618091170E+02  0.51100000000E-03 0.  1.
<mgrwt>
<rscale>  0 0.34067792E+02</rscale>
<asrwt>0</asrwt>
<pdfrwt beam="2">  1        1 0.71221513E-03 0.34067792E+02</pdfrwt>
<pdfrwt beam="1">  1       -1 0.96425097E-02 0.34067792E+02</pdfrwt>
<totfact> 0.10070518E+06</totfact>
</mgrwt>
</event>
<event>
 4    1  0.4244376E-001  0.3408505E+02  0.7818608E-02  0.1556879E+00
          1   -1    0    0  501    0  0.00000000000E+00  0.00000000000E+00  0.92790022625E+02  0.92790022743E+02  0.46700000000E-02 0.  1.
         -1   -1    0    0    0  501 -0.00000000000E+00 -0.00000000000E+00 -0.31301592655E+01  0.31301627491E+01  0.46700000000E-02 0. -1.
        -11    1    1    2    0    0 -0.12443636679E+02 -0.11245459083E+02  0.53339293355E+02  0.55914082838E+02  0.51100000000E-03 0. -1.
         11    1    1    2    0    0  0.12443636679E+02  0.11245459083E+02  0.36320570005E+02  0.40006102654E+02  0.51100000000E-03 0.  1.
<mgrwt>
<rscale>  0 0.34085054E+02</rscale>
<asrwt>0</asrwt>
<pdfrwt beam="1">  1        1 0.14275386E-01 0.34085054E+02</pdfrwt>
<pdfrwt beam="2">  1       -1 0.48156333E-03 0.34085054E+02</pdfrwt>
<totfact> 0.12857064E+06</totfact>
</mgrwt>
</event>
<event>
 4    1  0.4244376E-001  0.4952663E+02  0.7818608E-02  0.1447912E+00
         -1   -1    0    0    0  501 -0.00000000000E+00  0.00000000000E+00  0.73159432410E+02  0.73159432559E+02  0.46700000000E-02 0.  1.
          1   -1    0    0  501    0  0.00000000000E+00 -0.00000000000E+00 -0.83819904292E+01  0.83819917301E+01  0.46700000000E-02 0. -1.
        -11    1    1    2    0    0  0.98200482783E+01 -0.13028209968E+02  0.17170008181E+01  0.16404746119E+02  0.51100000000E-03 0. -1.
         11    1    1    2    0    0 -0.98200482783E+01  0.13028209968E+02  0.63060441162E+02  0.65136678170E+02  0.51100000000E-03 0.  1.
<mgrwt>
<rscale>  0 0.49526628E+02</rscale>
<asrwt>0</asrwt>
<pdfrwt beam="2">  1        1 0.12895371E-02 0.49526628E+02</pdfrwt>
<pdfrwt beam="1">  1       -1 0.11255297E-01 0.49526628E+02</pdfrwt>
<totfact> 0.39934670E+05</totfact>
</mgrwt>
</event>
<event>
 4    1  0.4244376E-001  0.3529831E+02  0.7818608E-02  0.1545967E+00
          1   -1    0    0  501    0  0.00000000000E+00  0.00000000000E+00  0.36533995989E+01  0.36534025836E+01  0.46700000000E-02 0.  1.
         -1   -1    0    0    0  501 -0.00000000000E+00 -0.00000000000E+00 -0.85261009635E+02  0.85261009762E+02  0.46700000000E-02 0. -1.
        -11    1    1    2    0    0 -0.17458272740E+02  0.49906466155E+00 -0.34405332230E+02  0.38584546631E+02  0.51100000000E-03 0.  1.
         11    1    1    2    0    0  0.17458272740E+02 -0.49906466155E+00 -0.47202277806E+02  0.50329865715E+02  0.51100000000E-03 0. -1.
<mgrwt>
<rscale>  0 0.35298310E+02</rscale>
<asrwt>0</asrwt>
<pdfrwt beam="1">  1        1 0.56206178E-03 0.35298310E+02</pdfrwt>
<pdfrwt beam="2">  1       -1 0.13117077E-01 0.35298310E+02</pdfrwt>
<totfact> 0.88892594E+05</totfact>
</mgrwt>
</event>
<event>
 4    1  0.4244376E-001  0.3875420E+02  0.7818608E-02  0.1517585E+00
          1   -1    0    0  501    0  0.00000000000E+00  0.00000000000E+00  0.59858194728E+01  0.59858212945E+01  0.46700000000E-02 0. -1.
         -1   -1    0    0    0  501 -0.00000000000E+00 -0.00000000000E+00 -0.62726910547E+02  0.62726910720E+02  0.46700000000E-02 0.  1.
        -11    1    1    2    0    0 -0.10914589504E+02  0.69643926178E+01 -0.28091807138E+01  0.13248491428E+02  0.51100000000E-03 0. -1.
         11    1    1    2    0    0  0.10914589504E+02 -0.69643926178E+01 -0.53931910360E+02  0.55464240587E+02  0.51100000000E-03 0.  1.
<mgrwt>
<rscale>  0 0.38754201E+02</rscale>
<asrwt>0</asrwt>
<pdfrwt beam="1">  1        1 0.92089550E-03 0.38754201E+02</pdfrwt>
<pdfrwt beam="2">  1       -1 0.96502936E-02 0.38754201E+02</pdfrwt>
<totfact> 0.74016031E+05</totfact>
</mgrwt>
</event>
<event>
 4    1  0.4244376E-001  0.2669829E+02  0.7818608E-02  0.1637742E+00
          1   -1    0    0  501    0  0.00000000000E+00  0.00000000000E+00  0.37007639086E+01  0.37007668552E+01  0.46700000000E-02 0.  1.
         -1   -1    0    0    0  501 -0.00000000000E+00 -0.00000000000E+00 -0.48152124169E+02  0.48152124395E+02  0.46700000000E-02 0. -1.
        -11    1    1    2    0    0 -0.37950332266E+00  0.10530296155E+02 -0.63082664897E+01  0.12281098740E+02  0.51100000000E-03 0.  1.
         11    1    1    2    0    0  0.37950332266E+00 -0.10530296155E+02 -0.38143093770E+02  0.39571792511E+02  0.51100000000E-03 0. -1.
<mgrwt>
<rscale>  0 0.26698294E+02</rscale>
<asrwt>0</asrwt>
<pdfrwt beam="1">  1        1 0.56934857E-03 0.26698294E+02</pdfrwt>
<pdfrwt beam="2">  1       -1 0.74080189E-02 0.26698294E+02</pdfrwt>
<totfact> 0.18303829E+06</totfact>
</mgrwt>
</event>
<event>
 4    1  0.4244376E-001  0.3722291E+03  0.7818608E-02  0.1053844E+00
          1   -1    0    0  501    0  0.00000000000E+00  0.00000000000E+00  0.11319784158E+03  0.11319784168E+03  0.46700000000E-02 0.  1.
         -1   -1    0    0    0  501 -0.00000000000E+00 -0.00000000000E+00 -0.30600080096E+03  0.30600080099E+03  0.46700000000E-02 0. -1.
        -11    1    1    2    0    0 -0.12625362280E+02  0.14284846364E+03  0.37200009616E+02  0.14815169271E+03  0.51100000000E-03 0.  1.
         11    1    1    2    0    0  0.12625362280E+02 -0.14284846364E+03 -0.23000296899E+03  0.27104694996E+03  0.51100000000E-03 0. -1.
<mgrwt>
<rscale>  0 0.37222912E+03</rscale>
<asrwt>0</asrwt>
<pdfrwt beam="1">  1        1 0.17415053E-01 0.37222912E+03</pdfrwt>
<pdfrwt beam="2">  1       -1 0.47077046E-01 0.37222912E+03</pdfrwt>
<totfact> 0.14116250E+03</totfact>
</mgrwt>
</event>
<event>
 4    1  0.4244376E-001  0.3116248E+02  0.7818608E-02  0.1585583E+00
          1   -1    0    0  501    0  0.00000000000E+00  0.00000000000E+00  0.34392530102E+02  0.34392530419E+02  0.46700000000E-02 0. -1.
         -1   -1    0    0    0  501 -0.00000000000E+00 -0.00000000000E+00 -0.70589438892E+01  0.70589454340E+01  0.46700000000E-02 0.  1.
        -11    1    1    2    0    0  0.14820417068E+02  0.20000567974E+01  0.78489044825E+01  0.16889354372E+02  0.51100000000E-03 0. -1.
         11    1    1    2    0    0 -0.14820417068E+02 -0.20000567974E+01  0.19484681730E+02  0.24562121481E+02  0.51100000000E-03 0.  1.
<mgrwt>
<rscale>  0 0.31162476E+02</rscale>
<asrwt>0</asrwt>
<pdfrwt beam="1">  1        1 0.52911587E-02 0.31162476E+02</pdfrwt>
<pdfrwt beam="2">  1       -1 0.10859915E-02 0.31162476E+02</pdfrwt>
<totfact> 0.14586663E+06</totfact>
</mgrwt>
</event>
<event>
 4    1  0.4244376E-001  0.2819425E+02  0.7818608E-02  0.1618952E+00
         -1   -1    0    0    0  501 -0.00000000000E+00  0.00000000000E+00  0.63710447019E+01  0.63710464135E+01  0.46700000000E-02 0.  1.
          1   -1    0    0  501    0  0.00000000000E+00 -0.00000000000E+00 -0.31192504692E+02  0.31192505042E+02  0.46700000000E-02 0. -1.
        -11    1    1    2    0    0  0.14058292714E+02 -0.42622292707E+00 -0.13682806200E+02  0.19622345573E+02  0.51100000000E-03 0. -1.
         11    1    1    2    0    0 -0.14058292714E+02  0.42622292707E+00 -0.11138653790E+02  0.17941205883E+02  0.51100000000E-03 0.  1.
<mgrwt>
<rscale>  0 0.28194246E+02</rscale>
<asrwt>0</asrwt>
<pdfrwt beam="2">  1        1 0.47988470E-02 0.28194246E+02</pdfrwt>
<pdfrwt beam="1">  1       -1 0.98016090E-03 0.28194246E+02</pdfrwt>
<totfact> 0.18399265E+06</totfact>
</mgrwt>
</event>
<event>
 4    1  0.4244376E-001  0.2747628E+02  0.7818608E-02  0.1627787E+00
          1   -1    0    0  501    0  0.00000000000E+00  0.00000000000E+00  0.80598943457E+02  0.80598943592E+02  0.46700000000E-02 0.  1.
         -1   -1    0    0    0  501 -0.00000000000E+00 -0.00000000000E+00 -0.23416716878E+01  0.23416763445E+01  0.46700000000E-02 0. -1.
        -11    1    1    2    0    0  0.70337293711E+01  0.89549554418E+01  0.15928004899E+02  0.19579732280E+02  0.51100000000E-03 0. -1.
         11    1    1    2    0    0 -0.70337293711E+01 -0.89549554418E+01  0.62329266870E+02  0.63360887656E+02  0.51100000000E-03 0.  1.
<mgrwt>
<rscale>  0 0.27476278E+02</rscale>
<asrwt>0</asrwt>
<pdfrwt beam="1">  1        1 0.12399835E-01 0.27476278E+02</pdfrwt>
<pdfrwt beam="2">  1       -1 0.36025764E-03 0.27476278E+02</pdfrwt>
<totfact> 0.21082791E+06</totfact>
</mgrwt>
</event>
<event>
 4    1  0.4244376E-001  0.3012151E+02  0.7818608E-02  0.1596749E+00
          1   -1    0    0  501    0  0.00000000000E+00  0.00000000000E+00  0.38275592815E+01  0.38275621304E+01  0.46700000000E-02 0.  1.
         -1   -1    0    0    0  501 -0.00000000000E+00 -0.00000000000E+00 -0.59261336029E+02  0.59261336213E+02  0.46700000000E-02 0. -1.
        -11    1    1    2    0    0 -0.13192730983E+02 -0.59504521671E+01 -0.18987569889E+02  0.23874334385E+02  0.51100000000E-03 0. -1.
         11    1    1    2    0    0  0.13192730983E+02  0.59504521671E+01 -0.36446206858E+02  0.39214563958E+02  0.51100000000E-03 0.  1.
<mgrwt>
<rscale>  0 0.30121512E+02</rscale>
<asrwt>0</asrwt>
<pdfrwt beam="1">  1        1 0.58885555E-03 0.30121512E+02</pdfrwt>
<pdfrwt beam="2">  1       -1 0.91171282E-02 0.30121512E+02</pdfrwt>
<totfact> 0.13542188E+06</totfact>
</mgrwt>
</event>
<event>
 4    1  0.4244376E-001  0.2389845E+02  0.7818608E-02  0.1677347E+00
         -1   -1    0    0    0  501 -0.00000000000E+00  0.00000000000E+00  0.37518301082E+02  0.37518301373E+02  0.46700000000E-02 0.  1.
          1   -1    0    0  501    0  0.00000000000E+00 -0.00000000000E+00 -0.38057133891E+01  0.38057162544E+01  0.46700000000E-02 0. -1.
        -11    1    1    2    0    0 -0.62194830247E+01  0.90537746281E+01  0.87217177389E+01  0.14025732234E+02  0.51100000000E-03 0. -1.
         11    1    1    2    0    0  0.62194830247E+01 -0.90537746281E+01  0.24990869954E+02  0.27298285394E+02  0.51100000000E-03 0.  1.
<mgrwt>
<rscale>  0 0.23898449E+02</rscale>
<asrwt>0</asrwt>
<pdfrwt beam="2">  1        1 0.58549463E-03 0.23898449E+02</pdfrwt>
<pdfrwt beam="1">  1       -1 0.57720463E-02 0.23898449E+02</pdfrwt>
<totfact> 0.24102169E+06</totfact>
</mgrwt>
</event>
<event>
 4    1  0.4244376E-001  0.3677348E+02  0.7818608E-02  0.1533393E+00
          1   -1    0    0  501    0  0.00000000000E+00  0.00000000000E+00  0.13042329865E+02  0.13042330701E+02  0.46700000000E-02 0. -1.
         -1   -1    0    0    0  501 -0.00000000000E+00 -0.00000000000E+00 -0.25921142938E+02  0.25921143359E+02  0.46700000000E-02 0.  1.
        -11    1    1    2    0    0 -0.16184262949E+01 -0.16365843158E+02 -0.15151747685E+02  0.22361475446E+02  0.51100000000E-03 0. -1.
         11    1    1    2    0    0  0.16184262949E+01  0.16365843158E+02  0.22729346121E+01  0.16601998614E+02  0.51100000000E-03 0.  1.
<mgrwt>
<rscale>  0 0.36773475E+02</rscale>
<asrwt>0</asrwt>
<pdfrwt beam="1">  1        1 0.20065124E-02 0.36773475E+02</pdfrwt>
<pdfrwt beam="2">  1       -1 0.39878682E-02 0.36773475E+02</pdfrwt>
<totfact> 0.91159438E+05</totfact>
</mgrwt>
</event>
<event>
 4    1  0.4244376E-001  0.3124534E+02  0.7818608E-02  0.1584717E+00
          1   -1    0    0  501    0  0.00000000000E+00  0.00000000000E+00  0.86493950915E+02  0.86493951041E+02  0.46700000000E-02 0.  1.
         -1   -1    0    0    0  501 -0.00000000000E+00 -0.00000000000E+00 -0.28217883424E+01  0.28217922068E+01  0.46700000000E-02 0. -1.
        -11    1    1    2    0    0 -0.76094102704E+01 -0.89946424876E+01  0.71163692644E+02  0.72132363535E+02  0.51100000000E-03 0.  1.
         11    1    1    2    0    0  0.76094102704E+01  0.89946424876E+01  0.12508469929E+02  0.17183379713E+02  0.51100000000E-03 0. -1.
<mgrwt>
<rscale>  0 0.31245339E+02</rscale>
<asrwt>0</asrwt>
<pdfrwt beam="1">  1        1 0.13306760E-01 0.31245339E+02</pdfrwt>
<pdfrwt beam="2">  1       -1 0.43412166E-03 0.31245339E+02</pdfrwt>
<totfact> 0.15698666E+06</totfact>
</mgrwt>
</event>
<event>
 4    1  0.4244376E-001  0.2872766E+02  0.7818608E-02  0.1612594E+00
         -1   -1    0    0    0  501 -0.00000000000E+00  0.00000000000E+00  0.29847898816E+01  0.29847935349E+01  0.46700000000E-02 0.  1.
          1   -1    0    0  501    0  0.00000000000E+00 -0.00000000000E+00 -0.69123611609E+02  0.69123611767E+02  0.46700000000E-02 0. -1.
        -11    1    1    2    0    0  0.30897154780E+01  0.13873663608E+02 -0.27867623676E+02  0.31283051853E+02  0.51100000000E-03 0. -1.
         11    1    1    2    0    0 -0.30897154780E+01 -0.13873663608E+02 -0.38271198051E+02  0.40825353448E+02  0.51100000000E-03 0.  1.
<mgrwt>
<rscale>  0 0.28727659E+02</rscale>
<asrwt>0</asrwt>
<pdfrwt beam="2">  1        1 0.10634401E-01 0.28727659E+02</pdfrwt>
<pdfrwt beam="1">  1       -1 0.45919879E-03 0.28727659E+02</pdfrwt>
<totfact> 0.18707369E+06</totfact>
</mgrwt>
</event>
<event>
 4    1  0.4244376E-001  0.6617934E+02  0.7818608E-02  0.1373589E+00
         -1   -1    0    0    0  501 -0.00000000000E+00  0.00000000000E+00  0.18668152128E+03  0.18668152134E+03  0.46700000000E-02 0.  1.
          1   -1    0    0  501    0  0.00000000000E+00 -0.00000000000E+00 -0.58652079753E+01  0.58652098345E+01  0.46700000000E-02 0. -1.
        -11    1    1    2    0    0 -0.29589945683E+02 -0.14222903719E+02  0.10242896746E+03  0.10756183920E+03  0.51100000000E-03 0. -1.
         11    1    1    2    0    0  0.29589945683E+02  0.14222903719E+02  0.78387345840E+02  0.84984891974E+02  0.51100000000E-03 0.  1.
<mgrwt>
<rscale>  0 0.66179336E+02</rscale>
<asrwt>0</asrwt>
<pdfrwt beam="2">  1        1 0.90233980E-03 0.66179336E+02</pdfrwt>
<pdfrwt beam="1">  1       -1 0.28720235E-01 0.66179336E+02</pdfrwt>
<totfact> 0.16150197E+05</totfact>
</mgrwt>
</event>
<event>
 4    1  0.4244376E-001  0.3360703E+02  0.7818608E-02  0.1561330E+00
         -1   -1    0    0    0  501 -0.00000000000E+00  0.00000000000E+00  0.31742424596E+02  0.31742424940E+02  0.46700000000E-02 0.  1.
          1   -1    0    0  501    0  0.00000000000E+00 -0.00000000000E+00 -0.88952925800E+01  0.88952938058E+01  0.46700000000E-02 0. -1.
        -11    1    1    2    0    0 -0.15745794126E+02  0.58589807080E+01  0.11040231534E+02  0.20103343010E+02  0.51100000000E-03 0. -1.
         11    1    1    2    0    0  0.15745794126E+02 -0.58589807080E+01  0.11806900483E+02  0.20534375736E+02  0.51100000000E-03 0.  1.
<mgrwt>
<rscale>  0 0.33607034E+02</rscale>
<asrwt>0</asrwt>
<pdfrwt beam="2">  1        1 0.13685067E-02 0.33607034E+02</pdfrwt>
<pdfrwt beam="1">  1       -1 0.48834500E-02 0.33607034E+02</pdfrwt>
<totfact> 0.11105813E+06</totfact>
</mgrwt>
</event>
<event>
 4    1  0.4244376E-001  0.2319429E+02  0.7818608E-02  0.1688380E+00
         -1   -1    0    0    0  501 -0.00000000000E+00  0.00000000000E+00  0.94436391241E+01  0.94436402788E+01  0.46700000000E-02 0.  1.
          1   -1    0    0  501    0  0.00000000000E+00 -0.00000000000E+00 -0.14241726237E+02  0.14241727002E+02  0.46700000000E-02 0. -1.
        -11    1    1    2    0    0  0.64871206622E+01 -0.92622859659E+01 -0.50266672249E+01  0.12374977150E+02  0.51100000000E-03 0. -1.
         11    1    1    2    0    0 -0.64871206622E+01  0.92622859659E+01  0.22858011245E+00  0.11310390132E+02  0.51100000000E-03 0.  1.
<mgrwt>
<rscale>  0 0.23194288E+02</rscale>
<asrwt>0</asrwt>
<pdfrwt beam="2">  1        1 0.21910350E-02 0.23194288E+02</pdfrwt>
<pdfrwt beam="1">  1       -1 0.14528677E-02 0.23194288E+02</pdfrwt>
<totfact> 0.27911447E+06</totfact>
</mgrwt>
</event>
<event>
 4    1  0.4244376E-001  0.6061692E+02  0.7818608E-02  0.1395261E+00
          1   -1    0    0  501    0  0.00000000000E+00  0.00000000000E+00  0.25104138033E+02  0.25104138467E+02  0.46700000000E-02 0.  1.
         -1   -1    0    0    0  501 -0.00000000000E+00 -0.00000000000E+00 -0.36591680276E+02  0.36591680574E+02  0.46700000000E-02 0. -1.
        -11    1    1    2    0    0 -0.12618401293E+02 -0.20499038900E+02  0.13000532670E+02  0.27357786770E+02  0.51100000000E-03 0.  1.
         11    1    1    2    0    0  0.12618401293E+02  0.20499038900E+02 -0.24488074913E+02  0.34338032270E+02  0.51100000000E-03 0. -1.
<mgrwt>
<rscale>  0 0.60616916E+02</rscale>
<asrwt>0</asrwt>
<pdfrwt beam="1">  1        1 0.38621751E-02 0.60616916E+02</pdfrwt>
<pdfrwt beam="2">  1       -1 0.56294894E-02 0.60616916E+02</pdfrwt>
<totfact> 0.26296737E+05</totfact>
</mgrwt>
</event>
<event>
 4    1  0.4244376E-001  0.2479486E+02  0.7818608E-02  0.1663966E+00
         -1   -1    0    0    0  501 -0.00000000000E+00  0.00000000000E+00  0.24518628413E+01  0.24518672887E+01  0.46700000000E-02 0.  1.
          1   -1    0    0  501    0  0.00000000000E+00 -0.00000000000E+00 -0.62685445196E+02  0.62685445370E+02  0.46700000000E-02 0. -1.
        -11    1    1    2    0    0  0.61205928638E+01 -0.87165243858E+01 -0.13448623427E+02  0.17155317739E+02  0.51100000000E-03 0.  1.
         11    1    1    2    0    0 -0.61205928638E+01  0.87165243858E+01 -0.46784958927E+02  0.47981994920E+02  0.51100000000E-03 0. -1.
<mgrwt>
<rscale>  0 0.24794859E+02</rscale>
<asrwt>0</asrwt>
<pdfrwt beam="2">  1        1 0.96439138E-02 0.24794859E+02</pdfrwt>
<pdfrwt beam="1">  1       -1 0.37721007E-03 0.24794859E+02</pdfrwt>
<totfact> 0.26112212E+06</totfact>
</mgrwt>
</event>
<event>
 4    1  0.4244376E-001  0.5222679E+02  0.7818608E-02  0.1433688E+00
         -1   -1    0    0    0  501 -0.00000000000E+00  0.00000000000E+00  0.22288398527E+02  0.22288399017E+02  0.46700000000E-02 0. -1.
          1   -1    0    0  501    0  0.00000000000E+00 -0.00000000000E+00 -0.30594807988E+02  0.30594808345E+02  0.46700000000E-02 0.  1.
        -11    1    1    2    0    0 -0.22067791245E+02  0.93456358338E+01 -0.14655693502E+02  0.28091238346E+02  0.51100000000E-03 0.  1.
         11    1    1    2    0    0  0.22067791245E+02 -0.93456358338E+01  0.63492840409E+01  0.24791969015E+02  0.51100000000E-03 0. -1.
<mgrwt>
<rscale>  0 0.52226786E+02</rscale>
<asrwt>0</asrwt>
<pdfrwt beam="2">  1        1 0.47068936E-02 0.52226786E+02</pdfrwt>
<pdfrwt beam="1">  1       -1 0.34289845E-02 0.52226786E+02</pdfrwt>
<totfact> 0.39778863E+05</totfact>
</mgrwt>
</event>
<event>
 4    1  0.4244376E-001  0.6834955E+02  0.7818608E-02  0.1365797E+00
          1   -1    0    0  501    0  0.00000000000E+00  0.00000000000E+00  0.11598944123E+02  0.11598945063E+02  0.46700000000E-02 0. -1.
         -1   -1    0    0    0  501 -0.00000000000E+00 -0.00000000000E+00 -0.10069151694E+03  0.10069151705E+03  0.46700000000E-02 0.  1.
        -11    1    1    2    0    0 -0.28555345216E+02  0.17338706317E+01 -0.13832625600E+02  0.31776651476E+02  0.51100000000E-03 0. -1.
         11    1    1    2    0    0  0.28555345216E+02 -0.17338706317E+01 -0.75259947216E+02  0.80513810635E+02  0.51100000000E-03 0.  1.
<mgrwt>
<rscale>  0 0.68349553E+02</rscale>
<asrwt>0</asrwt>
<pdfrwt beam="1">  1        1 0.17844531E-02 0.68349553E+02</pdfrwt>
<pdfrwt beam="2">  1       -1 0.15491002E-01 0.68349553E+02</pdfrwt>
<totfact> 0.16981397E+05</totfact>
</mgrwt>
</event>
<event>
 4    1  0.4244376E-001  0.3023130E+02  0.7818608E-02  0.1595546E+00
          1   -1    0    0  501    0  0.00000000000E+00  0.00000000000E+00  0.80683667475E+02  0.80683667610E+02  0.46700000000E-02 0.  1.
         -1   -1    0    0    0  501 -0.00000000000E+00 -0.00000000000E+00 -0.28318340695E+01  0.28318379202E+01  0.46700000000E-02 0. -1.
        -11    1    1    2    0    0 -0.81921223724E+01  0.83749205000E+01  0.12539181679E+02  0.17160455698E+02  0.51100000000E-03 0. -1.
         11    1    1    2    0    0  0.81921223724E+01 -0.83749205000E+01  0.65312651727E+02  0.66355049832E+02  0.51100000000E-03 0.  1.
<mgrwt>
<rscale>  0 0.30231303E+02</rscale>
<asrwt>0</asrwt>
<pdfrwt beam="1">  1        1 0.12412873E-01 0.30231303E+02</pdfrwt>
<pdfrwt beam="2">  1       -1 0.43566707E-03 0.30231303E+02</pdfrwt>
<totfact> 0.16847943E+06</totfact>
</mgrwt>
</event>
<event>
 4    1  0.4244376E-001  0.6932371E+02  0.7818608E-02  0.1362408E+00
         -1   -1    0    0    0  501 -0.00000000000E+00  0.00000000000E+00  0.82852800976E+02  0.82852801108E+02  0.46700000000E-02 0.  1.
          1   -1    0    0  501    0  0.00000000000E+00 -0.00000000000E+00 -0.14500948351E+02  0.14500949103E+02  0.46700000000E-02 0. -1.
        -11    1    1    2    0    0 -0.23266049018E+02  0.16404081273E+02  0.64055220324E+01  0.29179335703E+02  0.51100000000E-03 0. -1.
         11    1    1    2    0    0  0.23266049018E+02 -0.16404081273E+02  0.61946330592E+02  0.68174414508E+02  0.51100000000E-03 0.  1.
<mgrwt>
<rscale>  0 0.69323711E+02</rscale>
<asrwt>0</asrwt>
<pdfrwt beam="2">  1        1 0.22309152E-02 0.69323711E+02</pdfrwt>
<pdfrwt beam="1">  1       -1 0.12746585E-01 0.69323711E+02</pdfrwt>
<totfact> 0.16917120E+05</totfact>
</mgrwt>
</event>
<event>
 4    1  0.4244376E-001  0.5226114E+02  0.7818608E-02  0.1433514E+00
         -1   -1    0    0    0  501 -0.00000000000E+00  0.00000000000E+00  0.12034568431E+03  0.12034568440E+03  0.46700000000E-02 0.  1.
          1   -1    0    0  501    0  0.00000000000E+00 -0.00000000000E+00 -0.56737107006E+01  0.56737126225E+01  0.46700000000E-02 0. -1.
        -11    1    1    2    0    0  0.11402155553E+02 -0.19498925327E+02  0.25657409335E+02  0.34183620261E+02  0.51100000000E-03 0. -1.
         11    1    1    2    0    0 -0.11402155553E+02  0.19498925327E+02  0.89014564278E+02  0.91835776765E+02  0.51100000000E-03 0.  1.
<mgrwt>
<rscale>  0 0.52261141E+02</rscale>
<asrwt>0</asrwt>
<pdfrwt beam="2">  1        1 0.87287871E-03 0.52261141E+02</pdfrwt>
<pdfrwt beam="1">  1       -1 0.18514721E-01 0.52261141E+02</pdfrwt>
<totfact> 0.32279280E+05</totfact>
</mgrwt>
</event>
<event>
 4    1  0.4244376E-001  0.2365980E+02  0.7818608E-02  0.1681033E+00
          1   -1    0    0  501    0  0.00000000000E+00  0.00000000000E+00  0.48619334218E+02  0.48619334443E+02  0.46700000000E-02 0.  1.
         -1   -1    0    0    0  501 -0.00000000000E+00 -0.00000000000E+00 -0.28784098860E+01  0.28784136744E+01  0.46700000000E-02 0. -1.
        -11    1    1    2    0    0 -0.74431529903E+01  0.69503132682E+01  0.35973316959E+02  0.37386988569E+02  0.51100000000E-03 0.  1.
         11    1    1    2    0    0  0.74431529903E+01 -0.69503132682E+01  0.97676073736E+01  0.14110759548E+02  0.51100000000E-03 0. -1.
<mgrwt>
<rscale>  0 0.23659795E+02</rscale>
<asrwt>0</asrwt>
<pdfrwt beam="1">  1        1 0.74798976E-02 0.23659795E+02</pdfrwt>
<pdfrwt beam="2">  1       -1 0.44283262E-03 0.23659795E+02</pdfrwt>
<totfact> 0.28492795E+06</totfact>
</mgrwt>
</event>
<event>
 4    1  0.4244376E-001  0.2220248E+02  0.7818608E-02  0.1704774E+00
         -1   -1    0    0    0  501 -0.00000000000E+00  0.00000000000E+00  0.73934380015E+02  0.73934380163E+02  0.46700000000E-02 0. -1.
          1   -1    0    0  501    0  0.00000000000E+00 -0.00000000000E+00 -0.16668468228E+01  0.16668533648E+01  0.46700000000E-02 0.  1.
        -11    1    1    2    0    0  0.37344683298E+01 -0.94945784670E+01  0.21235123169E+02  0.23558941620E+02  0.51100000000E-03 0.  1.
         11    1    1    2    0    0 -0.37344683298E+01  0.94945784670E+01  0.51032410023E+02  0.52042291908E+02  0.51100000000E-03 0. -1.
<mgrwt>
<rscale>  0 0.22202481E+02</rscale>
<asrwt>0</asrwt>
<pdfrwt beam="2">  1        1 0.25643845E-03 0.22202481E+02</pdfrwt>
<pdfrwt beam="1">  1       -1 0.11374522E-01 0.22202481E+02</pdfrwt>
<totfact> 0.26467299E+06</totfact>
</mgrwt>
</event>
<event>
 4    1  0.4244376E-001  0.3689891E+02  0.7818608E-02  0.1532357E+00
          1   -1    0    0  501    0  0.00000000000E+00  0.00000000000E+00  0.34024894809E+02  0.34024895129E+02  0.46700000000E-02 0.  1.
         -1   -1    0    0    0  501 -0.00000000000E+00 -0.00000000000E+00 -0.10003921214E+02  0.10003922304E+02  0.46700000000E-02 0. -1.
        -11    1    1    2    0    0  0.13007228864E+02 -0.98488182953E+01  0.22288550499E+02  0.27621852004E+02  0.51100000000E-03 0. -1.
         11    1    1    2    0    0 -0.13007228864E+02  0.98488182953E+01  0.17324230959E+01  0.16406965429E+02  0.51100000000E-03 0.  1.
<mgrwt>
<rscale>  0 0.36898910E+02</rscale>
<asrwt>0</asrwt>
<pdfrwt beam="1">  1        1 0.52345992E-02 0.36898910E+02</pdfrwt>
<pdfrwt beam="2">  1       -1 0.15390649E-02 0.36898910E+02</pdfrwt>
<totfact> 0.96672446E+05</totfact>
</mgrwt>
</event>
<event>
 4    1  0.4244376E-001  0.2700034E+02  0.7818608E-02  0.1633828E+00
          1   -1    0    0  501    0  0.00000000000E+00  0.00000000000E+00  0.64521434665E+02  0.64521434834E+02  0.46700000000E-02 0.  1.
         -1   -1    0    0    0  501 -0.00000000000E+00 -0.00000000000E+00 -0.28247120281E+01  0.28247158884E+01  0.46700000000E-02 0. -1.
        -11    1    1    2    0    0  0.61069232951E+01  0.11081455487E+02  0.42590373128E+02  0.44430091732E+02  0.51100000000E-03 0.  1.
         11    1    1    2    0    0 -0.61069232951E+01 -0.11081455487E+02  0.19106349508E+02  0.22916058990E+02  0.51100000000E-03 0. -1.
<mgrwt>
<rscale>  0 0.27000341E+02</rscale>
<asrwt>0</asrwt>
<pdfrwt beam="1">  1        1 0.99263752E-02 0.27000341E+02</pdfrwt>
<pdfrwt beam="2">  1       -1 0.43457137E-03 0.27000341E+02</pdfrwt>
<totfact> 0.21490160E+06</totfact>
</mgrwt>
</event>
<event>
 4    1  0.4244376E-001  0.4977609E+02  0.7818608E-02  0.1446553E+00
          1   -1    0    0  501    0  0.00000000000E+00  0.00000000000E+00  0.92376342588E+01  0.92376354392E+01  0.46700000000E-02 0.  1.
         -1   -1    0    0    0  501 -0.00000000000E+00 -0.00000000000E+00 -0.67053390388E+02  0.67053390550E+02  0.46700000000E-02 0. -1.
        -11    1    1    2    0    0 -0.14270762354E+02  0.19295766909E+01  0.22036042812E+01  0.14568246170E+02  0.51100000000E-03 0.  1.
         11    1    1    2    0    0  0.14270762354E+02 -0.19295766909E+01 -0.60019360410E+02  0.61722779820E+02  0.51100000000E-03 0. -1.
<mgrwt>
<rscale>  0 0.49776089E+02</rscale>
<asrwt>0</asrwt>
<pdfrwt beam="1">  1        1 0.14211746E-02 0.49776089E+02</pdfrwt>
<pdfrwt beam="2">  1       -1 0.10315906E-01 0.49776089E+02</pdfrwt>
<totfact> 0.39901036E+05</totfact>
</mgrwt>
</event>
<event>
 4    1  0.4244376E-001  0.5115599E+02  0.7818608E-02  0.1439204E+00
          1   -1    0    0  501    0  0.00000000000E+00  0.00000000000E+00  0.47284035910E+02  0.47284036140E+02  0.46700000000E-02 0.  1.
         -1   -1    0    0    0  501 -0.00000000000E+00 -0.00000000000E+00 -0.13836249699E+02  0.13836250487E+02  0.46700000000E-02 0. -1.
        -11    1    1    2    0    0 -0.12903223970E+02  0.21723775667E+02  0.21475785805E+02  0.33160593997E+02  0.51100000000E-03 0.  1.
         11    1    1    2    0    0  0.12903223970E+02 -0.21723775667E+02  0.11972000406E+02  0.27959692631E+02  0.51100000000E-03 0. -1.
<mgrwt>
<rscale>  0 0.51155987E+02</rscale>
<asrwt>0</asrwt>
<pdfrwt beam="1">  1        1 0.72744671E-02 0.51155987E+02</pdfrwt>
<pdfrwt beam="2">  1       -1 0.21286539E-02 0.51155987E+02</pdfrwt>
<totfact> 0.43735495E+05</totfact>
</mgrwt>
</event>
<event>
 4    1  0.4244376E-001  0.2199041E+02  0.7818608E-02  0.1708418E+00
          1   -1    0    0  501    0  0.00000000000E+00  0.00000000000E+00  0.49188657086E+01  0.49188679254E+01  0.46700000000E-02 0. -1.
         -1   -1    0    0    0  501 -0.00000000000E+00 -0.00000000000E+00 -0.24577708566E+02  0.24577709010E+02  0.46700000000E-02 0.  1.
        -11    1    1    2    0    0  0.10503445762E+02  0.12055998921E+01 -0.13879873318E+02  0.17447828735E+02  0.51100000000E-03 0.  1.
         11    1    1    2    0    0 -0.10503445762E+02 -0.12055998921E+01 -0.57789695391E+01  0.12048748200E+02  0.51100000000E-03 0. -1.
<mgrwt>
<rscale>  0 0.21990406E+02</rscale>
<asrwt>0</asrwt>
<pdfrwt beam="1">  1        1 0.75674879E-03 0.21990406E+02</pdfrwt>
<pdfrwt beam="2">  1       -1 0.37811861E-02 0.21990406E+02</pdfrwt>
<totfact> 0.29956502E+06</totfact>
</mgrwt>
</event>
<event>
 4    1  0.4244376E-001  0.3251568E+02  0.7818608E-02  0.1571837E+00
         -1   -1    0    0    0  501 -0.00000000000E+00  0.00000000000E+00  0.32447909657E+01  0.32447943263E+01  0.46700000000E-02 0. -1.
          1   -1    0    0  501    0  0.00000000000E+00 -0.00000000000E+00 -0.81458944697E+02  0.81458944831E+02  0.46700000000E-02 0.  1.
        -11    1    1    2    0    0  0.84579032613E+01  0.91357214879E+01 -0.11870078275E+02  0.17201636353E+02  0.51100000000E-03 0. -1.
         11    1    1    2    0    0 -0.84579032613E+01 -0.91357214879E+01 -0.66344075456E+02  0.67502102805E+02  0.51100000000E-03 0.  1.
<mgrwt>
<rscale>  0 0.32515682E+02</rscale>
<asrwt>0</asrwt>
<pdfrwt beam="2">  1        1 0.12532144E-01 0.32515682E+02</pdfrwt>
<pdfrwt beam="1">  1       -1 0.49919894E-03 0.32515682E+02</pdfrwt>
<totfact> 0.14182765E+06</totfact>
</mgrwt>
</event>
<event>
 4    1  0.4244376E-001  0.2356781E+03  0.7818608E-02  0.1122706E+00
          1   -1    0    0  501    0  0.00000000000E+00  0.00000000000E+00  0.12344942756E+03  0.12344942765E+03  0.46700000000E-02 0. -1.
         -1   -1    0    0    0  501 -0.00000000000E+00 -0.00000000000E+00 -0.11248360792E+03  0.11248360802E+03  0.46700000000E-02 0.  1.
        -11    1    1    2    0    0  0.57367369554E+02  0.10228237177E+03 -0.60768061992E+01  0.11742923928E+03  0.51100000000E-03 0.  1.
         11    1    1    2    0    0 -0.57367369554E+02 -0.10228237177E+03  0.17042625838E+02  0.11850379639E+03  0.51100000000E-03 0. -1.
<mgrwt>
<rscale>  0 0.23567806E+03</rscale>
<asrwt>0</asrwt>
<pdfrwt beam="1">  1        1 0.18992220E-01 0.23567806E+03</pdfrwt>
<pdfrwt beam="2">  1       -1 0.17305171E-01 0.23567806E+03</pdfrwt>
<totfact> 0.68546219E+03</totfact>
</mgrwt>
</event>
<event>
 4    1  0.4244376E-001  0.2819666E+02  0.7818608E-02  0.1618923E+00
          1   -1    0    0  501    0  0.00000000000E+00  0.00000000000E+00  0.39600638057E+02  0.39600638333E+02  0.46700000000E-02 0.  1.
         -1   -1    0    0    0  501 -0.00000000000E+00 -0.00000000000E+00 -0.50191842977E+01  0.50191864702E+01  0.46700000000E-02 0. -1.
        -11    1    1    2    0    0  0.18496903783E+01 -0.10311061135E+02  0.23599376582E+01  0.10738186171E+02  0.51100000000E-03 0. -1.
         11    1    1    2    0    0 -0.18496903783E+01  0.10311061135E+02  0.32221516101E+02  0.33881638632E+02  0.51100000000E-03 0.  1.
<mgrwt>
<rscale>  0 0.28196663E+02</rscale>
<asrwt>0</asrwt>
<pdfrwt beam="1">  1        1 0.60924061E-02 0.28196663E+02</pdfrwt>
<pdfrwt beam="2">  1       -1 0.77218238E-03 0.28196663E+02</pdfrwt>
<totfact> 0.18681844E+06</totfact>
</mgrwt>
</event>
<event>
 4    1  0.4244376E-001  0.2375711E+02  0.7818608E-02  0.1679524E+00
          1   -1    0    0  501    0  0.00000000000E+00  0.00000000000E+00  0.13499913797E+02  0.13499914604E+02  0.46700000000E-02 0. -1.
         -1   -1    0    0    0  501 -0.00000000000E+00 -0.00000000000E+00 -0.10451924006E+02  0.10451925050E+02  0.46700000000E-02 0.  1.
        -11    1    1    2    0    0 -0.61543128257E+01  0.10156980147E+02  0.17715332249E+01  0.12007420301E+02  0.51100000000E-03 0. -1.
         11    1    1    2    0    0  0.61543128257E+01 -0.10156980147E+02  0.12764565653E+01  0.11944419353E+02  0.51100000000E-03 0.  1.
<mgrwt>
<rscale>  0 0.23757112E+02</rscale>
<asrwt>0</asrwt>
<pdfrwt beam="1">  1        1 0.20769100E-02 0.23757112E+02</pdfrwt>
<pdfrwt beam="2">  1       -1 0.16079884E-02 0.23757112E+02</pdfrwt>
<totfact> 0.26337016E+06</totfact>
</mgrwt>
</event>
<event>
 4    1  0.4244376E-001  0.4021659E+02  0.7818608E-02  0.1506624E+00
          1   -1    0    0  501    0  0.00000000000E+00  0.00000000000E+00  0.74198767323E+02  0.74198767470E+02  0.46700000000E-02 0.  1.
         -1   -1    0    0    0  501 -0.00000000000E+00 -0.00000000000E+00 -0.54494638629E+01  0.54494658639E+01  0.46700000000E-02 0. -1.
        -11    1    1    2    0    0 -0.16650929924E+02 -0.60264587173E+01  0.15505750134E+02  0.23537203731E+02  0.51100000000E-03 0. -1.
         11    1    1    2    0    0  0.16650929924E+02  0.60264587173E+01  0.53243553326E+02  0.56111029602E+02  0.51100000000E-03 0.  1.
<mgrwt>
<rscale>  0 0.40216593E+02</rscale>
<asrwt>0</asrwt>
<pdfrwt beam="1">  1        1 0.11415194E-01 0.40216593E+02</pdfrwt>
<pdfrwt beam="2">  1       -1 0.83837929E-03 0.40216593E+02</pdfrwt>
<totfact> 0.83822244E+05</totfact>
</mgrwt>
</event>
<event>
 4    1  0.4244376E-001  0.2429218E+02  0.7818608E-02  0.1671382E+00
         -1   -1    0    0    0  501 -0.00000000000E+00  0.00000000000E+00  0.74300053774E+02  0.74300053921E+02  0.46700000000E-02 0. -1.
          1   -1    0    0  501    0  0.00000000000E+00 -0.00000000000E+00 -0.19855602139E+01  0.19855657057E+01  0.46700000000E-02 0.  1.
        -11    1    1    2    0    0 -0.11941771765E+02 -0.82795536256E+00  0.29693930620E+02  0.32015948196E+02  0.51100000000E-03 0. -1.
         11    1    1    2    0    0  0.11941771765E+02  0.82795536256E+00  0.42620562941E+02  0.44269671431E+02  0.51100000000E-03 0.  1.
<mgrwt>
<rscale>  0 0.24292175E+02</rscale>
<asrwt>0</asrwt>
<pdfrwt beam="2">  1        1 0.30547127E-03 0.24292175E+02</pdfrwt>
<pdfrwt beam="1">  1       -1 0.11430777E-01 0.24292175E+02</pdfrwt>
<totfact> 0.21605967E+06</totfact>
</mgrwt>
</event>
<event>
 4    1  0.4244376E-001  0.2228134E+02  0.7818608E-02  0.1703431E+00
          1   -1    0    0  501    0  0.00000000000E+00  0.00000000000E+00  0.17826315941E+01  0.17826377111E+01  0.46700000000E-02 0.  1.
         -1   -1    0    0    0  501 -0.00000000000E+00 -0.00000000000E+00 -0.69624224190E+02  0.69624224346E+02  0.46700000000E-02 0. -1.
        -11    1    1    2    0    0 -0.10038591545E+02 -0.22189247807E+01 -0.47674362062E+02  0.48770295731E+02  0.51100000000E-03 0. -1.
         11    1    1    2    0    0  0.10038591545E+02  0.22189247807E+01 -0.20167230533E+02  0.22636566326E+02  0.51100000000E-03 0.  1.
<mgrwt>
<rscale>  0 0.22281343E+02</rscale>
<asrwt>0</asrwt>
<pdfrwt beam="1">  1        1 0.27425155E-03 0.22281343E+02</pdfrwt>
<pdfrwt beam="2">  1       -1 0.10711417E-01 0.22281343E+02</pdfrwt>
<totfact> 0.26465727E+06</totfact>
</mgrwt>
</event>
<event>
 4    1  0.4244376E-001  0.3679305E+02  0.7818608E-02  0.1533231E+00
          1   -1    0    0  501    0  0.00000000000E+00  0.00000000000E+00  0.36545341304E+01  0.36545371142E+01  0.46700000000E-02 0. -1.
         -1   -1    0    0    0  501 -0.00000000000E+00 -0.00000000000E+00 -0.92606033026E+02  0.92606033144E+02  0.46700000000E-02 0.  1.
        -11    1    1    2    0    0 -0.58368024451E+01  0.13011116716E+02 -0.14069028332E+02  0.20032348326E+02  0.51100000000E-03 0. -1.
         11    1    1    2    0    0  0.58368024451E+01 -0.13011116716E+02 -0.74882470563E+02  0.76228221932E+02  0.51100000000E-03 0.  1.
<mgrwt>
<rscale>  0 0.36793046E+02</rscale>
<asrwt>0</asrwt>
<pdfrwt beam="1">  1        1 0.56223633E-03 0.36793046E+02</pdfrwt>
<pdfrwt beam="2">  1       -1 0.14247081E-01 0.36793046E+02</pdfrwt>
<totfact> 0.79510711E+05</totfact>
</mgrwt>
</event>
<event>
 4    1  0.4244376E-001  0.2147380E+02  0.7818608E-02  0.1717515E+00
         -1   -1    0    0    0  501 -0.00000000000E+00  0.00000000000E+00  0.13958244375E+02  0.13958245157E+02  0.46700000000E-02 0. -1.
          1   -1    0    0  501    0  0.00000000000E+00 -0.00000000000E+00 -0.82589886359E+01  0.82589899562E+01  0.46700000000E-02 0.  1.
        -11    1    1    2    0    0  0.12278998683E+01 -0.10385443955E+02  0.33317596979E+00  0.10463087054E+02  0.51100000000E-03 0. -1.
         11    1    1    2    0    0 -0.12278998683E+01  0.10385443955E+02  0.53660797698E+01  0.11754148058E+02  0.51100000000E-03 0.  1.
<mgrwt>
<rscale>  0 0.21473798E+02</rscale>
<asrwt>0</asrwt>
<pdfrwt beam="2">  1        1 0.12706138E-02 0.21473798E+02</pdfrwt>
<pdfrwt beam="1">  1       -1 0.21474224E-02 0.21473798E+02</pdfrwt>
<totfact> 0.32552990E+06</totfact>
</mgrwt>
</event>
<event>
 4    1  0.4244376E-001  0.5193331E+02  0.7818608E-02  0.1435184E+00
          1   -1    0    0  501    0  0.00000000000E+00  0.00000000000E+00  0.10902566252E+02  0.10902567252E+02  0.46700000000E-02 0. -1.
         -1   -1    0    0    0  501 -0.00000000000E+00 -0.00000000000E+00 -0.61844804055E+02  0.61844804232E+02  0.46700000000E-02 0.  1.
        -11    1    1    2    0    0 -0.70941392511E+00  0.23224258357E+02 -0.92318230868E+01  0.25001919969E+02  0.51100000000E-03 0. -1.
         11    1    1    2    0    0  0.70941392511E+00 -0.23224258357E+02 -0.41710414716E+02  0.47745451515E+02  0.51100000000E-03 0.  1.
<mgrwt>
<rscale>  0 0.51933308E+02</rscale>
<asrwt>0</asrwt>
<pdfrwt beam="1">  1        1 0.16773180E-02 0.51933308E+02</pdfrwt>
<pdfrwt beam="2">  1       -1 0.95145851E-02 0.51933308E+02</pdfrwt>
<totfact> 0.36307559E+05</totfact>
</mgrwt>
</event>
<event>
 4    1  0.4244376E-001  0.6314697E+02  0.7818608E-02  0.1385081E+00
          1   -1    0    0  501    0  0.00000000000E+00  0.00000000000E+00  0.70661163252E+02  0.70661163407E+02  0.46700000000E-02 0. -1.
         -1   -1    0    0    0  501 -0.00000000000E+00 -0.00000000000E+00 -0.14107960964E+02  0.14107961737E+02  0.46700000000E-02 0.  1.
        -11    1    1    2    0    0  0.10469021157E+02  0.26083497216E+02  0.89656825096E+01  0.29501401562E+02  0.51100000000E-03 0.  1.
         11    1    1    2    0    0 -0.10469021157E+02 -0.26083497216E+02  0.47587519779E+02  0.55267723582E+02  0.51100000000E-03 0. -1.
<mgrwt>
<rscale>  0 0.63146971E+02</rscale>
<asrwt>0</asrwt>
<pdfrwt beam="1">  1        1 0.10870948E-01 0.63146971E+02</pdfrwt>
<pdfrwt beam="2">  1       -1 0.21704556E-02 0.63146971E+02</pdfrwt>
<totfact> 0.26501294E+05</totfact>
</mgrwt>
</event>
<event>
 4    1  0.4244376E-001  0.3557545E+02  0.7818608E-02  0.1543549E+00
         -1   -1    0    0    0  501 -0.00000000000E+00  0.00000000000E+00  0.29240288385E+01  0.29240325677E+01  0.46700000000E-02 0. -1.
          1   -1    0    0  501    0  0.00000000000E+00 -0.00000000000E+00 -0.10820789454E+03  0.10820789464E+03  0.46700000000E-02 0.  1.
        -11    1    1    2    0    0  0.73951295897E+01 -0.14960486276E+02 -0.33410882750E+02  0.37346903187E+02  0.51100000000E-03 0. -1.
         11    1    1    2    0    0 -0.73951295897E+01  0.14960486276E+02 -0.71872982949E+02  0.73785024019E+02  0.51100000000E-03 0.  1.
<mgrwt>
<rscale>  0 0.35575453E+02</rscale>
<asrwt>0</asrwt>
<pdfrwt beam="2">  1        1 0.16647366E-01 0.35575453E+02</pdfrwt>
<pdfrwt beam="1">  1       -1 0.44985097E-03 0.35575453E+02</pdfrwt>
<totfact> 0.11821572E+06</totfact>
</mgrwt>
</event>
<event>
 4    1  0.4244376E-001  0.2508911E+02  0.7818608E-02  0.1659725E+00
          1   -1    0    0  501    0  0.00000000000E+00  0.00000000000E+00  0.59438755320E+01  0.59438773666E+01  0.46700000000E-02 0.  1.
         -1   -1    0    0    0  501 -0.00000000000E+00 -0.00000000000E+00 -0.26475282296E+02  0.26475282708E+02  0.46700000000E-02 0. -1.
        -11    1    1    2    0    0 -0.11376700512E+02  0.19290183962E+01 -0.39070915409E+01  0.12182601983E+02  0.51100000000E-03 0.  1.
         11    1    1    2    0    0  0.11376700512E+02 -0.19290183962E+01 -0.16624315224E+02  0.20236558092E+02  0.51100000000E-03 0. -1.
<mgrwt>
<rscale>  0 0.25089107E+02</rscale>
<asrwt>0</asrwt>
<pdfrwt beam="1">  1        1 0.91444258E-03 0.25089107E+02</pdfrwt>
<pdfrwt beam="2">  1       -1 0.40731205E-02 0.25089107E+02</pdfrwt>
<totfact> 0.22152178E+06</totfact>
</mgrwt>
</event>
<event>
 4    1  0.4244376E-001  0.2877936E+02  0.7818608E-02  0.1611987E+00
          1   -1    0    0  501    0  0.00000000000E+00  0.00000000000E+00  0.42921951571E+01  0.42921976977E+01  0.46700000000E-02 0.  1.
         -1   -1    0    0    0  501 -0.00000000000E+00 -0.00000000000E+00 -0.48241698374E+02  0.48241698600E+02  0.46700000000E-02 0. -1.
        -11    1    1    2    0    0 -0.90218544679E+01  0.77476304056E+01 -0.71852527066E+01  0.13894153147E+02  0.51100000000E-03 0.  1.
         11    1    1    2    0    0  0.90218544679E+01 -0.77476304056E+01 -0.36764250510E+02  0.38639743151E+02  0.51100000000E-03 0. -1.
<mgrwt>
<rscale>  0 0.28779358E+02</rscale>
<asrwt>0</asrwt>
<pdfrwt beam="1">  1        1 0.66033796E-03 0.28779358E+02</pdfrwt>
<pdfrwt beam="2">  1       -1 0.74217996E-02 0.28779358E+02</pdfrwt>
<totfact> 0.15389567E+06</totfact>
</mgrwt>
</event>
<event>
 4    1  0.4244376E-001  0.4944399E+02  0.7818608E-02  0.1448364E+00
         -1   -1    0    0    0  501 -0.00000000000E+00  0.00000000000E+00  0.18218628147E+02  0.18218628745E+02  0.46700000000E-02 0.  1.
          1   -1    0    0  501    0  0.00000000000E+00 -0.00000000000E+00 -0.33546814510E+02  0.33546814835E+02  0.46700000000E-02 0. -1.
        -11    1    1    2    0    0 -0.42789608259E+00 -0.18707379933E+02 -0.24579009000E+02  0.30891371655E+02  0.51100000000E-03 0. -1.
         11    1    1    2    0    0  0.42789608259E+00  0.18707379933E+02  0.92508226369E+01  0.20874071925E+02  0.51100000000E-03 0.  1.
<mgrwt>
<rscale>  0 0.49443987E+02</rscale>
<asrwt>0</asrwt>
<pdfrwt beam="2">  1        1 0.51610484E-02 0.49443987E+02</pdfrwt>
<pdfrwt beam="1">  1       -1 0.28028659E-02 0.49443987E+02</pdfrwt>
<totfact> 0.46219800E+05</totfact>
</mgrwt>
</event>
<event>
 4    1  0.4244376E-001  0.3501088E+02  0.7818608E-02  0.1548504E+00
          1   -1    0    0  501    0  0.00000000000E+00  0.00000000000E+00  0.17518950611E+02  0.17518951233E+02  0.46700000000E-02 0. -1.
         -1   -1    0    0    0  501 -0.00000000000E+00 -0.00000000000E+00 -0.17491943255E+02  0.17491943878E+02  0.46700000000E-02 0.  1.
        -11    1    1    2    0    0 -0.58644559597E+01 -0.14801701322E+02  0.72907515996E+01  0.17511061215E+02  0.51100000000E-03 0. -1.
         11    1    1    2    0    0  0.58644559597E+01  0.14801701322E+02 -0.72637442439E+01  0.17499833897E+02  0.51100000000E-03 0.  1.
<mgrwt>
<rscale>  0 0.35010885E+02</rscale>
<asrwt>0</asrwt>
<pdfrwt beam="1">  1        1 0.26952233E-02 0.35010885E+02</pdfrwt>
<pdfrwt beam="2">  1       -1 0.26910683E-02 0.35010885E+02</pdfrwt>
<totfact> 0.10521211E+06</totfact>
</mgrwt>
</event>
<event>
 4    1  0.4244376E-001  0.4224123E+02  0.7818608E-02  0.1492338E+00
         -1   -1    0    0    0  501 -0.00000000000E+00  0.00000000000E+00  0.74953259508E+02  0.74953259653E+02  0.46700000000E-02 0. -1.
          1   -1    0    0  501    0  0.00000000000E+00 -0.00000000000E+00 -0.59514468120E+01  0.59514486442E+01  0.46700000000E-02 0.  1.
        -11    1    1    2    0    0  0.62570162479E+00  0.20944888437E+02  0.29433290295E+02  0.36130297979E+02  0.51100000000E-03 0.  1.
         11    1    1    2    0    0 -0.62570162479E+00 -0.20944888437E+02  0.39568522400E+02  0.44774410319E+02  0.51100000000E-03 0. -1.
<mgrwt>
<rscale>  0 0.42241232E+02</rscale>
<asrwt>0</asrwt>
<pdfrwt beam="2">  1        1 0.91560730E-03 0.42241232E+02</pdfrwt>
<pdfrwt beam="1">  1       -1 0.11531271E-01 0.42241232E+02</pdfrwt>
<totfact> 0.58760880E+05</totfact>
</mgrwt>
</event>
<event>
 4    1  0.4244376E-001  0.2096396E+02  0.7818608E-02  0.1726811E+00
          1   -1    0    0  501    0  0.00000000000E+00  0.00000000000E+00  0.65847311283E+02  0.65847311448E+02  0.46700000000E-02 0. -1.
         -1   -1    0    0    0  501 -0.00000000000E+00 -0.00000000000E+00 -0.16685822825E+01  0.16685888176E+01  0.46700000000E-02 0.  1.
        -11    1    1    2    0    0 -0.69520783724E+01 -0.77467449658E+01  0.36070947674E+02  0.37542731888E+02  0.51100000000E-03 0.  1.
         11    1    1    2    0    0  0.69520783724E+01  0.77467449658E+01  0.28107781326E+02  0.29973168378E+02  0.51100000000E-03 0. -1.
<mgrwt>
<rscale>  0 0.20963958E+02</rscale>
<asrwt>0</asrwt>
<pdfrwt beam="1">  1        1 0.10130354E-01 0.20963958E+02</pdfrwt>
<pdfrwt beam="2">  1       -1 0.25670553E-03 0.20963958E+02</pdfrwt>
<totfact> 0.38369686E+06</totfact>
</mgrwt>
</event>
<event>
 4    1  0.4244376E-001  0.2086915E+02  0.7818608E-02  0.1728577E+00
          1   -1    0    0  501    0  0.00000000000E+00  0.00000000000E+00  0.24073541157E+02  0.24073541610E+02  0.46700000000E-02 0.  1.
         -1   -1    0    0    0  501 -0.00000000000E+00 -0.00000000000E+00 -0.45228196698E+01  0.45228220808E+01  0.46700000000E-02 0. -1.
        -11    1    1    2    0    0  0.10306793476E+02  0.90700889837E+00  0.79228748339E+01  0.13031676898E+02  0.51100000000E-03 0. -1.
         11    1    1    2    0    0 -0.10306793476E+02 -0.90700889837E+00  0.11627846653E+02  0.15564686792E+02  0.51100000000E-03 0.  1.
<mgrwt>
<rscale>  0 0.20869147E+02</rscale>
<asrwt>0</asrwt>
<pdfrwt beam="1">  1        1 0.37036219E-02 0.20869147E+02</pdfrwt>
<pdfrwt beam="2">  1       -1 0.69581864E-03 0.20869147E+02</pdfrwt>
<totfact> 0.36376675E+06</totfact>
</mgrwt>
</event>
<event>
 4    1  0.4244376E-001  0.6495143E+02  0.7818608E-02  0.1378154E+00
          1   -1    0    0  501    0  0.00000000000E+00  0.00000000000E+00  0.60248280101E+01  0.60248298200E+01  0.46700000000E-02 0. -1.
         -1   -1    0    0    0  501 -0.00000000000E+00 -0.00000000000E+00 -0.17505427778E+03  0.17505427784E+03  0.46700000000E-02 0.  1.
        -11    1    1    2    0    0 -0.17190895055E+02 -0.27288807703E+02 -0.73911043824E+02  0.80641480009E+02  0.51100000000E-03 0. -1.
         11    1    1    2    0    0  0.17190895055E+02  0.27288807703E+02 -0.95118405947E+02  0.10043762765E+03  0.51100000000E-03 0.  1.
<mgrwt>
<rscale>  0 0.64951431E+02</rscale>
<asrwt>0</asrwt>
<pdfrwt beam="1">  1        1 0.92689690E-03 0.64951431E+02</pdfrwt>
<pdfrwt beam="2">  1       -1 0.26931424E-01 0.64951431E+02</pdfrwt>
<totfact> 0.17221878E+05</totfact>
</mgrwt>
</event>
<event>
 4    1  0.4244376E-001  0.2886870E+02  0.7818608E-02  0.1610941E+00
          1   -1    0    0  501    0  0.00000000000E+00  0.00000000000E+00  0.25849112625E+01  0.25849154810E+01  0.46700000000E-02 0. -1.
         -1   -1    0    0    0  501 -0.00000000000E+00 -0.00000000000E+00 -0.80602473555E+02  0.80602473690E+02  0.46700000000E-02 0.  1.
        -11    1    1    2    0    0 -0.22288461874E+01  0.13645047281E+02 -0.27059663442E+02  0.30387175856E+02  0.51100000000E-03 0. -1.
         11    1    1    2    0    0  0.22288461874E+01 -0.13645047281E+02 -0.50957898851E+02  0.52800213316E+02  0.51100000000E-03 0.  1.
<mgrwt>
<rscale>  0 0.28868697E+02</rscale>
<asrwt>0</asrwt>
<pdfrwt beam="1">  1        1 0.39767905E-03 0.28868697E+02</pdfrwt>
<pdfrwt beam="2">  1       -1 0.12400379E-01 0.28868697E+02</pdfrwt>
<totfact> 0.14380459E+06</totfact>
</mgrwt>
</event>
<event>
 4    1  0.4244376E-001  0.7365940E+02  0.7818608E-02  0.1348073E+00
          1   -1    0    0  501    0  0.00000000000E+00  0.00000000000E+00  0.52372032655E+01  0.52372053476E+01  0.46700000000E-02 0. -1.
         -1   -1    0    0    0  501 -0.00000000000E+00 -0.00000000000E+00 -0.25899823094E+03  0.25899823099E+03  0.46700000000E-02 0.  1.
        -11    1    1    2    0    0 -0.25057661563E+02  0.26991346244E+02 -0.12657013392E+03  0.13181964184E+03  0.51100000000E-03 0. -1.
         11    1    1    2    0    0  0.25057661563E+02 -0.26991346244E+02 -0.12719089376E+03  0.13241579449E+03  0.51100000000E-03 0.  1.
<mgrwt>
<rscale>  0 0.73659396E+02</rscale>
<asrwt>0</asrwt>
<pdfrwt beam="1">  1        1 0.80572395E-03 0.73659396E+02</pdfrwt>
<pdfrwt beam="2">  1       -1 0.39845872E-01 0.73659396E+02</pdfrwt>
<totfact> 0.11122581E+05</totfact>
</mgrwt>
</event>
<event>
 4    1  0.4244376E-001  0.6204313E+02  0.7818608E-02  0.1389452E+00
          1   -1    0    0  501    0  0.00000000000E+00  0.00000000000E+00  0.71495639821E+01  0.71495655073E+01  0.46700000000E-02 0.  1.
         -1   -1    0    0    0  501 -0.00000000000E+00 -0.00000000000E+00 -0.13460083109E+03  0.13460083117E+03  0.46700000000E-02 0. -1.
        -11    1    1    2    0    0  0.19990109619E+02  0.11821316395E+02 -0.16736727351E+02  0.28626317377E+02  0.51100000000E-03 0.  1.
         11    1    1    2    0    0 -0.19990109619E+02 -0.11821316395E+02 -0.11071453976E+03  0.11312407930E+03  0.51100000000E-03 0. -1.
<mgrwt>
<rscale>  0 0.62043126E+02</rscale>
<asrwt>0</asrwt>
<pdfrwt beam="1">  1        1 0.10999331E-02 0.62043126E+02</pdfrwt>
<pdfrwt beam="2">  1       -1 0.20707818E-01 0.62043126E+02</pdfrwt>
<totfact> 0.20539060E+05</totfact>
</mgrwt>
</event>
<event>
 4    1  0.4244376E-001  0.2143825E+02  0.7818608E-02  0.1718152E+00
         -1   -1    0    0    0  501 -0.00000000000E+00  0.00000000000E+00  0.20047682135E+02  0.20047682679E+02  0.46700000000E-02 0. -1.
          1   -1    0    0  501    0  0.00000000000E+00 -0.00000000000E+00 -0.57313165509E+01  0.57313184535E+01  0.46700000000E-02 0.  1.
        -11    1    1    2    0    0  0.80555013037E+01  0.70447886884E+01  0.78989464247E+01  0.13300883572E+02  0.51100000000E-03 0.  1.
         11    1    1    2    0    0 -0.80555013037E+01 -0.70447886884E+01  0.64174191593E+01  0.12478117560E+02  0.51100000000E-03 0. -1.
<mgrwt>
<rscale>  0 0.21438250E+02</rscale>
<asrwt>0</asrwt>
<pdfrwt beam="2">  1        1 0.88174119E-03 0.21438250E+02</pdfrwt>
<pdfrwt beam="1">  1       -1 0.30842590E-02 0.21438250E+02</pdfrwt>
<totfact> 0.32084374E+06</totfact>
</mgrwt>
</event>
<event>
 4    1  0.4244376E-001  0.4979978E+02  0.7818608E-02  0.1446424E+00
         -1   -1    0    0    0  501 -0.00000000000E+00  0.00000000000E+00  0.63515993604E+02  0.63515993775E+02  0.46700000000E-02 0. -1.
          1   -1    0    0  501    0  0.00000000000E+00 -0.00000000000E+00 -0.97613896201E+01  0.97613907372E+01  0.46700000000E-02 0.  1.
        -11    1    1    2    0    0  0.10210547194E+01 -0.14502177401E+02 -0.28679490932E+01  0.14818260167E+02  0.51100000000E-03 0.  1.
         11    1    1    2    0    0 -0.10210547194E+01  0.14502177401E+02  0.56622553077E+02  0.58459124346E+02  0.51100000000E-03 0. -1.
<mgrwt>
<rscale>  0 0.49799775E+02</rscale>
<asrwt>0</asrwt>
<pdfrwt beam="2">  1        1 0.15017524E-02 0.49799775E+02</pdfrwt>
<pdfrwt beam="1">  1       -1 0.97716914E-02 0.49799775E+02</pdfrwt>
<totfact> 0.40129695E+05</totfact>
</mgrwt>
</event>
<event>
 4    1  0.4244376E-001  0.5785443E+02  0.7818608E-02  0.1407063E+00
         -1   -1    0    0    0  501 -0.00000000000E+00  0.00000000000E+00  0.96756938317E+01  0.96756949587E+01  0.46700000000E-02 0.  1.
          1   -1    0    0  501    0  0.00000000000E+00 -0.00000000000E+00 -0.86483062497E+02  0.86483062623E+02  0.46700000000E-02 0. -1.
        -11    1    1    2    0    0 -0.20012706974E+01 -0.28666346913E+02 -0.43920984075E+02  0.52486354151E+02  0.51100000000E-03 0. -1.
         11    1    1    2    0    0  0.20012706974E+01  0.28666346913E+02 -0.32886384590E+02  0.43672403430E+02  0.51100000000E-03 0.  1.
<mgrwt>
<rscale>  0 0.57854427E+02</rscale>
<asrwt>0</asrwt>
<pdfrwt beam="2">  1        1 0.13305086E-01 0.57854427E+02</pdfrwt>
<pdfrwt beam="1">  1       -1 0.14885684E-02 0.57854427E+02</pdfrwt>
<totfact> 0.34136314E+05</totfact>
</mgrwt>
</event>
<event>
 4    1  0.4244376E-001  0.2176390E+02  0.7818608E-02  0.1712368E+00
         -1   -1    0    0    0  501 -0.00000000000E+00  0.00000000000E+00  0.22869234421E+02  0.22869234898E+02  0.46700000000E-02 0. -1.
          1   -1    0    0  501    0  0.00000000000E+00 -0.00000000000E+00 -0.51779934500E+01  0.51779955560E+01  0.46700000000E-02 0.  1.
        -11    1    1    2    0    0  0.46614771829E+01 -0.90732700759E+01  0.13729654729E+02  0.17104298250E+02  0.51100000000E-03 0. -1.
         11    1    1    2    0    0 -0.46614771829E+01  0.90732700759E+01  0.39615862420E+01  0.10942932204E+02  0.51100000000E-03 0.  1.
<mgrwt>
<rscale>  0 0.21763895E+02</rscale>
<asrwt>0</asrwt>
<pdfrwt beam="2">  1        1 0.79661459E-03 0.21763895E+02</pdfrwt>
<pdfrwt beam="1">  1       -1 0.35183439E-02 0.21763895E+02</pdfrwt>
<totfact> 0.30791772E+06</totfact>
</mgrwt>
</event>
<event>
 4    1  0.4244376E-001  0.2443448E+02  0.7818608E-02  0.1669260E+00
         -1   -1    0    0    0  501 -0.00000000000E+00  0.00000000000E+00  0.10210513547E+02  0.10210514615E+02  0.46700000000E-02 0. -1.
          1   -1    0    0  501    0  0.00000000000E+00 -0.00000000000E+00 -0.14618352014E+02  0.14618352759E+02  0.46700000000E-02 0.  1.
        -11    1    1    2    0    0 -0.15286456656E+00 -0.10043325274E+02  0.48631300906E+01  0.11159829061E+02  0.51100000000E-03 0. -1.
         11    1    1    2    0    0  0.15286456656E+00  0.10043325274E+02 -0.92709685574E+01  0.13669038313E+02  0.51100000000E-03 0.  1.
<mgrwt>
<rscale>  0 0.24434476E+02</rscale>
<asrwt>0</asrwt>
<pdfrwt beam="2">  1        1 0.22489774E-02 0.24434476E+02</pdfrwt>
<pdfrwt beam="1">  1       -1 0.15708484E-02 0.24434476E+02</pdfrwt>
<totfact> 0.24758082E+06</totfact>
</mgrwt>
</event>
<event>
 4    1  0.4244376E-001  0.2081638E+02  0.7818608E-02  0.1729564E+00
         -1   -1    0    0    0  501 -0.00000000000E+00  0.00000000000E+00  0.32120039372E+02  0.32120039711E+02  0.46700000000E-02 0. -1.
          1   -1    0    0  501    0  0.00000000000E+00 -0.00000000000E+00 -0.33726717363E+01  0.33726749694E+01  0.46700000000E-02 0.  1.
        -11    1    1    2    0    0  0.10124712292E+02  0.24120636606E+01  0.14287381319E+02  0.17676456526E+02  0.51100000000E-03 0.  1.
         11    1    1    2    0    0 -0.10124712292E+02 -0.24120636606E+01  0.14459986317E+02  0.17816258155E+02  0.51100000000E-03 0. -1.
<mgrwt>
<rscale>  0 0.20816379E+02</rscale>
<asrwt>0</asrwt>
<pdfrwt beam="2">  1        1 0.51887284E-03 0.20816379E+02</pdfrwt>
<pdfrwt beam="1">  1       -1 0.49415449E-02 0.20816379E+02</pdfrwt>
<totfact> 0.33234705E+06</totfact>
</mgrwt>
</event>
<event>
 4    1  0.4244376E-001  0.2089905E+02  0.7818608E-02  0.1728019E+00
         -1   -1    0    0    0  501 -0.00000000000E+00  0.00000000000E+00  0.76747197020E+01  0.76747211228E+01  0.46700000000E-02 0. -1.
          1   -1    0    0  501    0  0.00000000000E+00 -0.00000000000E+00 -0.14227562398E+02  0.14227563164E+02  0.46700000000E-02 0.  1.
        -11    1    1    2    0    0  0.99326841348E+01 -0.20184932869E+01 -0.59400932245E+01  0.11748073759E+02  0.51100000000E-03 0.  1.
         11    1    1    2    0    0 -0.99326841348E+01  0.20184932869E+01 -0.61274947131E+00  0.10154210528E+02  0.51100000000E-03 0. -1.
<mgrwt>
<rscale>  0 0.20899050E+02</rscale>
<asrwt>0</asrwt>
<pdfrwt beam="2">  1        1 0.21888559E-02 0.20899050E+02</pdfrwt>
<pdfrwt beam="1">  1       -1 0.11807263E-02 0.20899050E+02</pdfrwt>
<totfact> 0.35450693E+06</totfact>
</mgrwt>
</event>
<event>
 4    1  0.4244376E-001  0.2398778E+02  0.7818608E-02  0.1675981E+00
          1   -1    0    0  501    0  0.00000000000E+00  0.00000000000E+00  0.20220871079E+01  0.20220925006E+01  0.46700000000E-02 0. -1.
         -1   -1    0    0    0  501 -0.00000000000E+00 -0.00000000000E+00 -0.71140921922E+02  0.71140922075E+02  0.46700000000E-02 0.  1.
        -11    1    1    2    0    0  0.11804415589E+01  0.11809870798E+02 -0.29288228870E+02  0.31601690479E+02  0.51100000000E-03 0. -1.
         11    1    1    2    0    0 -0.11804415589E+01 -0.11809870798E+02 -0.39830605944E+02  0.41561324097E+02  0.51100000000E-03 0.  1.
<mgrwt>
<rscale>  0 0.23987776E+02</rscale>
<asrwt>0</asrwt>
<pdfrwt beam="1">  1        1 0.31109080E-03 0.23987776E+02</pdfrwt>
<pdfrwt beam="2">  1       -1 0.10944756E-01 0.23987776E+02</pdfrwt>
<totfact> 0.22358398E+06</totfact>
</mgrwt>
</event>
<event>
 4    1  0.4244376E-001  0.2472741E+02  0.7818608E-02  0.1664948E+00
          1   -1    0    0  501    0  0.00000000000E+00  0.00000000000E+00  0.63605327840E+01  0.63605344984E+01  0.46700000000E-02 0. -1.
         -1   -1    0    0    0  501 -0.00000000000E+00 -0.00000000000E+00 -0.24032761902E+02  0.24032762356E+02  0.46700000000E-02 0.  1.
        -11    1    1    2    0    0  0.80450196711E+01 -0.89235824821E+01 -0.12421423807E+02  0.17281331994E+02  0.51100000000E-03 0.  1.
         11    1    1    2    0    0 -0.80450196711E+01  0.89235824821E+01 -0.52508053111E+01  0.13111964860E+02  0.51100000000E-03 0. -1.
<mgrwt>
<rscale>  0 0.24727410E+02</rscale>
<asrwt>0</asrwt>
<pdfrwt beam="1">  1        1 0.97854369E-03 0.24727410E+02</pdfrwt>
<pdfrwt beam="2">  1       -1 0.36973481E-02 0.24727410E+02</pdfrwt>
<totfact> 0.23039956E+06</totfact>
</mgrwt>
</event>
<event>
 4    1  0.4244376E-001  0.3207194E+02  0.7818608E-02  0.1576254E+00
          1   -1    0    0  501    0  0.00000000000E+00  0.00000000000E+00  0.10898650735E+02  0.10898651736E+02  0.46700000000E-02 0.  1.
         -1   -1    0    0    0  501 -0.00000000000E+00 -0.00000000000E+00 -0.23594881039E+02  0.23594881502E+02  0.46700000000E-02 0. -1.
        -11    1    1    2    0    0  0.12974582100E+02  0.66293256470E+01 -0.13551963471E+02  0.19898327904E+02  0.51100000000E-03 0. -1.
         11    1    1    2    0    0 -0.12974582100E+02 -0.66293256470E+01  0.85573316702E+00  0.14595205333E+02  0.51100000000E-03 0.  1.
<mgrwt>
<rscale>  0 0.32071944E+02</rscale>
<asrwt>0</asrwt>
<pdfrwt beam="1">  1        1 0.16767156E-02 0.32071944E+02</pdfrwt>
<pdfrwt beam="2">  1       -1 0.36299818E-02 0.32071944E+02</pdfrwt>
<totfact> 0.12665762E+06</totfact>
</mgrwt>
</event>
<event>
 4    1  0.4244376E-001  0.2222060E+02  0.7818608E-02  0.1704465E+00
          1   -1    0    0  501    0  0.00000000000E+00  0.00000000000E+00  0.69243970077E+01  0.69243985825E+01  0.46700000000E-02 0. -1.
         -1   -1    0    0    0  501 -0.00000000000E+00 -0.00000000000E+00 -0.17826634361E+02  0.17826634972E+02  0.46700000000E-02 0.  1.
        -11    1    1    2    0    0  0.86389623354E+01  0.58047036486E+01 -0.11209451362E+01  0.10468179065E+02  0.51100000000E-03 0.  1.
         11    1    1    2    0    0 -0.86389623354E+01 -0.58047036486E+01 -0.97812922167E+01  0.14282854490E+02  0.51100000000E-03 0. -1.
<mgrwt>
<rscale>  0 0.22220596E+02</rscale>
<asrwt>0</asrwt>
<pdfrwt beam="1">  1        1 0.10652920E-02 0.22220596E+02</pdfrwt>
<pdfrwt beam="2">  1       -1 0.27425593E-02 0.22220596E+02</pdfrwt>
<totfact> 0.29809055E+06</totfact>
</mgrwt>
</event>
<event>
 4    1  0.4244376E-001  0.5306043E+02  0.7818608E-02  0.1429500E+00
         -1   -1    0    0    0  501 -0.00000000000E+00  0.00000000000E+00  0.19502487631E+02  0.19502488191E+02  0.46700000000E-02 0.  1.
          1   -1    0    0  501    0  0.00000000000E+00 -0.00000000000E+00 -0.36090391004E+02  0.36090391306E+02  0.46700000000E-02 0. -1.
        -11    1    1    2    0    0 -0.35053070617E+01 -0.26118229711E+02 -0.50811113969E+01  0.26837786684E+02  0.51100000000E-03 0. -1.
         11    1    1    2    0    0  0.35053070617E+01  0.26118229711E+02 -0.11506791976E+02  0.28755092813E+02  0.51100000000E-03 0.  1.
<mgrwt>
<rscale>  0 0.53060435E+02</rscale>
<asrwt>0</asrwt>
<pdfrwt beam="2">  1        1 0.55523679E-02 0.53060435E+02</pdfrwt>
<pdfrwt beam="1">  1       -1 0.30003828E-02 0.53060435E+02</pdfrwt>
<totfact> 0.38771226E+05</totfact>
</mgrwt>
</event>
<event>
 4    1  0.4244376E-001  0.2916242E+02  0.7818608E-02  0.1607536E+00
          1   -1    0    0  501    0  0.00000000000E+00  0.00000000000E+00  0.50080231835E+01  0.50080253608E+01  0.46700000000E-02 0. -1.
         -1   -1    0    0    0  501 -0.00000000000E+00 -0.00000000000E+00 -0.42454206692E+02  0.42454206949E+02  0.46700000000E-02 0.  1.
        -11    1    1    2    0    0  0.13242132159E+02  0.32292641365E+01 -0.10293028213E+02  0.17080065604E+02  0.51100000000E-03 0. -1.
         11    1    1    2    0    0 -0.13242132159E+02 -0.32292641365E+01 -0.27153155295E+02  0.30382166706E+02  0.51100000000E-03 0.  1.
<mgrwt>
<rscale>  0 0.29162422E+02</rscale>
<asrwt>0</asrwt>
<pdfrwt beam="1">  1        1 0.77046532E-03 0.29162422E+02</pdfrwt>
<pdfrwt beam="2">  1       -1 0.65314164E-02 0.29162422E+02</pdfrwt>
<totfact> 0.15106727E+06</totfact>
</mgrwt>
</event>
<event>
 4    1  0.4244376E-001  0.8373733E+02  0.7818608E-02  0.1318768E+00
          1   -1    0    0  501    0  0.00000000000E+00  0.00000000000E+00  0.12114683526E+02  0.12114684426E+02  0.46700000000E-02 0. -1.
         -1   -1    0    0    0  501 -0.00000000000E+00 -0.00000000000E+00 -0.14469920944E+03  0.14469920952E+03  0.46700000000E-02 0.  1.
        -11    1    1    2    0    0  0.13088878227E+02 -0.29086522226E+02 -0.15499914721E+02  0.35462541717E+02  0.51100000000E-03 0. -1.
         11    1    1    2    0    0 -0.13088878227E+02  0.29086522226E+02 -0.11708461119E+03  0.12135135223E+03  0.51100000000E-03 0.  1.
<mgrwt>
<rscale>  0 0.83737332E+02</rscale>
<asrwt>0</asrwt>
<pdfrwt beam="1">  1        1 0.18637976E-02 0.83737332E+02</pdfrwt>
<pdfrwt beam="2">  1       -1 0.22261416E-01 0.83737332E+02</pdfrwt>
<totfact> 0.93986637E+04</totfact>
</mgrwt>
</event>
<event>
 4    1  0.4244376E-001  0.3340482E+02  0.7818608E-02  0.1563240E+00
         -1   -1    0    0    0  501 -0.00000000000E+00  0.00000000000E+00  0.13890289949E+02  0.13890290734E+02  0.46700000000E-02 0. -1.
          1   -1    0    0  501    0  0.00000000000E+00 -0.00000000000E+00 -0.20083849190E+02  0.20083849733E+02  0.46700000000E-02 0.  1.
        -11    1    1    2    0    0 -0.15372380755E+02 -0.28755973398E+00 -0.97331495373E+01  0.18196894814E+02  0.51100000000E-03 0. -1.
         11    1    1    2    0    0  0.15372380755E+02  0.28755973398E+00  0.35395902965E+01  0.15777245654E+02  0.51100000000E-03 0.  1.
<mgrwt>
<rscale>  0 0.33404821E+02</rscale>
<asrwt>0</asrwt>
<pdfrwt beam="2">  1        1 0.30898230E-02 0.33404821E+02</pdfrwt>
<pdfrwt beam="1">  1       -1 0.21369678E-02 0.33404821E+02</pdfrwt>
<totfact> 0.11913753E+06</totfact>
</mgrwt>
</event>
<event>
 4    1  0.4244376E-001  0.4259613E+02  0.7818608E-02  0.1489932E+00
          1   -1    0    0  501    0  0.00000000000E+00  0.00000000000E+00  0.72216447844E+02  0.72216447995E+02  0.46700000000E-02 0. -1.
         -1   -1    0    0    0  501 -0.00000000000E+00 -0.00000000000E+00 -0.62812205000E+01  0.62812222361E+01  0.46700000000E-02 0.  1.
        -11    1    1    2    0    0  0.12351306864E+02  0.12312025014E+02  0.55497498568E+02  0.58173130299E+02  0.51100000000E-03 0. -1.
         11    1    1    2    0    0 -0.12351306864E+02 -0.12312025014E+02  0.10437728776E+02  0.20324539932E+02  0.51100000000E-03 0.  1.
<mgrwt>
<rscale>  0 0.42596127E+02</rscale>
<asrwt>0</asrwt>
<pdfrwt beam="1">  1        1 0.11110222E-01 0.42596127E+02</pdfrwt>
<pdfrwt beam="2">  1       -1 0.96634186E-03 0.42596127E+02</pdfrwt>
<totfact> 0.72506417E+05</totfact>
</mgrwt>
</event>
<event>
 4    1  0.4244376E-001  0.2317545E+02  0.7818608E-02  0.1688682E+00
         -1   -1    0    0    0  501 -0.00000000000E+00  0.00000000000E+00  0.27397458223E+01  0.27397498024E+01  0.46700000000E-02 0.  1.
          1   -1    0    0  501    0  0.00000000000E+00 -0.00000000000E+00 -0.49010124629E+02  0.49010124851E+02  0.46700000000E-02 0. -1.
        -11    1    1    2    0    0 -0.80975688202E+01  0.82640784103E+01 -0.24564598119E+02  0.27152994195E+02  0.51100000000E-03 0. -1.
         11    1    1    2    0    0  0.80975688202E+01 -0.82640784103E+01 -0.21705780688E+02  0.24596880459E+02  0.51100000000E-03 0.  1.
<mgrwt>
<rscale>  0 0.23175452E+02</rscale>
<asrwt>0</asrwt>
<pdfrwt beam="2">  1        1 0.75400189E-02 0.23175452E+02</pdfrwt>
<pdfrwt beam="1">  1       -1 0.42149972E-03 0.23175452E+02</pdfrwt>
<totfact> 0.29888314E+06</totfact>
</mgrwt>
</event>
<event>
 4    1  0.4244376E-001  0.3914263E+02  0.7818608E-02  0.1514617E+00
          1   -1    0    0  501    0  0.00000000000E+00  0.00000000000E+00  0.31743666034E+02  0.31743666377E+02  0.46700000000E-02 0.  1.
         -1   -1    0    0    0  501 -0.00000000000E+00 -0.00000000000E+00 -0.12066546213E+02  0.12066547116E+02  0.46700000000E-02 0. -1.
        -11    1    1    2    0    0 -0.40235176755E+00  0.10063255084E+02  0.28620733736E+02  0.30341018270E+02  0.51100000000E-03 0.  1.
         11    1    1    2    0    0  0.40235176755E+00 -0.10063255084E+02 -0.89436139150E+01  0.13469195223E+02  0.51100000000E-03 0. -1.
<mgrwt>
<rscale>  0 0.39142634E+02</rscale>
<asrwt>0</asrwt>
<pdfrwt beam="1">  1        1 0.48836409E-02 0.39142634E+02</pdfrwt>
<pdfrwt beam="2">  1       -1 0.18563919E-02 0.39142634E+02</pdfrwt>
<totfact> 0.83101830E+05</totfact>
</mgrwt>
</event>
<event>
 4    1  0.4244376E-001  0.2345690E+02  0.7818608E-02  0.1684209E+00
         -1   -1    0    0    0  501 -0.00000000000E+00  0.00000000000E+00  0.20843688123E+02  0.20843688646E+02  0.46700000000E-02 0. -1.
          1   -1    0    0  501    0  0.00000000000E+00 -0.00000000000E+00 -0.65994326225E+01  0.65994342748E+01  0.46700000000E-02 0.  1.
        -11    1    1    2    0    0 -0.11722691893E+02  0.35203894636E+00  0.72454345796E+01  0.13785563432E+02  0.51100000000E-03 0.  1.
         11    1    1    2    0    0  0.11722691893E+02 -0.35203894636E+00  0.69988209212E+01  0.13657559489E+02  0.51100000000E-03 0. -1.
<mgrwt>
<rscale>  0 0.23456900E+02</rscale>
<asrwt>0</asrwt>
<pdfrwt beam="2">  1        1 0.10152975E-02 0.23456900E+02</pdfrwt>
<pdfrwt beam="1">  1       -1 0.32067214E-02 0.23456900E+02</pdfrwt>
<totfact> 0.26178384E+06</totfact>
</mgrwt>
</event>
<event>
 4    1  0.4244376E-001  0.2885265E+02  0.7818608E-02  0.1611129E+00
          1   -1    0    0  501    0  0.00000000000E+00  0.00000000000E+00  0.19684634474E+01  0.19684689870E+01  0.46700000000E-02 0.  1.
         -1   -1    0    0    0  501 -0.00000000000E+00 -0.00000000000E+00 -0.10572636226E+03  0.10572636236E+03  0.46700000000E-02 0. -1.
        -11    1    1    2    0    0  0.13582277968E+02 -0.47372275779E+01 -0.55966395079E+02  0.57785439155E+02  0.51100000000E-03 0. -1.
         11    1    1    2    0    0 -0.13582277968E+02  0.47372275779E+01 -0.47791503732E+02  0.49909392194E+02  0.51100000000E-03 0.  1.
<mgrwt>
<rscale>  0 0.28852645E+02</rscale>
<asrwt>0</asrwt>
<pdfrwt beam="1">  1        1 0.30284105E-03 0.28852645E+02</pdfrwt>
<pdfrwt beam="2">  1       -1 0.16265590E-01 0.28852645E+02</pdfrwt>
<totfact> 0.13804911E+06</totfact>
</mgrwt>
</event>
<event>
 4    1  0.4244376E-001  0.3368556E+02  0.7818608E-02  0.1560593E+00
         -1   -1    0    0    0  501 -0.00000000000E+00  0.00000000000E+00  0.56674657401E+01  0.56674676642E+01  0.46700000000E-02 0. -1.
          1   -1    0    0  501    0  0.00000000000E+00 -0.00000000000E+00 -0.50053960832E+02  0.50053961050E+02  0.46700000000E-02 0.  1.
        -11    1    1    2    0    0  0.42109942757E+00  0.13413419072E+02 -0.53579522655E+01  0.14450079192E+02  0.51100000000E-03 0. -1.
         11    1    1    2    0    0 -0.42109942757E+00 -0.13413419072E+02 -0.39028542826E+02  0.41271349522E+02  0.51100000000E-03 0.  1.
<mgrwt>
<rscale>  0 0.33685556E+02</rscale>
<asrwt>0</asrwt>
<pdfrwt beam="2">  1        1 0.77006092E-02 0.33685556E+02</pdfrwt>
<pdfrwt beam="1">  1       -1 0.87191800E-03 0.33685556E+02</pdfrwt>
<totfact> 0.12438125E+06</totfact>
</mgrwt>
</event>
<event>
 4    1  0.4244376E-001  0.3135814E+02  0.7818608E-02  0.1583544E+00
          1   -1    0    0  501    0  0.00000000000E+00  0.00000000000E+00  0.34553943854E+02  0.34553944169E+02  0.46700000000E-02 0.  1.
         -1   -1    0    0    0  501 -0.00000000000E+00 -0.00000000000E+00 -0.71144763504E+01  0.71144778831E+01  0.46700000000E-02 0. -1.
        -11    1    1    2    0    0 -0.11446586108E+02  0.18145167699E+01 -0.31248062185E+00  0.11593724554E+02  0.51100000000E-03 0. -1.
         11    1    1    2    0    0  0.11446586108E+02 -0.18145167699E+01  0.27751948125E+02  0.30074697499E+02  0.51100000000E-03 0.  1.
<mgrwt>
<rscale>  0 0.31358141E+02</rscale>
<asrwt>0</asrwt>
<pdfrwt beam="1">  1        1 0.53159915E-02 0.31358141E+02</pdfrwt>
<pdfrwt beam="2">  1       -1 0.10945350E-02 0.31358141E+02</pdfrwt>
<totfact> 0.14373591E+06</totfact>
</mgrwt>
</event>
<event>
 4    1  0.4244376E-001  0.2411761E+02  0.7818608E-02  0.1674009E+00
          1   -1    0    0  501    0  0.00000000000E+00  0.00000000000E+00  0.76732454809E+01  0.76732469020E+01  0.46700000000E-02 0.  1.
         -1   -1    0    0    0  501 -0.00000000000E+00 -0.00000000000E+00 -0.18950880040E+02  0.18950880615E+02  0.46700000000E-02 0. -1.
        -11    1    1    2    0    0 -0.55209990321E+00  0.10456675629E+02  0.96337003772E+00  0.10515462976E+02  0.51100000000E-03 0.  1.
         11    1    1    2    0    0  0.55209990321E+00 -0.10456675629E+02 -0.12241004597E+02  0.16108664541E+02  0.51100000000E-03 0. -1.
<mgrwt>
<rscale>  0 0.24117610E+02</rscale>
<asrwt>0</asrwt>
<pdfrwt beam="1">  1        1 0.11804995E-02 0.24117610E+02</pdfrwt>
<pdfrwt beam="2">  1       -1 0.29155201E-02 0.24117610E+02</pdfrwt>
<totfact> 0.24723380E+06</totfact>
</mgrwt>
</event>
<event>
 4    1  0.4244376E-001  0.2582315E+02  0.7818608E-02  0.1649453E+00
         -1   -1    0    0    0  501 -0.00000000000E+00  0.00000000000E+00  0.15784849943E+01  0.15784919024E+01  0.46700000000E-02 0.  1.
          1   -1    0    0  501    0  0.00000000000E+00 -0.00000000000E+00 -0.10561294954E+03  0.10561294964E+03  0.46700000000E-02 0. -1.
        -11    1    1    2    0    0 -0.17706874602E+01  0.12006361215E+02 -0.33724261784E+02  0.35841510527E+02  0.51100000000E-03 0.  1.
         11    1    1    2    0    0  0.17706874602E+01 -0.12006361215E+02 -0.70310202759E+02  0.71349931016E+02  0.51100000000E-03 0. -1.
<mgrwt>
<rscale>  0 0.25823155E+02</rscale>
<asrwt>0</asrwt>
<pdfrwt beam="2">  1        1 0.16248141E-01 0.25823155E+02</pdfrwt>
<pdfrwt beam="1">  1       -1 0.24284447E-03 0.25823155E+02</pdfrwt>
<totfact> 0.25088524E+06</totfact>
</mgrwt>
</event>
<event>
 4    1  0.4244376E-001  0.2984889E+02  0.7818608E-02  0.1599765E+00
         -1   -1    0    0    0  501 -0.00000000000E+00  0.00000000000E+00  0.14065353266E+02  0.14065354041E+02  0.46700000000E-02 0.  1.
          1   -1    0    0  501    0  0.00000000000E+00 -0.00000000000E+00 -0.15836005459E+02  0.15836006148E+02  0.46700000000E-02 0. -1.
        -11    1    1    2    0    0 -0.13994139731E+02  0.14409237141E+01  0.41060853804E+01  0.14655106461E+02  0.51100000000E-03 0.  1.
         11    1    1    2    0    0  0.13994139731E+02 -0.14409237141E+01 -0.58767375735E+01  0.15246253728E+02  0.51100000000E-03 0. -1.
<mgrwt>
<rscale>  0 0.29848888E+02</rscale>
<asrwt>0</asrwt>
<pdfrwt beam="2">  1        1 0.24363087E-02 0.29848888E+02</pdfrwt>
<pdfrwt beam="1">  1       -1 0.21639006E-02 0.29848888E+02</pdfrwt>
<totfact> 0.15448985E+06</totfact>
</mgrwt>
</event>
<event>
 4    1  0.4244376E-001  0.2178903E+02  0.7818608E-02  0.1711926E+00
          1   -1    0    0  501    0  0.00000000000E+00  0.00000000000E+00  0.47866480240E+02  0.47866480467E+02  0.46700000000E-02 0. -1.
         -1   -1    0    0    0  501 -0.00000000000E+00 -0.00000000000E+00 -0.24796121450E+01  0.24796165427E+01  0.46700000000E-02 0.  1.
        -11    1    1    2    0    0 -0.10979484307E+01  0.99584466769E+01  0.12805107662E+02  0.16258749444E+02  0.51100000000E-03 0.  1.
         11    1    1    2    0    0  0.10979484307E+01 -0.99584466769E+01  0.32581760433E+02  0.34087347567E+02  0.51100000000E-03 0. -1.
<mgrwt>
<rscale>  0 0.21789027E+02</rscale>
<asrwt>0</asrwt>
<pdfrwt beam="1">  1        1 0.73640746E-02 0.21789027E+02</pdfrwt>
<pdfrwt beam="2">  1       -1 0.38147913E-03 0.21789027E+02</pdfrwt>
<totfact> 0.34320952E+06</totfact>
</mgrwt>
</event>
<event>
 4    1  0.4244376E-001  0.5154470E+02  0.7818608E-02  0.1437184E+00
          1   -1    0    0  501    0  0.00000000000E+00  0.00000000000E+00  0.17818382589E+03  0.17818382595E+03  0.46700000000E-02 0. -1.
         -1   -1    0    0    0  501 -0.00000000000E+00 -0.00000000000E+00 -0.37276884098E+01  0.37276913350E+01  0.46700000000E-02 0.  1.
        -11    1    1    2    0    0 -0.12329263995E+02  0.18499969663E+02  0.13323702800E+03  0.13507910741E+03  0.51100000000E-03 0. -1.
         11    1    1    2    0    0  0.12329263995E+02 -0.18499969663E+02  0.41219109477E+02  0.46832409873E+02  0.51100000000E-03 0.  1.
<mgrwt>
<rscale>  0 0.51544701E+02</rscale>
<asrwt>0</asrwt>
<pdfrwt beam="1">  1        1 0.27412895E-01 0.51544701E+02</pdfrwt>
<pdfrwt beam="2">  1       -1 0.57349078E-03 0.51544701E+02</pdfrwt>
<totfact> 0.51056959E+05</totfact>
</mgrwt>
</event>
<event>
 4    1  0.4244376E-001  0.2559693E+02  0.7818608E-02  0.1652573E+00
          1   -1    0    0  501    0  0.00000000000E+00  0.00000000000E+00  0.21886942824E+02  0.21886943322E+02  0.46700000000E-02 0.  1.
         -1   -1    0    0    0  501 -0.00000000000E+00 -0.00000000000E+00 -0.74839476378E+01  0.74839490949E+01  0.46700000000E-02 0. -1.
        -11    1    1    2    0    0 -0.12351046567E+02  0.33422417409E+01  0.68732594799E+01  0.14524483719E+02  0.51100000000E-03 0. -1.
         11    1    1    2    0    0  0.12351046567E+02 -0.33422417409E+01  0.75297357064E+01  0.14846408698E+02  0.51100000000E-03 0.  1.
<mgrwt>
<rscale>  0 0.25596934E+02</rscale>
<asrwt>0</asrwt>
<pdfrwt beam="1">  1        1 0.33672220E-02 0.25596934E+02</pdfrwt>
<pdfrwt beam="2">  1       -1 0.11513767E-02 0.25596934E+02</pdfrwt>
<totfact> 0.22644725E+06</totfact>
</mgrwt>
</event>
<event>
 4    1  0.4244376E-001  0.6682648E+02  0.7818608E-02  0.1371230E+00
          1   -1    0    0  501    0  0.00000000000E+00  0.00000000000E+00  0.90019168593E+01  0.90019180706E+01  0.46700000000E-02 0.  1.
         -1   -1    0    0    0  501 -0.00000000000E+00 -0.00000000000E+00 -0.12402298620E+03  0.12402298629E+03  0.46700000000E-02 0. -1.
        -11    1    1    2    0    0 -0.21168506764E+02  0.41396486027E+01 -0.10830803293E+03  0.11043492368E+03  0.51100000000E-03 0. -1.
         11    1    1    2    0    0  0.21168506764E+02 -0.41396486027E+01 -0.67130364067E+01  0.22589980682E+02  0.51100000000E-03 0.  1.
<mgrwt>
<rscale>  0 0.66826483E+02</rscale>
<asrwt>0</asrwt>
<pdfrwt beam="1">  1        1 0.13849105E-02 0.66826483E+02</pdfrwt>
<pdfrwt beam="2">  1       -1 0.19080458E-01 0.66826483E+02</pdfrwt>
<totfact> 0.17301096E+05</totfact>
</mgrwt>
</event>
<event>
 4    1  0.4244376E-001  0.2493076E+02  0.7818608E-02  0.1661998E+00
          1   -1    0    0  501    0  0.00000000000E+00  0.00000000000E+00  0.11147461386E+02  0.11147462364E+02  0.46700000000E-02 0. -1.
         -1   -1    0    0    0  501 -0.00000000000E+00 -0.00000000000E+00 -0.13939111594E+02  0.13939112376E+02  0.46700000000E-02 0.  1.
        -11    1    1    2    0    0 -0.10226101710E+02  0.54360731369E+01  0.32440321777E+01  0.12026961061E+02  0.51100000000E-03 0. -1.
         11    1    1    2    0    0  0.10226101710E+02 -0.54360731369E+01 -0.60356823855E+01  0.13059613679E+02  0.51100000000E-03 0.  1.
<mgrwt>
<rscale>  0 0.24930763E+02</rscale>
<asrwt>0</asrwt>
<pdfrwt beam="1">  1        1 0.17149942E-02 0.24930763E+02</pdfrwt>
<pdfrwt beam="2">  1       -1 0.21444788E-02 0.24930763E+02</pdfrwt>
<totfact> 0.23309253E+06</totfact>
</mgrwt>
</event>
<event>
 4    1  0.4244376E-001  0.2642506E+02  0.7818608E-02  0.1641338E+00
          1   -1    0    0  501    0  0.00000000000E+00  0.00000000000E+00  0.78031492914E+01  0.78031506889E+01  0.46700000000E-02 0.  1.
         -1   -1    0    0    0  501 -0.00000000000E+00 -0.00000000000E+00 -0.22371857269E+02  0.22371857756E+02  0.46700000000E-02 0. -1.
        -11    1    1    2    0    0  0.81480925303E+01 -0.10106887604E+02 -0.44801875762E+01  0.13733632801E+02  0.51100000000E-03 0. -1.
         11    1    1    2    0    0 -0.81480925303E+01  0.10106887604E+02 -0.10088520401E+02  0.16441375644E+02  0.51100000000E-03 0.  1.
<mgrwt>
<rscale>  0 0.26425062E+02</rscale>
<asrwt>0</asrwt>
<pdfrwt beam="1">  1        1 0.12004847E-02 0.26425062E+02</pdfrwt>
<pdfrwt beam="2">  1       -1 0.34418243E-02 0.26425062E+02</pdfrwt>
<totfact> 0.19892380E+06</totfact>
</mgrwt>
</event>
<event>
 4    1  0.4244376E-001  0.2581663E+02  0.7818608E-02  0.1649542E+00
         -1   -1    0    0    0  501 -0.00000000000E+00  0.00000000000E+00  0.60554929746E+02  0.60554929926E+02  0.46700000000E-02 0. -1.
          1   -1    0    0  501    0  0.00000000000E+00 -0.00000000000E+00 -0.27516249522E+01  0.27516289151E+01  0.46700000000E-02 0.  1.
        -11    1    1    2    0    0  0.69286044788E+01 -0.86778596048E+01  0.12763188019E+02  0.16917735546E+02  0.51100000000E-03 0.  1.
         11    1    1    2    0    0 -0.69286044788E+01  0.86778596048E+01  0.45040116775E+02  0.46388823295E+02  0.51100000000E-03 0. -1.
<mgrwt>
<rscale>  0 0.25816629E+02</rscale>
<asrwt>0</asrwt>
<pdfrwt beam="2">  1        1 0.42332722E-03 0.25816629E+02</pdfrwt>
<pdfrwt beam="1">  1       -1 0.93161436E-02 0.25816629E+02</pdfrwt>
<totfact> 0.19292634E+06</totfact>
</mgrwt>
</event>
<event>
 4    1  0.4244376E-001  0.5380142E+02  0.7818608E-02  0.1425854E+00
         -1   -1    0    0    0  501 -0.00000000000E+00  0.00000000000E+00  0.15883391409E+02  0.15883392095E+02  0.46700000000E-02 0. -1.
          1   -1    0    0  501    0  0.00000000000E+00 -0.00000000000E+00 -0.45560059005E+02  0.45560059245E+02  0.46700000000E-02 0.  1.
        -11    1    1    2    0    0  0.17187858217E+02  0.12928670818E+02 -0.33291237504E+02  0.39634322172E+02  0.51100000000E-03 0.  1.
         11    1    1    2    0    0 -0.17187858217E+02 -0.12928670818E+02  0.36145699076E+01  0.21809129168E+02  0.51100000000E-03 0. -1.
<mgrwt>
<rscale>  0 0.53801423E+02</rscale>
<asrwt>0</asrwt>
<pdfrwt beam="2">  1        1 0.70092399E-02 0.53801423E+02</pdfrwt>
<pdfrwt beam="1">  1       -1 0.24435988E-02 0.53801423E+02</pdfrwt>
<totfact> 0.38263692E+05</totfact>
</mgrwt>
</event>
<event>
 4    1  0.4244376E-001  0.4275698E+02  0.7818608E-02  0.1488851E+00
          1   -1    0    0  501    0  0.00000000000E+00  0.00000000000E+00  0.11710631437E+03  0.11710631447E+03  0.46700000000E-02 0. -1.
         -1   -1    0    0    0  501 -0.00000000000E+00 -0.00000000000E+00 -0.39027753857E+01  0.39027781798E+01  0.46700000000E-02 0.  1.
        -11    1    1    2    0    0 -0.94007204650E+01  0.19150019997E+02  0.60546777570E+02  0.64195086147E+02  0.51100000000E-03 0. -1.
         11    1    1    2    0    0  0.94007204650E+01 -0.19150019997E+02  0.52656761420E+02  0.56814006500E+02  0.51100000000E-03 0.  1.
<mgrwt>
<rscale>  0 0.42756979E+02</rscale>
<asrwt>0</asrwt>
<pdfrwt beam="1">  1        1 0.18016356E-01 0.42756979E+02</pdfrwt>
<pdfrwt beam="2">  1       -1 0.60042722E-03 0.42756979E+02</pdfrwt>
<totfact> 0.76260953E+05</totfact>
</mgrwt>
</event>
<event>
 4    1  0.4244376E-001  0.2903512E+02  0.7818608E-02  0.1609006E+00
          1   -1    0    0  501    0  0.00000000000E+00  0.00000000000E+00  0.56570686587E+01  0.56570705863E+01  0.46700000000E-02 0.  1.
         -1   -1    0    0    0  501 -0.00000000000E+00 -0.00000000000E+00 -0.37255956358E+02  0.37255956650E+02  0.46700000000E-02 0. -1.
        -11    1    1    2    0    0  0.70953649302E+01  0.81126033224E+01 -0.30174628137E+02  0.32041640402E+02  0.51100000000E-03 0. -1.
         11    1    1    2    0    0 -0.70953649302E+01 -0.81126033224E+01 -0.14242595621E+01  0.10871386835E+02  0.51100000000E-03 0.  1.
<mgrwt>
<rscale>  0 0.29035120E+02</rscale>
<asrwt>0</asrwt>
<pdfrwt beam="1">  1        1 0.87031845E-03 0.29035120E+02</pdfrwt>
<pdfrwt beam="2">  1       -1 0.57316856E-02 0.29035120E+02</pdfrwt>
<totfact> 0.15436008E+06</totfact>
</mgrwt>
</event>
<event>
 4    1  0.4244376E-001  0.3468272E+02  0.7818608E-02  0.1551436E+00
         -1   -1    0    0    0  501 -0.00000000000E+00  0.00000000000E+00  0.49215048033E+02  0.49215048255E+02  0.46700000000E-02 0. -1.
          1   -1    0    0  501    0  0.00000000000E+00 -0.00000000000E+00 -0.61103798261E+01  0.61103816107E+01  0.46700000000E-02 0.  1.
        -11    1    1    2    0    0 -0.10964268732E+02  0.91283165579E+01  0.58268819242E+01  0.15410837266E+02  0.51100000000E-03 0.  1.
         11    1    1    2    0    0  0.10964268732E+02 -0.91283165579E+01  0.37277786283E+02  0.39914592600E+02  0.51100000000E-03 0. -1.
<mgrwt>
<rscale>  0 0.34682716E+02</rscale>
<asrwt>0</asrwt>
<pdfrwt beam="2">  1        1 0.94005863E-03 0.34682716E+02</pdfrwt>
<pdfrwt beam="1">  1       -1 0.75715457E-02 0.34682716E+02</pdfrwt>
<totfact> 0.99119536E+05</totfact>
</mgrwt>
</event>
<event>
 4    1  0.4244376E-001  0.2113336E+02  0.7818608E-02  0.1723686E+00
          1   -1    0    0  501    0  0.00000000000E+00  0.00000000000E+00  0.13592488699E+01  0.13592568923E+01  0.46700000000E-02 0.  1.
         -1   -1    0    0    0  501 -0.00000000000E+00 -0.00000000000E+00 -0.82144145904E+02  0.82144146037E+02  0.46700000000E-02 0. -1.
        -11    1    1    2    0    0 -0.73198564451E+01  0.75911296100E+01 -0.37744423802E+02  0.39189884862E+02  0.51100000000E-03 0.  1.
         11    1    1    2    0    0  0.73198564451E+01 -0.75911296100E+01 -0.43040473233E+02  0.44313518067E+02  0.51100000000E-03 0. -1.
<mgrwt>
<rscale>  0 0.21133355E+02</rscale>
<asrwt>0</asrwt>
<pdfrwt beam="1">  1        1 0.20911590E-03 0.21133355E+02</pdfrwt>
<pdfrwt beam="2">  1       -1 0.12637558E-01 0.21133355E+02</pdfrwt>
<totfact> 0.29107722E+06</totfact>
</mgrwt>
</event>
<event>
 4    1  0.4244376E-001  0.4108053E+02  0.7818608E-02  0.1500407E+00
         -1   -1    0    0    0  501 -0.00000000000E+00  0.00000000000E+00  0.81137308471E+01  0.81137321911E+01  0.46700000000E-02 0. -1.
          1   -1    0    0  501    0  0.00000000000E+00 -0.00000000000E+00 -0.51998568766E+02  0.51998568976E+02  0.46700000000E-02 0.  1.
        -11    1    1    2    0    0  0.12617475968E+02 -0.60317806415E+01 -0.43955873130E+02  0.46127018768E+02  0.51100000000E-03 0.  1.
         11    1    1    2    0    0 -0.12617475968E+02  0.60317806415E+01  0.71035211025E-01  0.13985282399E+02  0.51100000000E-03 0. -1.
<mgrwt>
<rscale>  0 0.41080528E+02</rscale>
<asrwt>0</asrwt>
<pdfrwt beam="2">  1        1 0.79997797E-02 0.41080528E+02</pdfrwt>
<pdfrwt beam="1">  1       -1 0.12482664E-02 0.41080528E+02</pdfrwt>
<totfact> 0.76758940E+05</totfact>
</mgrwt>
</event>
<event>
 4    1  0.4244376E-001  0.2491204E+02  0.7818608E-02  0.1662269E+00
         -1   -1    0    0    0  501 -0.00000000000E+00  0.00000000000E+00  0.20121135959E+01  0.20121190153E+01  0.46700000000E-02 0. -1.
          1   -1    0    0  501    0  0.00000000000E+00 -0.00000000000E+00 -0.77109050197E+02  0.77109050338E+02  0.46700000000E-02 0.  1.
        -11    1    1    2    0    0  0.11844293360E+02 -0.32848602927E+01 -0.43959624908E+02  0.45645659319E+02  0.51100000000E-03 0.  1.
         11    1    1    2    0    0 -0.11844293360E+02  0.32848602927E+01 -0.31137311693E+02  0.33475510035E+02  0.51100000000E-03 0. -1.
<mgrwt>
<rscale>  0 0.24912036E+02</rscale>
<asrwt>0</asrwt>
<pdfrwt beam="2">  1        1 0.11862929E-01 0.24912036E+02</pdfrwt>
<pdfrwt beam="1">  1       -1 0.30955643E-03 0.24912036E+02</pdfrwt>
<totfact> 0.26331030E+06</totfact>
</mgrwt>
</event>
<event>
 4    1  0.4244376E-001  0.2325922E+02  0.7818608E-02  0.1687342E+00
          1   -1    0    0  501    0  0.00000000000E+00  0.00000000000E+00  0.68126283898E+02  0.68126284058E+02  0.46700000000E-02 0.  1.
         -1   -1    0    0    0  501 -0.00000000000E+00 -0.00000000000E+00 -0.19852493721E+01  0.19852548649E+01  0.46700000000E-02 0. -1.
        -11    1    1    2    0    0  0.10980625375E+02 -0.22382138412E+01  0.42441293785E+02  0.43895867154E+02  0.51100000000E-03 0.  1.
         11    1    1    2    0    0 -0.10980625375E+02  0.22382138412E+01  0.23699740741E+02  0.26215671769E+02  0.51100000000E-03 0. -1.
<mgrwt>
<rscale>  0 0.23259223E+02</rscale>
<asrwt>0</asrwt>
<pdfrwt beam="1">  1        1 0.10480965E-01 0.23259223E+02</pdfrwt>
<pdfrwt beam="2">  1       -1 0.30542347E-03 0.23259223E+02</pdfrwt>
<totfact> 0.30446067E+06</totfact>
</mgrwt>
</event>
<event>
 4    1  0.4244376E-001  0.2150031E+02  0.7818608E-02  0.1717040E+00
         -1   -1    0    0    0  501 -0.00000000000E+00  0.00000000000E+00  0.53895919504E+01  0.53895939736E+01  0.46700000000E-02 0. -1.
          1   -1    0    0  501    0  0.00000000000E+00 -0.00000000000E+00 -0.21442404299E+02  0.21442404807E+02  0.46700000000E-02 0.  1.
        -11    1    1    2    0    0 -0.60764804913E+01 -0.84885045360E+01 -0.48233155975E+01  0.11499682519E+02  0.51100000000E-03 0. -1.
         11    1    1    2    0    0  0.60764804913E+01  0.84885045360E+01 -0.11229496751E+02  0.15332316262E+02  0.51100000000E-03 0.  1.
<mgrwt>
<rscale>  0 0.21500311E+02</rscale>
<asrwt>0</asrwt>
<pdfrwt beam="2">  1        1 0.32988316E-02 0.21500311E+02</pdfrwt>
<pdfrwt beam="1">  1       -1 0.82916820E-03 0.21500311E+02</pdfrwt>
<totfact> 0.33821697E+06</totfact>
</mgrwt>
</event>
<event>
 4    1  0.4244376E-001  0.2429618E+02  0.7818608E-02  0.1671322E+00
          1   -1    0    0  501    0  0.00000000000E+00  0.00000000000E+00  0.44313105993E+02  0.44313106239E+02  0.46700000000E-02 0. -1.
         -1   -1    0    0    0  501 -0.00000000000E+00 -0.00000000000E+00 -0.33303015374E+01  0.33303048117E+01  0.46700000000E-02 0.  1.
        -11    1    1    2    0    0 -0.15098766315E+01  0.11926872754E+02  0.17068971911E+02  0.20877735114E+02  0.51100000000E-03 0.  1.
         11    1    1    2    0    0  0.15098766315E+01 -0.11926872754E+02  0.23913832545E+02  0.26765675937E+02  0.51100000000E-03 0. -1.
<mgrwt>
<rscale>  0 0.24296180E+02</rscale>
<asrwt>0</asrwt>
<pdfrwt beam="1">  1        1 0.68174007E-02 0.24296180E+02</pdfrwt>
<pdfrwt beam="2">  1       -1 0.51235439E-03 0.24296180E+02</pdfrwt>
<totfact> 0.26634282E+06</totfact>
</mgrwt>
</event>
<event>
 4    1  0.4244376E-001  0.7322918E+02  0.7818608E-02  0.1349444E+00
         -1   -1    0    0    0  501 -0.00000000000E+00  0.00000000000E+00  0.50315492591E+01  0.50315514263E+01  0.46700000000E-02 0. -1.
          1   -1    0    0  501    0  0.00000000000E+00 -0.00000000000E+00 -0.26644434127E+03  0.26644434132E+03  0.46700000000E-02 0.  1.
        -11    1    1    2    0    0 -0.72458739797E+01 -0.35495890422E+02 -0.15038158694E+03  0.15468381499E+03  0.51100000000E-03 0.  1.
         11    1    1    2    0    0  0.72458739797E+01  0.35495890422E+02 -0.11103120507E+03  0.11679207776E+03  0.51100000000E-03 0. -1.
<mgrwt>
<rscale>  0 0.73229178E+02</rscale>
<asrwt>0</asrwt>
<pdfrwt beam="2">  1        1 0.40991426E-01 0.73229178E+02</pdfrwt>
<pdfrwt beam="1">  1       -1 0.77408488E-03 0.73229178E+02</pdfrwt>
<totfact> 0.22323202E+05</totfact>
</mgrwt>
</event>
<event>
 4    1  0.4244376E-001  0.3800573E+02  0.7818608E-02  0.1523422E+00
         -1   -1    0    0    0  501 -0.00000000000E+00  0.00000000000E+00  0.41552611361E+02  0.41552611623E+02  0.46700000000E-02 0.  1.
          1   -1    0    0  501    0  0.00000000000E+00 -0.00000000000E+00 -0.86904011270E+01  0.86904023818E+01  0.46700000000E-02 0. -1.
        -11    1    1    2    0    0 -0.10754061653E+02  0.15024302025E+02  0.10559138365E+02  0.21280857517E+02  0.51100000000E-03 0. -1.
         11    1    1    2    0    0  0.10754061653E+02 -0.15024302025E+02  0.22303071869E+02  0.28962156488E+02  0.51100000000E-03 0.  1.
<mgrwt>
<rscale>  0 0.38005731E+02</rscale>
<asrwt>0</asrwt>
<pdfrwt beam="2">  1        1 0.13369849E-02 0.38005731E+02</pdfrwt>
<pdfrwt beam="1">  1       -1 0.63927094E-02 0.38005731E+02</pdfrwt>
<totfact> 0.81017656E+05</totfact>
</mgrwt>
</event>
<event>
 4    1  0.4244376E-001  0.6914017E+02  0.7818608E-02  0.1363042E+00
          1   -1    0    0  501    0  0.00000000000E+00  0.00000000000E+00  0.31581322722E+02  0.31581323067E+02  0.46700000000E-02 0. -1.
         -1   -1    0    0    0  501 -0.00000000000E+00 -0.00000000000E+00 -0.37841693007E+02  0.37841693296E+02  0.46700000000E-02 0.  1.
        -11    1    1    2    0    0  0.14890368425E+02 -0.30900207802E+02 -0.74541726887E+01  0.35101433088E+02  0.51100000000E-03 0. -1.
         11    1    1    2    0    0 -0.14890368425E+02  0.30900207802E+02  0.11938024031E+01  0.34321583275E+02  0.51100000000E-03 0.  1.
<mgrwt>
<rscale>  0 0.69140169E+02</rscale>
<asrwt>0</asrwt>
<pdfrwt beam="1">  1        1 0.48586651E-02 0.69140169E+02</pdfrwt>
<pdfrwt beam="2">  1       -1 0.58217989E-02 0.69140169E+02</pdfrwt>
<totfact> 0.18910703E+05</totfact>
</mgrwt>
</event>
<event>
 4    1  0.4244376E-001  0.2382210E+02  0.7818608E-02  0.1678520E+00
         -1   -1    0    0    0  501 -0.00000000000E+00  0.00000000000E+00  0.66511056449E+02  0.66511056613E+02  0.46700000000E-02 0. -1.
          1   -1    0    0  501    0  0.00000000000E+00 -0.00000000000E+00 -0.21330736398E+01  0.21330787519E+01  0.46700000000E-02 0.  1.
        -11    1    1    2    0    0 -0.96956245078E+01  0.69180689670E+01  0.32452289297E+02  0.34569001920E+02  0.51100000000E-03 0.  1.
         11    1    1    2    0    0  0.96956245078E+01 -0.69180689670E+01  0.31925693512E+02  0.34075133446E+02  0.51100000000E-03 0. -1.
<mgrwt>
<rscale>  0 0.23822104E+02</rscale>
<asrwt>0</asrwt>
<pdfrwt beam="2">  1        1 0.32816563E-03 0.23822104E+02</pdfrwt>
<pdfrwt beam="1">  1       -1 0.10232469E-01 0.23822104E+02</pdfrwt>
<totfact> 0.22905204E+06</totfact>
</mgrwt>
</event>
<event>
 4    1  0.4244376E-001  0.2672077E+02  0.7818608E-02  0.1637449E+00
         -1   -1    0    0    0  501 -0.00000000000E+00  0.00000000000E+00  0.21875935729E+02  0.21875936228E+02  0.46700000000E-02 0. -1.
          1   -1    0    0  501    0  0.00000000000E+00 -0.00000000000E+00 -0.81596431257E+01  0.81596444621E+01  0.46700000000E-02 0.  1.
        -11    1    1    2    0    0  0.11792202186E+02  0.19069491518E+01  0.13189166789E+00  0.11946124189E+02  0.51100000000E-03 0.  1.
         11    1    1    2    0    0 -0.11792202186E+02 -0.19069491518E+01  0.13584400936E+02  0.18089456501E+02  0.51100000000E-03 0. -1.
<mgrwt>
<rscale>  0 0.26720768E+02</rscale>
<asrwt>0</asrwt>
<pdfrwt beam="2">  1        1 0.12553299E-02 0.26720768E+02</pdfrwt>
<pdfrwt beam="1">  1       -1 0.33655286E-02 0.26720768E+02</pdfrwt>
<totfact> 0.19418965E+06</totfact>
</mgrwt>
</event>
<event>
 4    1  0.4244376E-001  0.3339730E+02  0.7818608E-02  0.1563311E+00
         -1   -1    0    0    0  501 -0.00000000000E+00  0.00000000000E+00  0.31394958982E+01  0.31394993715E+01  0.46700000000E-02 0. -1.
          1   -1    0    0  501    0  0.00000000000E+00 -0.00000000000E+00 -0.88818341341E+02  0.88818341463E+02  0.46700000000E-02 0.  1.
        -11    1    1    2    0    0  0.16066351250E+01  0.12803579459E+02 -0.13656471214E+02  0.18788617023E+02  0.51100000000E-03 0. -1.
         11    1    1    2    0    0 -0.16066351250E+01 -0.12803579459E+02 -0.72022374229E+02  0.73169223812E+02  0.51100000000E-03 0.  1.
<mgrwt>
<rscale>  0 0.33397304E+02</rscale>
<asrwt>0</asrwt>
<pdfrwt beam="2">  1        1 0.13664359E-01 0.33397304E+02</pdfrwt>
<pdfrwt beam="1">  1       -1 0.48299971E-03 0.33397304E+02</pdfrwt>
<totfact> 0.13432598E+06</totfact>
</mgrwt>
</event>
<event>
 4    1  0.4244376E-001  0.5809687E+02  0.7818608E-02  0.1405996E+00
         -1   -1    0    0    0  501 -0.00000000000E+00  0.00000000000E+00  0.73142726997E+02  0.73142727146E+02  0.46700000000E-02 0.  1.
          1   -1    0    0  501    0  0.00000000000E+00 -0.00000000000E+00 -0.11536505148E+02  0.11536506093E+02  0.46700000000E-02 0. -1.
        -11    1    1    2    0    0  0.17247105873E+02 -0.18486883295E+02  0.99553214803E+01  0.27172337790E+02  0.51100000000E-03 0. -1.
         11    1    1    2    0    0 -0.17247105873E+02  0.18486883295E+02  0.51650900369E+02  0.57506895448E+02  0.51100000000E-03 0.  1.
<mgrwt>
<rscale>  0 0.58096867E+02</rscale>
<asrwt>0</asrwt>
<pdfrwt beam="2">  1        1 0.17748470E-02 0.58096867E+02</pdfrwt>
<pdfrwt beam="1">  1       -1 0.11252728E-01 0.58096867E+02</pdfrwt>
<totfact> 0.26872337E+05</totfact>
</mgrwt>
</event>
<event>
 4    1  0.4244376E-001  0.2373491E+02  0.7818608E-02  0.1679867E+00
         -1   -1    0    0    0  501 -0.00000000000E+00  0.00000000000E+00  0.25566111592E+02  0.25566112018E+02  0.46700000000E-02 0.  1.
          1   -1    0    0  501    0  0.00000000000E+00 -0.00000000000E+00 -0.55087156823E+01  0.55087176617E+01  0.46700000000E-02 0. -1.
        -11    1    1    2    0    0  0.13447026706E+01 -0.11772889662E+02  0.10884548947E+02  0.16089827914E+02  0.51100000000E-03 0.  1.
         11    1    1    2    0    0 -0.13447026706E+01  0.11772889662E+02  0.91728469623E+01  0.14985001766E+02  0.51100000000E-03 0. -1.
<mgrwt>
<rscale>  0 0.23734909E+02</rscale>
<asrwt>0</asrwt>
<pdfrwt beam="2">  1        1 0.84749491E-03 0.23734909E+02</pdfrwt>
<pdfrwt beam="1">  1       -1 0.39332481E-02 0.23734909E+02</pdfrwt>
<totfact> 0.25177186E+06</totfact>
</mgrwt>
</event>
<event>
 4    1  0.4244376E-001  0.2808762E+02  0.7818608E-02  0.1620243E+00
          1   -1    0    0  501    0  0.00000000000E+00  0.00000000000E+00  0.30274747313E+01  0.30274783331E+01  0.46700000000E-02 0.  1.
         -1   -1    0    0    0  501 -0.00000000000E+00 -0.00000000000E+00 -0.65146188985E+02  0.65146189152E+02  0.46700000000E-02 0. -1.
        -11    1    1    2    0    0 -0.13914927605E+02  0.18962813337E+01 -0.30849493083E+02  0.33895609109E+02  0.51100000000E-03 0. -1.
         11    1    1    2    0    0  0.13914927605E+02 -0.18962813337E+01 -0.31269221171E+02  0.34278058376E+02  0.51100000000E-03 0.  1.
<mgrwt>
<rscale>  0 0.28087618E+02</rscale>
<asrwt>0</asrwt>
<pdfrwt beam="1">  1        1 0.46576568E-03 0.28087618E+02</pdfrwt>
<pdfrwt beam="2">  1       -1 0.10022490E-01 0.28087618E+02</pdfrwt>
<totfact> 0.15755217E+06</totfact>
</mgrwt>
</event>
<event>
 4    1  0.4244376E-001  0.1774214E+03  0.7818608E-02  0.1170322E+00
         -1   -1    0    0    0  501 -0.00000000000E+00  0.00000000000E+00  0.11869896379E+03  0.11869896388E+03  0.46700000000E-02 0.  1.
          1   -1    0    0  501    0  0.00000000000E+00 -0.00000000000E+00 -0.66298699646E+02  0.66298699811E+02  0.46700000000E-02 0. -1.
        -11    1    1    2    0    0 -0.45178807381E+02  0.62978131207E+02  0.71196292843E+02  0.10524391556E+03  0.51100000000E-03 0.  1.
         11    1    1    2    0    0  0.45178807381E+02 -0.62978131207E+02 -0.18796028700E+02  0.79753748136E+02  0.51100000000E-03 0. -1.
<mgrwt>
<rscale>  0 0.17742139E+03</rscale>
<asrwt>0</asrwt>
<pdfrwt beam="2">  1        1 0.10199800E-01 0.17742139E+03</pdfrwt>
<pdfrwt beam="1">  1       -1 0.18261379E-01 0.17742139E+03</pdfrwt>
<totfact> 0.13957688E+04</totfact>
</mgrwt>
</event>
<event>
 4    1  0.4244376E-001  0.2928039E+02  0.7818608E-02  0.1606182E+00
         -1   -1    0    0    0  501 -0.00000000000E+00  0.00000000000E+00  0.40462743988E+01  0.40462770937E+01  0.46700000000E-02 0. -1.
          1   -1    0    0  501    0  0.00000000000E+00 -0.00000000000E+00 -0.52971001393E+02  0.52971001599E+02  0.46700000000E-02 0.  1.
        -11    1    1    2    0    0  0.81656033908E+01 -0.62352337799E+01 -0.44772101283E+02  0.45935784227E+02  0.51100000000E-03 0.  1.
         11    1    1    2    0    0 -0.81656033908E+01  0.62352337799E+01 -0.41526257114E+01  0.11081494465E+02  0.51100000000E-03 0. -1.
<mgrwt>
<rscale>  0 0.29280389E+02</rscale>
<asrwt>0</asrwt>
<pdfrwt beam="2">  1        1 0.81493846E-02 0.29280389E+02</pdfrwt>
<pdfrwt beam="1">  1       -1 0.62250401E-03 0.29280389E+02</pdfrwt>
<totfact> 0.17468927E+06</totfact>
</mgrwt>
</event>
<event>
 4    1  0.4244376E-001  0.2722343E+02  0.7818608E-02  0.1630977E+00
         -1   -1    0    0    0  501 -0.00000000000E+00  0.00000000000E+00  0.73859066335E+02  0.73859066482E+02  0.46700000000E-02 0.  1.
          1   -1    0    0  501    0  0.00000000000E+00 -0.00000000000E+00 -0.25085428723E+01  0.25085472192E+01  0.46700000000E-02 0. -1.
        -11    1    1    2    0    0  0.53978817473E+01  0.99448476754E+01  0.14451490762E+02  0.18354364826E+02  0.51100000000E-03 0. -1.
         11    1    1    2    0    0 -0.53978817473E+01 -0.99448476754E+01  0.56899032700E+02  0.58013248876E+02  0.51100000000E-03 0.  1.
<mgrwt>
<rscale>  0 0.27223432E+02</rscale>
<asrwt>0</asrwt>
<pdfrwt beam="2">  1        1 0.38592997E-03 0.27223432E+02</pdfrwt>
<pdfrwt beam="1">  1       -1 0.11362935E-01 0.27223432E+02</pdfrwt>
<totfact> 0.16666822E+06</totfact>
</mgrwt>
</event>
<event>
 4    1  0.4244376E-001  0.3200745E+02  0.7818608E-02  0.1576903E+00
          1   -1    0    0  501    0  0.00000000000E+00  0.00000000000E+00  0.71030047531E+01  0.71030062883E+01  0.46700000000E-02 0. -1.
         -1   -1    0    0    0  501 -0.00000000000E+00 -0.00000000000E+00 -0.36057858813E+02  0.36057859115E+02  0.46700000000E-02 0.  1.
        -11    1    1    2    0    0 -0.40371509657E+01 -0.99452396161E+01 -0.30484588359E+02  0.32318980593E+02  0.51100000000E-03 0.  1.
         11    1    1    2    0    0  0.40371509657E+01  0.99452396161E+01  0.15297342992E+01  0.10841884810E+02  0.51100000000E-03 0. -1.
<mgrwt>
<rscale>  0 0.32007448E+02</rscale>
<asrwt>0</asrwt>
<pdfrwt beam="1">  1        1 0.10927701E-02 0.32007448E+02</pdfrwt>
<pdfrwt beam="2">  1       -1 0.55473629E-02 0.32007448E+02</pdfrwt>
<totfact> 0.12327424E+06</totfact>
</mgrwt>
</event>
<event>
 4    1  0.4244376E-001  0.2961467E+02  0.7818608E-02  0.1602387E+00
          1   -1    0    0  501    0  0.00000000000E+00  0.00000000000E+00  0.18761293489E+02  0.18761294070E+02  0.46700000000E-02 0.  1.
         -1   -1    0    0    0  501 -0.00000000000E+00 -0.00000000000E+00 -0.11686675823E+02  0.11686676756E+02  0.46700000000E-02 0. -1.
        -11    1    1    2    0    0  0.33814216876E+01 -0.11161811058E+02 -0.58428463107E+01  0.13044496617E+02  0.51100000000E-03 0. -1.
         11    1    1    2    0    0 -0.33814216876E+01  0.11161811058E+02  0.12917463976E+02  0.17403474209E+02  0.51100000000E-03 0.  1.
<mgrwt>
<rscale>  0 0.29614671E+02</rscale>
<asrwt>0</asrwt>
<pdfrwt beam="1">  1        1 0.28863530E-02 0.29614671E+02</pdfrwt>
<pdfrwt beam="2">  1       -1 0.17979502E-02 0.29614671E+02</pdfrwt>
<totfact> 0.15896031E+06</totfact>
</mgrwt>
</event>
<event>
 4    1  0.4244376E-001  0.2665467E+02  0.7818608E-02  0.1638313E+00
          1   -1    0    0  501    0  0.00000000000E+00  0.00000000000E+00  0.89118677488E+01  0.89118689723E+01  0.46700000000E-02 0. -1.
         -1   -1    0    0    0  501 -0.00000000000E+00 -0.00000000000E+00 -0.19930484663E+02  0.19930485210E+02  0.46700000000E-02 0.  1.
        -11    1    1    2    0    0 -0.12917035444E+02 -0.21008266578E+01 -0.27815795889E+01  0.13379105447E+02  0.51100000000E-03 0. -1.
         11    1    1    2    0    0  0.12917035444E+02  0.21008266578E+01 -0.82370373256E+01  0.15463248736E+02  0.51100000000E-03 0.  1.
<mgrwt>
<rscale>  0 0.26654671E+02</rscale>
<asrwt>0</asrwt>
<pdfrwt beam="1">  1        1 0.13710567E-02 0.26654671E+02</pdfrwt>
<pdfrwt beam="2">  1       -1 0.30662285E-02 0.26654671E+02</pdfrwt>
<totfact> 0.19638674E+06</totfact>
</mgrwt>
</event>
<event>
 4    1  0.4244376E-001  0.2487461E+02  0.7818608E-02  0.1662809E+00
          1   -1    0    0  501    0  0.00000000000E+00  0.00000000000E+00  0.22795988017E+01  0.22796035852E+01  0.46700000000E-02 0.  1.
         -1   -1    0    0    0  501 -0.00000000000E+00 -0.00000000000E+00 -0.67856866727E+02  0.67856866888E+02  0.46700000000E-02 0. -1.
        -11    1    1    2    0    0 -0.86120249131E+01  0.62610853387E+01 -0.14664405514E+02  0.18122167422E+02  0.51100000000E-03 0.  1.
         11    1    1    2    0    0  0.86120249131E+01 -0.62610853387E+01 -0.50912862411E+02  0.52014303051E+02  0.51100000000E-03 0. -1.
<mgrwt>
<rscale>  0 0.24874614E+02</rscale>
<asrwt>0</asrwt>
<pdfrwt beam="1">  1        1 0.35070794E-03 0.24874614E+02</pdfrwt>
<pdfrwt beam="2">  1       -1 0.10439517E-01 0.24874614E+02</pdfrwt>
<totfact> 0.20715600E+06</totfact>
</mgrwt>
</event>
<event>
 4    1  0.4244376E-001  0.3306474E+02  0.7818608E-02  0.1566490E+00
         -1   -1    0    0    0  501 -0.00000000000E+00  0.00000000000E+00  0.80774024952E+01  0.80774038452E+01  0.46700000000E-02 0.  1.
          1   -1    0    0  501    0  0.00000000000E+00 -0.00000000000E+00 -0.33837508437E+02  0.33837508759E+02  0.46700000000E-02 0. -1.
        -11    1    1    2    0    0 -0.14793369777E+02 -0.52458673486E+01 -0.19461685052E+02  0.25002401863E+02  0.51100000000E-03 0. -1.
         11    1    1    2    0    0  0.14793369777E+02  0.52458673486E+01 -0.62984208902E+01  0.16912510741E+02  0.51100000000E-03 0.  1.
<mgrwt>
<rscale>  0 0.33064737E+02</rscale>
<asrwt>0</asrwt>
<pdfrwt beam="2">  1        1 0.52057706E-02 0.33064737E+02</pdfrwt>
<pdfrwt beam="1">  1       -1 0.12426775E-02 0.33064737E+02</pdfrwt>
<totfact> 0.12631272E+06</totfact>
</mgrwt>
</event>
<event>
 4    1  0.4244376E-001  0.2616525E+02  0.7818608E-02  0.1644808E+00
         -1   -1    0    0    0  501 -0.00000000000E+00  0.00000000000E+00  0.10371814012E+03  0.10371814023E+03  0.46700000000E-02 0.  1.
          1   -1    0    0  501    0  0.00000000000E+00 -0.00000000000E+00 -0.16501908457E+01  0.16501974537E+01  0.46700000000E-02 0. -1.
        -11    1    1    2    0    0 -0.15150097086E+01 -0.12533567290E+02  0.37218540812E+02  0.39301467452E+02  0.51100000000E-03 0. -1.
         11    1    1    2    0    0  0.15150097086E+01  0.12533567290E+02  0.64849408467E+02  0.66066870231E+02  0.51100000000E-03 0.  1.
<mgrwt>
<rscale>  0 0.26165250E+02</rscale>
<asrwt>0</asrwt>
<pdfrwt beam="2">  1        1 0.25387606E-03 0.26165250E+02</pdfrwt>
<pdfrwt beam="1">  1       -1 0.15956635E-01 0.26165250E+02</pdfrwt>
<totfact> 0.17348739E+06</totfact>
</mgrwt>
</event>
<event>
 4    1  0.4244376E-001  0.3216114E+02  0.7818608E-02  0.1575359E+00
         -1   -1    0    0    0  501 -0.00000000000E+00  0.00000000000E+00  0.11148168209E+02  0.11148169188E+02  0.46700000000E-02 0. -1.
          1   -1    0    0  501    0  0.00000000000E+00 -0.00000000000E+00 -0.23195260954E+02  0.23195261424E+02  0.46700000000E-02 0.  1.
        -11    1    1    2    0    0 -0.15046988158E+02  0.40734659440E+01 -0.10238492870E+02  0.18650247021E+02  0.51100000000E-03 0.  1.
         11    1    1    2    0    0  0.15046988158E+02 -0.40734659440E+01 -0.18085998739E+01  0.15693183590E+02  0.51100000000E-03 0. -1.
<mgrwt>
<rscale>  0 0.32161138E+02</rscale>
<asrwt>0</asrwt>
<pdfrwt beam="2">  1        1 0.35685018E-02 0.32161138E+02</pdfrwt>
<pdfrwt beam="1">  1       -1 0.17151029E-02 0.32161138E+02</pdfrwt>
<totfact> 0.13184322E+06</totfact>
</mgrwt>
</event>
<event>
 4    1  0.4244376E-001  0.4051107E+02  0.7818608E-02  0.1504484E+00
         -1   -1    0    0    0  501 -0.00000000000E+00  0.00000000000E+00  0.90314433019E+02  0.90314433140E+02  0.46700000000E-02 0.  1.
          1   -1    0    0  501    0  0.00000000000E+00 -0.00000000000E+00 -0.45428678977E+01  0.45428702980E+01  0.46700000000E-02 0. -1.
        -11    1    1    2    0    0 -0.64411100531E+01  0.19078346268E+02  0.37747522341E+02  0.42782550627E+02  0.51100000000E-03 0. -1.
         11    1    1    2    0    0  0.64411100531E+01 -0.19078346268E+02  0.48024042781E+02  0.52074752811E+02  0.51100000000E-03 0.  1.
<mgrwt>
<rscale>  0 0.40511068E+02</rscale>
<asrwt>0</asrwt>
<pdfrwt beam="2">  1        1 0.69890297E-03 0.40511068E+02</pdfrwt>
<pdfrwt beam="1">  1       -1 0.13894528E-01 0.40511068E+02</pdfrwt>
<totfact> 0.63307372E+05</totfact>
</mgrwt>
</event>
<event>
 4    1  0.4244376E-001  0.2840082E+02  0.7818608E-02  0.1616469E+00
          1   -1    0    0  501    0  0.00000000000E+00  0.00000000000E+00  0.11162422145E+03  0.11162422155E+03  0.46700000000E-02 0. -1.
         -1   -1    0    0    0  501 -0.00000000000E+00 -0.00000000000E+00 -0.18065190221E+01  0.18065250582E+01  0.46700000000E-02 0.  1.
        -11    1    1    2    0    0  0.12496130506E+02  0.67424881908E+01  0.54138506417E+02  0.55969565854E+02  0.51100000000E-03 0. -1.
         11    1    1    2    0    0 -0.12496130506E+02 -0.67424881908E+01  0.55679196010E+02  0.57461180751E+02  0.51100000000E-03 0.  1.
<mgrwt>
<rscale>  0 0.28400819E+02</rscale>
<asrwt>0</asrwt>
<pdfrwt beam="1">  1        1 0.17172961E-01 0.28400819E+02</pdfrwt>
<pdfrwt beam="2">  1       -1 0.27792643E-03 0.28400819E+02</pdfrwt>
<totfact> 0.20258698E+06</totfact>
</mgrwt>
</event>
<event>
 4    1  0.4244376E-001  0.2392740E+02  0.7818608E-02  0.1676904E+00
          1   -1    0    0  501    0  0.00000000000E+00  0.00000000000E+00  0.10518431284E+02  0.10518432321E+02  0.46700000000E-02 0. -1.
         -1   -1    0    0    0  501 -0.00000000000E+00 -0.00000000000E+00 -0.13607552649E+02  0.13607553451E+02  0.46700000000E-02 0.  1.
        -11    1    1    2    0    0  0.83362320186E+01 -0.71542196125E+01 -0.63225073774E+01  0.12674767151E+02  0.51100000000E-03 0. -1.
         11    1    1    2    0    0 -0.83362320186E+01  0.71542196125E+01  0.32333860123E+01  0.11451218621E+02  0.51100000000E-03 0.  1.
<mgrwt>
<rscale>  0 0.23927401E+02</rscale>
<asrwt>0</asrwt>
<pdfrwt beam="1">  1        1 0.16182203E-02 0.23927401E+02</pdfrwt>
<pdfrwt beam="2">  1       -1 0.20934698E-02 0.23927401E+02</pdfrwt>
<totfact> 0.25600265E+06</totfact>
</mgrwt>
</event>
<event>
 4    1  0.4244376E-001  0.2279930E+02  0.7818608E-02  0.1694784E+00
         -1   -1    0    0    0  501 -0.00000000000E+00  0.00000000000E+00  0.54444993323E+02  0.54444993523E+02  0.46700000000E-02 0.  1.
          1   -1    0    0  501    0  0.00000000000E+00 -0.00000000000E+00 -0.23868470567E+01  0.23868516253E+01  0.46700000000E-02 0. -1.
        -11    1    1    2    0    0  0.98976378615E+01  0.43535512901E+01  0.17029294380E+02  0.20172097348E+02  0.51100000000E-03 0.  1.
         11    1    1    2    0    0 -0.98976378615E+01 -0.43535512901E+01  0.35028851886E+02  0.36659747801E+02  0.51100000000E-03 0. -1.
<mgrwt>
<rscale>  0 0.22799299E+02</rscale>
<asrwt>0</asrwt>
<pdfrwt beam="2">  1        1 0.36720761E-03 0.22799299E+02</pdfrwt>
<pdfrwt beam="1">  1       -1 0.83761531E-02 0.22799299E+02</pdfrwt>
<totfact> 0.25873392E+06</totfact>
</mgrwt>
</event>
<event>
 4    1  0.4244376E-001  0.2341783E+02  0.7818608E-02  0.1684825E+00
         -1   -1    0    0    0  501 -0.00000000000E+00  0.00000000000E+00  0.63569994501E+02  0.63569994672E+02  0.46700000000E-02 0.  1.
          1   -1    0    0  501    0  0.00000000000E+00 -0.00000000000E+00 -0.21566553710E+01  0.21566604272E+01  0.46700000000E-02 0. -1.
        -11    1    1    2    0    0 -0.43641503280E+00 -0.10605253206E+02  0.44581182613E+02  0.45827324786E+02  0.51100000000E-03 0.  1.
         11    1    1    2    0    0  0.43641503280E+00  0.10605253206E+02  0.16832156517E+02  0.19899330313E+02  0.51100000000E-03 0. -1.
<mgrwt>
<rscale>  0 0.23417834E+02</rscale>
<asrwt>0</asrwt>
<pdfrwt beam="2">  1        1 0.33179348E-03 0.23417834E+02</pdfrwt>
<pdfrwt beam="1">  1       -1 0.97800013E-02 0.23417834E+02</pdfrwt>
<totfact> 0.23937886E+06</totfact>
</mgrwt>
</event>
<event>
 4    1  0.4244376E-001  0.2518847E+02  0.7818608E-02  0.1658309E+00
         -1   -1    0    0    0  501 -0.00000000000E+00  0.00000000000E+00  0.34651517294E+02  0.34651517609E+02  0.46700000000E-02 0. -1.
          1   -1    0    0  501    0  0.00000000000E+00 -0.00000000000E+00 -0.45774256658E+01  0.45774280480E+01  0.46700000000E-02 0.  1.
        -11    1    1    2    0    0 -0.61824041773E+01 -0.87272038246E+01  0.46795126357E+01  0.11674075843E+02  0.51100000000E-03 0.  1.
         11    1    1    2    0    0  0.61824041773E+01  0.87272038246E+01  0.25394578993E+02  0.27554869814E+02  0.51100000000E-03 0. -1.
<mgrwt>
<rscale>  0 0.25188473E+02</rscale>
<asrwt>0</asrwt>
<pdfrwt beam="2">  1        1 0.70421955E-03 0.25188473E+02</pdfrwt>
<pdfrwt beam="1">  1       -1 0.53310028E-02 0.25188473E+02</pdfrwt>
<totfact> 0.21528508E+06</totfact>
</mgrwt>
</event>
<event>
 4    1  0.4244376E-001  0.2320180E+02  0.7818608E-02  0.1688260E+00
          1   -1    0    0  501    0  0.00000000000E+00  0.00000000000E+00  0.23457595852E+02  0.23457596317E+02  0.46700000000E-02 0. -1.
         -1   -1    0    0    0  501 -0.00000000000E+00 -0.00000000000E+00 -0.57371989633E+01  0.57372008639E+01  0.46700000000E-02 0.  1.
        -11    1    1    2    0    0  0.98592526796E+01 -0.29924636983E+01  0.15568384715E+02  0.18669073498E+02  0.51100000000E-03 0. -1.
         11    1    1    2    0    0 -0.98592526796E+01  0.29924636983E+01  0.21520121738E+01  0.10525723683E+02  0.51100000000E-03 0.  1.
<mgrwt>
<rscale>  0 0.23201804E+02</rscale>
<asrwt>0</asrwt>
<pdfrwt beam="1">  1        1 0.36088611E-02 0.23201804E+02</pdfrwt>
<pdfrwt beam="2">  1       -1 0.88264617E-03 0.23201804E+02</pdfrwt>
<totfact> 0.28538755E+06</totfact>
</mgrwt>
</event>
<event>
 4    1  0.4244376E-001  0.3548129E+02  0.7818608E-02  0.1544368E+00
         -1   -1    0    0    0  501 -0.00000000000E+00  0.00000000000E+00  0.16603074185E+02  0.16603074842E+02  0.46700000000E-02 0. -1.
          1   -1    0    0  501    0  0.00000000000E+00 -0.00000000000E+00 -0.18956159714E+02  0.18956160289E+02  0.46700000000E-02 0.  1.
        -11    1    1    2    0    0  0.14689356839E+02 -0.72066464016E+01 -0.80485427974E+01  0.18234363112E+02  0.51100000000E-03 0.  1.
         11    1    1    2    0    0 -0.14689356839E+02  0.72066464016E+01  0.56954572686E+01  0.17324872018E+02  0.51100000000E-03 0. -1.
<mgrwt>
<rscale>  0 0.35481294E+02</rscale>
<asrwt>0</asrwt>
<pdfrwt beam="2">  1        1 0.29163324E-02 0.35481294E+02</pdfrwt>
<pdfrwt beam="1">  1       -1 0.25543192E-02 0.35481294E+02</pdfrwt>
<totfact> 0.10232461E+06</totfact>
</mgrwt>
</event>
<event>
 4    1  0.4244376E-001  0.5956473E+02  0.7818608E-02  0.1399668E+00
          1   -1    0    0  501    0  0.00000000000E+00  0.00000000000E+00  0.26384115452E+03  0.26384115457E+03  0.46700000000E-02 0. -1.
         -1   -1    0    0    0  501 -0.00000000000E+00 -0.00000000000E+00 -0.33618287706E+01  0.33618320142E+01  0.46700000000E-02 0.  1.
        -11    1    1    2    0    0  0.18666096501E+02 -0.22755429849E+02  0.15067721875E+03  0.15352477650E+03  0.51100000000E-03 0. -1.
         11    1    1    2    0    0 -0.18666096501E+02  0.22755429849E+02  0.10980210700E+03  0.11367821008E+03  0.51100000000E-03 0.  1.
<mgrwt>
<rscale>  0 0.59564729E+02</rscale>
<asrwt>0</asrwt>
<pdfrwt beam="1">  1        1 0.40590951E-01 0.59564729E+02</pdfrwt>
<pdfrwt beam="2">  1       -1 0.51720463E-03 0.59564729E+02</pdfrwt>
<totfact> 0.37943631E+05</totfact>
</mgrwt>
</event>
<event>
 4    1  0.4244376E-001  0.8513794E+02  0.7818608E-02  0.1315072E+00
         -1   -1    0    0    0  501 -0.00000000000E+00  0.00000000000E+00  0.10277277970E+02  0.10277279031E+02  0.46700000000E-02 0.  1.
          1   -1    0    0  501    0  0.00000000000E+00 -0.00000000000E+00 -0.17632266196E+03  0.17632266202E+03  0.46700000000E-02 0. -1.
        -11    1    1    2    0    0 -0.30105639165E+02  0.30002978456E+02 -0.77841244748E+02  0.88689275619E+02  0.51100000000E-03 0.  1.
         11    1    1    2    0    0  0.30105639165E+02 -0.30002978456E+02 -0.88204139237E+02  0.97910665428E+02  0.51100000000E-03 0. -1.
<mgrwt>
<rscale>  0 0.85137938E+02</rscale>
<asrwt>0</asrwt>
<pdfrwt beam="2">  1        1 0.27126561E-01 0.85137938E+02</pdfrwt>
<pdfrwt beam="1">  1       -1 0.15811199E-02 0.85137938E+02</pdfrwt>
<totfact> 0.13883336E+05</totfact>
</mgrwt>
</event>
<event>
 4    1  0.4244376E-001  0.3658490E+02  0.7818608E-02  0.1534960E+00
          1   -1    0    0  501    0  0.00000000000E+00  0.00000000000E+00  0.61511248979E+02  0.61511249156E+02  0.46700000000E-02 0. -1.
         -1   -1    0    0    0  501 -0.00000000000E+00 -0.00000000000E+00 -0.54398786019E+01  0.54398806064E+01  0.46700000000E-02 0.  1.
        -11    1    1    2    0    0 -0.23414170195E+01 -0.16900112099E+02  0.40107966378E+02  0.43586064171E+02  0.51100000000E-03 0. -1.
         11    1    1    2    0    0  0.23414170195E+01  0.16900112099E+02  0.15963403999E+02  0.23365065592E+02  0.51100000000E-03 0.  1.
<mgrwt>
<rscale>  0 0.36584904E+02</rscale>
<asrwt>0</asrwt>
<pdfrwt beam="1">  1        1 0.94632694E-02 0.36584904E+02</pdfrwt>
<pdfrwt beam="2">  1       -1 0.83690456E-03 0.36584904E+02</pdfrwt>
<totfact> 0.10369962E+06</totfact>
</mgrwt>
</event>
<event>
 4    1  0.4244376E-001  0.2451529E+02  0.7818608E-02  0.1668063E+00
          1   -1    0    0  501    0  0.00000000000E+00  0.00000000000E+00  0.36450708211E+01  0.36450738127E+01  0.46700000000E-02 0. -1.
         -1   -1    0    0    0  501 -0.00000000000E+00 -0.00000000000E+00 -0.41220006400E+02  0.41220006665E+02  0.46700000000E-02 0.  1.
        -11    1    1    2    0    0 -0.74374468922E+01 -0.97230916579E+01 -0.19938804841E+02  0.23396796071E+02  0.51100000000E-03 0. -1.
         11    1    1    2    0    0  0.74374468922E+01  0.97230916579E+01 -0.17636130738E+02  0.21468284406E+02  0.51100000000E-03 0.  1.
<mgrwt>
<rscale>  0 0.24515294E+02</rscale>
<asrwt>0</asrwt>
<pdfrwt beam="1">  1        1 0.56078041E-03 0.24515294E+02</pdfrwt>
<pdfrwt beam="2">  1       -1 0.63415394E-02 0.24515294E+02</pdfrwt>
<totfact> 0.22568234E+06</totfact>
</mgrwt>
</event>
<event>
 4    1  0.4244376E-001  0.7972327E+02  0.7818608E-02  0.1329839E+00
          1   -1    0    0  501    0  0.00000000000E+00  0.00000000000E+00  0.46229440177E+02  0.46229440413E+02  0.46700000000E-02 0. -1.
         -1   -1    0    0    0  501 -0.00000000000E+00 -0.00000000000E+00 -0.34370951732E+02  0.34370952049E+02  0.46700000000E-02 0.  1.
        -11    1    1    2    0    0 -0.69786458884E+01 -0.15635956326E+02  0.42322023723E+02  0.45654554219E+02  0.51100000000E-03 0. -1.
         11    1    1    2    0    0  0.69786458884E+01  0.15635956326E+02 -0.30463535277E+02  0.34945838243E+02  0.51100000000E-03 0.  1.
<mgrwt>
<rscale>  0 0.79723268E+02</rscale>
<asrwt>0</asrwt>
<pdfrwt beam="1">  1        1 0.71122215E-02 0.79723268E+02</pdfrwt>
<pdfrwt beam="2">  1       -1 0.52878388E-02 0.79723268E+02</pdfrwt>
<totfact> 0.13446444E+05</totfact>
</mgrwt>
</event>
<event>
 4    1  0.4244376E-001  0.3049386E+02  0.7818608E-02  0.1592693E+00
         -1   -1    0    0    0  501 -0.00000000000E+00  0.00000000000E+00  0.44323338256E+01  0.44323362858E+01  0.46700000000E-02 0.  1.
          1   -1    0    0  501    0  0.00000000000E+00 -0.00000000000E+00 -0.52448395599E+02  0.52448395807E+02  0.46700000000E-02 0. -1.
        -11    1    1    2    0    0 -0.92282585183E+01  0.10931785599E+02 -0.14172272853E+02  0.20137477741E+02  0.51100000000E-03 0. -1.
         11    1    1    2    0    0  0.92282585183E+01 -0.10931785599E+02 -0.33843788920E+02  0.36743254352E+02  0.51100000000E-03 0.  1.
<mgrwt>
<rscale>  0 0.30493860E+02</rscale>
<asrwt>0</asrwt>
<pdfrwt beam="2">  1        1 0.80689837E-02 0.30493860E+02</pdfrwt>
<pdfrwt beam="1">  1       -1 0.68189775E-03 0.30493860E+02</pdfrwt>
<totfact> 0.15851352E+06</totfact>
</mgrwt>
</event>
<event>
 4    1  0.4244376E-001  0.2956190E+02  0.7818608E-02  0.1602982E+00
          1   -1    0    0  501    0  0.00000000000E+00  0.00000000000E+00  0.11666292914E+02  0.11666293848E+02  0.46700000000E-02 0.  1.
         -1   -1    0    0    0  501 -0.00000000000E+00 -0.00000000000E+00 -0.18727158991E+02  0.18727159573E+02  0.46700000000E-02 0. -1.
        -11    1    1    2    0    0  0.10227604876E+02  0.28167028754E+01  0.70517489589E+01  0.12738323289E+02  0.51100000000E-03 0.  1.
         11    1    1    2    0    0 -0.10227604876E+02 -0.28167028754E+01 -0.14112615036E+02  0.17655130132E+02  0.51100000000E-03 0. -1.
<mgrwt>
<rscale>  0 0.29561904E+02</rscale>
<asrwt>0</asrwt>
<pdfrwt beam="1">  1        1 0.17948144E-02 0.29561904E+02</pdfrwt>
<pdfrwt beam="2">  1       -1 0.28811015E-02 0.29561904E+02</pdfrwt>
<totfact> 0.15537947E+06</totfact>
</mgrwt>
</event>
<event>
 4    1  0.4244376E-001  0.2393489E+02  0.7818608E-02  0.1676789E+00
          1   -1    0    0  501    0  0.00000000000E+00  0.00000000000E+00  0.12054291305E+03  0.12054291314E+03  0.46700000000E-02 0. -1.
         -1   -1    0    0    0  501 -0.00000000000E+00 -0.00000000000E+00 -0.11881180748E+01  0.11881272526E+01  0.46700000000E-02 0.  1.
        -11    1    1    2    0    0  0.10453572968E+02 -0.56405559709E+01  0.67094338286E+02  0.68137678928E+02  0.51100000000E-03 0. -1.
         11    1    1    2    0    0 -0.10453572968E+02  0.56405559709E+01  0.52260456688E+02  0.53593361463E+02  0.51100000000E-03 0.  1.
<mgrwt>
<rscale>  0 0.23934893E+02</rscale>
<asrwt>0</asrwt>
<pdfrwt beam="1">  1        1 0.18545058E-01 0.23934893E+02</pdfrwt>
<pdfrwt beam="2">  1       -1 0.18278817E-03 0.23934893E+02</pdfrwt>
<totfact> 0.30332901E+06</totfact>
</mgrwt>
</event>
<event>
 4    1  0.4244376E-001  0.2534205E+02  0.7818608E-02  0.1656137E+00
          1   -1    0    0  501    0  0.00000000000E+00  0.00000000000E+00  0.70425192225E+01  0.70425207709E+01  0.46700000000E-02 0.  1.
         -1   -1    0    0    0  501 -0.00000000000E+00 -0.00000000000E+00 -0.22797926793E+02  0.22797927271E+02  0.46700000000E-02 0. -1.
        -11    1    1    2    0    0  0.12253096899E+02 -0.31209004239E+01 -0.69092338652E+01  0.14408883230E+02  0.51100000000E-03 0.  1.
         11    1    1    2    0    0 -0.12253096899E+02  0.31209004239E+01 -0.88461737049E+01  0.15431564812E+02  0.51100000000E-03 0. -1.
<mgrwt>
<rscale>  0 0.25342049E+02</rscale>
<asrwt>0</asrwt>
<pdfrwt beam="1">  1        1 0.10834647E-02 0.25342049E+02</pdfrwt>
<pdfrwt beam="2">  1       -1 0.35073735E-02 0.25342049E+02</pdfrwt>
<totfact> 0.21860381E+06</totfact>
</mgrwt>
</event>
<event>
 4    1  0.4244376E-001  0.2610831E+02  0.7818608E-02  0.1645575E+00
         -1   -1    0    0    0  501 -0.00000000000E+00  0.00000000000E+00  0.14895858103E+01  0.14895931308E+01  0.46700000000E-02 0.  1.
          1   -1    0    0  501    0  0.00000000000E+00 -0.00000000000E+00 -0.11440130112E+03  0.11440130121E+03  0.46700000000E-02 0. -1.
        -11    1    1    2    0    0 -0.10924330826E+02  0.68151313619E+01 -0.66000898384E+02  0.67245115862E+02  0.51100000000E-03 0. -1.
         11    1    1    2    0    0  0.10924330826E+02 -0.68151313619E+01 -0.46910816924E+02  0.48645778483E+02  0.51100000000E-03 0.  1.
<mgrwt>
<rscale>  0 0.26108312E+02</rscale>
<asrwt>0</asrwt>
<pdfrwt beam="2">  1        1 0.17600194E-01 0.26108312E+02</pdfrwt>
<pdfrwt beam="1">  1       -1 0.22916771E-03 0.26108312E+02</pdfrwt>
<totfact> 0.24701614E+06</totfact>
</mgrwt>
</event>
<event>
 4    1  0.4244376E-001  0.2252637E+02  0.7818608E-02  0.1699305E+00
         -1   -1    0    0    0  501 -0.00000000000E+00  0.00000000000E+00  0.14047344693E+02  0.14047345470E+02  0.46700000000E-02 0. -1.
          1   -1    0    0  501    0  0.00000000000E+00 -0.00000000000E+00 -0.90308359212E+01  0.90308371287E+01  0.46700000000E-02 0.  1.
        -11    1    1    2    0    0 -0.53716620318E+01 -0.91313188519E+01 -0.14094971793E+01  0.10687488925E+02  0.51100000000E-03 0.  1.
         11    1    1    2    0    0  0.53716620318E+01  0.91313188519E+01  0.64260059513E+01  0.12390693673E+02  0.51100000000E-03 0. -1.
<mgrwt>
<rscale>  0 0.22526366E+02</rscale>
<asrwt>0</asrwt>
<pdfrwt beam="2">  1        1 0.13893595E-02 0.22526366E+02</pdfrwt>
<pdfrwt beam="1">  1       -1 0.21611301E-02 0.22526366E+02</pdfrwt>
<totfact> 0.29257127E+06</totfact>
</mgrwt>
</event>
<event>
 4    1  0.4244376E-001  0.9572657E+02  0.7818608E-02  0.1289548E+00
         -1   -1    0    0    0  501 -0.00000000000E+00  0.00000000000E+00  0.71937816999E+02  0.71937817150E+02  0.46700000000E-02 0.  1.
          1   -1    0    0  501    0  0.00000000000E+00 -0.00000000000E+00 -0.31845478351E+02  0.31845478694E+02  0.46700000000E-02 0. -1.
        -11    1    1    2    0    0 -0.15216147948E+02  0.11486543596E+02  0.67643587174E+02  0.70278920938E+02  0.51100000000E-03 0.  1.
         11    1    1    2    0    0  0.15216147948E+02 -0.11486543596E+02 -0.27551248527E+02  0.33504374906E+02  0.51100000000E-03 0. -1.
<mgrwt>
<rscale>  0 0.95726574E+02</rscale>
<asrwt>0</asrwt>
<pdfrwt beam="2">  1        1 0.48993045E-02 0.95726574E+02</pdfrwt>
<pdfrwt beam="1">  1       -1 0.11067356E-01 0.95726574E+02</pdfrwt>
<totfact> 0.76078160E+04</totfact>
</mgrwt>
</event>
<event>
 4    1  0.4244376E-001  0.2806427E+02  0.7818608E-02  0.1620527E+00
          1   -1    0    0  501    0  0.00000000000E+00  0.00000000000E+00  0.15650449464E+03  0.15650449471E+03  0.46700000000E-02 0.  1.
         -1   -1    0    0    0  501 -0.00000000000E+00 -0.00000000000E+00 -0.12581115578E+01  0.12581202250E+01  0.46700000000E-02 0. -1.
        -11    1    1    2    0    0  0.62296325980E+01  0.12559527596E+02  0.74293935679E+02  0.75605151509E+02  0.51100000000E-03 0.  1.
         11    1    1    2    0    0 -0.62296325980E+01 -0.12559527596E+02  0.80952447403E+02  0.82157463426E+02  0.51100000000E-03 0. -1.
<mgrwt>
<rscale>  0 0.28064269E+02</rscale>
<asrwt>0</asrwt>
<pdfrwt beam="1">  1        1 0.24077623E-01 0.28064269E+02</pdfrwt>
<pdfrwt beam="2">  1       -1 0.19355623E-03 0.28064269E+02</pdfrwt>
<totfact> 0.21808290E+06</totfact>
</mgrwt>
</event>
<event>
 4    1  0.4244376E-001  0.3244135E+02  0.7818608E-02  0.1572571E+00
         -1   -1    0    0    0  501 -0.00000000000E+00  0.00000000000E+00  0.25553490859E+01  0.25553533532E+01  0.46700000000E-02 0. -1.
          1   -1    0    0  501    0  0.00000000000E+00 -0.00000000000E+00 -0.10296442595E+03  0.10296442606E+03  0.46700000000E-02 0.  1.
        -11    1    1    2    0    0 -0.96007328824E+01 -0.12284918228E+02 -0.64756931049E+02  0.66607457592E+02  0.51100000000E-03 0.  1.
         11    1    1    2    0    0  0.96007328824E+01  0.12284918228E+02 -0.35652145819E+02  0.38912321821E+02  0.51100000000E-03 0. -1.
<mgrwt>
<rscale>  0 0.32441349E+02</rscale>
<asrwt>0</asrwt>
<pdfrwt beam="2">  1        1 0.15840678E-01 0.32441349E+02</pdfrwt>
<pdfrwt beam="1">  1       -1 0.39313105E-03 0.32441349E+02</pdfrwt>
<totfact> 0.14653757E+06</totfact>
</mgrwt>
</event>
<event>
 4    1  0.4244376E-001  0.2238738E+02  0.7818608E-02  0.1701637E+00
          1   -1    0    0  501    0  0.00000000000E+00  0.00000000000E+00  0.28094396947E+02  0.28094397335E+02  0.46700000000E-02 0.  1.
         -1   -1    0    0    0  501 -0.00000000000E+00 -0.00000000000E+00 -0.44599151725E+01  0.44599176175E+01  0.46700000000E-02 0. -1.
        -11    1    1    2    0    0  0.10845589472E+02 -0.22318828441E+01  0.94320301662E+01  0.14545490894E+02  0.51100000000E-03 0. -1.
         11    1    1    2    0    0 -0.10845589472E+02  0.22318828441E+01  0.14202451608E+02  0.18008824058E+02  0.51100000000E-03 0.  1.
<mgrwt>
<rscale>  0 0.22387378E+02</rscale>
<asrwt>0</asrwt>
<pdfrwt beam="1">  1        1 0.43222151E-02 0.22387378E+02</pdfrwt>
<pdfrwt beam="2">  1       -1 0.68614102E-03 0.22387378E+02</pdfrwt>
<totfact> 0.31254020E+06</totfact>
</mgrwt>
</event>
<event>
 4    1  0.4244376E-001  0.5577241E+02  0.7818608E-02  0.1416481E+00
         -1   -1    0    0    0  501 -0.00000000000E+00  0.00000000000E+00  0.90074899340E+01  0.90074911446E+01  0.46700000000E-02 0.  1.
          1   -1    0    0  501    0  0.00000000000E+00 -0.00000000000E+00 -0.86332639518E+02  0.86332639645E+02  0.46700000000E-02 0. -1.
        -11    1    1    2    0    0 -0.15935895275E+02  0.51108790812E+01 -0.76793903458E+02  0.78596294135E+02  0.51100000000E-03 0. -1.
         11    1    1    2    0    0  0.15935895275E+02 -0.51108790812E+01 -0.53124612629E+00  0.16743836654E+02  0.51100000000E-03 0.  1.
<mgrwt>
<rscale>  0 0.55772411E+02</rscale>
<asrwt>0</asrwt>
<pdfrwt beam="2">  1        1 0.13281944E-01 0.55772411E+02</pdfrwt>
<pdfrwt beam="1">  1       -1 0.13857678E-02 0.55772411E+02</pdfrwt>
<totfact> 0.37501855E+05</totfact>
</mgrwt>
</event>
<event>
 4    1  0.4244376E-001  0.2670229E+02  0.7818608E-02  0.1637690E+00
         -1   -1    0    0    0  501 -0.00000000000E+00  0.00000000000E+00  0.57398826234E+01  0.57398845232E+01  0.46700000000E-02 0. -1.
          1   -1    0    0  501    0  0.00000000000E+00 -0.00000000000E+00 -0.31055175166E+02  0.31055175517E+02  0.46700000000E-02 0.  1.
        -11    1    1    2    0    0 -0.13041455210E+01  0.11314428309E+02 -0.30576062454E+01  0.11792626498E+02  0.51100000000E-03 0. -1.
         11    1    1    2    0    0  0.13041455210E+01 -0.11314428309E+02 -0.22257686298E+02  0.25002433543E+02  0.51100000000E-03 0.  1.
<mgrwt>
<rscale>  0 0.26702292E+02</rscale>
<asrwt>0</asrwt>
<pdfrwt beam="2">  1        1 0.47777193E-02 0.26702292E+02</pdfrwt>
<pdfrwt beam="1">  1       -1 0.88305906E-03 0.26702292E+02</pdfrwt>
<totfact> 0.20906156E+06</totfact>
</mgrwt>
</event>
<event>
 4    1  0.4244376E-001  0.4616240E+02  0.7818608E-02  0.1467213E+00
         -1   -1    0    0    0  501 -0.00000000000E+00  0.00000000000E+00  0.28603796926E+02  0.28603797307E+02  0.46700000000E-02 0.  1.
          1   -1    0    0  501    0  0.00000000000E+00 -0.00000000000E+00 -0.18624858464E+02  0.18624859049E+02  0.46700000000E-02 0. -1.
        -11    1    1    2    0    0 -0.22771099391E+02 -0.21164739318E+01  0.17966062139E+01  0.22939708444E+02  0.51100000000E-03 0. -1.
         11    1    1    2    0    0  0.22771099391E+02  0.21164739318E+01  0.81823322483E+01  0.24288947912E+02  0.51100000000E-03 0.  1.
<mgrwt>
<rscale>  0 0.46162396E+02</rscale>
<asrwt>0</asrwt>
<pdfrwt beam="2">  1        1 0.28653629E-02 0.46162396E+02</pdfrwt>
<pdfrwt beam="1">  1       -1 0.44005842E-02 0.46162396E+02</pdfrwt>
<totfact> 0.52436304E+05</totfact>
</mgrwt>
</event>
<event>
 4    1  0.4244376E-001  0.2715895E+02  0.7818608E-02  0.1631798E+00
         -1   -1    0    0    0  501 -0.00000000000E+00  0.00000000000E+00  0.15833840442E+02  0.15833841130E+02  0.46700000000E-02 0. -1.
          1   -1    0    0  501    0  0.00000000000E+00 -0.00000000000E+00 -0.11646076106E+02  0.11646077043E+02  0.46700000000E-02 0.  1.
        -11    1    1    2    0    0  0.10595617648E+02  0.29650597524E+01  0.10146800457E+02  0.14967172494E+02  0.51100000000E-03 0. -1.
         11    1    1    2    0    0 -0.10595617648E+02 -0.29650597524E+01 -0.59590361214E+01  0.12512745679E+02  0.51100000000E-03 0.  1.
<mgrwt>
<rscale>  0 0.27158949E+02</rscale>
<asrwt>0</asrwt>
<pdfrwt beam="2">  1        1 0.17917041E-02 0.27158949E+02</pdfrwt>
<pdfrwt beam="1">  1       -1 0.24359756E-02 0.27158949E+02</pdfrwt>
<totfact> 0.19059937E+06</totfact>
</mgrwt>
</event>
<event>
 4    1  0.4244376E-001  0.2320359E+02  0.7818608E-02  0.1688231E+00
          1   -1    0    0  501    0  0.00000000000E+00  0.00000000000E+00  0.41469254682E+02  0.41469254945E+02  0.46700000000E-02 0. -1.
         -1   -1    0    0    0  501 -0.00000000000E+00 -0.00000000000E+00 -0.32458153284E+01  0.32458186879E+01  0.46700000000E-02 0.  1.
        -11    1    1    2    0    0  0.81723620109E+01  0.70697665127E+01  0.27249485952E+02  0.29313880403E+02  0.51100000000E-03 0.  1.
         11    1    1    2    0    0 -0.81723620109E+01 -0.70697665127E+01  0.10973953402E+02  0.15401193230E+02  0.51100000000E-03 0. -1.
<mgrwt>
<rscale>  0 0.23203588E+02</rscale>
<asrwt>0</asrwt>
<pdfrwt beam="1">  1        1 0.63798852E-02 0.23203588E+02</pdfrwt>
<pdfrwt beam="2">  1       -1 0.49935651E-03 0.23203588E+02</pdfrwt>
<totfact> 0.29463322E+06</totfact>
</mgrwt>
</event>
<event>
 4    1  0.4244376E-001  0.2167647E+02  0.7818608E-02  0.1713908E+00
          1   -1    0    0  501    0  0.00000000000E+00  0.00000000000E+00  0.25233200385E+02  0.25233200817E+02  0.46700000000E-02 0.  1.
         -1   -1    0    0    0  501 -0.00000000000E+00 -0.00000000000E+00 -0.46552695090E+01  0.46552718514E+01  0.46700000000E-02 0. -1.
        -11    1    1    2    0    0 -0.43131569956E+01 -0.99424641380E+01  0.10141273526E+02  0.14842551849E+02  0.51100000000E-03 0. -1.
         11    1    1    2    0    0  0.43131569956E+01  0.99424641380E+01  0.10436657350E+02  0.15045920819E+02  0.51100000000E-03 0.  1.
<mgrwt>
<rscale>  0 0.21676475E+02</rscale>
<asrwt>0</asrwt>
<pdfrwt beam="1">  1        1 0.38820311E-02 0.21676475E+02</pdfrwt>
<pdfrwt beam="2">  1       -1 0.71619552E-03 0.21676475E+02</pdfrwt>
<totfact> 0.33454713E+06</totfact>
</mgrwt>
</event>
<event>
 4    1  0.4244376E-001  0.3036580E+02  0.7818608E-02  0.1594080E+00
          1   -1    0    0  501    0  0.00000000000E+00  0.00000000000E+00  0.18098107966E+02  0.18098108569E+02  0.46700000000E-02 0. -1.
         -1   -1    0    0    0  501 -0.00000000000E+00 -0.00000000000E+00 -0.12737270847E+02  0.12737271703E+02  0.46700000000E-02 0.  1.
        -11    1    1    2    0    0 -0.28430054738E+01 -0.11075008312E+02  0.12823985350E+02  0.17181184177E+02  0.51100000000E-03 0. -1.
         11    1    1    2    0    0  0.28430054738E+01  0.11075008312E+02 -0.74631482304E+01  0.13654196095E+02  0.51100000000E-03 0.  1.
<mgrwt>
<rscale>  0 0.30365805E+02</rscale>
<asrwt>0</asrwt>
<pdfrwt beam="1">  1        1 0.27843244E-02 0.30365805E+02</pdfrwt>
<pdfrwt beam="2">  1       -1 0.19595803E-02 0.30365805E+02</pdfrwt>
<totfact> 0.14933403E+06</totfact>
</mgrwt>
</event>
<event>
 4    1  0.4244376E-001  0.1126936E+03  0.7818608E-02  0.1255661E+00
          1   -1    0    0  501    0  0.00000000000E+00  0.00000000000E+00  0.16590473813E+03  0.16590473819E+03  0.46700000000E-02 0. -1.
         -1   -1    0    0    0  501 -0.00000000000E+00 -0.00000000000E+00 -0.19137267734E+02  0.19137268304E+02  0.46700000000E-02 0.  1.
        -11    1    1    2    0    0 -0.71110054106E+01 -0.47312792586E+02  0.12225600534E+03  0.13128441485E+03  0.51100000000E-03 0. -1.
         11    1    1    2    0    0  0.71110054106E+01  0.47312792586E+02  0.24511465049E+02  0.53757591644E+02  0.51100000000E-03 0.  1.
<mgrwt>
<rscale>  0 0.11269363E+03</rscale>
<asrwt>0</asrwt>
<pdfrwt beam="1">  1        1 0.25523807E-01 0.11269363E+03</pdfrwt>
<pdfrwt beam="2">  1       -1 0.29441950E-02 0.11269363E+03</pdfrwt>
<totfact> 0.64117192E+04</totfact>
</mgrwt>
</event>
<event>
 4    1  0.4244376E-001  0.2074096E+02  0.7818608E-02  0.1730982E+00
          1   -1    0    0  501    0  0.00000000000E+00  0.00000000000E+00  0.46935733928E+01  0.46935757161E+01  0.46700000000E-02 0.  1.
         -1   -1    0    0    0  501 -0.00000000000E+00 -0.00000000000E+00 -0.22913637090E+02  0.22913637565E+02  0.46700000000E-02 0. -1.
        -11    1    1    2    0    0  0.20153319048E+01  0.98883105410E+01 -0.12289712070E+02  0.15902115302E+02  0.51100000000E-03 0. -1.
         11    1    1    2    0    0 -0.20153319048E+01 -0.98883105410E+01 -0.59303516264E+01  0.11705097980E+02  0.51100000000E-03 0.  1.
<mgrwt>
<rscale>  0 0.20740962E+02</rscale>
<asrwt>0</asrwt>
<pdfrwt beam="1">  1        1 0.72208844E-03 0.20740962E+02</pdfrwt>
<pdfrwt beam="2">  1       -1 0.35251751E-02 0.20740962E+02</pdfrwt>
<totfact> 0.34264176E+06</totfact>
</mgrwt>
</event>
<event>
 4    1  0.4244376E-001  0.3477859E+02  0.7818608E-02  0.1550576E+00
         -1   -1    0    0    0  501 -0.00000000000E+00  0.00000000000E+00  0.28160115582E+01  0.28160154305E+01  0.46700000000E-02 0. -1.
          1   -1    0    0  501    0  0.00000000000E+00 -0.00000000000E+00 -0.10738142623E+03  0.10738142633E+03  0.46700000000E-02 0.  1.
        -11    1    1    2    0    0  0.52104292902E+01  0.16097649578E+02 -0.64998263185E+02  0.67164403613E+02  0.51100000000E-03 0. -1.
         11    1    1    2    0    0 -0.52104292902E+01 -0.16097649578E+02 -0.39567151490E+02  0.43033038152E+02  0.51100000000E-03 0.  1.
<mgrwt>
<rscale>  0 0.34778589E+02</rscale>
<asrwt>0</asrwt>
<pdfrwt beam="2">  1        1 0.16520217E-01 0.34778589E+02</pdfrwt>
<pdfrwt beam="1">  1       -1 0.43323294E-03 0.34778589E+02</pdfrwt>
<totfact> 0.12471833E+06</totfact>
</mgrwt>
</event>
<event>
 4    1  0.4244376E-001  0.3606402E+02  0.7818608E-02  0.1539350E+00
         -1   -1    0    0    0  501 -0.00000000000E+00  0.00000000000E+00  0.17973732422E+02  0.17973733029E+02  0.46700000000E-02 0.  1.
          1   -1    0    0  501    0  0.00000000000E+00 -0.00000000000E+00 -0.18090477012E+02  0.18090477615E+02  0.46700000000E-02 0. -1.
        -11    1    1    2    0    0 -0.72724016685E+01 -0.71346818349E+01 -0.14936686162E+02  0.18080268379E+02  0.51100000000E-03 0. -1.
         11    1    1    2    0    0  0.72724016685E+01  0.71346818349E+01  0.14819941572E+02  0.17983942264E+02  0.51100000000E-03 0.  1.
<mgrwt>
<rscale>  0 0.36064022E+02</rscale>
<asrwt>0</asrwt>
<pdfrwt beam="2">  1        1 0.27831504E-02 0.36064022E+02</pdfrwt>
<pdfrwt beam="1">  1       -1 0.27651897E-02 0.36064022E+02</pdfrwt>
<totfact> 0.97959013E+05</totfact>
</mgrwt>
</event>
<event>
 4    1  0.4244376E-001  0.2563311E+02  0.7818608E-02  0.1652071E+00
          1   -1    0    0  501    0  0.00000000000E+00  0.00000000000E+00  0.78827925528E+01  0.78827939361E+01  0.46700000000E-02 0. -1.
         -1   -1    0    0    0  501 -0.00000000000E+00 -0.00000000000E+00 -0.20838304987E+02  0.20838305510E+02  0.46700000000E-02 0.  1.
        -11    1    1    2    0    0  0.46947978023E+01 -0.10666431452E+02 -0.12454192104E+02  0.17056400193E+02  0.51100000000E-03 0.  1.
         11    1    1    2    0    0 -0.46947978023E+01  0.10666431452E+02 -0.50132033008E+00  0.11664699253E+02  0.51100000000E-03 0. -1.
<mgrwt>
<rscale>  0 0.25633108E+02</rscale>
<asrwt>0</asrwt>
<pdfrwt beam="1">  1        1 0.12127375E-02 0.25633108E+02</pdfrwt>
<pdfrwt beam="2">  1       -1 0.32058932E-02 0.25633108E+02</pdfrwt>
<totfact> 0.21414805E+06</totfact>
</mgrwt>
</event>
<event>
 4    1  0.4244376E-001  0.3081876E+02  0.7818608E-02  0.1589211E+00
          1   -1    0    0  501    0  0.00000000000E+00  0.00000000000E+00  0.81651252844E+01  0.81651266199E+01  0.46700000000E-02 0. -1.
         -1   -1    0    0    0  501 -0.00000000000E+00 -0.00000000000E+00 -0.29080869309E+02  0.29080869684E+02  0.46700000000E-02 0.  1.
        -11    1    1    2    0    0 -0.14250949237E+02 -0.53974401151E+01 -0.13220950050E+02  0.20174623526E+02  0.51100000000E-03 0.  1.
         11    1    1    2    0    0  0.14250949237E+02  0.53974401151E+01 -0.76947939747E+01  0.17071372778E+02  0.51100000000E-03 0. -1.
<mgrwt>
<rscale>  0 0.30818759E+02</rscale>
<asrwt>0</asrwt>
<pdfrwt beam="1">  1        1 0.12561733E-02 0.30818759E+02</pdfrwt>
<pdfrwt beam="2">  1       -1 0.44739800E-02 0.30818759E+02</pdfrwt>
<totfact> 0.13699012E+06</totfact>
</mgrwt>
</event>
<event>
 4    1  0.4244376E-001  0.2469941E+02  0.7818608E-02  0.1665357E+00
         -1   -1    0    0    0  501 -0.00000000000E+00  0.00000000000E+00  0.26916673608E+01  0.26916714120E+01  0.46700000000E-02 0. -1.
          1   -1    0    0  501    0  0.00000000000E+00 -0.00000000000E+00 -0.56661918227E+02  0.56661918419E+02  0.46700000000E-02 0.  1.
        -11    1    1    2    0    0  0.11689196930E+02 -0.36375498979E+01 -0.23076168015E+02  0.26122377853E+02  0.51100000000E-03 0. -1.
         11    1    1    2    0    0 -0.11689196930E+02  0.36375498979E+01 -0.30894082850E+02  0.33231211979E+02  0.51100000000E-03 0.  1.
<mgrwt>
<rscale>  0 0.24699406E+02</rscale>
<asrwt>0</asrwt>
<pdfrwt beam="2">  1        1 0.87172177E-02 0.24699406E+02</pdfrwt>
<pdfrwt beam="1">  1       -1 0.41410304E-03 0.24699406E+02</pdfrwt>
<totfact> 0.26122352E+06</totfact>
</mgrwt>
</event>
<event>
 4    1  0.4244376E-001  0.2898051E+02  0.7818608E-02  0.1609639E+00
         -1   -1    0    0    0  501 -0.00000000000E+00  0.00000000000E+00  0.70881419893E+02  0.70881420047E+02  0.46700000000E-02 0. -1.
          1   -1    0    0  501    0  0.00000000000E+00 -0.00000000000E+00 -0.29622335202E+01  0.29622372013E+01  0.46700000000E-02 0.  1.
        -11    1    1    2    0    0 -0.11322735686E+02  0.70638024733E+01  0.48343262503E+02  0.50151497271E+02  0.51100000000E-03 0. -1.
         11    1    1    2    0    0  0.11322735686E+02 -0.70638024733E+01  0.19575923870E+02  0.23692159978E+02  0.51100000000E-03 0.  1.
<mgrwt>
<rscale>  0 0.28980508E+02</rscale>
<asrwt>0</asrwt>
<pdfrwt beam="2">  1        1 0.45572853E-03 0.28980508E+02</pdfrwt>
<pdfrwt beam="1">  1       -1 0.10904834E-01 0.28980508E+02</pdfrwt>
<totfact> 0.14500086E+06</totfact>
</mgrwt>
</event>
<event>
 4    1  0.4244376E-001  0.5076058E+02  0.7818608E-02  0.1441282E+00
          1   -1    0    0  501    0  0.00000000000E+00  0.00000000000E+00  0.13706150116E+02  0.13706150912E+02  0.46700000000E-02 0.  1.
         -1   -1    0    0    0  501 -0.00000000000E+00 -0.00000000000E+00 -0.46997804872E+02  0.46997805104E+02  0.46700000000E-02 0. -1.
        -11    1    1    2    0    0  0.13122702710E+02 -0.11315417758E+02 -0.38823502375E+02  0.42514801450E+02  0.51100000000E-03 0. -1.
         11    1    1    2    0    0 -0.13122702710E+02  0.11315417758E+02  0.55318476192E+01  0.18189154565E+02  0.51100000000E-03 0.  1.
<mgrwt>
<rscale>  0 0.50760575E+02</rscale>
<asrwt>0</asrwt>
<pdfrwt beam="1">  1        1 0.21086386E-02 0.50760575E+02</pdfrwt>
<pdfrwt beam="2">  1       -1 0.72304315E-02 0.50760575E+02</pdfrwt>
<totfact> 0.39649775E+05</totfact>
</mgrwt>
</event>
<event>
 4    1  0.4244376E-001  0.6708929E+02  0.7818608E-02  0.1370280E+00
          1   -1    0    0  501    0  0.00000000000E+00  0.00000000000E+00  0.36344911366E+02  0.36344911666E+02  0.46700000000E-02 0.  1.
         -1   -1    0    0    0  501 -0.00000000000E+00 -0.00000000000E+00 -0.30960129918E+02  0.30960130270E+02  0.46700000000E-02 0. -1.
        -11    1    1    2    0    0  0.70734034038E+01  0.30924159629E+02  0.13631884618E+02  0.34527741933E+02  0.51100000000E-03 0. -1.
         11    1    1    2    0    0 -0.70734034038E+01 -0.30924159629E+02 -0.82471031700E+01  0.32777300003E+02  0.51100000000E-03 0.  1.
<mgrwt>
<rscale>  0 0.67089290E+02</rscale>
<asrwt>0</asrwt>
<pdfrwt beam="1">  1        1 0.55915249E-02 0.67089290E+02</pdfrwt>
<pdfrwt beam="2">  1       -1 0.47630970E-02 0.67089290E+02</pdfrwt>
<totfact> 0.20859996E+05</totfact>
</mgrwt>
</event>
<event>
 4    1  0.4244376E-001  0.2760708E+02  0.7818608E-02  0.1626153E+00
         -1   -1    0    0    0  501 -0.00000000000E+00  0.00000000000E+00  0.12916770670E+01  0.12916855090E+01  0.46700000000E-02 0.  1.
          1   -1    0    0  501    0  0.00000000000E+00 -0.00000000000E+00 -0.14751138041E+03  0.14751138048E+03  0.46700000000E-02 0. -1.
        -11    1    1    2    0    0 -0.10734356554E+01  0.13736029144E+02 -0.77641775844E+02  0.78854778658E+02  0.51100000000E-03 0.  1.
         11    1    1    2    0    0  0.10734356554E+01 -0.13736029144E+02 -0.68577927499E+02  0.69948287335E+02  0.51100000000E-03 0. -1.
<mgrwt>
<rscale>  0 0.27607079E+02</rscale>
<asrwt>0</asrwt>
<pdfrwt beam="2">  1        1 0.22694046E-01 0.27607079E+02</pdfrwt>
<pdfrwt beam="1">  1       -1 0.19872032E-03 0.27607079E+02</pdfrwt>
<totfact> 0.22463006E+06</totfact>
</mgrwt>
</event>
<event>
 4    1  0.4244376E-001  0.2465170E+03  0.7818608E-02  0.1115526E+00
          1   -1    0    0  501    0  0.00000000000E+00  0.00000000000E+00  0.38565240497E+03  0.38565240499E+03  0.46700000000E-02 0. -1.
         -1   -1    0    0    0  501 -0.00000000000E+00 -0.00000000000E+00 -0.39394706351E+02  0.39394706628E+02  0.46700000000E-02 0.  1.
        -11    1    1    2    0    0 -0.16233891856E+02  0.12211188881E+03  0.18040548018E+03  0.21845134450E+03  0.51100000000E-03 0.  1.
         11    1    1    2    0    0  0.16233891856E+02 -0.12211188881E+03  0.16585221843E+03  0.20659576712E+03  0.51100000000E-03 0. -1.
<mgrwt>
<rscale>  0 0.24651704E+03</rscale>
<asrwt>0</asrwt>
<pdfrwt beam="1">  1        1 0.59331141E-01 0.24651704E+03</pdfrwt>
<pdfrwt beam="2">  1       -1 0.60607239E-02 0.24651704E+03</pdfrwt>
<totfact> 0.82557214E+03</totfact>
</mgrwt>
</event>
<event>
 4    1  0.4244376E-001  0.2843792E+02  0.7818608E-02  0.1616026E+00
         -1   -1    0    0    0  501 -0.00000000000E+00  0.00000000000E+00  0.40492448312E+01  0.40492475242E+01  0.46700000000E-02 0.  1.
          1   -1    0    0  501    0  0.00000000000E+00 -0.00000000000E+00 -0.49929986453E+02  0.49929986671E+02  0.46700000000E-02 0. -1.
        -11    1    1    2    0    0 -0.13640142451E+02 -0.39806546416E+01 -0.21936469608E+02  0.26136330970E+02  0.51100000000E-03 0. -1.
         11    1    1    2    0    0  0.13640142451E+02  0.39806546416E+01 -0.23944272014E+02  0.27842903225E+02  0.51100000000E-03 0.  1.
<mgrwt>
<rscale>  0 0.28437920E+02</rscale>
<asrwt>0</asrwt>
<pdfrwt beam="2">  1        1 0.76815362E-02 0.28437920E+02</pdfrwt>
<pdfrwt beam="1">  1       -1 0.62296100E-03 0.28437920E+02</pdfrwt>
<totfact> 0.18625014E+06</totfact>
</mgrwt>
</event>
<event>
 4    1  0.4244376E-001  0.2097529E+02  0.7818608E-02  0.1726601E+00
          1   -1    0    0  501    0  0.00000000000E+00  0.00000000000E+00  0.87170143925E+02  0.87170144050E+02  0.46700000000E-02 0. -1.
         -1   -1    0    0    0  501 -0.00000000000E+00 -0.00000000000E+00 -0.12617885120E+01  0.12617971540E+01  0.46700000000E-02 0.  1.
        -11    1    1    2    0    0  0.94302184609E+01  0.41104768898E+01  0.34349358715E+02  0.35856707669E+02  0.51100000000E-03 0.  1.
         11    1    1    2    0    0 -0.94302184609E+01 -0.41104768898E+01  0.51558996698E+02  0.52575233535E+02  0.51100000000E-03 0. -1.
<mgrwt>
<rscale>  0 0.20975288E+02</rscale>
<asrwt>0</asrwt>
<pdfrwt beam="1">  1        1 0.13410797E-01 0.20975288E+02</pdfrwt>
<pdfrwt beam="2">  1       -1 0.19412192E-03 0.20975288E+02</pdfrwt>
<totfact> 0.39341360E+06</totfact>
</mgrwt>
</event>
<event>
 4    1  0.4244376E-001  0.4469587E+02  0.7818608E-02  0.1476249E+00
         -1   -1    0    0    0  501 -0.00000000000E+00  0.00000000000E+00  0.31666833309E+02  0.31666833653E+02  0.46700000000E-02 0.  1.
          1   -1    0    0  501    0  0.00000000000E+00 -0.00000000000E+00 -0.15771397578E+02  0.15771398270E+02  0.46700000000E-02 0. -1.
        -11    1    1    2    0    0  0.10041970190E+02  0.14004627641E+02 -0.71541317136E+01  0.18658841376E+02  0.51100000000E-03 0. -1.
         11    1    1    2    0    0 -0.10041970190E+02 -0.14004627641E+02  0.23049567444E+02  0.28779390547E+02  0.51100000000E-03 0.  1.
<mgrwt>
<rscale>  0 0.44695872E+02</rscale>
<asrwt>0</asrwt>
<pdfrwt beam="2">  1        1 0.24263690E-02 0.44695872E+02</pdfrwt>
<pdfrwt beam="1">  1       -1 0.48718206E-02 0.44695872E+02</pdfrwt>
<totfact> 0.56195127E+05</totfact>
</mgrwt>
</event>
<event>
 4    1  0.4244376E-001  0.8504410E+02  0.7818608E-02  0.1315317E+00
          1   -1    0    0  501    0  0.00000000000E+00  0.00000000000E+00  0.25743789711E+02  0.25743790134E+02  0.46700000000E-02 0. -1.
         -1   -1    0    0    0  501 -0.00000000000E+00 -0.00000000000E+00 -0.70235367603E+02  0.70235367758E+02  0.46700000000E-02 0.  1.
        -11    1    1    2    0    0  0.31106739410E+01 -0.42076814055E+02 -0.28216610920E+02  0.50757380798E+02  0.51100000000E-03 0. -1.
         11    1    1    2    0    0 -0.31106739410E+01  0.42076814055E+02 -0.16274966972E+02  0.45221777095E+02  0.51100000000E-03 0.  1.
<mgrwt>
<rscale>  0 0.85044096E+02</rscale>
<asrwt>0</asrwt>
<pdfrwt beam="1">  1        1 0.39605831E-02 0.85044096E+02</pdfrwt>
<pdfrwt beam="2">  1       -1 0.10805441E-01 0.85044096E+02</pdfrwt>
<totfact> 0.10326819E+05</totfact>
</mgrwt>
</event>
<event>
 4    1  0.4244376E-001  0.2489138E+02  0.7818608E-02  0.1662567E+00
         -1   -1    0    0    0  501 -0.00000000000E+00  0.00000000000E+00  0.23190878363E+01  0.23190925384E+01  0.46700000000E-02 0.  1.
          1   -1    0    0  501    0  0.00000000000E+00 -0.00000000000E+00 -0.66791369969E+02  0.66791370132E+02  0.46700000000E-02 0. -1.
        -11    1    1    2    0    0 -0.35907817725E+01  0.10648871207E+02 -0.47085269565E+02  0.48407796707E+02  0.51100000000E-03 0. -1.
         11    1    1    2    0    0  0.35907817725E+01 -0.10648871207E+02 -0.17387012568E+02  0.20702665964E+02  0.51100000000E-03 0.  1.
<mgrwt>
<rscale>  0 0.24891382E+02</rscale>
<asrwt>0</asrwt>
<pdfrwt beam="2">  1        1 0.10275594E-01 0.24891382E+02</pdfrwt>
<pdfrwt beam="1">  1       -1 0.35678317E-03 0.24891382E+02</pdfrwt>
<totfact> 0.26025615E+06</totfact>
</mgrwt>
</event>
<event>
 4    1  0.4244376E-001  0.5424395E+02  0.7818608E-02  0.1423709E+00
         -1   -1    0    0    0  501 -0.00000000000E+00  0.00000000000E+00  0.62621742929E+02  0.62621743103E+02  0.46700000000E-02 0.  1.
          1   -1    0    0  501    0  0.00000000000E+00 -0.00000000000E+00 -0.11746740642E+02  0.11746741570E+02  0.46700000000E-02 0. -1.
        -11    1    1    2    0    0 -0.11474000218E+02  0.13590450340E+02 -0.26344992922E+01  0.17980367300E+02  0.51100000000E-03 0. -1.
         11    1    1    2    0    0  0.11474000218E+02 -0.13590450340E+02  0.53509501579E+02  0.56388117374E+02  0.51100000000E-03 0.  1.
<mgrwt>
<rscale>  0 0.54243946E+02</rscale>
<asrwt>0</asrwt>
<pdfrwt beam="2">  1        1 0.18071909E-02 0.54243946E+02</pdfrwt>
<pdfrwt beam="1">  1       -1 0.96341145E-02 0.54243946E+02</pdfrwt>
<totfact> 0.32543761E+05</totfact>
</mgrwt>
</event>
<event>
 4    1  0.4244376E-001  0.2544927E+03  0.7818608E-02  0.1110498E+00
         -1   -1    0    0    0  501 -0.00000000000E+00  0.00000000000E+00  0.40397261856E+02  0.40397262126E+02  0.46700000000E-02 0.  1.
          1   -1    0    0  501    0  0.00000000000E+00 -0.00000000000E+00 -0.40081029303E+03  0.40081029306E+03  0.46700000000E-02 0. -1.
        -11    1    1    2    0    0 -0.58439163534E+02  0.28118416527E+02  0.95960579848E+01  0.65558107902E+02  0.51100000000E-03 0.  1.
         11    1    1    2    0    0  0.58439163534E+02 -0.28118416527E+02 -0.37000908916E+03  0.37564944728E+03  0.51100000000E-03 0. -1.
<mgrwt>
<rscale>  0 0.25449274E+03</rscale>
<asrwt>0</asrwt>
<pdfrwt beam="2">  1        1 0.61663119E-01 0.25449274E+03</pdfrwt>
<pdfrwt beam="1">  1       -1 0.62149637E-02 0.25449274E+03</pdfrwt>
<totfact> 0.75765917E+03</totfact>
</mgrwt>
</event>
<event>
 4    1  0.4244376E-001  0.4589018E+02  0.7818608E-02  0.1468860E+00
         -1   -1    0    0    0  501 -0.00000000000E+00  0.00000000000E+00  0.26122570626E+02  0.26122571043E+02  0.46700000000E-02 0.  1.
          1   -1    0    0  501    0  0.00000000000E+00 -0.00000000000E+00 -0.20154105781E+02  0.20154106322E+02  0.46700000000E-02 0. -1.
        -11    1    1    2    0    0  0.17102169948E+02 -0.49909523392E+01 -0.11597262945E+02  0.21257712254E+02  0.51100000000E-03 0. -1.
         11    1    1    2    0    0 -0.17102169948E+02  0.49909523392E+01  0.17565727790E+02  0.25018965111E+02  0.51100000000E-03 0.  1.
<mgrwt>
<rscale>  0 0.45890176E+02</rscale>
<asrwt>0</asrwt>
<pdfrwt beam="2">  1        1 0.31006317E-02 0.45890176E+02</pdfrwt>
<pdfrwt beam="1">  1       -1 0.40188571E-02 0.45890176E+02</pdfrwt>
<totfact> 0.53608357E+05</totfact>
</mgrwt>
</event>
<event>
 4    1  0.4244376E-001  0.4594569E+02  0.7818608E-02  0.1468523E+00
          1   -1    0    0  501    0  0.00000000000E+00  0.00000000000E+00  0.40865619312E+02  0.40865619579E+02  0.46700000000E-02 0.  1.
         -1   -1    0    0    0  501 -0.00000000000E+00 -0.00000000000E+00 -0.12914318995E+02  0.12914319839E+02  0.46700000000E-02 0. -1.
        -11    1    1    2    0    0  0.97083922281E+01  0.73118777662E+01  0.36794168262E+02  0.38749545216E+02  0.51100000000E-03 0.  1.
         11    1    1    2    0    0 -0.97083922281E+01 -0.73118777662E+01 -0.88428679444E+01  0.15030394202E+02  0.51100000000E-03 0. -1.
<mgrwt>
<rscale>  0 0.45945693E+02</rscale>
<asrwt>0</asrwt>
<pdfrwt beam="1">  1        1 0.62870184E-02 0.45945693E+02</pdfrwt>
<pdfrwt beam="2">  1       -1 0.19868184E-02 0.45945693E+02</pdfrwt>
<totfact> 0.56730701E+05</totfact>
</mgrwt>
</event>
<event>
 4    1  0.4244376E-001  0.2865468E+02  0.7818608E-02  0.1613454E+00
          1   -1    0    0  501    0  0.00000000000E+00  0.00000000000E+00  0.43289881321E+02  0.43289881573E+02  0.46700000000E-02 0. -1.
         -1   -1    0    0    0  501 -0.00000000000E+00 -0.00000000000E+00 -0.47418155756E+01  0.47418178753E+01  0.46700000000E-02 0.  1.
        -11    1    1    2    0    0 -0.14270599435E+02 -0.12636453736E+01  0.19004339353E+02  0.23799405925E+02  0.51100000000E-03 0.  1.
         11    1    1    2    0    0  0.14270599435E+02  0.12636453736E+01  0.19543726392E+02  0.24232293524E+02  0.51100000000E-03 0. -1.
<mgrwt>
<rscale>  0 0.28654682E+02</rscale>
<asrwt>0</asrwt>
<pdfrwt beam="1">  1        1 0.66599817E-02 0.28654682E+02</pdfrwt>
<pdfrwt beam="2">  1       -1 0.72951031E-03 0.28654682E+02</pdfrwt>
<totfact> 0.18098757E+06</totfact>
</mgrwt>
</event>
<event>
 4    1  0.4244376E-001  0.2563839E+02  0.7818608E-02  0.1651998E+00
          1   -1    0    0  501    0  0.00000000000E+00  0.00000000000E+00  0.51984686169E+02  0.51984686379E+02  0.46700000000E-02 0. -1.
         -1   -1    0    0    0  501 -0.00000000000E+00 -0.00000000000E+00 -0.31611546237E+01  0.31611580732E+01  0.46700000000E-02 0.  1.
        -11    1    1    2    0    0  0.91274677764E+01 -0.74802175935E+01  0.35180801013E+02  0.37107318462E+02  0.51100000000E-03 0. -1.
         11    1    1    2    0    0 -0.91274677764E+01  0.74802175935E+01  0.13642730532E+02  0.18038525990E+02  0.51100000000E-03 0.  1.
<mgrwt>
<rscale>  0 0.25638388E+02</rscale>
<asrwt>0</asrwt>
<pdfrwt beam="1">  1        1 0.79976436E-02 0.25638388E+02</pdfrwt>
<pdfrwt beam="2">  1       -1 0.48633181E-03 0.25638388E+02</pdfrwt>
<totfact> 0.23801020E+06</totfact>
</mgrwt>
</event>
<event>
 4    1  0.4244376E-001  0.8679894E+02  0.7818608E-02  0.1310794E+00
         -1   -1    0    0    0  501 -0.00000000000E+00  0.00000000000E+00  0.14381426479E+02  0.14381427238E+02  0.46700000000E-02 0.  1.
          1   -1    0    0  501    0  0.00000000000E+00 -0.00000000000E+00 -0.13096851356E+03  0.13096851364E+03  0.46700000000E-02 0. -1.
        -11    1    1    2    0    0  0.22979243920E+02 -0.25616313063E+02 -0.14011893697E+02  0.37156080408E+02  0.51100000000E-03 0.  1.
         11    1    1    2    0    0 -0.22979243920E+02  0.25616313063E+02 -0.10257519338E+03  0.10819386047E+03  0.51100000000E-03 0. -1.
<mgrwt>
<rscale>  0 0.86798943E+02</rscale>
<asrwt>0</asrwt>
<pdfrwt beam="2">  1        1 0.20149001E-01 0.86798943E+02</pdfrwt>
<pdfrwt beam="1">  1       -1 0.22125273E-02 0.86798943E+02</pdfrwt>
<totfact> 0.12493468E+05</totfact>
</mgrwt>
</event>
<event>
 4    1  0.4244376E-001  0.2710929E+02  0.7818608E-02  0.1632432E+00
          1   -1    0    0  501    0  0.00000000000E+00  0.00000000000E+00  0.24133121990E+02  0.24133122442E+02  0.46700000000E-02 0.  1.
         -1   -1    0    0    0  501 -0.00000000000E+00 -0.00000000000E+00 -0.76131202374E+01  0.76131216697E+01  0.46700000000E-02 0. -1.
        -11    1    1    2    0    0 -0.73788014147E+01 -0.11309245229E+02  0.96369900396E+01  0.16589674959E+02  0.51100000000E-03 0.  1.
         11    1    1    2    0    0  0.73788014147E+01  0.11309245229E+02  0.68830117135E+01  0.15156569153E+02  0.51100000000E-03 0. -1.
<mgrwt>
<rscale>  0 0.27109289E+02</rscale>
<asrwt>0</asrwt>
<pdfrwt beam="1">  1        1 0.37127882E-02 0.27109289E+02</pdfrwt>
<pdfrwt beam="2">  1       -1 0.11712494E-02 0.27109289E+02</pdfrwt>
<totfact> 0.19889192E+06</totfact>
</mgrwt>
</event>
<event>
 4    1  0.4244376E-001  0.3987181E+02  0.7818608E-02  0.1509157E+00
         -1   -1    0    0    0  501 -0.00000000000E+00  0.00000000000E+00  0.92821786901E+01  0.92821798648E+01  0.46700000000E-02 0.  1.
          1   -1    0    0  501    0  0.00000000000E+00 -0.00000000000E+00 -0.42817553330E+02  0.42817553584E+02  0.46700000000E-02 0. -1.
        -11    1    1    2    0    0  0.52401063736E+01 -0.89847768029E+01 -0.38991074554E+02  0.40354539078E+02  0.51100000000E-03 0. -1.
         11    1    1    2    0    0 -0.52401063736E+01  0.89847768029E+01  0.54556999147E+01  0.11745194372E+02  0.51100000000E-03 0.  1.
<mgrwt>
<rscale>  0 0.39871805E+02</rscale>
<asrwt>0</asrwt>
<pdfrwt beam="2">  1        1 0.65873159E-02 0.39871805E+02</pdfrwt>
<pdfrwt beam="1">  1       -1 0.14280276E-02 0.39871805E+02</pdfrwt>
<totfact> 0.81269784E+05</totfact>
</mgrwt>
</event>
<event>
 4    1  0.4244376E-001  0.2754527E+02  0.7818608E-02  0.1626923E+00
          1   -1    0    0  501    0  0.00000000000E+00  0.00000000000E+00  0.34455156052E+01  0.34455187700E+01  0.46700000000E-02 0. -1.
         -1   -1    0    0    0  501 -0.00000000000E+00 -0.00000000000E+00 -0.55052830496E+02  0.55052830694E+02  0.46700000000E-02 0.  1.
        -11    1    1    2    0    0  0.86441284826E+01 -0.10720286419E+02 -0.25378985484E+02  0.28874528612E+02  0.51100000000E-03 0. -1.
         11    1    1    2    0    0 -0.86441284826E+01  0.10720286419E+02 -0.26228329407E+02  0.29623820852E+02  0.51100000000E-03 0.  1.
<mgrwt>
<rscale>  0 0.27545271E+02</rscale>
<asrwt>0</asrwt>
<pdfrwt beam="1">  1        1 0.53007962E-03 0.27545271E+02</pdfrwt>
<pdfrwt beam="2">  1       -1 0.84696659E-02 0.27545271E+02</pdfrwt>
<totfact> 0.16800797E+06</totfact>
</mgrwt>
</event>
<event>
 4    1  0.4244376E-001  0.2135807E+02  0.7818608E-02  0.1719596E+00
          1   -1    0    0  501    0  0.00000000000E+00  0.00000000000E+00  0.38992888745E+02  0.38992889024E+02  0.46700000000E-02 0. -1.
         -1   -1    0    0    0  501 -0.00000000000E+00 -0.00000000000E+00 -0.29246794216E+01  0.29246831500E+01  0.46700000000E-02 0.  1.
        -11    1    1    2    0    0 -0.22469084837E+00 -0.10671475267E+02  0.17380485529E+02  0.20396375851E+02  0.51100000000E-03 0. -1.
         11    1    1    2    0    0  0.22469084837E+00  0.10671475267E+02  0.18687723794E+02  0.21521196323E+02  0.51100000000E-03 0.  1.
<mgrwt>
<rscale>  0 0.21358070E+02</rscale>
<asrwt>0</asrwt>
<pdfrwt beam="1">  1        1 0.59989057E-02 0.21358070E+02</pdfrwt>
<pdfrwt beam="2">  1       -1 0.44995103E-03 0.21358070E+02</pdfrwt>
<totfact> 0.35423147E+06</totfact>
</mgrwt>
</event>
<event>
 4    1  0.4244376E-001  0.3768978E+02  0.7818608E-02  0.1525935E+00
         -1   -1    0    0    0  501 -0.00000000000E+00  0.00000000000E+00  0.86514207830E+02  0.86514207956E+02  0.46700000000E-02 0.  1.
          1   -1    0    0  501    0  0.00000000000E+00 -0.00000000000E+00 -0.41048716577E+01  0.41048743142E+01  0.46700000000E-02 0. -1.
        -11    1    1    2    0    0 -0.14020427859E+02 -0.72938274105E+00  0.10980135451E+02  0.17823236836E+02  0.51100000000E-03 0. -1.
         11    1    1    2    0    0  0.14020427859E+02  0.72938274105E+00  0.71429200721E+02  0.72795845434E+02  0.51100000000E-03 0.  1.
<mgrwt>
<rscale>  0 0.37689778E+02</rscale>
<asrwt>0</asrwt>
<pdfrwt beam="2">  1        1 0.63151896E-03 0.37689778E+02</pdfrwt>
<pdfrwt beam="1">  1       -1 0.13309878E-01 0.37689778E+02</pdfrwt>
<totfact> 0.75826374E+05</totfact>
</mgrwt>
</event>
<event>
 4    1  0.4244376E-001  0.2069427E+02  0.7818608E-02  0.1731864E+00
         -1   -1    0    0    0  501 -0.00000000000E+00  0.00000000000E+00  0.20541727296E+01  0.20541780381E+01  0.46700000000E-02 0. -1.
          1   -1    0    0  501    0  0.00000000000E+00 -0.00000000000E+00 -0.52119779660E+02  0.52119779869E+02  0.46700000000E-02 0.  1.
        -11    1    1    2    0    0  0.55914555969E+01 -0.83954001691E+01 -0.18996995404E+02  0.21508904071E+02  0.51100000000E-03 0. -1.
         11    1    1    2    0    0 -0.55914555969E+01  0.83954001691E+01 -0.31068611526E+02  0.32665053836E+02  0.51100000000E-03 0.  1.
<mgrwt>
<rscale>  0 0.20694268E+02</rscale>
<asrwt>0</asrwt>
<pdfrwt beam="2">  1        1 0.80184271E-02 0.20694268E+02</pdfrwt>
<pdfrwt beam="1">  1       -1 0.31602704E-03 0.20694268E+02</pdfrwt>
<totfact> 0.38773236E+06</totfact>
</mgrwt>
</event>
<event>
 4    1  0.4244376E-001  0.4442986E+02  0.7818608E-02  0.1477933E+00
         -1   -1    0    0    0  501 -0.00000000000E+00  0.00000000000E+00  0.18999064934E+03  0.18999064940E+03  0.46700000000E-02 0.  1.
          1   -1    0    0  501    0  0.00000000000E+00 -0.00000000000E+00 -0.25975105085E+01  0.25975147065E+01  0.46700000000E-02 0. -1.
        -11    1    1    2    0    0 -0.13017186162E+01  0.22175044069E+02  0.92501061472E+02  0.95130822684E+02  0.51100000000E-03 0. -1.
         11    1    1    2    0    0  0.13017186162E+01 -0.22175044069E+02  0.94892077364E+02  0.97457341424E+02  0.51100000000E-03 0.  1.
<mgrwt>
<rscale>  0 0.44429860E+02</rscale>
<asrwt>0</asrwt>
<pdfrwt beam="2">  1        1 0.39961735E-03 0.44429860E+02</pdfrwt>
<pdfrwt beam="1">  1       -1 0.29229330E-01 0.44429860E+02</pdfrwt>
<totfact> 0.43481360E+05</totfact>
</mgrwt>
</event>
<event>
 4    1  0.4244376E-001  0.3914025E+02  0.7818608E-02  0.1514635E+00
         -1   -1    0    0    0  501 -0.00000000000E+00  0.00000000000E+00  0.62979708439E+02  0.62979708612E+02  0.46700000000E-02 0. -1.
          1   -1    0    0  501    0  0.00000000000E+00 -0.00000000000E+00 -0.60811592708E+01  0.60811610639E+01  0.46700000000E-02 0.  1.
        -11    1    1    2    0    0  0.61372844483E+01 -0.11215911658E+02  0.54592083073E+02  0.56069229255E+02  0.51100000000E-03 0. -1.
         11    1    1    2    0    0 -0.61372844483E+01  0.11215911658E+02  0.23064660944E+01  0.12991640421E+02  0.51100000000E-03 0.  1.
<mgrwt>
<rscale>  0 0.39140246E+02</rscale>
<asrwt>0</asrwt>
<pdfrwt beam="2">  1        1 0.93556314E-03 0.39140246E+02</pdfrwt>
<pdfrwt beam="1">  1       -1 0.96891858E-02 0.39140246E+02</pdfrwt>
<totfact> 0.72236674E+05</totfact>
</mgrwt>
</event>
<event>
 4    1  0.4244376E-001  0.2332910E+02  0.7818608E-02  0.1686230E+00
         -1   -1    0    0    0  501 -0.00000000000E+00  0.00000000000E+00  0.56333055465E+01  0.56333074822E+01  0.46700000000E-02 0. -1.
          1   -1    0    0  501    0  0.00000000000E+00 -0.00000000000E+00 -0.24153082805E+02  0.24153083257E+02  0.46700000000E-02 0.  1.
        -11    1    1    2    0    0 -0.13021097507E+01 -0.11289732566E+02 -0.12615732092E+02  0.16979701049E+02  0.51100000000E-03 0.  1.
         11    1    1    2    0    0  0.13021097507E+01  0.11289732566E+02 -0.59040451663E+01  0.12806689690E+02  0.51100000000E-03 0. -1.
<mgrwt>
<rscale>  0 0.23329100E+02</rscale>
<asrwt>0</asrwt>
<pdfrwt beam="2">  1        1 0.37158590E-02 0.23329100E+02</pdfrwt>
<pdfrwt beam="1">  1       -1 0.86666259E-03 0.23329100E+02</pdfrwt>
<totfact> 0.28222730E+06</totfact>
</mgrwt>
</event>
<event>
 4    1  0.4244376E-001  0.2872691E+02  0.7818608E-02  0.1612603E+00
          1   -1    0    0  501    0  0.00000000000E+00  0.00000000000E+00  0.89280797287E+01  0.89280809500E+01  0.46700000000E-02 0.  1.
         -1   -1    0    0    0  501 -0.00000000000E+00 -0.00000000000E+00 -0.23107858024E+02  0.23107858496E+02  0.46700000000E-02 0. -1.
        -11    1    1    2    0    0  0.97248910345E+01  0.70856809906E+01  0.16576628773E+01  0.12146119842E+02  0.51100000000E-03 0.  1.
         11    1    1    2    0    0 -0.97248910345E+01 -0.70856809906E+01 -0.15837441173E+02  0.19889819604E+02  0.51100000000E-03 0. -1.
<mgrwt>
<rscale>  0 0.28726909E+02</rscale>
<asrwt>0</asrwt>
<pdfrwt beam="1">  1        1 0.13735509E-02 0.28726909E+02</pdfrwt>
<pdfrwt beam="2">  1       -1 0.35550552E-02 0.28726909E+02</pdfrwt>
<totfact> 0.16385661E+06</totfact>
</mgrwt>
</event>
<event>
 4    1  0.4244376E-001  0.2731024E+02  0.7818608E-02  0.1629877E+00
          1   -1    0    0  501    0  0.00000000000E+00  0.00000000000E+00  0.89603898429E+02  0.89603898551E+02  0.46700000000E-02 0. -1.
         -1   -1    0    0    0  501 -0.00000000000E+00 -0.00000000000E+00 -0.20809597435E+01  0.20809649836E+01  0.46700000000E-02 0.  1.
        -11    1    1    2    0    0 -0.11303497322E+02  0.71474327275E+01  0.34501848909E+02  0.37003140741E+02  0.51100000000E-03 0. -1.
         11    1    1    2    0    0  0.11303497322E+02 -0.71474327275E+01  0.53021089777E+02  0.54681722793E+02  0.51100000000E-03 0.  1.
<mgrwt>
<rscale>  0 0.27310244E+02</rscale>
<asrwt>0</asrwt>
<pdfrwt beam="1">  1        1 0.13785211E-01 0.27310244E+02</pdfrwt>
<pdfrwt beam="2">  1       -1 0.32014816E-03 0.27310244E+02</pdfrwt>
<totfact> 0.21626554E+06</totfact>
</mgrwt>
</event>
<event>
 4    1  0.4244376E-001  0.2747828E+02  0.7818608E-02  0.1627762E+00
          1   -1    0    0  501    0  0.00000000000E+00  0.00000000000E+00  0.10242609351E+02  0.10242610416E+02  0.46700000000E-02 0.  1.
         -1   -1    0    0    0  501 -0.00000000000E+00 -0.00000000000E+00 -0.18429279425E+02  0.18429280016E+02  0.46700000000E-02 0. -1.
        -11    1    1    2    0    0 -0.97749764956E+01  0.76587060256E+01  0.20406266529E+01  0.12584518301E+02  0.51100000000E-03 0.  1.
         11    1    1    2    0    0  0.97749764956E+01 -0.76587060256E+01 -0.10227296727E+02  0.16087372131E+02  0.51100000000E-03 0. -1.
<mgrwt>
<rscale>  0 0.27478277E+02</rscale>
<asrwt>0</asrwt>
<pdfrwt beam="1">  1        1 0.15757862E-02 0.27478277E+02</pdfrwt>
<pdfrwt beam="2">  1       -1 0.28352739E-02 0.27478277E+02</pdfrwt>
<totfact> 0.18400311E+06</totfact>
</mgrwt>
</event>
<event>
 4    1  0.4244376E-001  0.2048270E+02  0.7818608E-02  0.1735896E+00
         -1   -1    0    0    0  501 -0.00000000000E+00  0.00000000000E+00  0.20363327589E+02  0.20363328124E+02  0.46700000000E-02 0.  1.
          1   -1    0    0  501    0  0.00000000000E+00 -0.00000000000E+00 -0.51506910787E+01  0.51506931958E+01  0.46700000000E-02 0. -1.
        -11    1    1    2    0    0 -0.77908517464E+01 -0.65085893786E+01  0.92896060092E+01  0.13760664472E+02  0.51100000000E-03 0.  1.
         11    1    1    2    0    0  0.77908517464E+01  0.65085893786E+01  0.59230305010E+01  0.11753356849E+02  0.51100000000E-03 0. -1.
<mgrwt>
<rscale>  0 0.20482699E+02</rscale>
<asrwt>0</asrwt>
<pdfrwt beam="2">  1        1 0.79241423E-03 0.20482699E+02</pdfrwt>
<pdfrwt beam="1">  1       -1 0.31328198E-02 0.20482699E+02</pdfrwt>
<totfact> 0.35466166E+06</totfact>
</mgrwt>
</event>
<event>
 4    1  0.4244376E-001  0.2009419E+02  0.7818608E-02  0.1743461E+00
         -1   -1    0    0    0  501 -0.00000000000E+00  0.00000000000E+00  0.32248956629E+02  0.32248956967E+02  0.46700000000E-02 0.  1.
          1   -1    0    0  501    0  0.00000000000E+00 -0.00000000000E+00 -0.31301508108E+01  0.31301542945E+01  0.46700000000E-02 0. -1.
        -11    1    1    2    0    0  0.98778822211E+01  0.17768328335E+01  0.13744018095E+02  0.17018452508E+02  0.51100000000E-03 0. -1.
         11    1    1    2    0    0 -0.98778822211E+01 -0.17768328335E+01  0.15374787723E+02  0.18360658754E+02  0.51100000000E-03 0.  1.
<mgrwt>
<rscale>  0 0.20094195E+02</rscale>
<asrwt>0</asrwt>
<pdfrwt beam="2">  1        1 0.48156198E-03 0.20094195E+02</pdfrwt>
<pdfrwt beam="1">  1       -1 0.49613780E-02 0.20094195E+02</pdfrwt>
<totfact> 0.35921741E+06</totfact>
</mgrwt>
</event>
<event>
 4    1  0.4244376E-001  0.2749489E+02  0.7818608E-02  0.1627553E+00
          1   -1    0    0  501    0  0.00000000000E+00  0.00000000000E+00  0.31527306590E+02  0.31527306936E+02  0.46700000000E-02 0. -1.
         -1   -1    0    0    0  501 -0.00000000000E+00 -0.00000000000E+00 -0.59945547001E+01  0.59945565192E+01  0.46700000000E-02 0.  1.
        -11    1    1    2    0    0  0.84281746511E+01 -0.10860641883E+02  0.12674482836E+02  0.18698400612E+02  0.51100000000E-03 0. -1.
         11    1    1    2    0    0 -0.84281746511E+01  0.10860641883E+02  0.12858269054E+02  0.18823462842E+02  0.51100000000E-03 0.  1.
<mgrwt>
<rscale>  0 0.27494887E+02</rscale>
<asrwt>0</asrwt>
<pdfrwt beam="1">  1        1 0.48503550E-02 0.27494887E+02</pdfrwt>
<pdfrwt beam="2">  1       -1 0.92223935E-03 0.27494887E+02</pdfrwt>
<totfact> 0.19535141E+06</totfact>
</mgrwt>
</event>
<event>
 4    1  0.4244376E-001  0.2676555E+02  0.7818608E-02  0.1636865E+00
         -1   -1    0    0    0  501 -0.00000000000E+00  0.00000000000E+00  0.61264597861E+02  0.61264598039E+02  0.46700000000E-02 0. -1.
          1   -1    0    0  501    0  0.00000000000E+00 -0.00000000000E+00 -0.29233614860E+01  0.29233652161E+01  0.46700000000E-02 0.  1.
        -11    1    1    2    0    0  0.28601331146E+01  0.12627965223E+02  0.37286462079E+02  0.39470572858E+02  0.51100000000E-03 0. -1.
         11    1    1    2    0    0 -0.28601331146E+01 -0.12627965223E+02  0.21054774296E+02  0.24717390397E+02  0.51100000000E-03 0.  1.
<mgrwt>
<rscale>  0 0.26765552E+02</rscale>
<asrwt>0</asrwt>
<pdfrwt beam="2">  1        1 0.44974823E-03 0.26765552E+02</pdfrwt>
<pdfrwt beam="1">  1       -1 0.94253230E-02 0.26765552E+02</pdfrwt>
<totfact> 0.17736098E+06</totfact>
</mgrwt>
</event>
<event>
 4    1  0.4244376E-001  0.2402942E+02  0.7818608E-02  0.1675347E+00
          1   -1    0    0  501    0  0.00000000000E+00  0.00000000000E+00  0.75709528616E+02  0.75709528760E+02  0.46700000000E-02 0.  1.
         -1   -1    0    0    0  501 -0.00000000000E+00 -0.00000000000E+00 -0.19066698234E+01  0.19066755425E+01  0.46700000000E-02 0. -1.
        -11    1    1    2    0    0 -0.11503109084E+02  0.28060257198E+01  0.43487879201E+02  0.45070954468E+02  0.51100000000E-03 0.  1.
         11    1    1    2    0    0  0.11503109084E+02 -0.28060257198E+01  0.30314979591E+02  0.32545249835E+02  0.51100000000E-03 0. -1.
<mgrwt>
<rscale>  0 0.24029424E+02</rscale>
<asrwt>0</asrwt>
<pdfrwt beam="1">  1        1 0.11647619E-01 0.24029424E+02</pdfrwt>
<pdfrwt beam="2">  1       -1 0.29333431E-03 0.24029424E+02</pdfrwt>
<totfact> 0.28547922E+06</totfact>
</mgrwt>
</event>
<event>
 4    1  0.4244376E-001  0.5543014E+02  0.7818608E-02  0.1418076E+00
         -1   -1    0    0    0  501 -0.00000000000E+00  0.00000000000E+00  0.47441705072E+02  0.47441705301E+02  0.46700000000E-02 0. -1.
          1   -1    0    0  501    0  0.00000000000E+00 -0.00000000000E+00 -0.16190924349E+02  0.16190925022E+02  0.46700000000E-02 0.  1.
        -11    1    1    2    0    0 -0.60694169160E+01 -0.24691752550E+02  0.29661121628E+01  0.25599185286E+02  0.51100000000E-03 0.  1.
         11    1    1    2    0    0  0.60694169160E+01  0.24691752550E+02  0.28284668560E+02  0.38033445038E+02  0.51100000000E-03 0. -1.
<mgrwt>
<rscale>  0 0.55430139E+02</rscale>
<asrwt>0</asrwt>
<pdfrwt beam="2">  1        1 0.24909115E-02 0.55430139E+02</pdfrwt>
<pdfrwt beam="1">  1       -1 0.72987240E-02 0.55430139E+02</pdfrwt>
<totfact> 0.31879951E+05</totfact>
</mgrwt>
</event>
<event>
 4    1  0.4244376E-001  0.2764255E+02  0.7818608E-02  0.1625711E+00
         -1   -1    0    0    0  501 -0.00000000000E+00  0.00000000000E+00  0.41060161088E+02  0.41060161353E+02  0.46700000000E-02 0.  1.
          1   -1    0    0  501    0  0.00000000000E+00 -0.00000000000E+00 -0.46523821188E+01  0.46523844626E+01  0.46700000000E-02 0. -1.
        -11    1    1    2    0    0  0.12479549816E+02 -0.59389783683E+01  0.18419448489E+02  0.23027954981E+02  0.51100000000E-03 0.  1.
         11    1    1    2    0    0 -0.12479549816E+02  0.59389783683E+01  0.17988330480E+02  0.22684590836E+02  0.51100000000E-03 0. -1.
<mgrwt>
<rscale>  0 0.27642548E+02</rscale>
<asrwt>0</asrwt>
<pdfrwt beam="2">  1        1 0.71575128E-03 0.27642548E+02</pdfrwt>
<pdfrwt beam="1">  1       -1 0.63169482E-02 0.27642548E+02</pdfrwt>
<totfact> 0.17149623E+06</totfact>
</mgrwt>
</event>
<event>
 4    1  0.4244376E-001  0.5468113E+02  0.7818608E-02  0.1421613E+00
          1   -1    0    0  501    0  0.00000000000E+00  0.00000000000E+00  0.19227878988E+03  0.19227878994E+03  0.46700000000E-02 0.  1.
         -1   -1    0    0    0  501 -0.00000000000E+00 -0.00000000000E+00 -0.38876160846E+01  0.38876188895E+01  0.46700000000E-02 0. -1.
        -11    1    1    2    0    0 -0.62890585847E+01 -0.23689707291E+02  0.13765452060E+03  0.13981960353E+03  0.51100000000E-03 0.  1.
         11    1    1    2    0    0  0.62890585847E+01  0.23689707291E+02  0.50736653200E+02  0.56346805301E+02  0.51100000000E-03 0. -1.
<mgrwt>
<rscale>  0 0.54681126E+02</rscale>
<asrwt>0</asrwt>
<pdfrwt beam="1">  1        1 0.29581355E-01 0.54681126E+02</pdfrwt>
<pdfrwt beam="2">  1       -1 0.59809496E-03 0.54681126E+02</pdfrwt>
<totfact> 0.44561219E+05</totfact>
</mgrwt>
</event>
<event>
 4    1  0.4244376E-001  0.2804069E+02  0.7818608E-02  0.1620814E+00
          1   -1    0    0  501    0  0.00000000000E+00  0.00000000000E+00  0.21635300163E+01  0.21635350564E+01  0.46700000000E-02 0.  1.
         -1   -1    0    0    0  501 -0.00000000000E+00 -0.00000000000E+00 -0.90856095838E+02  0.90856095958E+02  0.46700000000E-02 0. -1.
        -11    1    1    2    0    0  0.53406041881E+01  0.12956322292E+02 -0.42931888172E+02  0.45161215248E+02  0.51100000000E-03 0.  1.
         11    1    1    2    0    0 -0.53406041881E+01 -0.12956322292E+02 -0.45760677650E+02  0.47858415766E+02  0.51100000000E-03 0. -1.
<mgrwt>
<rscale>  0 0.28040694E+02</rscale>
<asrwt>0</asrwt>
<pdfrwt beam="1">  1        1 0.33285124E-03 0.28040694E+02</pdfrwt>
<pdfrwt beam="2">  1       -1 0.13977858E-01 0.28040694E+02</pdfrwt>
<totfact> 0.15114825E+06</totfact>
</mgrwt>
</event>
<event>
 4    1  0.4244376E-001  0.1590616E+03  0.7818608E-02  0.1189760E+00
          1   -1    0    0  501    0  0.00000000000E+00  0.00000000000E+00  0.21653286437E+03  0.21653286442E+03  0.46700000000E-02 0. -1.
         -1   -1    0    0    0  501 -0.00000000000E+00 -0.00000000000E+00 -0.29211033256E+02  0.29211033629E+02  0.46700000000E-02 0.  1.
        -11    1    1    2    0    0 -0.75638319722E+02  0.19053940944E+02  0.69679631164E+02  0.10459186907E+03  0.51100000000E-03 0.  1.
         11    1    1    2    0    0  0.75638319722E+02 -0.19053940944E+02  0.11764219995E+03  0.14115202898E+03  0.51100000000E-03 0. -1.
<mgrwt>
<rscale>  0 0.15906161E+03</rscale>
<asrwt>0</asrwt>
<pdfrwt beam="1">  1        1 0.33312748E-01 0.15906161E+03</pdfrwt>
<pdfrwt beam="2">  1       -1 0.44940052E-02 0.15906161E+03</pdfrwt>
<totfact> 0.25787604E+04</totfact>
</mgrwt>
</event>
<event>
 4    1  0.4244376E-001  0.3714716E+02  0.7818608E-02  0.1530320E+00
          1   -1    0    0  501    0  0.00000000000E+00  0.00000000000E+00  0.18877230106E+03  0.18877230112E+03  0.46700000000E-02 0. -1.
         -1   -1    0    0    0  501 -0.00000000000E+00 -0.00000000000E+00 -0.18274781809E+01  0.18274841478E+01  0.46700000000E-02 0.  1.
        -11    1    1    2    0    0  0.12114004050E+02  0.14072852784E+02  0.91274143254E+02  0.93143778679E+02  0.51100000000E-03 0. -1.
         11    1    1    2    0    0 -0.12114004050E+02 -0.14072852784E+02  0.95670679627E+02  0.97456006588E+02  0.51100000000E-03 0.  1.
<mgrwt>
<rscale>  0 0.37147158E+02</rscale>
<asrwt>0</asrwt>
<pdfrwt beam="1">  1        1 0.29041877E-01 0.37147158E+02</pdfrwt>
<pdfrwt beam="2">  1       -1 0.28115111E-03 0.37147158E+02</pdfrwt>
<totfact> 0.11557380E+06</totfact>
</mgrwt>
</event>
<event>
 4    1  0.4244376E-001  0.2415863E+02  0.7818608E-02  0.1673389E+00
         -1   -1    0    0    0  501 -0.00000000000E+00  0.00000000000E+00  0.21052290353E+02  0.21052290871E+02  0.46700000000E-02 0.  1.
          1   -1    0    0  501    0  0.00000000000E+00 -0.00000000000E+00 -0.69308270900E+01  0.69308286633E+01  0.46700000000E-02 0. -1.
        -11    1    1    2    0    0 -0.10927618218E+02 -0.31935419530E+01  0.23845158454E+01  0.11631743902E+02  0.51100000000E-03 0. -1.
         11    1    1    2    0    0  0.10927618218E+02  0.31935419530E+01  0.11736947417E+02  0.16351375632E+02  0.51100000000E-03 0.  1.
<mgrwt>
<rscale>  0 0.24158627E+02</rscale>
<asrwt>0</asrwt>
<pdfrwt beam="2">  1        1 0.10662813E-02 0.24158627E+02</pdfrwt>
<pdfrwt beam="1">  1       -1 0.32388140E-02 0.24158627E+02</pdfrwt>
<totfact> 0.24482186E+06</totfact>
</mgrwt>
</event>
<event>
 4    1  0.4244376E-001  0.4544009E+02  0.7818608E-02  0.1471613E+00
          1   -1    0    0  501    0  0.00000000000E+00  0.00000000000E+00  0.11448464795E+02  0.11448465748E+02  0.46700000000E-02 0.  1.
         -1   -1    0    0    0  501 -0.00000000000E+00 -0.00000000000E+00 -0.45089056057E+02  0.45089056299E+02  0.46700000000E-02 0. -1.
        -11    1    1    2    0    0 -0.21654120545E+02 -0.29484209540E+01 -0.24551143234E+02  0.32868720040E+02  0.51100000000E-03 0. -1.
         11    1    1    2    0    0  0.21654120545E+02  0.29484209540E+01 -0.90894480285E+01  0.23668802007E+02  0.51100000000E-03 0.  1.
<mgrwt>
<rscale>  0 0.45440093E+02</rscale>
<asrwt>0</asrwt>
<pdfrwt beam="1">  1        1 0.17613024E-02 0.45440093E+02</pdfrwt>
<pdfrwt beam="2">  1       -1 0.69367779E-02 0.45440093E+02</pdfrwt>
<totfact> 0.52210165E+05</totfact>
</mgrwt>
</event>
<event>
 4    1  0.4244376E-001  0.2368879E+02  0.7818608E-02  0.1680582E+00
         -1   -1    0    0    0  501 -0.00000000000E+00  0.00000000000E+00  0.11219576696E+02  0.11219577668E+02  0.46700000000E-02 0.  1.
          1   -1    0    0  501    0  0.00000000000E+00 -0.00000000000E+00 -0.12504004242E+02  0.12504005114E+02  0.46700000000E-02 0. -1.
        -11    1    1    2    0    0 -0.53152314688E+01 -0.10584753667E+02 -0.67325064651E+00  0.11863471770E+02  0.51100000000E-03 0.  1.
         11    1    1    2    0    0  0.53152314688E+01  0.10584753667E+02 -0.61117689924E+00  0.11860111012E+02  0.51100000000E-03 0. -1.
<mgrwt>
<rscale>  0 0.23688787E+02</rscale>
<asrwt>0</asrwt>
<pdfrwt beam="2">  1        1 0.19236931E-02 0.23688787E+02</pdfrwt>
<pdfrwt beam="1">  1       -1 0.17260889E-02 0.23688787E+02</pdfrwt>
<totfact> 0.26420949E+06</totfact>
</mgrwt>
</event>
<event>
 4    1  0.4244376E-001  0.2863238E+02  0.7818608E-02  0.1613717E+00
         -1   -1    0    0    0  501 -0.00000000000E+00  0.00000000000E+00  0.51267893751E+01  0.51267915021E+01  0.46700000000E-02 0. -1.
          1   -1    0    0  501    0  0.00000000000E+00 -0.00000000000E+00 -0.39976912489E+02  0.39976912762E+02  0.46700000000E-02 0.  1.
        -11    1    1    2    0    0 -0.53684913112E+01  0.94223784472E+01 -0.27022889384E+01  0.11176058354E+02  0.51100000000E-03 0. -1.
         11    1    1    2    0    0  0.53684913112E+01 -0.94223784472E+01 -0.32147834175E+02  0.33927645910E+02  0.51100000000E-03 0.  1.
<mgrwt>
<rscale>  0 0.28632378E+02</rscale>
<asrwt>0</asrwt>
<pdfrwt beam="2">  1        1 0.61502942E-02 0.28632378E+02</pdfrwt>
<pdfrwt beam="1">  1       -1 0.78873704E-03 0.28632378E+02</pdfrwt>
<totfact> 0.18029890E+06</totfact>
</mgrwt>
</event>
<event>
 4    1  0.4244376E-001  0.2132868E+02  0.7818608E-02  0.1720127E+00
          1   -1    0    0  501    0  0.00000000000E+00  0.00000000000E+00  0.72769953443E+01  0.72769968428E+01  0.46700000000E-02 0.  1.
         -1   -1    0    0    0  501 -0.00000000000E+00 -0.00000000000E+00 -0.15628450479E+02  0.15628451177E+02  0.46700000000E-02 0. -1.
        -11    1    1    2    0    0  0.10529194765E+02 -0.16225916807E+01 -0.36590804080E+01  0.11264351551E+02  0.51100000000E-03 0. -1.
         11    1    1    2    0    0 -0.10529194765E+02  0.16225916807E+01 -0.46923747270E+01  0.11641096469E+02  0.51100000000E-03 0.  1.
<mgrwt>
<rscale>  0 0.21328684E+02</rscale>
<asrwt>0</asrwt>
<pdfrwt beam="1">  1        1 0.11195379E-02 0.21328684E+02</pdfrwt>
<pdfrwt beam="2">  1       -1 0.24043772E-02 0.21328684E+02</pdfrwt>
<totfact> 0.32870414E+06</totfact>
</mgrwt>
</event>
<event>
 4    1  0.4244376E-001  0.3004104E+02  0.7818608E-02  0.1597635E+00
          1   -1    0    0  501    0  0.00000000000E+00  0.00000000000E+00  0.24759094035E+02  0.24759094475E+02  0.46700000000E-02 0. -1.
         -1   -1    0    0    0  501 -0.00000000000E+00 -0.00000000000E+00 -0.91124477512E+01  0.91124489479E+01  0.46700000000E-02 0.  1.
        -11    1    1    2    0    0  0.17754298040E+01 -0.99062077943E+01 -0.47488269721E+01  0.11128183218E+02  0.51100000000E-03 0.  1.
         11    1    1    2    0    0 -0.17754298040E+01  0.99062077943E+01  0.20395473256E+02  0.22743360206E+02  0.51100000000E-03 0. -1.
<mgrwt>
<rscale>  0 0.30041037E+02</rscale>
<asrwt>0</asrwt>
<pdfrwt beam="1">  1        1 0.38090915E-02 0.30041037E+02</pdfrwt>
<pdfrwt beam="2">  1       -1 0.14019152E-02 0.30041037E+02</pdfrwt>
<totfact> 0.15603902E+06</totfact>
</mgrwt>
</event>
<event>
 4    1  0.4244376E-001  0.3511773E+02  0.7818608E-02  0.1547558E+00
         -1   -1    0    0    0  501 -0.00000000000E+00  0.00000000000E+00  0.26663742209E+01  0.26663783105E+01  0.46700000000E-02 0. -1.
          1   -1    0    0  501    0  0.00000000000E+00 -0.00000000000E+00 -0.11563024528E+03  0.11563024538E+03  0.46700000000E-02 0.  1.
        -11    1    1    2    0    0  0.16842500407E+02 -0.26778891930E+01 -0.70562746841E+02  0.72594367223E+02  0.51100000000E-03 0.  1.
         11    1    1    2    0    0 -0.16842500407E+02  0.26778891930E+01 -0.42401124221E+02  0.45702256464E+02  0.51100000000E-03 0. -1.
<mgrwt>
<rscale>  0 0.35117731E+02</rscale>
<asrwt>0</asrwt>
<pdfrwt beam="2">  1        1 0.17789265E-01 0.35117731E+02</pdfrwt>
<pdfrwt beam="1">  1       -1 0.41021183E-03 0.35117731E+02</pdfrwt>
<totfact> 0.12302387E+06</totfact>
</mgrwt>
</event>
<event>
 4    1  0.4244376E-001  0.2126629E+02  0.7818608E-02  0.1721259E+00
          1   -1    0    0  501    0  0.00000000000E+00  0.00000000000E+00  0.29994095173E+01  0.29994131528E+01  0.46700000000E-02 0. -1.
         -1   -1    0    0    0  501 -0.00000000000E+00 -0.00000000000E+00 -0.37695333043E+02  0.37695333333E+02  0.46700000000E-02 0.  1.
        -11    1    1    2    0    0 -0.77568869913E+01 -0.69884900878E+01 -0.13494328566E+02  0.17061805098E+02  0.51100000000E-03 0. -1.
         11    1    1    2    0    0  0.77568869913E+01  0.69884900878E+01 -0.21201594960E+02  0.23632941387E+02  0.51100000000E-03 0.  1.
<mgrwt>
<rscale>  0 0.21266295E+02</rscale>
<asrwt>0</asrwt>
<pdfrwt beam="1">  1        1 0.46144795E-03 0.21266295E+02</pdfrwt>
<pdfrwt beam="2">  1       -1 0.57992820E-02 0.21266295E+02</pdfrwt>
<totfact> 0.31297296E+06</totfact>
</mgrwt>
</event>
<event>
 4    1  0.4244376E-001  0.3559815E+02  0.7818608E-02  0.1543352E+00
          1   -1    0    0  501    0  0.00000000000E+00  0.00000000000E+00  0.97251732487E+01  0.97251743700E+01  0.46700000000E-02 0.  1.
         -1   -1    0    0    0  501 -0.00000000000E+00 -0.00000000000E+00 -0.32575987574E+02  0.32575987908E+02  0.46700000000E-02 0. -1.
        -11    1    1    2    0    0  0.87930840913E+01  0.14343275655E+02 -0.18329733849E+02  0.24880253769E+02  0.51100000000E-03 0. -1.
         11    1    1    2    0    0 -0.87930840913E+01 -0.14343275655E+02 -0.45210804755E+01  0.17420908509E+02  0.51100000000E-03 0.  1.
<mgrwt>
<rscale>  0 0.35598155E+02</rscale>
<asrwt>0</asrwt>
<pdfrwt beam="1">  1        1 0.14961806E-02 0.35598155E+02</pdfrwt>
<pdfrwt beam="2">  1       -1 0.50116905E-02 0.35598155E+02</pdfrwt>
<totfact> 0.96736463E+05</totfact>
</mgrwt>
</event>
<event>
 4    1  0.4244376E-001  0.2016071E+02  0.7818608E-02  0.1742151E+00
          1   -1    0    0  501    0  0.00000000000E+00  0.00000000000E+00  0.43596666178E+02  0.43596666428E+02  0.46700000000E-02 0.  1.
         -1   -1    0    0    0  501 -0.00000000000E+00 -0.00000000000E+00 -0.23307618384E+01  0.23307665168E+01  0.46700000000E-02 0. -1.
        -11    1    1    2    0    0 -0.32800412965E+01 -0.95246699141E+01  0.19794231277E+02  0.22210123818E+02  0.51100000000E-03 0. -1.
         11    1    1    2    0    0  0.32800412965E+01  0.95246699141E+01  0.21471673062E+02  0.23717309127E+02  0.51100000000E-03 0.  1.
<mgrwt>
<rscale>  0 0.20160710E+02</rscale>
<asrwt>0</asrwt>
<pdfrwt beam="1">  1        1 0.67071800E-02 0.20160710E+02</pdfrwt>
<pdfrwt beam="2">  1       -1 0.35857911E-03 0.20160710E+02</pdfrwt>
<totfact> 0.40602228E+06</totfact>
</mgrwt>
</event>
<event>
 4    1  0.4244376E-001  0.3059646E+02  0.7818608E-02  0.1591588E+00
         -1   -1    0    0    0  501 -0.00000000000E+00  0.00000000000E+00  0.61690835471E+02  0.61690835648E+02  0.46700000000E-02 0.  1.
          1   -1    0    0  501    0  0.00000000000E+00 -0.00000000000E+00 -0.37936863464E+01  0.37936892208E+01  0.46700000000E-02 0. -1.
        -11    1    1    2    0    0  0.70280934192E+01 -0.75062591141E+01  0.53191056873E+02  0.54175885360E+02  0.51100000000E-03 0.  1.
         11    1    1    2    0    0 -0.70280934192E+01  0.75062591141E+01  0.47060922516E+01  0.11308639509E+02  0.51100000000E-03 0. -1.
<mgrwt>
<rscale>  0 0.30596456E+02</rscale>
<asrwt>0</asrwt>
<pdfrwt beam="2">  1        1 0.58364428E-03 0.30596456E+02</pdfrwt>
<pdfrwt beam="1">  1       -1 0.94908981E-02 0.30596456E+02</pdfrwt>
<totfact> 0.12995371E+06</totfact>
</mgrwt>
</event>
<event>
 4    1  0.4244376E-001  0.4667154E+02  0.7818608E-02  0.1464168E+00
         -1   -1    0    0    0  501 -0.00000000000E+00  0.00000000000E+00  0.44332051155E+02  0.44332051401E+02  0.46700000000E-02 0. -1.
          1   -1    0    0  501    0  0.00000000000E+00 -0.00000000000E+00 -0.12283622357E+02  0.12283623245E+02  0.46700000000E-02 0.  1.
        -11    1    1    2    0    0 -0.18467910787E+02  0.72773505833E+01  0.30907635532E+02  0.36732893907E+02  0.51100000000E-03 0.  1.
         11    1    1    2    0    0  0.18467910787E+02 -0.72773505833E+01  0.11407932658E+01  0.19882780739E+02  0.51100000000E-03 0. -1.
<mgrwt>
<rscale>  0 0.46671542E+02</rscale>
<asrwt>0</asrwt>
<pdfrwt beam="2">  1        1 0.18897882E-02 0.46671542E+02</pdfrwt>
<pdfrwt beam="1">  1       -1 0.68203156E-02 0.46671542E+02</pdfrwt>
<totfact> 0.48999566E+05</totfact>
</mgrwt>
</event>
<event>
 4    1  0.4244376E-001  0.2834673E+02  0.7818608E-02  0.1617117E+00
         -1   -1    0    0    0  501 -0.00000000000E+00  0.00000000000E+00  0.24887594741E+02  0.24887595179E+02  0.46700000000E-02 0.  1.
          1   -1    0    0  501    0  0.00000000000E+00 -0.00000000000E+00 -0.80716594317E+01  0.80716607827E+01  0.46700000000E-02 0. -1.
        -11    1    1    2    0    0  0.11776406163E+02 -0.52349665718E+01  0.15493488730E+01  0.12980335100E+02  0.51100000000E-03 0. -1.
         11    1    1    2    0    0 -0.11776406163E+02  0.52349665718E+01  0.15266586436E+02  0.19978920861E+02  0.51100000000E-03 0.  1.
<mgrwt>
<rscale>  0 0.28346726E+02</rscale>
<asrwt>0</asrwt>
<pdfrwt beam="2">  1        1 0.12417939E-02 0.28346726E+02</pdfrwt>
<pdfrwt beam="1">  1       -1 0.38288609E-02 0.28346726E+02</pdfrwt>
<totfact> 0.16815263E+06</totfact>
</mgrwt>
</event>
<event>
 4    1  0.4244376E-001  0.4346835E+02  0.7818608E-02  0.1484136E+00
          1   -1    0    0  501    0  0.00000000000E+00  0.00000000000E+00  0.26927697036E+02  0.26927697441E+02  0.46700000000E-02 0. -1.
         -1   -1    0    0    0  501 -0.00000000000E+00 -0.00000000000E+00 -0.17542320270E+02  0.17542320891E+02  0.46700000000E-02 0.  1.
        -11    1    1    2    0    0 -0.16574151872E+02 -0.14010513943E+02  0.58933149713E+01  0.22488400851E+02  0.51100000000E-03 0. -1.
         11    1    1    2    0    0  0.16574151872E+02  0.14010513943E+02  0.34920617946E+01  0.21981617481E+02  0.51100000000E-03 0.  1.
<mgrwt>
<rscale>  0 0.43468347E+02</rscale>
<asrwt>0</asrwt>
<pdfrwt beam="1">  1        1 0.41427227E-02 0.43468347E+02</pdfrwt>
<pdfrwt beam="2">  1       -1 0.26988186E-02 0.43468347E+02</pdfrwt>
<totfact> 0.63070529E+05</totfact>
</mgrwt>
</event>
<event>
 4    1  0.4244376E-001  0.2146515E+02  0.7818608E-02  0.1717670E+00
          1   -1    0    0  501    0  0.00000000000E+00  0.00000000000E+00  0.28068335834E+01  0.28068374684E+01  0.46700000000E-02 0.  1.
         -1   -1    0    0    0  501 -0.00000000000E+00 -0.00000000000E+00 -0.41038441997E+02  0.41038442263E+02  0.46700000000E-02 0. -1.
        -11    1    1    2    0    0 -0.98900833995E+01  0.27909496695E+01 -0.25439709907E+02  0.27436872820E+02  0.51100000000E-03 0. -1.
         11    1    1    2    0    0  0.98900833995E+01 -0.27909496695E+01 -0.12791898507E+02  0.16408406911E+02  0.51100000000E-03 0.  1.
<mgrwt>
<rscale>  0 0.21465150E+02</rscale>
<asrwt>0</asrwt>
<pdfrwt beam="1">  1        1 0.43182090E-03 0.21465150E+02</pdfrwt>
<pdfrwt beam="2">  1       -1 0.63136064E-02 0.21465150E+02</pdfrwt>
<totfact> 0.30433795E+06</totfact>
</mgrwt>
</event>
<event>
 4    1  0.4244376E-001  0.2581140E+02  0.7818608E-02  0.1649614E+00
         -1   -1    0    0    0  501 -0.00000000000E+00  0.00000000000E+00  0.17554587134E+02  0.17554587755E+02  0.46700000000E-02 0. -1.
          1   -1    0    0  501    0  0.00000000000E+00 -0.00000000000E+00 -0.94879486960E+01  0.94879498453E+01  0.46700000000E-02 0.  1.
        -11    1    1    2    0    0 -0.83337041715E+01  0.97818338306E+01  0.52827386580E+01  0.13893963664E+02  0.51100000000E-03 0.  1.
         11    1    1    2    0    0  0.83337041715E+01 -0.97818338306E+01  0.27838997797E+01  0.13148573936E+02  0.51100000000E-03 0. -1.
<mgrwt>
<rscale>  0 0.25811396E+02</rscale>
<asrwt>0</asrwt>
<pdfrwt beam="2">  1        1 0.14596846E-02 0.25811396E+02</pdfrwt>
<pdfrwt beam="1">  1       -1 0.27007058E-02 0.25811396E+02</pdfrwt>
<totfact> 0.21285803E+06</totfact>
</mgrwt>
</event>
<event>
 4    1  0.4244376E-001  0.2871201E+02  0.7818608E-02  0.1612778E+00
          1   -1    0    0  501    0  0.00000000000E+00  0.00000000000E+00  0.35924041203E+02  0.35924041506E+02  0.46700000000E-02 0.  1.
         -1   -1    0    0    0  501 -0.00000000000E+00 -0.00000000000E+00 -0.57369623262E+01  0.57369642270E+01  0.46700000000E-02 0. -1.
        -11    1    1    2    0    0 -0.13069793479E+02 -0.17577233879E+01  0.68616708844E+01  0.14865786918E+02  0.51100000000E-03 0. -1.
         11    1    1    2    0    0  0.13069793479E+02  0.17577233879E+01  0.23325407992E+02  0.26795218815E+02  0.51100000000E-03 0.  1.
<mgrwt>
<rscale>  0 0.28712013E+02</rscale>
<asrwt>0</asrwt>
<pdfrwt beam="1">  1        1 0.55267757E-02 0.28712013E+02</pdfrwt>
<pdfrwt beam="2">  1       -1 0.88260976E-03 0.28712013E+02</pdfrwt>
<totfact> 0.17782966E+06</totfact>
</mgrwt>
</event>
<event>
 4    1  0.4244376E-001  0.2672125E+02  0.7818608E-02  0.1637443E+00
         -1   -1    0    0    0  501 -0.00000000000E+00  0.00000000000E+00  0.55167892625E+01  0.55167912391E+01  0.46700000000E-02 0.  1.
          1   -1    0    0  501    0  0.00000000000E+00 -0.00000000000E+00 -0.32356900015E+02  0.32356900352E+02  0.46700000000E-02 0. -1.
        -11    1    1    2    0    0  0.11480827222E+01  0.13306292907E+02 -0.12907610211E+02  0.18573689092E+02  0.51100000000E-03 0.  1.
         11    1    1    2    0    0 -0.11480827222E+01 -0.13306292907E+02 -0.13932500542E+02  0.19300002499E+02  0.51100000000E-03 0. -1.
<mgrwt>
<rscale>  0 0.26721246E+02</rscale>
<asrwt>0</asrwt>
<pdfrwt beam="2">  1        1 0.49779847E-02 0.26721246E+02</pdfrwt>
<pdfrwt beam="1">  1       -1 0.84873701E-03 0.26721246E+02</pdfrwt>
<totfact> 0.20922856E+06</totfact>
</mgrwt>
</event>
<event>
 4    1  0.4244376E-001  0.3181582E+02  0.7818608E-02  0.1578843E+00
          1   -1    0    0  501    0  0.00000000000E+00  0.00000000000E+00  0.32519277697E+02  0.32519278032E+02  0.46700000000E-02 0. -1.
         -1   -1    0    0    0  501 -0.00000000000E+00 -0.00000000000E+00 -0.77818925779E+01  0.77818939792E+01  0.46700000000E-02 0.  1.
        -11    1    1    2    0    0 -0.12730859196E+02 -0.19907293731E+01  0.55206454792E+00  0.12897385581E+02  0.51100000000E-03 0.  1.
         11    1    1    2    0    0  0.12730859196E+02  0.19907293731E+01  0.24185320571E+02  0.27403786430E+02  0.51100000000E-03 0. -1.
<mgrwt>
<rscale>  0 0.31815817E+02</rscale>
<asrwt>0</asrwt>
<pdfrwt beam="1">  1        1 0.50029659E-02 0.31815817E+02</pdfrwt>
<pdfrwt beam="2">  1       -1 0.11972144E-02 0.31815817E+02</pdfrwt>
<totfact> 0.13824964E+06</totfact>
</mgrwt>
</event>
<event>
 4    1  0.4244376E-001  0.3765890E+02  0.7818608E-02  0.1526182E+00
         -1   -1    0    0    0  501 -0.00000000000E+00  0.00000000000E+00  0.14179648524E+02  0.14179649293E+02  0.46700000000E-02 0. -1.
          1   -1    0    0  501    0  0.00000000000E+00 -0.00000000000E+00 -0.25004016971E+02  0.25004017407E+02  0.46700000000E-02 0.  1.
        -11    1    1    2    0    0  0.23032343610E+01  0.11347095772E+02  0.10037822086E+02  0.15323816217E+02  0.51100000000E-03 0. -1.
         11    1    1    2    0    0 -0.23032343610E+01 -0.11347095772E+02 -0.20862190532E+02  0.23859850482E+02  0.51100000000E-03 0.  1.
<mgrwt>
<rscale>  0 0.37658900E+02</rscale>
<asrwt>0</asrwt>
<pdfrwt beam="2">  1        1 0.38467719E-02 0.37658900E+02</pdfrwt>
<pdfrwt beam="1">  1       -1 0.21814845E-02 0.37658900E+02</pdfrwt>
<totfact> 0.89923312E+05</totfact>
</mgrwt>
</event>
<event>
 4    1  0.4244376E-001  0.4039049E+02  0.7818608E-02  0.1505357E+00
         -1   -1    0    0    0  501 -0.00000000000E+00  0.00000000000E+00  0.46137264139E+01  0.46137287774E+01  0.46700000000E-02 0. -1.
          1   -1    0    0  501    0  0.00000000000E+00 -0.00000000000E+00 -0.88398793624E+02  0.88398793748E+02  0.46700000000E-02 0.  1.
        -11    1    1    2    0    0  0.19528513163E+02  0.28997586471E+01 -0.32101694681E+02  0.37686738094E+02  0.51100000000E-03 0. -1.
         11    1    1    2    0    0 -0.19528513163E+02 -0.28997586471E+01 -0.51683372530E+02  0.55325784431E+02  0.51100000000E-03 0.  1.
<mgrwt>
<rscale>  0 0.40390492E+02</rscale>
<asrwt>0</asrwt>
<pdfrwt beam="2">  1        1 0.13599813E-01 0.40390492E+02</pdfrwt>
<pdfrwt beam="1">  1       -1 0.70980432E-03 0.40390492E+02</pdfrwt>
<totfact> 0.84611052E+05</totfact>
</mgrwt>
</event>
<event>
 4    1  0.4244376E-001  0.2272564E+02  0.7818608E-02  0.1695996E+00
          1   -1    0    0  501    0  0.00000000000E+00  0.00000000000E+00  0.89072555144E+01  0.89072567386E+01  0.46700000000E-02 0.  1.
         -1   -1    0    0    0  501 -0.00000000000E+00 -0.00000000000E+00 -0.14495331945E+02  0.14495332697E+02  0.46700000000E-02 0. -1.
        -11    1    1    2    0    0 -0.10110429315E+01  0.10642567727E+02  0.11712732527E+01  0.10754456608E+02  0.51100000000E-03 0.  1.
         11    1    1    2    0    0  0.10110429315E+01 -0.10642567727E+02 -0.67593496834E+01  0.12648132828E+02  0.51100000000E-03 0. -1.
<mgrwt>
<rscale>  0 0.22725637E+02</rscale>
<asrwt>0</asrwt>
<pdfrwt beam="1">  1        1 0.13703472E-02 0.22725637E+02</pdfrwt>
<pdfrwt beam="2">  1       -1 0.22300512E-02 0.22725637E+02</pdfrwt>
<totfact> 0.28644565E+06</totfact>
</mgrwt>
</event>
<event>
 4    1  0.4244376E-001  0.3178109E+02  0.7818608E-02  0.1579196E+00
          1   -1    0    0  501    0  0.00000000000E+00  0.00000000000E+00  0.89943444351E+01  0.89943456475E+01  0.46700000000E-02 0.  1.
         -1   -1    0    0    0  501 -0.00000000000E+00 -0.00000000000E+00 -0.28074242315E+02  0.28074242703E+02  0.46700000000E-02 0. -1.
        -11    1    1    2    0    0  0.75197949223E+01 -0.13530077146E+02 -0.53508802804E+01  0.16378101944E+02  0.51100000000E-03 0.  1.
         11    1    1    2    0    0 -0.75197949223E+01  0.13530077146E+02 -0.13729017599E+02  0.20690486407E+02  0.51100000000E-03 0. -1.
<mgrwt>
<rscale>  0 0.31781091E+02</rscale>
<asrwt>0</asrwt>
<pdfrwt beam="1">  1        1 0.13837454E-02 0.31781091E+02</pdfrwt>
<pdfrwt beam="2">  1       -1 0.43191143E-02 0.31781091E+02</pdfrwt>
<totfact> 0.12781698E+06</totfact>
</mgrwt>
</event>
<event>
 4    1  0.4244376E-001  0.1483685E+03  0.7818608E-02  0.1202492E+00
          1   -1    0    0  501    0  0.00000000000E+00  0.00000000000E+00  0.17034053786E+03  0.17034053792E+03  0.46700000000E-02 0. -1.
         -1   -1    0    0    0  501 -0.00000000000E+00 -0.00000000000E+00 -0.32307640745E+02  0.32307641083E+02  0.46700000000E-02 0.  1.
        -11    1    1    2    0    0  0.29511143147E+02 -0.58009901877E+02  0.20394617167E+02  0.68205547394E+02  0.51100000000E-03 0.  1.
         11    1    1    2    0    0 -0.29511143147E+02  0.58009901877E+02  0.11763827994E+03  0.13444263161E+03  0.51100000000E-03 0. -1.
<mgrwt>
<rscale>  0 0.14836847E+03</rscale>
<asrwt>0</asrwt>
<pdfrwt beam="1">  1        1 0.26206236E-01 0.14836847E+03</pdfrwt>
<pdfrwt beam="2">  1       -1 0.49704063E-02 0.14836847E+03</pdfrwt>
<totfact> 0.29767136E+04</totfact>
</mgrwt>
</event>
<event>
 4    1  0.4244376E-001  0.3714892E+02  0.7818608E-02  0.1530306E+00
          1   -1    0    0  501    0  0.00000000000E+00  0.00000000000E+00  0.31792054509E+02  0.31792054852E+02  0.46700000000E-02 0. -1.
         -1   -1    0    0    0  501 -0.00000000000E+00 -0.00000000000E+00 -0.10852097642E+02  0.10852098646E+02  0.46700000000E-02 0.  1.
        -11    1    1    2    0    0 -0.17896188810E+02  0.43450764318E+01  0.13248156256E+02  0.22686271345E+02  0.51100000000E-03 0. -1.
         11    1    1    2    0    0  0.17896188810E+02 -0.43450764318E+01  0.76918006117E+01  0.19957882153E+02  0.51100000000E-03 0.  1.
<mgrwt>
<rscale>  0 0.37148917E+02</rscale>
<asrwt>0</asrwt>
<pdfrwt beam="1">  1        1 0.48910853E-02 0.37148917E+02</pdfrwt>
<pdfrwt beam="2">  1       -1 0.16695536E-02 0.37148917E+02</pdfrwt>
<totfact> 0.94606961E+05</totfact>
</mgrwt>
</event>
<event>
 4    1  0.4244376E-001  0.2779593E+02  0.7818608E-02  0.1623813E+00
          1   -1    0    0  501    0  0.00000000000E+00  0.00000000000E+00  0.99757577629E+02  0.99757577738E+02  0.46700000000E-02 0.  1.
         -1   -1    0    0    0  501 -0.00000000000E+00 -0.00000000000E+00 -0.19362250305E+01  0.19362306623E+01  0.46700000000E-02 0. -1.
        -11    1    1    2    0    0  0.29847621039E+01 -0.13548365175E+02  0.51941802955E+02  0.53762606877E+02  0.51100000000E-03 0.  1.
         11    1    1    2    0    0 -0.29847621039E+01  0.13548365175E+02  0.45879549644E+02  0.47931201524E+02  0.51100000000E-03 0. -1.
<mgrwt>
<rscale>  0 0.27795929E+02</rscale>
<asrwt>0</asrwt>
<pdfrwt beam="1">  1        1 0.15347319E-01 0.27795929E+02</pdfrwt>
<pdfrwt beam="2">  1       -1 0.29788124E-03 0.27795929E+02</pdfrwt>
<totfact> 0.21012790E+06</totfact>
</mgrwt>
</event>
<event>
 4    1  0.4244376E-001  0.3128309E+02  0.7818608E-02  0.1584324E+00
         -1   -1    0    0    0  501 -0.00000000000E+00  0.00000000000E+00  0.84925933784E+02  0.84925933912E+02  0.46700000000E-02 0.  1.
          1   -1    0    0  501    0  0.00000000000E+00 -0.00000000000E+00 -0.28808374916E+01  0.28808412768E+01  0.46700000000E-02 0. -1.
        -11    1    1    2    0    0 -0.12297424553E+02 -0.92751777411E+01  0.33385861239E+02  0.36767802541E+02  0.51100000000E-03 0. -1.
         11    1    1    2    0    0  0.12297424553E+02  0.92751777411E+01  0.48659235053E+02  0.51038972648E+02  0.51100000000E-03 0.  1.
<mgrwt>
<rscale>  0 0.31283094E+02</rscale>
<asrwt>0</asrwt>
<pdfrwt beam="2">  1        1 0.44320604E-03 0.31283094E+02</pdfrwt>
<pdfrwt beam="1">  1       -1 0.13065529E-01 0.31283094E+02</pdfrwt>
<totfact> 0.11832610E+06</totfact>
</mgrwt>
</event>
<event>
 4    1  0.4244376E-001  0.3570078E+02  0.7818608E-02  0.1542464E+00
          1   -1    0    0  501    0  0.00000000000E+00  0.00000000000E+00  0.31638524310E+02  0.31638524655E+02  0.46700000000E-02 0.  1.
         -1   -1    0    0    0  501 -0.00000000000E+00 -0.00000000000E+00 -0.10071150745E+02  0.10071151828E+02  0.46700000000E-02 0. -1.
        -11    1    1    2    0    0  0.15834115576E+02 -0.37380748802E+00  0.20402061516E+02  0.25828338361E+02  0.51100000000E-03 0.  1.
         11    1    1    2    0    0 -0.15834115576E+02  0.37380748802E+00  0.11653120497E+01  0.15881338122E+02  0.51100000000E-03 0. -1.
<mgrwt>
<rscale>  0 0.35700777E+02</rscale>
<asrwt>0</asrwt>
<pdfrwt beam="1">  1        1 0.48674654E-02 0.35700777E+02</pdfrwt>
<pdfrwt beam="2">  1       -1 0.15494079E-02 0.35700777E+02</pdfrwt>
<totfact> 0.10430341E+06</totfact>
</mgrwt>
</event>
<event>
 4    1  0.4244376E-001  0.2439285E+02  0.7818608E-02  0.1669879E+00
         -1   -1    0    0    0  501 -0.00000000000E+00  0.00000000000E+00  0.59101348907E+01  0.59101367357E+01  0.46700000000E-02 0.  1.
          1   -1    0    0  501    0  0.00000000000E+00 -0.00000000000E+00 -0.25169085910E+02  0.25169086344E+02  0.46700000000E-02 0. -1.
        -11    1    1    2    0    0  0.97499835394E+01  0.25990074655E+01 -0.18358372735E+02  0.20948672239E+02  0.51100000000E-03 0. -1.
         11    1    1    2    0    0 -0.97499835394E+01 -0.25990074655E+01 -0.90057828459E+00  0.10130550841E+02  0.51100000000E-03 0.  1.
<mgrwt>
<rscale>  0 0.24392846E+02</rscale>
<asrwt>0</asrwt>
<pdfrwt beam="2">  1        1 0.38721672E-02 0.24392846E+02</pdfrwt>
<pdfrwt beam="1">  1       -1 0.90925171E-03 0.24392846E+02</pdfrwt>
<totfact> 0.25517817E+06</totfact>
</mgrwt>
</event>
<event>
 4    1  0.4244376E-001  0.5211196E+02  0.7818608E-02  0.1434272E+00
          1   -1    0    0  501    0  0.00000000000E+00  0.00000000000E+00  0.43521258855E+02  0.43521259106E+02  0.46700000000E-02 0. -1.
         -1   -1    0    0    0  501 -0.00000000000E+00 -0.00000000000E+00 -0.15599598229E+02  0.15599598928E+02  0.46700000000E-02 0.  1.
        -11    1    1    2    0    0 -0.29466157921E+01  0.11667233899E+02  0.40179916138E+02  0.41943206275E+02  0.51100000000E-03 0. -1.
         11    1    1    2    0    0  0.29466157921E+01 -0.11667233899E+02 -0.12258255512E+02  0.17177651759E+02  0.51100000000E-03 0.  1.
<mgrwt>
<rscale>  0 0.52111963E+02</rscale>
<asrwt>0</asrwt>
<pdfrwt beam="1">  1        1 0.66955784E-02 0.52111963E+02</pdfrwt>
<pdfrwt beam="2">  1       -1 0.23999383E-02 0.52111963E+02</pdfrwt>
<totfact> 0.41364644E+05</totfact>
</mgrwt>
</event>
<event>
 4    1  0.4244376E-001  0.2856470E+02  0.7818608E-02  0.1614518E+00
         -1   -1    0    0    0  501 -0.00000000000E+00  0.00000000000E+00  0.91280365328E+01  0.91280377274E+01  0.46700000000E-02 0. -1.
          1   -1    0    0  501    0  0.00000000000E+00 -0.00000000000E+00 -0.22347141584E+02  0.22347142072E+02  0.46700000000E-02 0.  1.
        -11    1    1    2    0    0  0.13324727661E+02 -0.45141435399E+01 -0.38970897249E+01  0.14598396067E+02  0.51100000000E-03 0. -1.
         11    1    1    2    0    0 -0.13324727661E+02  0.45141435399E+01 -0.93220153259E+01  0.16876783732E+02  0.51100000000E-03 0.  1.
<mgrwt>
<rscale>  0 0.28564702E+02</rscale>
<asrwt>0</asrwt>
<pdfrwt beam="2">  1        1 0.34380219E-02 0.28564702E+02</pdfrwt>
<pdfrwt beam="1">  1       -1 0.14043134E-02 0.28564702E+02</pdfrwt>
<totfact> 0.17497746E+06</totfact>
</mgrwt>
</event>
<event>
 4    1  0.4244376E-001  0.2728134E+02  0.7818608E-02  0.1630243E+00
          1   -1    0    0  501    0  0.00000000000E+00  0.00000000000E+00  0.99861498596E+02  0.99861498705E+02  0.46700000000E-02 0.  1.
         -1   -1    0    0    0  501 -0.00000000000E+00 -0.00000000000E+00 -0.18632566005E+01  0.18632624528E+01  0.46700000000E-02 0. -1.
        -11    1    1    2    0    0 -0.36714167703E+00 -0.13504659486E+02  0.56031785335E+02  0.57637414835E+02  0.51100000000E-03 0.  1.
         11    1    1    2    0    0  0.36714167703E+00  0.13504659486E+02  0.41966456661E+02  0.44087346323E+02  0.51100000000E-03 0. -1.
<mgrwt>
<rscale>  0 0.27281342E+02</rscale>
<asrwt>0</asrwt>
<pdfrwt beam="1">  1        1 0.15363312E-01 0.27281342E+02</pdfrwt>
<pdfrwt beam="2">  1       -1 0.28665524E-03 0.27281342E+02</pdfrwt>
<totfact> 0.21949107E+06</totfact>
</mgrwt>
</event>
<event>
 4    1  0.4244376E-001  0.2270611E+02  0.7818608E-02  0.1696319E+00
          1   -1    0    0  501    0  0.00000000000E+00  0.00000000000E+00  0.80347362379E+01  0.80347375951E+01  0.46700000000E-02 0.  1.
         -1   -1    0    0    0  501 -0.00000000000E+00 -0.00000000000E+00 -0.16041829980E+02  0.16041830660E+02  0.46700000000E-02 0. -1.
        -11    1    1    2    0    0 -0.72048161665E+01 -0.87677642631E+01 -0.43533531576E+01  0.12154618470E+02  0.51100000000E-03 0.  1.
         11    1    1    2    0    0  0.72048161665E+01  0.87677642631E+01 -0.36537405848E+01  0.11921949785E+02  0.51100000000E-03 0. -1.
<mgrwt>
<rscale>  0 0.22706113E+02</rscale>
<asrwt>0</asrwt>
<pdfrwt beam="1">  1        1 0.12361134E-02 0.22706113E+02</pdfrwt>
<pdfrwt beam="2">  1       -1 0.24679740E-02 0.22706113E+02</pdfrwt>
<totfact> 0.28557266E+06</totfact>
</mgrwt>
</event>
<event>
 4    1  0.4244376E-001  0.2718635E+02  0.7818608E-02  0.1631449E+00
          1   -1    0    0  501    0  0.00000000000E+00  0.00000000000E+00  0.31574723602E+02  0.31574723947E+02  0.46700000000E-02 0. -1.
         -1   -1    0    0    0  501 -0.00000000000E+00 -0.00000000000E+00 -0.58519728345E+01  0.58519746978E+01  0.46700000000E-02 0.  1.
        -11    1    1    2    0    0 -0.87249083857E+01 -0.63696593942E+01  0.24220204185E+02  0.26520084430E+02  0.51100000000E-03 0. -1.
         11    1    1    2    0    0  0.87249083857E+01  0.63696593942E+01  0.15025465818E+01  0.10906614215E+02  0.51100000000E-03 0.  1.
<mgrwt>
<rscale>  0 0.27186354E+02</rscale>
<asrwt>0</asrwt>
<pdfrwt beam="1">  1        1 0.48576499E-02 0.27186354E+02</pdfrwt>
<pdfrwt beam="2">  1       -1 0.90030369E-03 0.27186354E+02</pdfrwt>
<totfact> 0.20062559E+06</totfact>
</mgrwt>
</event>
<event>
 4    1  0.4244376E-001  0.3211525E+02  0.7818608E-02  0.1575819E+00
          1   -1    0    0  501    0  0.00000000000E+00  0.00000000000E+00  0.29327073469E+02  0.29327073841E+02  0.46700000000E-02 0. -1.
         -1   -1    0    0    0  501 -0.00000000000E+00 -0.00000000000E+00 -0.87921273879E+01  0.87921286281E+01  0.46700000000E-02 0.  1.
        -11    1    1    2    0    0  0.16050136111E+02  0.39797143877E+00  0.99272800853E+01  0.18876338114E+02  0.51100000000E-03 0. -1.
         11    1    1    2    0    0 -0.16050136111E+02 -0.39797143877E+00  0.10607665996E+02  0.19242864355E+02  0.51100000000E-03 0.  1.
<mgrwt>
<rscale>  0 0.32115255E+02</rscale>
<asrwt>0</asrwt>
<pdfrwt beam="1">  1        1 0.45118577E-02 0.32115255E+02</pdfrwt>
<pdfrwt beam="2">  1       -1 0.13526351E-02 0.32115255E+02</pdfrwt>
<totfact> 0.13425196E+06</totfact>
</mgrwt>
</event>
<event>
 4    1  0.4244376E-001  0.2423128E+02  0.7818608E-02  0.1672295E+00
          1   -1    0    0  501    0  0.00000000000E+00  0.00000000000E+00  0.30412816512E+02  0.30412816871E+02  0.46700000000E-02 0. -1.
         -1   -1    0    0    0  501 -0.00000000000E+00 -0.00000000000E+00 -0.48265393261E+01  0.48265415853E+01  0.46700000000E-02 0.  1.
        -11    1    1    2    0    0  0.96760934607E+01  0.49604401638E+01  0.20564551541E+02  0.23262277009E+02  0.51100000000E-03 0. -1.
         11    1    1    2    0    0 -0.96760934607E+01 -0.49604401638E+01  0.50217256447E+01  0.11977081447E+02  0.51100000000E-03 0.  1.
<mgrwt>
<rscale>  0 0.24231277E+02</rscale>
<asrwt>0</asrwt>
<pdfrwt beam="1">  1        1 0.46788951E-02 0.24231277E+02</pdfrwt>
<pdfrwt beam="2">  1       -1 0.74254471E-03 0.24231277E+02</pdfrwt>
<totfact> 0.26177756E+06</totfact>
</mgrwt>
</event>
<event>
 4    1  0.4244376E-001  0.2561053E+02  0.7818608E-02  0.1652384E+00
         -1   -1    0    0    0  501 -0.00000000000E+00  0.00000000000E+00  0.25274089828E+01  0.25274132973E+01  0.46700000000E-02 0.  1.
          1   -1    0    0  501    0  0.00000000000E+00 -0.00000000000E+00 -0.64878573475E+02  0.64878573644E+02  0.46700000000E-02 0. -1.
        -11    1    1    2    0    0  0.43564385458E+01  0.10568199737E+02 -0.15985381319E+02  0.19651916412E+02  0.51100000000E-03 0.  1.
         11    1    1    2    0    0 -0.43564385458E+01 -0.10568199737E+02 -0.46365783174E+02  0.47754070529E+02  0.51100000000E-03 0. -1.
<mgrwt>
<rscale>  0 0.25610532E+02</rscale>
<asrwt>0</asrwt>
<pdfrwt beam="2">  1        1 0.99813181E-02 0.25610532E+02</pdfrwt>
<pdfrwt beam="1">  1       -1 0.38883255E-03 0.25610532E+02</pdfrwt>
<totfact> 0.24306971E+06</totfact>
</mgrwt>
</event>
<event>
 4    1  0.4244376E-001  0.4239909E+02  0.7818608E-02  0.1491264E+00
          1   -1    0    0  501    0  0.00000000000E+00  0.00000000000E+00  0.17155240086E+03  0.17155240092E+03  0.46700000000E-02 0.  1.
         -1   -1    0    0    0  501 -0.00000000000E+00 -0.00000000000E+00 -0.26197260689E+01  0.26197302314E+01  0.46700000000E-02 0. -1.
        -11    1    1    2    0    0 -0.20447425626E+02 -0.47516873798E+01  0.72318471410E+02  0.75303632416E+02  0.51100000000E-03 0.  1.
         11    1    1    2    0    0  0.20447425626E+02  0.47516873798E+01  0.96614203376E+02  0.98868498734E+02  0.51100000000E-03 0. -1.
<mgrwt>
<rscale>  0 0.42399088E+02</rscale>
<asrwt>0</asrwt>
<pdfrwt beam="1">  1        1 0.26392679E-01 0.42399088E+02</pdfrwt>
<pdfrwt beam="2">  1       -1 0.40303509E-03 0.42399088E+02</pdfrwt>
<totfact> 0.82467499E+05</totfact>
</mgrwt>
</event>
<event>
 4    1  0.4244376E-001  0.2315697E+02  0.7818608E-02  0.1688978E+00
         -1   -1    0    0    0  501 -0.00000000000E+00  0.00000000000E+00  0.45081449542E+02  0.45081449784E+02  0.46700000000E-02 0. -1.
          1   -1    0    0  501    0  0.00000000000E+00 -0.00000000000E+00 -0.29737558445E+01  0.29737595114E+01  0.46700000000E-02 0.  1.
        -11    1    1    2    0    0 -0.69423985833E+01 -0.89254782740E+01  0.15886547901E+02  0.19499832434E+02  0.51100000000E-03 0.  1.
         11    1    1    2    0    0  0.69423985833E+01  0.89254782740E+01  0.26221145797E+02  0.28555376861E+02  0.51100000000E-03 0. -1.
<mgrwt>
<rscale>  0 0.23156970E+02</rscale>
<asrwt>0</asrwt>
<pdfrwt beam="2">  1        1 0.45750124E-03 0.23156970E+02</pdfrwt>
<pdfrwt beam="1">  1       -1 0.69356073E-02 0.23156970E+02</pdfrwt>
<totfact> 0.25461567E+06</totfact>
</mgrwt>
</event>
<event>
 4    1  0.4244376E-001  0.2552602E+02  0.7818608E-02  0.1653559E+00
          1   -1    0    0  501    0  0.00000000000E+00  0.00000000000E+00  0.80226339042E+01  0.80226352634E+01  0.46700000000E-02 0. -1.
         -1   -1    0    0    0  501 -0.00000000000E+00 -0.00000000000E+00 -0.20304352103E+02  0.20304352640E+02  0.46700000000E-02 0.  1.
        -11    1    1    2    0    0  0.90388543958E+01  0.86736555275E+01 -0.88503327284E+01  0.15338239099E+02  0.51100000000E-03 0. -1.
         11    1    1    2    0    0 -0.90388543958E+01 -0.86736555275E+01 -0.34313854706E+01  0.12988748805E+02  0.51100000000E-03 0.  1.
<mgrwt>
<rscale>  0 0.25526019E+02</rscale>
<asrwt>0</asrwt>
<pdfrwt beam="1">  1        1 0.12342515E-02 0.25526019E+02</pdfrwt>
<pdfrwt beam="2">  1       -1 0.31237466E-02 0.25526019E+02</pdfrwt>
<totfact> 0.21652908E+06</totfact>
</mgrwt>
</event>
<event>
 4    1  0.4244376E-001  0.2497572E+02  0.7818608E-02  0.1661351E+00
          1   -1    0    0  501    0  0.00000000000E+00  0.00000000000E+00  0.51235236471E+01  0.51235257754E+01  0.46700000000E-02 0. -1.
         -1   -1    0    0    0  501 -0.00000000000E+00 -0.00000000000E+00 -0.30437382959E+02  0.30437383318E+02  0.46700000000E-02 0.  1.
        -11    1    1    2    0    0  0.67740107339E+01 -0.97183943301E+01 -0.70310814056E+01  0.13775721969E+02  0.51100000000E-03 0. -1.
         11    1    1    2    0    0 -0.67740107339E+01  0.97183943301E+01 -0.18282777907E+02  0.21785187124E+02  0.51100000000E-03 0.  1.
<mgrwt>
<rscale>  0 0.24975724E+02</rscale>
<asrwt>0</asrwt>
<pdfrwt beam="1">  1        1 0.78823462E-03 0.24975724E+02</pdfrwt>
<pdfrwt beam="2">  1       -1 0.46826744E-02 0.24975724E+02</pdfrwt>
<totfact> 0.22165260E+06</totfact>
</mgrwt>
</event>
<event>
 4    1  0.4244376E-001  0.2048222E+02  0.7818608E-02  0.1735905E+00
          1   -1    0    0  501    0  0.00000000000E+00  0.00000000000E+00  0.20795303069E+01  0.20795355507E+01  0.46700000000E-02 0. -1.
         -1   -1    0    0    0  501 -0.00000000000E+00 -0.00000000000E+00 -0.50434535493E+02  0.50434535709E+02  0.46700000000E-02 0.  1.
        -11    1    1    2    0    0 -0.27791644732E+01  0.96539419141E+01 -0.19076761509E+02  0.21560268541E+02  0.51100000000E-03 0. -1.
         11    1    1    2    0    0  0.27791644732E+01 -0.96539419141E+01 -0.29278243677E+02  0.30953802718E+02  0.51100000000E-03 0.  1.
<mgrwt>
<rscale>  0 0.20482216E+02</rscale>
<asrwt>0</asrwt>
<pdfrwt beam="1">  1        1 0.31992820E-03 0.20482216E+02</pdfrwt>
<pdfrwt beam="2">  1       -1 0.77591588E-02 0.20482216E+02</pdfrwt>
<totfact> 0.33113741E+06</totfact>
</mgrwt>
</event>
<event>
 4    1  0.4244376E-001  0.2181889E+02  0.7818608E-02  0.1711403E+00
         -1   -1    0    0    0  501 -0.00000000000E+00  0.00000000000E+00  0.18522401752E+01  0.18522460624E+01  0.46700000000E-02 0.  1.
          1   -1    0    0  501    0  0.00000000000E+00 -0.00000000000E+00 -0.64255080762E+02  0.64255080932E+02  0.46700000000E-02 0. -1.
        -11    1    1    2    0    0  0.98868023555E+01  0.43910830413E+01 -0.26932092027E+02  0.29023577524E+02  0.51100000000E-03 0.  1.
         11    1    1    2    0    0 -0.98868023555E+01 -0.43910830413E+01 -0.35470748560E+02  0.37083749470E+02  0.51100000000E-03 0. -1.
<mgrwt>
<rscale>  0 0.21818895E+02</rscale>
<asrwt>0</asrwt>
<pdfrwt beam="2">  1        1 0.98853958E-02 0.21818895E+02</pdfrwt>
<pdfrwt beam="1">  1       -1 0.28496054E-03 0.21818895E+02</pdfrwt>
<totfact> 0.35004806E+06</totfact>
</mgrwt>
</event>
<event>
 4    1  0.4244376E-001  0.2581912E+02  0.7818608E-02  0.1649508E+00
          1   -1    0    0  501    0  0.00000000000E+00  0.00000000000E+00  0.89492840622E+01  0.89492852807E+01  0.46700000000E-02 0.  1.
         -1   -1    0    0    0  501 -0.00000000000E+00 -0.00000000000E+00 -0.18622353212E+02  0.18622353798E+02  0.46700000000E-02 0. -1.
        -11    1    1    2    0    0 -0.47297952380E+01  0.10251219423E+02  0.18492856589E+01  0.11440206307E+02  0.51100000000E-03 0.  1.
         11    1    1    2    0    0  0.47297952380E+01 -0.10251219423E+02 -0.11522354809E+02  0.16131432771E+02  0.51100000000E-03 0. -1.
<mgrwt>
<rscale>  0 0.25819121E+02</rscale>
<asrwt>0</asrwt>
<pdfrwt beam="1">  1        1 0.13768131E-02 0.25819121E+02</pdfrwt>
<pdfrwt beam="2">  1       -1 0.28649775E-02 0.25819121E+02</pdfrwt>
<totfact> 0.21201842E+06</totfact>
</mgrwt>
</event>
<event>
 4    1  0.4244376E-001  0.3017821E+02  0.7818608E-02  0.1596127E+00
         -1   -1    0    0    0  501 -0.00000000000E+00  0.00000000000E+00  0.84814584702E+01  0.84814597559E+01  0.46700000000E-02 0.  1.
          1   -1    0    0  501    0  0.00000000000E+00 -0.00000000000E+00 -0.26844556194E+02  0.26844556600E+02  0.46700000000E-02 0. -1.
        -11    1    1    2    0    0  0.11260016771E+02 -0.15056614159E+01 -0.20806657507E+02  0.23705948428E+02  0.51100000000E-03 0. -1.
         11    1    1    2    0    0 -0.11260016771E+02  0.15056614159E+01  0.24435597827E+01  0.11620067929E+02  0.51100000000E-03 0.  1.
<mgrwt>
<rscale>  0 0.30178205E+02</rscale>
<asrwt>0</asrwt>
<pdfrwt beam="2">  1        1 0.41299318E-02 0.30178205E+02</pdfrwt>
<pdfrwt beam="1">  1       -1 0.13048399E-02 0.30178205E+02</pdfrwt>
<totfact> 0.15508638E+06</totfact>
</mgrwt>
</event>
<event>
 4    1  0.4244376E-001  0.2420327E+02  0.7818608E-02  0.1672717E+00
         -1   -1    0    0    0  501 -0.00000000000E+00  0.00000000000E+00  0.22864113056E+01  0.22864160748E+01  0.46700000000E-02 0. -1.
          1   -1    0    0  501    0  0.00000000000E+00 -0.00000000000E+00 -0.64052080747E+02  0.64052080917E+02  0.46700000000E-02 0.  1.
        -11    1    1    2    0    0  0.56636127114E+01 -0.88782033091E+01 -0.47225196667E+02  0.48385103115E+02  0.51100000000E-03 0.  1.
         11    1    1    2    0    0 -0.56636127114E+01  0.88782033091E+01 -0.14540472774E+02  0.17953393877E+02  0.51100000000E-03 0. -1.
<mgrwt>
<rscale>  0 0.24203270E+02</rscale>
<asrwt>0</asrwt>
<pdfrwt beam="2">  1        1 0.98541653E-02 0.24203270E+02</pdfrwt>
<pdfrwt beam="1">  1       -1 0.35175601E-03 0.24203270E+02</pdfrwt>
<totfact> 0.27652697E+06</totfact>
</mgrwt>
</event>
<event>
 4    1  0.4244376E-001  0.3238571E+02  0.7818608E-02  0.1573122E+00
         -1   -1    0    0    0  501 -0.00000000000E+00  0.00000000000E+00  0.18869016981E+02  0.18869017559E+02  0.46700000000E-02 0. -1.
          1   -1    0    0  501    0  0.00000000000E+00 -0.00000000000E+00 -0.13896248006E+02  0.13896248790E+02  0.46700000000E-02 0.  1.
        -11    1    1    2    0    0 -0.11340218977E+02  0.10837553205E+02 -0.15801045952E+01  0.15765464050E+02  0.51100000000E-03 0.  1.
         11    1    1    2    0    0  0.11340218977E+02 -0.10837553205E+02  0.65528735703E+01  0.16999802299E+02  0.51100000000E-03 0. -1.
<mgrwt>
<rscale>  0 0.32385711E+02</rscale>
<asrwt>0</asrwt>
<pdfrwt beam="2">  1        1 0.21378844E-02 0.32385711E+02</pdfrwt>
<pdfrwt beam="1">  1       -1 0.29029258E-02 0.32385711E+02</pdfrwt>
<totfact> 0.12563205E+06</totfact>
</mgrwt>
</event>
<event>
 4    1  0.4244376E-001  0.3683152E+02  0.7818608E-02  0.1532913E+00
          1   -1    0    0  501    0  0.00000000000E+00  0.00000000000E+00  0.18423935311E+02  0.18423935903E+02  0.46700000000E-02 0.  1.
         -1   -1    0    0    0  501 -0.00000000000E+00 -0.00000000000E+00 -0.18407582197E+02  0.18407582790E+02  0.46700000000E-02 0. -1.
        -11    1    1    2    0    0 -0.15616221248E+02  0.46316191533E+01  0.86001424364E+01  0.18419574160E+02  0.51100000000E-03 0.  1.
         11    1    1    2    0    0  0.15616221248E+02 -0.46316191533E+01 -0.85837893230E+01  0.18411944532E+02  0.51100000000E-03 0. -1.
<mgrwt>
<rscale>  0 0.36831515E+02</rscale>
<asrwt>0</asrwt>
<pdfrwt beam="1">  1        1 0.28344517E-02 0.36831515E+02</pdfrwt>
<pdfrwt beam="2">  1       -1 0.28319358E-02 0.36831515E+02</pdfrwt>
<totfact> 0.93062521E+05</totfact>
</mgrwt>
</event>
<event>
 4    1  0.4244376E-001  0.2268681E+02  0.7818608E-02  0.1696638E+00
         -1   -1    0    0    0  501 -0.00000000000E+00  0.00000000000E+00  0.22233077386E+02  0.22233077876E+02  0.46700000000E-02 0.  1.
          1   -1    0    0  501    0  0.00000000000E+00 -0.00000000000E+00 -0.57874482179E+01  0.57874501021E+01  0.46700000000E-02 0. -1.
        -11    1    1    2    0    0  0.52645231029E+01  0.98775091460E+01  0.59479363889E+01  0.12675107020E+02  0.51100000000E-03 0. -1.
         11    1    1    2    0    0 -0.52645231029E+01 -0.98775091460E+01  0.10497692779E+02  0.15345420958E+02  0.51100000000E-03 0.  1.
<mgrwt>
<rscale>  0 0.22686808E+02</rscale>
<asrwt>0</asrwt>
<pdfrwt beam="2">  1        1 0.89037685E-03 0.22686808E+02</pdfrwt>
<pdfrwt beam="1">  1       -1 0.34204735E-02 0.22686808E+02</pdfrwt>
<totfact> 0.28109450E+06</totfact>
</mgrwt>
</event>
<event>
 4    1  0.4244376E-001  0.2361407E+02  0.7818608E-02  0.1681745E+00
         -1   -1    0    0    0  501 -0.00000000000E+00  0.00000000000E+00  0.20540470577E+02  0.20540471108E+02  0.46700000000E-02 0.  1.
          1   -1    0    0  501    0  0.00000000000E+00 -0.00000000000E+00 -0.67868979154E+01  0.67868995221E+01  0.46700000000E-02 0. -1.
        -11    1    1    2    0    0  0.80898817796E+00 -0.11111421523E+02  0.11401610019E+02  0.15940980567E+02  0.51100000000E-03 0.  1.
         11    1    1    2    0    0 -0.80898817796E+00  0.11111421523E+02  0.23519626423E+01  0.11386390063E+02  0.51100000000E-03 0. -1.
<mgrwt>
<rscale>  0 0.23614073E+02</rscale>
<asrwt>0</asrwt>
<pdfrwt beam="2">  1        1 0.10441383E-02 0.23614073E+02</pdfrwt>
<pdfrwt beam="1">  1       -1 0.31600725E-02 0.23614073E+02</pdfrwt>
<totfact> 0.25809696E+06</totfact>
</mgrwt>
</event>
<event>
 4    1  0.4244376E-001  0.7314234E+02  0.7818608E-02  0.1349722E+00
          1   -1    0    0  501    0  0.00000000000E+00  0.00000000000E+00  0.14467087559E+02  0.14467088313E+02  0.46700000000E-02 0. -1.
         -1   -1    0    0    0  501 -0.00000000000E+00 -0.00000000000E+00 -0.92447812988E+02  0.92447813106E+02  0.46700000000E-02 0.  1.
        -11    1    1    2    0    0 -0.20862000835E+02 -0.26276976919E+01  0.47476631914E+01  0.21556163389E+02  0.51100000000E-03 0. -1.
         11    1    1    2    0    0  0.20862000835E+02  0.26276976919E+01 -0.82728388621E+02  0.85358738030E+02  0.51100000000E-03 0.  1.
<mgrwt>
<rscale>  0 0.73142345E+02</rscale>
<asrwt>0</asrwt>
<pdfrwt beam="1">  1        1 0.22257059E-02 0.73142345E+02</pdfrwt>
<pdfrwt beam="2">  1       -1 0.14222740E-01 0.73142345E+02</pdfrwt>
<totfact> 0.14505948E+05</totfact>
</mgrwt>
</event>
<event>
 4    1  0.4244376E-001  0.4145877E+02  0.7818608E-02  0.1497743E+00
          1   -1    0    0  501    0  0.00000000000E+00  0.00000000000E+00  0.24971292601E+02  0.24971293037E+02  0.46700000000E-02 0.  1.
         -1   -1    0    0    0  501 -0.00000000000E+00 -0.00000000000E+00 -0.17208053541E+02  0.17208054175E+02  0.46700000000E-02 0. -1.
        -11    1    1    2    0    0 -0.17399555288E+02 -0.20041968920E+01  0.15162440868E+02  0.23165943597E+02  0.51100000000E-03 0.  1.
         11    1    1    2    0    0  0.17399555288E+02  0.20041968920E+01 -0.73992018082E+01  0.19013403616E+02  0.51100000000E-03 0. -1.
<mgrwt>
<rscale>  0 0.41458768E+02</rscale>
<asrwt>0</asrwt>
<pdfrwt beam="1">  1        1 0.38417374E-02 0.41458768E+02</pdfrwt>
<pdfrwt beam="2">  1       -1 0.26473929E-02 0.41458768E+02</pdfrwt>
<totfact> 0.70679048E+05</totfact>
</mgrwt>
</event>
<event>
 4    1  0.4244376E-001  0.4742572E+02  0.7818608E-02  0.1459743E+00
          1   -1    0    0  501    0  0.00000000000E+00  0.00000000000E+00  0.14899548292E+02  0.14899549024E+02  0.46700000000E-02 0. -1.
         -1   -1    0    0    0  501 -0.00000000000E+00 -0.00000000000E+00 -0.37739381589E+02  0.37739381877E+02  0.46700000000E-02 0.  1.
        -11    1    1    2    0    0  0.53733657512E+01  0.10955103331E+02  0.11147657159E+02  0.16527480415E+02  0.51100000000E-03 0. -1.
         11    1    1    2    0    0 -0.53733657512E+01 -0.10955103331E+02 -0.33987490455E+02  0.36111450486E+02  0.51100000000E-03 0.  1.
<mgrwt>
<rscale>  0 0.47425722E+02</rscale>
<asrwt>0</asrwt>
<pdfrwt beam="1">  1        1 0.22922383E-02 0.47425722E+02</pdfrwt>
<pdfrwt beam="2">  1       -1 0.58060587E-02 0.47425722E+02</pdfrwt>
<totfact> 0.47879612E+05</totfact>
</mgrwt>
</event>
<event>
 4    1  0.4244376E-001  0.4403596E+02  0.7818608E-02  0.1480451E+00
          1   -1    0    0  501    0  0.00000000000E+00  0.00000000000E+00  0.13985235434E+02  0.13985236214E+02  0.46700000000E-02 0.  1.
         -1   -1    0    0    0  501 -0.00000000000E+00 -0.00000000000E+00 -0.34664514118E+02  0.34664514432E+02  0.46700000000E-02 0. -1.
        -11    1    1    2    0    0  0.21361954793E+02 -0.33770405897E+01 -0.14901951953E+02  0.26264152147E+02  0.51100000000E-03 0. -1.
         11    1    1    2    0    0 -0.21361954793E+02  0.33770405897E+01 -0.57773267304E+01  0.22385598499E+02  0.51100000000E-03 0.  1.
<mgrwt>
<rscale>  0 0.44035959E+02</rscale>
<asrwt>0</asrwt>
<pdfrwt beam="1">  1        1 0.21515748E-02 0.44035959E+02</pdfrwt>
<pdfrwt beam="2">  1       -1 0.53330022E-02 0.44035959E+02</pdfrwt>
<totfact> 0.57788417E+05</totfact>
</mgrwt>
</event>
<event>
 4    1  0.4244376E-001  0.2364823E+02  0.7818608E-02  0.1681213E+00
          1   -1    0    0  501    0  0.00000000000E+00  0.00000000000E+00  0.10149659230E+03  0.10149659240E+03  0.46700000000E-02 0. -1.
         -1   -1    0    0    0  501 -0.00000000000E+00 -0.00000000000E+00 -0.13774774888E+01  0.13774854050E+01  0.46700000000E-02 0.  1.
        -11    1    1    2    0    0  0.11521507213E+02 -0.11351316159E+00  0.38507660145E+02  0.40194500915E+02  0.51100000000E-03 0. -1.
         11    1    1    2    0    0 -0.11521507213E+02  0.11351316159E+00  0.61611454663E+02  0.62679576894E+02  0.51100000000E-03 0.  1.
<mgrwt>
<rscale>  0 0.23648229E+02</rscale>
<asrwt>0</asrwt>
<pdfrwt beam="1">  1        1 0.15614856E-01 0.23648229E+02</pdfrwt>
<pdfrwt beam="2">  1       -1 0.21192030E-03 0.23648229E+02</pdfrwt>
<totfact> 0.30537120E+06</totfact>
</mgrwt>
</event>
<event>
 4    1  0.4244376E-001  0.3140753E+02  0.7818608E-02  0.1583032E+00
          1   -1    0    0  501    0  0.00000000000E+00  0.00000000000E+00  0.47600312210E+01  0.47600335118E+01  0.46700000000E-02 0.  1.
         -1   -1    0    0    0  501 -0.00000000000E+00 -0.00000000000E+00 -0.51808113432E+02  0.51808113643E+02  0.46700000000E-02 0. -1.
        -11    1    1    2    0    0 -0.13205025190E+02  0.44066095378E+01 -0.10434432613E+02  0.17397364229E+02  0.51100000000E-03 0.  1.
         11    1    1    2    0    0  0.13205025190E+02 -0.44066095378E+01 -0.36613649598E+02  0.39170782926E+02  0.51100000000E-03 0. -1.
<mgrwt>
<rscale>  0 0.31407535E+02</rscale>
<asrwt>0</asrwt>
<pdfrwt beam="1">  1        1 0.73231272E-03 0.31407535E+02</pdfrwt>
<pdfrwt beam="2">  1       -1 0.79704788E-02 0.31407535E+02</pdfrwt>
<totfact> 0.12459501E+06</totfact>
</mgrwt>
</event>
<event>
 4    1  0.4244376E-001  0.5698751E+02  0.7818608E-02  0.1410927E+00
          1   -1    0    0  501    0  0.00000000000E+00  0.00000000000E+00  0.17995143638E+02  0.17995144244E+02  0.46700000000E-02 0. -1.
         -1   -1    0    0    0  501 -0.00000000000E+00 -0.00000000000E+00 -0.45117395559E+02  0.45117395801E+02  0.46700000000E-02 0.  1.
        -11    1    1    2    0    0  0.44231891309E+01  0.23110894078E+02 -0.31357338028E+02  0.39204090037E+02  0.51100000000E-03 0. -1.
         11    1    1    2    0    0 -0.44231891309E+01 -0.23110894078E+02  0.42350861071E+01  0.23908450007E+02  0.51100000000E-03 0.  1.
<mgrwt>
<rscale>  0 0.56987509E+02</rscale>
<asrwt>0</asrwt>
<pdfrwt beam="1">  1        1 0.27684837E-02 0.56987509E+02</pdfrwt>
<pdfrwt beam="2">  1       -1 0.69411378E-02 0.56987509E+02</pdfrwt>
<totfact> 0.29935232E+05</totfact>
</mgrwt>
</event>
<event>
 4    1  0.4244376E-001  0.5013918E+02  0.7818608E-02  0.1444592E+00
          1   -1    0    0  501    0  0.00000000000E+00  0.00000000000E+00  0.19131105728E+03  0.19131105734E+03  0.46700000000E-02 0. -1.
         -1   -1    0    0    0  501 -0.00000000000E+00 -0.00000000000E+00 -0.32851418735E+01  0.32851451928E+01  0.46700000000E-02 0.  1.
        -11    1    1    2    0    0 -0.15580722421E+02 -0.17658533790E+02  0.12737740795E+03  0.12953604434E+03  0.51100000000E-03 0. -1.
         11    1    1    2    0    0  0.15580722421E+02  0.17658533790E+02  0.60648507457E+02  0.65060158191E+02  0.51100000000E-03 0.  1.
<mgrwt>
<rscale>  0 0.50139178E+02</rscale>
<asrwt>0</asrwt>
<pdfrwt beam="1">  1        1 0.29432477E-01 0.50139178E+02</pdfrwt>
<pdfrwt beam="2">  1       -1 0.50540658E-03 0.50139178E+02</pdfrwt>
<totfact> 0.55391562E+05</totfact>
</mgrwt>
</event>
<event>
 4    1  0.4244376E-001  0.2666674E+02  0.7818608E-02  0.1638155E+00
         -1   -1    0    0    0  501 -0.00000000000E+00  0.00000000000E+00  0.17269761768E+01  0.17269824910E+01  0.46700000000E-02 0.  1.
          1   -1    0    0  501    0  0.00000000000E+00 -0.00000000000E+00 -0.10294199612E+03  0.10294199623E+03  0.46700000000E-02 0. -1.
        -11    1    1    2    0    0 -0.44060307076E+01  0.12495250774E+02 -0.44740456653E+02  0.46661042212E+02  0.51100000000E-03 0. -1.
         11    1    1    2    0    0  0.44060307076E+01 -0.12495250774E+02 -0.56474563293E+02  0.58007936508E+02  0.51100000000E-03 0.  1.
<mgrwt>
<rscale>  0 0.26666737E+02</rscale>
<asrwt>0</asrwt>
<pdfrwt beam="2">  1        1 0.15837226E-01 0.26666737E+02</pdfrwt>
<pdfrwt beam="1">  1       -1 0.26568922E-03 0.26666737E+02</pdfrwt>
<totfact> 0.23223140E+06</totfact>
</mgrwt>
</event>
<event>
 4    1  0.4244376E-001  0.6629028E+02  0.7818608E-02  0.1373183E+00
          1   -1    0    0  501    0  0.00000000000E+00  0.00000000000E+00  0.31766215454E+02  0.31766215797E+02  0.46700000000E-02 0. -1.
         -1   -1    0    0    0  501 -0.00000000000E+00 -0.00000000000E+00 -0.34583916974E+02  0.34583917289E+02  0.46700000000E-02 0.  1.
        -11    1    1    2    0    0 -0.83289969648E+01 -0.60446931153E+01 -0.32944278206E+02  0.34514286492E+02  0.51100000000E-03 0.  1.
         11    1    1    2    0    0  0.83289969648E+01  0.60446931153E+01  0.30126576686E+02  0.31835846594E+02  0.51100000000E-03 0. -1.
<mgrwt>
<rscale>  0 0.66290276E+02</rscale>
<asrwt>0</asrwt>
<pdfrwt beam="1">  1        1 0.48871101E-02 0.66290276E+02</pdfrwt>
<pdfrwt beam="2">  1       -1 0.53206026E-02 0.66290276E+02</pdfrwt>
<totfact> 0.21213093E+05</totfact>
</mgrwt>
</event>
<event>
 4    1  0.4244376E-001  0.2538040E+02  0.7818608E-02  0.1655597E+00
         -1   -1    0    0    0  501 -0.00000000000E+00  0.00000000000E+00  0.34889037898E+02  0.34889038210E+02  0.46700000000E-02 0. -1.
          1   -1    0    0  501    0  0.00000000000E+00 -0.00000000000E+00 -0.46158084578E+01  0.46158108202E+01  0.46700000000E-02 0.  1.
        -11    1    1    2    0    0 -0.32241045586E+01  0.12045058312E+02  0.18807764849E+02  0.22565688529E+02  0.51100000000E-03 0. -1.
         11    1    1    2    0    0  0.32241045586E+01 -0.12045058312E+02  0.11465464591E+02  0.16939160501E+02  0.51100000000E-03 0.  1.
<mgrwt>
<rscale>  0 0.25380399E+02</rscale>
<asrwt>0</asrwt>
<pdfrwt beam="2">  1        1 0.71012461E-03 0.25380399E+02</pdfrwt>
<pdfrwt beam="1">  1       -1 0.53675443E-02 0.25380399E+02</pdfrwt>
<totfact> 0.21147547E+06</totfact>
</mgrwt>
</event>
<event>
 4    1  0.4244376E-001  0.3476179E+02  0.7818608E-02  0.1550726E+00
          1   -1    0    0  501    0  0.00000000000E+00  0.00000000000E+00  0.10403075723E+02  0.10403076772E+02  0.46700000000E-02 0. -1.
         -1   -1    0    0    0  501 -0.00000000000E+00 -0.00000000000E+00 -0.29039059877E+02  0.29039060252E+02  0.46700000000E-02 0.  1.
        -11    1    1    2    0    0 -0.16501532667E+02 -0.22635464276E+01 -0.36822038063E+01  0.17058219366E+02  0.51100000000E-03 0. -1.
         11    1    1    2    0    0  0.16501532667E+02  0.22635464276E+01 -0.14953780347E+02  0.22383917658E+02  0.51100000000E-03 0.  1.
<mgrwt>
<rscale>  0 0.34761793E+02</rscale>
<asrwt>0</asrwt>
<pdfrwt beam="1">  1        1 0.16004733E-02 0.34761793E+02</pdfrwt>
<pdfrwt beam="2">  1       -1 0.44675478E-02 0.34761793E+02</pdfrwt>
<totfact> 0.10326363E+06</totfact>
</mgrwt>
</event>
<event>
 4    1  0.4244376E-001  0.3092882E+02  0.7818608E-02  0.1588043E+00
         -1   -1    0    0    0  501 -0.00000000000E+00  0.00000000000E+00  0.74246090346E+02  0.74246090493E+02  0.46700000000E-02 0. -1.
          1   -1    0    0  501    0  0.00000000000E+00 -0.00000000000E+00 -0.32210168739E+01  0.32210202593E+01  0.46700000000E-02 0.  1.
        -11    1    1    2    0    0 -0.78201714108E+01 -0.13227398591E+02  0.31153446713E+02  0.34736960096E+02  0.51100000000E-03 0.  1.
         11    1    1    2    0    0  0.78201714108E+01  0.13227398591E+02  0.39871626759E+02  0.42730150655E+02  0.51100000000E-03 0. -1.
<mgrwt>
<rscale>  0 0.30928825E+02</rscale>
<asrwt>0</asrwt>
<pdfrwt beam="2">  1        1 0.49554135E-03 0.30928825E+02</pdfrwt>
<pdfrwt beam="1">  1       -1 0.11422475E-01 0.30928825E+02</pdfrwt>
<totfact> 0.12382012E+06</totfact>
</mgrwt>
</event>
<event>
 4    1  0.4244376E-001  0.5510824E+02  0.7818608E-02  0.1419588E+00
          1   -1    0    0  501    0  0.00000000000E+00  0.00000000000E+00  0.76914582080E+01  0.76914596257E+01  0.46700000000E-02 0. -1.
         -1   -1    0    0    0  501 -0.00000000000E+00 -0.00000000000E+00 -0.98710726728E+02  0.98710726838E+02  0.46700000000E-02 0.  1.
        -11    1    1    2    0    0  0.24476070105E+02  0.11854924069E+02 -0.36959005805E+02  0.45886657569E+02  0.51100000000E-03 0. -1.
         11    1    1    2    0    0 -0.24476070105E+02 -0.11854924069E+02 -0.54060262714E+02  0.60515528895E+02  0.51100000000E-03 0.  1.
<mgrwt>
<rscale>  0 0.55108239E+02</rscale>
<asrwt>0</asrwt>
<pdfrwt beam="1">  1        1 0.11833015E-02 0.55108239E+02</pdfrwt>
<pdfrwt beam="2">  1       -1 0.15186265E-01 0.55108239E+02</pdfrwt>
<totfact> 0.29293159E+05</totfact>
</mgrwt>
</event>
<event>
 4    1  0.4244376E-001  0.2038846E+02  0.7818608E-02  0.1737712E+00
         -1   -1    0    0    0  501 -0.00000000000E+00  0.00000000000E+00  0.13393557717E+02  0.13393558531E+02  0.46700000000E-02 0. -1.
          1   -1    0    0  501    0  0.00000000000E+00 -0.00000000000E+00 -0.77591260595E+01  0.77591274649E+01  0.46700000000E-02 0.  1.
        -11    1    1    2    0    0  0.52466765339E+01 -0.87369390967E+01  0.30726274632E+01  0.10644376883E+02  0.51100000000E-03 0. -1.
         11    1    1    2    0    0 -0.52466765339E+01  0.87369390967E+01  0.25618041943E+01  0.10508309113E+02  0.51100000000E-03 0.  1.
<mgrwt>
<rscale>  0 0.20388460E+02</rscale>
<asrwt>0</asrwt>
<pdfrwt beam="2">  1        1 0.11937119E-02 0.20388460E+02</pdfrwt>
<pdfrwt beam="1">  1       -1 0.20605475E-02 0.20388460E+02</pdfrwt>
<totfact> 0.36575905E+06</totfact>
</mgrwt>
</event>
<event>
 4    1  0.4244376E-001  0.4992585E+02  0.7818608E-02  0.1445742E+00
          1   -1    0    0  501    0  0.00000000000E+00  0.00000000000E+00  0.61285500961E+01  0.61285518754E+01  0.46700000000E-02 0. -1.
         -1   -1    0    0    0  501 -0.00000000000E+00 -0.00000000000E+00 -0.10167943931E+03  0.10167943942E+03  0.46700000000E-02 0.  1.
        -11    1    1    2    0    0  0.21017273791E+02  0.24842415671E+01 -0.19189340425E+02  0.28567954774E+02  0.51100000000E-03 0. -1.
         11    1    1    2    0    0 -0.21017273791E+02 -0.24842415671E+01 -0.76361548790E+02  0.79240036520E+02  0.51100000000E-03 0.  1.
<mgrwt>
<rscale>  0 0.49925851E+02</rscale>
<asrwt>0</asrwt>
<pdfrwt beam="1">  1        1 0.94285408E-03 0.49925851E+02</pdfrwt>
<pdfrwt beam="2">  1       -1 0.15642990E-01 0.49925851E+02</pdfrwt>
<totfact> 0.37253654E+05</totfact>
</mgrwt>
</event>
<event>
 4    1  0.4244376E-001  0.2669207E+02  0.7818608E-02  0.1637824E+00
         -1   -1    0    0    0  501 -0.00000000000E+00  0.00000000000E+00  0.50070670079E+02  0.50070670297E+02  0.46700000000E-02 0.  1.
          1   -1    0    0  501    0  0.00000000000E+00 -0.00000000000E+00 -0.35573024071E+01  0.35573054725E+01  0.46700000000E-02 0. -1.
        -11    1    1    2    0    0 -0.13002249295E+02 -0.30025407620E+01  0.22840714096E+02  0.26453203179E+02  0.51100000000E-03 0. -1.
         11    1    1    2    0    0  0.13002249295E+02  0.30025407620E+01  0.23672653576E+02  0.27174772591E+02  0.51100000000E-03 0.  1.
<mgrwt>
<rscale>  0 0.26692066E+02</rscale>
<asrwt>0</asrwt>
<pdfrwt beam="2">  1        1 0.54727756E-03 0.26692066E+02</pdfrwt>
<pdfrwt beam="1">  1       -1 0.77031801E-02 0.26692066E+02</pdfrwt>
<totfact> 0.18242503E+06</totfact>
</mgrwt>
</event>
<event>
 4    1  0.4244376E-001  0.6193912E+02  0.7818608E-02  0.1389870E+00
          1   -1    0    0  501    0  0.00000000000E+00  0.00000000000E+00  0.44699380585E+02  0.44699380829E+02  0.46700000000E-02 0.  1.
         -1   -1    0    0    0  501 -0.00000000000E+00 -0.00000000000E+00 -0.21456975626E+02  0.21456976135E+02  0.46700000000E-02 0. -1.
        -11    1    1    2    0    0 -0.27420140939E+02 -0.13847528694E+02  0.15825635805E+02  0.34555302472E+02  0.51100000000E-03 0.  1.
         11    1    1    2    0    0  0.27420140939E+02  0.13847528694E+02  0.74167691539E+01  0.31601054492E+02  0.51100000000E-03 0. -1.
<mgrwt>
<rscale>  0 0.61939117E+02</rscale>
<asrwt>0</asrwt>
<pdfrwt beam="1">  1        1 0.68768278E-02 0.61939117E+02</pdfrwt>
<pdfrwt beam="2">  1       -1 0.33010733E-02 0.61939117E+02</pdfrwt>
<totfact> 0.26425525E+05</totfact>
</mgrwt>
</event>
<event>
 4    1  0.4244376E-001  0.8079240E+02  0.7818608E-02  0.1326818E+00
         -1   -1    0    0    0  501 -0.00000000000E+00  0.00000000000E+00  0.17409895267E+02  0.17409895894E+02  0.46700000000E-02 0.  1.
          1   -1    0    0  501    0  0.00000000000E+00 -0.00000000000E+00 -0.93731335370E+02  0.93731335486E+02  0.46700000000E-02 0. -1.
        -11    1    1    2    0    0  0.15350587011E+02  0.28243126944E+02 -0.45056423773E+01  0.32459444768E+02  0.51100000000E-03 0.  1.
         11    1    1    2    0    0 -0.15350587011E+02 -0.28243126944E+02 -0.71815797725E+02  0.78681786611E+02  0.51100000000E-03 0. -1.
<mgrwt>
<rscale>  0 0.80792395E+02</rscale>
<asrwt>0</asrwt>
<pdfrwt beam="2">  1        1 0.14420205E-01 0.80792395E+02</pdfrwt>
<pdfrwt beam="1">  1       -1 0.26784455E-02 0.80792395E+02</pdfrwt>
<totfact> 0.14337989E+05</totfact>
</mgrwt>
</event>
<event>
 4    1  0.4244376E-001  0.4399750E+02  0.7818608E-02  0.1480699E+00
         -1   -1    0    0    0  501 -0.00000000000E+00  0.00000000000E+00  0.14965622105E+02  0.14965622834E+02  0.46700000000E-02 0. -1.
          1   -1    0    0  501    0  0.00000000000E+00 -0.00000000000E+00 -0.32337104505E+02  0.32337104842E+02  0.46700000000E-02 0.  1.
        -11    1    1    2    0    0 -0.13492134232E+00  0.20431977558E+02  0.79051763458E-01  0.20432575955E+02  0.51100000000E-03 0. -1.
         11    1    1    2    0    0  0.13492134232E+00 -0.20431977558E+02 -0.17450534163E+02  0.26870151722E+02  0.51100000000E-03 0.  1.
<mgrwt>
<rscale>  0 0.43997496E+02</rscale>
<asrwt>0</asrwt>
<pdfrwt beam="2">  1        1 0.49749392E-02 0.43997496E+02</pdfrwt>
<pdfrwt beam="1">  1       -1 0.23024035E-02 0.43997496E+02</pdfrwt>
<totfact> 0.62068149E+05</totfact>
</mgrwt>
</event>
<event>
 4    1  0.4244376E-001  0.3757175E+02  0.7818608E-02  0.1526881E+00
         -1   -1    0    0    0  501 -0.00000000000E+00  0.00000000000E+00  0.89154745162E+01  0.89154757393E+01  0.46700000000E-02 0.  1.
          1   -1    0    0  501    0  0.00000000000E+00 -0.00000000000E+00 -0.39583873845E+02  0.39583874121E+02  0.46700000000E-02 0. -1.
        -11    1    1    2    0    0  0.90201644205E+01  0.71113484187E+01 -0.34522897939E+02  0.36383583178E+02  0.51100000000E-03 0. -1.
         11    1    1    2    0    0 -0.90201644205E+01 -0.71113484187E+01  0.38544986097E+01  0.12115766682E+02  0.51100000000E-03 0.  1.
<mgrwt>
<rscale>  0 0.37571748E+02</rscale>
<asrwt>0</asrwt>
<pdfrwt beam="2">  1        1 0.60898268E-02 0.37571748E+02</pdfrwt>
<pdfrwt beam="1">  1       -1 0.13716116E-02 0.37571748E+02</pdfrwt>
<totfact> 0.93529727E+05</totfact>
</mgrwt>
</event>
<event>
 4    1  0.4244376E-001  0.3575966E+02  0.7818608E-02  0.1541956E+00
         -1   -1    0    0    0  501 -0.00000000000E+00  0.00000000000E+00  0.29201501706E+01  0.29201539048E+01  0.46700000000E-02 0.  1.
          1   -1    0    0  501    0  0.00000000000E+00 -0.00000000000E+00 -0.10947660483E+03  0.10947660493E+03  0.46700000000E-02 0. -1.
        -11    1    1    2    0    0  0.16590658017E+02  0.57575805348E+01 -0.63838663751E+02  0.66210079723E+02  0.51100000000E-03 0. -1.
         11    1    1    2    0    0 -0.16590658017E+02 -0.57575805348E+01 -0.42717790905E+02  0.46186679109E+02  0.51100000000E-03 0.  1.
<mgrwt>
<rscale>  0 0.35759661E+02</rscale>
<asrwt>0</asrwt>
<pdfrwt beam="2">  1        1 0.16842552E-01 0.35759661E+02</pdfrwt>
<pdfrwt beam="1">  1       -1 0.44925425E-03 0.35759661E+02</pdfrwt>
<totfact> 0.11692652E+06</totfact>
</mgrwt>
</event>
<event>
 4    1  0.4244376E-001  0.3167760E+02  0.7818608E-02  0.1580252E+00
         -1   -1    0    0    0  501 -0.00000000000E+00  0.00000000000E+00  0.10361289884E+02  0.10361290937E+02  0.46700000000E-02 0. -1.
          1   -1    0    0  501    0  0.00000000000E+00 -0.00000000000E+00 -0.24212006138E+02  0.24212006588E+02  0.46700000000E-02 0.  1.
        -11    1    1    2    0    0 -0.13494746419E+02  0.70292763704E+01 -0.11726170674E+02  0.19209944981E+02  0.51100000000E-03 0. -1.
         11    1    1    2    0    0  0.13494746419E+02 -0.70292763704E+01 -0.21245455795E+01  0.15363352544E+02  0.51100000000E-03 0.  1.
<mgrwt>
<rscale>  0 0.31677603E+02</rscale>
<asrwt>0</asrwt>
<pdfrwt beam="2">  1        1 0.37249241E-02 0.31677603E+02</pdfrwt>
<pdfrwt beam="1">  1       -1 0.15940447E-02 0.31677603E+02</pdfrwt>
<totfact> 0.13713075E+06</totfact>
</mgrwt>
</event>
<event>
 4    1  0.4244376E-001  0.5489723E+02  0.7818608E-02  0.1420586E+00
          1   -1    0    0  501    0  0.00000000000E+00  0.00000000000E+00  0.29376633620E+02  0.29376633991E+02  0.46700000000E-02 0.  1.
         -1   -1    0    0    0  501 -0.00000000000E+00 -0.00000000000E+00 -0.25647136724E+02  0.25647137149E+02  0.46700000000E-02 0. -1.
        -11    1    1    2    0    0  0.57535857190E+01 -0.26526531845E+02 -0.22270529100E+01  0.27234544338E+02  0.51100000000E-03 0.  1.
         11    1    1    2    0    0 -0.57535857190E+01  0.26526531845E+02  0.59565498060E+01  0.27789226801E+02  0.51100000000E-03 0. -1.
<mgrwt>
<rscale>  0 0.54897233E+02</rscale>
<asrwt>0</asrwt>
<pdfrwt beam="1">  1        1 0.45194822E-02 0.54897233E+02</pdfrwt>
<pdfrwt beam="2">  1       -1 0.39457134E-02 0.54897233E+02</pdfrwt>
<totfact> 0.34775835E+05</totfact>
</mgrwt>
</event>
<event>
 4    1  0.4244376E-001  0.4714210E+02  0.7818608E-02  0.1461395E+00
          1   -1    0    0  501    0  0.00000000000E+00  0.00000000000E+00  0.31391577541E+02  0.31391577888E+02  0.46700000000E-02 0.  1.
         -1   -1    0    0    0  501 -0.00000000000E+00 -0.00000000000E+00 -0.17698839397E+02  0.17698840013E+02  0.46700000000E-02 0. -1.
        -11    1    1    2    0    0  0.88093223362E+00  0.15410772894E+02  0.25396243093E+02  0.29719305616E+02  0.51100000000E-03 0.  1.
         11    1    1    2    0    0 -0.88093223362E+00 -0.15410772894E+02 -0.11703504949E+02  0.19371112285E+02  0.51100000000E-03 0. -1.
<mgrwt>
<rscale>  0 0.47142105E+02</rscale>
<asrwt>0</asrwt>
<pdfrwt beam="1">  1        1 0.48294735E-02 0.47142105E+02</pdfrwt>
<pdfrwt beam="2">  1       -1 0.27228985E-02 0.47142105E+02</pdfrwt>
<totfact> 0.51932274E+05</totfact>
</mgrwt>
</event>
<event>
 4    1  0.4244376E-001  0.2702868E+02  0.7818608E-02  0.1633464E+00
          1   -1    0    0  501    0  0.00000000000E+00  0.00000000000E+00  0.44936181318E+01  0.44936205585E+01  0.46700000000E-02 0. -1.
         -1   -1    0    0    0  501 -0.00000000000E+00 -0.00000000000E+00 -0.40643704051E+02  0.40643704320E+02  0.46700000000E-02 0.  1.
        -11    1    1    2    0    0 -0.65082782935E+01  0.10110704793E+02 -0.28376703534E+02  0.30819171655E+02  0.51100000000E-03 0.  1.
         11    1    1    2    0    0  0.65082782935E+01 -0.10110704793E+02 -0.77733823858E+01  0.14318153224E+02  0.51100000000E-03 0. -1.
<mgrwt>
<rscale>  0 0.27028677E+02</rscale>
<asrwt>0</asrwt>
<pdfrwt beam="1">  1        1 0.69132610E-03 0.27028677E+02</pdfrwt>
<pdfrwt beam="2">  1       -1 0.62528775E-02 0.27028677E+02</pdfrwt>
<totfact> 0.18076372E+06</totfact>
</mgrwt>
</event>
<event>
 4    1  0.4244376E-001  0.3261133E+02  0.7818608E-02  0.1570897E+00
         -1   -1    0    0    0  501 -0.00000000000E+00  0.00000000000E+00  0.36951425475E+01  0.36951454985E+01  0.46700000000E-02 0. -1.
          1   -1    0    0  501    0  0.00000000000E+00 -0.00000000000E+00 -0.71952465286E+02  0.71952465438E+02  0.46700000000E-02 0.  1.
        -11    1    1    2    0    0  0.22992240151E+01 -0.13193905227E+02 -0.55704006527E+02  0.57291377271E+02  0.51100000000E-03 0.  1.
         11    1    1    2    0    0 -0.22992240151E+01  0.13193905227E+02 -0.12553316212E+02  0.18356233665E+02  0.51100000000E-03 0. -1.
<mgrwt>
<rscale>  0 0.32611331E+02</rscale>
<asrwt>0</asrwt>
<pdfrwt beam="2">  1        1 0.11069609E-01 0.32611331E+02</pdfrwt>
<pdfrwt beam="1">  1       -1 0.56848376E-03 0.32611331E+02</pdfrwt>
<totfact> 0.13901411E+06</totfact>
</mgrwt>
</event>
<event>
 4    1  0.4244376E-001  0.2942229E+03  0.7818608E-02  0.1088165E+00
         -1   -1    0    0    0  501 -0.00000000000E+00  0.00000000000E+00  0.25101226992E+03  0.25101226996E+03  0.46700000000E-02 0.  1.
          1   -1    0    0  501    0  0.00000000000E+00 -0.00000000000E+00 -0.86217992930E+02  0.86217993057E+02  0.46700000000E-02 0. -1.
        -11    1    1    2    0    0 -0.13861885240E+03  0.17489964390E+02  0.13517947511E+03  0.19440827037E+03  0.51100000000E-03 0.  1.
         11    1    1    2    0    0  0.13861885240E+03 -0.17489964390E+02  0.29614801876E+02  0.14282199265E+03  0.51100000000E-03 0. -1.
<mgrwt>
<rscale>  0 0.29422287E+03</rscale>
<asrwt>0</asrwt>
<pdfrwt beam="2">  1        1 0.13264307E-01 0.29422287E+03</pdfrwt>
<pdfrwt beam="1">  1       -1 0.38617272E-01 0.29422287E+03</pdfrwt>
<totfact> 0.28800250E+03</totfact>
</mgrwt>
</event>
<event>
 4    1  0.4244376E-001  0.3272451E+02  0.7818608E-02  0.1569789E+00
          1   -1    0    0  501    0  0.00000000000E+00  0.00000000000E+00  0.17796991638E+02  0.17796992250E+02  0.46700000000E-02 0. -1.
         -1   -1    0    0    0  501 -0.00000000000E+00 -0.00000000000E+00 -0.15043179961E+02  0.15043180686E+02  0.46700000000E-02 0.  1.
        -11    1    1    2    0    0 -0.14133791851E+02 -0.80187457227E+01  0.32965218783E+01  0.16581055811E+02  0.51100000000E-03 0. -1.
         11    1    1    2    0    0  0.14133791851E+02  0.80187457227E+01 -0.54271020214E+00  0.16259117125E+02  0.51100000000E-03 0.  1.
<mgrwt>
<rscale>  0 0.32724509E+02</rscale>
<asrwt>0</asrwt>
<pdfrwt beam="1">  1        1 0.27379988E-02 0.32724509E+02</pdfrwt>
<pdfrwt beam="2">  1       -1 0.23143355E-02 0.32724509E+02</pdfrwt>
<totfact> 0.12435954E+06</totfact>
</mgrwt>
</event>
<event>
 4    1  0.4244376E-001  0.2270308E+02  0.7818608E-02  0.1696369E+00
         -1   -1    0    0    0  501 -0.00000000000E+00  0.00000000000E+00  0.20554353109E+02  0.20554353639E+02  0.46700000000E-02 0. -1.
          1   -1    0    0  501    0  0.00000000000E+00 -0.00000000000E+00 -0.62691070669E+01  0.62691088062E+01  0.46700000000E-02 0.  1.
        -11    1    1    2    0    0  0.10766946198E+02  0.28152694173E+01  0.97857294291E+01  0.14819358051E+02  0.51100000000E-03 0. -1.
         11    1    1    2    0    0 -0.10766946198E+02 -0.28152694173E+01  0.44995166127E+01  0.12004104395E+02  0.51100000000E-03 0.  1.
<mgrwt>
<rscale>  0 0.22703081E+02</rscale>
<asrwt>0</asrwt>
<pdfrwt beam="2">  1        1 0.96447819E-03 0.22703081E+02</pdfrwt>
<pdfrwt beam="1">  1       -1 0.31622083E-02 0.22703081E+02</pdfrwt>
<totfact> 0.28192231E+06</totfact>
</mgrwt>
</event>
<event>
 4    1  0.4244376E-001  0.2172698E+02  0.7818608E-02  0.1713017E+00
          1   -1    0    0  501    0  0.00000000000E+00  0.00000000000E+00  0.12363763305E+02  0.12363764187E+02  0.46700000000E-02 0.  1.
         -1   -1    0    0    0  501 -0.00000000000E+00 -0.00000000000E+00 -0.95452607135E+01  0.95452618559E+01  0.46700000000E-02 0. -1.
        -11    1    1    2    0    0  0.74858062468E+01 -0.70789632596E+01  0.48828718399E+01  0.11401379463E+02  0.51100000000E-03 0.  1.
         11    1    1    2    0    0 -0.74858062468E+01  0.70789632596E+01 -0.20643692482E+01  0.10507646580E+02  0.51100000000E-03 0. -1.
<mgrwt>
<rscale>  0 0.21726976E+02</rscale>
<asrwt>0</asrwt>
<pdfrwt beam="1">  1        1 0.19021176E-02 0.21726976E+02</pdfrwt>
<pdfrwt beam="2">  1       -1 0.14685018E-02 0.21726976E+02</pdfrwt>
<totfact> 0.32250938E+06</totfact>
</mgrwt>
</event>
<event>
 4    1  0.4244376E-001  0.3200125E+02  0.7818608E-02  0.1576966E+00
         -1   -1    0    0    0  501 -0.00000000000E+00  0.00000000000E+00  0.52196009117E+01  0.52196030008E+01  0.46700000000E-02 0. -1.
          1   -1    0    0  501    0  0.00000000000E+00 -0.00000000000E+00 -0.49049721935E+02  0.49049722157E+02  0.46700000000E-02 0.  1.
        -11    1    1    2    0    0  0.13656897116E+02 -0.17611087672E+01 -0.80954232321E+01  0.15973359712E+02  0.51100000000E-03 0. -1.
         11    1    1    2    0    0 -0.13656897116E+02  0.17611087672E+01 -0.35734697791E+02  0.38295965446E+02  0.51100000000E-03 0.  1.
<mgrwt>
<rscale>  0 0.32001252E+02</rscale>
<asrwt>0</asrwt>
<pdfrwt beam="2">  1        1 0.75461109E-02 0.32001252E+02</pdfrwt>
<pdfrwt beam="1">  1       -1 0.80301574E-03 0.32001252E+02</pdfrwt>
<totfact> 0.14048338E+06</totfact>
</mgrwt>
</event>
<event>
 4    1  0.4244376E-001  0.4552644E+02  0.7818608E-02  0.1471082E+00
          1   -1    0    0  501    0  0.00000000000E+00  0.00000000000E+00  0.31612300047E+01  0.31612334541E+01  0.46700000000E-02 0.  1.
         -1   -1    0    0    0  501 -0.00000000000E+00 -0.00000000000E+00 -0.16391211422E+03  0.16391211429E+03  0.46700000000E-02 0. -1.
        -11    1    1    2    0    0 -0.88534685065E+01 -0.18389028380E+02 -0.11737030730E+03  0.11913156301E+03  0.51100000000E-03 0. -1.
         11    1    1    2    0    0  0.88534685065E+01  0.18389028380E+02 -0.43380576913E+02  0.47941784728E+02  0.51100000000E-03 0.  1.
<mgrwt>
<rscale>  0 0.45526440E+02</rscale>
<asrwt>0</asrwt>
<pdfrwt beam="1">  1        1 0.48634348E-03 0.45526440E+02</pdfrwt>
<pdfrwt beam="2">  1       -1 0.25217242E-01 0.45526440E+02</pdfrwt>
<totfact> 0.42507044E+05</totfact>
</mgrwt>
</event>
<event>
 4    1  0.4244376E-001  0.4247750E+02  0.7818608E-02  0.1490733E+00
         -1   -1    0    0    0  501 -0.00000000000E+00  0.00000000000E+00  0.49239617218E+02  0.49239617440E+02  0.46700000000E-02 0.  1.
          1   -1    0    0  501    0  0.00000000000E+00 -0.00000000000E+00 -0.91610074517E+01  0.91610086420E+01  0.46700000000E-02 0. -1.
        -11    1    1    2    0    0 -0.10564683843E+02  0.75252382760E+00 -0.52710348517E+01  0.11830580944E+02  0.51100000000E-03 0. -1.
         11    1    1    2    0    0  0.10564683843E+02 -0.75252382760E+00  0.45349644619E+02  0.46570045137E+02  0.51100000000E-03 0.  1.
<mgrwt>
<rscale>  0 0.42477502E+02</rscale>
<asrwt>0</asrwt>
<pdfrwt beam="2">  1        1 0.14093859E-02 0.42477502E+02</pdfrwt>
<pdfrwt beam="1">  1       -1 0.75753259E-02 0.42477502E+02</pdfrwt>
<totfact> 0.60948299E+05</totfact>
</mgrwt>
</event>
<event>
 4    1  0.4244376E-001  0.3788282E+02  0.7818608E-02  0.1524396E+00
         -1   -1    0    0    0  501 -0.00000000000E+00  0.00000000000E+00  0.34412290768E+02  0.34412291085E+02  0.46700000000E-02 0. -1.
          1   -1    0    0  501    0  0.00000000000E+00 -0.00000000000E+00 -0.10425838780E+02  0.10425839826E+02  0.46700000000E-02 0.  1.
        -11    1    1    2    0    0  0.11808899028E+02  0.10757825575E+02 -0.53719185567E-01  0.15974473179E+02  0.51100000000E-03 0.  1.
         11    1    1    2    0    0 -0.11808899028E+02 -0.10757825575E+02  0.24040171174E+02  0.28863657732E+02  0.51100000000E-03 0. -1.
<mgrwt>
<rscale>  0 0.37882821E+02</rscale>
<asrwt>0</asrwt>
<pdfrwt beam="2">  1        1 0.16039753E-02 0.37882821E+02</pdfrwt>
<pdfrwt beam="1">  1       -1 0.52941988E-02 0.37882821E+02</pdfrwt>
<totfact> 0.83032514E+05</totfact>
</mgrwt>
</event>
<event>
 4    1  0.4244376E-001  0.4628385E+02  0.7818608E-02  0.1466482E+00
          1   -1    0    0  501    0  0.00000000000E+00  0.00000000000E+00  0.70996913148E+01  0.70996928507E+01  0.46700000000E-02 0. -1.
         -1   -1    0    0    0  501 -0.00000000000E+00 -0.00000000000E+00 -0.75432677469E+02  0.75432677614E+02  0.46700000000E-02 0.  1.
        -11    1    1    2    0    0 -0.12639954896E+02 -0.16179371438E+02 -0.53206319562E+02  0.57030281092E+02  0.51100000000E-03 0. -1.
         11    1    1    2    0    0  0.12639954896E+02  0.16179371438E+02 -0.15126666593E+02  0.25502089372E+02  0.51100000000E-03 0.  1.
<mgrwt>
<rscale>  0 0.46283854E+02</rscale>
<asrwt>0</asrwt>
<pdfrwt beam="1">  1        1 0.10922604E-02 0.46283854E+02</pdfrwt>
<pdfrwt beam="2">  1       -1 0.11605027E-01 0.46283854E+02</pdfrwt>
<totfact> 0.46970000E+05</totfact>
</mgrwt>
</event>
<event>
 4    1  0.4244376E-001  0.2832987E+02  0.7818608E-02  0.1617319E+00
         -1   -1    0    0    0  501 -0.00000000000E+00  0.00000000000E+00  0.73401891818E+02  0.73401891966E+02  0.46700000000E-02 0.  1.
          1   -1    0    0  501    0  0.00000000000E+00 -0.00000000000E+00 -0.27335148323E+01  0.27335188214E+01  0.46700000000E-02 0. -1.
        -11    1    1    2    0    0  0.95400799191E+01  0.65645286740E+01  0.13412155450E+02  0.17719821547E+02  0.51100000000E-03 0. -1.
         11    1    1    2    0    0 -0.95400799191E+01 -0.65645286740E+01  0.57256221536E+02  0.58415589241E+02  0.51100000000E-03 0.  1.
<mgrwt>
<rscale>  0 0.28329865E+02</rscale>
<asrwt>0</asrwt>
<pdfrwt beam="2">  1        1 0.42054104E-03 0.28329865E+02</pdfrwt>
<pdfrwt beam="1">  1       -1 0.11292600E-01 0.28329865E+02</pdfrwt>
<totfact> 0.15214559E+06</totfact>
</mgrwt>
</event>
<event>
 4    1  0.4244376E-001  0.2222100E+02  0.7818608E-02  0.1704458E+00
          1   -1    0    0  501    0  0.00000000000E+00  0.00000000000E+00  0.17225576060E+01  0.17225639364E+01  0.46700000000E-02 0.  1.
         -1   -1    0    0    0  501 -0.00000000000E+00 -0.00000000000E+00 -0.71662591199E+02  0.71662591351E+02  0.46700000000E-02 0. -1.
        -11    1    1    2    0    0  0.20914222630E+01  0.10895204657E+02 -0.36961538282E+02  0.38590605645E+02  0.51100000000E-03 0.  1.
         11    1    1    2    0    0 -0.20914222630E+01 -0.10895204657E+02 -0.32978495311E+02  0.34794549643E+02  0.51100000000E-03 0. -1.
<mgrwt>
<rscale>  0 0.22220997E+02</rscale>
<asrwt>0</asrwt>
<pdfrwt beam="1">  1        1 0.26500942E-03 0.22220997E+02</pdfrwt>
<pdfrwt beam="2">  1       -1 0.11025012E-01 0.22220997E+02</pdfrwt>
<totfact> 0.26527359E+06</totfact>
</mgrwt>
</event>
<event>
 4    1  0.4244376E-001  0.1598302E+03  0.7818608E-02  0.1188889E+00
         -1   -1    0    0    0  501 -0.00000000000E+00  0.00000000000E+00  0.76113077526E+02  0.76113077670E+02  0.46700000000E-02 0.  1.
          1   -1    0    0  501    0  0.00000000000E+00 -0.00000000000E+00 -0.83907027033E+02  0.83907027163E+02  0.46700000000E-02 0. -1.
        -11    1    1    2    0    0 -0.50204054605E+01 -0.79028157134E+02 -0.14669313006E+02  0.80534730615E+02  0.51100000000E-03 0.  1.
         11    1    1    2    0    0  0.50204054605E+01  0.79028157134E+02  0.68753634997E+01  0.79485374217E+02  0.51100000000E-03 0. -1.
<mgrwt>
<rscale>  0 0.15983019E+03</rscale>
<asrwt>0</asrwt>
<pdfrwt beam="2">  1        1 0.12908773E-01 0.15983019E+03</pdfrwt>
<pdfrwt beam="1">  1       -1 0.11709704E-01 0.15983019E+03</pdfrwt>
<totfact> 0.20371172E+04</totfact>
</mgrwt>
</event>
<event>
 4    1  0.4244376E-001  0.2754718E+02  0.7818608E-02  0.1626899E+00
         -1   -1    0    0    0  501 -0.00000000000E+00  0.00000000000E+00  0.11223432950E+02  0.11223433922E+02  0.46700000000E-02 0. -1.
          1   -1    0    0  501    0  0.00000000000E+00 -0.00000000000E+00 -0.16903190341E+02  0.16903190986E+02  0.46700000000E-02 0.  1.
        -11    1    1    2    0    0  0.81342593780E+01  0.10650141468E+02 -0.60880133554E+01  0.14719225380E+02  0.51100000000E-03 0.  1.
         11    1    1    2    0    0 -0.81342593780E+01 -0.10650141468E+02  0.40825596518E+00  0.13407399528E+02  0.51100000000E-03 0. -1.
<mgrwt>
<rscale>  0 0.27547185E+02</rscale>
<asrwt>0</asrwt>
<pdfrwt beam="2">  1        1 0.26004910E-02 0.27547185E+02</pdfrwt>
<pdfrwt beam="1">  1       -1 0.17266821E-02 0.27547185E+02</pdfrwt>
<totfact> 0.18791568E+06</totfact>
</mgrwt>
</event>
<event>
 4    1  0.4244376E-001  0.2188899E+02  0.7818608E-02  0.1710179E+00
          1   -1    0    0  501    0  0.00000000000E+00  0.00000000000E+00  0.13072935414E+02  0.13072936248E+02  0.46700000000E-02 0.  1.
         -1   -1    0    0    0  501 -0.00000000000E+00 -0.00000000000E+00 -0.91625863800E+01  0.91625875702E+01  0.46700000000E-02 0. -1.
        -11    1    1    2    0    0  0.30781997652E+01 -0.99090458705E+01  0.54912927758E+01  0.11739625227E+02  0.51100000000E-03 0.  1.
         11    1    1    2    0    0 -0.30781997652E+01  0.99090458705E+01 -0.15809437421E+01  0.10495898591E+02  0.51100000000E-03 0. -1.
<mgrwt>
<rscale>  0 0.21888986E+02</rscale>
<asrwt>0</asrwt>
<pdfrwt beam="1">  1        1 0.20112210E-02 0.21888986E+02</pdfrwt>
<pdfrwt beam="2">  1       -1 0.14096288E-02 0.21888986E+02</pdfrwt>
<totfact> 0.31780667E+06</totfact>
</mgrwt>
</event>
<event>
 4    1  0.4244376E-001  0.3824320E+02  0.7818608E-02  0.1521552E+00
         -1   -1    0    0    0  501 -0.00000000000E+00  0.00000000000E+00  0.66346894273E+01  0.66346910708E+01  0.46700000000E-02 0. -1.
          1   -1    0    0  501    0  0.00000000000E+00 -0.00000000000E+00 -0.55109653548E+02  0.55109653746E+02  0.46700000000E-02 0.  1.
        -11    1    1    2    0    0  0.84914079418E+01  0.16784114949E+02 -0.29789399776E+02  0.35230936160E+02  0.51100000000E-03 0.  1.
         11    1    1    2    0    0 -0.84914079418E+01 -0.16784114949E+02 -0.18685564345E+02  0.26513408657E+02  0.51100000000E-03 0. -1.
<mgrwt>
<rscale>  0 0.38243195E+02</rscale>
<asrwt>0</asrwt>
<pdfrwt beam="2">  1        1 0.84784080E-02 0.38243195E+02</pdfrwt>
<pdfrwt beam="1">  1       -1 0.10207216E-02 0.38243195E+02</pdfrwt>
<totfact> 0.92082979E+05</totfact>
</mgrwt>
</event>
<event>
 4    1  0.4244376E-001  0.2782664E+02  0.7818608E-02  0.1623434E+00
         -1   -1    0    0    0  501 -0.00000000000E+00  0.00000000000E+00  0.24741769688E+02  0.24741770129E+02  0.46700000000E-02 0. -1.
          1   -1    0    0  501    0  0.00000000000E+00 -0.00000000000E+00 -0.78240355583E+01  0.78240369520E+01  0.46700000000E-02 0.  1.
        -11    1    1    2    0    0  0.15805693505E+00  0.13879046380E+02  0.95860192889E+01  0.16868452107E+02  0.51100000000E-03 0. -1.
         11    1    1    2    0    0 -0.15805693505E+00 -0.13879046380E+02  0.73317148406E+01  0.15697354974E+02  0.51100000000E-03 0.  1.
<mgrwt>
<rscale>  0 0.27826643E+02</rscale>
<asrwt>0</asrwt>
<pdfrwt beam="2">  1        1 0.12036979E-02 0.27826643E+02</pdfrwt>
<pdfrwt beam="1">  1       -1 0.38064262E-02 0.27826643E+02</pdfrwt>
<totfact> 0.17554983E+06</totfact>
</mgrwt>
</event>
<event>
 4    1  0.4244376E-001  0.3429483E+02  0.7818608E-02  0.1554953E+00
          1   -1    0    0  501    0  0.00000000000E+00  0.00000000000E+00  0.28276113720E+02  0.28276114105E+02  0.46700000000E-02 0.  1.
         -1   -1    0    0    0  501 -0.00000000000E+00 -0.00000000000E+00 -0.10398665342E+02  0.10398666391E+02  0.46700000000E-02 0. -1.
        -11    1    1    2    0    0  0.13057607283E+02  0.10324227107E+02  0.42968262120E+01  0.17191669177E+02  0.51100000000E-03 0. -1.
         11    1    1    2    0    0 -0.13057607283E+02 -0.10324227107E+02  0.13580622165E+02  0.21483111320E+02  0.51100000000E-03 0.  1.
<mgrwt>
<rscale>  0 0.34294832E+02</rscale>
<asrwt>0</asrwt>
<pdfrwt beam="1">  1        1 0.43501715E-02 0.34294832E+02</pdfrwt>
<pdfrwt beam="2">  1       -1 0.15997948E-02 0.34294832E+02</pdfrwt>
<totfact> 0.11419162E+06</totfact>
</mgrwt>
</event>
<event>
 4    1  0.4244376E-001  0.3572252E+02  0.7818608E-02  0.1542276E+00
         -1   -1    0    0    0  501 -0.00000000000E+00  0.00000000000E+00  0.24551485614E+02  0.24551486058E+02  0.46700000000E-02 0. -1.
          1   -1    0    0  501    0  0.00000000000E+00 -0.00000000000E+00 -0.12994107697E+02  0.12994108536E+02  0.46700000000E-02 0.  1.
        -11    1    1    2    0    0 -0.76663518661E+01 -0.11166844224E+02  0.18015603314E+02  0.22539594581E+02  0.51100000000E-03 0. -1.
         11    1    1    2    0    0  0.76663518661E+01  0.11166844224E+02 -0.64582253968E+01  0.15006000013E+02  0.51100000000E-03 0.  1.
<mgrwt>
<rscale>  0 0.35722524E+02</rscale>
<asrwt>0</asrwt>
<pdfrwt beam="2">  1        1 0.19990936E-02 0.35722524E+02</pdfrwt>
<pdfrwt beam="1">  1       -1 0.37771517E-02 0.35722524E+02</pdfrwt>
<totfact> 0.98038103E+05</totfact>
</mgrwt>
</event>
<event>
 4    1  0.4244376E-001  0.6777938E+02  0.7818608E-02  0.1367811E+00
          1   -1    0    0  501    0  0.00000000000E+00  0.00000000000E+00  0.24596199354E+03  0.24596199359E+03  0.46700000000E-02 0. -1.
         -1   -1    0    0    0  501 -0.00000000000E+00 -0.00000000000E+00 -0.46694640670E+01  0.46694664022E+01  0.46700000000E-02 0.  1.
        -11    1    1    2    0    0 -0.25996726931E+02  0.16388539319E+02  0.67819224961E+02  0.74457110518E+02  0.51100000000E-03 0.  1.
         11    1    1    2    0    0  0.25996726931E+02 -0.16388539319E+02  0.17347330452E+03  0.17617434947E+03  0.51100000000E-03 0. -1.
<mgrwt>
<rscale>  0 0.67779377E+02</rscale>
<asrwt>0</asrwt>
<pdfrwt beam="1">  1        1 0.37840304E-01 0.67779377E+02</pdfrwt>
<pdfrwt beam="2">  1       -1 0.71837933E-03 0.67779377E+02</pdfrwt>
<totfact> 0.26883812E+05</totfact>
</mgrwt>
</event>
<event>
 4    1  0.4244376E-001  0.3147996E+02  0.7818608E-02  0.1582283E+00
          1   -1    0    0  501    0  0.00000000000E+00  0.00000000000E+00  0.24845128635E+02  0.24845129074E+02  0.46700000000E-02 0.  1.
         -1   -1    0    0    0  501 -0.00000000000E+00 -0.00000000000E+00 -0.99716488157E+01  0.99716499093E+01  0.46700000000E-02 0. -1.
        -11    1    1    2    0    0 -0.11075662807E+02 -0.30624049553E+01  0.19333205023E+02  0.22490474594E+02  0.51100000000E-03 0.  1.
         11    1    1    2    0    0  0.11075662807E+02  0.30624049553E+01 -0.44597252042E+01  0.12326304389E+02  0.51100000000E-03 0. -1.
<mgrwt>
<rscale>  0 0.31479957E+02</rscale>
<asrwt>0</asrwt>
<pdfrwt beam="1">  1        1 0.38223275E-02 0.31479957E+02</pdfrwt>
<pdfrwt beam="2">  1       -1 0.15341000E-02 0.31479957E+02</pdfrwt>
<totfact> 0.13944042E+06</totfact>
</mgrwt>
</event>
<event>
 4    1  0.4244376E-001  0.2583367E+02  0.7818608E-02  0.1649308E+00
          1   -1    0    0  501    0  0.00000000000E+00  0.00000000000E+00  0.78623847787E+02  0.78623847926E+02  0.46700000000E-02 0. -1.
         -1   -1    0    0    0  501 -0.00000000000E+00 -0.00000000000E+00 -0.21220588703E+01  0.21220640089E+01  0.46700000000E-02 0.  1.
        -11    1    1    2    0    0  0.86898863013E+01 -0.95041745497E+01  0.35123430166E+02  0.37409875764E+02  0.51100000000E-03 0. -1.
         11    1    1    2    0    0 -0.86898863013E+01  0.95041745497E+01  0.41378358751E+02  0.43336036171E+02  0.51100000000E-03 0.  1.
<mgrwt>
<rscale>  0 0.25833672E+02</rscale>
<asrwt>0</asrwt>
<pdfrwt beam="1">  1        1 0.12095975E-01 0.25833672E+02</pdfrwt>
<pdfrwt beam="2">  1       -1 0.32647106E-03 0.25833672E+02</pdfrwt>
<totfact> 0.24263626E+06</totfact>
</mgrwt>
</event>
<event>
 4    1  0.4244376E-001  0.4447428E+02  0.7818608E-02  0.1477651E+00
         -1   -1    0    0    0  501 -0.00000000000E+00  0.00000000000E+00  0.35256327592E+01  0.35256358521E+01  0.46700000000E-02 0.  1.
          1   -1    0    0  501    0  0.00000000000E+00 -0.00000000000E+00 -0.14025570753E+03  0.14025570761E+03  0.46700000000E-02 0. -1.
        -11    1    1    2    0    0 -0.13406815815E+02 -0.15631938676E+02 -0.41241301297E+02  0.46097127351E+02  0.51100000000E-03 0.  1.
         11    1    1    2    0    0  0.13406815815E+02  0.15631938676E+02 -0.95488773473E+02  0.97684216109E+02  0.51100000000E-03 0. -1.
<mgrwt>
<rscale>  0 0.44474278E+02</rscale>
<asrwt>0</asrwt>
<pdfrwt beam="2">  1        1 0.21577797E-01 0.44474278E+02</pdfrwt>
<pdfrwt beam="1">  1       -1 0.54240539E-03 0.44474278E+02</pdfrwt>
<totfact> 0.71018713E+05</totfact>
</mgrwt>
</event>
<event>
 4    1  0.4244376E-001  0.2480393E+02  0.7818608E-02  0.1663834E+00
          1   -1    0    0  501    0  0.00000000000E+00  0.00000000000E+00  0.31964100993E+02  0.31964101334E+02  0.46700000000E-02 0.  1.
         -1   -1    0    0    0  501 -0.00000000000E+00 -0.00000000000E+00 -0.48119213721E+01  0.48119236382E+01  0.46700000000E-02 0. -1.
        -11    1    1    2    0    0 -0.32852647644E+01 -0.11070825684E+02  0.20281400840E+02  0.23338623914E+02  0.51100000000E-03 0.  1.
         11    1    1    2    0    0  0.32852647644E+01  0.11070825684E+02  0.68707787815E+01  0.13437401059E+02  0.51100000000E-03 0. -1.
<mgrwt>
<rscale>  0 0.24803934E+02</rscale>
<asrwt>0</asrwt>
<pdfrwt beam="1">  1        1 0.49175543E-02 0.24803934E+02</pdfrwt>
<pdfrwt beam="2">  1       -1 0.74029578E-03 0.24803934E+02</pdfrwt>
<totfact> 0.24871254E+06</totfact>
</mgrwt>
</event>
<event>
 4    1  0.4244376E-001  0.3187365E+02  0.7818608E-02  0.1578256E+00
         -1   -1    0    0    0  501 -0.00000000000E+00  0.00000000000E+00  0.31965554714E+01  0.31965588828E+01  0.46700000000E-02 0.  1.
          1   -1    0    0  501    0  0.00000000000E+00 -0.00000000000E+00 -0.79454998558E+02  0.79454998695E+02  0.46700000000E-02 0. -1.
        -11    1    1    2    0    0 -0.93759654908E+01 -0.12395527288E+02 -0.28988911270E+02  0.32892473342E+02  0.51100000000E-03 0.  1.
         11    1    1    2    0    0  0.93759654908E+01  0.12395527288E+02 -0.47269531816E+02  0.49759084236E+02  0.51100000000E-03 0. -1.
<mgrwt>
<rscale>  0 0.31873654E+02</rscale>
<asrwt>0</asrwt>
<pdfrwt beam="2">  1        1 0.12223845E-01 0.31873654E+02</pdfrwt>
<pdfrwt beam="1">  1       -1 0.49177810E-03 0.31873654E+02</pdfrwt>
<totfact> 0.14834354E+06</totfact>
</mgrwt>
</event>
<event>
 4    1  0.4244376E-001  0.2367910E+02  0.7818608E-02  0.1680733E+00
         -1   -1    0    0    0  501 -0.00000000000E+00  0.00000000000E+00  0.46635179961E+01  0.46635203344E+01  0.46700000000E-02 0.  1.
          1   -1    0    0  501    0  0.00000000000E+00 -0.00000000000E+00 -0.30057748313E+02  0.30057748676E+02  0.46700000000E-02 0. -1.
        -11    1    1    2    0    0 -0.77639369412E+01  0.88367517846E+01 -0.14668763373E+02  0.18802646571E+02  0.51100000000E-03 0.  1.
         11    1    1    2    0    0  0.77639369412E+01 -0.88367517846E+01 -0.10725466944E+02  0.15918622439E+02  0.51100000000E-03 0. -1.
<mgrwt>
<rscale>  0 0.23679096E+02</rscale>
<asrwt>0</asrwt>
<pdfrwt beam="2">  1        1 0.46242691E-02 0.23679096E+02</pdfrwt>
<pdfrwt beam="1">  1       -1 0.71746453E-03 0.23679096E+02</pdfrwt>
<totfact> 0.27586656E+06</totfact>
</mgrwt>
</event>
<event>
 4    1  0.4244376E-001  0.2942261E+02  0.7818608E-02  0.1604560E+00
         -1   -1    0    0    0  501 -0.00000000000E+00  0.00000000000E+00  0.17489374851E+01  0.17489437200E+01  0.46700000000E-02 0.  1.
          1   -1    0    0  501    0  0.00000000000E+00 -0.00000000000E+00 -0.12374493028E+03  0.12374493037E+03  0.46700000000E-02 0. -1.
        -11    1    1    2    0    0 -0.13464527369E+02  0.57650639176E+01 -0.66866485093E+02  0.68451853797E+02  0.51100000000E-03 0. -1.
         11    1    1    2    0    0  0.13464527369E+02 -0.57650639176E+01 -0.55129507707E+02  0.57042020296E+02  0.51100000000E-03 0.  1.
<mgrwt>
<rscale>  0 0.29422613E+02</rscale>
<asrwt>0</asrwt>
<pdfrwt beam="2">  1        1 0.19037675E-01 0.29422613E+02</pdfrwt>
<pdfrwt beam="1">  1       -1 0.26906789E-03 0.29422613E+02</pdfrwt>
<totfact> 0.18901215E+06</totfact>
</mgrwt>
</event>
<event>
 4    1  0.4244376E-001  0.3071118E+02  0.7818608E-02  0.1590358E+00
         -1   -1    0    0    0  501 -0.00000000000E+00  0.00000000000E+00  0.88138945354E+01  0.88138957726E+01  0.46700000000E-02 0.  1.
          1   -1    0    0  501    0  0.00000000000E+00 -0.00000000000E+00 -0.26752541663E+02  0.26752542070E+02  0.46700000000E-02 0. -1.
        -11    1    1    2    0    0 -0.13311736172E+02  0.72325548291E+01 -0.11871947738E+02  0.19247215710E+02  0.51100000000E-03 0. -1.
         11    1    1    2    0    0  0.13311736172E+02 -0.72325548291E+01 -0.60666993896E+01  0.16319222132E+02  0.51100000000E-03 0.  1.
<mgrwt>
<rscale>  0 0.30711178E+02</rscale>
<asrwt>0</asrwt>
<pdfrwt beam="2">  1        1 0.41157757E-02 0.30711178E+02</pdfrwt>
<pdfrwt beam="1">  1       -1 0.13559839E-02 0.30711178E+02</pdfrwt>
<totfact> 0.14867053E+06</totfact>
</mgrwt>
</event>
<event>
 4    1  0.4244376E-001  0.3041857E+02  0.7818608E-02  0.1593508E+00
          1   -1    0    0  501    0  0.00000000000E+00  0.00000000000E+00  0.82544134458E+01  0.82544147669E+01  0.46700000000E-02 0.  1.
         -1   -1    0    0    0  501 -0.00000000000E+00 -0.00000000000E+00 -0.28024069667E+02  0.28024070056E+02  0.46700000000E-02 0. -1.
        -11    1    1    2    0    0  0.11873457106E+02  0.91325149537E+01 -0.67428365936E+01  0.16427040470E+02  0.51100000000E-03 0.  1.
         11    1    1    2    0    0 -0.11873457106E+02 -0.91325149537E+01 -0.13026819628E+02  0.19851444353E+02  0.51100000000E-03 0. -1.
<mgrwt>
<rscale>  0 0.30418566E+02</rscale>
<asrwt>0</asrwt>
<pdfrwt beam="1">  1        1 0.12699099E-02 0.30418566E+02</pdfrwt>
<pdfrwt beam="2">  1       -1 0.43113954E-02 0.30418566E+02</pdfrwt>
<totfact> 0.14161439E+06</totfact>
</mgrwt>
</event>
<event>
 4    1  0.4244376E-001  0.3066652E+02  0.7818608E-02  0.1590836E+00
          1   -1    0    0  501    0  0.00000000000E+00  0.00000000000E+00  0.33027399683E+01  0.33027432699E+01  0.46700000000E-02 0.  1.
         -1   -1    0    0    0  501 -0.00000000000E+00 -0.00000000000E+00 -0.71185965811E+02  0.71185965964E+02  0.46700000000E-02 0. -1.
        -11    1    1    2    0    0  0.13916180931E+02  0.53165006162E+01 -0.25122135850E+02  0.29206968012E+02  0.51100000000E-03 0.  1.
         11    1    1    2    0    0 -0.13916180931E+02 -0.53165006162E+01 -0.42761089993E+02  0.45281741223E+02  0.51100000000E-03 0. -1.
<mgrwt>
<rscale>  0 0.30666520E+02</rscale>
<asrwt>0</asrwt>
<pdfrwt beam="1">  1        1 0.50811416E-03 0.30666520E+02</pdfrwt>
<pdfrwt beam="2">  1       -1 0.10951686E-01 0.30666520E+02</pdfrwt>
<totfact> 0.12701197E+06</totfact>
</mgrwt>
</event>
<event>
 4    1  0.4244376E-001  0.3153304E+02  0.7818608E-02  0.1581736E+00
         -1   -1    0    0    0  501 -0.00000000000E+00  0.00000000000E+00  0.27872061020E+01  0.27872100143E+01  0.46700000000E-02 0. -1.
          1   -1    0    0  501    0  0.00000000000E+00 -0.00000000000E+00 -0.89187147921E+02  0.89187148043E+02  0.46700000000E-02 0.  1.
        -11    1    1    2    0    0 -0.83868025952E+01 -0.10847996167E+02 -0.65899361034E+02  0.67310796040E+02  0.51100000000E-03 0. -1.
         11    1    1    2    0    0  0.83868025952E+01  0.10847996167E+02 -0.20500580785E+02  0.24663562017E+02  0.51100000000E-03 0.  1.
<mgrwt>
<rscale>  0 0.31533040E+02</rscale>
<asrwt>0</asrwt>
<pdfrwt beam="2">  1        1 0.13721098E-01 0.31533040E+02</pdfrwt>
<pdfrwt beam="1">  1       -1 0.42880132E-03 0.31533040E+02</pdfrwt>
<totfact> 0.15413576E+06</totfact>
</mgrwt>
</event>
<event>
 4    1  0.4244376E-001  0.4607943E+02  0.7818608E-02  0.1467713E+00
          1   -1    0    0  501    0  0.00000000000E+00  0.00000000000E+00  0.11470849383E+03  0.11470849392E+03  0.46700000000E-02 0. -1.
         -1   -1    0    0    0  501 -0.00000000000E+00 -0.00000000000E+00 -0.46276294220E+01  0.46276317784E+01  0.46700000000E-02 0.  1.
        -11    1    1    2    0    0  0.11873922622E+02 -0.15785227095E+02  0.85755961581E+02  0.88001411238E+02  0.51100000000E-03 0. -1.
         11    1    1    2    0    0 -0.11873922622E+02  0.15785227095E+02  0.24324902827E+02  0.31334714465E+02  0.51100000000E-03 0.  1.
<mgrwt>
<rscale>  0 0.46079433E+02</rscale>
<asrwt>0</asrwt>
<pdfrwt beam="1">  1        1 0.17647461E-01 0.46079433E+02</pdfrwt>
<pdfrwt beam="2">  1       -1 0.71194319E-03 0.46079433E+02</pdfrwt>
<totfact> 0.63145250E+05</totfact>
</mgrwt>
</event>
<event>
 4    1  0.4244376E-001  0.3828811E+02  0.7818608E-02  0.1521201E+00
         -1   -1    0    0    0  501 -0.00000000000E+00  0.00000000000E+00  0.13607526839E+03  0.13607526847E+03  0.46700000000E-02 0. -1.
          1   -1    0    0  501    0  0.00000000000E+00 -0.00000000000E+00 -0.26933216159E+01  0.26933256646E+01  0.46700000000E-02 0.  1.
        -11    1    1    2    0    0 -0.34157614152E+01 -0.18607542284E+02  0.56070588437E+02  0.59176168716E+02  0.51100000000E-03 0. -1.
         11    1    1    2    0    0  0.34157614152E+01  0.18607542284E+02  0.77311358335E+02  0.79592425417E+02  0.51100000000E-03 0.  1.
<mgrwt>
<rscale>  0 0.38288105E+02</rscale>
<asrwt>0</asrwt>
<pdfrwt beam="2">  1        1 0.41435749E-03 0.38288105E+02</pdfrwt>
<pdfrwt beam="1">  1       -1 0.20934657E-01 0.38288105E+02</pdfrwt>
<totfact> 0.67454014E+05</totfact>
</mgrwt>
</event>
<event>
 4    1  0.4244376E-001  0.2339233E+02  0.7818608E-02  0.1685228E+00
         -1   -1    0    0    0  501 -0.00000000000E+00  0.00000000000E+00  0.22342761801E+02  0.22342762289E+02  0.46700000000E-02 0. -1.
          1   -1    0    0  501    0  0.00000000000E+00 -0.00000000000E+00 -0.61227977147E+01  0.61227994956E+01  0.46700000000E-02 0.  1.
        -11    1    1    2    0    0  0.62681943922E+01  0.98658488617E+01  0.86190497678E+01  0.14522852814E+02  0.51100000000E-03 0.  1.
         11    1    1    2    0    0 -0.62681943922E+01 -0.98658488617E+01  0.76009143188E+01  0.13942708971E+02  0.51100000000E-03 0. -1.
<mgrwt>
<rscale>  0 0.23392327E+02</rscale>
<asrwt>0</asrwt>
<pdfrwt beam="2">  1        1 0.94196906E-03 0.23392327E+02</pdfrwt>
<pdfrwt beam="1">  1       -1 0.34373481E-02 0.23392327E+02</pdfrwt>
<totfact> 0.26234183E+06</totfact>
</mgrwt>
</event>
<event>
 4    1  0.4244376E-001  0.4930482E+02  0.7818608E-02  0.1449128E+00
          1   -1    0    0  501    0  0.00000000000E+00  0.00000000000E+00  0.51548928964E+02  0.51548929176E+02  0.46700000000E-02 0. -1.
         -1   -1    0    0    0  501 -0.00000000000E+00 -0.00000000000E+00 -0.11789601555E+02  0.11789602480E+02  0.46700000000E-02 0.  1.
        -11    1    1    2    0    0 -0.14627891746E+02 -0.16176778382E+01  0.45286457203E+02  0.47617804493E+02  0.51100000000E-03 0. -1.
         11    1    1    2    0    0  0.14627891746E+02  0.16176778382E+01 -0.55271297933E+01  0.15720727163E+02  0.51100000000E-03 0.  1.
<mgrwt>
<rscale>  0 0.49304822E+02</rscale>
<asrwt>0</asrwt>
<pdfrwt beam="1">  1        1 0.79306046E-02 0.49304822E+02</pdfrwt>
<pdfrwt beam="2">  1       -1 0.18137849E-02 0.49304822E+02</pdfrwt>
<totfact> 0.48465978E+05</totfact>
</mgrwt>
</event>
<event>
 4    1  0.4244376E-001  0.3942622E+02  0.7818608E-02  0.1512477E+00
          1   -1    0    0  501    0  0.00000000000E+00  0.00000000000E+00  0.35634971778E+02  0.35634972084E+02  0.46700000000E-02 0. -1.
         -1   -1    0    0    0  501 -0.00000000000E+00 -0.00000000000E+00 -0.10905207781E+02  0.10905208780E+02  0.46700000000E-02 0.  1.
        -11    1    1    2    0    0 -0.11339503801E+02 -0.14407892372E+02  0.20912672936E+02  0.27812076490E+02  0.51100000000E-03 0. -1.
         11    1    1    2    0    0  0.11339503801E+02  0.14407892372E+02  0.38170910615E+01  0.18728104375E+02  0.51100000000E-03 0.  1.
<mgrwt>
<rscale>  0 0.39426225E+02</rscale>
<asrwt>0</asrwt>
<pdfrwt beam="1">  1        1 0.54823035E-02 0.39426225E+02</pdfrwt>
<pdfrwt beam="2">  1       -1 0.16777244E-02 0.39426225E+02</pdfrwt>
<totfact> 0.82345337E+05</totfact>
</mgrwt>
</event>
<event>
 4    1  0.4244376E-001  0.2845143E+02  0.7818608E-02  0.1615865E+00
          1   -1    0    0  501    0  0.00000000000E+00  0.00000000000E+00  0.29750425057E+02  0.29750425424E+02  0.46700000000E-02 0. -1.
         -1   -1    0    0    0  501 -0.00000000000E+00 -0.00000000000E+00 -0.68022855430E+01  0.68022871461E+01  0.46700000000E-02 0.  1.
        -11    1    1    2    0    0  0.83916076248E+01  0.90016608486E+01  0.20641931472E+02  0.24032026792E+02  0.51100000000E-03 0. -1.
         11    1    1    2    0    0 -0.83916076248E+01 -0.90016608486E+01  0.23062080424E+01  0.12520685778E+02  0.51100000000E-03 0.  1.
<mgrwt>
<rscale>  0 0.28451427E+02</rscale>
<asrwt>0</asrwt>
<pdfrwt beam="1">  1        1 0.45769887E-02 0.28451427E+02</pdfrwt>
<pdfrwt beam="2">  1       -1 0.10465056E-02 0.28451427E+02</pdfrwt>
<totfact> 0.17956563E+06</totfact>
</mgrwt>
</event>
<event>
 4    1  0.4244376E-001  0.3180747E+02  0.7818608E-02  0.1578928E+00
          1   -1    0    0  501    0  0.00000000000E+00  0.00000000000E+00  0.20551646172E+01  0.20551699231E+01  0.46700000000E-02 0. -1.
         -1   -1    0    0    0  501 -0.00000000000E+00 -0.00000000000E+00 -0.12306968466E+03  0.12306968475E+03  0.46700000000E-02 0.  1.
        -11    1    1    2    0    0  0.46961628561E+01  0.13674033898E+02 -0.86570307293E+02  0.87769307014E+02  0.51100000000E-03 0. -1.
         11    1    1    2    0    0 -0.46961628561E+01 -0.13674033898E+02 -0.34444212751E+02  0.37355547659E+02  0.51100000000E-03 0.  1.
<mgrwt>
<rscale>  0 0.31807471E+02</rscale>
<asrwt>0</asrwt>
<pdfrwt beam="1">  1        1 0.31617968E-03 0.31807471E+02</pdfrwt>
<pdfrwt beam="2">  1       -1 0.18933792E-01 0.31807471E+02</pdfrwt>
<totfact> 0.10695298E+06</totfact>
</mgrwt>
</event>
<event>
 4    1  0.4244376E-001  0.2544440E+02  0.7818608E-02  0.1654700E+00
         -1   -1    0    0    0  501 -0.00000000000E+00  0.00000000000E+00  0.50951115867E+01  0.50951137269E+01  0.46700000000E-02 0.  1.
          1   -1    0    0  501    0  0.00000000000E+00 -0.00000000000E+00 -0.31766593395E+02  0.31766593738E+02  0.46700000000E-02 0. -1.
        -11    1    1    2    0    0  0.68831275911E+01  0.82557183515E+01 -0.34759491743E+01  0.11296749703E+02  0.51100000000E-03 0.  1.
         11    1    1    2    0    0 -0.68831275911E+01 -0.82557183515E+01 -0.23195532634E+02  0.25564957761E+02  0.51100000000E-03 0. -1.
<mgrwt>
<rscale>  0 0.25444401E+02</rscale>
<asrwt>0</asrwt>
<pdfrwt beam="2">  1        1 0.48871683E-02 0.25444401E+02</pdfrwt>
<pdfrwt beam="1">  1       -1 0.78386353E-03 0.25444401E+02</pdfrwt>
<totfact> 0.23432462E+06</totfact>
</mgrwt>
</event>
<event>
 4    1  0.4244376E-001  0.4047098E+02  0.7818608E-02  0.1504774E+00
          1   -1    0    0  501    0  0.00000000000E+00  0.00000000000E+00  0.51187677642E+02  0.51187677855E+02  0.46700000000E-02 0. -1.
         -1   -1    0    0    0  501 -0.00000000000E+00 -0.00000000000E+00 -0.79994858508E+01  0.79994872140E+01  0.46700000000E-02 0.  1.
        -11    1    1    2    0    0 -0.16893257077E+02  0.10904500726E+02  0.24924163626E+02  0.32023494554E+02  0.51100000000E-03 0. -1.
         11    1    1    2    0    0  0.16893257077E+02 -0.10904500726E+02  0.18264028165E+02  0.27163670515E+02  0.51100000000E-03 0.  1.
<mgrwt>
<rscale>  0 0.40470985E+02</rscale>
<asrwt>0</asrwt>
<pdfrwt beam="1">  1        1 0.78750272E-02 0.40470985E+02</pdfrwt>
<pdfrwt beam="2">  1       -1 0.12306903E-02 0.40470985E+02</pdfrwt>
<totfact> 0.79542965E+05</totfact>
</mgrwt>
</event>
<event>
 4    1  0.4244376E-001  0.3350746E+02  0.7818608E-02  0.1562269E+00
         -1   -1    0    0    0  501 -0.00000000000E+00  0.00000000000E+00  0.21095609826E+02  0.21095610343E+02  0.46700000000E-02 0.  1.
          1   -1    0    0  501    0  0.00000000000E+00 -0.00000000000E+00 -0.13305488711E+02  0.13305489531E+02  0.46700000000E-02 0. -1.
        -11    1    1    2    0    0 -0.15403448959E+02  0.50641282798E+01 -0.43351760530E+00  0.16220344412E+02  0.51100000000E-03 0.  1.
         11    1    1    2    0    0  0.15403448959E+02 -0.50641282798E+01  0.82236387202E+01  0.18180755461E+02  0.51100000000E-03 0. -1.
<mgrwt>
<rscale>  0 0.33507457E+02</rscale>
<asrwt>0</asrwt>
<pdfrwt beam="2">  1        1 0.20469984E-02 0.33507457E+02</pdfrwt>
<pdfrwt beam="1">  1       -1 0.32454785E-02 0.33507457E+02</pdfrwt>
<totfact> 0.11517903E+06</totfact>
</mgrwt>
</event>
<event>
 4    1  0.4244376E-001  0.5135012E+02  0.7818608E-02  0.1438192E+00
         -1   -1    0    0    0  501 -0.00000000000E+00  0.00000000000E+00  0.14404679375E+03  0.14404679382E+03  0.46700000000E-02 0. -1.
          1   -1    0    0  501    0  0.00000000000E+00 -0.00000000000E+00 -0.45763501470E+01  0.45763525298E+01  0.46700000000E-02 0.  1.
        -11    1    1    2    0    0  0.10369564132E+01  0.21486789810E+02  0.29168261732E+02  0.36242860092E+02  0.51100000000E-03 0.  1.
         11    1    1    2    0    0 -0.10369564132E+01 -0.21486789810E+02  0.11030218187E+03  0.11238028626E+03  0.51100000000E-03 0. -1.
<mgrwt>
<rscale>  0 0.51350122E+02</rscale>
<asrwt>0</asrwt>
<pdfrwt beam="2">  1        1 0.70405390E-03 0.51350122E+02</pdfrwt>
<pdfrwt beam="1">  1       -1 0.22161050E-01 0.51350122E+02</pdfrwt>
<totfact> 0.32517797E+05</totfact>
</mgrwt>
</event>
<event>
 4    1  0.4244376E-001  0.3387229E+02  0.7818608E-02  0.1558849E+00
         -1   -1    0    0    0  501 -0.00000000000E+00  0.00000000000E+00  0.99079773226E+01  0.99079784232E+01  0.46700000000E-02 0. -1.
          1   -1    0    0  501    0  0.00000000000E+00 -0.00000000000E+00 -0.28949696581E+02  0.28949696957E+02  0.46700000000E-02 0.  1.
        -11    1    1    2    0    0 -0.10587863276E+02  0.19011257757E+01 -0.24527289818E+02  0.26782551671E+02  0.51100000000E-03 0.  1.
         11    1    1    2    0    0  0.10587863276E+02 -0.19011257757E+01  0.54855705601E+01  0.12075123709E+02  0.51100000000E-03 0. -1.
<mgrwt>
<rscale>  0 0.33872288E+02</rscale>
<asrwt>0</asrwt>
<pdfrwt beam="2">  1        1 0.44537996E-02 0.33872288E+02</pdfrwt>
<pdfrwt beam="1">  1       -1 0.15243043E-02 0.33872288E+02</pdfrwt>
<totfact> 0.11787943E+06</totfact>
</mgrwt>
</event>
<event>
 4    1  0.4244376E-001  0.2011681E+02  0.7818608E-02  0.1743015E+00
         -1   -1    0    0    0  501 -0.00000000000E+00  0.00000000000E+00  0.31980407487E+02  0.31980407828E+02  0.46700000000E-02 0. -1.
          1   -1    0    0  501    0  0.00000000000E+00 -0.00000000000E+00 -0.31635434735E+01  0.31635469204E+01  0.46700000000E-02 0.  1.
        -11    1    1    2    0    0  0.83787703203E+01 -0.55518641139E+01  0.15072493320E+02  0.18116485375E+02  0.51100000000E-03 0.  1.
         11    1    1    2    0    0 -0.83787703203E+01  0.55518641139E+01  0.13744370694E+02  0.17027469373E+02  0.51100000000E-03 0. -1.
<mgrwt>
<rscale>  0 0.20116807E+02</rscale>
<asrwt>0</asrwt>
<pdfrwt beam="2">  1        1 0.48669927E-03 0.20116807E+02</pdfrwt>
<pdfrwt beam="1">  1       -1 0.49200632E-02 0.20116807E+02</pdfrwt>
<totfact> 0.35855218E+06</totfact>
</mgrwt>
</event>
<event>
 4    1  0.4244376E-001  0.2148652E+02  0.7818608E-02  0.1717287E+00
         -1   -1    0    0    0  501 -0.00000000000E+00  0.00000000000E+00  0.79977077647E+01  0.79977091282E+01  0.46700000000E-02 0.  1.
          1   -1    0    0  501    0  0.00000000000E+00 -0.00000000000E+00 -0.14431335843E+02  0.14431336599E+02  0.46700000000E-02 0. -1.
        -11    1    1    2    0    0 -0.66777730607E+01 -0.75015095635E+01  0.76527542134E+00  0.10072286012E+02  0.51100000000E-03 0. -1.
         11    1    1    2    0    0  0.66777730607E+01  0.75015095635E+01 -0.71989034995E+01  0.12356759714E+02  0.51100000000E-03 0.  1.
<mgrwt>
<rscale>  0 0.21486520E+02</rscale>
<asrwt>0</asrwt>
<pdfrwt beam="2">  1        1 0.22202057E-02 0.21486520E+02</pdfrwt>
<pdfrwt beam="1">  1       -1 0.12304167E-02 0.21486520E+02</pdfrwt>
<totfact> 0.33298742E+06</totfact>
</mgrwt>
</event>
<event>
 4    1  0.4244376E-001  0.3089165E+02  0.7818608E-02  0.1588437E+00
          1   -1    0    0  501    0  0.00000000000E+00  0.00000000000E+00  0.46857361757E+02  0.46857361990E+02  0.46700000000E-02 0. -1.
         -1   -1    0    0    0  501 -0.00000000000E+00 -0.00000000000E+00 -0.50914823794E+01  0.50914845211E+01  0.46700000000E-02 0.  1.
        -11    1    1    2    0    0  0.15139018254E+02 -0.33893307081E+00  0.26002648466E+02  0.30090571228E+02  0.51100000000E-03 0.  1.
         11    1    1    2    0    0 -0.15139018254E+02  0.33893307081E+00  0.15763230911E+02  0.21858275283E+02  0.51100000000E-03 0. -1.
<mgrwt>
<rscale>  0 0.30891649E+02</rscale>
<asrwt>0</asrwt>
<pdfrwt beam="1">  1        1 0.72088251E-02 0.30891649E+02</pdfrwt>
<pdfrwt beam="2">  1       -1 0.78330516E-03 0.30891649E+02</pdfrwt>
<totfact> 0.15230722E+06</totfact>
</mgrwt>
</event>
<event>
 4    1  0.4244376E-001  0.2691773E+02  0.7818608E-02  0.1634892E+00
          1   -1    0    0  501    0  0.00000000000E+00  0.00000000000E+00  0.47029366976E+02  0.47029367208E+02  0.46700000000E-02 0. -1.
         -1   -1    0    0    0  501 -0.00000000000E+00 -0.00000000000E+00 -0.38516569114E+01  0.38516597425E+01  0.46700000000E-02 0.  1.
        -11    1    1    2    0    0 -0.12111398432E+02  0.46967447127E+01  0.28243924805E+02  0.31088014918E+02  0.51100000000E-03 0. -1.
         11    1    1    2    0    0  0.12111398432E+02 -0.46967447127E+01  0.14933785260E+02  0.19793012033E+02  0.51100000000E-03 0.  1.
<mgrwt>
<rscale>  0 0.26917731E+02</rscale>
<asrwt>0</asrwt>
<pdfrwt beam="1">  1        1 0.72352873E-02 0.26917731E+02</pdfrwt>
<pdfrwt beam="2">  1       -1 0.59256285E-03 0.26917731E+02</pdfrwt>
<totfact> 0.21089354E+06</totfact>
</mgrwt>
</event>
<event>
 4    1  0.4244376E-001  0.2027714E+02  0.7818608E-02  0.1739872E+00
         -1   -1    0    0    0  501 -0.00000000000E+00  0.00000000000E+00  0.48886376183E+02  0.48886376406E+02  0.46700000000E-02 0.  1.
          1   -1    0    0  501    0  0.00000000000E+00 -0.00000000000E+00 -0.21026399912E+01  0.21026451773E+01  0.46700000000E-02 0. -1.
        -11    1    1    2    0    0 -0.24963568111E+01  0.97550248893E+01  0.26365361467E+02  0.28222767290E+02  0.51100000000E-03 0.  1.
         11    1    1    2    0    0  0.24963568111E+01 -0.97550248893E+01  0.20418374724E+02  0.22766254294E+02  0.51100000000E-03 0. -1.
<mgrwt>
<rscale>  0 0.20277139E+02</rscale>
<asrwt>0</asrwt>
<pdfrwt beam="2">  1        1 0.32348353E-03 0.20277139E+02</pdfrwt>
<pdfrwt beam="1">  1       -1 0.75209805E-02 0.20277139E+02</pdfrwt>
<totfact> 0.33964656E+06</totfact>
</mgrwt>
</event>
<event>
 4    1  0.4244376E-001  0.2530663E+02  0.7818608E-02  0.1656636E+00
          1   -1    0    0  501    0  0.00000000000E+00  0.00000000000E+00  0.66737039521E+02  0.66737039685E+02  0.46700000000E-02 0. -1.
         -1   -1    0    0    0  501 -0.00000000000E+00 -0.00000000000E+00 -0.23990606106E+01  0.23990651559E+01  0.46700000000E-02 0.  1.
        -11    1    1    2    0    0  0.91285193683E+01  0.78259688185E+01  0.21402694137E+02  0.24548950495E+02  0.51100000000E-03 0.  1.
         11    1    1    2    0    0 -0.91285193683E+01 -0.78259688185E+01  0.42935284773E+02  0.44587154346E+02  0.51100000000E-03 0. -1.
<mgrwt>
<rscale>  0 0.25306629E+02</rscale>
<asrwt>0</asrwt>
<pdfrwt beam="1">  1        1 0.10267236E-01 0.25306629E+02</pdfrwt>
<pdfrwt beam="2">  1       -1 0.36908666E-03 0.25306629E+02</pdfrwt>
<totfact> 0.25050182E+06</totfact>
</mgrwt>
</event>
<event>
 4    1  0.4244376E-001  0.3423904E+02  0.7818608E-02  0.1555464E+00
          1   -1    0    0  501    0  0.00000000000E+00  0.00000000000E+00  0.29878284544E+02  0.29878284909E+02  0.46700000000E-02 0.  1.
         -1   -1    0    0    0  501 -0.00000000000E+00 -0.00000000000E+00 -0.98090643565E+01  0.98090654681E+01  0.46700000000E-02 0. -1.
        -11    1    1    2    0    0 -0.16885917639E+01 -0.13774021362E+02 -0.15857627349E+01  0.13967449672E+02  0.51100000000E-03 0. -1.
         11    1    1    2    0    0  0.16885917639E+01  0.13774021362E+02  0.21654982922E+02  0.25719900705E+02  0.51100000000E-03 0.  1.
<mgrwt>
<rscale>  0 0.34239045E+02</rscale>
<asrwt>0</asrwt>
<pdfrwt beam="1">  1        1 0.45966592E-02 0.34239045E+02</pdfrwt>
<pdfrwt beam="2">  1       -1 0.15090869E-02 0.34239045E+02</pdfrwt>
<totfact> 0.11506929E+06</totfact>
</mgrwt>
</event>
<event>
 4    1  0.4244376E-001  0.2660593E+02  0.7818608E-02  0.1638952E+00
         -1   -1    0    0    0  501 -0.00000000000E+00  0.00000000000E+00  0.11349654390E+02  0.11349655351E+02  0.46700000000E-02 0.  1.
          1   -1    0    0  501    0  0.00000000000E+00 -0.00000000000E+00 -0.15592439160E+02  0.15592439860E+02  0.46700000000E-02 0. -1.
        -11    1    1    2    0    0  0.28117577478E+01 -0.98716276987E+01 -0.10690811094E+02  0.14820541730E+02  0.51100000000E-03 0. -1.
         11    1    1    2    0    0 -0.28117577478E+01  0.98716276987E+01  0.64480263235E+01  0.12121553481E+02  0.51100000000E-03 0.  1.
<mgrwt>
<rscale>  0 0.26605926E+02</rscale>
<asrwt>0</asrwt>
<pdfrwt beam="2">  1        1 0.23988369E-02 0.26605926E+02</pdfrwt>
<pdfrwt beam="1">  1       -1 0.17461008E-02 0.26605926E+02</pdfrwt>
<totfact> 0.20323918E+06</totfact>
</mgrwt>
</event>
<event>
 4    1  0.4244376E-001  0.1035934E+03  0.7818608E-02  0.1272916E+00
         -1   -1    0    0    0  501 -0.00000000000E+00  0.00000000000E+00  0.23602397098E+02  0.23602397560E+02  0.46700000000E-02 0.  1.
          1   -1    0    0  501    0  0.00000000000E+00 -0.00000000000E+00 -0.11367052047E+03  0.11367052057E+03  0.46700000000E-02 0. -1.
        -11    1    1    2    0    0  0.33093103471E+02 -0.26324744100E+02 -0.84671357647E+02  0.94643459654E+02  0.51100000000E-03 0. -1.
         11    1    1    2    0    0 -0.33093103471E+02  0.26324744100E+02 -0.53967657281E+01  0.42629458475E+02  0.51100000000E-03 0.  1.
<mgrwt>
<rscale>  0 0.10359337E+03</rscale>
<asrwt>0</asrwt>
<pdfrwt beam="2">  1        1 0.17487772E-01 0.10359337E+03</pdfrwt>
<pdfrwt beam="1">  1       -1 0.36311381E-02 0.10359337E+03</pdfrwt>
<totfact> 0.75229456E+04</totfact>
</mgrwt>
</event>
<event>
 4    1  0.4244376E-001  0.1192074E+03  0.7818608E-02  0.1244410E+00
          1   -1    0    0  501    0  0.00000000000E+00  0.00000000000E+00  0.67949986693E+02  0.67949986854E+02  0.46700000000E-02 0. -1.
         -1   -1    0    0    0  501 -0.00000000000E+00 -0.00000000000E+00 -0.52282583599E+02  0.52282583808E+02  0.46700000000E-02 0.  1.
        -11    1    1    2    0    0 -0.31956273534E+02  0.47769370374E+02 -0.80972200879E+01  0.58040340605E+02  0.51100000000E-03 0.  1.
         11    1    1    2    0    0  0.31956273534E+02 -0.47769370374E+02  0.23764623182E+02  0.62192230056E+02  0.51100000000E-03 0. -1.
<mgrwt>
<rscale>  0 0.11920740E+03</rscale>
<asrwt>0</asrwt>
<pdfrwt beam="1">  1        1 0.10453844E-01 0.11920740E+03</pdfrwt>
<pdfrwt beam="2">  1       -1 0.80434744E-02 0.11920740E+03</pdfrwt>
<totfact> 0.46128473E+04</totfact>
</mgrwt>
</event>
<event>
 4    1  0.4244376E-001  0.2166897E+02  0.7818608E-02  0.1714041E+00
          1   -1    0    0  501    0  0.00000000000E+00  0.00000000000E+00  0.10614618699E+03  0.10614618709E+03  0.46700000000E-02 0.  1.
         -1   -1    0    0    0  501 -0.00000000000E+00 -0.00000000000E+00 -0.11058857427E+01  0.11058956030E+01  0.46700000000E-02 0. -1.
        -11    1    1    2    0    0 -0.10797554076E+02 -0.66979282314E-01  0.48108563519E+02  0.49305431186E+02  0.51100000000E-03 0.  1.
         11    1    1    2    0    0  0.10797554076E+02  0.66979282314E-01  0.56931737725E+02  0.57946651507E+02  0.51100000000E-03 0. -1.
<mgrwt>
<rscale>  0 0.21668972E+02</rscale>
<asrwt>0</asrwt>
<pdfrwt beam="1">  1        1 0.16330180E-01 0.21668972E+02</pdfrwt>
<pdfrwt beam="2">  1       -1 0.17013707E-03 0.21668972E+02</pdfrwt>
<totfact> 0.37375648E+06</totfact>
</mgrwt>
</event>
<event>
 4    1  0.4244376E-001  0.6458381E+02  0.7818608E-02  0.1379544E+00
         -1   -1    0    0    0  501 -0.00000000000E+00  0.00000000000E+00  0.15422821256E+03  0.15422821264E+03  0.46700000000E-02 0.  1.
          1   -1    0    0  501    0  0.00000000000E+00 -0.00000000000E+00 -0.67611947424E+01  0.67611963552E+01  0.46700000000E-02 0. -1.
        -11    1    1    2    0    0 -0.25610175133E+02  0.57845608350E+01  0.26871357888E+02  0.37568764811E+02  0.51100000000E-03 0. -1.
         11    1    1    2    0    0  0.25610175133E+02 -0.57845608350E+01  0.12059565993E+03  0.12342064418E+03  0.51100000000E-03 0.  1.
<mgrwt>
<rscale>  0 0.64583810E+02</rscale>
<asrwt>0</asrwt>
<pdfrwt beam="2">  1        1 0.10401840E-02 0.64583810E+02</pdfrwt>
<pdfrwt beam="1">  1       -1 0.23727415E-01 0.64583810E+02</pdfrwt>
<totfact> 0.18011764E+05</totfact>
</mgrwt>
</event>
<event>
 4    1  0.4244376E-001  0.2878536E+02  0.7818608E-02  0.1611916E+00
         -1   -1    0    0    0  501 -0.00000000000E+00  0.00000000000E+00  0.11627193968E+03  0.11627193977E+03  0.46700000000E-02 0.  1.
          1   -1    0    0  501    0  0.00000000000E+00 -0.00000000000E+00 -0.17815898839E+01  0.17815960045E+01  0.46700000000E-02 0. -1.
        -11    1    1    2    0    0 -0.10416665368E+02  0.95053850776E+01  0.69053408996E+02  0.70478596447E+02  0.51100000000E-03 0.  1.
         11    1    1    2    0    0  0.10416665368E+02 -0.95053850776E+01  0.45436940801E+02  0.47574939332E+02  0.51100000000E-03 0. -1.
<mgrwt>
<rscale>  0 0.28785363E+02</rscale>
<asrwt>0</asrwt>
<pdfrwt beam="2">  1        1 0.27409114E-03 0.28785363E+02</pdfrwt>
<pdfrwt beam="1">  1       -1 0.17887997E-01 0.28785363E+02</pdfrwt>
<totfact> 0.13647631E+06</totfact>
</mgrwt>
</event>
<event>
 4    1  0.4244376E-001  0.2322065E+02  0.7818608E-02  0.1687958E+00
         -1   -1    0    0    0  501 -0.00000000000E+00  0.00000000000E+00  0.21696389112E+02  0.21696389614E+02  0.46700000000E-02 0.  1.
          1   -1    0    0  501    0  0.00000000000E+00 -0.00000000000E+00 -0.62129986468E+01  0.62130004019E+01  0.46700000000E-02 0. -1.
        -11    1    1    2    0    0 -0.13239639223E+00  0.11604274419E+02  0.81631461258E+01  0.14188504803E+02  0.51100000000E-03 0.  1.
         11    1    1    2    0    0  0.13239639223E+00 -0.11604274419E+02  0.73202443393E+01  0.13720885214E+02  0.51100000000E-03 0. -1.
<mgrwt>
<rscale>  0 0.23220652E+02</rscale>
<asrwt>0</asrwt>
<pdfrwt beam="2">  1        1 0.95584611E-03 0.23220652E+02</pdfrwt>
<pdfrwt beam="1">  1       -1 0.33379062E-02 0.23220652E+02</pdfrwt>
<totfact> 0.26718613E+06</totfact>
</mgrwt>
</event>
<event>
 4    1  0.4244376E-001  0.4467328E+02  0.7818608E-02  0.1476392E+00
          1   -1    0    0  501    0  0.00000000000E+00  0.00000000000E+00  0.74325315429E+02  0.74325315575E+02  0.46700000000E-02 0.  1.
         -1   -1    0    0    0  501 -0.00000000000E+00 -0.00000000000E+00 -0.67127263656E+01  0.67127279900E+01  0.46700000000E-02 0. -1.
        -11    1    1    2    0    0 -0.77499470795E+01 -0.20638339721E+02  0.40327379827E+02  0.45959768387E+02  0.51100000000E-03 0.  1.
         11    1    1    2    0    0  0.77499470795E+01  0.20638339721E+02  0.27285209236E+02  0.35078275178E+02  0.51100000000E-03 0. -1.
<mgrwt>
<rscale>  0 0.44673284E+02</rscale>
<asrwt>0</asrwt>
<pdfrwt beam="1">  1        1 0.11434665E-01 0.44673284E+02</pdfrwt>
<pdfrwt beam="2">  1       -1 0.10327272E-02 0.44673284E+02</pdfrwt>
<totfact> 0.64599097E+05</totfact>
</mgrwt>
</event>
<event>
 4    1  0.4244376E-001  0.3118843E+02  0.7818608E-02  0.1585312E+00
          1   -1    0    0  501    0  0.00000000000E+00  0.00000000000E+00  0.61029761121E+01  0.61029778988E+01  0.46700000000E-02 0. -1.
         -1   -1    0    0    0  501 -0.00000000000E+00 -0.00000000000E+00 -0.39846058260E+02  0.39846058533E+02  0.46700000000E-02 0.  1.
        -11    1    1    2    0    0 -0.74550977355E+01 -0.10882092153E+02 -0.46175707079E+01  0.13975706472E+02  0.51100000000E-03 0. -1.
         11    1    1    2    0    0  0.74550977355E+01  0.10882092153E+02 -0.29125511440E+02  0.31973329960E+02  0.51100000000E-03 0.  1.
<mgrwt>
<rscale>  0 0.31188433E+02</rscale>
<asrwt>0</asrwt>
<pdfrwt beam="1">  1        1 0.93891958E-03 0.31188433E+02</pdfrwt>
<pdfrwt beam="2">  1       -1 0.61301628E-02 0.31188433E+02</pdfrwt>
<totfact> 0.12988407E+06</totfact>
</mgrwt>
</event>
<event>
 4    1  0.4244376E-001  0.3734868E+02  0.7818608E-02  0.1528681E+00
          1   -1    0    0  501    0  0.00000000000E+00  0.00000000000E+00  0.15509837454E+03  0.15509837461E+03  0.46700000000E-02 0. -1.
         -1   -1    0    0    0  501 -0.00000000000E+00 -0.00000000000E+00 -0.22484477185E+01  0.22484525682E+01  0.46700000000E-02 0.  1.
        -11    1    1    2    0    0 -0.13870094012E+02  0.12173460202E+02  0.88458226734E+02  0.90362771750E+02  0.51100000000E-03 0. -1.
         11    1    1    2    0    0  0.13870094012E+02 -0.12173460202E+02  0.64391700083E+02  0.66984055424E+02  0.51100000000E-03 0.  1.
<mgrwt>
<rscale>  0 0.37348680E+02</rscale>
<asrwt>0</asrwt>
<pdfrwt beam="1">  1        1 0.23861294E-01 0.37348680E+02</pdfrwt>
<pdfrwt beam="2">  1       -1 0.34591534E-03 0.37348680E+02</pdfrwt>
<totfact> 0.11058599E+06</totfact>
</mgrwt>
</event>
<event>
 4    1  0.4244376E-001  0.3846661E+02  0.7818608E-02  0.1519809E+00
          1   -1    0    0  501    0  0.00000000000E+00  0.00000000000E+00  0.65439027562E+02  0.65439027729E+02  0.46700000000E-02 0.  1.
         -1   -1    0    0    0  501 -0.00000000000E+00 -0.00000000000E+00 -0.56528941622E+01  0.56528960912E+01  0.46700000000E-02 0. -1.
        -11    1    1    2    0    0 -0.34566747279E+00  0.15547141408E+02  0.89765816811E+01  0.17955837794E+02  0.51100000000E-03 0.  1.
         11    1    1    2    0    0  0.34566747279E+00 -0.15547141408E+02  0.50809551719E+02  0.53136086025E+02  0.51100000000E-03 0. -1.
<mgrwt>
<rscale>  0 0.38466607E+02</rscale>
<asrwt>0</asrwt>
<pdfrwt beam="1">  1        1 0.10067543E-01 0.38466607E+02</pdfrwt>
<pdfrwt beam="2">  1       -1 0.86967621E-03 0.38466607E+02</pdfrwt>
<totfact> 0.92285964E+05</totfact>
</mgrwt>
</event>
<event>
 4    1  0.4244376E-001  0.3775401E+02  0.7818608E-02  0.1525421E+00
         -1   -1    0    0    0  501 -0.00000000000E+00  0.00000000000E+00  0.27627210928E+02  0.27627211322E+02  0.46700000000E-02 0. -1.
          1   -1    0    0  501    0  0.00000000000E+00 -0.00000000000E+00 -0.12898200606E+02  0.12898201452E+02  0.46700000000E-02 0.  1.
        -11    1    1    2    0    0 -0.15343659429E+02  0.87304537622E+01  0.18850751600E+00  0.17654581358E+02  0.51100000000E-03 0. -1.
         11    1    1    2    0    0  0.15343659429E+02 -0.87304537622E+01  0.14540502805E+02  0.22870831416E+02  0.51100000000E-03 0.  1.
<mgrwt>
<rscale>  0 0.37754011E+02</rscale>
<asrwt>0</asrwt>
<pdfrwt beam="2">  1        1 0.19843387E-02 0.37754011E+02</pdfrwt>
<pdfrwt beam="1">  1       -1 0.42503402E-02 0.37754011E+02</pdfrwt>
<totfact> 0.85215113E+05</totfact>
</mgrwt>
</event>
<event>
 4    1  0.4244376E-001  0.2701782E+02  0.7818608E-02  0.1633604E+00
         -1   -1    0    0    0  501 -0.00000000000E+00  0.00000000000E+00  0.26702322134E+01  0.26702362971E+01  0.46700000000E-02 0.  1.
          1   -1    0    0  501    0  0.00000000000E+00 -0.00000000000E+00 -0.68342568071E+02  0.68342568230E+02  0.46700000000E-02 0. -1.
        -11    1    1    2    0    0 -0.11722377631E+02  0.79879848113E+00 -0.15314887860E+02  0.19302797900E+02  0.51100000000E-03 0. -1.
         11    1    1    2    0    0  0.11722377631E+02 -0.79879848113E+00 -0.50357447998E+02  0.51710006628E+02  0.51100000000E-03 0.  1.
<mgrwt>
<rscale>  0 0.27017822E+02</rscale>
<asrwt>0</asrwt>
<pdfrwt beam="2">  1        1 0.10514240E-01 0.27017822E+02</pdfrwt>
<pdfrwt beam="1">  1       -1 0.41080533E-03 0.27017822E+02</pdfrwt>
<totfact> 0.21571745E+06</totfact>
</mgrwt>
</event>
<event>
 4    1  0.4244376E-001  0.7224644E+02  0.7818608E-02  0.1352616E+00
         -1   -1    0    0    0  501 -0.00000000000E+00  0.00000000000E+00  0.16607584658E+03  0.16607584664E+03  0.46700000000E-02 0.  1.
          1   -1    0    0  501    0  0.00000000000E+00 -0.00000000000E+00 -0.78571748095E+01  0.78571761973E+01  0.46700000000E-02 0. -1.
        -11    1    1    2    0    0  0.22536793596E+02 -0.16919908362E+02  0.24703295820E+02  0.37475901446E+02  0.51100000000E-03 0. -1.
         11    1    1    2    0    0 -0.22536793596E+02  0.16919908362E+02  0.13351537595E+03  0.13645712139E+03  0.51100000000E-03 0.  1.
<mgrwt>
<rscale>  0 0.72246442E+02</rscale>
<asrwt>0</asrwt>
<pdfrwt beam="2">  1        1 0.12087963E-02 0.72246442E+02</pdfrwt>
<pdfrwt beam="1">  1       -1 0.25550129E-01 0.72246442E+02</pdfrwt>
<totfact> 0.13301067E+05</totfact>
</mgrwt>
</event>
<event>
 4    1  0.4244376E-001  0.5894596E+02  0.7818608E-02  0.1402309E+00
         -1   -1    0    0    0  501 -0.00000000000E+00  0.00000000000E+00  0.56471944140E+02  0.56471944333E+02  0.46700000000E-02 0.  1.
          1   -1    0    0  501    0  0.00000000000E+00 -0.00000000000E+00 -0.15382092233E+02  0.15382092942E+02  0.46700000000E-02 0. -1.
        -11    1    1    2    0    0 -0.14302921548E+02 -0.24028762052E+02  0.91945318870E+01  0.29436276726E+02  0.51100000000E-03 0. -1.
         11    1    1    2    0    0  0.14302921548E+02  0.24028762052E+02  0.31895320020E+02  0.42417760549E+02  0.51100000000E-03 0.  1.
<mgrwt>
<rscale>  0 0.58945965E+02</rscale>
<asrwt>0</asrwt>
<pdfrwt beam="2">  1        1 0.23664758E-02 0.58945965E+02</pdfrwt>
<pdfrwt beam="1">  1       -1 0.86879916E-02 0.58945965E+02</pdfrwt>
<totfact> 0.26811935E+05</totfact>
</mgrwt>
</event>
<event>
 4    1  0.4244376E-001  0.2521038E+02  0.7818608E-02  0.1657998E+00
         -1   -1    0    0    0  501 -0.00000000000E+00  0.00000000000E+00  0.74436050752E+01  0.74436065401E+01  0.46700000000E-02 0. -1.
          1   -1    0    0  501    0  0.00000000000E+00 -0.00000000000E+00 -0.21345952979E+02  0.21345953490E+02  0.46700000000E-02 0.  1.
        -11    1    1    2    0    0  0.78136627787E+01  0.87247293290E+01 -0.16294552364E+01  0.11824946195E+02  0.51100000000E-03 0. -1.
         11    1    1    2    0    0 -0.78136627787E+01 -0.87247293290E+01 -0.12272892667E+02  0.16964613835E+02  0.51100000000E-03 0.  1.
<mgrwt>
<rscale>  0 0.25210385E+02</rscale>
<asrwt>0</asrwt>
<pdfrwt beam="2">  1        1 0.32839929E-02 0.25210385E+02</pdfrwt>
<pdfrwt beam="1">  1       -1 0.11451702E-02 0.25210385E+02</pdfrwt>
<totfact> 0.23435596E+06</totfact>
</mgrwt>
</event>
<event>
 4    1  0.4244376E-001  0.4108709E+02  0.7818608E-02  0.1500361E+00
         -1   -1    0    0    0  501 -0.00000000000E+00  0.00000000000E+00  0.19872718719E+01  0.19872773590E+01  0.46700000000E-02 0. -1.
          1   -1    0    0  501    0  0.00000000000E+00 -0.00000000000E+00 -0.21236990400E+03  0.21236990405E+03  0.46700000000E-02 0.  1.
        -11    1    1    2    0    0  0.90289355815E+01  0.18328524145E+02 -0.11635752831E+03  0.11813776225E+03  0.51100000000E-03 0. -1.
         11    1    1    2    0    0 -0.90289355815E+01 -0.18328524145E+02 -0.94025103813E+02  0.96219419154E+02  0.51100000000E-03 0.  1.
<mgrwt>
<rscale>  0 0.41087094E+02</rscale>
<asrwt>0</asrwt>
<pdfrwt beam="2">  1        1 0.32672275E-01 0.41087094E+02</pdfrwt>
<pdfrwt beam="1">  1       -1 0.30573473E-03 0.41087094E+02</pdfrwt>
<totfact> 0.92280534E+05</totfact>
</mgrwt>
</event>
<event>
 4    1  0.4244376E-001  0.2106859E+02  0.7818608E-02  0.1724876E+00
         -1   -1    0    0    0  501 -0.00000000000E+00  0.00000000000E+00  0.16740294476E+01  0.16740359615E+01  0.46700000000E-02 0.  1.
          1   -1    0    0  501    0  0.00000000000E+00 -0.00000000000E+00 -0.66289841012E+02  0.66289841176E+02  0.46700000000E-02 0. -1.
        -11    1    1    2    0    0  0.68109091177E+01  0.74142021481E+01 -0.42309304920E+02  0.43490644507E+02  0.51100000000E-03 0. -1.
         11    1    1    2    0    0 -0.68109091177E+01 -0.74142021481E+01 -0.22306506644E+02  0.24473232631E+02  0.51100000000E-03 0.  1.
<mgrwt>
<rscale>  0 0.21068590E+02</rscale>
<asrwt>0</asrwt>
<pdfrwt beam="2">  1        1 0.10198436E-01 0.21068590E+02</pdfrwt>
<pdfrwt beam="1">  1       -1 0.25754356E-03 0.21068590E+02</pdfrwt>
<totfact> 0.37966528E+06</totfact>
</mgrwt>
</event>
<event>
 4    1  0.4244376E-001  0.4116686E+02  0.7818608E-02  0.1499796E+00
         -1   -1    0    0    0  501 -0.00000000000E+00  0.00000000000E+00  0.20121944960E+02  0.20121945502E+02  0.46700000000E-02 0. -1.
          1   -1    0    0  501    0  0.00000000000E+00 -0.00000000000E+00 -0.21055497704E+02  0.21055498221E+02  0.46700000000E-02 0.  1.
        -11    1    1    2    0    0 -0.21817487094E+01  0.10365081491E+02  0.17186632041E+02  0.20188493330E+02  0.51100000000E-03 0. -1.
         11    1    1    2    0    0  0.21817487094E+01 -0.10365081491E+02 -0.18120184785E+02  0.20988950394E+02  0.51100000000E-03 0.  1.
<mgrwt>
<rscale>  0 0.41166860E+02</rscale>
<asrwt>0</asrwt>
<pdfrwt beam="2">  1        1 0.32393074E-02 0.41166860E+02</pdfrwt>
<pdfrwt beam="1">  1       -1 0.30956839E-02 0.41166860E+02</pdfrwt>
<totfact> 0.71030019E+05</totfact>
</mgrwt>
</event>
<event>
 4    1  0.4244376E-001  0.3110764E+02  0.7818608E-02  0.1586158E+00
          1   -1    0    0  501    0  0.00000000000E+00  0.00000000000E+00  0.76180407113E+01  0.76180421427E+01  0.46700000000E-02 0. -1.
         -1   -1    0    0    0  501 -0.00000000000E+00 -0.00000000000E+00 -0.31756372390E+02  0.31756372733E+02  0.46700000000E-02 0.  1.
        -11    1    1    2    0    0 -0.77015228427E+01  0.99057579852E+01 -0.43503573415E+00  0.12554949291E+02  0.51100000000E-03 0. -1.
         11    1    1    2    0    0  0.77015228427E+01 -0.99057579852E+01 -0.23703295944E+02  0.26819465585E+02  0.51100000000E-03 0.  1.
<mgrwt>
<rscale>  0 0.31107644E+02</rscale>
<asrwt>0</asrwt>
<pdfrwt beam="1">  1        1 0.11720064E-02 0.31107644E+02</pdfrwt>
<pdfrwt beam="2">  1       -1 0.48855958E-02 0.31107644E+02</pdfrwt>
<totfact> 0.13314657E+06</totfact>
</mgrwt>
</event>
<event>
 4    1  0.4244376E-001  0.2137943E+02  0.7818608E-02  0.1719211E+00
         -1   -1    0    0    0  501 -0.00000000000E+00  0.00000000000E+00  0.36150618002E+01  0.36150648166E+01  0.46700000000E-02 0.  1.
          1   -1    0    0  501    0  0.00000000000E+00 -0.00000000000E+00 -0.31609413415E+02  0.31609413760E+02  0.46700000000E-02 0. -1.
        -11    1    1    2    0    0 -0.86979578391E+01 -0.61526642620E+01 -0.15433786554E+02  0.18753973332E+02  0.51100000000E-03 0. -1.
         11    1    1    2    0    0  0.86979578391E+01  0.61526642620E+01 -0.12560565060E+02  0.16470505244E+02  0.51100000000E-03 0.  1.
<mgrwt>
<rscale>  0 0.21379433E+02</rscale>
<asrwt>0</asrwt>
<pdfrwt beam="2">  1        1 0.48629868E-02 0.21379433E+02</pdfrwt>
<pdfrwt beam="1">  1       -1 0.55616363E-03 0.21379433E+02</pdfrwt>
<totfact> 0.34918234E+06</totfact>
</mgrwt>
</event>
<event>
 4    1  0.4244376E-001  0.3838257E+02  0.7818608E-02  0.1520463E+00
         -1   -1    0    0    0  501 -0.00000000000E+00  0.00000000000E+00  0.32762106320E+02  0.32762106652E+02  0.46700000000E-02 0. -1.
          1   -1    0    0  501    0  0.00000000000E+00 -0.00000000000E+00 -0.11241809213E+02  0.11241810183E+02  0.46700000000E-02 0.  1.
        -11    1    1    2    0    0  0.13054850118E+02  0.61040161783E+01 -0.37694429821E+01  0.14896201723E+02  0.51100000000E-03 0.  1.
         11    1    1    2    0    0 -0.13054850118E+02 -0.61040161783E+01  0.25289740088E+02  0.29107715113E+02  0.51100000000E-03 0. -1.
<mgrwt>
<rscale>  0 0.38382568E+02</rscale>
<asrwt>0</asrwt>
<pdfrwt beam="2">  1        1 0.17295093E-02 0.38382568E+02</pdfrwt>
<pdfrwt beam="1">  1       -1 0.50403240E-02 0.38382568E+02</pdfrwt>
<totfact> 0.80806555E+05</totfact>
</mgrwt>
</event>
<event>
 4    1  0.4244376E-001  0.3387593E+02  0.7818608E-02  0.1558815E+00
          1   -1    0    0  501    0  0.00000000000E+00  0.00000000000E+00  0.17222957749E+02  0.17222958382E+02  0.46700000000E-02 0. -1.
         -1   -1    0    0    0  501 -0.00000000000E+00 -0.00000000000E+00 -0.16657685306E+02  0.16657685961E+02  0.46700000000E-02 0.  1.
        -11    1    1    2    0    0 -0.14601372292E+02 -0.85484006623E+01 -0.50449626859E+00  0.16927189472E+02  0.51100000000E-03 0.  1.
         11    1    1    2    0    0  0.14601372292E+02  0.85484006623E+01  0.10697687110E+01  0.16953454870E+02  0.51100000000E-03 0. -1.
<mgrwt>
<rscale>  0 0.33875928E+02</rscale>
<asrwt>0</asrwt>
<pdfrwt beam="1">  1        1 0.26496859E-02 0.33875928E+02</pdfrwt>
<pdfrwt beam="2">  1       -1 0.25627209E-02 0.33875928E+02</pdfrwt>
<totfact> 0.11400301E+06</totfact>
</mgrwt>
</event>
<event>
 4    1  0.4244376E-001  0.2750243E+02  0.7818608E-02  0.1627459E+00
          1   -1    0    0  501    0  0.00000000000E+00  0.00000000000E+00  0.11034346123E+03  0.11034346133E+03  0.46700000000E-02 0. -1.
         -1   -1    0    0    0  501 -0.00000000000E+00 -0.00000000000E+00 -0.17136992186E+01  0.17137055817E+01  0.46700000000E-02 0.  1.
        -11    1    1    2    0    0 -0.55692113525E+01 -0.12558302572E+02  0.51840559464E+02  0.53629942051E+02  0.51100000000E-03 0. -1.
         11    1    1    2    0    0  0.55692113525E+01  0.12558302572E+02  0.56789202550E+02  0.58427224863E+02  0.51100000000E-03 0.  1.
<mgrwt>
<rscale>  0 0.27502426E+02</rscale>
<asrwt>0</asrwt>
<pdfrwt beam="1">  1        1 0.16975913E-01 0.27502426E+02</pdfrwt>
<pdfrwt beam="2">  1       -1 0.26364660E-03 0.27502426E+02</pdfrwt>
<totfact> 0.21802050E+06</totfact>
</mgrwt>
</event>
<event>
 4    1  0.4244376E-001  0.2496542E+02  0.7818608E-02  0.1661499E+00
          1   -1    0    0  501    0  0.00000000000E+00  0.00000000000E+00  0.30707378646E+01  0.30707414157E+01  0.46700000000E-02 0. -1.
         -1   -1    0    0    0  501 -0.00000000000E+00 -0.00000000000E+00 -0.50742846682E+02  0.50742846897E+02  0.46700000000E-02 0.  1.
        -11    1    1    2    0    0 -0.10895999728E+02 -0.60682499142E+01 -0.22712666821E+02  0.25911613255E+02  0.51100000000E-03 0. -1.
         11    1    1    2    0    0  0.10895999728E+02  0.60682499142E+01 -0.24959441996E+02  0.27901975058E+02  0.51100000000E-03 0.  1.
<mgrwt>
<rscale>  0 0.24965423E+02</rscale>
<asrwt>0</asrwt>
<pdfrwt beam="1">  1        1 0.47242154E-03 0.24965423E+02</pdfrwt>
<pdfrwt beam="2">  1       -1 0.78065914E-02 0.24965423E+02</pdfrwt>
<totfact> 0.21229812E+06</totfact>
</mgrwt>
</event>
<event>
 4    1  0.4244376E-001  0.3839480E+02  0.7818608E-02  0.1520368E+00
         -1   -1    0    0    0  501 -0.00000000000E+00  0.00000000000E+00  0.20853037103E+01  0.20853089395E+01  0.46700000000E-02 0.  1.
          1   -1    0    0  501    0  0.00000000000E+00 -0.00000000000E+00 -0.17673185787E+03  0.17673185793E+03  0.46700000000E-02 0. -1.
        -11    1    1    2    0    0 -0.17574763322E+02 -0.76416040136E+01 -0.92579364589E+02  0.94542081454E+02  0.51100000000E-03 0.  1.
         11    1    1    2    0    0  0.17574763322E+02  0.76416040136E+01 -0.82067189570E+02  0.84275085416E+02  0.51100000000E-03 0. -1.
<mgrwt>
<rscale>  0 0.38394795E+02</rscale>
<asrwt>0</asrwt>
<pdfrwt beam="2">  1        1 0.27189505E-01 0.38394795E+02</pdfrwt>
<pdfrwt beam="1">  1       -1 0.32081650E-03 0.38394795E+02</pdfrwt>
<totfact> 0.10556205E+06</totfact>
</mgrwt>
</event>
<event>
 4    1  0.4244376E-001  0.2117006E+02  0.7818608E-02  0.1723014E+00
         -1   -1    0    0    0  501 -0.00000000000E+00  0.00000000000E+00  0.67155976161E+02  0.67155976323E+02  0.46700000000E-02 0.  1.
          1   -1    0    0  501    0  0.00000000000E+00 -0.00000000000E+00 -0.16683946954E+01  0.16684012313E+01  0.46700000000E-02 0. -1.
        -11    1    1    2    0    0 -0.67692986100E+01  0.77651731002E+01  0.40654933080E+02  0.41939777073E+02  0.51100000000E-03 0.  1.
         11    1    1    2    0    0  0.67692986100E+01 -0.77651731002E+01  0.24832648386E+02  0.26884600482E+02  0.51100000000E-03 0. -1.
<mgrwt>
<rscale>  0 0.21170064E+02</rscale>
<asrwt>0</asrwt>
<pdfrwt beam="2">  1        1 0.25667665E-03 0.21170064E+02</pdfrwt>
<pdfrwt beam="1">  1       -1 0.10331688E-01 0.21170064E+02</pdfrwt>
<totfact> 0.29795303E+06</totfact>
</mgrwt>
</event>
<event>
 4    1  0.4244376E-001  0.2074564E+02  0.7818608E-02  0.1730894E+00
          1   -1    0    0  501    0  0.00000000000E+00  0.00000000000E+00  0.13950441107E+01  0.13950519272E+01  0.46700000000E-02 0.  1.
         -1   -1    0    0    0  501 -0.00000000000E+00 -0.00000000000E+00 -0.77126667273E+02  0.77126667415E+02  0.46700000000E-02 0. -1.
        -11    1    1    2    0    0 -0.71545328588E+01 -0.72360767802E+01 -0.30251267974E+02  0.31916882083E+02  0.51100000000E-03 0.  1.
         11    1    1    2    0    0  0.71545328588E+01  0.72360767802E+01 -0.45480355189E+02  0.46604837259E+02  0.51100000000E-03 0. -1.
<mgrwt>
<rscale>  0 0.20745642E+02</rscale>
<asrwt>0</asrwt>
<pdfrwt beam="1">  1        1 0.21462284E-03 0.20745642E+02</pdfrwt>
<pdfrwt beam="2">  1       -1 0.11865638E-01 0.20745642E+02</pdfrwt>
<totfact> 0.30597182E+06</totfact>
</mgrwt>
</event>
<event>
 4    1  0.4244376E-001  0.2685386E+02  0.7818608E-02  0.1635718E+00
          1   -1    0    0  501    0  0.00000000000E+00  0.00000000000E+00  0.94279884739E+01  0.94279896305E+01  0.46700000000E-02 0. -1.
         -1   -1    0    0    0  501 -0.00000000000E+00 -0.00000000000E+00 -0.19122049456E+02  0.19122050026E+02  0.46700000000E-02 0.  1.
        -11    1    1    2    0    0  0.12959002328E+02  0.24187780081E+01 -0.75567951782E+01  0.15195110464E+02  0.51100000000E-03 0.  1.
         11    1    1    2    0    0 -0.12959002328E+02 -0.24187780081E+01 -0.21372658041E+01  0.13354929193E+02  0.51100000000E-03 0. -1.
<mgrwt>
<rscale>  0 0.26853863E+02</rscale>
<asrwt>0</asrwt>
<pdfrwt beam="1">  1        1 0.14504599E-02 0.26853863E+02</pdfrwt>
<pdfrwt beam="2">  1       -1 0.29418539E-02 0.26853863E+02</pdfrwt>
<totfact> 0.19353645E+06</totfact>
</mgrwt>
</event>
<event>
 4    1  0.4244376E-001  0.2547507E+02  0.7818608E-02  0.1654271E+00
          1   -1    0    0  501    0  0.00000000000E+00  0.00000000000E+00  0.24672756727E+02  0.24672757169E+02  0.46700000000E-02 0. -1.
         -1   -1    0    0    0  501 -0.00000000000E+00 -0.00000000000E+00 -0.65758654261E+01  0.65758670844E+01  0.46700000000E-02 0.  1.
        -11    1    1    2    0    0 -0.81628901549E+01  0.95569746337E+01  0.65118828521E+01  0.14155322616E+02  0.51100000000E-03 0. -1.
         11    1    1    2    0    0  0.81628901549E+01 -0.95569746337E+01  0.11585008448E+02  0.17093301637E+02  0.51100000000E-03 0.  1.
<mgrwt>
<rscale>  0 0.25475067E+02</rscale>
<asrwt>0</asrwt>
<pdfrwt beam="1">  1        1 0.37958089E-02 0.25475067E+02</pdfrwt>
<pdfrwt beam="2">  1       -1 0.10116718E-02 0.25475067E+02</pdfrwt>
<totfact> 0.23041467E+06</totfact>
</mgrwt>
</event>
<event>
 4    1  0.4244376E-001  0.2459795E+02  0.7818608E-02  0.1666845E+00
         -1   -1    0    0    0  501 -0.00000000000E+00  0.00000000000E+00  0.50806667263E+01  0.50806688725E+01  0.46700000000E-02 0. -1.
          1   -1    0    0  501    0  0.00000000000E+00 -0.00000000000E+00 -0.29772626254E+02  0.29772626620E+02  0.46700000000E-02 0.  1.
        -11    1    1    2    0    0  0.50799518445E+00 -0.10091846174E+02 -0.24112271246E+01  0.10388331667E+02  0.51100000000E-03 0. -1.
         11    1    1    2    0    0 -0.50799518445E+00  0.10091846174E+02 -0.22280732403E+02  0.24464963826E+02  0.51100000000E-03 0.  1.
<mgrwt>
<rscale>  0 0.24597954E+02</rscale>
<asrwt>0</asrwt>
<pdfrwt beam="2">  1        1 0.45804041E-02 0.24597954E+02</pdfrwt>
<pdfrwt beam="1">  1       -1 0.78164125E-03 0.24597954E+02</pdfrwt>
<totfact> 0.25254292E+06</totfact>
</mgrwt>
</event>
<event>
 4    1  0.4244376E-001  0.2990326E+02  0.7818608E-02  0.1599160E+00
         -1   -1    0    0    0  501 -0.00000000000E+00  0.00000000000E+00  0.40224923641E+02  0.40224923912E+02  0.46700000000E-02 0. -1.
          1   -1    0    0  501    0  0.00000000000E+00 -0.00000000000E+00 -0.55575284300E+01  0.55575303921E+01  0.46700000000E-02 0.  1.
        -11    1    1    2    0    0 -0.11130260953E+02  0.91897609637E+01  0.23306004530E+02  0.27413578075E+02  0.51100000000E-03 0. -1.
         11    1    1    2    0    0  0.11130260953E+02 -0.91897609637E+01  0.11361390681E+02  0.18368876229E+02  0.51100000000E-03 0.  1.
<mgrwt>
<rscale>  0 0.29903258E+02</rscale>
<asrwt>0</asrwt>
<pdfrwt beam="2">  1        1 0.85500453E-03 0.29903258E+02</pdfrwt>
<pdfrwt beam="1">  1       -1 0.61884500E-02 0.29903258E+02</pdfrwt>
<totfact> 0.14319146E+06</totfact>
</mgrwt>
</event>
<event>
 4    1  0.4244376E-001  0.3567943E+02  0.7818608E-02  0.1542649E+00
         -1   -1    0    0    0  501 -0.00000000000E+00  0.00000000000E+00  0.20746273916E+02  0.20746274442E+02  0.46700000000E-02 0. -1.
          1   -1    0    0  501    0  0.00000000000E+00 -0.00000000000E+00 -0.15340363795E+02  0.15340364506E+02  0.46700000000E-02 0.  1.
        -11    1    1    2    0    0  0.98200891076E+01 -0.14141878746E+02  0.74283787393E+01  0.18751205175E+02  0.51100000000E-03 0. -1.
         11    1    1    2    0    0 -0.98200891076E+01  0.14141878746E+02 -0.20224686185E+01  0.17335433774E+02  0.51100000000E-03 0.  1.
<mgrwt>
<rscale>  0 0.35679429E+02</rscale>
<asrwt>0</asrwt>
<pdfrwt beam="2">  1        1 0.23600561E-02 0.35679429E+02</pdfrwt>
<pdfrwt beam="1">  1       -1 0.31917345E-02 0.35679429E+02</pdfrwt>
<totfact> 0.99491349E+05</totfact>
</mgrwt>
</event>
<event>
 4    1  0.4244376E-001  0.4352963E+02  0.7818608E-02  0.1483735E+00
          1   -1    0    0  501    0  0.00000000000E+00  0.00000000000E+00  0.46261853626E+01  0.46261877197E+01  0.46700000000E-02 0. -1.
         -1   -1    0    0    0  501 -0.00000000000E+00 -0.00000000000E+00 -0.10239691434E+03  0.10239691444E+03  0.46700000000E-02 0.  1.
        -11    1    1    2    0    0 -0.17761352966E+02  0.11187801143E+02 -0.34745658385E+02  0.40594252431E+02  0.51100000000E-03 0. -1.
         11    1    1    2    0    0  0.17761352966E+02 -0.11187801143E+02 -0.63025070588E+02  0.66428849730E+02  0.51100000000E-03 0.  1.
<mgrwt>
<rscale>  0 0.43529633E+02</rscale>
<asrwt>0</asrwt>
<pdfrwt beam="1">  1        1 0.71172109E-03 0.43529633E+02</pdfrwt>
<pdfrwt beam="2">  1       -1 0.15753370E-01 0.43529633E+02</pdfrwt>
<totfact> 0.52111069E+05</totfact>
</mgrwt>
</event>
<event>
 4    1  0.4244376E-001  0.2257343E+02  0.7818608E-02  0.1698519E+00
         -1   -1    0    0    0  501 -0.00000000000E+00  0.00000000000E+00  0.77146514758E+02  0.77146514899E+02  0.46700000000E-02 0.  1.
          1   -1    0    0  501    0  0.00000000000E+00 -0.00000000000E+00 -0.16512699236E+01  0.16512765273E+01  0.46700000000E-02 0. -1.
        -11    1    1    2    0    0  0.86989678299E+01 -0.66957390702E+01  0.46907065586E+02  0.48174451374E+02  0.51100000000E-03 0. -1.
         11    1    1    2    0    0 -0.86989678299E+01  0.66957390702E+01  0.28588179248E+02  0.30623340053E+02  0.51100000000E-03 0.  1.
<mgrwt>
<rscale>  0 0.22573434E+02</rscale>
<asrwt>0</asrwt>
<pdfrwt beam="2">  1        1 0.25404202E-03 0.22573434E+02</pdfrwt>
<pdfrwt beam="1">  1       -1 0.11868696E-01 0.22573434E+02</pdfrwt>
<totfact> 0.25357640E+06</totfact>
</mgrwt>
</event>
<event>
 4    1  0.4244376E-001  0.2755035E+02  0.7818608E-02  0.1626860E+00
          1   -1    0    0  501    0  0.00000000000E+00  0.00000000000E+00  0.62295873204E+02  0.62295873379E+02  0.46700000000E-02 0. -1.
         -1   -1    0    0    0  501 -0.00000000000E+00 -0.00000000000E+00 -0.30460341982E+01  0.30460377781E+01  0.46700000000E-02 0.  1.
        -11    1    1    2    0    0 -0.12427737602E+02  0.87787446818E+00  0.15686880480E+02  0.20032412360E+02  0.51100000000E-03 0.  1.
         11    1    1    2    0    0  0.12427737602E+02 -0.87787446818E+00  0.43562958526E+02  0.45309498798E+02  0.51100000000E-03 0. -1.
<mgrwt>
<rscale>  0 0.27550353E+02</rscale>
<asrwt>0</asrwt>
<pdfrwt beam="1">  1        1 0.95839809E-02 0.27550353E+02</pdfrwt>
<pdfrwt beam="2">  1       -1 0.46862093E-03 0.27550353E+02</pdfrwt>
<totfact> 0.20437616E+06</totfact>
</mgrwt>
</event>
<event>
 4    1  0.4244376E-001  0.2519710E+02  0.7818608E-02  0.1658187E+00
         -1   -1    0    0    0  501 -0.00000000000E+00  0.00000000000E+00  0.77163400327E+02  0.77163400468E+02  0.46700000000E-02 0.  1.
          1   -1    0    0  501    0  0.00000000000E+00 -0.00000000000E+00 -0.20569765744E+01  0.20569818756E+01  0.46700000000E-02 0. -1.
        -11    1    1    2    0    0 -0.42203697734E+00  0.10226668517E+02  0.14457842610E+02  0.17714177299E+02  0.51100000000E-03 0. -1.
         11    1    1    2    0    0  0.42203697734E+00 -0.10226668517E+02  0.60648581142E+02  0.61506205045E+02  0.51100000000E-03 0.  1.
<mgrwt>
<rscale>  0 0.25197105E+02</rscale>
<asrwt>0</asrwt>
<pdfrwt beam="2">  1        1 0.31645833E-03 0.25197105E+02</pdfrwt>
<pdfrwt beam="1">  1       -1 0.11871294E-01 0.25197105E+02</pdfrwt>
<totfact> 0.19781479E+06</totfact>
</mgrwt>
</event>
<event>
 4    1  0.4244376E-001  0.2895803E+02  0.7818608E-02  0.1609900E+00
          1   -1    0    0  501    0  0.00000000000E+00  0.00000000000E+00  0.77580205808E+02  0.77580205948E+02  0.46700000000E-02 0. -1.
         -1   -1    0    0    0  501 -0.00000000000E+00 -0.00000000000E+00 -0.27022573447E+01  0.27022613800E+01  0.46700000000E-02 0.  1.
        -11    1    1    2    0    0  0.14821564466E+01  0.14218111991E+02  0.43815645222E+02  0.46088634855E+02  0.51100000000E-03 0.  1.
         11    1    1    2    0    0 -0.14821564466E+01 -0.14218111991E+02  0.31062303241E+02  0.34193832473E+02  0.51100000000E-03 0. -1.
<mgrwt>
<rscale>  0 0.28958028E+02</rscale>
<asrwt>0</asrwt>
<pdfrwt beam="1">  1        1 0.11935415E-01 0.28958028E+02</pdfrwt>
<pdfrwt beam="2">  1       -1 0.41573228E-03 0.28958028E+02</pdfrwt>
<totfact> 0.18571077E+06</totfact>
</mgrwt>
</event>
<event>
 4    1  0.4244376E-001  0.2380559E+02  0.7818608E-02  0.1678775E+00
          1   -1    0    0  501    0  0.00000000000E+00  0.00000000000E+00  0.18905960614E+02  0.18905961190E+02  0.46700000000E-02 0. -1.
         -1   -1    0    0    0  501 -0.00000000000E+00 -0.00000000000E+00 -0.74937460369E+01  0.74937474921E+01  0.46700000000E-02 0.  1.
        -11    1    1    2    0    0  0.11457646411E+02 -0.18714133415E+01  0.27937867862E+01  0.11940900052E+02  0.51100000000E-03 0.  1.
         11    1    1    2    0    0 -0.11457646411E+02  0.18714133415E+01  0.86184277904E+01  0.14458808631E+02  0.51100000000E-03 0. -1.
<mgrwt>
<rscale>  0 0.23805587E+02</rscale>
<asrwt>0</asrwt>
<pdfrwt beam="1">  1        1 0.29086095E-02 0.23805587E+02</pdfrwt>
<pdfrwt beam="2">  1       -1 0.11528842E-02 0.23805587E+02</pdfrwt>
<totfact> 0.26621815E+06</totfact>
</mgrwt>
</event>
<event>
 4    1  0.4244376E-001  0.2150235E+02  0.7818608E-02  0.1717003E+00
          1   -1    0    0  501    0  0.00000000000E+00  0.00000000000E+00  0.66582662140E+01  0.66582678518E+01  0.46700000000E-02 0.  1.
         -1   -1    0    0    0  501 -0.00000000000E+00 -0.00000000000E+00 -0.17360040489E+02  0.17360041117E+02  0.46700000000E-02 0. -1.
        -11    1    1    2    0    0  0.56409997127E+01 -0.84986585737E+01 -0.15563909362E+01  0.10318450868E+02  0.51100000000E-03 0.  1.
         11    1    1    2    0    0 -0.56409997127E+01  0.84986585737E+01 -0.91453833391E+01  0.13699858101E+02  0.51100000000E-03 0. -1.
<mgrwt>
<rscale>  0 0.21502353E+02</rscale>
<asrwt>0</asrwt>
<pdfrwt beam="1">  1        1 0.10243488E-02 0.21502353E+02</pdfrwt>
<pdfrwt beam="2">  1       -1 0.26707756E-02 0.21502353E+02</pdfrwt>
<totfact> 0.32116064E+06</totfact>
</mgrwt>
</event>
<event>
 4    1  0.4244376E-001  0.4120505E+02  0.7818608E-02  0.1499526E+00
          1   -1    0    0  501    0  0.00000000000E+00  0.00000000000E+00  0.36876611497E+01  0.36876641067E+01  0.46700000000E-02 0. -1.
         -1   -1    0    0    0  501 -0.00000000000E+00 -0.00000000000E+00 -0.11510380748E+03  0.11510380757E+03  0.46700000000E-02 0.  1.
        -11    1    1    2    0    0  0.13388163291E+02 -0.92186000998E+01 -0.19214340819E+02  0.25167765047E+02  0.51100000000E-03 0. -1.
         11    1    1    2    0    0 -0.13388163291E+02  0.92186000998E+01 -0.92201805507E+02  0.93623706630E+02  0.51100000000E-03 0.  1.
<mgrwt>
<rscale>  0 0.41205049E+02</rscale>
<asrwt>0</asrwt>
<pdfrwt beam="1">  1        1 0.56733281E-03 0.41205049E+02</pdfrwt>
<pdfrwt beam="2">  1       -1 0.17708276E-01 0.41205049E+02</pdfrwt>
<totfact> 0.58349379E+05</totfact>
</mgrwt>
</event>
<event>
 4    1  0.4244376E-001  0.2048392E+02  0.7818608E-02  0.1735872E+00
          1   -1    0    0  501    0  0.00000000000E+00  0.00000000000E+00  0.16108491213E+02  0.16108491890E+02  0.46700000000E-02 0.  1.
         -1   -1    0    0    0  501 -0.00000000000E+00 -0.00000000000E+00 -0.65119522622E+01  0.65119539367E+01  0.46700000000E-02 0. -1.
        -11    1    1    2    0    0 -0.98821454378E+01  0.23758404978E+01  0.34030254454E+01  0.10718302056E+02  0.51100000000E-03 0. -1.
         11    1    1    2    0    0  0.98821454378E+01 -0.23758404978E+01  0.61935135053E+01  0.11902143770E+02  0.51100000000E-03 0.  1.
<mgrwt>
<rscale>  0 0.20483921E+02</rscale>
<asrwt>0</asrwt>
<pdfrwt beam="1">  1        1 0.24782296E-02 0.20483921E+02</pdfrwt>
<pdfrwt beam="2">  1       -1 0.10018390E-02 0.20483921E+02</pdfrwt>
<totfact> 0.37289328E+06</totfact>
</mgrwt>
</event>
<event>
 4    1  0.4244376E-001  0.5704974E+02  0.7818608E-02  0.1410647E+00
          1   -1    0    0  501    0  0.00000000000E+00  0.00000000000E+00  0.86958744488E+02  0.86958744613E+02  0.46700000000E-02 0.  1.
         -1   -1    0    0    0  501 -0.00000000000E+00 -0.00000000000E+00 -0.93569438394E+01  0.93569450048E+01  0.46700000000E-02 0. -1.
        -11    1    1    2    0    0 -0.38094731691E+01  0.26406397659E+02  0.21762004755E+02  0.34429562507E+02  0.51100000000E-03 0. -1.
         11    1    1    2    0    0  0.38094731691E+01 -0.26406397659E+02  0.55839795893E+02  0.61886127111E+02  0.51100000000E-03 0.  1.
<mgrwt>
<rscale>  0 0.57049738E+02</rscale>
<asrwt>0</asrwt>
<pdfrwt beam="1">  1        1 0.13378268E-01 0.57049738E+02</pdfrwt>
<pdfrwt beam="2">  1       -1 0.14395300E-02 0.57049738E+02</pdfrwt>
<totfact> 0.35415444E+05</totfact>
</mgrwt>
</event>
<event>
 4    1  0.4244376E-001  0.3468908E+02  0.7818608E-02  0.1551379E+00
          1   -1    0    0  501    0  0.00000000000E+00  0.00000000000E+00  0.28013067932E+01  0.28013106859E+01  0.46700000000E-02 0.  1.
         -1   -1    0    0    0  501 -0.00000000000E+00 -0.00000000000E+00 -0.10739020227E+03  0.10739020237E+03  0.46700000000E-02 0. -1.
        -11    1    1    2    0    0  0.13422862181E+02  0.10619556952E+02 -0.61214215112E+02  0.63562003989E+02  0.51100000000E-03 0. -1.
         11    1    1    2    0    0 -0.13422862181E+02 -0.10619556952E+02 -0.43374680362E+02  0.46629509067E+02  0.51100000000E-03 0.  1.
<mgrwt>
<rscale>  0 0.34689083E+02</rscale>
<asrwt>0</asrwt>
<pdfrwt beam="1">  1        1 0.43097067E-03 0.34689083E+02</pdfrwt>
<pdfrwt beam="2">  1       -1 0.16521567E-01 0.34689083E+02</pdfrwt>
<totfact> 0.89314360E+05</totfact>
</mgrwt>
</event>
<event>
 4    1  0.4244376E-001  0.2122005E+02  0.7818608E-02  0.1722101E+00
         -1   -1    0    0    0  501 -0.00000000000E+00  0.00000000000E+00  0.41725169292E+02  0.41725169553E+02  0.46700000000E-02 0.  1.
          1   -1    0    0  501    0  0.00000000000E+00 -0.00000000000E+00 -0.26979537178E+01  0.26979577596E+01  0.46700000000E-02 0. -1.
        -11    1    1    2    0    0  0.67147800339E+00  0.10271934346E+02  0.14131708688E+02  0.17483383786E+02  0.51100000000E-03 0.  1.
         11    1    1    2    0    0 -0.67147800339E+00 -0.10271934346E+02  0.24895506886E+02  0.26939743526E+02  0.51100000000E-03 0. -1.
<mgrwt>
<rscale>  0 0.21220054E+02</rscale>
<asrwt>0</asrwt>
<pdfrwt beam="2">  1        1 0.41507013E-03 0.21220054E+02</pdfrwt>
<pdfrwt beam="1">  1       -1 0.64192572E-02 0.21220054E+02</pdfrwt>
<totfact> 0.31175450E+06</totfact>
</mgrwt>
</event>
<event>
 4    1  0.4244376E-001  0.3972899E+02  0.7818608E-02  0.1510215E+00
          1   -1    0    0  501    0  0.00000000000E+00  0.00000000000E+00  0.11303196876E+02  0.11303197841E+02  0.46700000000E-02 0. -1.
         -1   -1    0    0    0  501 -0.00000000000E+00 -0.00000000000E+00 -0.34910309512E+02  0.34910309824E+02  0.46700000000E-02 0.  1.
        -11    1    1    2    0    0 -0.17486643398E+02  0.83141960797E+01 -0.66420125146E+01  0.20470097320E+02  0.51100000000E-03 0. -1.
         11    1    1    2    0    0  0.17486643398E+02 -0.83141960797E+01 -0.16965100121E+02  0.25743410345E+02  0.51100000000E-03 0.  1.
<mgrwt>
<rscale>  0 0.39728988E+02</rscale>
<asrwt>0</asrwt>
<pdfrwt beam="1">  1        1 0.17389535E-02 0.39728988E+02</pdfrwt>
<pdfrwt beam="2">  1       -1 0.53708169E-02 0.39728988E+02</pdfrwt>
<totfact> 0.74001839E+05</totfact>
</mgrwt>
</event>
<event>
 4    1  0.4244376E-001  0.2558933E+02  0.7818608E-02  0.1652679E+00
          1   -1    0    0  501    0  0.00000000000E+00  0.00000000000E+00  0.37826604107E+01  0.37826632935E+01  0.46700000000E-02 0.  1.
         -1   -1    0    0    0  501 -0.00000000000E+00 -0.00000000000E+00 -0.43277308648E+02  0.43277308900E+02  0.46700000000E-02 0. -1.
        -11    1    1    2    0    0 -0.12520844890E+02 -0.82483688185E+00 -0.15149147077E+02  0.19671008364E+02  0.51100000000E-03 0.  1.
         11    1    1    2    0    0  0.12520844890E+02  0.82483688185E+00 -0.24345501160E+02  0.27388963829E+02  0.51100000000E-03 0. -1.
<mgrwt>
<rscale>  0 0.25589329E+02</rscale>
<asrwt>0</asrwt>
<pdfrwt beam="1">  1        1 0.58194803E-03 0.25589329E+02</pdfrwt>
<pdfrwt beam="2">  1       -1 0.66580474E-02 0.25589329E+02</pdfrwt>
<totfact> 0.20377812E+06</totfact>
</mgrwt>
</event>
<event>
 4    1  0.4244376E-001  0.3558689E+02  0.7818608E-02  0.1543450E+00
         -1   -1    0    0    0  501 -0.00000000000E+00  0.00000000000E+00  0.48134119583E+02  0.48134119809E+02  0.46700000000E-02 0. -1.
          1   -1    0    0  501    0  0.00000000000E+00 -0.00000000000E+00 -0.65775910652E+01  0.65775927231E+01  0.46700000000E-02 0.  1.
        -11    1    1    2    0    0  0.72794534995E+01  0.15283996538E+02  0.12355319864E+02  0.20958170784E+02  0.51100000000E-03 0. -1.
         11    1    1    2    0    0 -0.72794534995E+01 -0.15283996538E+02  0.29201208654E+02  0.33753541748E+02  0.51100000000E-03 0.  1.
<mgrwt>
<rscale>  0 0.35586886E+02</rscale>
<asrwt>0</asrwt>
<pdfrwt beam="2">  1        1 0.10119372E-02 0.35586886E+02</pdfrwt>
<pdfrwt beam="1">  1       -1 0.74052494E-02 0.35586886E+02</pdfrwt>
<totfact> 0.93455286E+05</totfact>
</mgrwt>
</event>
<event>
 4    1  0.4244376E-001  0.3225013E+02  0.7818608E-02  0.1574470E+00
         -1   -1    0    0    0  501 -0.00000000000E+00  0.00000000000E+00  0.80698208419E+02  0.80698208555E+02  0.46700000000E-02 0. -1.
          1   -1    0    0  501    0  0.00000000000E+00 -0.00000000000E+00 -0.32220990321E+01  0.32221024163E+01  0.46700000000E-02 0.  1.
        -11    1    1    2    0    0 -0.67512970140E+01  0.12560848042E+02  0.58325815444E+02  0.60043781213E+02  0.51100000000E-03 0. -1.
         11    1    1    2    0    0  0.67512970140E+01 -0.12560848042E+02  0.19150293944E+02  0.23876529758E+02  0.51100000000E-03 0.  1.
<mgrwt>
<rscale>  0 0.32250133E+02</rscale>
<asrwt>0</asrwt>
<pdfrwt beam="2">  1        1 0.49570789E-03 0.32250133E+02</pdfrwt>
<pdfrwt beam="1">  1       -1 0.12415107E-01 0.32250133E+02</pdfrwt>
<totfact> 0.11095795E+06</totfact>
</mgrwt>
</event>
<event>
 4    1  0.4244376E-001  0.3595570E+02  0.7818608E-02  0.1540274E+00
         -1   -1    0    0    0  501 -0.00000000000E+00  0.00000000000E+00  0.16327536683E+01  0.16327603468E+01  0.46700000000E-02 0. -1.
          1   -1    0    0  501    0  0.00000000000E+00 -0.00000000000E+00 -0.19794924779E+03  0.19794924785E+03  0.46700000000E-02 0.  1.
        -11    1    1    2    0    0 -0.12916737617E+02 -0.12490204174E+02 -0.94847633038E+02  0.96534557565E+02  0.51100000000E-03 0.  1.
         11    1    1    2    0    0  0.12916737617E+02  0.12490204174E+02 -0.10146886109E+03  0.10304745063E+03  0.51100000000E-03 0. -1.
<mgrwt>
<rscale>  0 0.35955697E+02</rscale>
<asrwt>0</asrwt>
<pdfrwt beam="2">  1        1 0.30453712E-01 0.35955697E+02</pdfrwt>
<pdfrwt beam="1">  1       -1 0.25119355E-03 0.35955697E+02</pdfrwt>
<totfact> 0.12598407E+06</totfact>
</mgrwt>
</event>
<event>
 4    1  0.4244376E-001  0.4835468E+02  0.7818608E-02  0.1454423E+00
          1   -1    0    0  501    0  0.00000000000E+00  0.00000000000E+00  0.59537837653E+02  0.59537837836E+02  0.46700000000E-02 0.  1.
         -1   -1    0    0    0  501 -0.00000000000E+00 -0.00000000000E+00 -0.98180193112E+01  0.98180204218E+01  0.46700000000E-02 0. -1.
        -11    1    1    2    0    0 -0.20357473693E+02  0.68153612169E+01  0.89094574445E+01  0.23243371440E+02  0.51100000000E-03 0. -1.
         11    1    1    2    0    0  0.20357473693E+02 -0.68153612169E+01  0.40810360897E+02  0.46112486818E+02  0.51100000000E-03 0.  1.
<mgrwt>
<rscale>  0 0.48354676E+02</rscale>
<asrwt>0</asrwt>
<pdfrwt beam="1">  1        1 0.91596676E-02 0.48354676E+02</pdfrwt>
<pdfrwt beam="2">  1       -1 0.15104646E-02 0.48354676E+02</pdfrwt>
<totfact> 0.51674165E+05</totfact>
</mgrwt>
</event>
<event>
 4    1  0.4244376E-001  0.2767227E+02  0.7818608E-02  0.1625342E+00
          1   -1    0    0  501    0  0.00000000000E+00  0.00000000000E+00  0.11065062332E+03  0.11065062341E+03  0.46700000000E-02 0. -1.
         -1   -1    0    0    0  501 -0.00000000000E+00 -0.00000000000E+00 -0.17301148674E+01  0.17301211701E+01  0.46700000000E-02 0.  1.
        -11    1    1    2    0    0  0.90877595392E+01  0.92583836172E+01  0.34927261903E+02  0.37258806542E+02  0.51100000000E-03 0. -1.
         11    1    1    2    0    0 -0.90877595392E+01 -0.92583836172E+01  0.73993246545E+02  0.75121938042E+02  0.51100000000E-03 0.  1.
<mgrwt>
<rscale>  0 0.27672271E+02</rscale>
<asrwt>0</asrwt>
<pdfrwt beam="1">  1        1 0.17023174E-01 0.27672271E+02</pdfrwt>
<pdfrwt beam="2">  1       -1 0.26617200E-03 0.27672271E+02</pdfrwt>
<totfact> 0.21499665E+06</totfact>
</mgrwt>
</event>
<event>
 4    1  0.4244376E-001  0.2872287E+02  0.7818608E-02  0.1612650E+00
         -1   -1    0    0    0  501 -0.00000000000E+00  0.00000000000E+00  0.26081696236E+02  0.26081696654E+02  0.46700000000E-02 0. -1.
          1   -1    0    0  501    0  0.00000000000E+00 -0.00000000000E+00 -0.79078741946E+01  0.79078755735E+01  0.46700000000E-02 0.  1.
        -11    1    1    2    0    0  0.60738726152E+01 -0.92921541313E+01  0.19868816012E+02  0.22759743121E+02  0.51100000000E-03 0.  1.
         11    1    1    2    0    0 -0.60738726152E+01  0.92921541313E+01 -0.16949939707E+01  0.11229829107E+02  0.51100000000E-03 0. -1.
<mgrwt>
<rscale>  0 0.28722869E+02</rscale>
<asrwt>0</asrwt>
<pdfrwt beam="2">  1        1 0.12165962E-02 0.28722869E+02</pdfrwt>
<pdfrwt beam="1">  1       -1 0.40125687E-02 0.28722869E+02</pdfrwt>
<totfact> 0.16259942E+06</totfact>
</mgrwt>
</event>
<event>
 4    1  0.4244376E-001  0.6484247E+02  0.7818608E-02  0.1378565E+00
         -1   -1    0    0    0  501 -0.00000000000E+00  0.00000000000E+00  0.12305705392E+03  0.12305705401E+03  0.46700000000E-02 0. -1.
          1   -1    0    0  501    0  0.00000000000E+00 -0.00000000000E+00 -0.85418619124E+01  0.85418631890E+01  0.46700000000E-02 0.  1.
        -11    1    1    2    0    0 -0.24174444885E+01 -0.32176676527E+02  0.50854508496E+02  0.60227598199E+02  0.51100000000E-03 0.  1.
         11    1    1    2    0    0  0.24174444885E+01  0.32176676527E+02  0.63660683514E+02  0.71371319001E+02  0.51100000000E-03 0. -1.
<mgrwt>
<rscale>  0 0.64842469E+02</rscale>
<asrwt>0</asrwt>
<pdfrwt beam="2">  1        1 0.13141327E-02 0.64842469E+02</pdfrwt>
<pdfrwt beam="1">  1       -1 0.18931854E-01 0.64842469E+02</pdfrwt>
<totfact> 0.18704296E+05</totfact>
</mgrwt>
</event>
<event>
 4    1  0.4244376E-001  0.2963985E+02  0.7818608E-02  0.1602104E+00
         -1   -1    0    0    0  501 -0.00000000000E+00  0.00000000000E+00  0.38991891275E+02  0.38991891555E+02  0.46700000000E-02 0.  1.
          1   -1    0    0  501    0  0.00000000000E+00 -0.00000000000E+00 -0.56327141228E+01  0.56327160588E+01  0.46700000000E-02 0. -1.
        -11    1    1    2    0    0 -0.39405741717E+01 -0.11215573193E+02  0.33561800803E+01  0.12352374341E+02  0.51100000000E-03 0. -1.
         11    1    1    2    0    0  0.39405741717E+01  0.11215573193E+02  0.30002997072E+02  0.32272233273E+02  0.51100000000E-03 0.  1.
<mgrwt>
<rscale>  0 0.29639853E+02</rscale>
<asrwt>0</asrwt>
<pdfrwt beam="2">  1        1 0.86657160E-03 0.29639853E+02</pdfrwt>
<pdfrwt beam="1">  1       -1 0.59987525E-02 0.29639853E+02</pdfrwt>
<totfact> 0.14657383E+06</totfact>
</mgrwt>
</event>
<event>
 4    1  0.4244376E-001  0.2095944E+02  0.7818608E-02  0.1726895E+00
          1   -1    0    0  501    0  0.00000000000E+00  0.00000000000E+00  0.42460441251E+02  0.42460441507E+02  0.46700000000E-02 0.  1.
         -1   -1    0    0    0  501 -0.00000000000E+00 -0.00000000000E+00 -0.25865125306E+01  0.25865167465E+01  0.46700000000E-02 0. -1.
        -11    1    1    2    0    0 -0.20695020802E+01 -0.10272355598E+02  0.19629724326E+02  0.22251521426E+02  0.51100000000E-03 0. -1.
         11    1    1    2    0    0  0.20695020802E+01  0.10272355598E+02  0.20244204394E+02  0.22795436828E+02  0.51100000000E-03 0.  1.
<mgrwt>
<rscale>  0 0.20959443E+02</rscale>
<asrwt>0</asrwt>
<pdfrwt beam="1">  1        1 0.65323754E-02 0.20959443E+02</pdfrwt>
<pdfrwt beam="2">  1       -1 0.39792538E-03 0.20959443E+02</pdfrwt>
<totfact> 0.37156292E+06</totfact>
</mgrwt>
</event>
<event>
 4    1  0.4244376E-001  0.3378541E+02  0.7818608E-02  0.1559659E+00
         -1   -1    0    0    0  501 -0.00000000000E+00  0.00000000000E+00  0.25964007331E+01  0.25964049329E+01  0.46700000000E-02 0.  1.
          1   -1    0    0  501    0  0.00000000000E+00 -0.00000000000E+00 -0.10990726007E+03  0.10990726017E+03  0.46700000000E-02 0. -1.
        -11    1    1    2    0    0 -0.10531660444E+02  0.10317093237E+02 -0.81115943048E+02  0.82444857337E+02  0.51100000000E-03 0. -1.
         11    1    1    2    0    0  0.10531660444E+02 -0.10317093237E+02 -0.26194916286E+02  0.30058807762E+02  0.51100000000E-03 0.  1.
<mgrwt>
<rscale>  0 0.33785413E+02</rscale>
<asrwt>0</asrwt>
<pdfrwt beam="2">  1        1 0.16908806E-01 0.33785413E+02</pdfrwt>
<pdfrwt beam="1">  1       -1 0.39944668E-03 0.33785413E+02</pdfrwt>
<totfact> 0.13409473E+06</totfact>
</mgrwt>
</event>
<event>
 4    1  0.4244376E-001  0.2437434E+02  0.7818608E-02  0.1670155E+00
          1   -1    0    0  501    0  0.00000000000E+00  0.00000000000E+00  0.16088925416E+01  0.16088993192E+01  0.46700000000E-02 0.  1.
         -1   -1    0    0    0  501 -0.00000000000E+00 -0.00000000000E+00 -0.92316137485E+02  0.92316137603E+02  0.46700000000E-02 0. -1.
        -11    1    1    2    0    0 -0.11154193986E+02 -0.30051770283E+01 -0.60317644042E+02  0.61413885364E+02  0.51100000000E-03 0.  1.
         11    1    1    2    0    0  0.11154193986E+02  0.30051770283E+01 -0.30389600902E+02  0.32511151559E+02  0.51100000000E-03 0. -1.
<mgrwt>
<rscale>  0 0.24374336E+02</rscale>
<asrwt>0</asrwt>
<pdfrwt beam="1">  1        1 0.24752253E-03 0.24374336E+02</pdfrwt>
<pdfrwt beam="2">  1       -1 0.14202479E-01 0.24374336E+02</pdfrwt>
<totfact> 0.20778713E+06</totfact>
</mgrwt>
</event>
<event>
 4    1  0.4244376E-001  0.2933779E+02  0.7818608E-02  0.1605526E+00
         -1   -1    0    0    0  501 -0.00000000000E+00  0.00000000000E+00  0.68543156962E+01  0.68543172871E+01  0.46700000000E-02 0. -1.
          1   -1    0    0  501    0  0.00000000000E+00 -0.00000000000E+00 -0.31392838850E+02  0.31392839197E+02  0.46700000000E-02 0.  1.
        -11    1    1    2    0    0  0.12687060189E+02 -0.26324229732E+00 -0.26762791869E+01  0.12968934548E+02  0.51100000000E-03 0. -1.
         11    1    1    2    0    0 -0.12687060189E+02  0.26324229732E+00 -0.21862243967E+02  0.25278221937E+02  0.51100000000E-03 0.  1.
<mgrwt>
<rscale>  0 0.29337789E+02</rscale>
<asrwt>0</asrwt>
<pdfrwt beam="2">  1        1 0.48296676E-02 0.29337789E+02</pdfrwt>
<pdfrwt beam="1">  1       -1 0.10545103E-02 0.29337789E+02</pdfrwt>
<totfact> 0.16751287E+06</totfact>
</mgrwt>
</event>
<event>
 4    1  0.4244376E-001  0.2061889E+02  0.7818608E-02  0.1733294E+00
         -1   -1    0    0    0  501 -0.00000000000E+00  0.00000000000E+00  0.15283672462E+02  0.15283673175E+02  0.46700000000E-02 0.  1.
          1   -1    0    0  501    0  0.00000000000E+00 -0.00000000000E+00 -0.69541262949E+01  0.69541278630E+01  0.46700000000E-02 0. -1.
        -11    1    1    2    0    0 -0.84602405488E+01 -0.54697992120E+01  0.18042661214E+01  0.10234732535E+02  0.51100000000E-03 0. -1.
         11    1    1    2    0    0  0.84602405488E+01  0.54697992120E+01  0.65252800456E+01  0.12003068503E+02  0.51100000000E-03 0.  1.
<mgrwt>
<rscale>  0 0.20618886E+02</rscale>
<asrwt>0</asrwt>
<pdfrwt beam="2">  1        1 0.10698658E-02 0.20618886E+02</pdfrwt>
<pdfrwt beam="1">  1       -1 0.23513344E-02 0.20618886E+02</pdfrwt>
<totfact> 0.35465242E+06</totfact>
</mgrwt>
</event>
<event>
 4    1  0.4244376E-001  0.2722343E+02  0.7818608E-02  0.1630977E+00
         -1   -1    0    0    0  501 -0.00000000000E+00  0.00000000000E+00  0.41185773161E+02  0.41185773426E+02  0.46700000000E-02 0.  1.
          1   -1    0    0  501    0  0.00000000000E+00 -0.00000000000E+00 -0.44986084824E+01  0.44986109064E+01  0.46700000000E-02 0. -1.
        -11    1    1    2    0    0 -0.15958593393E+00 -0.11201553421E+02  0.53688809812E+01  0.12422767403E+02  0.51100000000E-03 0. -1.
         11    1    1    2    0    0  0.15958593393E+00  0.11201553421E+02  0.31318283698E+02  0.33261616929E+02  0.51100000000E-03 0.  1.
<mgrwt>
<rscale>  0 0.27223426E+02</rscale>
<asrwt>0</asrwt>
<pdfrwt beam="2">  1        1 0.69209383E-03 0.27223426E+02</pdfrwt>
<pdfrwt beam="1">  1       -1 0.63362729E-02 0.27223426E+02</pdfrwt>
<totfact> 0.17759354E+06</totfact>
</mgrwt>
</event>
<event>
 4    1  0.4244376E-001  0.2816713E+02  0.7818608E-02  0.1619280E+00
         -1   -1    0    0    0  501 -0.00000000000E+00  0.00000000000E+00  0.11326112460E+02  0.11326113423E+02  0.46700000000E-02 0. -1.
          1   -1    0    0  501    0  0.00000000000E+00 -0.00000000000E+00 -0.17512344476E+02  0.17512345098E+02  0.46700000000E-02 0.  1.
        -11    1    1    2    0    0  0.75867274265E+01 -0.65808312357E+01 -0.13201680876E+02  0.16587650557E+02  0.51100000000E-03 0.  1.
         11    1    1    2    0    0 -0.75867274265E+01  0.65808312357E+01  0.70154488603E+01  0.12250807964E+02  0.51100000000E-03 0. -1.
<mgrwt>
<rscale>  0 0.28167130E+02</rscale>
<asrwt>0</asrwt>
<pdfrwt beam="2">  1        1 0.26942070E-02 0.28167130E+02</pdfrwt>
<pdfrwt beam="1">  1       -1 0.17424790E-02 0.28167130E+02</pdfrwt>
<totfact> 0.17854636E+06</totfact>
</mgrwt>
</event>
<event>
 4    1  0.4244376E-001  0.4581653E+02  0.7818608E-02  0.1469308E+00
         -1   -1    0    0    0  501 -0.00000000000E+00  0.00000000000E+00  0.49832724437E+01  0.49832746319E+01  0.46700000000E-02 0. -1.
          1   -1    0    0  501    0  0.00000000000E+00 -0.00000000000E+00 -0.10530999786E+03  0.10530999796E+03  0.46700000000E-02 0.  1.
        -11    1    1    2    0    0  0.52174051043E+01  0.17149620967E+02 -0.84500488969E+02  0.86380920646E+02  0.51100000000E-03 0.  1.
         11    1    1    2    0    0 -0.52174051043E+01 -0.17149620967E+02 -0.15826236443E+02  0.23912351945E+02  0.51100000000E-03 0. -1.
<mgrwt>
<rscale>  0 0.45816527E+02</rscale>
<asrwt>0</asrwt>
<pdfrwt beam="2">  1        1 0.16201537E-01 0.45816527E+02</pdfrwt>
<pdfrwt beam="1">  1       -1 0.76665755E-03 0.45816527E+02</pdfrwt>
<totfact> 0.63307455E+05</totfact>
</mgrwt>
</event>
<event>
 4    1  0.4244376E-001  0.2147792E+02  0.7818608E-02  0.1717441E+00
         -1   -1    0    0    0  501 -0.00000000000E+00  0.00000000000E+00  0.29502603700E+01  0.29502640661E+01  0.46700000000E-02 0. -1.
          1   -1    0    0  501    0  0.00000000000E+00 -0.00000000000E+00 -0.39089812645E+02  0.39089812924E+02  0.46700000000E-02 0.  1.
        -11    1    1    2    0    0 -0.83439808324E+01  0.60122134829E+01 -0.12018870364E+02  0.15818406120E+02  0.51100000000E-03 0. -1.
         11    1    1    2    0    0  0.83439808324E+01 -0.60122134829E+01 -0.24120681911E+02  0.26221670870E+02  0.51100000000E-03 0.  1.
<mgrwt>
<rscale>  0 0.21477915E+02</rscale>
<asrwt>0</asrwt>
<pdfrwt beam="2">  1        1 0.60138173E-02 0.21477915E+02</pdfrwt>
<pdfrwt beam="1">  1       -1 0.45388654E-03 0.21477915E+02</pdfrwt>
<totfact> 0.34983976E+06</totfact>
</mgrwt>
</event>
<event>
 4    1  0.4244376E-001  0.2857490E+02  0.7818608E-02  0.1614397E+00
         -1   -1    0    0    0  501 -0.00000000000E+00  0.00000000000E+00  0.14888681632E+02  0.14888682364E+02  0.46700000000E-02 0.  1.
          1   -1    0    0  501    0  0.00000000000E+00 -0.00000000000E+00 -0.13710500327E+02  0.13710501122E+02  0.46700000000E-02 0. -1.
        -11    1    1    2    0    0  0.12163173314E+02 -0.35103219273E+01  0.72178706530E+01  0.14572673129E+02  0.51100000000E-03 0.  1.
         11    1    1    2    0    0 -0.12163173314E+02  0.35103219273E+01 -0.60396893486E+01  0.14026510357E+02  0.51100000000E-03 0. -1.
<mgrwt>
<rscale>  0 0.28574905E+02</rscale>
<asrwt>0</asrwt>
<pdfrwt beam="2">  1        1 0.21093079E-02 0.28574905E+02</pdfrwt>
<pdfrwt beam="1">  1       -1 0.22905665E-02 0.28574905E+02</pdfrwt>
<totfact> 0.17023875E+06</totfact>
</mgrwt>
</event>
<event>
 4    1  0.4244376E-001  0.7021116E+02  0.7818608E-02  0.1359376E+00
          1   -1    0    0  501    0  0.00000000000E+00  0.00000000000E+00  0.14019827048E+03  0.14019827056E+03  0.46700000000E-02 0. -1.
         -1   -1    0    0    0  501 -0.00000000000E+00 -0.00000000000E+00 -0.87904188868E+01  0.87904201273E+01  0.46700000000E-02 0.  1.
        -11    1    1    2    0    0  0.12362119938E+02  0.21014703172E+02  0.11930142621E+03  0.12176727826E+03  0.51100000000E-03 0. -1.
         11    1    1    2    0    0 -0.12362119938E+02 -0.21014703172E+02  0.12106425389E+02  0.27221412431E+02  0.51100000000E-03 0.  1.
<mgrwt>
<rscale>  0 0.70211156E+02</rscale>
<asrwt>0</asrwt>
<pdfrwt beam="1">  1        1 0.21568965E-01 0.70211156E+02</pdfrwt>
<pdfrwt beam="2">  1       -1 0.13523722E-02 0.70211156E+02</pdfrwt>
<totfact> 0.22188234E+05</totfact>
</mgrwt>
</event>
<event>
 4    1  0.4244376E-001  0.2109000E+02  0.7818608E-02  0.1724482E+00
          1   -1    0    0  501    0  0.00000000000E+00  0.00000000000E+00  0.41999217607E+01  0.41999243570E+01  0.46700000000E-02 0.  1.
         -1   -1    0    0    0  501 -0.00000000000E+00 -0.00000000000E+00 -0.26475962961E+02  0.26475963373E+02  0.46700000000E-02 0. -1.
        -11    1    1    2    0    0 -0.60624107747E+01  0.84833157331E+01 -0.88485679567E+01  0.13675402202E+02  0.51100000000E-03 0. -1.
         11    1    1    2    0    0  0.60624107747E+01 -0.84833157331E+01 -0.13427473244E+02  0.17000485528E+02  0.51100000000E-03 0.  1.
<mgrwt>
<rscale>  0 0.21089999E+02</rscale>
<asrwt>0</asrwt>
<pdfrwt beam="1">  1        1 0.64614206E-03 0.21089999E+02</pdfrwt>
<pdfrwt beam="2">  1       -1 0.40732252E-02 0.21089999E+02</pdfrwt>
<totfact> 0.32723489E+06</totfact>
</mgrwt>
</event>
<event>
 4    1  0.4244376E-001  0.2073461E+02  0.7818608E-02  0.1731102E+00
         -1   -1    0    0    0  501 -0.00000000000E+00  0.00000000000E+00  0.20921786001E+01  0.20921838121E+01  0.46700000000E-02 0.  1.
          1   -1    0    0  501    0  0.00000000000E+00 -0.00000000000E+00 -0.51372696956E+02  0.51372697169E+02  0.46700000000E-02 0. -1.
        -11    1    1    2    0    0  0.86121851423E+01 -0.55016974177E+01 -0.20142514523E+02  0.22586706245E+02  0.51100000000E-03 0.  1.
         11    1    1    2    0    0 -0.86121851423E+01  0.55016974177E+01 -0.29138003833E+02  0.30878174736E+02  0.51100000000E-03 0. -1.
<mgrwt>
<rscale>  0 0.20734609E+02</rscale>
<asrwt>0</asrwt>
<pdfrwt beam="2">  1        1 0.79034913E-02 0.20734609E+02</pdfrwt>
<pdfrwt beam="1">  1       -1 0.32187409E-03 0.20734609E+02</pdfrwt>
<totfact> 0.38564130E+06</totfact>
</mgrwt>
</event>
<event>
 4    1  0.4244376E-001  0.3303355E+02  0.7818608E-02  0.1566790E+00
         -1   -1    0    0    0  501 -0.00000000000E+00  0.00000000000E+00  0.78964001848E+01  0.78964015657E+01  0.46700000000E-02 0.  1.
          1   -1    0    0  501    0  0.00000000000E+00 -0.00000000000E+00 -0.34547865442E+02  0.34547865758E+02  0.46700000000E-02 0. -1.
        -11    1    1    2    0    0 -0.79980880921E+01 -0.95910294975E+01 -0.27214758065E+02  0.29943285002E+02  0.51100000000E-03 0. -1.
         11    1    1    2    0    0  0.79980880921E+01  0.95910294975E+01  0.56329280719E+00  0.12500982321E+02  0.51100000000E-03 0.  1.
<mgrwt>
<rscale>  0 0.33033547E+02</rscale>
<asrwt>0</asrwt>
<pdfrwt beam="2">  1        1 0.53150563E-02 0.33033547E+02</pdfrwt>
<pdfrwt beam="1">  1       -1 0.12148310E-02 0.33033547E+02</pdfrwt>
<totfact> 0.12678325E+06</totfact>
</mgrwt>
</event>
<event>
 4    1  0.4244376E-001  0.2589499E+02  0.7818608E-02  0.1648470E+00
          1   -1    0    0  501    0  0.00000000000E+00  0.00000000000E+00  0.58070860791E+02  0.58070860979E+02  0.46700000000E-02 0. -1.
         -1   -1    0    0    0  501 -0.00000000000E+00 -0.00000000000E+00 -0.28867752690E+01  0.28867790464E+01  0.46700000000E-02 0.  1.
        -11    1    1    2    0    0  0.12257160959E+02  0.39707760544E+01  0.30599854775E+02  0.33201749498E+02  0.51100000000E-03 0. -1.
         11    1    1    2    0    0 -0.12257160959E+02 -0.39707760544E+01  0.24584230747E+02  0.27755890527E+02  0.51100000000E-03 0.  1.
<mgrwt>
<rscale>  0 0.25894991E+02</rscale>
<asrwt>0</asrwt>
<pdfrwt beam="1">  1        1 0.89339791E-02 0.25894991E+02</pdfrwt>
<pdfrwt beam="2">  1       -1 0.44411956E-03 0.25894991E+02</pdfrwt>
<totfact> 0.23466743E+06</totfact>
</mgrwt>
</event>
<event>
 4    1  0.4244376E-001  0.2750203E+02  0.7818608E-02  0.1627464E+00
          1   -1    0    0  501    0  0.00000000000E+00  0.00000000000E+00  0.61913554735E+01  0.61913572347E+01  0.46700000000E-02 0.  1.
         -1   -1    0    0    0  501 -0.00000000000E+00 -0.00000000000E+00 -0.30541020799E+02  0.30541021156E+02  0.46700000000E-02 0. -1.
        -11    1    1    2    0    0  0.10192703739E+02 -0.91783048751E+01 -0.13482016073E+02  0.19232712953E+02  0.51100000000E-03 0. -1.
         11    1    1    2    0    0 -0.10192703739E+02  0.91783048751E+01 -0.10867649253E+02  0.17499665438E+02  0.51100000000E-03 0.  1.
<mgrwt>
<rscale>  0 0.27502026E+02</rscale>
<asrwt>0</asrwt>
<pdfrwt beam="1">  1        1 0.95251641E-03 0.27502026E+02</pdfrwt>
<pdfrwt beam="2">  1       -1 0.46986187E-02 0.27502026E+02</pdfrwt>
<totfact> 0.17772909E+06</totfact>
</mgrwt>
</event>
<event>
 4    1  0.4244376E-001  0.2526178E+02  0.7818608E-02  0.1657270E+00
         -1   -1    0    0    0  501 -0.00000000000E+00  0.00000000000E+00  0.17437028570E+01  0.17437091106E+01  0.46700000000E-02 0. -1.
          1   -1    0    0  501    0  0.00000000000E+00 -0.00000000000E+00 -0.91494441477E+02  0.91494441596E+02  0.46700000000E-02 0.  1.
        -11    1    1    2    0    0 -0.10671781116E+02  0.42755603991E+01 -0.25565309829E+02  0.28031275315E+02  0.51100000000E-03 0. -1.
         11    1    1    2    0    0  0.10671781116E+02 -0.42755603991E+01 -0.64185428791E+02  0.65206875391E+02  0.51100000000E-03 0.  1.
<mgrwt>
<rscale>  0 0.25261783E+02</rscale>
<asrwt>0</asrwt>
<pdfrwt beam="2">  1        1 0.14076065E-01 0.25261783E+02</pdfrwt>
<pdfrwt beam="1">  1       -1 0.26826254E-03 0.25261783E+02</pdfrwt>
<totfact> 0.25959327E+06</totfact>
</mgrwt>
</event>
<event>
 4    1  0.4244376E-001  0.2915242E+02  0.7818608E-02  0.1607651E+00
         -1   -1    0    0    0  501 -0.00000000000E+00  0.00000000000E+00  0.87905587120E+01  0.87905599525E+01  0.46700000000E-02 0. -1.
          1   -1    0    0  501    0  0.00000000000E+00 -0.00000000000E+00 -0.24169774508E+02  0.24169774959E+02  0.46700000000E-02 0.  1.
        -11    1    1    2    0    0  0.17537179671E+01 -0.13484060423E+02 -0.13626222830E+02  0.19250178209E+02  0.51100000000E-03 0.  1.
         11    1    1    2    0    0 -0.17537179671E+01  0.13484060423E+02 -0.17529929660E+01  0.13710156702E+02  0.51100000000E-03 0. -1.
<mgrwt>
<rscale>  0 0.29152417E+02</rscale>
<asrwt>0</asrwt>
<pdfrwt beam="2">  1        1 0.37184270E-02 0.29152417E+02</pdfrwt>
<pdfrwt beam="1">  1       -1 0.13523938E-02 0.29152417E+02</pdfrwt>
<totfact> 0.16742902E+06</totfact>
</mgrwt>
</event>
<event>
 4    1  0.4244376E-001  0.2840147E+02  0.7818608E-02  0.1616462E+00
          1   -1    0    0  501    0  0.00000000000E+00  0.00000000000E+00  0.48897196292E+02  0.48897196515E+02  0.46700000000E-02 0.  1.
         -1   -1    0    0    0  501 -0.00000000000E+00 -0.00000000000E+00 -0.41241792125E+01  0.41241818565E+01  0.46700000000E-02 0. -1.
        -11    1    1    2    0    0  0.10629648031E+02 -0.94136042828E+01  0.21946654004E+02  0.26139261372E+02  0.51100000000E-03 0.  1.
         11    1    1    2    0    0 -0.10629648031E+02  0.94136042828E+01  0.22826363075E+02  0.26882116999E+02  0.51100000000E-03 0. -1.
<mgrwt>
<rscale>  0 0.28401470E+02</rscale>
<asrwt>0</asrwt>
<pdfrwt beam="1">  1        1 0.75226456E-02 0.28401470E+02</pdfrwt>
<pdfrwt beam="2">  1       -1 0.63448935E-03 0.28401470E+02</pdfrwt>
<totfact> 0.18650878E+06</totfact>
</mgrwt>
</event>
<event>
 4    1  0.4244376E-001  0.4052565E+02  0.7818608E-02  0.1504378E+00
         -1   -1    0    0    0  501 -0.00000000000E+00  0.00000000000E+00  0.49589780895E+01  0.49589802884E+01  0.46700000000E-02 0.  1.
          1   -1    0    0  501    0  0.00000000000E+00 -0.00000000000E+00 -0.82795693178E+02  0.82795693309E+02  0.46700000000E-02 0. -1.
        -11    1    1    2    0    0 -0.12127637131E+02 -0.23396646149E+01 -0.73701922535E+02  0.74729692883E+02  0.51100000000E-03 0. -1.
         11    1    1    2    0    0  0.12127637131E+02  0.23396646149E+01 -0.41347925537E+01  0.13024980714E+02  0.51100000000E-03 0.  1.
<mgrwt>
<rscale>  0 0.40525653E+02</rscale>
<asrwt>0</asrwt>
<pdfrwt beam="2">  1        1 0.12737798E-01 0.40525653E+02</pdfrwt>
<pdfrwt beam="1">  1       -1 0.76291995E-03 0.40525653E+02</pdfrwt>
<totfact> 0.83274490E+05</totfact>
</mgrwt>
</event>
<event>
 4    1  0.4244376E-001  0.2741916E+02  0.7818608E-02  0.1628504E+00
         -1   -1    0    0    0  501 -0.00000000000E+00  0.00000000000E+00  0.63778940492E+02  0.63778940663E+02  0.46700000000E-02 0.  1.
          1   -1    0    0  501    0  0.00000000000E+00 -0.00000000000E+00 -0.29469362215E+01  0.29469399218E+01  0.46700000000E-02 0. -1.
        -11    1    1    2    0    0 -0.11159614139E+02  0.77621689275E+01  0.26087057447E+02  0.29416369945E+02  0.51100000000E-03 0. -1.
         11    1    1    2    0    0  0.11159614139E+02 -0.77621689275E+01  0.34744946823E+02  0.37309510640E+02  0.51100000000E-03 0.  1.
<mgrwt>
<rscale>  0 0.27419161E+02</rscale>
<asrwt>0</asrwt>
<pdfrwt beam="2">  1        1 0.45337513E-03 0.27419161E+02</pdfrwt>
<pdfrwt beam="1">  1       -1 0.98121443E-02 0.27419161E+02</pdfrwt>
<totfact> 0.16698754E+06</totfact>
</mgrwt>
</event>
<event>
 4    1  0.4244376E-001  0.3661549E+02  0.7818608E-02  0.1534705E+00
         -1   -1    0    0    0  501 -0.00000000000E+00  0.00000000000E+00  0.11573845690E+02  0.11573846632E+02  0.46700000000E-02 0. -1.
          1   -1    0    0  501    0  0.00000000000E+00 -0.00000000000E+00 -0.28959561720E+02  0.28959562097E+02  0.46700000000E-02 0.  1.
        -11    1    1    2    0    0 -0.15163161151E+02 -0.95503741118E+01 -0.12841149917E+02  0.22046002659E+02  0.51100000000E-03 0. -1.
         11    1    1    2    0    0  0.15163161151E+02  0.95503741118E+01 -0.45445661133E+01  0.18487406070E+02  0.51100000000E-03 0.  1.
<mgrwt>
<rscale>  0 0.36615490E+02</rscale>
<asrwt>0</asrwt>
<pdfrwt beam="2">  1        1 0.44553173E-02 0.36615490E+02</pdfrwt>
<pdfrwt beam="1">  1       -1 0.17805917E-02 0.36615490E+02</pdfrwt>
<totfact> 0.97398763E+05</totfact>
</mgrwt>
</event>
<event>
 4    1  0.4244376E-001  0.4795157E+02  0.7818608E-02  0.1456714E+00
          1   -1    0    0  501    0  0.00000000000E+00  0.00000000000E+00  0.19415859541E+02  0.19415860102E+02  0.46700000000E-02 0. -1.
         -1   -1    0    0    0  501 -0.00000000000E+00 -0.00000000000E+00 -0.29606629239E+02  0.29606629607E+02  0.46700000000E-02 0.  1.
        -11    1    1    2    0    0  0.57352681457E+01  0.22934276722E+02 -0.10106762075E+01  0.23662117744E+02  0.51100000000E-03 0. -1.
         11    1    1    2    0    0 -0.57352681457E+01 -0.22934276722E+02 -0.91800934903E+01  0.25360371965E+02  0.51100000000E-03 0.  1.
<mgrwt>
<rscale>  0 0.47951566E+02</rscale>
<asrwt>0</asrwt>
<pdfrwt beam="1">  1        1 0.29870554E-02 0.47951566E+02</pdfrwt>
<pdfrwt beam="2">  1       -1 0.45548661E-02 0.47951566E+02</pdfrwt>
<totfact> 0.47674698E+05</totfact>
</mgrwt>
</event>
<event>
 4    1  0.4244376E-001  0.2620909E+02  0.7818608E-02  0.1644219E+00
          1   -1    0    0  501    0  0.00000000000E+00  0.00000000000E+00  0.14470723609E+02  0.14470724362E+02  0.46700000000E-02 0.  1.
         -1   -1    0    0    0  501 -0.00000000000E+00 -0.00000000000E+00 -0.11867342928E+02  0.11867343847E+02  0.46700000000E-02 0. -1.
        -11    1    1    2    0    0  0.10353351716E+02  0.49152392774E+01  0.76872980322E+01  0.13800218122E+02  0.51100000000E-03 0.  1.
         11    1    1    2    0    0 -0.10353351716E+02 -0.49152392774E+01 -0.50839173515E+01  0.12537850087E+02  0.51100000000E-03 0. -1.
<mgrwt>
<rscale>  0 0.26209087E+02</rscale>
<asrwt>0</asrwt>
<pdfrwt beam="1">  1        1 0.22262653E-02 0.26209087E+02</pdfrwt>
<pdfrwt beam="2">  1       -1 0.18257452E-02 0.26209087E+02</pdfrwt>
<totfact> 0.20981281E+06</totfact>
</mgrwt>
</event>
<event>
 4    1  0.4244376E-001  0.2520986E+02  0.7818608E-02  0.1658006E+00
         -1   -1    0    0    0  501 -0.00000000000E+00  0.00000000000E+00  0.81403316954E+02  0.81403317088E+02  0.46700000000E-02 0. -1.
          1   -1    0    0  501    0  0.00000000000E+00 -0.00000000000E+00 -0.19518124783E+01  0.19518180652E+01  0.46700000000E-02 0.  1.
        -11    1    1    2    0    0  0.74641830795E+01  0.76699513682E+01  0.17708156195E+02  0.20691084532E+02  0.51100000000E-03 0.  1.
         11    1    1    2    0    0 -0.74641830795E+01 -0.76699513682E+01  0.61743348281E+02  0.62664050621E+02  0.51100000000E-03 0. -1.
<mgrwt>
<rscale>  0 0.25209859E+02</rscale>
<asrwt>0</asrwt>
<pdfrwt beam="2">  1        1 0.30027935E-03 0.25209859E+02</pdfrwt>
<pdfrwt beam="1">  1       -1 0.12523585E-01 0.25209859E+02</pdfrwt>
<totfact> 0.19611752E+06</totfact>
</mgrwt>
</event>
<event>
 4    1  0.4244376E-001  0.3378248E+02  0.7818608E-02  0.1559686E+00
         -1   -1    0    0    0  501 -0.00000000000E+00  0.00000000000E+00  0.58515069688E+01  0.58515088323E+01  0.46700000000E-02 0. -1.
          1   -1    0    0  501    0  0.00000000000E+00 -0.00000000000E+00 -0.48759058311E+02  0.48759058535E+02  0.46700000000E-02 0.  1.
        -11    1    1    2    0    0 -0.12287368314E+01 -0.12820215528E+02 -0.37864224113E+01  0.13424034987E+02  0.51100000000E-03 0. -1.
         11    1    1    2    0    0  0.12287368314E+01  0.12820215528E+02 -0.39121128931E+02  0.41186532380E+02  0.51100000000E-03 0.  1.
<mgrwt>
<rscale>  0 0.33782482E+02</rscale>
<asrwt>0</asrwt>
<pdfrwt beam="2">  1        1 0.75013935E-02 0.33782482E+02</pdfrwt>
<pdfrwt beam="1">  1       -1 0.90023203E-03 0.33782482E+02</pdfrwt>
<totfact> 0.12325376E+06</totfact>
</mgrwt>
</event>
<event>
 4    1  0.4244376E-001  0.4219494E+02  0.7818608E-02  0.1492653E+00
          1   -1    0    0  501    0  0.00000000000E+00  0.00000000000E+00  0.74588794571E+02  0.74588794717E+02  0.46700000000E-02 0.  1.
         -1   -1    0    0    0  501 -0.00000000000E+00 -0.00000000000E+00 -0.59674277811E+01  0.59674296084E+01  0.46700000000E-02 0. -1.
        -11    1    1    2    0    0 -0.11468456453E+02  0.12544404841E+02  0.58172366856E+02  0.60604553064E+02  0.51100000000E-03 0.  1.
         11    1    1    2    0    0  0.11468456453E+02 -0.12544404841E+02  0.10448999933E+02  0.19951671261E+02  0.51100000000E-03 0. -1.
<mgrwt>
<rscale>  0 0.42194944E+02</rscale>
<asrwt>0</asrwt>
<pdfrwt beam="1">  1        1 0.11475199E-01 0.42194944E+02</pdfrwt>
<pdfrwt beam="2">  1       -1 0.91806601E-03 0.42194944E+02</pdfrwt>
<totfact> 0.74491224E+05</totfact>
</mgrwt>
</event>
<event>
 4    1  0.4244376E-001  0.3901804E+02  0.7818608E-02  0.1515565E+00
         -1   -1    0    0    0  501 -0.00000000000E+00  0.00000000000E+00  0.10109998541E+02  0.10109999619E+02  0.46700000000E-02 0.  1.
          1   -1    0    0  501    0  0.00000000000E+00 -0.00000000000E+00 -0.37646074333E+02  0.37646074622E+02  0.46700000000E-02 0. -1.
        -11    1    1    2    0    0 -0.18860854202E+02  0.34697602865E+01 -0.18152223336E+02  0.26405951412E+02  0.51100000000E-03 0. -1.
         11    1    1    2    0    0  0.18860854202E+02 -0.34697602865E+01 -0.93838524558E+01  0.21350122830E+02  0.51100000000E-03 0.  1.
<mgrwt>
<rscale>  0 0.39018036E+02</rscale>
<asrwt>0</asrwt>
<pdfrwt beam="2">  1        1 0.57917038E-02 0.39018036E+02</pdfrwt>
<pdfrwt beam="1">  1       -1 0.15553845E-02 0.39018036E+02</pdfrwt>
<totfact> 0.84861774E+05</totfact>
</mgrwt>
</event>
<event>
 4    1  0.4244376E-001  0.4272515E+02  0.7818608E-02  0.1489064E+00
          1   -1    0    0  501    0  0.00000000000E+00  0.00000000000E+00  0.89187383567E+01  0.89187395793E+01  0.46700000000E-02 0. -1.
         -1   -1    0    0    0  501 -0.00000000000E+00 -0.00000000000E+00 -0.51168619137E+02  0.51168619350E+02  0.46700000000E-02 0.  1.
        -11    1    1    2    0    0 -0.12473134432E+02  0.21013989310E+01  0.30860585768E+01  0.13019935400E+02  0.51100000000E-03 0. -1.
         11    1    1    2    0    0  0.12473134432E+02 -0.21013989310E+01 -0.45335939357E+02  0.47067423529E+02  0.51100000000E-03 0.  1.
<mgrwt>
<rscale>  0 0.42725148E+02</rscale>
<asrwt>0</asrwt>
<pdfrwt beam="1">  1        1 0.13721137E-02 0.42725148E+02</pdfrwt>
<pdfrwt beam="2">  1       -1 0.78720952E-02 0.42725148E+02</pdfrwt>
<totfact> 0.59851369E+05</totfact>
</mgrwt>
</event>
<event>
 4    1  0.4244376E-001  0.3407239E+02  0.7818608E-02  0.1556996E+00
          1   -1    0    0  501    0  0.00000000000E+00  0.00000000000E+00  0.61087294706E+02  0.61087294884E+02  0.46700000000E-02 0.  1.
         -1   -1    0    0    0  501 -0.00000000000E+00 -0.00000000000E+00 -0.47510992910E+01  0.47511015862E+01  0.46700000000E-02 0. -1.
        -11    1    1    2    0    0  0.19192502686E+01 -0.13919061721E+02  0.95528169942E+01  0.16990588971E+02  0.51100000000E-03 0. -1.
         11    1    1    2    0    0 -0.19192502686E+01  0.13919061721E+02  0.46783378420E+02  0.48847807499E+02  0.51100000000E-03 0.  1.
<mgrwt>
<rscale>  0 0.34072387E+02</rscale>
<asrwt>0</asrwt>
<pdfrwt beam="1">  1        1 0.93980462E-02 0.34072387E+02</pdfrwt>
<pdfrwt beam="2">  1       -1 0.73093849E-03 0.34072387E+02</pdfrwt>
<totfact> 0.12314535E+06</totfact>
</mgrwt>
</event>
<event>
 4    1  0.4244376E-001  0.2604667E+02  0.7818608E-02  0.1646408E+00
          1   -1    0    0  501    0  0.00000000000E+00  0.00000000000E+00  0.77778612157E+02  0.77778612297E+02  0.46700000000E-02 0.  1.
         -1   -1    0    0    0  501 -0.00000000000E+00 -0.00000000000E+00 -0.21806391772E+01  0.21806441778E+01  0.46700000000E-02 0. -1.
        -11    1    1    2    0    0 -0.11588965667E+02 -0.32810407373E+01  0.53005706271E+02  0.54356915394E+02  0.51100000000E-03 0.  1.
         11    1    1    2    0    0  0.11588965667E+02  0.32810407373E+01  0.22592266709E+02  0.25602341081E+02  0.51100000000E-03 0. -1.
<mgrwt>
<rscale>  0 0.26046673E+02</rscale>
<asrwt>0</asrwt>
<pdfrwt beam="1">  1        1 0.11965942E-01 0.26046673E+02</pdfrwt>
<pdfrwt beam="2">  1       -1 0.33548332E-03 0.26046673E+02</pdfrwt>
<totfact> 0.23781475E+06</totfact>
</mgrwt>
</event>
<event>
 4    1  0.4244376E-001  0.2628874E+02  0.7818608E-02  0.1643153E+00
         -1   -1    0    0    0  501 -0.00000000000E+00  0.00000000000E+00  0.41115315090E+02  0.41115315355E+02  0.46700000000E-02 0. -1.
          1   -1    0    0  501    0  0.00000000000E+00 -0.00000000000E+00 -0.42021894492E+01  0.42021920442E+01  0.46700000000E-02 0.  1.
        -11    1    1    2    0    0  0.46997687036E+01 -0.11310593288E+02  0.26680019382E+02  0.29357124875E+02  0.51100000000E-03 0. -1.
         11    1    1    2    0    0 -0.46997687036E+01  0.11310593288E+02  0.10233106259E+02  0.15960382525E+02  0.51100000000E-03 0.  1.
<mgrwt>
<rscale>  0 0.26288736E+02</rscale>
<asrwt>0</asrwt>
<pdfrwt beam="2">  1        1 0.64649088E-03 0.26288736E+02</pdfrwt>
<pdfrwt beam="1">  1       -1 0.63254336E-02 0.26288736E+02</pdfrwt>
<totfact> 0.19246598E+06</totfact>
</mgrwt>
</event>
<event>
 4    1  0.4244376E-001  0.3061406E+02  0.7818608E-02  0.1591399E+00
         -1   -1    0    0    0  501 -0.00000000000E+00  0.00000000000E+00  0.37720984660E+01  0.37721013569E+01  0.46700000000E-02 0.  1.
          1   -1    0    0  501    0  0.00000000000E+00 -0.00000000000E+00 -0.62115304038E+02  0.62115304213E+02  0.46700000000E-02 0. -1.
        -11    1    1    2    0    0 -0.16210796186E+01  0.15194434622E+02 -0.27238935521E+02  0.31232328622E+02  0.51100000000E-03 0. -1.
         11    1    1    2    0    0  0.16210796186E+01 -0.15194434622E+02 -0.31104270051E+02  0.34655076948E+02  0.51100000000E-03 0.  1.
<mgrwt>
<rscale>  0 0.30614058E+02</rscale>
<asrwt>0</asrwt>
<pdfrwt beam="2">  1        1 0.95562001E-02 0.30614058E+02</pdfrwt>
<pdfrwt beam="1">  1       -1 0.58032312E-03 0.30614058E+02</pdfrwt>
<totfact> 0.15936287E+06</totfact>
</mgrwt>
</event>
<event>
 4    1  0.4244376E-001  0.2171025E+02  0.7818608E-02  0.1713312E+00
          1   -1    0    0  501    0  0.00000000000E+00  0.00000000000E+00  0.43360505267E+02  0.43360505519E+02  0.46700000000E-02 0.  1.
         -1   -1    0    0    0  501 -0.00000000000E+00 -0.00000000000E+00 -0.27175334226E+01  0.27175374353E+01  0.46700000000E-02 0. -1.
        -11    1    1    2    0    0  0.95741525426E-01 -0.10709971941E+02  0.24071042703E+02  0.26346304532E+02  0.51100000000E-03 0.  1.
         11    1    1    2    0    0 -0.95741525426E-01  0.10709971941E+02  0.16571929141E+02  0.19731738421E+02  0.51100000000E-03 0. -1.
<mgrwt>
<rscale>  0 0.21710248E+02</rscale>
<asrwt>0</asrwt>
<pdfrwt beam="1">  1        1 0.66708467E-02 0.21710248E+02</pdfrwt>
<pdfrwt beam="2">  1       -1 0.41808243E-03 0.21710248E+02</pdfrwt>
<totfact> 0.34370590E+06</totfact>
</mgrwt>
</event>
<event>
 4    1  0.4244376E-001  0.2580130E+02  0.7818608E-02  0.1649752E+00
         -1   -1    0    0    0  501 -0.00000000000E+00  0.00000000000E+00  0.85671303547E+01  0.85671316276E+01  0.46700000000E-02 0. -1.
          1   -1    0    0  501    0  0.00000000000E+00 -0.00000000000E+00 -0.19426190726E+02  0.19426191288E+02  0.46700000000E-02 0.  1.
        -11    1    1    2    0    0  0.73993102254E+01 -0.10062199721E+02 -0.19257578129E+01  0.12637491778E+02  0.51100000000E-03 0. -1.
         11    1    1    2    0    0 -0.73993102254E+01  0.10062199721E+02 -0.89333025586E+01  0.15355831137E+02  0.51100000000E-03 0.  1.
<mgrwt>
<rscale>  0 0.25801297E+02</rscale>
<asrwt>0</asrwt>
<pdfrwt beam="2">  1        1 0.29886449E-02 0.25801297E+02</pdfrwt>
<pdfrwt beam="1">  1       -1 0.13180202E-02 0.25801297E+02</pdfrwt>
<totfact> 0.22093128E+06</totfact>
</mgrwt>
</event>
<event>
 4    1  0.4244376E-001  0.3880387E+02  0.7818608E-02  0.1517203E+00
          1   -1    0    0  501    0  0.00000000000E+00  0.00000000000E+00  0.15673820983E+02  0.15673821679E+02  0.46700000000E-02 0.  1.
         -1   -1    0    0    0  501 -0.00000000000E+00 -0.00000000000E+00 -0.24016798430E+02  0.24016798884E+02  0.46700000000E-02 0. -1.
        -11    1    1    2    0    0  0.10355489919E+02 -0.96540250170E+01  0.93981271064E+01  0.16992973956E+02  0.51100000000E-03 0.  1.
         11    1    1    2    0    0 -0.10355489919E+02  0.96540250170E+01 -0.17741104553E+02  0.22697646607E+02  0.51100000000E-03 0. -1.
<mgrwt>
<rscale>  0 0.38803867E+02</rscale>
<asrwt>0</asrwt>
<pdfrwt beam="1">  1        1 0.24113572E-02 0.38803867E+02</pdfrwt>
<pdfrwt beam="2">  1       -1 0.36948921E-02 0.38803867E+02</pdfrwt>
<totfact> 0.80682154E+05</totfact>
</mgrwt>
</event>
<event>
 4    1  0.4244376E-001  0.1080432E+03  0.7818608E-02  0.1264237E+00
          1   -1    0    0  501    0  0.00000000000E+00  0.00000000000E+00  0.66952223332E+02  0.66952223495E+02  0.46700000000E-02 0. -1.
         -1   -1    0    0    0  501 -0.00000000000E+00 -0.00000000000E+00 -0.43588271819E+02  0.43588272069E+02  0.46700000000E-02 0.  1.
        -11    1    1    2    0    0  0.20141616515E+02  0.55654415932E+01 -0.39285878460E+02  0.44497630303E+02  0.51100000000E-03 0.  1.
         11    1    1    2    0    0 -0.20141616515E+02 -0.55654415932E+01  0.62649829974E+02  0.66042865261E+02  0.51100000000E-03 0. -1.
<mgrwt>
<rscale>  0 0.10804317E+03</rscale>
<asrwt>0</asrwt>
<pdfrwt beam="1">  1        1 0.10300342E-01 0.10804317E+03</pdfrwt>
<pdfrwt beam="2">  1       -1 0.67058880E-02 0.10804317E+03</pdfrwt>
<totfact> 0.60939343E+04</totfact>
</mgrwt>
</event>
<event>
 4    1  0.4244376E-001  0.3476828E+02  0.7818608E-02  0.1550668E+00
          1   -1    0    0  501    0  0.00000000000E+00  0.00000000000E+00  0.27369833911E+01  0.27369873752E+01  0.46700000000E-02 0.  1.
         -1   -1    0    0    0  501 -0.00000000000E+00 -0.00000000000E+00 -0.11041645954E+03  0.11041645964E+03  0.46700000000E-02 0. -1.
        -11    1    1    2    0    0  0.10532215486E+02 -0.12160733914E+02 -0.32400188191E+02  0.36174344602E+02  0.51100000000E-03 0.  1.
         11    1    1    2    0    0 -0.10532215486E+02  0.12160733914E+02 -0.75279287958E+02  0.76979102411E+02  0.51100000000E-03 0. -1.
<mgrwt>
<rscale>  0 0.34768276E+02</rscale>
<asrwt>0</asrwt>
<pdfrwt beam="1">  1        1 0.42107477E-03 0.34768276E+02</pdfrwt>
<pdfrwt beam="2">  1       -1 0.16987144E-01 0.34768276E+02</pdfrwt>
<totfact> 0.88402887E+05</totfact>
</mgrwt>
</event>
<event>
 4    1  0.4244376E-001  0.4750388E+02  0.7818608E-02  0.1459290E+00
          1   -1    0    0  501    0  0.00000000000E+00  0.00000000000E+00  0.67966014700E+02  0.67966014860E+02  0.46700000000E-02 0. -1.
         -1   -1    0    0    0  501 -0.00000000000E+00 -0.00000000000E+00 -0.83005396075E+01  0.83005409212E+01  0.46700000000E-02 0.  1.
        -11    1    1    2    0    0  0.20985569818E+02 -0.70710417927E+00  0.47657224644E+02  0.52077876281E+02  0.51100000000E-03 0. -1.
         11    1    1    2    0    0 -0.20985569818E+02  0.70710417927E+00  0.12008250448E+02  0.24188679500E+02  0.51100000000E-03 0.  1.
<mgrwt>
<rscale>  0 0.47503880E+02</rscale>
<asrwt>0</asrwt>
<pdfrwt beam="1">  1        1 0.10456310E-01 0.47503880E+02</pdfrwt>
<pdfrwt beam="2">  1       -1 0.12770062E-02 0.47503880E+02</pdfrwt>
<totfact> 0.54817509E+05</totfact>
</mgrwt>
</event>
<event>
 4    1  0.4244376E-001  0.7840262E+02  0.7818608E-02  0.1333647E+00
          1   -1    0    0  501    0  0.00000000000E+00  0.00000000000E+00  0.33532046929E+02  0.33532047255E+02  0.46700000000E-02 0. -1.
         -1   -1    0    0    0  501 -0.00000000000E+00 -0.00000000000E+00 -0.45829075503E+02  0.45829075741E+02  0.46700000000E-02 0.  1.
        -11    1    1    2    0    0 -0.48591703118E+01  0.32023840662E+02  0.16203219821E+02  0.36217153942E+02  0.51100000000E-03 0. -1.
         11    1    1    2    0    0  0.48591703118E+01 -0.32023840662E+02 -0.28500248395E+02  0.43143969053E+02  0.51100000000E-03 0.  1.
<mgrwt>
<rscale>  0 0.78402621E+02</rscale>
<asrwt>0</asrwt>
<pdfrwt beam="1">  1        1 0.51587765E-02 0.78402621E+02</pdfrwt>
<pdfrwt beam="2">  1       -1 0.70506271E-02 0.78402621E+02</pdfrwt>
<totfact> 0.13488642E+05</totfact>
</mgrwt>
</event>
<event>
 4    1  0.4244376E-001  0.4779420E+02  0.7818608E-02  0.1457616E+00
         -1   -1    0    0    0  501 -0.00000000000E+00  0.00000000000E+00  0.15580703259E+02  0.15580703959E+02  0.46700000000E-02 0.  1.
          1   -1    0    0  501    0  0.00000000000E+00 -0.00000000000E+00 -0.36652475055E+02  0.36652475353E+02  0.46700000000E-02 0. -1.
        -11    1    1    2    0    0 -0.13107124894E+02 -0.12316557191E+02 -0.27731847791E+02  0.33053739368E+02  0.51100000000E-03 0. -1.
         11    1    1    2    0    0  0.13107124894E+02  0.12316557191E+02  0.66600759952E+01  0.19179439943E+02  0.51100000000E-03 0.  1.
<mgrwt>
<rscale>  0 0.47794199E+02</rscale>
<asrwt>0</asrwt>
<pdfrwt beam="2">  1        1 0.56388424E-02 0.47794199E+02</pdfrwt>
<pdfrwt beam="1">  1       -1 0.23970314E-02 0.47794199E+02</pdfrwt>
<totfact> 0.50820020E+05</totfact>
</mgrwt>
</event>
<event>
 4    1  0.4244376E-001  0.5068961E+02  0.7818608E-02  0.1441657E+00
          1   -1    0    0  501    0  0.00000000000E+00  0.00000000000E+00  0.10260109022E+03  0.10260109033E+03  0.46700000000E-02 0. -1.
         -1   -1    0    0    0  501 -0.00000000000E+00 -0.00000000000E+00 -0.62607431954E+01  0.62607449371E+01  0.46700000000E-02 0.  1.
        -11    1    1    2    0    0 -0.14786509354E+02  0.20055035362E+02  0.58131473402E+02  0.63246450512E+02  0.51100000000E-03 0. -1.
         11    1    1    2    0    0  0.14786509354E+02 -0.20055035362E+02  0.38208873624E+02  0.45615384753E+02  0.51100000000E-03 0.  1.
<mgrwt>
<rscale>  0 0.50689611E+02</rscale>
<asrwt>0</asrwt>
<pdfrwt beam="1">  1        1 0.15784782E-01 0.50689611E+02</pdfrwt>
<pdfrwt beam="2">  1       -1 0.96319150E-03 0.50689611E+02</pdfrwt>
<totfact> 0.48945197E+05</totfact>
</mgrwt>
</event>
<event>
 4    1  0.4244376E-001  0.2725070E+02  0.7818608E-02  0.1630631E+00
         -1   -1    0    0    0  501 -0.00000000000E+00  0.00000000000E+00  0.53088909150E+02  0.53088909355E+02  0.46700000000E-02 0. -1.
          1   -1    0    0  501    0  0.00000000000E+00 -0.00000000000E+00 -0.34969655159E+01  0.34969686341E+01  0.46700000000E-02 0.  1.
        -11    1    1    2    0    0 -0.12119153250E+02  0.72142240323E-02  0.37726411281E+02  0.39625194459E+02  0.51100000000E-03 0. -1.
         11    1    1    2    0    0  0.12119153250E+02 -0.72142240323E-02  0.11865532353E+02  0.16960683530E+02  0.51100000000E-03 0.  1.
<mgrwt>
<rscale>  0 0.27250701E+02</rscale>
<asrwt>0</asrwt>
<pdfrwt beam="2">  1        1 0.53799500E-03 0.27250701E+02</pdfrwt>
<pdfrwt beam="1">  1       -1 0.81675240E-02 0.27250701E+02</pdfrwt>
<totfact> 0.17289062E+06</totfact>
</mgrwt>
</event>
<event>
 4    1  0.4244376E-001  0.4495164E+02  0.7818608E-02  0.1474644E+00
          1   -1    0    0  501    0  0.00000000000E+00  0.00000000000E+00  0.15758471236E+02  0.15758471928E+02  0.46700000000E-02 0.  1.
         -1   -1    0    0    0  501 -0.00000000000E+00 -0.00000000000E+00 -0.32056568842E+02  0.32056569182E+02  0.46700000000E-02 0. -1.
        -11    1    1    2    0    0  0.84168293963E+01  0.15178561352E+02  0.70410423404E+01  0.18729869708E+02  0.51100000000E-03 0.  1.
         11    1    1    2    0    0 -0.84168293963E+01 -0.15178561352E+02 -0.23339139946E+02  0.29085171402E+02  0.51100000000E-03 0. -1.
<mgrwt>
<rscale>  0 0.44951643E+02</rscale>
<asrwt>0</asrwt>
<pdfrwt beam="1">  1        1 0.24243803E-02 0.44951643E+02</pdfrwt>
<pdfrwt beam="2">  1       -1 0.49317799E-02 0.44951643E+02</pdfrwt>
<totfact> 0.55364095E+05</totfact>
</mgrwt>
</event>
<event>
 4    1  0.4244376E-001  0.2924709E+02  0.7818608E-02  0.1606563E+00
         -1   -1    0    0    0  501 -0.00000000000E+00  0.00000000000E+00  0.95161313269E+01  0.95161324728E+01  0.46700000000E-02 0.  1.
          1   -1    0    0  501    0  0.00000000000E+00 -0.00000000000E+00 -0.22472158384E+02  0.22472158869E+02  0.46700000000E-02 0. -1.
        -11    1    1    2    0    0  0.48774869176E+01 -0.10585303146E+02  0.31820993743E+01  0.12081567697E+02  0.51100000000E-03 0.  1.
         11    1    1    2    0    0 -0.48774869176E+01  0.10585303146E+02 -0.16138126431E+02  0.19906723645E+02  0.51100000000E-03 0. -1.
<mgrwt>
<rscale>  0 0.29247088E+02</rscale>
<asrwt>0</asrwt>
<pdfrwt beam="2">  1        1 0.34572552E-02 0.29247088E+02</pdfrwt>
<pdfrwt beam="1">  1       -1 0.14640203E-02 0.29247088E+02</pdfrwt>
<totfact> 0.16545340E+06</totfact>
</mgrwt>
</event>
<event>
 4    1  0.4244376E-001  0.2544718E+02  0.7818608E-02  0.1654661E+00
          1   -1    0    0  501    0  0.00000000000E+00  0.00000000000E+00  0.32472294415E+02  0.32472294751E+02  0.46700000000E-02 0. -1.
         -1   -1    0    0    0  501 -0.00000000000E+00 -0.00000000000E+00 -0.49854722529E+01  0.49854744402E+01  0.46700000000E-02 0.  1.
        -11    1    1    2    0    0  0.68473278284E+01 -0.92258820237E+01  0.56962411769E+01  0.12823804479E+02  0.51100000000E-03 0. -1.
         11    1    1    2    0    0 -0.68473278284E+01  0.92258820237E+01  0.21790580985E+02  0.24633964712E+02  0.51100000000E-03 0.  1.
<mgrwt>
<rscale>  0 0.25447182E+02</rscale>
<asrwt>0</asrwt>
<pdfrwt beam="1">  1        1 0.49957377E-02 0.25447182E+02</pdfrwt>
<pdfrwt beam="2">  1       -1 0.76699595E-03 0.25447182E+02</pdfrwt>
<totfact> 0.23456876E+06</totfact>
</mgrwt>
</event>
<event>
 4    1  0.4244376E-001  0.2525037E+02  0.7818608E-02  0.1657432E+00
          1   -1    0    0  501    0  0.00000000000E+00  0.00000000000E+00  0.65893197397E+02  0.65893197562E+02  0.46700000000E-02 0.  1.
         -1   -1    0    0    0  501 -0.00000000000E+00 -0.00000000000E+00 -0.24189930069E+01  0.24189975147E+01  0.46700000000E-02 0. -1.
        -11    1    1    2    0    0  0.41178954773E+01 -0.11706763805E+02  0.38018021966E+02  0.39992191443E+02  0.51100000000E-03 0.  1.
         11    1    1    2    0    0 -0.41178954773E+01  0.11706763805E+02  0.25456182423E+02  0.28320003633E+02  0.51100000000E-03 0. -1.
<mgrwt>
<rscale>  0 0.25250374E+02</rscale>
<asrwt>0</asrwt>
<pdfrwt beam="1">  1        1 0.10137417E-01 0.25250374E+02</pdfrwt>
<pdfrwt beam="2">  1       -1 0.37215307E-03 0.25250374E+02</pdfrwt>
<totfact> 0.25150188E+06</totfact>
</mgrwt>
</event>
<event>
 4    1  0.4244376E-001  0.2921997E+02  0.7818608E-02  0.1606874E+00
          1   -1    0    0  501    0  0.00000000000E+00  0.00000000000E+00  0.18148760712E+02  0.18148761313E+02  0.46700000000E-02 0.  1.
         -1   -1    0    0    0  501 -0.00000000000E+00 -0.00000000000E+00 -0.11761225162E+02  0.11761226089E+02  0.46700000000E-02 0. -1.
        -11    1    1    2    0    0  0.82125013970E+01  0.11932726335E+02  0.51403980964E+01  0.15370713381E+02  0.51100000000E-03 0. -1.
         11    1    1    2    0    0 -0.82125013970E+01 -0.11932726335E+02  0.12471374536E+01  0.14539274021E+02  0.51100000000E-03 0.  1.
<mgrwt>
<rscale>  0 0.29219972E+02</rscale>
<asrwt>0</asrwt>
<pdfrwt beam="1">  1        1 0.27921172E-02 0.29219972E+02</pdfrwt>
<pdfrwt beam="2">  1       -1 0.18094194E-02 0.29219972E+02</pdfrwt>
<totfact> 0.16386324E+06</totfact>
</mgrwt>
</event>
<event>
 4    1  0.4244376E-001  0.2398977E+02  0.7818608E-02  0.1675951E+00
         -1   -1    0    0    0  501 -0.00000000000E+00  0.00000000000E+00  0.11686911714E+01  0.11687005018E+01  0.46700000000E-02 0. -1.
          1   -1    0    0  501    0  0.00000000000E+00 -0.00000000000E+00 -0.12310923139E+03  0.12310923148E+03  0.46700000000E-02 0.  1.
        -11    1    1    2    0    0 -0.57656111279E+01  0.10457660456E+02 -0.66813683769E+02  0.67872478023E+02  0.51100000000E-03 0. -1.
         11    1    1    2    0    0  0.57656111279E+01 -0.10457660456E+02 -0.55126856450E+02  0.56405453958E+02  0.51100000000E-03 0.  1.
<mgrwt>
<rscale>  0 0.23989769E+02</rscale>
<asrwt>0</asrwt>
<pdfrwt beam="2">  1        1 0.18939872E-01 0.23989769E+02</pdfrwt>
<pdfrwt beam="1">  1       -1 0.17979946E-03 0.23989769E+02</pdfrwt>
<totfact> 0.30256202E+06</totfact>
</mgrwt>
</event>
<event>
 4    1  0.4244376E-001  0.4638282E+02  0.7818608E-02  0.1465889E+00
          1   -1    0    0  501    0  0.00000000000E+00  0.00000000000E+00  0.33898804201E+02  0.33898804523E+02  0.46700000000E-02 0.  1.
         -1   -1    0    0    0  501 -0.00000000000E+00 -0.00000000000E+00 -0.15866088665E+02  0.15866089352E+02  0.46700000000E-02 0. -1.
        -11    1    1    2    0    0  0.14823285569E+02  0.11102788604E+02 -0.59599490355E+01  0.19455659912E+02  0.51100000000E-03 0. -1.
         11    1    1    2    0    0 -0.14823285569E+02 -0.11102788604E+02  0.23992664572E+02  0.30309233962E+02  0.51100000000E-03 0.  1.
<mgrwt>
<rscale>  0 0.46382818E+02</rscale>
<asrwt>0</asrwt>
<pdfrwt beam="1">  1        1 0.52152006E-02 0.46382818E+02</pdfrwt>
<pdfrwt beam="2">  1       -1 0.24409368E-02 0.46382818E+02</pdfrwt>
<totfact> 0.54488554E+05</totfact>
</mgrwt>
</event>
<event>
 4    1  0.4244376E-001  0.2955100E+02  0.7818608E-02  0.1603105E+00
         -1   -1    0    0    0  501 -0.00000000000E+00  0.00000000000E+00  0.86133127809E+01  0.86133140469E+01  0.46700000000E-02 0.  1.
          1   -1    0    0  501    0  0.00000000000E+00 -0.00000000000E+00 -0.25346270341E+02  0.25346270771E+02  0.46700000000E-02 0. -1.
        -11    1    1    2    0    0 -0.10127271000E+02 -0.31619485749E+01 -0.20184435613E+02  0.22802872143E+02  0.51100000000E-03 0. -1.
         11    1    1    2    0    0  0.10127271000E+02  0.31619485749E+01  0.34514780532E+01  0.11156712675E+02  0.51100000000E-03 0.  1.
<mgrwt>
<rscale>  0 0.29550999E+02</rscale>
<asrwt>0</asrwt>
<pdfrwt beam="2">  1        1 0.38994263E-02 0.29550999E+02</pdfrwt>
<pdfrwt beam="1">  1       -1 0.13251252E-02 0.29550999E+02</pdfrwt>
<totfact> 0.16253546E+06</totfact>
</mgrwt>
</event>
<event>
 4    1  0.4244376E-001  0.2395030E+02  0.7818608E-02  0.1676553E+00
         -1   -1    0    0    0  501 -0.00000000000E+00  0.00000000000E+00  0.10171041347E+02  0.10171042419E+02  0.46700000000E-02 0.  1.
          1   -1    0    0  501    0  0.00000000000E+00 -0.00000000000E+00 -0.14099268979E+02  0.14099269753E+02  0.46700000000E-02 0. -1.
        -11    1    1    2    0    0 -0.37516743896E+01 -0.10971965619E+02 -0.49949248345E+01  0.12625702540E+02  0.51100000000E-03 0. -1.
         11    1    1    2    0    0  0.37516743896E+01  0.10971965619E+02  0.10666972019E+01  0.11644609631E+02  0.51100000000E-03 0.  1.
<mgrwt>
<rscale>  0 0.23950304E+02</rscale>
<asrwt>0</asrwt>
<pdfrwt beam="2">  1        1 0.21691184E-02 0.23950304E+02</pdfrwt>
<pdfrwt beam="1">  1       -1 0.15647757E-02 0.23950304E+02</pdfrwt>
<totfact> 0.25896895E+06</totfact>
</mgrwt>
</event>
<event>
 4    1  0.4244376E-001  0.2711849E+02  0.7818608E-02  0.1632314E+00
         -1   -1    0    0    0  501 -0.00000000000E+00  0.00000000000E+00  0.33316482019E+01  0.33316514749E+01  0.46700000000E-02 0.  1.
          1   -1    0    0  501    0  0.00000000000E+00 -0.00000000000E+00 -0.55183815397E+02  0.55183815595E+02  0.46700000000E-02 0. -1.
        -11    1    1    2    0    0  0.13544381656E+00  0.10509386851E+02 -0.44410957107E+02  0.45637689122E+02  0.51100000000E-03 0. -1.
         11    1    1    2    0    0 -0.13544381656E+00 -0.10509386851E+02 -0.74412100884E+01  0.12877777947E+02  0.51100000000E-03 0.  1.
<mgrwt>
<rscale>  0 0.27118493E+02</rscale>
<asrwt>0</asrwt>
<pdfrwt beam="2">  1        1 0.84898173E-02 0.27118493E+02</pdfrwt>
<pdfrwt beam="1">  1       -1 0.51256157E-03 0.27118493E+02</pdfrwt>
<totfact> 0.20987400E+06</totfact>
</mgrwt>
</event>
<event>
 4    1  0.4244376E-001  0.3593449E+02  0.7818608E-02  0.1540455E+00
          1   -1    0    0  501    0  0.00000000000E+00  0.00000000000E+00  0.12595391453E+02  0.12595392319E+02  0.46700000000E-02 0. -1.
         -1   -1    0    0    0  501 -0.00000000000E+00 -0.00000000000E+00 -0.25630154907E+02  0.25630155332E+02  0.46700000000E-02 0.  1.
        -11    1    1    2    0    0  0.15154513727E+02  0.47224430345E+01  0.24372186821E+01  0.16059289825E+02  0.51100000000E-03 0. -1.
         11    1    1    2    0    0 -0.15154513727E+02 -0.47224430345E+01 -0.15471982136E+02  0.22166257826E+02  0.51100000000E-03 0.  1.
<mgrwt>
<rscale>  0 0.35934488E+02</rscale>
<asrwt>0</asrwt>
<pdfrwt beam="1">  1        1 0.19377526E-02 0.35934488E+02</pdfrwt>
<pdfrwt beam="2">  1       -1 0.39431008E-02 0.35934488E+02</pdfrwt>
<totfact> 0.96370764E+05</totfact>
</mgrwt>
</event>
<event>
 4    1  0.4244376E-001  0.2580737E+02  0.7818608E-02  0.1649669E+00
         -1   -1    0    0    0  501 -0.00000000000E+00  0.00000000000E+00  0.31177005044E+02  0.31177005394E+02  0.46700000000E-02 0. -1.
          1   -1    0    0  501    0  0.00000000000E+00 -0.00000000000E+00 -0.53406349774E+01  0.53406370192E+01  0.46700000000E-02 0.  1.
        -11    1    1    2    0    0  0.29685156291E+01 -0.12555114433E+02  0.13270699907E+02  0.18508226812E+02  0.51100000000E-03 0.  1.
         11    1    1    2    0    0 -0.29685156291E+01  0.12555114433E+02  0.12565670160E+02  0.18009415601E+02  0.51100000000E-03 0. -1.
<mgrwt>
<rscale>  0 0.25807367E+02</rscale>
<asrwt>0</asrwt>
<pdfrwt beam="2">  1        1 0.82163633E-03 0.25807367E+02</pdfrwt>
<pdfrwt beam="1">  1       -1 0.47964625E-02 0.25807367E+02</pdfrwt>
<totfact> 0.20533245E+06</totfact>
</mgrwt>
</event>
<event>
 4    1  0.4244376E-001  0.2096375E+02  0.7818608E-02  0.1726815E+00
         -1   -1    0    0    0  501 -0.00000000000E+00  0.00000000000E+00  0.30958388659E+02  0.30958389011E+02  0.46700000000E-02 0. -1.
          1   -1    0    0  501    0  0.00000000000E+00 -0.00000000000E+00 -0.35489458319E+01  0.35489489045E+01  0.46700000000E-02 0.  1.
        -11    1    1    2    0    0  0.54319563926E+01 -0.86008128754E+01  0.95439071447E+01  0.13948702313E+02  0.51100000000E-03 0.  1.
         11    1    1    2    0    0 -0.54319563926E+01  0.86008128754E+01  0.17865535682E+02  0.20558635603E+02  0.51100000000E-03 0. -1.
<mgrwt>
<rscale>  0 0.20963750E+02</rscale>
<asrwt>0</asrwt>
<pdfrwt beam="2">  1        1 0.54599191E-03 0.20963750E+02</pdfrwt>
<pdfrwt beam="1">  1       -1 0.47628294E-02 0.20963750E+02</pdfrwt>
<totfact> 0.32807364E+06</totfact>
</mgrwt>
</event>
<event>
 4    1  0.4244376E-001  0.2200085E+02  0.7818608E-02  0.1708237E+00
         -1   -1    0    0    0  501 -0.00000000000E+00  0.00000000000E+00  0.19124739455E+01  0.19124796472E+01  0.46700000000E-02 0. -1.
          1   -1    0    0  501    0  0.00000000000E+00 -0.00000000000E+00 -0.63273626414E+02  0.63273626587E+02  0.46700000000E-02 0.  1.
        -11    1    1    2    0    0 -0.38876202269E+01  0.10237371698E+02 -0.33776736821E+02  0.35507538930E+02  0.51100000000E-03 0.  1.
         11    1    1    2    0    0  0.38876202269E+01 -0.10237371698E+02 -0.27584415648E+02  0.29678567304E+02  0.51100000000E-03 0. -1.
<mgrwt>
<rscale>  0 0.22000850E+02</rscale>
<asrwt>0</asrwt>
<pdfrwt beam="2">  1        1 0.97344029E-02 0.22000850E+02</pdfrwt>
<pdfrwt beam="1">  1       -1 0.29422726E-03 0.22000850E+02</pdfrwt>
<totfact> 0.34310968E+06</totfact>
</mgrwt>
</event>
<event>
 4    1  0.4244376E-001  0.2074811E+02  0.7818608E-02  0.1730848E+00
          1   -1    0    0  501    0  0.00000000000E+00  0.00000000000E+00  0.67163934475E+01  0.67163950710E+01  0.46700000000E-02 0.  1.
         -1   -1    0    0    0  501 -0.00000000000E+00 -0.00000000000E+00 -0.16023628937E+02  0.16023629617E+02  0.46700000000E-02 0. -1.
        -11    1    1    2    0    0 -0.32537204201E+01 -0.96390281990E+01 -0.24280371194E+01  0.10459107309E+02  0.51100000000E-03 0. -1.
         11    1    1    2    0    0  0.32537204201E+01  0.96390281990E+01 -0.68791983697E+01  0.12280917379E+02  0.51100000000E-03 0.  1.
<mgrwt>
<rscale>  0 0.20748111E+02</rscale>
<asrwt>0</asrwt>
<pdfrwt beam="1">  1        1 0.10332915E-02 0.20748111E+02</pdfrwt>
<pdfrwt beam="2">  1       -1 0.24651739E-02 0.20748111E+02</pdfrwt>
<totfact> 0.34899966E+06</totfact>
</mgrwt>
</event>
<event>
 4    1  0.4244376E-001  0.2309712E+02  0.7818608E-02  0.1689941E+00
         -1   -1    0    0    0  501 -0.00000000000E+00  0.00000000000E+00  0.15172654007E+02  0.15172654725E+02  0.46700000000E-02 0.  1.
          1   -1    0    0  501    0  0.00000000000E+00 -0.00000000000E+00 -0.87901059557E+01  0.87901071962E+01  0.46700000000E-02 0. -1.
        -11    1    1    2    0    0  0.30037351904E+01 -0.10871548195E+02  0.61709950074E+00  0.11295742442E+02  0.51100000000E-03 0. -1.
         11    1    1    2    0    0 -0.30037351904E+01  0.10871548195E+02  0.57654485504E+01  0.12667019480E+02  0.51100000000E-03 0.  1.
<mgrwt>
<rscale>  0 0.23097122E+02</rscale>
<asrwt>0</asrwt>
<pdfrwt beam="2">  1        1 0.13523242E-02 0.23097122E+02</pdfrwt>
<pdfrwt beam="1">  1       -1 0.23342546E-02 0.23097122E+02</pdfrwt>
<totfact> 0.27563084E+06</totfact>
</mgrwt>
</event>
<event>
 4    1  0.4244376E-001  0.2455896E+02  0.7818608E-02  0.1667419E+00
          1   -1    0    0  501    0  0.00000000000E+00  0.00000000000E+00  0.18698223049E+01  0.18698281367E+01  0.46700000000E-02 0. -1.
         -1   -1    0    0    0  501 -0.00000000000E+00 -0.00000000000E+00 -0.80641558284E+02  0.80641558419E+02  0.46700000000E-02 0.  1.
        -11    1    1    2    0    0  0.10030573100E+02  0.69332962516E+01 -0.44257629602E+02  0.45906652806E+02  0.51100000000E-03 0.  1.
         11    1    1    2    0    0 -0.10030573100E+02 -0.69332962516E+01 -0.34514106377E+02  0.36604733750E+02  0.51100000000E-03 0. -1.
<mgrwt>
<rscale>  0 0.24558960E+02</rscale>
<asrwt>0</asrwt>
<pdfrwt beam="1">  1        1 0.28766549E-03 0.24558960E+02</pdfrwt>
<pdfrwt beam="2">  1       -1 0.12406391E-01 0.24558960E+02</pdfrwt>
<totfact> 0.20841581E+06</totfact>
</mgrwt>
</event>
<event>
 4    1  0.4244376E-001  0.3291318E+02  0.7818608E-02  0.1567953E+00
          1   -1    0    0  501    0  0.00000000000E+00  0.00000000000E+00  0.76475045569E+02  0.76475045711E+02  0.46700000000E-02 0. -1.
         -1   -1    0    0    0  501 -0.00000000000E+00 -0.00000000000E+00 -0.35412765566E+01  0.35412796359E+01  0.46700000000E-02 0.  1.
        -11    1    1    2    0    0 -0.11387247549E+02 -0.10145799219E+02  0.21438477514E+02  0.26309978467E+02  0.51100000000E-03 0.  1.
         11    1    1    2    0    0  0.11387247549E+02  0.10145799219E+02  0.51495291498E+02  0.53706346880E+02  0.51100000000E-03 0. -1.
<mgrwt>
<rscale>  0 0.32913184E+02</rscale>
<asrwt>0</asrwt>
<pdfrwt beam="1">  1        1 0.11765392E-01 0.32913184E+02</pdfrwt>
<pdfrwt beam="2">  1       -1 0.54481203E-03 0.32913184E+02</pdfrwt>
<totfact> 0.13683866E+06</totfact>
</mgrwt>
</event>
<event>
 4    1  0.4244376E-001  0.7529189E+02  0.7818608E-02  0.1342970E+00
          1   -1    0    0  501    0  0.00000000000E+00  0.00000000000E+00  0.52580899517E+02  0.52580899725E+02  0.46700000000E-02 0. -1.
         -1   -1    0    0    0  501 -0.00000000000E+00 -0.00000000000E+00 -0.26953077610E+02  0.26953078014E+02  0.46700000000E-02 0.  1.
        -11    1    1    2    0    0 -0.35978782520E+02  0.10775643581E+02  0.10093999029E+02  0.38890565731E+02  0.51100000000E-03 0. -1.
         11    1    1    2    0    0  0.35978782520E+02 -0.10775643581E+02  0.15533822878E+02  0.40643412008E+02  0.51100000000E-03 0.  1.
<mgrwt>
<rscale>  0 0.75291888E+02</rscale>
<asrwt>0</asrwt>
<pdfrwt beam="1">  1        1 0.80893692E-02 0.75291888E+02</pdfrwt>
<pdfrwt beam="2">  1       -1 0.41466274E-02 0.75291888E+02</pdfrwt>
<totfact> 0.15985360E+05</totfact>
</mgrwt>
</event>
<event>
 4    1  0.4244376E-001  0.2070324E+02  0.7818608E-02  0.1731694E+00
         -1   -1    0    0    0  501 -0.00000000000E+00  0.00000000000E+00  0.41020013053E+02  0.41020013319E+02  0.46700000000E-02 0. -1.
          1   -1    0    0  501    0  0.00000000000E+00 -0.00000000000E+00 -0.26122843159E+01  0.26122884902E+01  0.46700000000E-02 0.  1.
        -11    1    1    2    0    0 -0.20420393425E+01 -0.10113787235E+02  0.20963877480E+02  0.23365418382E+02  0.51100000000E-03 0.  1.
         11    1    1    2    0    0  0.20420393425E+01  0.10113787235E+02  0.17443851256E+02  0.20266883427E+02  0.51100000000E-03 0. -1.
<mgrwt>
<rscale>  0 0.20703240E+02</rscale>
<asrwt>0</asrwt>
<pdfrwt beam="2">  1        1 0.40189026E-03 0.20703240E+02</pdfrwt>
<pdfrwt beam="1">  1       -1 0.63107713E-02 0.20703240E+02</pdfrwt>
<totfact> 0.32978276E+06</totfact>
</mgrwt>
</event>
<event>
 4    1  0.4244376E-001  0.7693939E+02  0.7818608E-02  0.1337968E+00
         -1   -1    0    0    0  501 -0.00000000000E+00  0.00000000000E+00  0.93721357254E+02  0.93721357371E+02  0.46700000000E-02 0.  1.
          1   -1    0    0  501    0  0.00000000000E+00 -0.00000000000E+00 -0.15790609274E+02  0.15790609965E+02  0.46700000000E-02 0. -1.
        -11    1    1    2    0    0  0.26918928243E+02 -0.25617040062E+02  0.24799182529E+02  0.44675058967E+02  0.51100000000E-03 0.  1.
         11    1    1    2    0    0 -0.26918928243E+02  0.25617040062E+02  0.53131565451E+02  0.64836908369E+02  0.51100000000E-03 0. -1.
<mgrwt>
<rscale>  0 0.76939389E+02</rscale>
<asrwt>0</asrwt>
<pdfrwt beam="2">  1        1 0.24293246E-02 0.76939389E+02</pdfrwt>
<pdfrwt beam="1">  1       -1 0.14418670E-01 0.76939389E+02</pdfrwt>
<totfact> 0.12721495E+05</totfact>
</mgrwt>
</event>
<event>
 4    1  0.4244376E-001  0.2060698E+02  0.7818608E-02  0.1733520E+00
          1   -1    0    0  501    0  0.00000000000E+00  0.00000000000E+00  0.10445940663E+03  0.10445940673E+03  0.46700000000E-02 0.  1.
         -1   -1    0    0    0  501 -0.00000000000E+00 -0.00000000000E+00 -0.10162924534E+01  0.10163031830E+01  0.46700000000E-02 0. -1.
        -11    1    1    2    0    0  0.71568696970E+01 -0.72441411314E+01  0.43687857130E+02  0.44858970401E+02  0.51100000000E-03 0. -1.
         11    1    1    2    0    0 -0.71568696970E+01  0.72441411314E+01  0.59755257044E+02  0.60616739514E+02  0.51100000000E-03 0.  1.
<mgrwt>
<rscale>  0 0.20606977E+02</rscale>
<asrwt>0</asrwt>
<pdfrwt beam="1">  1        1 0.16070678E-01 0.20606977E+02</pdfrwt>
<pdfrwt beam="2">  1       -1 0.15635353E-03 0.20606977E+02</pdfrwt>
<totfact> 0.41724152E+06</totfact>
</mgrwt>
</event>
<event>
 4    1  0.4244376E-001  0.6464626E+02  0.7818608E-02  0.1379307E+00
         -1   -1    0    0    0  501 -0.00000000000E+00  0.00000000000E+00  0.42163223943E+02  0.42163224202E+02  0.46700000000E-02 0.  1.
          1   -1    0    0  501    0  0.00000000000E+00 -0.00000000000E+00 -0.24779527762E+02  0.24779528202E+02  0.46700000000E-02 0. -1.
        -11    1    1    2    0    0 -0.14248769058E+02  0.10829098390E+02  0.36564336727E+02  0.40709304983E+02  0.51100000000E-03 0.  1.
         11    1    1    2    0    0  0.14248769058E+02 -0.10829098390E+02 -0.19180640546E+02  0.26233447421E+02  0.51100000000E-03 0. -1.
<mgrwt>
<rscale>  0 0.64646262E+02</rscale>
<asrwt>0</asrwt>
<pdfrwt beam="2">  1        1 0.38122351E-02 0.64646262E+02</pdfrwt>
<pdfrwt beam="1">  1       -1 0.64866498E-02 0.64646262E+02</pdfrwt>
<totfact> 0.22064512E+05</totfact>
</mgrwt>
</event>
<event>
 4    1  0.4244376E-001  0.2827544E+02  0.7818608E-02  0.1617973E+00
          1   -1    0    0  501    0  0.00000000000E+00  0.00000000000E+00  0.36584986414E+02  0.36584986712E+02  0.46700000000E-02 0. -1.
         -1   -1    0    0    0  501 -0.00000000000E+00 -0.00000000000E+00 -0.54633075830E+01  0.54633095790E+01  0.46700000000E-02 0.  1.
        -11    1    1    2    0    0  0.12840530085E+02  0.31962326921E+01  0.81581517088E+01  0.15545113568E+02  0.51100000000E-03 0.  1.
         11    1    1    2    0    0 -0.12840530085E+02 -0.31962326921E+01  0.22963527122E+02  0.26503182723E+02  0.51100000000E-03 0. -1.
<mgrwt>
<rscale>  0 0.28275437E+02</rscale>
<asrwt>0</asrwt>
<pdfrwt beam="1">  1        1 0.56284594E-02 0.28275437E+02</pdfrwt>
<pdfrwt beam="2">  1       -1 0.84050906E-03 0.28275437E+02</pdfrwt>
<totfact> 0.18460646E+06</totfact>
</mgrwt>
</event>
<event>
 4    1  0.4244376E-001  0.3198001E+02  0.7818608E-02  0.1577180E+00
         -1   -1    0    0    0  501 -0.00000000000E+00  0.00000000000E+00  0.16271228743E+03  0.16271228750E+03  0.46700000000E-02 0.  1.
          1   -1    0    0  501    0  0.00000000000E+00 -0.00000000000E+00 -0.15713604768E+01  0.15713674162E+01  0.46700000000E-02 0. -1.
        -11    1    1    2    0    0  0.15193900199E+02  0.49506771010E+01  0.77680770263E+02  0.79307413751E+02  0.51100000000E-03 0. -1.
         11    1    1    2    0    0 -0.15193900199E+02 -0.49506771010E+01  0.83460156691E+02  0.84976241162E+02  0.51100000000E-03 0.  1.
<mgrwt>
<rscale>  0 0.31980008E+02</rscale>
<asrwt>0</asrwt>
<pdfrwt beam="2">  1        1 0.24174838E-03 0.31980008E+02</pdfrwt>
<pdfrwt beam="1">  1       -1 0.25032652E-01 0.31980008E+02</pdfrwt>
<totfact> 0.99501824E+05</totfact>
</mgrwt>
</event>
<event>
 4    1  0.4244376E-001  0.4185754E+02  0.7818608E-02  0.1494970E+00
          1   -1    0    0  501    0  0.00000000000E+00  0.00000000000E+00  0.62930262668E+01  0.62930279996E+01  0.46700000000E-02 0. -1.
         -1   -1    0    0    0  501 -0.00000000000E+00 -0.00000000000E+00 -0.69602986956E+02  0.69602987113E+02  0.46700000000E-02 0.  1.
        -11    1    1    2    0    0  0.67617729076E+00  0.13481725797E+02 -0.26551838317E+01  0.13757330687E+02  0.51100000000E-03 0. -1.
         11    1    1    2    0    0 -0.67617729076E+00 -0.13481725797E+02 -0.60654776858E+02  0.62138684425E+02  0.51100000000E-03 0.  1.
<mgrwt>
<rscale>  0 0.41857544E+02</rscale>
<asrwt>0</asrwt>
<pdfrwt beam="1">  1        1 0.96815808E-03 0.41857544E+02</pdfrwt>
<pdfrwt beam="2">  1       -1 0.10708151E-01 0.41857544E+02</pdfrwt>
<totfact> 0.60665685E+05</totfact>
</mgrwt>
</event>
<event>
 4    1  0.4244376E-001  0.3417508E+02  0.7818608E-02  0.1556050E+00
         -1   -1    0    0    0  501 -0.00000000000E+00  0.00000000000E+00  0.84514154524E+02  0.84514154653E+02  0.46700000000E-02 0.  1.
          1   -1    0    0  501    0  0.00000000000E+00 -0.00000000000E+00 -0.34548523424E+01  0.34548554987E+01  0.46700000000E-02 0. -1.
        -11    1    1    2    0    0 -0.10431164156E+02  0.11813305528E+02  0.57530336290E+02  0.59649836270E+02  0.51100000000E-03 0.  1.
         11    1    1    2    0    0  0.10431164156E+02 -0.11813305528E+02  0.23528965892E+02  0.28319173882E+02  0.51100000000E-03 0. -1.
<mgrwt>
<rscale>  0 0.34175083E+02</rscale>
<asrwt>0</asrwt>
<pdfrwt beam="2">  1        1 0.53151596E-03 0.34175083E+02</pdfrwt>
<pdfrwt beam="1">  1       -1 0.13002179E-01 0.34175083E+02</pdfrwt>
<totfact> 0.96113314E+05</totfact>
</mgrwt>
</event>
<event>
 4    1  0.4244376E-001  0.3258884E+02  0.7818608E-02  0.1571118E+00
         -1   -1    0    0    0  501 -0.00000000000E+00  0.00000000000E+00  0.41290934966E+02  0.41290935230E+02  0.46700000000E-02 0.  1.
          1   -1    0    0  501    0  0.00000000000E+00 -0.00000000000E+00 -0.64301773519E+01  0.64301790478E+01  0.46700000000E-02 0. -1.
        -11    1    1    2    0    0 -0.80295656626E+01  0.14178377525E+02  0.17559435012E+02  0.23954834005E+02  0.51100000000E-03 0. -1.
         11    1    1    2    0    0  0.80295656626E+01 -0.14178377525E+02  0.17301322601E+02  0.23766280273E+02  0.51100000000E-03 0.  1.
<mgrwt>
<rscale>  0 0.32588837E+02</rscale>
<asrwt>0</asrwt>
<pdfrwt beam="2">  1        1 0.98925820E-03 0.32588837E+02</pdfrwt>
<pdfrwt beam="1">  1       -1 0.63524517E-02 0.32588837E+02</pdfrwt>
<totfact> 0.11678122E+06</totfact>
</mgrwt>
</event>
<event>
 4    1  0.4244376E-001  0.2162782E+02  0.7818608E-02  0.1714769E+00
         -1   -1    0    0    0  501 -0.00000000000E+00  0.00000000000E+00  0.60271112158E+01  0.60271130250E+01  0.46700000000E-02 0. -1.
          1   -1    0    0  501    0  0.00000000000E+00 -0.00000000000E+00 -0.19402441274E+02  0.19402441836E+02  0.46700000000E-02 0.  1.
        -11    1    1    2    0    0 -0.57046582184E+01  0.85634595476E+01 -0.10598742806E+02  0.14771909631E+02  0.51100000000E-03 0.  1.
         11    1    1    2    0    0  0.57046582184E+01 -0.85634595476E+01 -0.27765872513E+01  0.10657645229E+02  0.51100000000E-03 0. -1.
<mgrwt>
<rscale>  0 0.21627825E+02</rscale>
<asrwt>0</asrwt>
<pdfrwt beam="2">  1        1 0.29849911E-02 0.21627825E+02</pdfrwt>
<pdfrwt beam="1">  1       -1 0.92724807E-03 0.21627825E+02</pdfrwt>
<totfact> 0.33221182E+06</totfact>
</mgrwt>
</event>
<event>
 4    1  0.4244376E-001  0.2556694E+02  0.7818608E-02  0.1652990E+00
         -1   -1    0    0    0  501 -0.00000000000E+00  0.00000000000E+00  0.16698669228E+01  0.16698734529E+01  0.46700000000E-02 0. -1.
          1   -1    0    0  501    0  0.00000000000E+00 -0.00000000000E+00 -0.97862184082E+02  0.97862184194E+02  0.46700000000E-02 0.  1.
        -11    1    1    2    0    0 -0.19226866979E+01  0.11704415922E+02 -0.29537098912E+02  0.31829707642E+02  0.51100000000E-03 0. -1.
         11    1    1    2    0    0  0.19226866979E+01 -0.11704415922E+02 -0.66655218248E+02  0.67702350004E+02  0.51100000000E-03 0.  1.
<mgrwt>
<rscale>  0 0.25566944E+02</rscale>
<asrwt>0</asrwt>
<pdfrwt beam="2">  1        1 0.15055717E-01 0.25566944E+02</pdfrwt>
<pdfrwt beam="1">  1       -1 0.25690319E-03 0.25566944E+02</pdfrwt>
<totfact> 0.25443386E+06</totfact>
</mgrwt>
</event>
<event>
 4    1  0.4244376E-001  0.1122794E+03  0.7818608E-02  0.1256406E+00
          1   -1    0    0  501    0  0.00000000000E+00  0.00000000000E+00  0.40228626437E+02  0.40228626709E+02  0.46700000000E-02 0. -1.
         -1   -1    0    0    0  501 -0.00000000000E+00 -0.00000000000E+00 -0.78343859107E+02  0.78343859247E+02  0.46700000000E-02 0.  1.
        -11    1    1    2    0    0 -0.30650510270E+02  0.21666309937E+02 -0.63144105534E+02  0.73457884736E+02  0.51100000000E-03 0.  1.
         11    1    1    2    0    0  0.30650510270E+02 -0.21666309937E+02  0.25028872864E+02  0.45114601219E+02  0.51100000000E-03 0. -1.
<mgrwt>
<rscale>  0 0.11227940E+03</rscale>
<asrwt>0</asrwt>
<pdfrwt beam="1">  1        1 0.61890195E-02 0.11227940E+03</pdfrwt>
<pdfrwt beam="2">  1       -1 0.12052901E-01 0.11227940E+03</pdfrwt>
<totfact> 0.49829548E+04</totfact>
</mgrwt>
</event>
<event>
 4    1  0.4244376E-001  0.4011428E+02  0.7818608E-02  0.1507372E+00
          1   -1    0    0  501    0  0.00000000000E+00  0.00000000000E+00  0.10549783729E+03  0.10549783739E+03  0.46700000000E-02 0. -1.
         -1   -1    0    0    0  501 -0.00000000000E+00 -0.00000000000E+00 -0.38132419740E+01  0.38132448336E+01  0.46700000000E-02 0.  1.
        -11    1    1    2    0    0 -0.12275437485E+02 -0.13290228483E+02  0.74437074263E+02  0.76604141948E+02  0.51100000000E-03 0. -1.
         11    1    1    2    0    0  0.12275437485E+02  0.13290228483E+02  0.27247521052E+02  0.32706940277E+02  0.51100000000E-03 0.  1.
<mgrwt>
<rscale>  0 0.40114284E+02</rscale>
<asrwt>0</asrwt>
<pdfrwt beam="1">  1        1 0.16230439E-01 0.40114284E+02</pdfrwt>
<pdfrwt beam="2">  1       -1 0.58665276E-03 0.40114284E+02</pdfrwt>
<totfact> 0.87973114E+05</totfact>
</mgrwt>
</event>
<event>
 4    1  0.4244376E-001  0.4474472E+02  0.7818608E-02  0.1475942E+00
         -1   -1    0    0    0  501 -0.00000000000E+00  0.00000000000E+00  0.43887497580E+02  0.43887497828E+02  0.46700000000E-02 0.  1.
          1   -1    0    0  501    0  0.00000000000E+00 -0.00000000000E+00 -0.11404669134E+02  0.11404670090E+02  0.46700000000E-02 0. -1.
        -11    1    1    2    0    0  0.11379892278E+02 -0.16674761673E+02  0.43262563254E+01  0.20646213192E+02  0.51100000000E-03 0. -1.
         11    1    1    2    0    0 -0.11379892278E+02  0.16674761673E+02  0.28156572120E+02  0.34645954727E+02  0.51100000000E-03 0.  1.
<mgrwt>
<rscale>  0 0.44744717E+02</rscale>
<asrwt>0</asrwt>
<pdfrwt beam="2">  1        1 0.17545646E-02 0.44744717E+02</pdfrwt>
<pdfrwt beam="1">  1       -1 0.67519228E-02 0.44744717E+02</pdfrwt>
<totfact> 0.54356560E+05</totfact>
</mgrwt>
</event>
<event>
 4    1  0.4244376E-001  0.2193970E+02  0.7818608E-02  0.1709297E+00
          1   -1    0    0  501    0  0.00000000000E+00  0.00000000000E+00  0.17188705542E+02  0.17188706176E+02  0.46700000000E-02 0. -1.
         -1   -1    0    0    0  501 -0.00000000000E+00 -0.00000000000E+00 -0.70009664483E+01  0.70009680059E+01  0.46700000000E-02 0.  1.
        -11    1    1    2    0    0 -0.45626317176E+01 -0.98230119641E+01  0.31751727335E+01  0.11286757479E+02  0.51100000000E-03 0.  1.
         11    1    1    2    0    0  0.45626317176E+01  0.98230119641E+01  0.70125663599E+01  0.12902916703E+02  0.51100000000E-03 0. -1.
<mgrwt>
<rscale>  0 0.21939697E+02</rscale>
<asrwt>0</asrwt>
<pdfrwt beam="1">  1        1 0.26444164E-02 0.21939697E+02</pdfrwt>
<pdfrwt beam="2">  1       -1 0.10770719E-02 0.21939697E+02</pdfrwt>
<totfact> 0.31983575E+06</totfact>
</mgrwt>
</event>
<event>
 4    1  0.4244376E-001  0.3320533E+02  0.7818608E-02  0.1565141E+00
         -1   -1    0    0    0  501 -0.00000000000E+00  0.00000000000E+00  0.95861244792E+02  0.95861244906E+02  0.46700000000E-02 0. -1.
          1   -1    0    0  501    0  0.00000000000E+00 -0.00000000000E+00 -0.28754927354E+01  0.28754965276E+01  0.46700000000E-02 0.  1.
        -11    1    1    2    0    0  0.15981915441E+02 -0.32978828651E+00  0.59830077589E+02  0.61928737804E+02  0.51100000000E-03 0. -1.
         11    1    1    2    0    0 -0.15981915441E+02  0.32978828651E+00  0.33155674467E+02  0.36808003629E+02  0.51100000000E-03 0.  1.
<mgrwt>
<rscale>  0 0.33205331E+02</rscale>
<asrwt>0</asrwt>
<pdfrwt beam="2">  1        1 0.44238380E-03 0.33205331E+02</pdfrwt>
<pdfrwt beam="1">  1       -1 0.14747884E-01 0.33205331E+02</pdfrwt>
<totfact> 0.10094184E+06</totfact>
</mgrwt>
</event>
<event>
 4    1  0.4244376E-001  0.8766648E+02  0.7818608E-02  0.1308603E+00
          1   -1    0    0  501    0  0.00000000000E+00  0.00000000000E+00  0.13454661042E+03  0.13454661051E+03  0.46700000000E-02 0. -1.
         -1   -1    0    0    0  501 -0.00000000000E+00 -0.00000000000E+00 -0.14280201855E+02  0.14280202618E+02  0.46700000000E-02 0.  1.
        -11    1    1    2    0    0  0.42400582925E+02 -0.10961771082E+02  0.63255658675E+02  0.76936650644E+02  0.51100000000E-03 0. -1.
         11    1    1    2    0    0 -0.42400582925E+02  0.10961771082E+02  0.57010749894E+02  0.71890162480E+02  0.51100000000E-03 0.  1.
<mgrwt>
<rscale>  0 0.87666477E+02</rscale>
<asrwt>0</asrwt>
<pdfrwt beam="1">  1        1 0.20699479E-01 0.87666477E+02</pdfrwt>
<pdfrwt beam="2">  1       -1 0.21969542E-02 0.87666477E+02</pdfrwt>
<totfact> 0.12221602E+05</totfact>
</mgrwt>
</event>
<event>
 4    1  0.4244376E-001  0.3281692E+02  0.7818608E-02  0.1568888E+00
          1   -1    0    0  501    0  0.00000000000E+00  0.00000000000E+00  0.37394031145E+01  0.37394060306E+01  0.46700000000E-02 0.  1.
         -1   -1    0    0    0  501 -0.00000000000E+00 -0.00000000000E+00 -0.72000098928E+02  0.72000099080E+02  0.46700000000E-02 0. -1.
        -11    1    1    2    0    0 -0.15336518359E+02 -0.52972334958E+01 -0.39768545026E+02  0.42951212460E+02  0.51100000000E-03 0.  1.
         11    1    1    2    0    0  0.15336518359E+02  0.52972334958E+01 -0.28492150788E+02  0.32788292650E+02  0.51100000000E-03 0. -1.
<mgrwt>
<rscale>  0 0.32816917E+02</rscale>
<asrwt>0</asrwt>
<pdfrwt beam="1">  1        1 0.57529307E-03 0.32816917E+02</pdfrwt>
<pdfrwt beam="2">  1       -1 0.11076938E-01 0.32816917E+02</pdfrwt>
<totfact> 0.10814410E+06</totfact>
</mgrwt>
</event>
<event>
 4    1  0.4244376E-001  0.2895813E+02  0.7818608E-02  0.1609899E+00
         -1   -1    0    0    0  501 -0.00000000000E+00  0.00000000000E+00  0.18704873480E+01  0.18704931777E+01  0.46700000000E-02 0. -1.
          1   -1    0    0  501    0  0.00000000000E+00 -0.00000000000E+00 -0.11207937403E+03  0.11207937413E+03  0.46700000000E-02 0.  1.
        -11    1    1    2    0    0 -0.82320259125E+01 -0.11602457912E+02 -0.44501784386E+02  0.46720360594E+02  0.51100000000E-03 0. -1.
         11    1    1    2    0    0  0.82320259125E+01  0.11602457912E+02 -0.65707102295E+02  0.67229506710E+02  0.51100000000E-03 0.  1.
<mgrwt>
<rscale>  0 0.28958135E+02</rscale>
<asrwt>0</asrwt>
<pdfrwt beam="2">  1        1 0.17242976E-01 0.28958135E+02</pdfrwt>
<pdfrwt beam="1">  1       -1 0.28776783E-03 0.28958135E+02</pdfrwt>
<totfact> 0.19369010E+06</totfact>
</mgrwt>
</event>
<event>
 4    1  0.4244376E-001  0.4629752E+02  0.7818608E-02  0.1466400E+00
          1   -1    0    0  501    0  0.00000000000E+00  0.00000000000E+00  0.20333066070E+02  0.20333066607E+02  0.46700000000E-02 0.  1.
         -1   -1    0    0    0  501 -0.00000000000E+00 -0.00000000000E+00 -0.26354366902E+02  0.26354367316E+02  0.46700000000E-02 0. -1.
        -11    1    1    2    0    0  0.18340753918E+02  0.11507918253E+02  0.52466975786E+01  0.22278762815E+02  0.51100000000E-03 0.  1.
         11    1    1    2    0    0 -0.18340753918E+02 -0.11507918253E+02 -0.11267998411E+02  0.24408671108E+02  0.51100000000E-03 0. -1.
<mgrwt>
<rscale>  0 0.46297521E+02</rscale>
<asrwt>0</asrwt>
<pdfrwt beam="1">  1        1 0.31281641E-02 0.46297521E+02</pdfrwt>
<pdfrwt beam="2">  1       -1 0.40545180E-02 0.46297521E+02</pdfrwt>
<totfact> 0.52436730E+05</totfact>
</mgrwt>
</event>
<event>
 4    1  0.4244376E-001  0.5441871E+02  0.7818608E-02  0.1422868E+00
         -1   -1    0    0    0  501 -0.00000000000E+00  0.00000000000E+00  0.78781074586E+02  0.78781074724E+02  0.46700000000E-02 0.  1.
          1   -1    0    0  501    0  0.00000000000E+00 -0.00000000000E+00 -0.93975467297E+01  0.93975478900E+01  0.46700000000E-02 0. -1.
        -11    1    1    2    0    0 -0.34537671556E+01  0.24103518875E+02  0.15016350021E+02  0.28607672012E+02  0.51100000000E-03 0. -1.
         11    1    1    2    0    0  0.34537671556E+01 -0.24103518875E+02  0.54367177835E+02  0.59570950603E+02  0.51100000000E-03 0.  1.
<mgrwt>
<rscale>  0 0.54418706E+02</rscale>
<asrwt>0</asrwt>
<pdfrwt beam="2">  1        1 0.14457765E-02 0.54418706E+02</pdfrwt>
<pdfrwt beam="1">  1       -1 0.12120166E-01 0.54418706E+02</pdfrwt>
<totfact> 0.31300047E+05</totfact>
</mgrwt>
</event>
<event>
 4    1  0.4244376E-001  0.8790728E+02  0.7818608E-02  0.1308000E+00
         -1   -1    0    0    0  501 -0.00000000000E+00  0.00000000000E+00  0.31796009043E+02  0.31796009386E+02  0.46700000000E-02 0.  1.
          1   -1    0    0  501    0  0.00000000000E+00 -0.00000000000E+00 -0.60759909838E+02  0.60759910018E+02  0.46700000000E-02 0. -1.
        -11    1    1    2    0    0 -0.13580505280E+02 -0.27742383295E+02  0.18442312198E+02  0.35974836122E+02  0.51100000000E-03 0.  1.
         11    1    1    2    0    0  0.13580505280E+02  0.27742383295E+02 -0.47406212994E+02  0.56581083281E+02  0.51100000000E-03 0. -1.
<mgrwt>
<rscale>  0 0.87907284E+02</rscale>
<asrwt>0</asrwt>
<pdfrwt beam="2">  1        1 0.93476785E-02 0.87907284E+02</pdfrwt>
<pdfrwt beam="1">  1       -1 0.48916938E-02 0.87907284E+02</pdfrwt>
<totfact> 0.10680436E+05</totfact>
</mgrwt>
</event>
<event>
 4    1  0.4244376E-001  0.3554755E+02  0.7818608E-02  0.1543791E+00
         -1   -1    0    0    0  501 -0.00000000000E+00  0.00000000000E+00  0.80743174657E+02  0.80743174792E+02  0.46700000000E-02 0. -1.
          1   -1    0    0  501    0  0.00000000000E+00 -0.00000000000E+00 -0.39124921532E+01  0.39124949403E+01  0.46700000000E-02 0.  1.
        -11    1    1    2    0    0 -0.15126285753E+02 -0.57338117538E+01  0.20878544237E+02  0.26412018621E+02  0.51100000000E-03 0. -1.
         11    1    1    2    0    0  0.15126285753E+02  0.57338117538E+01  0.55952138266E+02  0.58243651111E+02  0.51100000000E-03 0.  1.
<mgrwt>
<rscale>  0 0.35547555E+02</rscale>
<asrwt>0</asrwt>
<pdfrwt beam="2">  1        1 0.60192207E-03 0.35547555E+02</pdfrwt>
<pdfrwt beam="1">  1       -1 0.12422028E-01 0.35547555E+02</pdfrwt>
<totfact> 0.88101590E+05</totfact>
</mgrwt>
</event>
<event>
 4    1  0.4244376E-001  0.3210058E+02  0.7818608E-02  0.1575966E+00
         -1   -1    0    0    0  501 -0.00000000000E+00  0.00000000000E+00  0.17376125106E+02  0.17376125734E+02  0.46700000000E-02 0. -1.
          1   -1    0    0  501    0  0.00000000000E+00 -0.00000000000E+00 -0.14825621239E+02  0.14825621974E+02  0.46700000000E-02 0.  1.
        -11    1    1    2    0    0  0.41365613899E+01  0.14792037533E+02  0.59478660455E+01  0.16470963095E+02  0.51100000000E-03 0.  1.
         11    1    1    2    0    0 -0.41365613899E+01 -0.14792037533E+02 -0.33973621781E+01  0.15730784613E+02  0.51100000000E-03 0. -1.
<mgrwt>
<rscale>  0 0.32100584E+02</rscale>
<asrwt>0</asrwt>
<pdfrwt beam="2">  1        1 0.22808649E-02 0.32100584E+02</pdfrwt>
<pdfrwt beam="1">  1       -1 0.26732501E-02 0.32100584E+02</pdfrwt>
<totfact> 0.12890953E+06</totfact>
</mgrwt>
</event>
<event>
 4    1  0.4244376E-001  0.2299214E+02  0.7818608E-02  0.1691638E+00
          1   -1    0    0  501    0  0.00000000000E+00  0.00000000000E+00  0.69970235339E+01  0.69970250924E+01  0.46700000000E-02 0. -1.
         -1   -1    0    0    0  501 -0.00000000000E+00 -0.00000000000E+00 -0.18887976109E+02  0.18887976687E+02  0.46700000000E-02 0.  1.
        -11    1    1    2    0    0 -0.10662574846E+02 -0.42621324455E+01 -0.65655621123E+01  0.13227353531E+02  0.51100000000E-03 0. -1.
         11    1    1    2    0    0  0.10662574846E+02  0.42621324455E+01 -0.53253904633E+01  0.12657648248E+02  0.51100000000E-03 0.  1.
<mgrwt>
<rscale>  0 0.22992141E+02</rscale>
<asrwt>0</asrwt>
<pdfrwt beam="1">  1        1 0.10764653E-02 0.22992141E+02</pdfrwt>
<pdfrwt beam="2">  1       -1 0.29058426E-02 0.22992141E+02</pdfrwt>
<totfact> 0.27532925E+06</totfact>
</mgrwt>
</event>
<event>
 4    1  0.4244376E-001  0.4178869E+02  0.7818608E-02  0.1495447E+00
          1   -1    0    0  501    0  0.00000000000E+00  0.00000000000E+00  0.18829624213E+02  0.18829624792E+02  0.46700000000E-02 0.  1.
         -1   -1    0    0    0  501 -0.00000000000E+00 -0.00000000000E+00 -0.23185465609E+02  0.23185466080E+02  0.46700000000E-02 0. -1.
        -11    1    1    2    0    0  0.16331788273E+02 -0.12849859724E+02  0.81228490317E-02  0.20780911177E+02  0.51100000000E-03 0.  1.
         11    1    1    2    0    0 -0.16331788273E+02  0.12849859724E+02 -0.43639642451E+01  0.21234179695E+02  0.51100000000E-03 0. -1.
<mgrwt>
<rscale>  0 0.41788689E+02</rscale>
<asrwt>0</asrwt>
<pdfrwt beam="1">  1        1 0.28968653E-02 0.41788689E+02</pdfrwt>
<pdfrwt beam="2">  1       -1 0.35669948E-02 0.41788689E+02</pdfrwt>
<totfact> 0.67793116E+05</totfact>
</mgrwt>
</event>
<event>
 4    1  0.4244376E-001  0.3619728E+02  0.7818608E-02  0.1538218E+00
         -1   -1    0    0    0  501 -0.00000000000E+00  0.00000000000E+00  0.34207353589E+01  0.34207385467E+01  0.46700000000E-02 0. -1.
          1   -1    0    0  501    0  0.00000000000E+00 -0.00000000000E+00 -0.95757389514E+02  0.95757389628E+02  0.46700000000E-02 0.  1.
        -11    1    1    2    0    0 -0.18049209133E+02 -0.46870271912E+00 -0.42738242953E+02  0.46395592932E+02  0.51100000000E-03 0.  1.
         11    1    1    2    0    0  0.18049209133E+02  0.46870271912E+00 -0.49598411202E+02  0.52782535242E+02  0.51100000000E-03 0. -1.
<mgrwt>
<rscale>  0 0.36197285E+02</rscale>
<asrwt>0</asrwt>
<pdfrwt beam="2">  1        1 0.14731904E-01 0.36197285E+02</pdfrwt>
<pdfrwt beam="1">  1       -1 0.52626730E-03 0.36197285E+02</pdfrwt>
<totfact> 0.11163976E+06</totfact>
</mgrwt>
</event>
