<event>
 4    1  0.2165211E+000  0.3877555E+02  0.7546771E-02  0.1517420E+00
         -1   -1    0    0    0  501 -0.00000000000E+00  0.00000000000E+00  0.57011147246E+01  0.57011147246E+01  0.00000000000E+00 0.  1.
          1   -1    0    0  501    0  0.00000000000E+00 -0.00000000000E+00 -0.65932001332E+02  0.65932001332E+02  0.00000000000E+00 0. -1.
        -11    1    1    2    0    0 -0.13398977947E+02 -0.16673464061E+01 -0.55818128588E+02  0.57428008263E+02  0.00000000000E+00 0. -1.
         11    1    1    2    0    0  0.13398977947E+02  0.16673464061E+01 -0.44127580193E+01  0.14205107793E+02  0.00000000000E+00 0.  1.
<mgrwt>
<rscale>  0 0.38775554E+02</rscale>
<asrwt>0</asrwt>
<pdfrwt beam="2">  1        1 0.10143384E-01 0.38775554E+02</pdfrwt>
<pdfrwt beam="1">  1       -1 0.87709461E-03 0.38775554E+02</pdfrwt>
<totfact> 0.90560573E+05</totfact>
</mgrwt>
</event>
<event>
 4    1  0.2165211E+000  0.2303125E+02  0.7546771E-02  0.1691004E+00
          4   -1    0    0  501    0  0.00000000000E+00  0.00000000000E+00  0.27758753579E+02  0.27758753579E+02  0.00000000000E+00 0.  1.
         -4   -1    0    0    0  501 -0.00000000000E+00 -0.00000000000E+00 -0.47772165552E+01  0.47772165552E+01  0.00000000000E+00 0. -1.
        -11    1    1    2    0    0  0.11378345744E+02 -0.79839351838E+00  0.92547043784E+01  0.14688558037E+02  0.00000000000E+00 0.  1.
         11    1    1    2    0    0 -0.11378345744E+02  0.79839351838E+00  0.13726832646E+02  0.17847412097E+02  0.00000000000E+00 0. -1.
<mgrwt>
<rscale>  0 0.23031246E+02</rscale>
<asrwt>0</asrwt>
<pdfrwt beam="1">  1        4 0.42705774E-02 0.23031246E+02</pdfrwt>
<pdfrwt beam="2">  1       -4 0.73495641E-03 0.23031246E+02</pdfrwt>
<totfact> 0.91929726E+05</totfact>
</mgrwt>
</event>
<event>
 4    1  0.2165211E+000  0.4759804E+02  0.7546771E-02  0.1458745E+00
          2   -1    0    0  501    0  0.00000000000E+00  0.00000000000E+00  0.77751034246E+02  0.77751034246E+02  0.00000000000E+00 0.  1.
         -2   -1    0    0    0  501 -0.00000000000E+00 -0.00000000000E+00 -0.72847042091E+01  0.72847042091E+01  0.00000000000E+00 0. -1.
        -11    1    1    2    0    0 -0.49374961684E+01  0.23227195237E+02  0.38064600397E+02  0.44864186946E+02  0.00000000000E+00 0. -1.
         11    1    1    2    0    0  0.49374961684E+01 -0.23227195237E+02  0.32401729640E+02  0.40171551509E+02  0.00000000000E+00 0.  1.
<mgrwt>
<rscale>  0 0.47598037E+02</rscale>
<asrwt>0</asrwt>
<pdfrwt beam="1">  1        2 0.11961697E-01 0.47598037E+02</pdfrwt>
<pdfrwt beam="2">  1       -2 0.11207238E-02 0.47598037E+02</pdfrwt>
<totfact> 0.63764822E+05</totfact>
</mgrwt>
</event>
<event>
 4    1  0.2165211E+000  0.5802447E+02  0.7546771E-02  0.1406314E+00
         -2   -1    0    0    0  501 -0.00000000000E+00  0.00000000000E+00  0.12724900675E+02  0.12724900675E+02  0.00000000000E+00 0.  1.
          2   -1    0    0  501    0  0.00000000000E+00 -0.00000000000E+00 -0.66146673325E+02  0.66146673325E+02  0.00000000000E+00 0. -1.
        -11    1    1    2    0    0 -0.24840175679E+02 -0.11827876748E+02 -0.39226379012E+02  0.47912856380E+02  0.00000000000E+00 0. -1.
         11    1    1    2    0    0  0.24840175679E+02  0.11827876748E+02 -0.14195393637E+02  0.30958717620E+02  0.00000000000E+00 0.  1.
<mgrwt>
<rscale>  0 0.58024472E+02</rscale>
<asrwt>0</asrwt>
<pdfrwt beam="2">  1        2 0.10176411E-01 0.58024472E+02</pdfrwt>
<pdfrwt beam="1">  1       -2 0.19576770E-02 0.58024472E+02</pdfrwt>
<totfact> 0.36958126E+05</totfact>
</mgrwt>
</event>
<event>
 4    1  0.2165211E+000  0.3564149E+02  0.7546771E-02  0.1542977E+00
          2   -1    0    0  501    0  0.00000000000E+00  0.00000000000E+00  0.10901193791E+03  0.10901193791E+03  0.00000000000E+00 0. -1.
         -2   -1    0    0    0  501 -0.00000000000E+00 -0.00000000000E+00 -0.29132499474E+01  0.29132499474E+01  0.00000000000E+00 0.  1.
        -13    1    1    2    0    0  0.85138053166E+01 -0.15562114559E+02  0.47688030074E+02  0.50880374437E+02  0.00000000000E+00 0.  1.
         13    1    1    2    0    0 -0.85138053166E+01  0.15562114559E+02  0.58410657885E+02  0.61044813416E+02  0.00000000000E+00 0. -1.
<mgrwt>
<rscale>  0 0.35641494E+02</rscale>
<asrwt>0</asrwt>
<pdfrwt beam="1">  1        2 0.16771064E-01 0.35641494E+02</pdfrwt>
<pdfrwt beam="2">  1       -2 0.44819238E-03 0.35641494E+02</pdfrwt>
<totfact> 0.14147427E+06</totfact>
</mgrwt>
</event>
<event>
 4    1  0.2165211E+000  0.3470483E+02  0.7546771E-02  0.1551237E+00
          2   -1    0    0  501    0  0.00000000000E+00  0.00000000000E+00  0.90560093481E+02  0.90560093481E+02  0.00000000000E+00 0. -1.
         -2   -1    0    0    0  501 -0.00000000000E+00 -0.00000000000E+00 -0.33249331713E+01  0.33249331713E+01  0.00000000000E+00 0.  1.
        -13    1    1    2    0    0  0.88425369136E+00  0.13842785402E+02  0.71822476503E+02  0.73149659899E+02  0.00000000000E+00 0. -1.
         13    1    1    2    0    0 -0.88425369136E+00 -0.13842785402E+02  0.15412683807E+02  0.20735366754E+02  0.00000000000E+00 0.  1.
<mgrwt>
<rscale>  0 0.34704827E+02</rscale>
<asrwt>0</asrwt>
<pdfrwt beam="1">  1        2 0.13932320E-01 0.34704827E+02</pdfrwt>
<pdfrwt beam="2">  1       -2 0.51152825E-03 0.34704827E+02</pdfrwt>
<totfact> 0.14416244E+06</totfact>
</mgrwt>
</event>
<event>
 4    1  0.2165211E+000  0.4292988E+02  0.7546771E-02  0.1487695E+00
         -2   -1    0    0    0  501 -0.00000000000E+00  0.00000000000E+00  0.61637970923E+02  0.61637970923E+02  0.00000000000E+00 0.  1.
          2   -1    0    0  501    0  0.00000000000E+00 -0.00000000000E+00 -0.74749959097E+01  0.74749959097E+01  0.00000000000E+00 0. -1.
        -11    1    1    2    0    0 -0.15500491047E+02  0.62714759436E+01  0.54136582753E+01  0.17575674358E+02  0.00000000000E+00 0. -1.
         11    1    1    2    0    0  0.15500491047E+02 -0.62714759436E+01  0.48749316738E+02  0.51537292475E+02  0.00000000000E+00 0.  1.
<mgrwt>
<rscale>  0 0.42929877E+02</rscale>
<asrwt>0</asrwt>
<pdfrwt beam="2">  1        2 0.11499994E-02 0.42929877E+02</pdfrwt>
<pdfrwt beam="1">  1       -2 0.94827644E-02 0.42929877E+02</pdfrwt>
<totfact> 0.56619103E+05</totfact>
</mgrwt>
</event>
<event>
 4    1  0.2165211E+000  0.3161119E+02  0.7546771E-02  0.1580933E+00
         -1   -1    0    0    0  501 -0.00000000000E+00  0.00000000000E+00  0.13583783123E+02  0.13583783123E+02  0.00000000000E+00 0. -1.
          1   -1    0    0  501    0  0.00000000000E+00 -0.00000000000E+00 -0.18390812494E+02  0.18390812494E+02  0.00000000000E+00 0.  1.
        -11    1    1    2    0    0  0.14526731922E+02 -0.74842473843E+00 -0.86576968073E+01  0.16927545420E+02  0.00000000000E+00 0.  1.
         11    1    1    2    0    0 -0.14526731922E+02  0.74842473843E+00  0.38506674363E+01  0.15047050197E+02  0.00000000000E+00 0. -1.
<mgrwt>
<rscale>  0 0.31611188E+02</rscale>
<asrwt>0</asrwt>
<pdfrwt beam="2">  1        1 0.28293558E-02 0.31611188E+02</pdfrwt>
<pdfrwt beam="1">  1       -1 0.20898128E-02 0.31611188E+02</pdfrwt>
<totfact> 0.13558813E+06</totfact>
</mgrwt>
</event>
<event>
 4    1  0.2165211E+000  0.2240782E+02  0.7546771E-02  0.1701293E+00
          1   -1    0    0  501    0  0.00000000000E+00  0.00000000000E+00  0.66944471429E+01  0.66944471429E+01  0.00000000000E+00 0.  1.
         -1   -1    0    0    0  501 -0.00000000000E+00 -0.00000000000E+00 -0.18750999699E+02  0.18750999699E+02  0.00000000000E+00 0. -1.
        -11    1    1    2    0    0 -0.65594555571E+01 -0.90774719895E+01 -0.63884862825E+01  0.12893397997E+02  0.00000000000E+00 0. -1.
         11    1    1    2    0    0  0.65594555571E+01  0.90774719895E+01 -0.56680662734E+01  0.12552048845E+02  0.00000000000E+00 0.  1.
<mgrwt>
<rscale>  0 0.22407818E+02</rscale>
<asrwt>0</asrwt>
<pdfrwt beam="1">  1        1 0.10299149E-02 0.22407818E+02</pdfrwt>
<pdfrwt beam="2">  1       -1 0.28847692E-02 0.22407818E+02</pdfrwt>
<totfact> 0.29177595E+06</totfact>
</mgrwt>
</event>
<event>
 4    1  0.2165211E+000  0.4277388E+02  0.7546771E-02  0.1488737E+00
         -2   -1    0    0    0  501 -0.00000000000E+00  0.00000000000E+00  0.19455461207E+02  0.19455461207E+02  0.00000000000E+00 0. -1.
          2   -1    0    0  501    0  0.00000000000E+00 -0.00000000000E+00 -0.23510171626E+02  0.23510171626E+02  0.00000000000E+00 0.  1.
        -13    1    1    2    0    0  0.14493558116E+02  0.93842425166E+01 -0.14704311483E+02  0.22679153659E+02  0.00000000000E+00 0.  1.
         13    1    1    2    0    0 -0.14493558116E+02 -0.93842425166E+01  0.10649601065E+02  0.20286479175E+02  0.00000000000E+00 0. -1.
<mgrwt>
<rscale>  0 0.42773881E+02</rscale>
<asrwt>0</asrwt>
<pdfrwt beam="2">  1        2 0.36169495E-02 0.42773881E+02</pdfrwt>
<pdfrwt beam="1">  1       -2 0.29931479E-02 0.42773881E+02</pdfrwt>
<totfact> 0.67858099E+05</totfact>
</mgrwt>
</event>
<event>
 4    1  0.2165211E+000  0.2619690E+02  0.7546771E-02  0.1644383E+00
          2   -1    0    0  501    0  0.00000000000E+00  0.00000000000E+00  0.80527238746E+02  0.80527238746E+02  0.00000000000E+00 0.  1.
         -2   -1    0    0    0  501 -0.00000000000E+00 -0.00000000000E+00 -0.21305762110E+01  0.21305762110E+01  0.00000000000E+00 0. -1.
        -13    1    1    2    0    0  0.93888882811E+01  0.51357228250E+01  0.15367815645E+02  0.18726895893E+02  0.00000000000E+00 0. -1.
         13    1    1    2    0    0 -0.93888882811E+01 -0.51357228250E+01  0.63028846889E+02  0.63930919063E+02  0.00000000000E+00 0.  1.
<mgrwt>
<rscale>  0 0.26196902E+02</rscale>
<asrwt>0</asrwt>
<pdfrwt beam="1">  1        2 0.12388804E-01 0.26196902E+02</pdfrwt>
<pdfrwt beam="2">  1       -2 0.32778102E-03 0.26196902E+02</pdfrwt>
<totfact> 0.27320574E+06</totfact>
</mgrwt>
</event>
<event>
 4    1  0.2165211E+000  0.2641606E+02  0.7546771E-02  0.1641458E+00
         -4   -1    0    0    0  501 -0.00000000000E+00  0.00000000000E+00  0.31373775847E+02  0.31373775847E+02  0.00000000000E+00 0.  1.
          4   -1    0    0  501    0  0.00000000000E+00 -0.00000000000E+00 -0.55604419978E+01  0.55604419978E+01  0.00000000000E+00 0. -1.
        -13    1    1    2    0    0 -0.44263191646E+01 -0.12315128906E+02  0.10406571445E+02  0.16719791583E+02  0.00000000000E+00 0.  1.
         13    1    1    2    0    0  0.44263191646E+01  0.12315128906E+02  0.15406762404E+02  0.20214426262E+02  0.00000000000E+00 0. -1.
<mgrwt>
<rscale>  0 0.26416060E+02</rscale>
<asrwt>0</asrwt>
<pdfrwt beam="2">  1        4 0.85545263E-03 0.26416060E+02</pdfrwt>
<pdfrwt beam="1">  1       -4 0.48267346E-02 0.26416060E+02</pdfrwt>
<totfact> 0.67254096E+05</totfact>
</mgrwt>
</event>
<event>
 4    1  0.2165211E+000  0.2537118E+02  0.7546771E-02  0.1655727E+00
         -3   -1    0    0    0  501 -0.00000000000E+00  0.00000000000E+00  0.15550651106E+02  0.15550651106E+02  0.00000000000E+00 0. -1.
          3   -1    0    0  501    0  0.00000000000E+00 -0.00000000000E+00 -0.10348386637E+02  0.10348386637E+02  0.00000000000E+00 0.  1.
        -13    1    1    2    0    0  0.11443719006E+02 -0.12198244579E+01  0.80485884795E+01  0.14043733581E+02  0.00000000000E+00 0. -1.
         13    1    1    2    0    0 -0.11443719006E+02  0.12198244579E+01 -0.28463240102E+01  0.11855304161E+02  0.00000000000E+00 0.  1.
<mgrwt>
<rscale>  0 0.25371177E+02</rscale>
<asrwt>0</asrwt>
<pdfrwt beam="2">  1        3 0.15920595E-02 0.25371177E+02</pdfrwt>
<pdfrwt beam="1">  1       -3 0.23924079E-02 0.25371177E+02</pdfrwt>
<totfact> 0.10348301E+06</totfact>
</mgrwt>
</event>
<event>
 4    1  0.2165211E+000  0.3166755E+02  0.7546771E-02  0.1580355E+00
          2   -1    0    0  501    0  0.00000000000E+00  0.00000000000E+00  0.14002038985E+02  0.14002038985E+02  0.00000000000E+00 0.  1.
         -2   -1    0    0    0  501 -0.00000000000E+00 -0.00000000000E+00 -0.17905131703E+02  0.17905131703E+02  0.00000000000E+00 0. -1.
        -13    1    1    2    0    0 -0.39307263374E+01 -0.11422954234E+02 -0.12264910907E+02  0.17215183198E+02  0.00000000000E+00 0.  1.
         13    1    1    2    0    0  0.39307263374E+01  0.11422954234E+02  0.83618181893E+01  0.14691987490E+02  0.00000000000E+00 0. -1.
<mgrwt>
<rscale>  0 0.31667545E+02</rscale>
<asrwt>0</asrwt>
<pdfrwt beam="1">  1        2 0.21541599E-02 0.31667545E+02</pdfrwt>
<pdfrwt beam="2">  1       -2 0.27546356E-02 0.31667545E+02</pdfrwt>
<totfact> 0.13604636E+06</totfact>
</mgrwt>
</event>
<event>
 4    1  0.2165211E+000  0.6262914E+02  0.7546771E-02  0.1387118E+00
          2   -1    0    0  501    0  0.00000000000E+00  0.00000000000E+00  0.13323290881E+02  0.13323290881E+02  0.00000000000E+00 0.  1.
         -2   -1    0    0    0  501 -0.00000000000E+00 -0.00000000000E+00 -0.73600608676E+02  0.73600608676E+02  0.00000000000E+00 0. -1.
        -11    1    1    2    0    0 -0.16539294888E+02 -0.69400699143E+01  0.54875025855E+01  0.18757012834E+02  0.00000000000E+00 0.  1.
         11    1    1    2    0    0  0.16539294888E+02  0.69400699143E+01 -0.65764820381E+02  0.68166886723E+02  0.00000000000E+00 0. -1.
<mgrwt>
<rscale>  0 0.62629141E+02</rscale>
<asrwt>0</asrwt>
<pdfrwt beam="1">  1        2 0.20497371E-02 0.62629141E+02</pdfrwt>
<pdfrwt beam="2">  1       -2 0.11323170E-01 0.62629141E+02</pdfrwt>
<totfact> 0.21867538E+05</totfact>
</mgrwt>
</event>
<event>
 4    1  0.2165211E+000  0.7366446E+02  0.7546771E-02  0.1348057E+00
          2   -1    0    0  501    0  0.00000000000E+00  0.00000000000E+00  0.51312180456E+02  0.51312180456E+02  0.00000000000E+00 0.  1.
         -2   -1    0    0    0  501 -0.00000000000E+00 -0.00000000000E+00 -0.26438425005E+02  0.26438425005E+02  0.00000000000E+00 0. -1.
        -13    1    1    2    0    0 -0.22667474980E+02 -0.28949802858E+02  0.10146793732E+02  0.38142665488E+02  0.00000000000E+00 0.  1.
         13    1    1    2    0    0  0.22667474980E+02  0.28949802858E+02  0.14726961719E+02  0.39607939973E+02  0.00000000000E+00 0. -1.
<mgrwt>
<rscale>  0 0.73664462E+02</rscale>
<asrwt>0</asrwt>
<pdfrwt beam="1">  1        2 0.78941816E-02 0.73664462E+02</pdfrwt>
<pdfrwt beam="2">  1       -2 0.40674500E-02 0.73664462E+02</pdfrwt>
<totfact> 0.18452165E+05</totfact>
</mgrwt>
</event>
<event>
 4    1  0.2165211E+000  0.2147854E+02  0.7546771E-02  0.1717430E+00
         -2   -1    0    0    0  501 -0.00000000000E+00  0.00000000000E+00  0.29025264323E+02  0.29025264323E+02  0.00000000000E+00 0.  1.
          2   -1    0    0  501    0  0.00000000000E+00 -0.00000000000E+00 -0.39735014540E+01  0.39735014540E+01  0.00000000000E+00 0. -1.
        -11    1    1    2    0    0 -0.37016229716E+01 -0.98759846317E+01  0.94169463731E+01  0.14139164192E+02  0.00000000000E+00 0. -1.
         11    1    1    2    0    0  0.37016229716E+01  0.98759846317E+01  0.15634816496E+02  0.18859601585E+02  0.00000000000E+00 0.  1.
<mgrwt>
<rscale>  0 0.21478541E+02</rscale>
<asrwt>0</asrwt>
<pdfrwt beam="2">  1        2 0.61130794E-03 0.21478541E+02</pdfrwt>
<pdfrwt beam="1">  1       -2 0.44654251E-02 0.21478541E+02</pdfrwt>
<totfact> 0.30945597E+06</totfact>
</mgrwt>
</event>
<event>
 4    1  0.2165211E+000  0.6594437E+02  0.7546771E-02  0.1374454E+00
          2   -1    0    0  501    0  0.00000000000E+00  0.00000000000E+00  0.19311011713E+02  0.19311011713E+02  0.00000000000E+00 0.  1.
         -2   -1    0    0    0  501 -0.00000000000E+00 -0.00000000000E+00 -0.56297676326E+02  0.56297676326E+02  0.00000000000E+00 0. -1.
        -13    1    1    2    0    0 -0.30407743749E+02  0.95828056373E+01 -0.28134199113E+02  0.42520515089E+02  0.00000000000E+00 0.  1.
         13    1    1    2    0    0  0.30407743749E+02 -0.95828056373E+01 -0.88524655004E+01  0.33088172950E+02  0.00000000000E+00 0. -1.
<mgrwt>
<rscale>  0 0.65944373E+02</rscale>
<asrwt>0</asrwt>
<pdfrwt beam="1">  1        2 0.29709249E-02 0.65944373E+02</pdfrwt>
<pdfrwt beam="2">  1       -2 0.86611808E-02 0.65944373E+02</pdfrwt>
<totfact> 0.20429776E+05</totfact>
</mgrwt>
</event>
<event>
 4    1  0.2165211E+000  0.2152812E+02  0.7546771E-02  0.1716543E+00
         -3   -1    0    0    0  501 -0.00000000000E+00  0.00000000000E+00  0.84151681076E+01  0.84151681076E+01  0.00000000000E+00 0. -1.
          3   -1    0    0  501    0  0.00000000000E+00 -0.00000000000E+00 -0.13768584337E+02  0.13768584337E+02  0.00000000000E+00 0.  1.
        -13    1    1    2    0    0 -0.91738266880E+01  0.41694499900E+01 -0.65763423068E+01  0.12032941762E+02  0.00000000000E+00 0.  1.
         13    1    1    2    0    0  0.91738266880E+01 -0.41694499900E+01  0.12229260772E+01  0.10150810682E+02  0.00000000000E+00 0. -1.
<mgrwt>
<rscale>  0 0.21528117E+02</rscale>
<asrwt>0</asrwt>
<pdfrwt beam="2">  1        3 0.21182437E-02 0.21528117E+02</pdfrwt>
<pdfrwt beam="1">  1       -3 0.12946413E-02 0.21528117E+02</pdfrwt>
<totfact> 0.15116055E+06</totfact>
</mgrwt>
</event>
<event>
 4    1  0.2165211E+000  0.2773507E+02  0.7546771E-02  0.1624564E+00
          4   -1    0    0  501    0  0.00000000000E+00  0.00000000000E+00  0.49919429567E+02  0.49919429567E+02  0.00000000000E+00 0. -1.
         -4   -1    0    0    0  501 -0.00000000000E+00 -0.00000000000E+00 -0.38523777587E+01  0.38523777587E+01  0.00000000000E+00 0.  1.
        -13    1    1    2    0    0 -0.63542241456E+01  0.89428705999E+01  0.65874181070E+01  0.12796295416E+02  0.00000000000E+00 0.  1.
         13    1    1    2    0    0  0.63542241456E+01 -0.89428705999E+01  0.39479633702E+02  0.40975511910E+02  0.00000000000E+00 0. -1.
<mgrwt>
<rscale>  0 0.27735068E+02</rscale>
<asrwt>0</asrwt>
<pdfrwt beam="1">  1        4 0.76799118E-02 0.27735068E+02</pdfrwt>
<pdfrwt beam="2">  1       -4 0.59267353E-03 0.27735068E+02</pdfrwt>
<totfact> 0.56904755E+05</totfact>
</mgrwt>
</event>
<event>
 4    1  0.2165211E+000  0.2103908E+02  0.7546771E-02  0.1725421E+00
         -2   -1    0    0    0  501 -0.00000000000E+00  0.00000000000E+00  0.27638947961E+02  0.27638947961E+02  0.00000000000E+00 0.  1.
          2   -1    0    0  501    0  0.00000000000E+00 -0.00000000000E+00 -0.40037961305E+01  0.40037961305E+01  0.00000000000E+00 0. -1.
        -11    1    1    2    0    0 -0.33133254796E+01 -0.96821240301E+01  0.15482848852E+02  0.18559101811E+02  0.00000000000E+00 0.  1.
         11    1    1    2    0    0  0.33133254796E+01  0.96821240301E+01  0.81523029788E+01  0.13083642281E+02  0.00000000000E+00 0. -1.
<mgrwt>
<rscale>  0 0.21039079E+02</rscale>
<asrwt>0</asrwt>
<pdfrwt beam="2">  1        2 0.61596865E-03 0.21039079E+02</pdfrwt>
<pdfrwt beam="1">  1       -2 0.42521457E-02 0.21039079E+02</pdfrwt>
<totfact> 0.32545105E+06</totfact>
</mgrwt>
</event>
<event>
 4    1  0.2165211E+000  0.2130569E+02  0.7546771E-02  0.1720544E+00
          3   -1    0    0  501    0  0.00000000000E+00  0.00000000000E+00  0.23715813738E+02  0.23715813738E+02  0.00000000000E+00 0.  1.
         -3   -1    0    0    0  501 -0.00000000000E+00 -0.00000000000E+00 -0.47851248023E+01  0.47851248023E+01  0.00000000000E+00 0. -1.
        -11    1    1    2    0    0 -0.10317186090E+02 -0.10536402505E+01  0.62081692159E+01  0.12087011691E+02  0.00000000000E+00 0.  1.
         11    1    1    2    0    0  0.10317186090E+02  0.10536402505E+01  0.12722519720E+02  0.16413926850E+02  0.00000000000E+00 0. -1.
<mgrwt>
<rscale>  0 0.21305692E+02</rscale>
<asrwt>0</asrwt>
<pdfrwt beam="1">  1        3 0.36485867E-02 0.21305692E+02</pdfrwt>
<pdfrwt beam="2">  1       -3 0.73617306E-03 0.21305692E+02</pdfrwt>
<totfact> 0.15127108E+06</totfact>
</mgrwt>
</event>
<event>
 4    1  0.2165211E+000  0.2448935E+02  0.7546771E-02  0.1668447E+00
         -2   -1    0    0    0  501 -0.00000000000E+00  0.00000000000E+00  0.80197827826E+02  0.80197827826E+02  0.00000000000E+00 0.  1.
          2   -1    0    0  501    0  0.00000000000E+00 -0.00000000000E+00 -0.18695277701E+01  0.18695277701E+01  0.00000000000E+00 0. -1.
        -11    1    1    2    0    0 -0.17082660545E-02  0.12184684084E+02  0.35107275396E+02  0.37161637677E+02  0.00000000000E+00 0. -1.
         11    1    1    2    0    0  0.17082660545E-02 -0.12184684084E+02  0.43221024660E+02  0.44905717919E+02  0.00000000000E+00 0.  1.
<mgrwt>
<rscale>  0 0.24489350E+02</rscale>
<asrwt>0</asrwt>
<pdfrwt beam="2">  1        2 0.28761972E-03 0.24489350E+02</pdfrwt>
<pdfrwt beam="1">  1       -2 0.12338125E-01 0.24489350E+02</pdfrwt>
<totfact> 0.19930728E+06</totfact>
</mgrwt>
</event>
<event>
 4    1  0.2165211E+000  0.4743897E+02  0.7546771E-02  0.1459666E+00
         -4   -1    0    0    0  501 -0.00000000000E+00  0.00000000000E+00  0.71190315187E+02  0.71190315187E+02  0.00000000000E+00 0.  1.
          4   -1    0    0  501    0  0.00000000000E+00 -0.00000000000E+00 -0.79029565860E+01  0.79029565860E+01  0.00000000000E+00 0. -1.
        -13    1    1    2    0    0  0.22548724538E+02  0.73345602178E+01  0.32662237398E+02  0.40361646445E+02  0.00000000000E+00 0.  1.
         13    1    1    2    0    0 -0.22548724538E+02 -0.73345602178E+01  0.30625121203E+02  0.38731625328E+02  0.00000000000E+00 0. -1.
<mgrwt>
<rscale>  0 0.47438970E+02</rscale>
<asrwt>0</asrwt>
<pdfrwt beam="2">  1        4 0.12158395E-02 0.47438970E+02</pdfrwt>
<pdfrwt beam="1">  1       -4 0.10952356E-01 0.47438970E+02</pdfrwt>
<totfact> 0.15070102E+05</totfact>
</mgrwt>
</event>
<event>
 4    1  0.2165211E+000  0.2289967E+02  0.7546771E-02  0.1693142E+00
         -4   -1    0    0    0  501 -0.00000000000E+00  0.00000000000E+00  0.92918182671E+01  0.92918182671E+01  0.00000000000E+00 0. -1.
          4   -1    0    0  501    0  0.00000000000E+00 -0.00000000000E+00 -0.14109043676E+02  0.14109043676E+02  0.00000000000E+00 0.  1.
        -13    1    1    2    0    0  0.10333796064E+02 -0.42698547641E+01  0.11105159243E+00  0.11181741066E+02  0.00000000000E+00 0.  1.
         13    1    1    2    0    0 -0.10333796064E+02  0.42698547641E+01 -0.49282770010E+01  0.12219120877E+02  0.00000000000E+00 0. -1.
<mgrwt>
<rscale>  0 0.22899665E+02</rscale>
<asrwt>0</asrwt>
<pdfrwt beam="2">  1        4 0.21706221E-02 0.22899665E+02</pdfrwt>
<pdfrwt beam="1">  1       -4 0.14295105E-02 0.22899665E+02</pdfrwt>
<totfact> 0.96645427E+05</totfact>
</mgrwt>
</event>
<event>
 4    1  0.2165211E+000  0.2586848E+02  0.7546771E-02  0.1648832E+00
         -1   -1    0    0    0  501 -0.00000000000E+00  0.00000000000E+00  0.20588850040E+02  0.20588850040E+02  0.00000000000E+00 0.  1.
          1   -1    0    0  501    0  0.00000000000E+00 -0.00000000000E+00 -0.81254905008E+01  0.81254905008E+01  0.00000000000E+00 0. -1.
        -11    1    1    2    0    0  0.12050526397E+02  0.17366742691E+01  0.11078164429E+02  0.16460770063E+02  0.00000000000E+00 0.  1.
         11    1    1    2    0    0 -0.12050526397E+02 -0.17366742691E+01  0.13851951107E+01  0.12253570478E+02  0.00000000000E+00 0. -1.
<mgrwt>
<rscale>  0 0.25868475E+02</rscale>
<asrwt>0</asrwt>
<pdfrwt beam="2">  1        1 0.12500755E-02 0.25868475E+02</pdfrwt>
<pdfrwt beam="1">  1       -1 0.31675154E-02 0.25868475E+02</pdfrwt>
<totfact> 0.20988183E+06</totfact>
</mgrwt>
</event>
<event>
 4    1  0.2165211E+000  0.3388859E+02  0.7546771E-02  0.1558698E+00
         -2   -1    0    0    0  501 -0.00000000000E+00  0.00000000000E+00  0.45145807955E+01  0.45145807955E+01  0.00000000000E+00 0. -1.
          2   -1    0    0  501    0  0.00000000000E+00 -0.00000000000E+00 -0.63595982010E+02  0.63595982010E+02  0.00000000000E+00 0.  1.
        -13    1    1    2    0    0  0.11079277503E+02  0.85029767402E+01 -0.48824479737E+02  0.50782682334E+02  0.00000000000E+00 0.  1.
         13    1    1    2    0    0 -0.11079277503E+02 -0.85029767402E+01 -0.10256921477E+02  0.17327880471E+02  0.00000000000E+00 0. -1.
<mgrwt>
<rscale>  0 0.33888594E+02</rscale>
<asrwt>0</asrwt>
<pdfrwt beam="2">  1        2 0.97839965E-02 0.33888594E+02</pdfrwt>
<pdfrwt beam="1">  1       -2 0.69455095E-03 0.33888594E+02</pdfrwt>
<totfact> 0.14163053E+06</totfact>
</mgrwt>
</event>
<event>
 4    1  0.2165211E+000  0.3797796E+02  0.7546771E-02  0.1523642E+00
         -3   -1    0    0    0  501 -0.00000000000E+00  0.00000000000E+00  0.19924082612E+02  0.19924082612E+02  0.00000000000E+00 0. -1.
          3   -1    0    0  501    0  0.00000000000E+00 -0.00000000000E+00 -0.18097761888E+02  0.18097761888E+02  0.00000000000E+00 0.  1.
        -13    1    1    2    0    0 -0.19691699605E+00  0.15749588377E+02 -0.97053676967E+01  0.18500877614E+02  0.00000000000E+00 0.  1.
         13    1    1    2    0    0  0.19691699605E+00 -0.15749588377E+02  0.11531688421E+02  0.19520966886E+02  0.00000000000E+00 0. -1.
<mgrwt>
<rscale>  0 0.37977957E+02</rscale>
<asrwt>0</asrwt>
<pdfrwt beam="2">  1        3 0.27842710E-02 0.37977957E+02</pdfrwt>
<pdfrwt beam="1">  1       -3 0.30652435E-02 0.37977957E+02</pdfrwt>
<totfact> 0.38637616E+05</totfact>
</mgrwt>
</event>
<event>
 4    1  0.2165211E+000  0.3451308E+02  0.7546771E-02  0.1552968E+00
          4   -1    0    0  501    0  0.00000000000E+00  0.00000000000E+00  0.16949643847E+02  0.16949643847E+02  0.00000000000E+00 0. -1.
         -4   -1    0    0    0  501 -0.00000000000E+00 -0.00000000000E+00 -0.17568988016E+02  0.17568988016E+02  0.00000000000E+00 0.  1.
        -13    1    1    2    0    0 -0.98586543403E+01  0.74509603285E+01  0.11737108979E+02  0.17043168790E+02  0.00000000000E+00 0. -1.
         13    1    1    2    0    0  0.98586543403E+01 -0.74509603285E+01 -0.12356453148E+02  0.17475463073E+02  0.00000000000E+00 0.  1.
<mgrwt>
<rscale>  0 0.34513075E+02</rscale>
<asrwt>0</asrwt>
<pdfrwt beam="1">  1        4 0.26076375E-02 0.34513075E+02</pdfrwt>
<pdfrwt beam="2">  1       -4 0.27029212E-02 0.34513075E+02</pdfrwt>
<totfact> 0.37086299E+05</totfact>
</mgrwt>
</event>
<event>
 4    1  0.2165211E+000  0.2527132E+02  0.7546771E-02  0.1657135E+00
          3   -1    0    0  501    0  0.00000000000E+00  0.00000000000E+00  0.67057514076E+02  0.67057514076E+02  0.00000000000E+00 0.  1.
         -3   -1    0    0    0  501 -0.00000000000E+00 -0.00000000000E+00 -0.23809405337E+01  0.23809405337E+01  0.00000000000E+00 0. -1.
        -13    1    1    2    0    0 -0.63265648654E+01 -0.91748365397E+01  0.48699762143E+02  0.49958681741E+02  0.00000000000E+00 0.  1.
         13    1    1    2    0    0  0.63265648654E+01  0.91748365397E+01  0.15976811399E+02  0.19479772869E+02  0.00000000000E+00 0. -1.
<mgrwt>
<rscale>  0 0.25271324E+02</rscale>
<asrwt>0</asrwt>
<pdfrwt beam="1">  1        3 0.10316539E-01 0.25271324E+02</pdfrwt>
<pdfrwt beam="2">  1       -3 0.36629860E-03 0.25271324E+02</pdfrwt>
<totfact> 0.91642692E+05</totfact>
</mgrwt>
</event>
<event>
 4    1  0.2165211E+000  0.2502647E+02  0.7546771E-02  0.1660622E+00
         -4   -1    0    0    0  501 -0.00000000000E+00  0.00000000000E+00  0.44427810722E+01  0.44427810722E+01  0.00000000000E+00 0.  1.
          4   -1    0    0  501    0  0.00000000000E+00 -0.00000000000E+00 -0.35243924304E+02  0.35243924304E+02  0.00000000000E+00 0. -1.
        -11    1    1    2    0    0 -0.13459882936E+01 -0.12425924155E+02 -0.16359632280E+02  0.20587686706E+02  0.00000000000E+00 0. -1.
         11    1    1    2    0    0  0.13459882936E+01  0.12425924155E+02 -0.14441510952E+02  0.19099018670E+02  0.00000000000E+00 0.  1.
<mgrwt>
<rscale>  0 0.25026469E+02</rscale>
<asrwt>0</asrwt>
<pdfrwt beam="2">  1        4 0.54221420E-02 0.25026469E+02</pdfrwt>
<pdfrwt beam="1">  1       -4 0.68350481E-03 0.25026469E+02</pdfrwt>
<totfact> 0.74874059E+05</totfact>
</mgrwt>
</event>
<event>
 4    1  0.2165211E+000  0.2539958E+02  0.7546771E-02  0.1655328E+00
         -4   -1    0    0    0  501 -0.00000000000E+00  0.00000000000E+00  0.23712503026E+02  0.23712503026E+02  0.00000000000E+00 0. -1.
          4   -1    0    0  501    0  0.00000000000E+00 -0.00000000000E+00 -0.68016705632E+01  0.68016705632E+01  0.00000000000E+00 0.  1.
        -11    1    1    2    0    0  0.11530942144E+02  0.47416217911E+01  0.55524267014E+01  0.13648261655E+02  0.00000000000E+00 0.  1.
         11    1    1    2    0    0 -0.11530942144E+02 -0.47416217911E+01  0.11358405762E+02  0.16865911934E+02  0.00000000000E+00 0. -1.
<mgrwt>
<rscale>  0 0.25399577E+02</rscale>
<asrwt>0</asrwt>
<pdfrwt beam="2">  1        4 0.10464109E-02 0.25399577E+02</pdfrwt>
<pdfrwt beam="1">  1       -4 0.36480774E-02 0.25399577E+02</pdfrwt>
<totfact> 0.75117848E+05</totfact>
</mgrwt>
</event>
<event>
 4    1  0.2165211E+000  0.9320713E+02  0.7546771E-02  0.1295266E+00
         -2   -1    0    0    0  501 -0.00000000000E+00  0.00000000000E+00  0.48154215789E+01  0.48154215789E+01  0.00000000000E+00 0.  1.
          2   -1    0    0  501    0  0.00000000000E+00 -0.00000000000E+00 -0.45102845384E+03  0.45102845384E+03  0.00000000000E+00 0. -1.
        -11    1    1    2    0    0  0.37900125374E+02 -0.25059874498E+02 -0.27380808601E+03  0.27755230999E+03  0.00000000000E+00 0.  1.
         11    1    1    2    0    0 -0.37900125374E+02  0.25059874498E+02 -0.17240494625E+03  0.17829156543E+03  0.00000000000E+00 0. -1.
<mgrwt>
<rscale>  0 0.93207127E+02</rscale>
<asrwt>0</asrwt>
<pdfrwt beam="2">  1        2 0.69388990E-01 0.93207127E+02</pdfrwt>
<pdfrwt beam="1">  1       -2 0.74083412E-03 0.93207127E+02</pdfrwt>
<totfact> 0.19637983E+05</totfact>
</mgrwt>
</event>
<event>
 4    1  0.2165211E+000  0.5253924E+02  0.7546771E-02  0.1432108E+00
         -4   -1    0    0    0  501 -0.00000000000E+00  0.00000000000E+00  0.70053180841E+02  0.70053180841E+02  0.00000000000E+00 0. -1.
          4   -1    0    0  501    0  0.00000000000E+00 -0.00000000000E+00 -0.98509848003E+01  0.98509848003E+01  0.00000000000E+00 0.  1.
        -13    1    1    2    0    0 -0.81360762923E+01  0.11676166635E+02 -0.34805172959E+01  0.14650686174E+02  0.00000000000E+00 0.  1.
         13    1    1    2    0    0  0.81360762923E+01 -0.11676166635E+02  0.63682713337E+02  0.65253479468E+02  0.00000000000E+00 0. -1.
<mgrwt>
<rscale>  0 0.52539236E+02</rscale>
<asrwt>0</asrwt>
<pdfrwt beam="2">  1        4 0.15155362E-02 0.52539236E+02</pdfrwt>
<pdfrwt beam="1">  1       -4 0.10777412E-01 0.52539236E+02</pdfrwt>
<totfact> 0.11686029E+05</totfact>
</mgrwt>
</event>
<event>
 4    1  0.2165211E+000  0.2905699E+02  0.7546771E-02  0.1608752E+00
         -4   -1    0    0    0  501 -0.00000000000E+00  0.00000000000E+00  0.17498486425E+02  0.17498486425E+02  0.00000000000E+00 0.  1.
          4   -1    0    0  501    0  0.00000000000E+00 -0.00000000000E+00 -0.12062597800E+02  0.12062597800E+02  0.00000000000E+00 0. -1.
        -11    1    1    2    0    0 -0.11896374551E+02  0.13887230117E+01  0.11084045142E+02  0.16318956333E+02  0.00000000000E+00 0.  1.
         11    1    1    2    0    0  0.11896374551E+02 -0.13887230117E+01 -0.56481565173E+01  0.13242127892E+02  0.00000000000E+00 0. -1.
<mgrwt>
<rscale>  0 0.29056993E+02</rscale>
<asrwt>0</asrwt>
<pdfrwt beam="2">  1        4 0.18557843E-02 0.29056993E+02</pdfrwt>
<pdfrwt beam="1">  1       -4 0.26920748E-02 0.29056993E+02</pdfrwt>
<totfact> 0.56013121E+05</totfact>
</mgrwt>
</event>
<event>
 4    1  0.2165211E+000  0.3075718E+02  0.7546771E-02  0.1589867E+00
          2   -1    0    0  501    0  0.00000000000E+00  0.00000000000E+00  0.17255710850E+01  0.17255710850E+01  0.00000000000E+00 0.  1.
         -2   -1    0    0    0  501 -0.00000000000E+00 -0.00000000000E+00 -0.13705662908E+03  0.13705662908E+03  0.00000000000E+00 0. -1.
        -11    1    1    2    0    0 -0.51755159272E+01 -0.14272143578E+02 -0.78737331845E+02  0.80187576803E+02  0.00000000000E+00 0. -1.
         11    1    1    2    0    0  0.51755159272E+01  0.14272143578E+02 -0.56593726151E+02  0.58594623363E+02  0.00000000000E+00 0.  1.
<mgrwt>
<rscale>  0 0.30757175E+02</rscale>
<asrwt>0</asrwt>
<pdfrwt beam="1">  1        2 0.26547237E-03 0.30757175E+02</pdfrwt>
<pdfrwt beam="2">  1       -2 0.21085643E-01 0.30757175E+02</pdfrwt>
<totfact> 0.10326628E+06</totfact>
</mgrwt>
</event>
<event>
 4    1  0.2165211E+000  0.2484999E+02  0.7546771E-02  0.1663166E+00
         -2   -1    0    0    0  501 -0.00000000000E+00  0.00000000000E+00  0.21176559444E+02  0.21176559444E+02  0.00000000000E+00 0. -1.
          2   -1    0    0  501    0  0.00000000000E+00 -0.00000000000E+00 -0.72901602179E+01  0.72901602179E+01  0.00000000000E+00 0.  1.
        -11    1    1    2    0    0  0.51333736207E+01  0.11183218293E+02  0.89156012272E+01  0.15195520437E+02  0.00000000000E+00 0.  1.
         11    1    1    2    0    0 -0.51333736207E+01 -0.11183218293E+02  0.49707979992E+01  0.13271199225E+02  0.00000000000E+00 0. -1.
<mgrwt>
<rscale>  0 0.24849991E+02</rscale>
<asrwt>0</asrwt>
<pdfrwt beam="2">  1        2 0.11215631E-02 0.24849991E+02</pdfrwt>
<pdfrwt beam="1">  1       -2 0.32579322E-02 0.24849991E+02</pdfrwt>
<totfact> 0.23088569E+06</totfact>
</mgrwt>
</event>
<event>
 4    1  0.2165211E+000  0.4490720E+02  0.7546771E-02  0.1474922E+00
          2   -1    0    0  501    0  0.00000000000E+00  0.00000000000E+00  0.19220504730E+02  0.19220504730E+02  0.00000000000E+00 0.  1.
         -2   -1    0    0    0  501 -0.00000000000E+00 -0.00000000000E+00 -0.26230540627E+02  0.26230540627E+02  0.00000000000E+00 0. -1.
        -11    1    1    2    0    0 -0.10687083768E+02 -0.19228748788E+02  0.10444930281E+01  0.22023839472E+02  0.00000000000E+00 0.  1.
         11    1    1    2    0    0  0.10687083768E+02  0.19228748788E+02 -0.80545289243E+01  0.23427205885E+02  0.00000000000E+00 0. -1.
<mgrwt>
<rscale>  0 0.44907203E+02</rscale>
<asrwt>0</asrwt>
<pdfrwt beam="1">  1        2 0.29570007E-02 0.44907203E+02</pdfrwt>
<pdfrwt beam="2">  1       -2 0.40354678E-02 0.44907203E+02</pdfrwt>
<totfact> 0.58134934E+05</totfact>
</mgrwt>
</event>
<event>
 4    1  0.2165211E+000  0.2897367E+02  0.7546771E-02  0.1609718E+00
         -2   -1    0    0    0  501 -0.00000000000E+00  0.00000000000E+00  0.15049164553E+02  0.15049164553E+02  0.00000000000E+00 0. -1.
          2   -1    0    0  501    0  0.00000000000E+00 -0.00000000000E+00 -0.13945521093E+02  0.13945521093E+02  0.00000000000E+00 0.  1.
        -13    1    1    2    0    0 -0.14223046028E+02  0.26944274062E+01 -0.84631604189E-02  0.14476016337E+02  0.00000000000E+00 0.  1.
         13    1    1    2    0    0  0.14223046028E+02 -0.26944274062E+01  0.11121066198E+01  0.14518669309E+02  0.00000000000E+00 0. -1.
<mgrwt>
<rscale>  0 0.28973674E+02</rscale>
<asrwt>0</asrwt>
<pdfrwt beam="2">  1        2 0.21454648E-02 0.28973674E+02</pdfrwt>
<pdfrwt beam="1">  1       -2 0.23152561E-02 0.28973674E+02</pdfrwt>
<totfact> 0.16919719E+06</totfact>
</mgrwt>
</event>
<event>
 4    1  0.2165211E+000  0.2237448E+02  0.7546771E-02  0.1701855E+00
          2   -1    0    0  501    0  0.00000000000E+00  0.00000000000E+00  0.58625564432E+02  0.58625564432E+02  0.00000000000E+00 0. -1.
         -2   -1    0    0    0  501 -0.00000000000E+00 -0.00000000000E+00 -0.21348090410E+01  0.21348090410E+01  0.00000000000E+00 0.  1.
        -13    1    1    2    0    0 -0.12164673681E+01 -0.11043893414E+02  0.24697362383E+02  0.27081489679E+02  0.00000000000E+00 0. -1.
         13    1    1    2    0    0  0.12164673681E+01  0.11043893414E+02  0.31793393008E+02  0.33678883793E+02  0.00000000000E+00 0.  1.
<mgrwt>
<rscale>  0 0.22374484E+02</rscale>
<asrwt>0</asrwt>
<pdfrwt beam="1">  1        2 0.90193164E-02 0.22374484E+02</pdfrwt>
<pdfrwt beam="2">  1       -2 0.32843220E-03 0.22374484E+02</pdfrwt>
<totfact> 0.36928763E+06</totfact>
</mgrwt>
</event>
<event>
 4    1  0.2165211E+000  0.3009435E+02  0.7546771E-02  0.1597048E+00
          2   -1    0    0  501    0  0.00000000000E+00  0.00000000000E+00  0.22381533024E+02  0.22381533024E+02  0.00000000000E+00 0. -1.
         -2   -1    0    0    0  501 -0.00000000000E+00 -0.00000000000E+00 -0.10116265758E+02  0.10116265758E+02  0.00000000000E+00 0.  1.
        -11    1    1    2    0    0  0.10024359663E+02  0.11220388229E+02  0.63277201309E+01  0.16322528625E+02  0.00000000000E+00 0.  1.
         11    1    1    2    0    0 -0.10024359663E+02 -0.11220388229E+02  0.59375471357E+01  0.16175270157E+02  0.00000000000E+00 0. -1.
<mgrwt>
<rscale>  0 0.30094354E+02</rscale>
<asrwt>0</asrwt>
<pdfrwt beam="1">  1        2 0.34433128E-02 0.30094354E+02</pdfrwt>
<pdfrwt beam="2">  1       -2 0.15563486E-02 0.30094354E+02</pdfrwt>
<totfact> 0.16209596E+06</totfact>
</mgrwt>
</event>
<event>
 4    1  0.2165211E+000  0.2634575E+02  0.7546771E-02  0.1642392E+00
         -3   -1    0    0    0  501 -0.00000000000E+00  0.00000000000E+00  0.44404296294E+01  0.44404296294E+01  0.00000000000E+00 0.  1.
          3   -1    0    0  501    0  0.00000000000E+00 -0.00000000000E+00 -0.39078337304E+02  0.39078337304E+02  0.00000000000E+00 0. -1.
        -11    1    1    2    0    0  0.92241948940E+01 -0.63410554518E+01 -0.28790554280E+02  0.30889978496E+02  0.00000000000E+00 0. -1.
         11    1    1    2    0    0 -0.92241948940E+01  0.63410554518E+01 -0.58473533938E+01  0.12628788437E+02  0.00000000000E+00 0.  1.
<mgrwt>
<rscale>  0 0.26345748E+02</rscale>
<asrwt>0</asrwt>
<pdfrwt beam="2">  1        3 0.60120521E-02 0.26345748E+02</pdfrwt>
<pdfrwt beam="1">  1       -3 0.68314299E-03 0.26345748E+02</pdfrwt>
<totfact> 0.89793609E+05</totfact>
</mgrwt>
</event>
<event>
 4    1  0.2165211E+000  0.4186435E+02  0.7546771E-02  0.1494923E+00
         -4   -1    0    0    0  501 -0.00000000000E+00  0.00000000000E+00  0.57549348822E+02  0.57549348822E+02  0.00000000000E+00 0. -1.
          4   -1    0    0  501    0  0.00000000000E+00 -0.00000000000E+00 -0.76135708244E+01  0.76135708244E+01  0.00000000000E+00 0.  1.
        -13    1    1    2    0    0 -0.12187863515E+02 -0.54792279092E+01 -0.11053199470E+00  0.13363314442E+02  0.00000000000E+00 0.  1.
         13    1    1    2    0    0  0.12187863515E+02  0.54792279092E+01  0.50046309993E+02  0.51799605205E+02  0.00000000000E+00 0. -1.
<mgrwt>
<rscale>  0 0.41864354E+02</rscale>
<asrwt>0</asrwt>
<pdfrwt beam="2">  1        4 0.11713186E-02 0.41864354E+02</pdfrwt>
<pdfrwt beam="1">  1       -4 0.88537457E-02 0.41864354E+02</pdfrwt>
<totfact> 0.21246579E+05</totfact>
</mgrwt>
</event>
<event>
 4    1  0.2165211E+000  0.2045726E+02  0.7546771E-02  0.1736385E+00
          4   -1    0    0  501    0  0.00000000000E+00  0.00000000000E+00  0.13931395457E+02  0.13931395457E+02  0.00000000000E+00 0. -1.
         -4   -1    0    0    0  501 -0.00000000000E+00 -0.00000000000E+00 -0.75100040140E+01  0.75100040140E+01  0.00000000000E+00 0.  1.
        -13    1    1    2    0    0  0.95509617563E+01 -0.36608348904E+01  0.31609438846E+01  0.10705799774E+02  0.00000000000E+00 0. -1.
         13    1    1    2    0    0 -0.95509617563E+01  0.36608348904E+01  0.32604475581E+01  0.10735599697E+02  0.00000000000E+00 0.  1.
<mgrwt>
<rscale>  0 0.20457256E+02</rscale>
<asrwt>0</asrwt>
<pdfrwt beam="1">  1        4 0.21432916E-02 0.20457256E+02</pdfrwt>
<pdfrwt beam="2">  1       -4 0.11553852E-02 0.20457256E+02</pdfrwt>
<totfact> 0.12342963E+06</totfact>
</mgrwt>
</event>
<event>
 4    1  0.2165211E+000  0.2947213E+02  0.7546771E-02  0.1603998E+00
         -2   -1    0    0    0  501 -0.00000000000E+00  0.00000000000E+00  0.25699057204E+02  0.25699057204E+02  0.00000000000E+00 0.  1.
          2   -1    0    0  501    0  0.00000000000E+00 -0.00000000000E+00 -0.84497917074E+01  0.84497917074E+01  0.00000000000E+00 0. -1.
        -11    1    1    2    0    0 -0.44075148714E+01 -0.14061177688E+02  0.85160923448E+01  0.17019598531E+02  0.00000000000E+00 0.  1.
         11    1    1    2    0    0  0.44075148714E+01  0.14061177688E+02  0.87331731522E+01  0.17129250381E+02  0.00000000000E+00 0. -1.
<mgrwt>
<rscale>  0 0.29472135E+02</rscale>
<asrwt>0</asrwt>
<pdfrwt beam="2">  1        2 0.12999680E-02 0.29472135E+02</pdfrwt>
<pdfrwt beam="1">  1       -2 0.39537011E-02 0.29472135E+02</pdfrwt>
<totfact> 0.15415225E+06</totfact>
</mgrwt>
</event>
<event>
 4    1  0.2165211E+000  0.2586914E+02  0.7546771E-02  0.1648823E+00
         -2   -1    0    0    0  501 -0.00000000000E+00  0.00000000000E+00  0.30370617621E+02  0.30370617621E+02  0.00000000000E+00 0.  1.
          2   -1    0    0  501    0  0.00000000000E+00 -0.00000000000E+00 -0.55087153616E+01  0.55087153616E+01  0.00000000000E+00 0. -1.
        -11    1    1    2    0    0 -0.91660212458E+01 -0.68164100975E+01  0.20847345426E+02  0.23771647049E+02  0.00000000000E+00 0.  1.
         11    1    1    2    0    0  0.91660212458E+01  0.68164100975E+01  0.40145568327E+01  0.12107685933E+02  0.00000000000E+00 0. -1.
<mgrwt>
<rscale>  0 0.25869139E+02</rscale>
<asrwt>0</asrwt>
<pdfrwt beam="2">  1        2 0.84749469E-03 0.25869139E+02</pdfrwt>
<pdfrwt beam="1">  1       -2 0.46724026E-02 0.25869139E+02</pdfrwt>
<totfact> 0.20342909E+06</totfact>
</mgrwt>
</event>
<event>
 4    1  0.2165211E+000  0.3445004E+02  0.7546771E-02  0.1553539E+00
          1   -1    0    0  501    0  0.00000000000E+00  0.00000000000E+00  0.11850441069E+02  0.11850441069E+02  0.00000000000E+00 0.  1.
         -1   -1    0    0    0  501 -0.00000000000E+00 -0.00000000000E+00 -0.25037157642E+02  0.25037157642E+02  0.00000000000E+00 0. -1.
        -11    1    1    2    0    0 -0.11323496057E+02 -0.12047576080E+02 -0.11765865658E+02  0.20292886612E+02  0.00000000000E+00 0.  1.
         11    1    1    2    0    0  0.11323496057E+02  0.12047576080E+02 -0.14208509147E+01  0.16594712099E+02  0.00000000000E+00 0. -1.
<mgrwt>
<rscale>  0 0.34450043E+02</rscale>
<asrwt>0</asrwt>
<pdfrwt beam="1">  1        1 0.18231448E-02 0.34450043E+02</pdfrwt>
<pdfrwt beam="2">  1       -1 0.38518704E-02 0.34450043E+02</pdfrwt>
<totfact> 0.10664346E+06</totfact>
</mgrwt>
</event>
<event>
 4    1  0.2165211E+000  0.2986223E+02  0.7546771E-02  0.1599617E+00
         -4   -1    0    0    0  501 -0.00000000000E+00  0.00000000000E+00  0.20775078120E+02  0.20775078120E+02  0.00000000000E+00 0. -1.
          4   -1    0    0  501    0  0.00000000000E+00 -0.00000000000E+00 -0.10731040147E+02  0.10731040147E+02  0.00000000000E+00 0.  1.
        -13    1    1    2    0    0  0.14222453285E+02 -0.12338260604E+01  0.96375051623E+01  0.17224459641E+02  0.00000000000E+00 0. -1.
         13    1    1    2    0    0 -0.14222453285E+02  0.12338260604E+01  0.40653281009E+00  0.14281658626E+02  0.00000000000E+00 0.  1.
<mgrwt>
<rscale>  0 0.29862230E+02</rscale>
<asrwt>0</asrwt>
<pdfrwt beam="2">  1        4 0.16509293E-02 0.29862230E+02</pdfrwt>
<pdfrwt beam="1">  1       -4 0.31961659E-02 0.29862230E+02</pdfrwt>
<totfact> 0.52274808E+05</totfact>
</mgrwt>
</event>
<event>
 4    1  0.2165211E+000  0.2256140E+02  0.7546771E-02  0.1698720E+00
          1   -1    0    0  501    0  0.00000000000E+00  0.00000000000E+00  0.45642687118E+02  0.45642687118E+02  0.00000000000E+00 0. -1.
         -1   -1    0    0    0  501 -0.00000000000E+00 -0.00000000000E+00 -0.27880514942E+01  0.27880514942E+01  0.00000000000E+00 0.  1.
        -11    1    1    2    0    0  0.19755799003E+01 -0.11037257998E+02  0.18771938075E+02  0.21865718354E+02  0.00000000000E+00 0. -1.
         11    1    1    2    0    0 -0.19755799003E+01  0.11037257998E+02  0.24082697549E+02  0.26565020258E+02  0.00000000000E+00 0.  1.
<mgrwt>
<rscale>  0 0.22561397E+02</rscale>
<asrwt>0</asrwt>
<pdfrwt beam="1">  1        1 0.70219513E-02 0.22561397E+02</pdfrwt>
<pdfrwt beam="2">  1       -1 0.42893103E-03 0.22561397E+02</pdfrwt>
<totfact> 0.31611959E+06</totfact>
</mgrwt>
</event>
<event>
 4    1  0.2165211E+000  0.3911204E+02  0.7546771E-02  0.1514849E+00
         -2   -1    0    0    0  501 -0.00000000000E+00  0.00000000000E+00  0.14913672017E+02  0.14913672017E+02  0.00000000000E+00 0.  1.
          2   -1    0    0  501    0  0.00000000000E+00 -0.00000000000E+00 -0.25643448652E+02  0.25643448652E+02  0.00000000000E+00 0. -1.
        -11    1    1    2    0    0 -0.11095522785E+02 -0.15045751060E+02 -0.11317428302E+02  0.21853362080E+02  0.00000000000E+00 0. -1.
         11    1    1    2    0    0  0.11095522785E+02  0.15045751060E+02  0.58765166686E+00  0.18703758588E+02  0.00000000000E+00 0.  1.
<mgrwt>
<rscale>  0 0.39112043E+02</rscale>
<asrwt>0</asrwt>
<pdfrwt beam="2">  1        2 0.39451459E-02 0.39112043E+02</pdfrwt>
<pdfrwt beam="1">  1       -2 0.22944111E-02 0.39112043E+02</pdfrwt>
<totfact> 0.86226550E+05</totfact>
</mgrwt>
</event>
<event>
 4    1  0.2165211E+000  0.3786509E+02  0.7546771E-02  0.1524537E+00
         -4   -1    0    0    0  501 -0.00000000000E+00  0.00000000000E+00  0.54828448999E+02  0.54828448999E+02  0.00000000000E+00 0.  1.
          4   -1    0    0  501    0  0.00000000000E+00 -0.00000000000E+00 -0.65375061016E+01  0.65375061016E+01  0.00000000000E+00 0. -1.
        -13    1    1    2    0    0  0.11864312788E+02 -0.14454011075E+02  0.28942413365E+02  0.34457853176E+02  0.00000000000E+00 0. -1.
         13    1    1    2    0    0 -0.11864312788E+02  0.14454011075E+02  0.19348529531E+02  0.26908101924E+02  0.00000000000E+00 0.  1.
<mgrwt>
<rscale>  0 0.37865093E+02</rscale>
<asrwt>0</asrwt>
<pdfrwt beam="2">  1        4 0.10057702E-02 0.37865093E+02</pdfrwt>
<pdfrwt beam="1">  1       -4 0.84351457E-02 0.37865093E+02</pdfrwt>
<totfact> 0.27285576E+05</totfact>
</mgrwt>
</event>
<event>
 4    1  0.2165211E+000  0.2716621E+02  0.7546771E-02  0.1631705E+00
          2   -1    0    0  501    0  0.00000000000E+00  0.00000000000E+00  0.33591261350E+02  0.33591261350E+02  0.00000000000E+00 0. -1.
         -2   -1    0    0    0  501 -0.00000000000E+00 -0.00000000000E+00 -0.54925227343E+01  0.54925227343E+01  0.00000000000E+00 0.  1.
        -11    1    1    2    0    0 -0.13178290442E+02 -0.17676523216E+01  0.18043863912E+02  0.22413677935E+02  0.00000000000E+00 0. -1.
         11    1    1    2    0    0  0.13178290442E+02  0.17676523216E+01  0.10054874704E+02  0.16670106149E+02  0.00000000000E+00 0.  1.
<mgrwt>
<rscale>  0 0.27166212E+02</rscale>
<asrwt>0</asrwt>
<pdfrwt beam="1">  1        2 0.51678862E-02 0.27166212E+02</pdfrwt>
<pdfrwt beam="2">  1       -2 0.84500352E-03 0.27166212E+02</pdfrwt>
<totfact> 0.21716738E+06</totfact>
</mgrwt>
</event>
<event>
 4    1  0.2165211E+000  0.2291675E+02  0.7546771E-02  0.1692863E+00
         -2   -1    0    0    0  501 -0.00000000000E+00  0.00000000000E+00  0.54837047742E+01  0.54837047742E+01  0.00000000000E+00 0.  1.
          2   -1    0    0  501    0  0.00000000000E+00 -0.00000000000E+00 -0.23942635593E+02  0.23942635593E+02  0.00000000000E+00 0. -1.
        -13    1    1    2    0    0 -0.89008015149E+01 -0.61581453786E+01 -0.14059167936E+02  0.17742807702E+02  0.00000000000E+00 0.  1.
         13    1    1    2    0    0  0.89008015149E+01  0.61581453786E+01 -0.43997628833E+01  0.11683532665E+02  0.00000000000E+00 0. -1.
<mgrwt>
<rscale>  0 0.22916749E+02</rscale>
<asrwt>0</asrwt>
<pdfrwt beam="2">  1        2 0.36834824E-02 0.22916749E+02</pdfrwt>
<pdfrwt beam="1">  1       -2 0.84364688E-03 0.22916749E+02</pdfrwt>
<totfact> 0.31075257E+06</totfact>
</mgrwt>
</event>
<event>
 4    1  0.2165211E+000  0.3613645E+02  0.7546771E-02  0.1538734E+00
         -2   -1    0    0    0  501 -0.00000000000E+00  0.00000000000E+00  0.66716230027E+01  0.66716230027E+01  0.00000000000E+00 0.  1.
          2   -1    0    0  501    0  0.00000000000E+00 -0.00000000000E+00 -0.48932720870E+02  0.48932720870E+02  0.00000000000E+00 0. -1.
        -11    1    1    2    0    0  0.13765929777E+02  0.10978905814E+02 -0.14894697458E+02  0.23062723340E+02  0.00000000000E+00 0.  1.
         11    1    1    2    0    0 -0.13765929777E+02 -0.10978905814E+02 -0.27366400410E+02  0.32541620533E+02  0.00000000000E+00 0. -1.
<mgrwt>
<rscale>  0 0.36136445E+02</rscale>
<asrwt>0</asrwt>
<pdfrwt beam="2">  1        2 0.75281109E-02 0.36136445E+02</pdfrwt>
<pdfrwt beam="1">  1       -2 0.10264035E-02 0.36136445E+02</pdfrwt>
<totfact> 0.11553855E+06</totfact>
</mgrwt>
</event>
<event>
 4    1  0.2165211E+000  0.7865472E+02  0.7546771E-02  0.1332913E+00
          4   -1    0    0  501    0  0.00000000000E+00  0.00000000000E+00  0.96711619748E+02  0.96711619748E+02  0.00000000000E+00 0. -1.
         -4   -1    0    0    0  501 -0.00000000000E+00 -0.00000000000E+00 -0.15992299839E+02  0.15992299839E+02  0.00000000000E+00 0.  1.
        -11    1    1    2    0    0  0.32568609584E+02  0.16129511439E+02  0.61889621998E+02  0.71771866219E+02  0.00000000000E+00 0. -1.
         11    1    1    2    0    0 -0.32568609584E+02 -0.16129511439E+02  0.18829697911E+02  0.40932053368E+02  0.00000000000E+00 0.  1.
<mgrwt>
<rscale>  0 0.78654719E+02</rscale>
<asrwt>0</asrwt>
<pdfrwt beam="1">  1        4 0.14878710E-01 0.78654719E+02</pdfrwt>
<pdfrwt beam="2">  1       -4 0.24603539E-02 0.78654719E+02</pdfrwt>
<totfact> 0.38137929E+04</totfact>
</mgrwt>
</event>
<event>
 4    1  0.2165211E+000  0.2489281E+02  0.7546771E-02  0.1662546E+00
         -2   -1    0    0    0  501 -0.00000000000E+00  0.00000000000E+00  0.16156877785E+01  0.16156877785E+01  0.00000000000E+00 0. -1.
          2   -1    0    0  501    0  0.00000000000E+00 -0.00000000000E+00 -0.95880544117E+02  0.95880544117E+02  0.00000000000E+00 0.  1.
        -11    1    1    2    0    0  0.55523814156E+01 -0.11061211151E+02 -0.41975396235E+02  0.43762006587E+02  0.00000000000E+00 0.  1.
         11    1    1    2    0    0 -0.55523814156E+01  0.11061211151E+02 -0.52289460104E+02  0.53734225308E+02  0.00000000000E+00 0. -1.
<mgrwt>
<rscale>  0 0.24892812E+02</rscale>
<asrwt>0</asrwt>
<pdfrwt beam="2">  1        2 0.14750852E-01 0.24892812E+02</pdfrwt>
<pdfrwt beam="1">  1       -2 0.24856737E-03 0.24892812E+02</pdfrwt>
<totfact> 0.31936026E+06</totfact>
</mgrwt>
</event>
<event>
 4    1  0.2165211E+000  0.6208662E+02  0.7546771E-02  0.1389278E+00
          2   -1    0    0  501    0  0.00000000000E+00  0.00000000000E+00  0.36740006569E+03  0.36740006569E+03  0.00000000000E+00 0. -1.
         -2   -1    0    0    0  501 -0.00000000000E+00 -0.00000000000E+00 -0.26229907761E+01  0.26229907761E+01  0.00000000000E+00 0.  1.
        -11    1    1    2    0    0  0.32629852486E+01  0.30869412826E+02  0.18033036038E+03  0.18298253085E+03  0.00000000000E+00 0. -1.
         11    1    1    2    0    0 -0.32629852486E+01 -0.30869412826E+02  0.18444671454E+03  0.18704052562E+03  0.00000000000E+00 0.  1.
<mgrwt>
<rscale>  0 0.62086616E+02</rscale>
<asrwt>0</asrwt>
<pdfrwt beam="1">  1        2 0.56523046E-01 0.62086616E+02</pdfrwt>
<pdfrwt beam="2">  1       -2 0.40353733E-03 0.62086616E+02</pdfrwt>
<totfact> 0.52637183E+05</totfact>
</mgrwt>
</event>
<event>
 4    1  0.2165211E+000  0.3041229E+02  0.7546771E-02  0.1593576E+00
          2   -1    0    0  501    0  0.00000000000E+00  0.00000000000E+00  0.46443451973E+02  0.46443451973E+02  0.00000000000E+00 0. -1.
         -2   -1    0    0    0  501 -0.00000000000E+00 -0.00000000000E+00 -0.49786737909E+01  0.49786737909E+01  0.00000000000E+00 0.  1.
        -11    1    1    2    0    0  0.12704631721E+02  0.82719640087E+01  0.22728533905E+02  0.27320675490E+02  0.00000000000E+00 0.  1.
         11    1    1    2    0    0 -0.12704631721E+02 -0.82719640087E+01  0.18736244276E+02  0.24101450274E+02  0.00000000000E+00 0. -1.
<mgrwt>
<rscale>  0 0.30412287E+02</rscale>
<asrwt>0</asrwt>
<pdfrwt beam="1">  1        2 0.71451461E-02 0.30412287E+02</pdfrwt>
<pdfrwt beam="2">  1       -2 0.76594985E-03 0.30412287E+02</pdfrwt>
<totfact> 0.17392196E+06</totfact>
</mgrwt>
</event>
<event>
 4    1  0.2165211E+000  0.4847803E+02  0.7546771E-02  0.1453728E+00
         -1   -1    0    0    0  501 -0.00000000000E+00  0.00000000000E+00  0.73807902822E+01  0.73807902822E+01  0.00000000000E+00 0. -1.
          1   -1    0    0  501    0  0.00000000000E+00 -0.00000000000E+00 -0.79602573418E+02  0.79602573418E+02  0.00000000000E+00 0.  1.
        -13    1    1    2    0    0  0.81894017838E+01 -0.14466956970E+02 -0.44596608005E+01  0.17211848245E+02  0.00000000000E+00 0. -1.
         13    1    1    2    0    0 -0.81894017838E+01  0.14466956970E+02 -0.67762122335E+02  0.69771515455E+02  0.00000000000E+00 0.  1.
<mgrwt>
<rscale>  0 0.48478032E+02</rscale>
<asrwt>0</asrwt>
<pdfrwt beam="2">  1        1 0.12246550E-01 0.48478032E+02</pdfrwt>
<pdfrwt beam="1">  1       -1 0.11355062E-02 0.48478032E+02</pdfrwt>
<totfact> 0.53032935E+05</totfact>
</mgrwt>
</event>
<event>
 4    1  0.2165211E+000  0.3003266E+02  0.7546771E-02  0.1597728E+00
         -2   -1    0    0    0  501 -0.00000000000E+00  0.00000000000E+00  0.34257490223E+01  0.34257490223E+01  0.00000000000E+00 0. -1.
          2   -1    0    0  501    0  0.00000000000E+00 -0.00000000000E+00 -0.65822168727E+02  0.65822168727E+02  0.00000000000E+00 0.  1.
        -11    1    1    2    0    0 -0.14135363216E+02 -0.20287158831E+01 -0.41905958049E+02  0.44272265601E+02  0.00000000000E+00 0.  1.
         11    1    1    2    0    0  0.14135363216E+02  0.20287158831E+01 -0.20490461655E+02  0.24975652149E+02  0.00000000000E+00 0. -1.
<mgrwt>
<rscale>  0 0.30032664E+02</rscale>
<asrwt>0</asrwt>
<pdfrwt beam="2">  1        2 0.10126488E-01 0.30032664E+02</pdfrwt>
<pdfrwt beam="1">  1       -2 0.52703828E-03 0.30032664E+02</pdfrwt>
<totfact> 0.19042637E+06</totfact>
</mgrwt>
</event>
<event>
 4    1  0.2165211E+000  0.2665437E+02  0.7546771E-02  0.1638317E+00
         -2   -1    0    0    0  501 -0.00000000000E+00  0.00000000000E+00  0.11556643047E+03  0.11556643047E+03  0.00000000000E+00 0.  1.
          2   -1    0    0  501    0  0.00000000000E+00 -0.00000000000E+00 -0.15368987525E+01  0.15368987525E+01  0.00000000000E+00 0. -1.
        -13    1    1    2    0    0  0.10169782072E+02  0.85699859550E+01  0.60806288465E+02  0.62243665088E+02  0.00000000000E+00 0.  1.
         13    1    1    2    0    0 -0.10169782072E+02 -0.85699859550E+01  0.53223243255E+02  0.54859664137E+02  0.00000000000E+00 0. -1.
<mgrwt>
<rscale>  0 0.26654373E+02</rscale>
<asrwt>0</asrwt>
<pdfrwt beam="2">  1        2 0.23644605E-03 0.26654373E+02</pdfrwt>
<pdfrwt beam="1">  1       -2 0.17779444E-01 0.26654373E+02</pdfrwt>
<totfact> 0.15086763E+06</totfact>
</mgrwt>
</event>
<event>
 4    1  0.2165211E+000  0.3178992E+02  0.7546771E-02  0.1579106E+00
          4   -1    0    0  501    0  0.00000000000E+00  0.00000000000E+00  0.10744695122E+02  0.10744695122E+02  0.00000000000E+00 0.  1.
         -4   -1    0    0    0  501 -0.00000000000E+00 -0.00000000000E+00 -0.23513899139E+02  0.23513899139E+02  0.00000000000E+00 0. -1.
        -11    1    1    2    0    0 -0.14318110027E+02 -0.34892239659E+01  0.33264422548E-01  0.14737166117E+02  0.00000000000E+00 0.  1.
         11    1    1    2    0    0  0.14318110027E+02  0.34892239659E+01 -0.12802468440E+02  0.19521428144E+02  0.00000000000E+00 0. -1.
<mgrwt>
<rscale>  0 0.31789915E+02</rscale>
<asrwt>0</asrwt>
<pdfrwt beam="1">  1        4 0.16530300E-02 0.31789915E+02</pdfrwt>
<pdfrwt beam="2">  1       -4 0.36175229E-02 0.31789915E+02</pdfrwt>
<totfact> 0.44868988E+05</totfact>
</mgrwt>
</event>
<event>
 4    1  0.2165211E+000  0.1312720E+03  0.7546771E-02  0.1225580E+00
         -2   -1    0    0    0  501 -0.00000000000E+00  0.00000000000E+00  0.94360313548E+01  0.94360313548E+01  0.00000000000E+00 0.  1.
          2   -1    0    0  501    0  0.00000000000E+00 -0.00000000000E+00 -0.45655672300E+03  0.45655672300E+03  0.00000000000E+00 0. -1.
        -13    1    1    2    0    0 -0.63767705962E+02  0.43936194999E+01 -0.17061443435E+03  0.18219470197E+03  0.00000000000E+00 0.  1.
         13    1    1    2    0    0  0.63767705962E+02 -0.43936194999E+01 -0.27650625729E+03  0.28379805239E+03  0.00000000000E+00 0. -1.
<mgrwt>
<rscale>  0 0.13127199E+03</rscale>
<asrwt>0</asrwt>
<pdfrwt beam="2">  1        2 0.70239481E-01 0.13127199E+03</pdfrwt>
<pdfrwt beam="1">  1       -2 0.14516974E-02 0.13127199E+03</pdfrwt>
<totfact> 0.78092113E+04</totfact>
</mgrwt>
</event>
<event>
 4    1  0.2165211E+000  0.2615277E+02  0.7546771E-02  0.1644976E+00
         -2   -1    0    0    0  501 -0.00000000000E+00  0.00000000000E+00  0.13705289191E+02  0.13705289191E+02  0.00000000000E+00 0.  1.
          2   -1    0    0  501    0  0.00000000000E+00 -0.00000000000E+00 -0.12476335577E+02  0.12476335577E+02  0.00000000000E+00 0. -1.
        -11    1    1    2    0    0  0.12830207545E+02 -0.59167681188E+00  0.30722786369E+01  0.13206180489E+02  0.00000000000E+00 0.  1.
         11    1    1    2    0    0 -0.12830207545E+02  0.59167681188E+00 -0.18433250229E+01  0.12975444279E+02  0.00000000000E+00 0. -1.
<mgrwt>
<rscale>  0 0.26152766E+02</rscale>
<asrwt>0</asrwt>
<pdfrwt beam="2">  1        2 0.19194362E-02 0.26152766E+02</pdfrwt>
<pdfrwt beam="1">  1       -2 0.21085060E-02 0.26152766E+02</pdfrwt>
<totfact> 0.21440420E+06</totfact>
</mgrwt>
</event>
<event>
 4    1  0.2165211E+000  0.2790486E+02  0.7546771E-02  0.1622474E+00
         -2   -1    0    0    0  501 -0.00000000000E+00  0.00000000000E+00  0.11279722981E+02  0.11279722981E+02  0.00000000000E+00 0. -1.
          2   -1    0    0  501    0  0.00000000000E+00 -0.00000000000E+00 -0.17258424234E+02  0.17258424234E+02  0.00000000000E+00 0.  1.
        -13    1    1    2    0    0  0.58242471375E+01 -0.12602036693E+02 -0.15659812032E+01  0.13970879738E+02  0.00000000000E+00 0. -1.
         13    1    1    2    0    0 -0.58242471375E+01  0.12602036693E+02 -0.44127200504E+01  0.14567267478E+02  0.00000000000E+00 0.  1.
<mgrwt>
<rscale>  0 0.27904856E+02</rscale>
<asrwt>0</asrwt>
<pdfrwt beam="2">  1        2 0.26551422E-02 0.27904856E+02</pdfrwt>
<pdfrwt beam="1">  1       -2 0.17353420E-02 0.27904856E+02</pdfrwt>
<totfact> 0.18924257E+06</totfact>
</mgrwt>
</event>
<event>
 4    1  0.2165211E+000  0.3118638E+02  0.7546771E-02  0.1585333E+00
         -2   -1    0    0    0  501 -0.00000000000E+00  0.00000000000E+00  0.13535686728E+02  0.13535686728E+02  0.00000000000E+00 0.  1.
          2   -1    0    0  501    0  0.00000000000E+00 -0.00000000000E+00 -0.17963451063E+02  0.17963451063E+02  0.00000000000E+00 0. -1.
        -13    1    1    2    0    0 -0.12282921531E+02 -0.76721559927E+01 -0.80524679401E+01  0.16570286022E+02  0.00000000000E+00 0. -1.
         13    1    1    2    0    0  0.12282921531E+02  0.76721559927E+01  0.36247036053E+01  0.14928851769E+02  0.00000000000E+00 0.  1.
<mgrwt>
<rscale>  0 0.31186385E+02</rscale>
<asrwt>0</asrwt>
<pdfrwt beam="2">  1        2 0.27636079E-02 0.31186385E+02</pdfrwt>
<pdfrwt beam="1">  1       -2 0.20824133E-02 0.31186385E+02</pdfrwt>
<totfact> 0.14508900E+06</totfact>
</mgrwt>
</event>
<event>
 4    1  0.2165211E+000  0.3848731E+02  0.7546771E-02  0.1519648E+00
         -2   -1    0    0    0  501 -0.00000000000E+00  0.00000000000E+00  0.29064966968E+02  0.29064966968E+02  0.00000000000E+00 0. -1.
          2   -1    0    0  501    0  0.00000000000E+00 -0.00000000000E+00 -0.12741054985E+02  0.12741054985E+02  0.00000000000E+00 0.  1.
        -13    1    1    2    0    0 -0.79116549781E+01  0.16156929313E+02  0.15583186618E+02  0.23800763738E+02  0.00000000000E+00 0.  1.
         13    1    1    2    0    0  0.79116549781E+01 -0.16156929313E+02  0.74072536480E+00  0.18005258215E+02  0.00000000000E+00 0. -1.
<mgrwt>
<rscale>  0 0.38487314E+02</rscale>
<asrwt>0</asrwt>
<pdfrwt beam="2">  1        2 0.19601623E-02 0.38487314E+02</pdfrwt>
<pdfrwt beam="1">  1       -2 0.44715333E-02 0.38487314E+02</pdfrwt>
<totfact> 0.82129414E+05</totfact>
</mgrwt>
</event>
<event>
 4    1  0.2165211E+000  0.2462052E+02  0.7546771E-02  0.1666513E+00
          2   -1    0    0  501    0  0.00000000000E+00  0.00000000000E+00  0.14519374072E+02  0.14519374072E+02  0.00000000000E+00 0. -1.
         -2   -1    0    0    0  501 -0.00000000000E+00 -0.00000000000E+00 -0.10437260679E+02  0.10437260679E+02  0.00000000000E+00 0.  1.
        -13    1    1    2    0    0  0.11871634354E+02 -0.12806760425E+01  0.50763742640E+01  0.12974798997E+02  0.00000000000E+00 0.  1.
         13    1    1    2    0    0 -0.11871634354E+02  0.12806760425E+01 -0.99426087091E+00  0.11981835754E+02  0.00000000000E+00 0. -1.
<mgrwt>
<rscale>  0 0.24620519E+02</rscale>
<asrwt>0</asrwt>
<pdfrwt beam="1">  1        2 0.22337499E-02 0.24620519E+02</pdfrwt>
<pdfrwt beam="2">  1       -2 0.16057324E-02 0.24620519E+02</pdfrwt>
<totfact> 0.25091877E+06</totfact>
</mgrwt>
</event>
<event>
 4    1  0.2165211E+000  0.3105693E+02  0.7546771E-02  0.1586691E+00
         -4   -1    0    0    0  501 -0.00000000000E+00  0.00000000000E+00  0.45516904433E+02  0.45516904433E+02  0.00000000000E+00 0.  1.
          4   -1    0    0  501    0  0.00000000000E+00 -0.00000000000E+00 -0.52976635966E+01  0.52976635966E+01  0.00000000000E+00 0. -1.
        -11    1    1    2    0    0 -0.57063112262E+01 -0.14298797217E+02  0.16790298805E+02  0.22780072950E+02  0.00000000000E+00 0. -1.
         11    1    1    2    0    0  0.57063112262E+01  0.14298797217E+02  0.23428942032E+02  0.28034495080E+02  0.00000000000E+00 0.  1.
<mgrwt>
<rscale>  0 0.31056931E+02</rscale>
<asrwt>0</asrwt>
<pdfrwt beam="2">  1        4 0.81502520E-03 0.31056931E+02</pdfrwt>
<pdfrwt beam="1">  1       -4 0.70026004E-02 0.31056931E+02</pdfrwt>
<totfact> 0.44633258E+05</totfact>
</mgrwt>
</event>
<event>
 4    1  0.2165211E+000  0.2050063E+02  0.7546771E-02  0.1735552E+00
          4   -1    0    0  501    0  0.00000000000E+00  0.00000000000E+00  0.16426939795E+01  0.16426939795E+01  0.00000000000E+00 0.  1.
         -4   -1    0    0    0  501 -0.00000000000E+00 -0.00000000000E+00 -0.63961345718E+02  0.63961345718E+02  0.00000000000E+00 0. -1.
        -11    1    1    2    0    0 -0.94775844085E+01 -0.34816043392E+01 -0.36814312044E+02  0.38173809691E+02  0.00000000000E+00 0.  1.
         11    1    1    2    0    0  0.94775844085E+01  0.34816043392E+01 -0.25504339694E+02  0.27430230006E+02  0.00000000000E+00 0. -1.
<mgrwt>
<rscale>  0 0.20500626E+02</rscale>
<asrwt>0</asrwt>
<pdfrwt beam="1">  1        4 0.25272212E-03 0.20500626E+02</pdfrwt>
<pdfrwt beam="2">  1       -4 0.98402083E-02 0.20500626E+02</pdfrwt>
<totfact> 0.10377224E+06</totfact>
</mgrwt>
</event>
<event>
 4    1  0.2165211E+000  0.2980164E+02  0.7546771E-02  0.1600292E+00
         -1   -1    0    0    0  501 -0.00000000000E+00  0.00000000000E+00  0.81260575058E+02  0.81260575058E+02  0.00000000000E+00 0. -1.
          1   -1    0    0  501    0  0.00000000000E+00 -0.00000000000E+00 -0.27323755377E+01  0.27323755377E+01  0.00000000000E+00 0.  1.
        -13    1    1    2    0    0 -0.10857961310E+02  0.24040578026E+01  0.11312217610E+02  0.15863199078E+02  0.00000000000E+00 0.  1.
         13    1    1    2    0    0  0.10857961310E+02 -0.24040578026E+01  0.67215981910E+02  0.68129751517E+02  0.00000000000E+00 0. -1.
<mgrwt>
<rscale>  0 0.29801638E+02</rscale>
<asrwt>0</asrwt>
<pdfrwt beam="2">  1        1 0.42036553E-03 0.29801638E+02</pdfrwt>
<pdfrwt beam="1">  1       -1 0.12501625E-01 0.29801638E+02</pdfrwt>
<totfact> 0.13339625E+06</totfact>
</mgrwt>
</event>
<event>
 4    1  0.2165211E+000  0.3832031E+02  0.7546771E-02  0.1520949E+00
          2   -1    0    0  501    0  0.00000000000E+00  0.00000000000E+00  0.10670674242E+02  0.10670674242E+02  0.00000000000E+00 0.  1.
         -2   -1    0    0    0  501 -0.00000000000E+00 -0.00000000000E+00 -0.34403780762E+02  0.34403780762E+02  0.00000000000E+00 0. -1.
        -13    1    1    2    0    0 -0.17625718809E+02  0.66885400087E+01 -0.78415939806E+01  0.20417960895E+02  0.00000000000E+00 0. -1.
         13    1    1    2    0    0  0.17625718809E+02 -0.66885400087E+01 -0.15891512539E+02  0.24656494109E+02  0.00000000000E+00 0.  1.
<mgrwt>
<rscale>  0 0.38320310E+02</rscale>
<asrwt>0</asrwt>
<pdfrwt beam="1">  1        2 0.16416422E-02 0.38320310E+02</pdfrwt>
<pdfrwt beam="2">  1       -2 0.52928893E-02 0.38320310E+02</pdfrwt>
<totfact> 0.81137282E+05</totfact>
</mgrwt>
</event>
<event>
 4    1  0.2165211E+000  0.4935210E+02  0.7546771E-02  0.1448868E+00
         -2   -1    0    0    0  501 -0.00000000000E+00  0.00000000000E+00  0.46800507351E+01  0.46800507351E+01  0.00000000000E+00 0. -1.
          2   -1    0    0  501    0  0.00000000000E+00 -0.00000000000E+00 -0.13010699484E+03  0.13010699484E+03  0.00000000000E+00 0.  1.
        -13    1    1    2    0    0 -0.19343394283E+01  0.18905574771E+02 -0.19725701172E+02  0.27390978682E+02  0.00000000000E+00 0. -1.
         13    1    1    2    0    0  0.19343394283E+01 -0.18905574771E+02 -0.10570124293E+03  0.10739606689E+03  0.00000000000E+00 0.  1.
<mgrwt>
<rscale>  0 0.49352096E+02</rscale>
<asrwt>0</asrwt>
<pdfrwt beam="2">  1        2 0.20016458E-01 0.49352096E+02</pdfrwt>
<pdfrwt beam="1">  1       -2 0.72000789E-03 0.49352096E+02</pdfrwt>
<totfact> 0.66518783E+05</totfact>
</mgrwt>
</event>
<event>
 4    1  0.2165211E+000  0.3039202E+02  0.7546771E-02  0.1593795E+00
         -2   -1    0    0    0  501 -0.00000000000E+00  0.00000000000E+00  0.49050152249E+01  0.49050152249E+01  0.00000000000E+00 0.  1.
          2   -1    0    0  501    0  0.00000000000E+00 -0.00000000000E+00 -0.47078071272E+02  0.47078071272E+02  0.00000000000E+00 0. -1.
        -13    1    1    2    0    0 -0.14545834838E+02 -0.40085433259E+01 -0.24178995033E+02  0.28500412831E+02  0.00000000000E+00 0. -1.
         13    1    1    2    0    0  0.14545834838E+02  0.40085433259E+01 -0.17994061014E+02  0.23482673666E+02  0.00000000000E+00 0.  1.
<mgrwt>
<rscale>  0 0.30392016E+02</rscale>
<asrwt>0</asrwt>
<pdfrwt beam="2">  1        2 0.72427802E-02 0.30392016E+02</pdfrwt>
<pdfrwt beam="1">  1       -2 0.75461772E-03 0.30392016E+02</pdfrwt>
<totfact> 0.17457374E+06</totfact>
</mgrwt>
</event>
<event>
 4    1  0.2165211E+000  0.2303021E+02  0.7546771E-02  0.1691021E+00
          2   -1    0    0  501    0  0.00000000000E+00  0.00000000000E+00  0.18186723078E+02  0.18186723078E+02  0.00000000000E+00 0. -1.
         -2   -1    0    0    0  501 -0.00000000000E+00 -0.00000000000E+00 -0.72909028635E+01  0.72909028635E+01  0.00000000000E+00 0.  1.
        -11    1    1    2    0    0  0.80175004825E+01 -0.76288854907E+01  0.89667219422E+01  0.14243676148E+02  0.00000000000E+00 0. -1.
         11    1    1    2    0    0 -0.80175004825E+01  0.76288854907E+01  0.19290982720E+01  0.11233949793E+02  0.00000000000E+00 0.  1.
<mgrwt>
<rscale>  0 0.23030209E+02</rscale>
<asrwt>0</asrwt>
<pdfrwt beam="1">  1        2 0.27979574E-02 0.23030209E+02</pdfrwt>
<pdfrwt beam="2">  1       -2 0.11216774E-02 0.23030209E+02</pdfrwt>
<totfact> 0.29925515E+06</totfact>
</mgrwt>
</event>
<event>
 4    1  0.2165211E+000  0.2245911E+02  0.7546771E-02  0.1700431E+00
          2   -1    0    0  501    0  0.00000000000E+00  0.00000000000E+00  0.24886724908E+01  0.24886724908E+01  0.00000000000E+00 0.  1.
         -2   -1    0    0    0  501 -0.00000000000E+00 -0.00000000000E+00 -0.50670766292E+02  0.50670766292E+02  0.00000000000E+00 0. -1.
        -11    1    1    2    0    0 -0.71261323906E+01  0.84490778406E+01 -0.19396221196E+02  0.22324472578E+02  0.00000000000E+00 0. -1.
         11    1    1    2    0    0  0.71261323906E+01 -0.84490778406E+01 -0.28785872605E+02  0.30834966205E+02  0.00000000000E+00 0.  1.
<mgrwt>
<rscale>  0 0.22459113E+02</rscale>
<asrwt>0</asrwt>
<pdfrwt beam="1">  1        2 0.38287268E-03 0.22459113E+02</pdfrwt>
<pdfrwt beam="2">  1       -2 0.77955028E-02 0.22459113E+02</pdfrwt>
<totfact> 0.26195439E+06</totfact>
</mgrwt>
</event>
<event>
 4    1  0.2165211E+000  0.2549248E+02  0.7546771E-02  0.1654027E+00
         -1   -1    0    0    0  501 -0.00000000000E+00  0.00000000000E+00  0.72203001304E+02  0.72203001304E+02  0.00000000000E+00 0.  1.
          1   -1    0    0  501    0  0.00000000000E+00 -0.00000000000E+00 -0.22501370964E+01  0.22501370964E+01  0.00000000000E+00 0. -1.
        -13    1    1    2    0    0  0.84259200360E+01 -0.94970886536E+01  0.31677545677E+02  0.34127081936E+02  0.00000000000E+00 0. -1.
         13    1    1    2    0    0 -0.84259200360E+01  0.94970886536E+01  0.38275318530E+02  0.40326056464E+02  0.00000000000E+00 0.  1.
<mgrwt>
<rscale>  0 0.25492481E+02</rscale>
<asrwt>0</asrwt>
<pdfrwt beam="2">  1        1 0.34617499E-03 0.25492481E+02</pdfrwt>
<pdfrwt beam="1">  1       -1 0.11108152E-01 0.25492481E+02</pdfrwt>
<totfact> 0.19434313E+06</totfact>
</mgrwt>
</event>
<event>
 4    1  0.2165211E+000  0.2339770E+02  0.7546771E-02  0.1685144E+00
         -2   -1    0    0    0  501 -0.00000000000E+00  0.00000000000E+00  0.43214594469E+02  0.43214594469E+02  0.00000000000E+00 0. -1.
          2   -1    0    0  501    0  0.00000000000E+00 -0.00000000000E+00 -0.31670563896E+01  0.31670563896E+01  0.00000000000E+00 0.  1.
        -13    1    1    2    0    0  0.64729744479E+01 -0.97275670003E+01  0.21176413608E+02  0.24186059027E+02  0.00000000000E+00 0.  1.
         13    1    1    2    0    0 -0.64729744479E+01  0.97275670003E+01  0.18871124471E+02  0.22195591832E+02  0.00000000000E+00 0. -1.
<mgrwt>
<rscale>  0 0.23397697E+02</rscale>
<asrwt>0</asrwt>
<pdfrwt beam="2">  1        2 0.48723948E-03 0.23397697E+02</pdfrwt>
<pdfrwt beam="1">  1       -2 0.66483987E-02 0.23397697E+02</pdfrwt>
<totfact> 0.24441751E+06</totfact>
</mgrwt>
</event>
<event>
 4    1  0.2165211E+000  0.3351729E+02  0.7546771E-02  0.1562176E+00
         -1   -1    0    0    0  501 -0.00000000000E+00  0.00000000000E+00  0.11875934311E+02  0.11875934311E+02  0.00000000000E+00 0.  1.
          1   -1    0    0  501    0  0.00000000000E+00 -0.00000000000E+00 -0.23648852416E+02  0.23648852416E+02  0.00000000000E+00 0. -1.
        -13    1    1    2    0    0 -0.15014118060E+02  0.39856183461E+01  0.77852533424E+00  0.15553616827E+02  0.00000000000E+00 0.  1.
         13    1    1    2    0    0  0.15014118060E+02 -0.39856183461E+01 -0.12551443439E+02  0.19971169899E+02  0.00000000000E+00 0. -1.
<mgrwt>
<rscale>  0 0.33517292E+02</rscale>
<asrwt>0</asrwt>
<pdfrwt beam="2">  1        1 0.36382850E-02 0.33517292E+02</pdfrwt>
<pdfrwt beam="1">  1       -1 0.18270668E-02 0.33517292E+02</pdfrwt>
<totfact> 0.11937712E+06</totfact>
</mgrwt>
</event>
<event>
 4    1  0.2165211E+000  0.2424425E+02  0.7546771E-02  0.1672100E+00
         -2   -1    0    0    0  501 -0.00000000000E+00  0.00000000000E+00  0.78972764798E+01  0.78972764798E+01  0.00000000000E+00 0. -1.
          2   -1    0    0  501    0  0.00000000000E+00 -0.00000000000E+00 -0.18607157900E+02  0.18607157900E+02  0.00000000000E+00 0.  1.
        -11    1    1    2    0    0  0.63043773414E+01 -0.85431493716E+01 -0.11749638137E+02  0.15836179186E+02  0.00000000000E+00 0.  1.
         11    1    1    2    0    0 -0.63043773414E+01  0.85431493716E+01  0.10397567174E+01  0.10668255194E+02  0.00000000000E+00 0. -1.
<mgrwt>
<rscale>  0 0.24244246E+02</rscale>
<asrwt>0</asrwt>
<pdfrwt beam="2">  1        2 0.28626397E-02 0.24244246E+02</pdfrwt>
<pdfrwt beam="1">  1       -2 0.12149656E-02 0.24244246E+02</pdfrwt>
<totfact> 0.26609384E+06</totfact>
</mgrwt>
</event>
<event>
 4    1  0.2165211E+000  0.2067105E+02  0.7546771E-02  0.1732304E+00
          1   -1    0    0  501    0  0.00000000000E+00  0.00000000000E+00  0.10509647934E+03  0.10509647934E+03  0.00000000000E+00 0. -1.
         -1   -1    0    0    0  501 -0.00000000000E+00 -0.00000000000E+00 -0.10164282840E+01  0.10164282840E+01  0.00000000000E+00 0.  1.
        -11    1    1    2    0    0 -0.53576427812E+01  0.87857800430E+01  0.47092829077E+02  0.48204033209E+02  0.00000000000E+00 0. -1.
         11    1    1    2    0    0  0.53576427812E+01 -0.87857800430E+01  0.56987221976E+02  0.57908874412E+02  0.00000000000E+00 0.  1.
<mgrwt>
<rscale>  0 0.20671046E+02</rscale>
<asrwt>0</asrwt>
<pdfrwt beam="1">  1        1 0.16168681E-01 0.20671046E+02</pdfrwt>
<pdfrwt beam="2">  1       -1 0.15637367E-03 0.20671046E+02</pdfrwt>
<totfact> 0.41466430E+06</totfact>
</mgrwt>
</event>
<event>
 4    1  0.2165211E+000  0.2995320E+02  0.7546771E-02  0.1598607E+00
         -2   -1    0    0    0  501 -0.00000000000E+00  0.00000000000E+00  0.25031287233E+01  0.25031287233E+01  0.00000000000E+00 0.  1.
          2   -1    0    0  501    0  0.00000000000E+00 -0.00000000000E+00 -0.89607273234E+02  0.89607273234E+02  0.00000000000E+00 0. -1.
        -11    1    1    2    0    0  0.13321806737E+02  0.36931788278E+01 -0.61267793779E+02  0.62808062055E+02  0.00000000000E+00 0. -1.
         11    1    1    2    0    0 -0.13321806737E+02 -0.36931788278E+01 -0.25836350732E+02  0.29302339902E+02  0.00000000000E+00 0.  1.
<mgrwt>
<rscale>  0 0.29953199E+02</rscale>
<asrwt>0</asrwt>
<pdfrwt beam="2">  1        2 0.13785735E-01 0.29953199E+02</pdfrwt>
<pdfrwt beam="1">  1       -2 0.38509671E-03 0.29953199E+02</pdfrwt>
<totfact> 0.20440705E+06</totfact>
</mgrwt>
</event>
<event>
 4    1  0.2165211E+000  0.2843930E+02  0.7546771E-02  0.1616010E+00
         -2   -1    0    0    0  501 -0.00000000000E+00  0.00000000000E+00  0.67402769523E+02  0.67402769523E+02  0.00000000000E+00 0. -1.
          2   -1    0    0  501    0  0.00000000000E+00 -0.00000000000E+00 -0.29998530310E+01  0.29998530310E+01  0.00000000000E+00 0.  1.
        -11    1    1    2    0    0  0.65680392359E+01  0.12134417955E+02  0.23692236183E+02  0.27417244462E+02  0.00000000000E+00 0.  1.
         11    1    1    2    0    0 -0.65680392359E+01 -0.12134417955E+02  0.40710680309E+02  0.42985378093E+02  0.00000000000E+00 0. -1.
<mgrwt>
<rscale>  0 0.28439297E+02</rscale>
<asrwt>0</asrwt>
<pdfrwt beam="2">  1        2 0.46151590E-03 0.28439297E+02</pdfrwt>
<pdfrwt beam="1">  1       -2 0.10369656E-01 0.28439297E+02</pdfrwt>
<totfact> 0.14658763E+06</totfact>
</mgrwt>
</event>
<event>
 4    1  0.2165211E+000  0.2357056E+02  0.7546771E-02  0.1682425E+00
         -4   -1    0    0    0  501 -0.00000000000E+00  0.00000000000E+00  0.44026658249E+01  0.44026658249E+01  0.00000000000E+00 0. -1.
          4   -1    0    0  501    0  0.00000000000E+00 -0.00000000000E+00 -0.31547446353E+02  0.31547446353E+02  0.00000000000E+00 0.  1.
        -13    1    1    2    0    0 -0.13808290205E+01  0.11123494963E+02 -0.80196885590E+01  0.13782388529E+02  0.00000000000E+00 0. -1.
         13    1    1    2    0    0  0.13808290205E+01 -0.11123494963E+02 -0.19125091969E+02  0.22167723650E+02  0.00000000000E+00 0.  1.
<mgrwt>
<rscale>  0 0.23570563E+02</rscale>
<asrwt>0</asrwt>
<pdfrwt beam="2">  1        4 0.48534533E-02 0.23570563E+02</pdfrwt>
<pdfrwt beam="1">  1       -4 0.67733320E-03 0.23570563E+02</pdfrwt>
<totfact> 0.86357143E+05</totfact>
</mgrwt>
</event>
<event>
 4    1  0.2165211E+000  0.6854895E+02  0.7546771E-02  0.1365098E+00
         -1   -1    0    0    0  501 -0.00000000000E+00  0.00000000000E+00  0.26126829373E+02  0.26126829373E+02  0.00000000000E+00 0.  1.
          1   -1    0    0  501    0  0.00000000000E+00 -0.00000000000E+00 -0.44962963738E+02  0.44962963738E+02  0.00000000000E+00 0. -1.
        -13    1    1    2    0    0  0.35429674884E+01  0.18266117490E+02 -0.39269290311E+02  0.43454353388E+02  0.00000000000E+00 0. -1.
         13    1    1    2    0    0 -0.35429674884E+01 -0.18266117490E+02  0.20433155946E+02  0.27635439723E+02  0.00000000000E+00 0.  1.
<mgrwt>
<rscale>  0 0.68548951E+02</rscale>
<asrwt>0</asrwt>
<pdfrwt beam="2">  1        1 0.69173790E-02 0.68548951E+02</pdfrwt>
<pdfrwt beam="1">  1       -1 0.40195122E-02 0.68548951E+02</pdfrwt>
<totfact> 0.20184469E+05</totfact>
</mgrwt>
</event>
<event>
 4    1  0.2165211E+000  0.2800823E+02  0.7546771E-02  0.1621209E+00
         -4   -1    0    0    0  501 -0.00000000000E+00  0.00000000000E+00  0.27817130392E+02  0.27817130392E+02  0.00000000000E+00 0. -1.
          4   -1    0    0  501    0  0.00000000000E+00 -0.00000000000E+00 -0.70501614839E+01  0.70501614839E+01  0.00000000000E+00 0.  1.
        -11    1    1    2    0    0  0.49995212139E+01  0.98156441764E+01 -0.38130268940E+00  0.11022135669E+02  0.00000000000E+00 0.  1.
         11    1    1    2    0    0 -0.49995212139E+01 -0.98156441764E+01  0.21148271598E+02  0.23845156207E+02  0.00000000000E+00 0. -1.
<mgrwt>
<rscale>  0 0.28008232E+02</rscale>
<asrwt>0</asrwt>
<pdfrwt beam="2">  1        4 0.10846402E-02 0.28008232E+02</pdfrwt>
<pdfrwt beam="1">  1       -4 0.42795585E-02 0.28008232E+02</pdfrwt>
<totfact> 0.59572878E+05</totfact>
</mgrwt>
</event>
<event>
 4    1  0.2165211E+000  0.9504661E+02  0.7546771E-02  0.1291071E+00
         -2   -1    0    0    0  501 -0.00000000000E+00  0.00000000000E+00  0.85157015755E+02  0.85157015755E+02  0.00000000000E+00 0.  1.
          2   -1    0    0  501    0  0.00000000000E+00 -0.00000000000E+00 -0.26521179370E+02  0.26521179370E+02  0.00000000000E+00 0. -1.
        -13    1    1    2    0    0  0.40099944888E+02  0.23429833124E+02  0.17480181051E+02  0.49623778472E+02  0.00000000000E+00 0.  1.
         13    1    1    2    0    0 -0.40099944888E+02 -0.23429833124E+02  0.41155655334E+02  0.62054416654E+02  0.00000000000E+00 0. -1.
<mgrwt>
<rscale>  0 0.95046609E+02</rscale>
<asrwt>0</asrwt>
<pdfrwt beam="2">  1        2 0.40801815E-02 0.95046609E+02</pdfrwt>
<pdfrwt beam="1">  1       -2 0.13101079E-01 0.95046609E+02</pdfrwt>
<totfact> 0.75462390E+04</totfact>
</mgrwt>
</event>
<event>
 4    1  0.2165211E+000  0.6779287E+02  0.7546771E-02  0.1367763E+00
         -2   -1    0    0    0  501 -0.00000000000E+00  0.00000000000E+00  0.20338918672E+02  0.20338918672E+02  0.00000000000E+00 0.  1.
          2   -1    0    0  501    0  0.00000000000E+00 -0.00000000000E+00 -0.56491120208E+02  0.56491120208E+02  0.00000000000E+00 0. -1.
        -13    1    1    2    0    0 -0.19850361535E+02  0.77983978582E+01 -0.47934271604E+02  0.52464714394E+02  0.00000000000E+00 0. -1.
         13    1    1    2    0    0  0.19850361535E+02 -0.77983978582E+01  0.11782070067E+02  0.24365324486E+02  0.00000000000E+00 0.  1.
<mgrwt>
<rscale>  0 0.67792870E+02</rscale>
<asrwt>0</asrwt>
<pdfrwt beam="2">  1        2 0.86909414E-02 0.67792870E+02</pdfrwt>
<pdfrwt beam="1">  1       -2 0.31290645E-02 0.67792870E+02</pdfrwt>
<totfact> 0.23623279E+05</totfact>
</mgrwt>
</event>
<event>
 4    1  0.2165211E+000  0.2392578E+02  0.7546771E-02  0.1676929E+00
         -2   -1    0    0    0  501 -0.00000000000E+00  0.00000000000E+00  0.47094644863E+01  0.47094644863E+01  0.00000000000E+00 0. -1.
          2   -1    0    0  501    0  0.00000000000E+00 -0.00000000000E+00 -0.30387887863E+02  0.30387887863E+02  0.00000000000E+00 0.  1.
        -11    1    1    2    0    0  0.88279462619E+01  0.67765463443E+01 -0.19276405731E+02  0.22258347501E+02  0.00000000000E+00 0. -1.
         11    1    1    2    0    0 -0.88279462619E+01 -0.67765463443E+01 -0.64020176451E+01  0.12839004848E+02  0.00000000000E+00 0.  1.
<mgrwt>
<rscale>  0 0.23925775E+02</rscale>
<asrwt>0</asrwt>
<pdfrwt beam="2">  1        2 0.46750596E-02 0.23925775E+02</pdfrwt>
<pdfrwt beam="1">  1       -2 0.72453301E-03 0.23925775E+02</pdfrwt>
<totfact> 0.28870904E+06</totfact>
</mgrwt>
</event>
<event>
 4    1  0.2165211E+000  0.3291271E+02  0.7546771E-02  0.1567958E+00
         -2   -1    0    0    0  501 -0.00000000000E+00  0.00000000000E+00  0.19063620340E+02  0.19063620340E+02  0.00000000000E+00 0.  1.
          2   -1    0    0  501    0  0.00000000000E+00 -0.00000000000E+00 -0.14205673558E+02  0.14205673558E+02  0.00000000000E+00 0. -1.
        -13    1    1    2    0    0  0.29894405357E+01 -0.95455720090E+01 -0.10780000214E+02  0.14705886723E+02  0.00000000000E+00 0. -1.
         13    1    1    2    0    0 -0.29894405357E+01  0.95455720090E+01  0.15637946996E+02  0.18563407175E+02  0.00000000000E+00 0.  1.
<mgrwt>
<rscale>  0 0.32912707E+02</rscale>
<asrwt>0</asrwt>
<pdfrwt beam="2">  1        2 0.21854882E-02 0.32912707E+02</pdfrwt>
<pdfrwt beam="1">  1       -2 0.29328647E-02 0.32912707E+02</pdfrwt>
<totfact> 0.12380250E+06</totfact>
</mgrwt>
</event>
<event>
 4    1  0.2165211E+000  0.3914740E+02  0.7546771E-02  0.1514581E+00
          2   -1    0    0  501    0  0.00000000000E+00  0.00000000000E+00  0.77959116542E+02  0.77959116542E+02  0.00000000000E+00 0.  1.
         -2   -1    0    0    0  501 -0.00000000000E+00 -0.00000000000E+00 -0.49144961213E+01  0.49144961213E+01  0.00000000000E+00 0. -1.
        -11    1    1    2    0    0  0.15869822975E+02 -0.86050092813E+01  0.52537568965E+02  0.55552620269E+02  0.00000000000E+00 0.  1.
         11    1    1    2    0    0 -0.15869822975E+02  0.86050092813E+01  0.20507051455E+02  0.27320992394E+02  0.00000000000E+00 0. -1.
<mgrwt>
<rscale>  0 0.39147402E+02</rscale>
<asrwt>0</asrwt>
<pdfrwt beam="1">  1        2 0.11993709E-01 0.39147402E+02</pdfrwt>
<pdfrwt beam="2">  1       -2 0.75607638E-03 0.39147402E+02</pdfrwt>
<totfact> 0.10389076E+06</totfact>
</mgrwt>
</event>
<event>
 4    1  0.2165211E+000  0.4225578E+02  0.7546771E-02  0.1492238E+00
          2   -1    0    0  501    0  0.00000000000E+00  0.00000000000E+00  0.24391594399E+02  0.24391594399E+02  0.00000000000E+00 0.  1.
         -2   -1    0    0    0  501 -0.00000000000E+00 -0.00000000000E+00 -0.18300888170E+02  0.18300888170E+02  0.00000000000E+00 0. -1.
        -11    1    1    2    0    0  0.88925933106E+01 -0.73598456852E+01 -0.14833353683E+02  0.18795582614E+02  0.00000000000E+00 0. -1.
         11    1    1    2    0    0 -0.88925933106E+01  0.73598456852E+01  0.20924059912E+02  0.23896899956E+02  0.00000000000E+00 0.  1.
<mgrwt>
<rscale>  0 0.42255785E+02</rscale>
<asrwt>0</asrwt>
<pdfrwt beam="1">  1        2 0.37525530E-02 0.42255785E+02</pdfrwt>
<pdfrwt beam="2">  1       -2 0.28155213E-02 0.42255785E+02</pdfrwt>
<totfact> 0.70370336E+05</totfact>
</mgrwt>
</event>
<event>
 4    1  0.2165211E+000  0.1762134E+03  0.7546771E-02  0.1171519E+00
         -2   -1    0    0    0  501 -0.00000000000E+00  0.00000000000E+00  0.35392230315E+02  0.35392230315E+02  0.00000000000E+00 0.  1.
          2   -1    0    0  501    0  0.00000000000E+00 -0.00000000000E+00 -0.21933603131E+03  0.21933603131E+03  0.00000000000E+00 0. -1.
        -13    1    1    2    0    0 -0.22120783158E+02  0.59005304330E+02 -0.29569463112E+01  0.63084851732E+02  0.00000000000E+00 0.  1.
         13    1    1    2    0    0  0.22120783158E+02 -0.59005304330E+02 -0.18098685468E+03  0.19164340989E+03  0.00000000000E+00 0. -1.
<mgrwt>
<rscale>  0 0.17621341E+03</rscale>
<asrwt>0</asrwt>
<pdfrwt beam="2">  1        2 0.33744005E-01 0.17621341E+03</pdfrwt>
<pdfrwt beam="1">  1       -2 0.54449585E-02 0.17621341E+03</pdfrwt>
<totfact> 0.25183388E+04</totfact>
</mgrwt>
</event>
<event>
 4    1  0.2165211E+000  0.2059787E+03  0.7546771E-02  0.1144791E+00
          2   -1    0    0  501    0  0.00000000000E+00  0.00000000000E+00  0.69968691149E+03  0.69968691149E+03  0.00000000000E+00 0.  1.
         -2   -1    0    0    0  501 -0.00000000000E+00 -0.00000000000E+00 -0.15159359437E+02  0.15159359437E+02  0.00000000000E+00 0. -1.
        -11    1    1    2    0    0 -0.10029264044E+03  0.19191418481E+02  0.38880985978E+03  0.40199506381E+03  0.00000000000E+00 0. -1.
         11    1    1    2    0    0  0.10029264044E+03 -0.19191418481E+02  0.29571769227E+03  0.31285120711E+03  0.00000000000E+00 0.  1.
<mgrwt>
<rscale>  0 0.20597869E+03</rscale>
<asrwt>0</asrwt>
<pdfrwt beam="1">  1        2 0.10764412E+00 0.20597869E+03</pdfrwt>
<pdfrwt beam="2">  1       -2 0.23322097E-02 0.20597869E+03</pdfrwt>
<totfact> 0.25215318E+04</totfact>
</mgrwt>
</event>
<event>
 4    1  0.2165211E+000  0.2285378E+02  0.7546771E-02  0.1693891E+00
          1   -1    0    0  501    0  0.00000000000E+00  0.00000000000E+00  0.32563237044E+02  0.32563237044E+02  0.00000000000E+00 0.  1.
         -1   -1    0    0    0  501 -0.00000000000E+00 -0.00000000000E+00 -0.40098538129E+01  0.40098538129E+01  0.00000000000E+00 0. -1.
        -13    1    1    2    0    0 -0.60650561873E+01  0.87508214777E+01  0.20915952758E+02  0.23469956602E+02  0.00000000000E+00 0.  1.
         13    1    1    2    0    0  0.60650561873E+01 -0.87508214777E+01  0.76374304730E+01  0.13103134256E+02  0.00000000000E+00 0. -1.
<mgrwt>
<rscale>  0 0.22853780E+02</rscale>
<asrwt>0</asrwt>
<pdfrwt beam="1">  1        1 0.50097286E-02 0.22853780E+02</pdfrwt>
<pdfrwt beam="2">  1       -1 0.61690061E-03 0.22853780E+02</pdfrwt>
<totfact> 0.30057085E+06</totfact>
</mgrwt>
</event>
<event>
 4    1  0.2165211E+000  0.4248069E+02  0.7546771E-02  0.1490711E+00
          2   -1    0    0  501    0  0.00000000000E+00  0.00000000000E+00  0.53368721235E+02  0.53368721235E+02  0.00000000000E+00 0.  1.
         -2   -1    0    0    0  501 -0.00000000000E+00 -0.00000000000E+00 -0.84534950867E+01  0.84534950867E+01  0.00000000000E+00 0. -1.
        -13    1    1    2    0    0  0.70947329106E+01 -0.13776869061E+02  0.43597835424E+02  0.46269953640E+02  0.00000000000E+00 0.  1.
         13    1    1    2    0    0 -0.70947329106E+01  0.13776869061E+02  0.13173907248E+01  0.15552262682E+02  0.00000000000E+00 0. -1.
<mgrwt>
<rscale>  0 0.42480688E+02</rscale>
<asrwt>0</asrwt>
<pdfrwt beam="1">  1        2 0.82105723E-02 0.42480688E+02</pdfrwt>
<pdfrwt beam="2">  1       -2 0.13005377E-02 0.42480688E+02</pdfrwt>
<totfact> 0.78563537E+05</totfact>
</mgrwt>
</event>
<event>
 4    1  0.2165211E+000  0.7453979E+02  0.7546771E-02  0.1345302E+00
         -1   -1    0    0    0  501 -0.00000000000E+00  0.00000000000E+00  0.51412363269E+02  0.51412363269E+02  0.00000000000E+00 0.  1.
          1   -1    0    0  501    0  0.00000000000E+00 -0.00000000000E+00 -0.27017721899E+02  0.27017721899E+02  0.00000000000E+00 0. -1.
        -11    1    1    2    0    0 -0.25994459664E+02 -0.26244767922E+02  0.69844440599E+01  0.37593646209E+02  0.00000000000E+00 0. -1.
         11    1    1    2    0    0  0.25994459664E+02  0.26244767922E+02  0.17410197309E+02  0.40836438959E+02  0.00000000000E+00 0.  1.
<mgrwt>
<rscale>  0 0.74539786E+02</rscale>
<asrwt>0</asrwt>
<pdfrwt beam="2">  1        1 0.41565726E-02 0.74539786E+02</pdfrwt>
<pdfrwt beam="1">  1       -1 0.79095943E-02 0.74539786E+02</pdfrwt>
<totfact> 0.15079246E+05</totfact>
</mgrwt>
</event>
<event>
 4    1  0.2165211E+000  0.2960896E+02  0.7546771E-02  0.1602452E+00
          4   -1    0    0  501    0  0.00000000000E+00  0.00000000000E+00  0.80917777300E+02  0.80917777300E+02  0.00000000000E+00 0. -1.
         -4   -1    0    0    0  501 -0.00000000000E+00 -0.00000000000E+00 -0.27085843357E+01  0.27085843357E+01  0.00000000000E+00 0.  1.
        -13    1    1    2    0    0 -0.26450090437E+01 -0.11146925084E+02  0.12621403536E+02  0.17045522547E+02  0.00000000000E+00 0.  1.
         13    1    1    2    0    0  0.26450090437E+01  0.11146925084E+02  0.65587789428E+02  0.66580839088E+02  0.00000000000E+00 0. -1.
<mgrwt>
<rscale>  0 0.29608960E+02</rscale>
<asrwt>0</asrwt>
<pdfrwt beam="1">  1        4 0.12448887E-01 0.29608960E+02</pdfrwt>
<pdfrwt beam="2">  1       -4 0.41670534E-03 0.29608960E+02</pdfrwt>
<totfact> 0.44834862E+05</totfact>
</mgrwt>
</event>
<event>
 4    1  0.2165211E+000  0.2564719E+02  0.7546771E-02  0.1651876E+00
         -4   -1    0    0    0  501 -0.00000000000E+00  0.00000000000E+00  0.87009977562E+01  0.87009977562E+01  0.00000000000E+00 0.  1.
          4   -1    0    0  501    0  0.00000000000E+00 -0.00000000000E+00 -0.18899508338E+02  0.18899508338E+02  0.00000000000E+00 0. -1.
        -11    1    1    2    0    0 -0.82275964240E+01  0.68120539667E+01  0.25367240787E+01  0.10978724480E+02  0.00000000000E+00 0.  1.
         11    1    1    2    0    0  0.82275964240E+01 -0.68120539667E+01 -0.12735234661E+02  0.16621781614E+02  0.00000000000E+00 0. -1.
<mgrwt>
<rscale>  0 0.25647189E+02</rscale>
<asrwt>0</asrwt>
<pdfrwt beam="2">  1        4 0.29076166E-02 0.25647189E+02</pdfrwt>
<pdfrwt beam="1">  1       -4 0.13386151E-02 0.25647189E+02</pdfrwt>
<totfact> 0.74412629E+05</totfact>
</mgrwt>
</event>
<event>
 4    1  0.2165211E+000  0.2195819E+02  0.7546771E-02  0.1708976E+00
          2   -1    0    0  501    0  0.00000000000E+00  0.00000000000E+00  0.36694170931E+02  0.36694170931E+02  0.00000000000E+00 0.  1.
         -2   -1    0    0    0  501 -0.00000000000E+00 -0.00000000000E+00 -0.32850033071E+01  0.32850033071E+01  0.00000000000E+00 0. -1.
        -11    1    1    2    0    0  0.61326704927E+01 -0.87406078967E+01  0.12051076706E+02  0.16100817480E+02  0.00000000000E+00 0.  1.
         11    1    1    2    0    0 -0.61326704927E+01  0.87406078967E+01  0.21358090918E+02  0.23878356758E+02  0.00000000000E+00 0. -1.
<mgrwt>
<rscale>  0 0.21958185E+02</rscale>
<asrwt>0</asrwt>
<pdfrwt beam="1">  1        2 0.56452568E-02 0.21958185E+02</pdfrwt>
<pdfrwt beam="2">  1       -2 0.50538515E-03 0.21958185E+02</pdfrwt>
<totfact> 0.35965011E+06</totfact>
</mgrwt>
</event>
<event>
 4    1  0.2165211E+000  0.2470271E+02  0.7546771E-02  0.1665309E+00
          2   -1    0    0  501    0  0.00000000000E+00  0.00000000000E+00  0.13517687345E+02  0.13517687345E+02  0.00000000000E+00 0. -1.
         -2   -1    0    0    0  501 -0.00000000000E+00 -0.00000000000E+00 -0.11285658826E+02  0.11285658826E+02  0.00000000000E+00 0.  1.
        -11    1    1    2    0    0  0.61819569654E+01  0.10157138225E+02 -0.22400501058E+01  0.12099664182E+02  0.00000000000E+00 0.  1.
         11    1    1    2    0    0 -0.61819569654E+01 -0.10157138225E+02  0.44720786250E+01  0.12703681989E+02  0.00000000000E+00 0. -1.
<mgrwt>
<rscale>  0 0.24702713E+02</rscale>
<asrwt>0</asrwt>
<pdfrwt beam="1">  1        2 0.20796442E-02 0.24702713E+02</pdfrwt>
<pdfrwt beam="2">  1       -2 0.17362552E-02 0.24702713E+02</pdfrwt>
<totfact> 0.24738327E+06</totfact>
</mgrwt>
</event>
<event>
 4    1  0.2165211E+000  0.3326047E+02  0.7546771E-02  0.1564614E+00
          2   -1    0    0  501    0  0.00000000000E+00  0.00000000000E+00  0.13428208096E+02  0.13428208096E+02  0.00000000000E+00 0. -1.
         -2   -1    0    0    0  501 -0.00000000000E+00 -0.00000000000E+00 -0.20595797138E+02  0.20595797138E+02  0.00000000000E+00 0.  1.
        -11    1    1    2    0    0  0.66811589176E+01  0.14167954480E+02 -0.92973360430E+01  0.18215632740E+02  0.00000000000E+00 0. -1.
         11    1    1    2    0    0 -0.66811589176E+01 -0.14167954480E+02  0.21297470010E+01  0.15808372494E+02  0.00000000000E+00 0.  1.
<mgrwt>
<rscale>  0 0.33260466E+02</rscale>
<asrwt>0</asrwt>
<pdfrwt beam="1">  1        2 0.20658782E-02 0.33260466E+02</pdfrwt>
<pdfrwt beam="2">  1       -2 0.31685842E-02 0.33260466E+02</pdfrwt>
<totfact> 0.11984138E+06</totfact>
</mgrwt>
</event>
<event>
 4    1  0.2165211E+000  0.2227404E+02  0.7546771E-02  0.1703555E+00
         -4   -1    0    0    0  501 -0.00000000000E+00  0.00000000000E+00  0.98252144900E+01  0.98252144900E+01  0.00000000000E+00 0. -1.
          4   -1    0    0  501    0  0.00000000000E+00 -0.00000000000E+00 -0.12623973899E+02  0.12623973899E+02  0.00000000000E+00 0.  1.
        -13    1    1    2    0    0 -0.26301131803E+00 -0.10771303445E+02 -0.42398912366E+01  0.11578723183E+02  0.00000000000E+00 0.  1.
         13    1    1    2    0    0  0.26301131803E+00  0.10771303445E+02  0.14411318279E+01  0.10870465206E+02  0.00000000000E+00 0. -1.
<mgrwt>
<rscale>  0 0.22274043E+02</rscale>
<asrwt>0</asrwt>
<pdfrwt beam="2">  1        4 0.19421498E-02 0.22274043E+02</pdfrwt>
<pdfrwt beam="1">  1       -4 0.15115715E-02 0.22274043E+02</pdfrwt>
<totfact> 0.10289867E+06</totfact>
</mgrwt>
</event>
<event>
 4    1  0.2165211E+000  0.2302116E+02  0.7546771E-02  0.1691167E+00
          2   -1    0    0  501    0  0.00000000000E+00  0.00000000000E+00  0.37961487622E+02  0.37961487622E+02  0.00000000000E+00 0. -1.
         -2   -1    0    0    0  501 -0.00000000000E+00 -0.00000000000E+00 -0.34902062395E+01  0.34902062395E+01  0.00000000000E+00 0.  1.
        -11    1    1    2    0    0 -0.86357796555E+01 -0.74677034896E+01  0.14595372622E+02  0.18530196644E+02  0.00000000000E+00 0. -1.
         11    1    1    2    0    0  0.86357796555E+01  0.74677034896E+01  0.19875908760E+02  0.22921497218E+02  0.00000000000E+00 0.  1.
<mgrwt>
<rscale>  0 0.23021157E+02</rscale>
<asrwt>0</asrwt>
<pdfrwt beam="1">  1        2 0.58402286E-02 0.23021157E+02</pdfrwt>
<pdfrwt beam="2">  1       -2 0.53695483E-03 0.23021157E+02</pdfrwt>
<totfact> 0.32427195E+06</totfact>
</mgrwt>
</event>
<event>
 4    1  0.2165211E+000  0.2419234E+02  0.7546771E-02  0.1672881E+00
          4   -1    0    0  501    0  0.00000000000E+00  0.00000000000E+00  0.34778990160E+02  0.34778990160E+02  0.00000000000E+00 0.  1.
         -4   -1    0    0    0  501 -0.00000000000E+00 -0.00000000000E+00 -0.42070622503E+01  0.42070622503E+01  0.00000000000E+00 0. -1.
        -13    1    1    2    0    0 -0.11513952106E+01 -0.11954203270E+02  0.12956970367E+02  0.17666685253E+02  0.00000000000E+00 0.  1.
         13    1    1    2    0    0  0.11513952106E+01  0.11954203270E+02  0.17614957542E+02  0.21319367157E+02  0.00000000000E+00 0. -1.
<mgrwt>
<rscale>  0 0.24192344E+02</rscale>
<asrwt>0</asrwt>
<pdfrwt beam="1">  1        4 0.53506137E-02 0.24192344E+02</pdfrwt>
<pdfrwt beam="2">  1       -4 0.64724037E-03 0.24192344E+02</pdfrwt>
<totfact> 0.80752971E+05</totfact>
</mgrwt>
</event>
<event>
 4    1  0.2165211E+000  0.7898347E+02  0.7546771E-02  0.1331961E+00
          2   -1    0    0  501    0  0.00000000000E+00  0.00000000000E+00  0.30672865082E+02  0.30672865082E+02  0.00000000000E+00 0. -1.
         -2   -1    0    0    0  501 -0.00000000000E+00 -0.00000000000E+00 -0.50846153165E+02  0.50846153165E+02  0.00000000000E+00 0.  1.
        -11    1    1    2    0    0 -0.76640472789E+01 -0.18042653676E+02 -0.45470177186E+02  0.49515775120E+02  0.00000000000E+00 0.  1.
         11    1    1    2    0    0  0.76640472789E+01  0.18042653676E+02  0.25296889103E+02  0.32003243127E+02  0.00000000000E+00 0. -1.
<mgrwt>
<rscale>  0 0.78983472E+02</rscale>
<asrwt>0</asrwt>
<pdfrwt beam="1">  1        2 0.47189023E-02 0.78983472E+02</pdfrwt>
<pdfrwt beam="2">  1       -2 0.78224851E-02 0.78983472E+02</pdfrwt>
<totfact> 0.13513279E+05</totfact>
</mgrwt>
</event>
<event>
 4    1  0.2165211E+000  0.2137218E+02  0.7546771E-02  0.1719342E+00
         -2   -1    0    0    0  501 -0.00000000000E+00  0.00000000000E+00  0.12484231893E+01  0.12484231893E+01  0.00000000000E+00 0.  1.
          2   -1    0    0  501    0  0.00000000000E+00 -0.00000000000E+00 -0.91469364616E+02  0.91469364616E+02  0.00000000000E+00 0. -1.
        -11    1    1    2    0    0  0.93167831022E+01  0.41128822437E+01 -0.59150736718E+02  0.60021062153E+02  0.00000000000E+00 0.  1.
         11    1    1    2    0    0 -0.93167831022E+01 -0.41128822437E+01 -0.31070204709E+02  0.32696725652E+02  0.00000000000E+00 0. -1.
<mgrwt>
<rscale>  0 0.21372176E+02</rscale>
<asrwt>0</asrwt>
<pdfrwt beam="2">  1        2 0.14072213E-01 0.21372176E+02</pdfrwt>
<pdfrwt beam="1">  1       -2 0.19206507E-03 0.21372176E+02</pdfrwt>
<totfact> 0.44632120E+06</totfact>
</mgrwt>
</event>
<event>
 4    1  0.2165211E+000  0.4662210E+02  0.7546771E-02  0.1464462E+00
          1   -1    0    0  501    0  0.00000000000E+00  0.00000000000E+00  0.13922884573E+03  0.13922884573E+03  0.00000000000E+00 0.  1.
         -1   -1    0    0    0  501 -0.00000000000E+00 -0.00000000000E+00 -0.39029632078E+01  0.39029632078E+01  0.00000000000E+00 0. -1.
        -13    1    1    2    0    0 -0.19411400429E+02  0.94183775369E+01  0.94758868807E+02  0.97184111457E+02  0.00000000000E+00 0.  1.
         13    1    1    2    0    0  0.19411400429E+02 -0.94183775369E+01  0.40567013715E+02  0.45947697481E+02  0.00000000000E+00 0. -1.
<mgrwt>
<rscale>  0 0.46622100E+02</rscale>
<asrwt>0</asrwt>
<pdfrwt beam="1">  1        1 0.21419819E-01 0.46622100E+02</pdfrwt>
<pdfrwt beam="2">  1       -1 0.60045599E-03 0.46622100E+02</pdfrwt>
<totfact> 0.63091923E+05</totfact>
</mgrwt>
</event>
<event>
 4    1  0.2165211E+000  0.4374538E+02  0.7546771E-02  0.1482329E+00
         -2   -1    0    0    0  501 -0.00000000000E+00  0.00000000000E+00  0.46388149913E+02  0.46388149913E+02  0.00000000000E+00 0.  1.
          2   -1    0    0  501    0  0.00000000000E+00 -0.00000000000E+00 -0.10313293269E+02  0.10313293269E+02  0.00000000000E+00 0. -1.
        -13    1    1    2    0    0 -0.99950044130E+01  0.17089219691E+02  0.59842300792E+01  0.20682179588E+02  0.00000000000E+00 0. -1.
         13    1    1    2    0    0  0.99950044130E+01 -0.17089219691E+02  0.30090626564E+02  0.36019263594E+02  0.00000000000E+00 0.  1.
<mgrwt>
<rscale>  0 0.43745381E+02</rscale>
<asrwt>0</asrwt>
<pdfrwt beam="2">  1        2 0.15866605E-02 0.43745381E+02</pdfrwt>
<pdfrwt beam="1">  1       -2 0.71366384E-02 0.43745381E+02</pdfrwt>
<totfact> 0.56818170E+05</totfact>
</mgrwt>
</event>
<event>
 4    1  0.2165211E+000  0.2414451E+02  0.7546771E-02  0.1673603E+00
          2   -1    0    0  501    0  0.00000000000E+00  0.00000000000E+00  0.18292654982E+02  0.18292654982E+02  0.00000000000E+00 0.  1.
         -2   -1    0    0    0  501 -0.00000000000E+00 -0.00000000000E+00 -0.79670973622E+01  0.79670973622E+01  0.00000000000E+00 0. -1.
        -13    1    1    2    0    0 -0.56388278997E+01  0.87823597710E+01 -0.14361528051E+01  0.10535120223E+02  0.00000000000E+00 0. -1.
         13    1    1    2    0    0  0.56388278997E+01 -0.87823597710E+01  0.11761710425E+02  0.15724632121E+02  0.00000000000E+00 0.  1.
<mgrwt>
<rscale>  0 0.24144512E+02</rscale>
<asrwt>0</asrwt>
<pdfrwt beam="1">  1        2 0.28142546E-02 0.24144512E+02</pdfrwt>
<pdfrwt beam="2">  1       -2 0.12257073E-02 0.24144512E+02</pdfrwt>
<totfact> 0.26824152E+06</totfact>
</mgrwt>
</event>
<event>
 4    1  0.2165211E+000  0.3730209E+02  0.7546771E-02  0.1529059E+00
         -2   -1    0    0    0  501 -0.00000000000E+00  0.00000000000E+00  0.82337667980E+01  0.82337667980E+01  0.00000000000E+00 0. -1.
          2   -1    0    0  501    0  0.00000000000E+00 -0.00000000000E+00 -0.42248160704E+02  0.42248160704E+02  0.00000000000E+00 0.  1.
        -13    1    1    2    0    0 -0.10435899286E+02 -0.83649267627E+01 -0.34599485553E+02  0.37094533212E+02  0.00000000000E+00 0.  1.
         13    1    1    2    0    0  0.10435899286E+02  0.83649267627E+01  0.58509164722E+00  0.13387394290E+02  0.00000000000E+00 0. -1.
<mgrwt>
<rscale>  0 0.37302091E+02</rscale>
<asrwt>0</asrwt>
<pdfrwt beam="2">  1        2 0.64997172E-02 0.37302091E+02</pdfrwt>
<pdfrwt beam="1">  1       -2 0.12667333E-02 0.37302091E+02</pdfrwt>
<totfact> 0.10430538E+06</totfact>
</mgrwt>
</event>
<event>
 4    1  0.2165211E+000  0.2856965E+02  0.7546771E-02  0.1614460E+00
         -2   -1    0    0    0  501 -0.00000000000E+00  0.00000000000E+00  0.51882380198E+01  0.51882380198E+01  0.00000000000E+00 0. -1.
          2   -1    0    0  501    0  0.00000000000E+00 -0.00000000000E+00 -0.39330548716E+02  0.39330548716E+02  0.00000000000E+00 0.  1.
        -11    1    1    2    0    0 -0.73023255961E+01  0.10578794859E+02 -0.73621686203E+01  0.14813385385E+02  0.00000000000E+00 0. -1.
         11    1    1    2    0    0  0.73023255961E+01 -0.10578794859E+02 -0.26780142076E+02  0.29705401350E+02  0.00000000000E+00 0.  1.
<mgrwt>
<rscale>  0 0.28569652E+02</rscale>
<asrwt>0</asrwt>
<pdfrwt beam="2">  1        2 0.60508536E-02 0.28569652E+02</pdfrwt>
<pdfrwt beam="1">  1       -2 0.79819047E-03 0.28569652E+02</pdfrwt>
<totfact> 0.19689799E+06</totfact>
</mgrwt>
</event>
<event>
 4    1  0.2165211E+000  0.3358818E+02  0.7546771E-02  0.1561508E+00
         -1   -1    0    0    0  501 -0.00000000000E+00  0.00000000000E+00  0.75838717424E+02  0.75838717424E+02  0.00000000000E+00 0. -1.
          1   -1    0    0  501    0  0.00000000000E+00 -0.00000000000E+00 -0.37189628823E+01  0.37189628823E+01  0.00000000000E+00 0.  1.
        -11    1    1    2    0    0 -0.11767765000E+02  0.95706170405E+01  0.53134398855E+02  0.55257047924E+02  0.00000000000E+00 0. -1.
         11    1    1    2    0    0  0.11767765000E+02 -0.95706170405E+01  0.18985355688E+02  0.24300632383E+02  0.00000000000E+00 0.  1.
<mgrwt>
<rscale>  0 0.33588175E+02</rscale>
<asrwt>0</asrwt>
<pdfrwt beam="2">  1        1 0.57214820E-03 0.33588175E+02</pdfrwt>
<pdfrwt beam="1">  1       -1 0.11667494E-01 0.33588175E+02</pdfrwt>
<totfact> 0.10166679E+06</totfact>
</mgrwt>
</event>
<event>
 4    1  0.2165211E+000  0.2998331E+02  0.7546771E-02  0.1598273E+00
          2   -1    0    0  501    0  0.00000000000E+00  0.00000000000E+00  0.11854163236E+02  0.11854163236E+02  0.00000000000E+00 0. -1.
         -2   -1    0    0    0  501 -0.00000000000E+00 -0.00000000000E+00 -0.18959556502E+02  0.18959556502E+02  0.00000000000E+00 0.  1.
        -11    1    1    2    0    0 -0.87756572413E+01  0.12133951584E+02 -0.42828212538E+01  0.15575220671E+02  0.00000000000E+00 0. -1.
         11    1    1    2    0    0  0.87756572413E+01 -0.12133951584E+02 -0.28225720119E+01  0.15238499067E+02  0.00000000000E+00 0.  1.
<mgrwt>
<rscale>  0 0.29983307E+02</rscale>
<asrwt>0</asrwt>
<pdfrwt beam="1">  1        2 0.18237174E-02 0.29983307E+02</pdfrwt>
<pdfrwt beam="2">  1       -2 0.29168548E-02 0.29983307E+02</pdfrwt>
<totfact> 0.15304708E+06</totfact>
</mgrwt>
</event>
<event>
 4    1  0.2165211E+000  0.3130067E+02  0.7546771E-02  0.1584141E+00
          2   -1    0    0  501    0  0.00000000000E+00  0.00000000000E+00  0.71910713410E+01  0.71910713410E+01  0.00000000000E+00 0.  1.
         -2   -1    0    0    0  501 -0.00000000000E+00 -0.00000000000E+00 -0.34060711663E+02  0.34060711663E+02  0.00000000000E+00 0. -1.
        -11    1    1    2    0    0 -0.16977096165E+01  0.13974550057E+02 -0.22447190875E+02  0.26496162843E+02  0.00000000000E+00 0. -1.
         11    1    1    2    0    0  0.16977096165E+01 -0.13974550057E+02 -0.44224494475E+01  0.14755620161E+02  0.00000000000E+00 0.  1.
<mgrwt>
<rscale>  0 0.31300671E+02</rscale>
<asrwt>0</asrwt>
<pdfrwt beam="1">  1        2 0.11063187E-02 0.31300671E+02</pdfrwt>
<pdfrwt beam="2">  1       -2 0.52401095E-02 0.31300671E+02</pdfrwt>
<totfact> 0.12998957E+06</totfact>
</mgrwt>
</event>
<event>
 4    1  0.2165211E+000  0.2363348E+02  0.7546771E-02  0.1681443E+00
         -2   -1    0    0    0  501 -0.00000000000E+00  0.00000000000E+00  0.30121916483E+02  0.30121916483E+02  0.00000000000E+00 0. -1.
          2   -1    0    0  501    0  0.00000000000E+00 -0.00000000000E+00 -0.46356743607E+01  0.46356743607E+01  0.00000000000E+00 0.  1.
        -11    1    1    2    0    0  0.38173994453E+01 -0.95411935205E+01  0.41639918535E+01  0.11088090028E+02  0.00000000000E+00 0.  1.
         11    1    1    2    0    0 -0.38173994453E+01  0.95411935205E+01  0.21322250269E+02  0.23669500815E+02  0.00000000000E+00 0. -1.
<mgrwt>
<rscale>  0 0.23633484E+02</rscale>
<asrwt>0</asrwt>
<pdfrwt beam="2">  1        2 0.71318069E-03 0.23633484E+02</pdfrwt>
<pdfrwt beam="1">  1       -2 0.46341409E-02 0.23633484E+02</pdfrwt>
<totfact> 0.24938794E+06</totfact>
</mgrwt>
</event>
<event>
 4    1  0.2165211E+000  0.1023027E+03  0.7546771E-02  0.1275527E+00
         -1   -1    0    0    0  501 -0.00000000000E+00  0.00000000000E+00  0.12371621540E+02  0.12371621540E+02  0.00000000000E+00 0.  1.
          1   -1    0    0  501    0  0.00000000000E+00 -0.00000000000E+00 -0.21148895470E+03  0.21148895470E+03  0.00000000000E+00 0. -1.
        -11    1    1    2    0    0 -0.18768687727E+02  0.33474445487E+02 -0.17355986809E+03  0.17775215878E+03  0.00000000000E+00 0. -1.
         11    1    1    2    0    0  0.18768687727E+02 -0.33474445487E+02 -0.25557465067E+02  0.46108417456E+02  0.00000000000E+00 0.  1.
<mgrwt>
<rscale>  0 0.10230271E+03</rscale>
<asrwt>0</asrwt>
<pdfrwt beam="2">  1        1 0.32536762E-01 0.10230271E+03</pdfrwt>
<pdfrwt beam="1">  1       -1 0.19033264E-02 0.10230271E+03</pdfrwt>
<totfact> 0.87742796E+04</totfact>
</mgrwt>
</event>
<event>
 4    1  0.2165211E+000  0.2574421E+02  0.7546771E-02  0.1650537E+00
         -2   -1    0    0    0  501 -0.00000000000E+00  0.00000000000E+00  0.33632022525E+01  0.33632022525E+01  0.00000000000E+00 0. -1.
          2   -1    0    0  501    0  0.00000000000E+00 -0.00000000000E+00 -0.49265878507E+02  0.49265878507E+02  0.00000000000E+00 0.  1.
        -11    1    1    2    0    0  0.11740534359E+02  0.42960906872E+01 -0.29217255520E+02  0.31779624956E+02  0.00000000000E+00 0.  1.
         11    1    1    2    0    0 -0.11740534359E+02 -0.42960906872E+01 -0.16685420734E+02  0.20849455803E+02  0.00000000000E+00 0. -1.
<mgrwt>
<rscale>  0 0.25744212E+02</rscale>
<asrwt>0</asrwt>
<pdfrwt beam="2">  1        2 0.75793654E-02 0.25744212E+02</pdfrwt>
<pdfrwt beam="1">  1       -2 0.51741577E-03 0.25744212E+02</pdfrwt>
<totfact> 0.26004905E+06</totfact>
</mgrwt>
</event>
<event>
 4    1  0.2165211E+000  0.3558631E+02  0.7546771E-02  0.1543455E+00
          2   -1    0    0  501    0  0.00000000000E+00  0.00000000000E+00  0.17977068701E+02  0.17977068701E+02  0.00000000000E+00 0.  1.
         -2   -1    0    0    0  501 -0.00000000000E+00 -0.00000000000E+00 -0.17611124500E+02  0.17611124500E+02  0.00000000000E+00 0. -1.
        -13    1    1    2    0    0  0.23678861530E+01  0.15411961135E+02  0.87543624414E+01  0.17882233994E+02  0.00000000000E+00 0.  1.
         13    1    1    2    0    0 -0.23678861530E+01 -0.15411961135E+02 -0.83884182403E+01  0.17705959207E+02  0.00000000000E+00 0. -1.
<mgrwt>
<rscale>  0 0.35586312E+02</rscale>
<asrwt>0</asrwt>
<pdfrwt beam="1">  1        2 0.27657029E-02 0.35586312E+02</pdfrwt>
<pdfrwt beam="2">  1       -2 0.27094038E-02 0.35586312E+02</pdfrwt>
<totfact> 0.10461494E+06</totfact>
</mgrwt>
</event>
<event>
 4    1  0.2165211E+000  0.2339899E+02  0.7546771E-02  0.1685123E+00
         -4   -1    0    0    0  501 -0.00000000000E+00  0.00000000000E+00  0.16087714953E+01  0.16087714953E+01  0.00000000000E+00 0. -1.
          4   -1    0    0  501    0  0.00000000000E+00 -0.00000000000E+00 -0.85082414214E+02  0.85082414214E+02  0.00000000000E+00 0.  1.
        -11    1    1    2    0    0 -0.17149390978E+01 -0.10340055451E+02 -0.60995378652E+02  0.61889368875E+02  0.00000000000E+00 0.  1.
         11    1    1    2    0    0  0.17149390978E+01  0.10340055451E+02 -0.22478264067E+02  0.24801816835E+02  0.00000000000E+00 0. -1.
<mgrwt>
<rscale>  0 0.23398988E+02</rscale>
<asrwt>0</asrwt>
<pdfrwt beam="2">  1        4 0.13089601E-01 0.23398988E+02</pdfrwt>
<pdfrwt beam="1">  1       -4 0.24750333E-03 0.23398988E+02</pdfrwt>
<totfact> 0.73903855E+05</totfact>
</mgrwt>
</event>
<event>
 4    1  0.2165211E+000  0.3737618E+02  0.7546771E-02  0.1528458E+00
          2   -1    0    0  501    0  0.00000000000E+00  0.00000000000E+00  0.41368017900E+02  0.41368017900E+02  0.00000000000E+00 0. -1.
         -2   -1    0    0    0  501 -0.00000000000E+00 -0.00000000000E+00 -0.84423859311E+01  0.84423859311E+01  0.00000000000E+00 0.  1.
        -13    1    1    2    0    0 -0.42693499092E+01  0.13714946670E+02  0.32394733922E+02  0.35436505142E+02  0.00000000000E+00 0. -1.
         13    1    1    2    0    0  0.42693499092E+01 -0.13714946670E+02  0.53089804693E+00  0.14373898689E+02  0.00000000000E+00 0.  1.
<mgrwt>
<rscale>  0 0.37376183E+02</rscale>
<asrwt>0</asrwt>
<pdfrwt beam="1">  1        2 0.63643103E-02 0.37376183E+02</pdfrwt>
<pdfrwt beam="2">  1       -2 0.12988286E-02 0.37376183E+02</pdfrwt>
<totfact> 0.10345014E+06</totfact>
</mgrwt>
</event>
<event>
 4    1  0.2165211E+000  0.2605186E+02  0.7546771E-02  0.1646338E+00
         -2   -1    0    0    0  501 -0.00000000000E+00  0.00000000000E+00  0.16468782938E+02  0.16468782938E+02  0.00000000000E+00 0. -1.
          2   -1    0    0  501    0  0.00000000000E+00 -0.00000000000E+00 -0.10302819508E+02  0.10302819508E+02  0.00000000000E+00 0.  1.
        -11    1    1    2    0    0 -0.10781910293E+02  0.61245601694E+01 -0.10166030174E+01  0.12441595900E+02  0.00000000000E+00 0.  1.
         11    1    1    2    0    0  0.10781910293E+02 -0.61245601694E+01  0.71825664475E+01  0.14330006546E+02  0.00000000000E+00 0. -1.
<mgrwt>
<rscale>  0 0.26051864E+02</rscale>
<asrwt>0</asrwt>
<pdfrwt beam="2">  1        2 0.15850492E-02 0.26051864E+02</pdfrwt>
<pdfrwt beam="1">  1       -2 0.25336589E-02 0.26051864E+02</pdfrwt>
<totfact> 0.21265985E+06</totfact>
</mgrwt>
</event>
<event>
 4    1  0.2165211E+000  0.2051554E+02  0.7546771E-02  0.1735266E+00
         -2   -1    0    0    0  501 -0.00000000000E+00  0.00000000000E+00  0.72083138058E+01  0.72083138058E+01  0.00000000000E+00 0.  1.
          2   -1    0    0  501    0  0.00000000000E+00 -0.00000000000E+00 -0.14597294717E+02  0.14597294717E+02  0.00000000000E+00 0. -1.
        -11    1    1    2    0    0  0.65546514736E+01  0.78666991338E+01 -0.30449399145E+01  0.10682699579E+02  0.00000000000E+00 0.  1.
         11    1    1    2    0    0 -0.65546514736E+01 -0.78666991338E+01 -0.43440409969E+01  0.11122908944E+02  0.00000000000E+00 0. -1.
<mgrwt>
<rscale>  0 0.20515543E+02</rscale>
<asrwt>0</asrwt>
<pdfrwt beam="2">  1        2 0.22457377E-02 0.20515543E+02</pdfrwt>
<pdfrwt beam="1">  1       -2 0.11089713E-02 0.20515543E+02</pdfrwt>
<totfact> 0.38319503E+06</totfact>
</mgrwt>
</event>
<event>
 4    1  0.2165211E+000  0.2399877E+02  0.7546771E-02  0.1675814E+00
         -2   -1    0    0    0  501 -0.00000000000E+00  0.00000000000E+00  0.39382329602E+01  0.39382329602E+01  0.00000000000E+00 0.  1.
          2   -1    0    0  501    0  0.00000000000E+00 -0.00000000000E+00 -0.36560876358E+02  0.36560876358E+02  0.00000000000E+00 0. -1.
        -13    1    1    2    0    0  0.95490718421E+01  0.67058969901E+01 -0.21033873798E+02  0.24053641604E+02  0.00000000000E+00 0. -1.
         13    1    1    2    0    0 -0.95490718421E+01 -0.67058969901E+01 -0.11588769600E+02  0.16445467714E+02  0.00000000000E+00 0.  1.
<mgrwt>
<rscale>  0 0.23998771E+02</rscale>
<asrwt>0</asrwt>
<pdfrwt beam="2">  1        2 0.56247503E-02 0.23998771E+02</pdfrwt>
<pdfrwt beam="1">  1       -2 0.60588198E-03 0.23998771E+02</pdfrwt>
<totfact> 0.29326214E+06</totfact>
</mgrwt>
</event>
<event>
 4    1  0.2165211E+000  0.3384230E+02  0.7546771E-02  0.1559128E+00
         -4   -1    0    0    0  501 -0.00000000000E+00  0.00000000000E+00  0.13534725066E+02  0.13534725066E+02  0.00000000000E+00 0. -1.
          4   -1    0    0  501    0  0.00000000000E+00 -0.00000000000E+00 -0.21154870569E+02  0.21154870569E+02  0.00000000000E+00 0.  1.
        -11    1    1    2    0    0  0.11647348518E+02  0.96937762739E+01  0.39080731483E+01  0.15649378955E+02  0.00000000000E+00 0. -1.
         11    1    1    2    0    0 -0.11647348518E+02 -0.96937762739E+01 -0.11528218651E+02  0.19040216680E+02  0.00000000000E+00 0.  1.
<mgrwt>
<rscale>  0 0.33842302E+02</rscale>
<asrwt>0</asrwt>
<pdfrwt beam="2">  1        4 0.32545955E-02 0.33842302E+02</pdfrwt>
<pdfrwt beam="1">  1       -4 0.20822654E-02 0.33842302E+02</pdfrwt>
<totfact> 0.38789342E+05</totfact>
</mgrwt>
</event>
<event>
 4    1  0.2165211E+000  0.1050015E+03  0.7546771E-02  0.1270117E+00
         -2   -1    0    0    0  501 -0.00000000000E+00  0.00000000000E+00  0.20234492581E+02  0.20234492581E+02  0.00000000000E+00 0.  1.
          2   -1    0    0  501    0  0.00000000000E+00 -0.00000000000E+00 -0.13621938421E+03  0.13621938421E+03  0.00000000000E+00 0. -1.
        -11    1    1    2    0    0 -0.18118734888E+02  0.42616425297E+02 -0.94849829802E+02  0.10555064411E+03  0.00000000000E+00 0. -1.
         11    1    1    2    0    0  0.18118734888E+02 -0.42616425297E+02 -0.21135061831E+02  0.50903232683E+02  0.00000000000E+00 0.  1.
<mgrwt>
<rscale>  0 0.10500153E+03</rscale>
<asrwt>0</asrwt>
<pdfrwt beam="2">  1        2 0.20956828E-01 0.10500153E+03</pdfrwt>
<pdfrwt beam="1">  1       -2 0.31129989E-02 0.10500153E+03</pdfrwt>
<totfact> 0.91804234E+04</totfact>
</mgrwt>
</event>
<event>
 4    1  0.2165211E+000  0.2557660E+02  0.7546771E-02  0.1652856E+00
          4   -1    0    0  501    0  0.00000000000E+00  0.00000000000E+00  0.19377402427E+02  0.19377402427E+02  0.00000000000E+00 0.  1.
         -4   -1    0    0    0  501 -0.00000000000E+00 -0.00000000000E+00 -0.84397578070E+01  0.84397578070E+01  0.00000000000E+00 0. -1.
        -11    1    1    2    0    0 -0.40946368459E+01  0.94951471677E+01 -0.27147391847E+01  0.10690822208E+02  0.00000000000E+00 0. -1.
         11    1    1    2    0    0  0.40946368459E+01 -0.94951471677E+01  0.13652383804E+02  0.17126338026E+02  0.00000000000E+00 0.  1.
<mgrwt>
<rscale>  0 0.25576597E+02</rscale>
<asrwt>0</asrwt>
<pdfrwt beam="1">  1        4 0.29811388E-02 0.25576597E+02</pdfrwt>
<pdfrwt beam="2">  1       -4 0.12984243E-02 0.25576597E+02</pdfrwt>
<totfact> 0.74795840E+05</totfact>
</mgrwt>
</event>
<event>
 4    1  0.2165211E+000  0.2367145E+02  0.7546771E-02  0.1680852E+00
         -2   -1    0    0    0  501 -0.00000000000E+00  0.00000000000E+00  0.76958910119E+01  0.76958910119E+01  0.00000000000E+00 0.  1.
          2   -1    0    0  501    0  0.00000000000E+00 -0.00000000000E+00 -0.18202492136E+02  0.18202492136E+02  0.00000000000E+00 0. -1.
        -11    1    1    2    0    0  0.17313594210E+01 -0.10269602470E+02 -0.11405675897E+02  0.15445121657E+02  0.00000000000E+00 0. -1.
         11    1    1    2    0    0 -0.17313594210E+01  0.10269602470E+02  0.89907477289E+00  0.10453261491E+02  0.00000000000E+00 0.  1.
<mgrwt>
<rscale>  0 0.23671451E+02</rscale>
<asrwt>0</asrwt>
<pdfrwt beam="2">  1        2 0.28003834E-02 0.23671451E+02</pdfrwt>
<pdfrwt beam="1">  1       -2 0.11839832E-02 0.23671451E+02</pdfrwt>
<totfact> 0.28078154E+06</totfact>
</mgrwt>
</event>
<event>
 4    1  0.2165211E+000  0.2730587E+02  0.7546771E-02  0.1629932E+00
         -2   -1    0    0    0  501 -0.00000000000E+00  0.00000000000E+00  0.15019066617E+02  0.15019066617E+02  0.00000000000E+00 0.  1.
          2   -1    0    0  501    0  0.00000000000E+00 -0.00000000000E+00 -0.12411069743E+02  0.12411069743E+02  0.00000000000E+00 0. -1.
        -13    1    1    2    0    0 -0.78943002271E+01  0.92850759998E+01 -0.48778727305E+01  0.13127309502E+02  0.00000000000E+00 0. -1.
         13    1    1    2    0    0  0.78943002271E+01 -0.92850759998E+01  0.74858696040E+01  0.14302826858E+02  0.00000000000E+00 0.  1.
<mgrwt>
<rscale>  0 0.27305874E+02</rscale>
<asrwt>0</asrwt>
<pdfrwt beam="2">  1        2 0.19093953E-02 0.27305874E+02</pdfrwt>
<pdfrwt beam="1">  1       -2 0.23106256E-02 0.27305874E+02</pdfrwt>
<totfact> 0.19316072E+06</totfact>
</mgrwt>
</event>
<event>
 4    1  0.2165211E+000  0.4734054E+02  0.7546771E-02  0.1460238E+00
         -2   -1    0    0    0  501 -0.00000000000E+00  0.00000000000E+00  0.98905376752E+01  0.98905376752E+01  0.00000000000E+00 0.  1.
          2   -1    0    0  501    0  0.00000000000E+00 -0.00000000000E+00 -0.56648264098E+02  0.56648264098E+02  0.00000000000E+00 0. -1.
        -11    1    1    2    0    0 -0.61919304485E+01  0.17223466940E+02 -0.44475659744E+02  0.48094408467E+02  0.00000000000E+00 0. -1.
         11    1    1    2    0    0  0.61919304485E+01 -0.17223466940E+02 -0.22820666791E+01  0.18444393307E+02  0.00000000000E+00 0.  1.
<mgrwt>
<rscale>  0 0.47340545E+02</rscale>
<asrwt>0</asrwt>
<pdfrwt beam="2">  1        2 0.87151174E-02 0.47340545E+02</pdfrwt>
<pdfrwt beam="1">  1       -2 0.15216212E-02 0.47340545E+02</pdfrwt>
<totfact> 0.60436534E+05</totfact>
</mgrwt>
</event>
<event>
 4    1  0.2165211E+000  0.3686631E+02  0.7546771E-02  0.1532625E+00
          1   -1    0    0  501    0  0.00000000000E+00  0.00000000000E+00  0.22156122909E+01  0.22156122909E+01  0.00000000000E+00 0. -1.
         -1   -1    0    0    0  501 -0.00000000000E+00 -0.00000000000E+00 -0.15335767556E+03  0.15335767556E+03  0.00000000000E+00 0.  1.
        -11    1    1    2    0    0  0.70591916405E+01 -0.17014184869E+02 -0.78453209277E+02  0.80586727934E+02  0.00000000000E+00 0. -1.
         11    1    1    2    0    0 -0.70591916405E+01  0.17014184869E+02 -0.72688853995E+02  0.74986559919E+02  0.00000000000E+00 0.  1.
<mgrwt>
<rscale>  0 0.36866307E+02</rscale>
<asrwt>0</asrwt>
<pdfrwt beam="1">  1        1 0.34086343E-03 0.36866307E+02</pdfrwt>
<pdfrwt beam="2">  1       -1 0.23593489E-01 0.36866307E+02</pdfrwt>
<totfact> 0.71992161E+05</totfact>
</mgrwt>
</event>
<event>
 4    1  0.2165211E+000  0.2921249E+02  0.7546771E-02  0.1606960E+00
         -2   -1    0    0    0  501 -0.00000000000E+00  0.00000000000E+00  0.84272007867E+02  0.84272007867E+02  0.00000000000E+00 0. -1.
          2   -1    0    0  501    0  0.00000000000E+00 -0.00000000000E+00 -0.25315922945E+01  0.25315922945E+01  0.00000000000E+00 0.  1.
        -13    1    1    2    0    0  0.12639296801E+02 -0.53609321314E+01  0.26057287827E+02  0.29452905899E+02  0.00000000000E+00 0.  1.
         13    1    1    2    0    0 -0.12639296801E+02  0.53609321314E+01  0.55683127745E+02  0.57350694263E+02  0.00000000000E+00 0. -1.
<mgrwt>
<rscale>  0 0.29212488E+02</rscale>
<asrwt>0</asrwt>
<pdfrwt beam="2">  1        2 0.38947580E-03 0.29212488E+02</pdfrwt>
<pdfrwt beam="1">  1       -2 0.12964922E-01 0.29212488E+02</pdfrwt>
<totfact> 0.13189501E+06</totfact>
</mgrwt>
</event>
<event>
 4    1  0.2165211E+000  0.3103904E+02  0.7546771E-02  0.1586879E+00
         -2   -1    0    0    0  501 -0.00000000000E+00  0.00000000000E+00  0.12096098950E+02  0.12096098950E+02  0.00000000000E+00 0. -1.
          2   -1    0    0  501    0  0.00000000000E+00 -0.00000000000E+00 -0.19911835052E+02  0.19911835052E+02  0.00000000000E+00 0.  1.
        -11    1    1    2    0    0  0.14826024037E+02 -0.14663290878E+01  0.57458851854E+00  0.14909435325E+02  0.00000000000E+00 0. -1.
         11    1    1    2    0    0 -0.14826024037E+02  0.14663290878E+01 -0.83903246213E+01  0.17098498677E+02  0.00000000000E+00 0.  1.
<mgrwt>
<rscale>  0 0.31039042E+02</rscale>
<asrwt>0</asrwt>
<pdfrwt beam="2">  1        2 0.30633592E-02 0.31039042E+02</pdfrwt>
<pdfrwt beam="1">  1       -2 0.18609383E-02 0.31039042E+02</pdfrwt>
<totfact> 0.14842980E+06</totfact>
</mgrwt>
</event>
<event>
 4    1  0.2165211E+000  0.3249549E+02  0.7546771E-02  0.1572037E+00
         -2   -1    0    0    0  501 -0.00000000000E+00  0.00000000000E+00  0.39528109463E+02  0.39528109463E+02  0.00000000000E+00 0. -1.
          2   -1    0    0  501    0  0.00000000000E+00 -0.00000000000E+00 -0.66785206167E+01  0.66785206167E+01  0.00000000000E+00 0.  1.
        -13    1    1    2    0    0 -0.76947198858E+01 -0.64299600407E+01 -0.17535891375E+01  0.10179792489E+02  0.00000000000E+00 0.  1.
         13    1    1    2    0    0  0.76947198858E+01  0.64299600407E+01  0.34603177984E+02  0.36026837592E+02  0.00000000000E+00 0. -1.
<mgrwt>
<rscale>  0 0.32495495E+02</rscale>
<asrwt>0</asrwt>
<pdfrwt beam="2">  1        2 0.10274647E-02 0.32495495E+02</pdfrwt>
<pdfrwt beam="1">  1       -2 0.60812475E-02 0.32495495E+02</pdfrwt>
<totfact> 0.11695323E+06</totfact>
</mgrwt>
</event>
<event>
 4    1  0.2165211E+000  0.3754273E+02  0.7546771E-02  0.1527114E+00
          2   -1    0    0  501    0  0.00000000000E+00  0.00000000000E+00  0.47753666344E+02  0.47753666344E+02  0.00000000000E+00 0.  1.
         -2   -1    0    0    0  501 -0.00000000000E+00 -0.00000000000E+00 -0.73787889765E+01  0.73787889765E+01  0.00000000000E+00 0. -1.
        -11    1    1    2    0    0  0.42936943553E+01  0.13277729412E+02  0.17499694827E+01  0.14064007350E+02  0.00000000000E+00 0. -1.
         11    1    1    2    0    0 -0.42936943553E+01 -0.13277729412E+02  0.38624907884E+02  0.41068447970E+02  0.00000000000E+00 0.  1.
<mgrwt>
<rscale>  0 0.37542734E+02</rscale>
<asrwt>0</asrwt>
<pdfrwt beam="1">  1        2 0.73467177E-02 0.37542734E+02</pdfrwt>
<pdfrwt beam="2">  1       -2 0.11351983E-02 0.37542734E+02</pdfrwt>
<totfact> 0.10474188E+06</totfact>
</mgrwt>
</event>
<event>
 4    1  0.2165211E+000  0.2637077E+02  0.7546771E-02  0.1642059E+00
         -4   -1    0    0    0  501 -0.00000000000E+00  0.00000000000E+00  0.95691448588E+01  0.95691448588E+01  0.00000000000E+00 0.  1.
          4   -1    0    0  501    0  0.00000000000E+00 -0.00000000000E+00 -0.18168221286E+02  0.18168221286E+02  0.00000000000E+00 0. -1.
        -13    1    1    2    0    0 -0.11417847555E+02 -0.15946209547E+01 -0.11029910482E+02  0.15955218081E+02  0.00000000000E+00 0. -1.
         13    1    1    2    0    0  0.11417847555E+02  0.15946209547E+01  0.24308340549E+01  0.11782148063E+02  0.00000000000E+00 0.  1.
<mgrwt>
<rscale>  0 0.26370767E+02</rscale>
<asrwt>0</asrwt>
<pdfrwt beam="2">  1        4 0.27951109E-02 0.26370767E+02</pdfrwt>
<pdfrwt beam="1">  1       -4 0.14721762E-02 0.26370767E+02</pdfrwt>
<totfact> 0.69972374E+05</totfact>
</mgrwt>
</event>
<event>
 4    1  0.2165211E+000  0.3462106E+02  0.7546771E-02  0.1551992E+00
         -4   -1    0    0    0  501 -0.00000000000E+00  0.00000000000E+00  0.38475436151E+01  0.38475436151E+01  0.00000000000E+00 0.  1.
          4   -1    0    0  501    0  0.00000000000E+00 -0.00000000000E+00 -0.77881992577E+02  0.77881992577E+02  0.00000000000E+00 0. -1.
        -11    1    1    2    0    0 -0.16130095416E+02 -0.62124688590E+01 -0.34803185568E+02  0.38859187757E+02  0.00000000000E+00 0. -1.
         11    1    1    2    0    0  0.16130095416E+02  0.62124688590E+01 -0.39231263394E+02  0.42870348435E+02  0.00000000000E+00 0.  1.
<mgrwt>
<rscale>  0 0.34621055E+02</rscale>
<asrwt>0</asrwt>
<pdfrwt beam="2">  1        4 0.11981845E-01 0.34621055E+02</pdfrwt>
<pdfrwt beam="1">  1       -4 0.59192979E-03 0.34621055E+02</pdfrwt>
<totfact> 0.31632621E+05</totfact>
</mgrwt>
</event>
<event>
 4    1  0.2165211E+000  0.6232106E+02  0.7546771E-02  0.1388342E+00
          4   -1    0    0  501    0  0.00000000000E+00  0.00000000000E+00  0.18575596970E+02  0.18575596970E+02  0.00000000000E+00 0. -1.
         -4   -1    0    0    0  501 -0.00000000000E+00 -0.00000000000E+00 -0.52271726549E+02  0.52271726549E+02  0.00000000000E+00 0.  1.
        -11    1    1    2    0    0 -0.12974383785E+02  0.24085872825E+01  0.15242319013E+02  0.20160957720E+02  0.00000000000E+00 0. -1.
         11    1    1    2    0    0  0.12974383785E+02 -0.24085872825E+01 -0.48938448592E+02  0.50686365798E+02  0.00000000000E+00 0.  1.
<mgrwt>
<rscale>  0 0.62321057E+02</rscale>
<asrwt>0</asrwt>
<pdfrwt beam="1">  1        4 0.28577841E-02 0.62321057E+02</pdfrwt>
<pdfrwt beam="2">  1       -4 0.80418042E-02 0.62321057E+02</pdfrwt>
<totfact> 0.77767401E+04</totfact>
</mgrwt>
</event>
<event>
 4    1  0.2165211E+000  0.2739514E+02  0.7546771E-02  0.1628806E+00
         -4   -1    0    0    0  501 -0.00000000000E+00  0.00000000000E+00  0.57352292014E+01  0.57352292014E+01  0.00000000000E+00 0.  1.
          4   -1    0    0  501    0  0.00000000000E+00 -0.00000000000E+00 -0.32714188665E+02  0.32714188665E+02  0.00000000000E+00 0. -1.
        -13    1    1    2    0    0  0.90079473438E+01  0.85939492321E+01 -0.21506017640E+02  0.24849705702E+02  0.00000000000E+00 0. -1.
         13    1    1    2    0    0 -0.90079473438E+01 -0.85939492321E+01 -0.54729418242E+01  0.13599712165E+02  0.00000000000E+00 0.  1.
<mgrwt>
<rscale>  0 0.27395136E+02</rscale>
<asrwt>0</asrwt>
<pdfrwt beam="2">  1        4 0.50329521E-02 0.27395136E+02</pdfrwt>
<pdfrwt beam="1">  1       -4 0.88234295E-03 0.27395136E+02</pdfrwt>
<totfact> 0.61729969E+05</totfact>
</mgrwt>
</event>
<event>
 4    1  0.2165211E+000  0.2214010E+02  0.7546771E-02  0.1705840E+00
         -2   -1    0    0    0  501 -0.00000000000E+00  0.00000000000E+00  0.41468607304E+02  0.41468607304E+02  0.00000000000E+00 0. -1.
          2   -1    0    0  501    0  0.00000000000E+00 -0.00000000000E+00 -0.29551507877E+01  0.29551507877E+01  0.00000000000E+00 0.  1.
        -11    1    1    2    0    0  0.79450954489E+01 -0.64487074194E+01  0.10782896471E+02  0.14865437275E+02  0.00000000000E+00 0.  1.
         11    1    1    2    0    0 -0.79450954489E+01  0.64487074194E+01  0.27730560045E+02  0.29558320817E+02  0.00000000000E+00 0. -1.
<mgrwt>
<rscale>  0 0.22140098E+02</rscale>
<asrwt>0</asrwt>
<pdfrwt beam="2">  1        2 0.45463861E-03 0.22140098E+02</pdfrwt>
<pdfrwt beam="1">  1       -2 0.63797853E-02 0.22140098E+02</pdfrwt>
<totfact> 0.27788922E+06</totfact>
</mgrwt>
</event>
<event>
 4    1  0.2165211E+000  0.2437211E+02  0.7546771E-02  0.1670188E+00
         -2   -1    0    0    0  501 -0.00000000000E+00  0.00000000000E+00  0.68556424735E+01  0.68556424735E+01  0.00000000000E+00 0.  1.
          2   -1    0    0  501    0  0.00000000000E+00 -0.00000000000E+00 -0.21660979465E+02  0.21660979465E+02  0.00000000000E+00 0. -1.
        -13    1    1    2    0    0 -0.40968768167E+01 -0.10157413332E+02 -0.13653687970E+02  0.17503732186E+02  0.00000000000E+00 0. -1.
         13    1    1    2    0    0  0.40968768167E+01  0.10157413332E+02 -0.11516490218E+01  0.11012889753E+02  0.00000000000E+00 0.  1.
<mgrwt>
<rscale>  0 0.24372110E+02</rscale>
<asrwt>0</asrwt>
<pdfrwt beam="2">  1        2 0.33324584E-02 0.24372110E+02</pdfrwt>
<pdfrwt beam="1">  1       -2 0.10547142E-02 0.24372110E+02</pdfrwt>
<totfact> 0.26672406E+06</totfact>
</mgrwt>
</event>
<event>
 4    1  0.2165211E+000  0.2224311E+02  0.7546771E-02  0.1704081E+00
         -2   -1    0    0    0  501 -0.00000000000E+00  0.00000000000E+00  0.67917081025E+02  0.67917081025E+02  0.00000000000E+00 0. -1.
          2   -1    0    0  501    0  0.00000000000E+00 -0.00000000000E+00 -0.18211763146E+01  0.18211763146E+01  0.00000000000E+00 0.  1.
        -11    1    1    2    0    0  0.86150596604E+01 -0.58475156156E+01  0.20793765346E+02  0.23254964397E+02  0.00000000000E+00 0.  1.
         11    1    1    2    0    0 -0.86150596604E+01  0.58475156156E+01  0.45302139364E+02  0.46483292942E+02  0.00000000000E+00 0. -1.
<mgrwt>
<rscale>  0 0.22243109E+02</rscale>
<asrwt>0</asrwt>
<pdfrwt beam="2">  1        2 0.28018102E-03 0.22243109E+02</pdfrwt>
<pdfrwt beam="1">  1       -2 0.10448780E-01 0.22243109E+02</pdfrwt>
<totfact> 0.25521494E+06</totfact>
</mgrwt>
</event>
<event>
 4    1  0.2165211E+000  0.2295778E+02  0.7546771E-02  0.1692195E+00
         -4   -1    0    0    0  501 -0.00000000000E+00  0.00000000000E+00  0.69486563478E+02  0.69486563478E+02  0.00000000000E+00 0.  1.
          4   -1    0    0  501    0  0.00000000000E+00 -0.00000000000E+00 -0.18962650888E+01  0.18962650888E+01  0.00000000000E+00 0. -1.
        -11    1    1    2    0    0  0.90705187445E+01  0.45329521214E+01  0.50522818424E+02  0.51530351704E+02  0.00000000000E+00 0.  1.
         11    1    1    2    0    0 -0.90705187445E+01 -0.45329521214E+01  0.17067479965E+02  0.19852476863E+02  0.00000000000E+00 0. -1.
<mgrwt>
<rscale>  0 0.22957783E+02</rscale>
<asrwt>0</asrwt>
<pdfrwt beam="2">  1        4 0.29173315E-03 0.22957783E+02</pdfrwt>
<pdfrwt beam="1">  1       -4 0.10690239E-01 0.22957783E+02</pdfrwt>
<totfact> 0.80632418E+05</totfact>
</mgrwt>
</event>
<event>
 4    1  0.2165211E+000  0.2943807E+02  0.7546771E-02  0.1604384E+00
         -4   -1    0    0    0  501 -0.00000000000E+00  0.00000000000E+00  0.37443064313E+02  0.37443064313E+02  0.00000000000E+00 0.  1.
          4   -1    0    0  501    0  0.00000000000E+00 -0.00000000000E+00 -0.57861162240E+01  0.57861162240E+01  0.00000000000E+00 0. -1.
        -13    1    1    2    0    0 -0.11515432912E+02 -0.91502505929E+01  0.15000844650E+02  0.21008513066E+02  0.00000000000E+00 0.  1.
         13    1    1    2    0    0  0.11515432912E+02  0.91502505929E+01  0.16656103440E+02  0.22220667471E+02  0.00000000000E+00 0. -1.
<mgrwt>
<rscale>  0 0.29438065E+02</rscale>
<asrwt>0</asrwt>
<pdfrwt beam="2">  1        4 0.89017175E-03 0.29438065E+02</pdfrwt>
<pdfrwt beam="1">  1       -4 0.57604713E-02 0.29438065E+02</pdfrwt>
<totfact> 0.51708380E+05</totfact>
</mgrwt>
</event>
<event>
 4    1  0.2165211E+000  0.2339433E+02  0.7546771E-02  0.1685197E+00
          2   -1    0    0  501    0  0.00000000000E+00  0.00000000000E+00  0.14546792220E+02  0.14546792220E+02  0.00000000000E+00 0.  1.
         -2   -1    0    0    0  501 -0.00000000000E+00 -0.00000000000E+00 -0.94057637833E+01  0.94057637833E+01  0.00000000000E+00 0. -1.
        -13    1    1    2    0    0  0.81979109668E+01  0.62226220587E+01 -0.31206199558E+01  0.10754768171E+02  0.00000000000E+00 0. -1.
         13    1    1    2    0    0 -0.81979109668E+01 -0.62226220587E+01  0.82616483928E+01  0.13197787833E+02  0.00000000000E+00 0.  1.
<mgrwt>
<rscale>  0 0.23394332E+02</rscale>
<asrwt>0</asrwt>
<pdfrwt beam="1">  1        2 0.22379680E-02 0.23394332E+02</pdfrwt>
<pdfrwt beam="2">  1       -2 0.14470406E-02 0.23394332E+02</pdfrwt>
<totfact> 0.28291923E+06</totfact>
</mgrwt>
</event>
<event>
 4    1  0.2165211E+000  0.2430778E+02  0.7546771E-02  0.1671148E+00
         -2   -1    0    0    0  501 -0.00000000000E+00  0.00000000000E+00  0.15507537747E+01  0.15507537747E+01  0.00000000000E+00 0. -1.
          2   -1    0    0  501    0  0.00000000000E+00 -0.00000000000E+00 -0.95254989231E+02  0.95254989231E+02  0.00000000000E+00 0.  1.
        -11    1    1    2    0    0  0.10982200710E+02 -0.23694256563E+01 -0.65315689108E+02  0.66274898370E+02  0.00000000000E+00 0.  1.
         11    1    1    2    0    0 -0.10982200710E+02  0.23694256563E+01 -0.28388546349E+02  0.30530844636E+02  0.00000000000E+00 0. -1.
<mgrwt>
<rscale>  0 0.24307779E+02</rscale>
<asrwt>0</asrwt>
<pdfrwt beam="2">  1        2 0.14654615E-01 0.24307779E+02</pdfrwt>
<pdfrwt beam="1">  1       -2 0.23857748E-03 0.24307779E+02</pdfrwt>
<totfact> 0.33672256E+06</totfact>
</mgrwt>
</event>
<event>
 4    1  0.2165211E+000  0.2361792E+02  0.7546771E-02  0.1681685E+00
         -4   -1    0    0    0  501 -0.00000000000E+00  0.00000000000E+00  0.26954153495E+02  0.26954153495E+02  0.00000000000E+00 0.  1.
          4   -1    0    0  501    0  0.00000000000E+00 -0.00000000000E+00 -0.51736579287E+01  0.51736579287E+01  0.00000000000E+00 0. -1.
        -11    1    1    2    0    0 -0.80961933012E+01 -0.85937800323E+01  0.11194936226E+02  0.16270463986E+02  0.00000000000E+00 0. -1.
         11    1    1    2    0    0  0.80961933012E+01  0.85937800323E+01  0.10585559340E+02  0.15857347438E+02  0.00000000000E+00 0.  1.
<mgrwt>
<rscale>  0 0.23617923E+02</rscale>
<asrwt>0</asrwt>
<pdfrwt beam="2">  1        4 0.79594739E-03 0.23617923E+02</pdfrwt>
<pdfrwt beam="1">  1       -4 0.41467928E-02 0.23617923E+02</pdfrwt>
<totfact> 0.87292980E+05</totfact>
</mgrwt>
</event>
<event>
 4    1  0.2165211E+000  0.3235720E+02  0.7546771E-02  0.1573405E+00
          4   -1    0    0  501    0  0.00000000000E+00  0.00000000000E+00  0.56052970872E+02  0.56052970872E+02  0.00000000000E+00 0. -1.
         -4   -1    0    0    0  501 -0.00000000000E+00 -0.00000000000E+00 -0.46696380232E+01  0.46696380232E+01  0.00000000000E+00 0.  1.
        -11    1    1    2    0    0 -0.11019053390E+02  0.42749009249E+01  0.46424244911E+02  0.47905164973E+02  0.00000000000E+00 0. -1.
         11    1    1    2    0    0  0.11019053390E+02 -0.42749009249E+01  0.49590879374E+01  0.12817443922E+02  0.00000000000E+00 0.  1.
<mgrwt>
<rscale>  0 0.32357199E+02</rscale>
<asrwt>0</asrwt>
<pdfrwt beam="1">  1        4 0.86235335E-02 0.32357199E+02</pdfrwt>
<pdfrwt beam="2">  1       -4 0.71840589E-03 0.32357199E+02</pdfrwt>
<totfact> 0.39360000E+05</totfact>
</mgrwt>
</event>
<event>
 4    1  0.2165211E+000  0.3292752E+02  0.7546771E-02  0.1567814E+00
         -4   -1    0    0    0  501 -0.00000000000E+00  0.00000000000E+00  0.26336180806E+01  0.26336180806E+01  0.00000000000E+00 0. -1.
          4   -1    0    0  501    0  0.00000000000E+00 -0.00000000000E+00 -0.10292131366E+03  0.10292131366E+03  0.00000000000E+00 0.  1.
        -11    1    1    2    0    0 -0.15577355016E+02  0.35119650212E+01 -0.37294110847E+02  0.40568936287E+02  0.00000000000E+00 0. -1.
         11    1    1    2    0    0  0.15577355016E+02 -0.35119650212E+01 -0.62993584733E+02  0.64985995454E+02  0.00000000000E+00 0.  1.
<mgrwt>
<rscale>  0 0.32927522E+02</rscale>
<asrwt>0</asrwt>
<pdfrwt beam="2">  1        4 0.15834049E-01 0.32927522E+02</pdfrwt>
<pdfrwt beam="1">  1       -4 0.40517200E-03 0.32927522E+02</pdfrwt>
<totfact> 0.33194591E+05</totfact>
</mgrwt>
</event>
<event>
 4    1  0.2165211E+000  0.3528143E+02  0.7546771E-02  0.1546116E+00
         -1   -1    0    0    0  501 -0.00000000000E+00  0.00000000000E+00  0.43314661119E+01  0.43314661119E+01  0.00000000000E+00 0. -1.
          1   -1    0    0  501    0  0.00000000000E+00 -0.00000000000E+00 -0.71845128153E+02  0.71845128153E+02  0.00000000000E+00 0.  1.
        -11    1    1    2    0    0  0.13366566444E+02  0.74683166649E+01 -0.14840991568E+02  0.21323599205E+02  0.00000000000E+00 0. -1.
         11    1    1    2    0    0 -0.13366566444E+02 -0.74683166649E+01 -0.52672670473E+02  0.54852995061E+02  0.00000000000E+00 0.  1.
<mgrwt>
<rscale>  0 0.35281425E+02</rscale>
<asrwt>0</asrwt>
<pdfrwt beam="2">  1        1 0.11053097E-01 0.35281425E+02</pdfrwt>
<pdfrwt beam="1">  1       -1 0.66637938E-03 0.35281425E+02</pdfrwt>
<totfact> 0.11501810E+06</totfact>
</mgrwt>
</event>
<event>
 4    1  0.2165211E+000  0.2501395E+02  0.7546771E-02  0.1660802E+00
         -2   -1    0    0    0  501 -0.00000000000E+00  0.00000000000E+00  0.79207000569E+02  0.79207000569E+02  0.00000000000E+00 0.  1.
          2   -1    0    0  501    0  0.00000000000E+00 -0.00000000000E+00 -0.19748816664E+01  0.19748816664E+01  0.00000000000E+00 0. -1.
        -11    1    1    2    0    0 -0.10439378175E+02  0.64755420102E+01  0.30997031294E+02  0.33342603529E+02  0.00000000000E+00 0.  1.
         11    1    1    2    0    0  0.10439378175E+02 -0.64755420102E+01  0.46235087608E+02  0.47839278706E+02  0.00000000000E+00 0. -1.
<mgrwt>
<rscale>  0 0.25013952E+02</rscale>
<asrwt>0</asrwt>
<pdfrwt beam="2">  1        2 0.30382801E-03 0.25013952E+02</pdfrwt>
<pdfrwt beam="1">  1       -2 0.12185690E-01 0.25013952E+02</pdfrwt>
<totfact> 0.19046897E+06</totfact>
</mgrwt>
</event>
<event>
 4    1  0.2165211E+000  0.2715449E+02  0.7546771E-02  0.1631855E+00
          4   -1    0    0  501    0  0.00000000000E+00  0.00000000000E+00  0.45013581674E+02  0.45013581674E+02  0.00000000000E+00 0. -1.
         -4   -1    0    0    0  501 -0.00000000000E+00 -0.00000000000E+00 -0.40952441680E+01  0.40952441680E+01  0.00000000000E+00 0.  1.
        -13    1    1    2    0    0  0.11105465794E+02 -0.21469840461E+01  0.34041055483E+02  0.35871079847E+02  0.00000000000E+00 0. -1.
         13    1    1    2    0    0 -0.11105465794E+02  0.21469840461E+01  0.68772820234E+01  0.13237745995E+02  0.00000000000E+00 0.  1.
<mgrwt>
<rscale>  0 0.27154492E+02</rscale>
<asrwt>0</asrwt>
<pdfrwt beam="1">  1        4 0.69251661E-02 0.27154492E+02</pdfrwt>
<pdfrwt beam="2">  1       -4 0.63003759E-03 0.27154492E+02</pdfrwt>
<totfact> 0.60577350E+05</totfact>
</mgrwt>
</event>
<event>
 4    1  0.2165211E+000  0.4013867E+02  0.7546771E-02  0.1507194E+00
         -1   -1    0    0    0  501 -0.00000000000E+00  0.00000000000E+00  0.34823512145E+02  0.34823512145E+02  0.00000000000E+00 0. -1.
          1   -1    0    0  501    0  0.00000000000E+00 -0.00000000000E+00 -0.11566269278E+02  0.11566269278E+02  0.00000000000E+00 0.  1.
        -11    1    1    2    0    0  0.83422027318E+01  0.15838129371E+02  0.11413302889E+01  0.17937149250E+02  0.00000000000E+00 0.  1.
         11    1    1    2    0    0 -0.83422027318E+01 -0.15838129371E+02  0.22115912578E+02  0.28452632173E+02  0.00000000000E+00 0. -1.
<mgrwt>
<rscale>  0 0.40138666E+02</rscale>
<asrwt>0</asrwt>
<pdfrwt beam="2">  1        1 0.17794261E-02 0.40138666E+02</pdfrwt>
<pdfrwt beam="1">  1       -1 0.53574634E-02 0.40138666E+02</pdfrwt>
<totfact> 0.72218276E+05</totfact>
</mgrwt>
</event>
<event>
 4    1  0.2165211E+000  0.2659277E+02  0.7546771E-02  0.1639125E+00
         -2   -1    0    0    0  501 -0.00000000000E+00  0.00000000000E+00  0.15023579012E+02  0.15023579012E+02  0.00000000000E+00 0. -1.
          2   -1    0    0  501    0  0.00000000000E+00 -0.00000000000E+00 -0.11767760018E+02  0.11767760018E+02  0.00000000000E+00 0.  1.
        -11    1    1    2    0    0  0.13207947433E+02 -0.75398871677E+00  0.29703372417E+01  0.13558808123E+02  0.00000000000E+00 0. -1.
         11    1    1    2    0    0 -0.13207947433E+02  0.75398871677E+00  0.28548175237E+00  0.13232530907E+02  0.00000000000E+00 0.  1.
<mgrwt>
<rscale>  0 0.26592771E+02</rscale>
<asrwt>0</asrwt>
<pdfrwt beam="2">  1        2 0.18104246E-02 0.26592771E+02</pdfrwt>
<pdfrwt beam="1">  1       -2 0.23113199E-02 0.26592771E+02</pdfrwt>
<totfact> 0.20487363E+06</totfact>
</mgrwt>
</event>
<event>
 4    1  0.2165211E+000  0.2169396E+02  0.7546771E-02  0.1713599E+00
         -2   -1    0    0    0  501 -0.00000000000E+00  0.00000000000E+00  0.38992630948E+01  0.38992630948E+01  0.00000000000E+00 0. -1.
          2   -1    0    0  501    0  0.00000000000E+00 -0.00000000000E+00 -0.30174157616E+02  0.30174157616E+02  0.00000000000E+00 0.  1.
        -13    1    1    2    0    0 -0.10424935679E+02  0.11958188601E+00 -0.17839778001E+02  0.20662799009E+02  0.00000000000E+00 0. -1.
         13    1    1    2    0    0  0.10424935679E+02 -0.11958188601E+00 -0.84351165204E+01  0.13410621703E+02  0.00000000000E+00 0.  1.
<mgrwt>
<rscale>  0 0.21693960E+02</rscale>
<asrwt>0</asrwt>
<pdfrwt beam="2">  1        2 0.46421781E-02 0.21693960E+02</pdfrwt>
<pdfrwt beam="1">  1       -2 0.59988663E-03 0.21693960E+02</pdfrwt>
<totfact> 0.36114763E+06</totfact>
</mgrwt>
</event>
<event>
 4    1  0.2165211E+000  0.8208219E+02  0.7546771E-02  0.1323244E+00
         -2   -1    0    0    0  501 -0.00000000000E+00  0.00000000000E+00  0.20908136122E+02  0.20908136122E+02  0.00000000000E+00 0.  1.
          2   -1    0    0  501    0  0.00000000000E+00 -0.00000000000E+00 -0.80560577473E+02  0.80560577473E+02  0.00000000000E+00 0. -1.
        -13    1    1    2    0    0  0.81500615480E+01 -0.29864799571E+02  0.34829650017E+01  0.31152219854E+02  0.00000000000E+00 0. -1.
         13    1    1    2    0    0 -0.81500615480E+01  0.29864799571E+02 -0.63135406353E+02  0.70316493741E+02  0.00000000000E+00 0.  1.
<mgrwt>
<rscale>  0 0.82082191E+02</rscale>
<asrwt>0</asrwt>
<pdfrwt beam="2">  1        2 0.12393935E-01 0.82082191E+02</pdfrwt>
<pdfrwt beam="1">  1       -2 0.32166364E-02 0.82082191E+02</pdfrwt>
<totfact> 0.15370759E+05</totfact>
</mgrwt>
</event>
<event>
 4    1  0.2165211E+000  0.2156523E+02  0.7546771E-02  0.1715881E+00
         -2   -1    0    0    0  501 -0.00000000000E+00  0.00000000000E+00  0.24848600823E+01  0.24848600823E+01  0.00000000000E+00 0. -1.
          2   -1    0    0  501    0  0.00000000000E+00 -0.00000000000E+00 -0.46789265135E+02  0.46789265135E+02  0.00000000000E+00 0.  1.
        -13    1    1    2    0    0  0.83986465017E+01  0.66232568909E+01 -0.19036046086E+02  0.21835197400E+02  0.00000000000E+00 0. -1.
         13    1    1    2    0    0 -0.83986465017E+01 -0.66232568909E+01 -0.25268358967E+02  0.27438927818E+02  0.00000000000E+00 0.  1.
<mgrwt>
<rscale>  0 0.21565229E+02</rscale>
<asrwt>0</asrwt>
<pdfrwt beam="2">  1        2 0.71983482E-02 0.21565229E+02</pdfrwt>
<pdfrwt beam="1">  1       -2 0.38228618E-03 0.21565229E+02</pdfrwt>
<totfact> 0.38733549E+06</totfact>
</mgrwt>
</event>
<event>
 4    1  0.2165211E+000  0.3163765E+03  0.7546771E-02  0.1077329E+00
         -2   -1    0    0    0  501 -0.00000000000E+00  0.00000000000E+00  0.44862797482E+02  0.44862797482E+02  0.00000000000E+00 0. -1.
          2   -1    0    0  501    0  0.00000000000E+00 -0.00000000000E+00 -0.55777879288E+03  0.55777879288E+03  0.00000000000E+00 0.  1.
        -13    1    1    2    0    0  0.13916877717E+03 -0.74214646646E+02 -0.23330402086E+03  0.28161414820E+03  0.00000000000E+00 0. -1.
         13    1    1    2    0    0 -0.13916877717E+03  0.74214646646E+02 -0.27961197454E+03  0.32102744217E+03  0.00000000000E+00 0.  1.
<mgrwt>
<rscale>  0 0.31637647E+03</rscale>
<asrwt>0</asrwt>
<pdfrwt beam="2">  1        2 0.85812125E-01 0.31637647E+03</pdfrwt>
<pdfrwt beam="1">  1       -2 0.69019686E-02 0.31637647E+03</pdfrwt>
<totfact> 0.65502044E+03</totfact>
</mgrwt>
</event>
<event>
 4    1  0.2165211E+000  0.2828444E+02  0.7546771E-02  0.1617865E+00
          4   -1    0    0  501    0  0.00000000000E+00  0.00000000000E+00  0.93889166362E+01  0.93889166362E+01  0.00000000000E+00 0.  1.
         -4   -1    0    0    0  501 -0.00000000000E+00 -0.00000000000E+00 -0.21301972716E+02  0.21301972716E+02  0.00000000000E+00 0. -1.
        -11    1    1    2    0    0  0.83916052361E+01  0.63815576665E+01 -0.16185049273E+02  0.19315774296E+02  0.00000000000E+00 0. -1.
         11    1    1    2    0    0 -0.83916052361E+01 -0.63815576665E+01  0.42719931934E+01  0.11375115056E+02  0.00000000000E+00 0.  1.
<mgrwt>
<rscale>  0 0.28284444E+02</rscale>
<asrwt>0</asrwt>
<pdfrwt beam="1">  1        4 0.14444487E-02 0.28284444E+02</pdfrwt>
<pdfrwt beam="2">  1       -4 0.32772265E-02 0.28284444E+02</pdfrwt>
<totfact> 0.59227467E+05</totfact>
</mgrwt>
</event>
<event>
 4    1  0.2165211E+000  0.3678495E+02  0.7546771E-02  0.1533298E+00
         -1   -1    0    0    0  501 -0.00000000000E+00  0.00000000000E+00  0.24388608879E+02  0.24388608879E+02  0.00000000000E+00 0.  1.
          1   -1    0    0  501    0  0.00000000000E+00 -0.00000000000E+00 -0.13870538626E+02  0.13870538626E+02  0.00000000000E+00 0. -1.
        -13    1    1    2    0    0 -0.20486960810E+01  0.16314575079E+02  0.13830715237E+02  0.21486069897E+02  0.00000000000E+00 0.  1.
         13    1    1    2    0    0  0.20486960810E+01 -0.16314575079E+02 -0.33126449839E+01  0.16773077607E+02  0.00000000000E+00 0. -1.
<mgrwt>
<rscale>  0 0.36784950E+02</rscale>
<asrwt>0</asrwt>
<pdfrwt beam="2">  1        1 0.21339290E-02 0.36784950E+02</pdfrwt>
<pdfrwt beam="1">  1       -1 0.37520937E-02 0.36784950E+02</pdfrwt>
<totfact> 0.91503115E+05</totfact>
</mgrwt>
</event>
<event>
 4    1  0.2165211E+000  0.2340622E+02  0.7546771E-02  0.1685009E+00
          2   -1    0    0  501    0  0.00000000000E+00  0.00000000000E+00  0.48538013983E+02  0.48538013983E+02  0.00000000000E+00 0.  1.
         -2   -1    0    0    0  501 -0.00000000000E+00 -0.00000000000E+00 -0.28217627185E+01  0.28217627185E+01  0.00000000000E+00 0. -1.
        -11    1    1    2    0    0 -0.40900110351E+01  0.10936564305E+02  0.21121829192E+02  0.24134379989E+02  0.00000000000E+00 0. -1.
         11    1    1    2    0    0  0.40900110351E+01 -0.10936564305E+02  0.24594422073E+02  0.27225396712E+02  0.00000000000E+00 0.  1.
<mgrwt>
<rscale>  0 0.23406218E+02</rscale>
<asrwt>0</asrwt>
<pdfrwt beam="1">  1        2 0.74673862E-02 0.23406218E+02</pdfrwt>
<pdfrwt beam="2">  1       -2 0.43411738E-03 0.23406218E+02</pdfrwt>
<totfact> 0.32323791E+06</totfact>
</mgrwt>
</event>
<event>
 4    1  0.2165211E+000  0.7605669E+02  0.7546771E-02  0.1340630E+00
         -2   -1    0    0    0  501 -0.00000000000E+00  0.00000000000E+00  0.15608629028E+03  0.15608629028E+03  0.00000000000E+00 0.  1.
          2   -1    0    0  501    0  0.00000000000E+00 -0.00000000000E+00 -0.92650987127E+01  0.92650987127E+01  0.00000000000E+00 0. -1.
        -13    1    1    2    0    0  0.14492157117E+02 -0.23779932047E+02  0.17109418944E+02  0.32683941051E+02  0.00000000000E+00 0. -1.
         13    1    1    2    0    0 -0.14492157117E+02  0.23779932047E+02  0.12971177262E+03  0.13266744794E+03  0.00000000000E+00 0.  1.
<mgrwt>
<rscale>  0 0.76056686E+02</rscale>
<asrwt>0</asrwt>
<pdfrwt beam="2">  1        2 0.14253999E-02 0.76056686E+02</pdfrwt>
<pdfrwt beam="1">  1       -2 0.24013273E-01 0.76056686E+02</pdfrwt>
<totfact> 0.10889236E+05</totfact>
</mgrwt>
</event>
<event>
 4    1  0.2165211E+000  0.3311807E+02  0.7546771E-02  0.1565977E+00
         -2   -1    0    0    0  501 -0.00000000000E+00  0.00000000000E+00  0.64994369886E+02  0.64994369886E+02  0.00000000000E+00 0. -1.
          2   -1    0    0  501    0  0.00000000000E+00 -0.00000000000E+00 -0.42188523388E+01  0.42188523388E+01  0.00000000000E+00 0.  1.
        -11    1    1    2    0    0  0.69755716633E+01 -0.14725146684E+02  0.24218819391E+02  0.29189720067E+02  0.00000000000E+00 0.  1.
         11    1    1    2    0    0 -0.69755716633E+01  0.14725146684E+02  0.36556698156E+02  0.40023502158E+02  0.00000000000E+00 0. -1.
<mgrwt>
<rscale>  0 0.33118071E+02</rscale>
<asrwt>0</asrwt>
<pdfrwt beam="2">  1        2 0.64905425E-03 0.33118071E+02</pdfrwt>
<pdfrwt beam="1">  1       -2 0.99991331E-02 0.33118071E+02</pdfrwt>
<totfact> 0.10363217E+06</totfact>
</mgrwt>
</event>
<event>
 4    1  0.2165211E+000  0.2347611E+02  0.7546771E-02  0.1683907E+00
         -2   -1    0    0    0  501 -0.00000000000E+00  0.00000000000E+00  0.37803775118E+01  0.37803775118E+01  0.00000000000E+00 0.  1.
          2   -1    0    0  501    0  0.00000000000E+00 -0.00000000000E+00 -0.36446601461E+02  0.36446601461E+02  0.00000000000E+00 0. -1.
        -11    1    1    2    0    0  0.11399063595E+02 -0.21822845245E+01 -0.19340779550E+02  0.22555858889E+02  0.00000000000E+00 0. -1.
         11    1    1    2    0    0 -0.11399063595E+02  0.21822845245E+01 -0.13325444399E+02  0.17671120085E+02  0.00000000000E+00 0.  1.
<mgrwt>
<rscale>  0 0.23476108E+02</rscale>
<asrwt>0</asrwt>
<pdfrwt beam="2">  1        2 0.56071693E-02 0.23476108E+02</pdfrwt>
<pdfrwt beam="1">  1       -2 0.58159655E-03 0.23476108E+02</pdfrwt>
<totfact> 0.30839518E+06</totfact>
</mgrwt>
</event>
<event>
 4    1  0.2165211E+000  0.2657082E+02  0.7546771E-02  0.1639413E+00
         -1   -1    0    0    0  501 -0.00000000000E+00  0.00000000000E+00  0.55937355150E+01  0.55937355150E+01  0.00000000000E+00 0.  1.
          1   -1    0    0  501    0  0.00000000000E+00 -0.00000000000E+00 -0.31553521829E+02  0.31553521829E+02  0.00000000000E+00 0. -1.
        -11    1    1    2    0    0  0.35384370740E+00 -0.12498698150E+02 -0.19257015896E+02  0.22960298823E+02  0.00000000000E+00 0. -1.
         11    1    1    2    0    0 -0.35384370740E+00  0.12498698150E+02 -0.67027704176E+01  0.14186958521E+02  0.00000000000E+00 0.  1.
<mgrwt>
<rscale>  0 0.26570815E+02</rscale>
<asrwt>0</asrwt>
<pdfrwt beam="2">  1        1 0.48543881E-02 0.26570815E+02</pdfrwt>
<pdfrwt beam="1">  1       -1 0.86057468E-03 0.26570815E+02</pdfrwt>
<totfact> 0.21169493E+06</totfact>
</mgrwt>
</event>
<event>
 4    1  0.2165211E+000  0.4591845E+02  0.7546771E-02  0.1468688E+00
          1   -1    0    0  501    0  0.00000000000E+00  0.00000000000E+00  0.14685689615E+03  0.14685689615E+03  0.00000000000E+00 0. -1.
         -1   -1    0    0    0  501 -0.00000000000E+00 -0.00000000000E+00 -0.35893854205E+01  0.35893854205E+01  0.00000000000E+00 0.  1.
        -13    1    1    2    0    0  0.22076460262E+02  0.47333833126E+01  0.85281356805E+02  0.88219526375E+02  0.00000000000E+00 0. -1.
         13    1    1    2    0    0 -0.22076460262E+02 -0.47333833126E+01  0.57986153926E+02  0.62226755197E+02  0.00000000000E+00 0.  1.
<mgrwt>
<rscale>  0 0.45918450E+02</rscale>
<asrwt>0</asrwt>
<pdfrwt beam="1">  1        1 0.22593364E-01 0.45918450E+02</pdfrwt>
<pdfrwt beam="2">  1       -1 0.55221326E-03 0.45918450E+02</pdfrwt>
<totfact> 0.66066442E+05</totfact>
</mgrwt>
</event>
<event>
 4    1  0.2165211E+000  0.3438443E+02  0.7546771E-02  0.1554136E+00
          4   -1    0    0  501    0  0.00000000000E+00  0.00000000000E+00  0.51011282608E+01  0.51011282608E+01  0.00000000000E+00 0. -1.
         -4   -1    0    0    0  501 -0.00000000000E+00 -0.00000000000E+00 -0.57942534158E+02  0.57942534158E+02  0.00000000000E+00 0.  1.
        -13    1    1    2    0    0 -0.56730002385E+00  0.11350234107E+02 -0.27677265902E+01  0.11696578734E+02  0.00000000000E+00 0. -1.
         13    1    1    2    0    0  0.56730002385E+00 -0.11350234107E+02 -0.50073679307E+02  0.51347083685E+02  0.00000000000E+00 0.  1.
<mgrwt>
<rscale>  0 0.34384432E+02</rscale>
<asrwt>0</asrwt>
<pdfrwt beam="1">  1        4 0.78478901E-03 0.34384432E+02</pdfrwt>
<pdfrwt beam="2">  1       -4 0.89142355E-02 0.34384432E+02</pdfrwt>
<totfact> 0.33991568E+05</totfact>
</mgrwt>
</event>
<event>
 4    1  0.2165211E+000  0.2253612E+02  0.7546771E-02  0.1699142E+00
         -1   -1    0    0    0  501 -0.00000000000E+00  0.00000000000E+00  0.67971777649E+01  0.67971777649E+01  0.00000000000E+00 0.  1.
          1   -1    0    0  501    0  0.00000000000E+00 -0.00000000000E+00 -0.18679686856E+02  0.18679686856E+02  0.00000000000E+00 0. -1.
        -11    1    1    2    0    0  0.80644094669E+01  0.66497845375E+01 -0.11831364417E+01  0.10519227457E+02  0.00000000000E+00 0.  1.
         11    1    1    2    0    0 -0.80644094669E+01 -0.66497845375E+01 -0.10699372649E+02  0.14957637164E+02  0.00000000000E+00 0. -1.
<mgrwt>
<rscale>  0 0.22536118E+02</rscale>
<asrwt>0</asrwt>
<pdfrwt beam="2">  1        1 0.28737979E-02 0.22536118E+02</pdfrwt>
<pdfrwt beam="1">  1       -1 0.10457197E-02 0.22536118E+02</pdfrwt>
<totfact> 0.30188200E+06</totfact>
</mgrwt>
</event>
<event>
 4    1  0.2165211E+000  0.4601600E+02  0.7546771E-02  0.1468097E+00
         -2   -1    0    0    0  501 -0.00000000000E+00  0.00000000000E+00  0.75364629774E+01  0.75364629774E+01  0.00000000000E+00 0. -1.
          2   -1    0    0  501    0  0.00000000000E+00 -0.00000000000E+00 -0.70240903384E+02  0.70240903384E+02  0.00000000000E+00 0.  1.
        -13    1    1    2    0    0  0.51883790432E+01  0.10302497510E+02 -0.65000309608E+02  0.66015914605E+02  0.00000000000E+00 0.  1.
         13    1    1    2    0    0 -0.51883790432E+01 -0.10302497510E+02  0.22958692011E+01  0.11761451756E+02  0.00000000000E+00 0. -1.
<mgrwt>
<rscale>  0 0.46015996E+02</rscale>
<asrwt>0</asrwt>
<pdfrwt beam="2">  1        2 0.10806293E-01 0.46015996E+02</pdfrwt>
<pdfrwt beam="1">  1       -2 0.11594559E-02 0.46015996E+02</pdfrwt>
<totfact> 0.67892134E+05</totfact>
</mgrwt>
</event>
<event>
 4    1  0.2165211E+000  0.3575575E+02  0.7546771E-02  0.1541990E+00
          4   -1    0    0  501    0  0.00000000000E+00  0.00000000000E+00  0.34268536704E+01  0.34268536704E+01  0.00000000000E+00 0. -1.
         -4   -1    0    0    0  501 -0.00000000000E+00 -0.00000000000E+00 -0.93268757242E+02  0.93268757242E+02  0.00000000000E+00 0.  1.
        -11    1    1    2    0    0  0.91306757965E+01 -0.10998727898E+02 -0.73956662668E+02  0.75325488441E+02  0.00000000000E+00 0.  1.
         11    1    1    2    0    0 -0.91306757965E+01  0.10998727898E+02 -0.15885240904E+02  0.21370122472E+02  0.00000000000E+00 0. -1.
<mgrwt>
<rscale>  0 0.35755748E+02</rscale>
<asrwt>0</asrwt>
<pdfrwt beam="1">  1        4 0.52720828E-03 0.35755748E+02</pdfrwt>
<pdfrwt beam="2">  1       -4 0.14349039E-01 0.35755748E+02</pdfrwt>
<totfact> 0.28155886E+05</totfact>
</mgrwt>
</event>
<event>
 4    1  0.2165211E+000  0.2582885E+02  0.7546771E-02  0.1649374E+00
          2   -1    0    0  501    0  0.00000000000E+00  0.00000000000E+00  0.11609720799E+03  0.11609720799E+03  0.00000000000E+00 0.  1.
         -2   -1    0    0    0  501 -0.00000000000E+00 -0.00000000000E+00 -0.14365753146E+01  0.14365753146E+01  0.00000000000E+00 0. -1.
        -11    1    1    2    0    0 -0.12362811618E+02  0.26363856736E+01  0.45297108908E+02  0.47027839797E+02  0.00000000000E+00 0. -1.
         11    1    1    2    0    0  0.12362811618E+02 -0.26363856736E+01  0.69363523768E+02  0.70505943509E+02  0.00000000000E+00 0.  1.
<mgrwt>
<rscale>  0 0.25828851E+02</rscale>
<asrwt>0</asrwt>
<pdfrwt beam="1">  1        2 0.17861102E-01 0.25828851E+02</pdfrwt>
<pdfrwt beam="2">  1       -2 0.22101168E-03 0.25828851E+02</pdfrwt>
<totfact> 0.30724545E+06</totfact>
</mgrwt>
</event>
<event>
 4    1  0.2165211E+000  0.4938733E+02  0.7546771E-02  0.1448674E+00
          2   -1    0    0  501    0  0.00000000000E+00  0.00000000000E+00  0.47868565905E+02  0.47868565905E+02  0.00000000000E+00 0.  1.
         -2   -1    0    0    0  501 -0.00000000000E+00 -0.00000000000E+00 -0.12738571464E+02  0.12738571464E+02  0.00000000000E+00 0. -1.
        -13    1    1    2    0    0  0.14516884544E+02  0.65082541907E+00 -0.69360292734E+01  0.16101925744E+02  0.00000000000E+00 0. -1.
         13    1    1    2    0    0 -0.14516884544E+02 -0.65082541907E+00  0.42066023715E+02  0.44505211625E+02  0.00000000000E+00 0.  1.
<mgrwt>
<rscale>  0 0.49387332E+02</rscale>
<asrwt>0</asrwt>
<pdfrwt beam="1">  1        2 0.73643947E-02 0.49387332E+02</pdfrwt>
<pdfrwt beam="2">  1       -2 0.19597802E-02 0.49387332E+02</pdfrwt>
<totfact> 0.52519478E+05</totfact>
</mgrwt>
</event>
<event>
 4    1  0.2165211E+000  0.2383439E+02  0.7546771E-02  0.1678331E+00
          2   -1    0    0  501    0  0.00000000000E+00  0.00000000000E+00  0.42363261216E+02  0.42363261216E+02  0.00000000000E+00 0.  1.
         -2   -1    0    0    0  501 -0.00000000000E+00 -0.00000000000E+00 -0.33524226528E+01  0.33524226528E+01  0.00000000000E+00 0. -1.
        -11    1    1    2    0    0 -0.11519208320E+02  0.30353522585E+01  0.18857715799E+02  0.22305133239E+02  0.00000000000E+00 0.  1.
         11    1    1    2    0    0  0.11519208320E+02 -0.30353522585E+01  0.20153122765E+02  0.23410550630E+02  0.00000000000E+00 0. -1.
<mgrwt>
<rscale>  0 0.23834392E+02</rscale>
<asrwt>0</asrwt>
<pdfrwt beam="1">  1        2 0.65174244E-02 0.23834392E+02</pdfrwt>
<pdfrwt beam="2">  1       -2 0.51575736E-03 0.23834392E+02</pdfrwt>
<totfact> 0.30393214E+06</totfact>
</mgrwt>
</event>
<event>
 4    1  0.2165211E+000  0.2344816E+03  0.7546771E-02  0.1123525E+00
         -2   -1    0    0    0  501 -0.00000000000E+00  0.00000000000E+00  0.12863792243E+03  0.12863792243E+03  0.00000000000E+00 0.  1.
          2   -1    0    0  501    0  0.00000000000E+00 -0.00000000000E+00 -0.10685348128E+03  0.10685348128E+03  0.00000000000E+00 0. -1.
        -13    1    1    2    0    0  0.71417087337E+02 -0.32100215200E+02  0.98529594281E+02  0.12585271204E+03  0.00000000000E+00 0.  1.
         13    1    1    2    0    0 -0.71417087337E+02  0.32100215200E+02 -0.76745153137E+02  0.10963869166E+03  0.00000000000E+00 0. -1.
<mgrwt>
<rscale>  0 0.23448164E+03</rscale>
<asrwt>0</asrwt>
<pdfrwt beam="2">  1        2 0.16438997E-01 0.23448164E+03</pdfrwt>
<pdfrwt beam="1">  1       -2 0.19790450E-01 0.23448164E+03</pdfrwt>
<totfact> 0.73441288E+03</totfact>
</mgrwt>
</event>
<event>
 4    1  0.2165211E+000  0.9599817E+02  0.7546771E-02  0.1288944E+00
         -2   -1    0    0    0  501 -0.00000000000E+00  0.00000000000E+00  0.31181503687E+02  0.31181503687E+02  0.00000000000E+00 0.  1.
          2   -1    0    0  501    0  0.00000000000E+00 -0.00000000000E+00 -0.73887134252E+02  0.73887134252E+02  0.00000000000E+00 0. -1.
        -11    1    1    2    0    0  0.33384783391E+02  0.20558601047E+02  0.89530249577E+01  0.40216370982E+02  0.00000000000E+00 0.  1.
         11    1    1    2    0    0 -0.33384783391E+02 -0.20558601047E+02 -0.51658655523E+02  0.64852266957E+02  0.00000000000E+00 0. -1.
<mgrwt>
<rscale>  0 0.95998166E+02</rscale>
<asrwt>0</asrwt>
<pdfrwt beam="2">  1        2 0.11367251E-01 0.95998166E+02</pdfrwt>
<pdfrwt beam="1">  1       -2 0.47971544E-02 0.95998166E+02</pdfrwt>
<totfact> 0.97188515E+04</totfact>
</mgrwt>
</event>
<event>
 4    1  0.2165211E+000  0.3144940E+02  0.7546771E-02  0.1582599E+00
          2   -1    0    0  501    0  0.00000000000E+00  0.00000000000E+00  0.65127166379E+02  0.65127166379E+02  0.00000000000E+00 0.  1.
         -2   -1    0    0    0  501 -0.00000000000E+00 -0.00000000000E+00 -0.37966669395E+01  0.37966669395E+01  0.00000000000E+00 0. -1.
        -13    1    1    2    0    0 -0.99580846706E+01  0.26062833957E+01  0.46131022308E+01  0.11279932431E+02  0.00000000000E+00 0. -1.
         13    1    1    2    0    0  0.99580846706E+01 -0.26062833957E+01  0.56717397209E+02  0.57643900888E+02  0.00000000000E+00 0.  1.
<mgrwt>
<rscale>  0 0.31449398E+02</rscale>
<asrwt>0</asrwt>
<pdfrwt beam="1">  1        2 0.10019563E-01 0.31449398E+02</pdfrwt>
<pdfrwt beam="2">  1       -2 0.58410266E-03 0.31449398E+02</pdfrwt>
<totfact> 0.17026732E+06</totfact>
</mgrwt>
</event>
<event>
 4    1  0.2165211E+000  0.2280415E+02  0.7546771E-02  0.1694705E+00
         -4   -1    0    0    0  501 -0.00000000000E+00  0.00000000000E+00  0.16727343292E+01  0.16727343292E+01  0.00000000000E+00 0.  1.
          4   -1    0    0  501    0  0.00000000000E+00 -0.00000000000E+00 -0.77721433418E+02  0.77721433418E+02  0.00000000000E+00 0. -1.
        -13    1    1    2    0    0  0.67686537191E+01  0.87016227717E+01 -0.27889223799E+02  0.29989026595E+02  0.00000000000E+00 0.  1.
         13    1    1    2    0    0 -0.67686537191E+01 -0.87016227717E+01 -0.48159475289E+02  0.49405141151E+02  0.00000000000E+00 0. -1.
<mgrwt>
<rscale>  0 0.22804150E+02</rscale>
<asrwt>0</asrwt>
<pdfrwt beam="2">  1        4 0.11957142E-01 0.22804150E+02</pdfrwt>
<pdfrwt beam="1">  1       -4 0.25734377E-03 0.22804150E+02</pdfrwt>
<totfact> 0.79737658E+05</totfact>
</mgrwt>
</event>
<event>
 4    1  0.2165211E+000  0.2974682E+02  0.7546771E-02  0.1600904E+00
         -2   -1    0    0    0  501 -0.00000000000E+00  0.00000000000E+00  0.64528400149E+01  0.64528400149E+01  0.00000000000E+00 0.  1.
          2   -1    0    0  501    0  0.00000000000E+00 -0.00000000000E+00 -0.34282323027E+02  0.34282323027E+02  0.00000000000E+00 0. -1.
        -13    1    1    2    0    0 -0.10285940270E+02  0.80765705413E+01 -0.23615899750E+02  0.26995226984E+02  0.00000000000E+00 0. -1.
         13    1    1    2    0    0  0.10285940270E+02 -0.80765705413E+01 -0.42135832625E+01  0.13739936058E+02  0.00000000000E+00 0.  1.
<mgrwt>
<rscale>  0 0.29746821E+02</rscale>
<asrwt>0</asrwt>
<pdfrwt beam="2">  1        2 0.52742035E-02 0.29746821E+02</pdfrwt>
<pdfrwt beam="1">  1       -2 0.99274462E-03 0.29746821E+02</pdfrwt>
<totfact> 0.17550950E+06</totfact>
</mgrwt>
</event>
<event>
 4    1  0.2165211E+000  0.9158229E+02  0.7546771E-02  0.1299065E+00
         -2   -1    0    0    0  501 -0.00000000000E+00  0.00000000000E+00  0.11918139781E+02  0.11918139781E+02  0.00000000000E+00 0.  1.
          2   -1    0    0  501    0  0.00000000000E+00 -0.00000000000E+00 -0.17593594166E+03  0.17593594166E+03  0.00000000000E+00 0. -1.
        -13    1    1    2    0    0  0.28142651881E+02 -0.15065966850E+02 -0.14666957156E+02  0.35129928042E+02  0.00000000000E+00 0.  1.
         13    1    1    2    0    0 -0.28142651881E+02  0.15065966850E+02 -0.14935084473E+03  0.15272415340E+03  0.00000000000E+00 0. -1.
<mgrwt>
<rscale>  0 0.91582294E+02</rscale>
<asrwt>0</asrwt>
<pdfrwt beam="2">  1        2 0.27067066E-01 0.91582294E+02</pdfrwt>
<pdfrwt beam="1">  1       -2 0.18335601E-02 0.91582294E+02</pdfrwt>
<totfact> 0.14598489E+05</totfact>
</mgrwt>
</event>
<event>
 4    1  0.2165211E+000  0.3374065E+02  0.7546771E-02  0.1560077E+00
          2   -1    0    0  501    0  0.00000000000E+00  0.00000000000E+00  0.66666158072E+02  0.66666158072E+02  0.00000000000E+00 0. -1.
         -2   -1    0    0    0  501 -0.00000000000E+00 -0.00000000000E+00 -0.42691517962E+01  0.42691517962E+01  0.00000000000E+00 0.  1.
        -13    1    1    2    0    0 -0.61758116378E+01 -0.12412226742E+02  0.51407938272E+02  0.53244531546E+02  0.00000000000E+00 0. -1.
         13    1    1    2    0    0  0.61758116378E+01  0.12412226742E+02  0.10989068003E+02  0.17690778323E+02  0.00000000000E+00 0.  1.
<mgrwt>
<rscale>  0 0.33740655E+02</rscale>
<asrwt>0</asrwt>
<pdfrwt beam="1">  1        2 0.10256331E-01 0.33740655E+02</pdfrwt>
<pdfrwt beam="2">  1       -2 0.65679263E-03 0.33740655E+02</pdfrwt>
<totfact> 0.14445710E+06</totfact>
</mgrwt>
</event>
<event>
 4    1  0.2165211E+000  0.3540045E+02  0.7546771E-02  0.1545073E+00
         -2   -1    0    0    0  501 -0.00000000000E+00  0.00000000000E+00  0.45834352792E+02  0.45834352792E+02  0.00000000000E+00 0.  1.
          2   -1    0    0  501    0  0.00000000000E+00 -0.00000000000E+00 -0.68354411718E+01  0.68354411718E+01  0.00000000000E+00 0. -1.
        -11    1    1    2    0    0  0.13289799225E+02  0.33152108938E+01  0.28192731237E+01  0.13984194208E+02  0.00000000000E+00 0. -1.
         11    1    1    2    0    0 -0.13289799225E+02 -0.33152108938E+01  0.36179638497E+02  0.38685599756E+02  0.00000000000E+00 0.  1.
<mgrwt>
<rscale>  0 0.35400453E+02</rscale>
<asrwt>0</asrwt>
<pdfrwt beam="2">  1        2 0.10516064E-02 0.35400453E+02</pdfrwt>
<pdfrwt beam="1">  1       -2 0.70514387E-02 0.35400453E+02</pdfrwt>
<totfact> 0.93838515E+05</totfact>
</mgrwt>
</event>
<event>
 4    1  0.2165211E+000  0.3994449E+02  0.7546771E-02  0.1508620E+00
         -3   -1    0    0    0  501 -0.00000000000E+00  0.00000000000E+00  0.10030552605E+02  0.10030552605E+02  0.00000000000E+00 0.  1.
          3   -1    0    0  501    0  0.00000000000E+00 -0.00000000000E+00 -0.39767556818E+02  0.39767556818E+02  0.00000000000E+00 0. -1.
        -13    1    1    2    0    0 -0.10751562486E+02 -0.79263688127E+01 -0.33379418555E+02  0.35952871950E+02  0.00000000000E+00 0. -1.
         13    1    1    2    0    0  0.10751562486E+02  0.79263688127E+01  0.36424143423E+01  0.13845237473E+02  0.00000000000E+00 0.  1.
<mgrwt>
<rscale>  0 0.39944490E+02</rscale>
<asrwt>0</asrwt>
<pdfrwt beam="2">  1        3 0.61180855E-02 0.39944490E+02</pdfrwt>
<pdfrwt beam="1">  1       -3 0.15431620E-02 0.39944490E+02</pdfrwt>
<totfact> 0.33033361E+05</totfact>
</mgrwt>
</event>
<event>
 4    1  0.2165211E+000  0.4472938E+02  0.7546771E-02  0.1476038E+00
         -2   -1    0    0    0  501 -0.00000000000E+00  0.00000000000E+00  0.14455722390E+02  0.14455722390E+02  0.00000000000E+00 0.  1.
          2   -1    0    0  501    0  0.00000000000E+00 -0.00000000000E+00 -0.34600791342E+02  0.34600791342E+02  0.00000000000E+00 0. -1.
        -11    1    1    2    0    0  0.16612555901E+02 -0.14927993160E+02 -0.87947305516E+01  0.24003526383E+02  0.00000000000E+00 0.  1.
         11    1    1    2    0    0 -0.16612555901E+02  0.14927993160E+02 -0.11350338400E+02  0.25052987350E+02  0.00000000000E+00 0. -1.
<mgrwt>
<rscale>  0 0.44729383E+02</rscale>
<asrwt>0</asrwt>
<pdfrwt beam="2">  1        2 0.53231986E-02 0.44729383E+02</pdfrwt>
<pdfrwt beam="1">  1       -2 0.22239573E-02 0.44729383E+02</pdfrwt>
<totfact> 0.64052571E+05</totfact>
</mgrwt>
</event>
<event>
 4    1  0.2165211E+000  0.5265948E+02  0.7546771E-02  0.1431503E+00
          2   -1    0    0  501    0  0.00000000000E+00  0.00000000000E+00  0.95675125647E+01  0.95675125647E+01  0.00000000000E+00 0. -1.
         -2   -1    0    0    0  501 -0.00000000000E+00 -0.00000000000E+00 -0.72459299792E+02  0.72459299792E+02  0.00000000000E+00 0.  1.
        -11    1    1    2    0    0 -0.44790602198E+01 -0.14330982507E+02  0.22453382311E+01  0.15181587000E+02  0.00000000000E+00 0. -1.
         11    1    1    2    0    0  0.44790602198E+01  0.14330982507E+02 -0.65137125459E+02  0.66845225357E+02  0.00000000000E+00 0.  1.
<mgrwt>
<rscale>  0 0.52659482E+02</rscale>
<asrwt>0</asrwt>
<pdfrwt beam="1">  1        2 0.14719250E-02 0.52659482E+02</pdfrwt>
<pdfrwt beam="2">  1       -2 0.11147584E-01 0.52659482E+02</pdfrwt>
<totfact> 0.33506602E+05</totfact>
</mgrwt>
</event>
<event>
 4    1  0.2165211E+000  0.4584429E+02  0.7546771E-02  0.1469139E+00
         -4   -1    0    0    0  501 -0.00000000000E+00  0.00000000000E+00  0.84270314698E+02  0.84270314698E+02  0.00000000000E+00 0.  1.
          4   -1    0    0  501    0  0.00000000000E+00 -0.00000000000E+00 -0.62349924893E+01  0.62349924893E+01  0.00000000000E+00 0. -1.
        -13    1    1    2    0    0 -0.20693049829E+02  0.59887060209E+01  0.23553587544E+02  0.31919248068E+02  0.00000000000E+00 0.  1.
         13    1    1    2    0    0  0.20693049829E+02 -0.59887060209E+01  0.54481734664E+02  0.58586059119E+02  0.00000000000E+00 0. -1.
<mgrwt>
<rscale>  0 0.45844292E+02</rscale>
<asrwt>0</asrwt>
<pdfrwt beam="2">  1        4 0.95922967E-03 0.45844292E+02</pdfrwt>
<pdfrwt beam="1">  1       -4 0.12964663E-01 0.45844292E+02</pdfrwt>
<totfact> 0.15876727E+05</totfact>
</mgrwt>
</event>
<event>
 4    1  0.2165211E+000  0.2057555E+02  0.7546771E-02  0.1734119E+00
         -2   -1    0    0    0  501 -0.00000000000E+00  0.00000000000E+00  0.15872299225E+02  0.15872299225E+02  0.00000000000E+00 0. -1.
          2   -1    0    0  501    0  0.00000000000E+00 -0.00000000000E+00 -0.66681131820E+01  0.66681131820E+01  0.00000000000E+00 0.  1.
        -11    1    1    2    0    0 -0.47319566751E+00  0.10247762458E+02  0.54490589658E+01  0.11616057556E+02  0.00000000000E+00 0.  1.
         11    1    1    2    0    0  0.47319566751E+00 -0.10247762458E+02  0.37551270776E+01  0.10924354851E+02  0.00000000000E+00 0. -1.
<mgrwt>
<rscale>  0 0.20575547E+02</rscale>
<asrwt>0</asrwt>
<pdfrwt beam="2">  1        2 0.10258636E-02 0.20575547E+02</pdfrwt>
<pdfrwt beam="1">  1       -2 0.24418922E-02 0.20575547E+02</pdfrwt>
<totfact> 0.35857495E+06</totfact>
</mgrwt>
</event>
<event>
 4    1  0.2165211E+000  0.2242522E+02  0.7546771E-02  0.1701000E+00
         -2   -1    0    0    0  501 -0.00000000000E+00  0.00000000000E+00  0.20724893613E+02  0.20724893613E+02  0.00000000000E+00 0. -1.
          2   -1    0    0  501    0  0.00000000000E+00 -0.00000000000E+00 -0.60662603766E+01  0.60662603766E+01  0.00000000000E+00 0.  1.
        -11    1    1    2    0    0 -0.11136772284E+02  0.47661903674E+00  0.58819482927E+01  0.12603657339E+02  0.00000000000E+00 0.  1.
         11    1    1    2    0    0  0.11136772284E+02 -0.47661903674E+00  0.87766849438E+01  0.14187496651E+02  0.00000000000E+00 0. -1.
<mgrwt>
<rscale>  0 0.22425218E+02</rscale>
<asrwt>0</asrwt>
<pdfrwt beam="2">  1        2 0.93327084E-03 0.22425218E+02</pdfrwt>
<pdfrwt beam="1">  1       -2 0.31884451E-02 0.22425218E+02</pdfrwt>
<totfact> 0.29047325E+06</totfact>
</mgrwt>
</event>
<event>
 4    1  0.2165211E+000  0.3771290E+02  0.7546771E-02  0.1525750E+00
         -3   -1    0    0    0  501 -0.00000000000E+00  0.00000000000E+00  0.28400318774E+01  0.28400318774E+01  0.00000000000E+00 0. -1.
          3   -1    0    0  501    0  0.00000000000E+00 -0.00000000000E+00 -0.12519777801E+03  0.12519777801E+03  0.00000000000E+00 0.  1.
        -13    1    1    2    0    0  0.97215389404E+01  0.14107614690E+02 -0.87918676267E+02  0.89572466463E+02  0.00000000000E+00 0.  1.
         13    1    1    2    0    0 -0.97215389404E+01 -0.14107614690E+02 -0.34439069870E+02  0.38465343429E+02  0.00000000000E+00 0. -1.
<mgrwt>
<rscale>  0 0.37712899E+02</rscale>
<asrwt>0</asrwt>
<pdfrwt beam="2">  1        3 0.19261197E-01 0.37712899E+02</pdfrwt>
<pdfrwt beam="1">  1       -3 0.43692797E-03 0.37712899E+02</pdfrwt>
<totfact> 0.31314310E+05</totfact>
</mgrwt>
</event>
<event>
 4    1  0.2165211E+000  0.3341342E+02  0.7546771E-02  0.1563159E+00
          2   -1    0    0  501    0  0.00000000000E+00  0.00000000000E+00  0.55392560115E+01  0.55392560115E+01  0.00000000000E+00 0. -1.
         -2   -1    0    0    0  501 -0.00000000000E+00 -0.00000000000E+00 -0.50388378690E+02  0.50388378690E+02  0.00000000000E+00 0.  1.
        -13    1    1    2    0    0  0.98372327488E+01 -0.12791982866E+02 -0.29664269076E+02  0.33769436383E+02  0.00000000000E+00 0.  1.
         13    1    1    2    0    0 -0.98372327488E+01  0.12791982866E+02 -0.15184853602E+02  0.22158198318E+02  0.00000000000E+00 0. -1.
<mgrwt>
<rscale>  0 0.33413418E+02</rscale>
<asrwt>0</asrwt>
<pdfrwt beam="1">  1        2 0.85219323E-03 0.33413418E+02</pdfrwt>
<pdfrwt beam="2">  1       -2 0.77520583E-02 0.33413418E+02</pdfrwt>
<totfact> 0.10587604E+06</totfact>
</mgrwt>
</event>
<event>
 4    1  0.2165211E+000  0.3540610E+02  0.7546771E-02  0.1545024E+00
          2   -1    0    0  501    0  0.00000000000E+00  0.00000000000E+00  0.27756521362E+01  0.27756521362E+01  0.00000000000E+00 0. -1.
         -2   -1    0    0    0  501 -0.00000000000E+00 -0.00000000000E+00 -0.11290968044E+03  0.11290968044E+03  0.00000000000E+00 0.  1.
        -11    1    1    2    0    0  0.13712474472E+02 -0.10990949970E+02 -0.48085922146E+02  0.51196570648E+02  0.00000000000E+00 0. -1.
         11    1    1    2    0    0 -0.13712474472E+02  0.10990949970E+02 -0.62048106161E+02  0.64488761932E+02  0.00000000000E+00 0.  1.
<mgrwt>
<rscale>  0 0.35406101E+02</rscale>
<asrwt>0</asrwt>
<pdfrwt beam="1">  1        2 0.42702336E-03 0.35406101E+02</pdfrwt>
<pdfrwt beam="2">  1       -2 0.17370722E-01 0.35406101E+02</pdfrwt>
<totfact> 0.78467276E+05</totfact>
</mgrwt>
</event>
<event>
 4    1  0.2165211E+000  0.2701317E+02  0.7546771E-02  0.1633663E+00
          2   -1    0    0  501    0  0.00000000000E+00  0.00000000000E+00  0.53436748390E+01  0.53436748390E+01  0.00000000000E+00 0.  1.
         -2   -1    0    0    0  501 -0.00000000000E+00 -0.00000000000E+00 -0.34139010780E+02  0.34139010780E+02  0.00000000000E+00 0. -1.
        -13    1    1    2    0    0 -0.52764798181E+01 -0.11653968712E+02 -0.20730256114E+02  0.24359797712E+02  0.00000000000E+00 0. -1.
         13    1    1    2    0    0  0.52764798181E+01  0.11653968712E+02 -0.80650798263E+01  0.15122887906E+02  0.00000000000E+00 0.  1.
<mgrwt>
<rscale>  0 0.27013165E+02</rscale>
<asrwt>0</asrwt>
<pdfrwt beam="1">  1        2 0.82210384E-03 0.27013165E+02</pdfrwt>
<pdfrwt beam="2">  1       -2 0.52521554E-02 0.27013165E+02</pdfrwt>
<totfact> 0.18201984E+06</totfact>
</mgrwt>
</event>
<event>
 4    1  0.2165211E+000  0.2774055E+02  0.7546771E-02  0.1624497E+00
         -4   -1    0    0    0  501 -0.00000000000E+00  0.00000000000E+00  0.17237028965E+02  0.17237028965E+02  0.00000000000E+00 0.  1.
          4   -1    0    0  501    0  0.00000000000E+00 -0.00000000000E+00 -0.11161116698E+02  0.11161116698E+02  0.00000000000E+00 0. -1.
        -13    1    1    2    0    0 -0.98613874449E+01  0.47793190453E+01  0.11742199130E+02  0.16061385161E+02  0.00000000000E+00 0.  1.
         13    1    1    2    0    0  0.98613874449E+01 -0.47793190453E+01 -0.56662868635E+01  0.12336760502E+02  0.00000000000E+00 0. -1.
<mgrwt>
<rscale>  0 0.27740547E+02</rscale>
<asrwt>0</asrwt>
<pdfrwt beam="2">  1        4 0.17170949E-02 0.27740547E+02</pdfrwt>
<pdfrwt beam="1">  1       -4 0.26518506E-02 0.27740547E+02</pdfrwt>
<totfact> 0.62400629E+05</totfact>
</mgrwt>
</event>
<event>
 4    1  0.2165211E+000  0.2616524E+02  0.7546771E-02  0.1644808E+00
         -2   -1    0    0    0  501 -0.00000000000E+00  0.00000000000E+00  0.47289174466E+01  0.47289174466E+01  0.00000000000E+00 0.  1.
          2   -1    0    0  501    0  0.00000000000E+00 -0.00000000000E+00 -0.36193253803E+02  0.36193253803E+02  0.00000000000E+00 0. -1.
        -13    1    1    2    0    0 -0.96364488994E+01  0.76914405206E+01 -0.88906268808E+01  0.15200745081E+02  0.00000000000E+00 0. -1.
         13    1    1    2    0    0  0.96364488994E+01 -0.76914405206E+01 -0.22573709476E+02  0.25721426169E+02  0.00000000000E+00 0.  1.
<mgrwt>
<rscale>  0 0.26165237E+02</rscale>
<asrwt>0</asrwt>
<pdfrwt beam="2">  1        2 0.55681928E-02 0.26165237E+02</pdfrwt>
<pdfrwt beam="1">  1       -2 0.72752577E-03 0.26165237E+02</pdfrwt>
<totfact> 0.23951713E+06</totfact>
</mgrwt>
</event>
<event>
 4    1  0.2165211E+000  0.2328251E+02  0.7546771E-02  0.1686971E+00
         -4   -1    0    0    0  501 -0.00000000000E+00  0.00000000000E+00  0.20397811462E+01  0.20397811462E+01  0.00000000000E+00 0.  1.
          4   -1    0    0  501    0  0.00000000000E+00 -0.00000000000E+00 -0.66437913088E+02  0.66437913088E+02  0.00000000000E+00 0. -1.
        -13    1    1    2    0    0  0.63796915661E+01 -0.87166783745E+01 -0.19433646416E+02  0.22233928114E+02  0.00000000000E+00 0.  1.
         13    1    1    2    0    0 -0.63796915661E+01  0.87166783745E+01 -0.44964485526E+02  0.46243766120E+02  0.00000000000E+00 0. -1.
<mgrwt>
<rscale>  0 0.23282509E+02</rscale>
<asrwt>0</asrwt>
<pdfrwt beam="2">  1        4 0.10221215E-01 0.23282509E+02</pdfrwt>
<pdfrwt beam="1">  1       -4 0.31381254E-03 0.23282509E+02</pdfrwt>
<totfact> 0.79028851E+05</totfact>
</mgrwt>
</event>
<event>
 4    1  0.2165211E+000  0.3614433E+02  0.7546771E-02  0.1538667E+00
         -1   -1    0    0    0  501 -0.00000000000E+00  0.00000000000E+00  0.63610449110E+02  0.63610449110E+02  0.00000000000E+00 0.  1.
          1   -1    0    0  501    0  0.00000000000E+00 -0.00000000000E+00 -0.51344253326E+01  0.51344253326E+01  0.00000000000E+00 0. -1.
        -13    1    1    2    0    0 -0.25605459777E+01 -0.14682425033E+02  0.97977362820E+01  0.17836076833E+02  0.00000000000E+00 0. -1.
         13    1    1    2    0    0  0.25605459777E+01  0.14682425033E+02  0.48678287496E+02  0.50908797610E+02  0.00000000000E+00 0.  1.
<mgrwt>
<rscale>  0 0.36144327E+02</rscale>
<asrwt>0</asrwt>
<pdfrwt beam="2">  1        1 0.78991163E-03 0.36144327E+02</pdfrwt>
<pdfrwt beam="1">  1       -1 0.97862224E-02 0.36144327E+02</pdfrwt>
<totfact> 0.87334359E+05</totfact>
</mgrwt>
</event>
<event>
 4    1  0.2165211E+000  0.8195819E+02  0.7546771E-02  0.1323584E+00
          2   -1    0    0  501    0  0.00000000000E+00  0.00000000000E+00  0.38337080220E+02  0.38337080220E+02  0.00000000000E+00 0. -1.
         -2   -1    0    0    0  501 -0.00000000000E+00 -0.00000000000E+00 -0.43803184714E+02  0.43803184714E+02  0.00000000000E+00 0.  1.
        -11    1    1    2    0    0 -0.63019991679E+01  0.16813977509E+02  0.34184376971E+02  0.38613425930E+02  0.00000000000E+00 0. -1.
         11    1    1    2    0    0  0.63019991679E+01 -0.16813977509E+02 -0.39650481466E+02  0.43526839003E+02  0.00000000000E+00 0.  1.
<mgrwt>
<rscale>  0 0.81958189E+02</rscale>
<asrwt>0</asrwt>
<pdfrwt beam="1">  1        2 0.58980124E-02 0.81958189E+02</pdfrwt>
<pdfrwt beam="2">  1       -2 0.67389514E-02 0.81958189E+02</pdfrwt>
<totfact> 0.12812253E+05</totfact>
</mgrwt>
</event>
<event>
 4    1  0.2165211E+000  0.2814942E+02  0.7546771E-02  0.1619494E+00
         -2   -1    0    0    0  501 -0.00000000000E+00  0.00000000000E+00  0.98702230548E+01  0.98702230548E+01  0.00000000000E+00 0.  1.
          2   -1    0    0  501    0  0.00000000000E+00 -0.00000000000E+00 -0.20070212257E+02  0.20070212257E+02  0.00000000000E+00 0. -1.
        -13    1    1    2    0    0  0.47375802600E+00  0.13434603330E+02 -0.66524369235E+00  0.13459404239E+02  0.00000000000E+00 0.  1.
         13    1    1    2    0    0 -0.47375802600E+00 -0.13434603330E+02 -0.95347455095E+01  0.16481031073E+02  0.00000000000E+00 0. -1.
<mgrwt>
<rscale>  0 0.28149421E+02</rscale>
<asrwt>0</asrwt>
<pdfrwt beam="2">  1        2 0.30877249E-02 0.28149421E+02</pdfrwt>
<pdfrwt beam="1">  1       -2 0.15184959E-02 0.28149421E+02</pdfrwt>
<totfact> 0.18818198E+06</totfact>
</mgrwt>
</event>
<event>
 4    1  0.2165211E+000  0.2911836E+02  0.7546771E-02  0.1608044E+00
         -3   -1    0    0    0  501 -0.00000000000E+00  0.00000000000E+00  0.11417024709E+03  0.11417024709E+03  0.00000000000E+00 0.  1.
          3   -1    0    0  501    0  0.00000000000E+00 -0.00000000000E+00 -0.18566103694E+01  0.18566103694E+01  0.00000000000E+00 0. -1.
        -13    1    1    2    0    0  0.12189557605E+02  0.75832640961E+01  0.46495791226E+02  0.48661584547E+02  0.00000000000E+00 0. -1.
         13    1    1    2    0    0 -0.12189557605E+02 -0.75832640961E+01  0.65817845497E+02  0.67365272914E+02  0.00000000000E+00 0.  1.
<mgrwt>
<rscale>  0 0.29118356E+02</rscale>
<asrwt>0</asrwt>
<pdfrwt beam="2">  1        3 0.28563245E-03 0.29118356E+02</pdfrwt>
<pdfrwt beam="1">  1       -3 0.17564648E-01 0.29118356E+02</pdfrwt>
<totfact> 0.59133064E+05</totfact>
</mgrwt>
</event>
<event>
 4    1  0.2165211E+000  0.5695675E+02  0.7546771E-02  0.1411066E+00
          2   -1    0    0  501    0  0.00000000000E+00  0.00000000000E+00  0.73683397553E+02  0.73683397553E+02  0.00000000000E+00 0. -1.
         -2   -1    0    0    0  501 -0.00000000000E+00 -0.00000000000E+00 -0.11006791259E+02  0.11006791259E+02  0.00000000000E+00 0.  1.
        -11    1    1    2    0    0 -0.19574162041E+02  0.13492239803E+02  0.54651661992E+02  0.59598594891E+02  0.00000000000E+00 0. -1.
         11    1    1    2    0    0  0.19574162041E+02 -0.13492239803E+02  0.80249443019E+01  0.25091593922E+02  0.00000000000E+00 0.  1.
<mgrwt>
<rscale>  0 0.56956748E+02</rscale>
<asrwt>0</asrwt>
<pdfrwt beam="1">  1        2 0.11335907E-01 0.56956748E+02</pdfrwt>
<pdfrwt beam="2">  1       -2 0.16933525E-02 0.56956748E+02</pdfrwt>
<totfact> 0.39761811E+05</totfact>
</mgrwt>
</event>
<event>
 4    1  0.2165211E+000  0.3430779E+02  0.7546771E-02  0.1554835E+00
         -2   -1    0    0    0  501 -0.00000000000E+00  0.00000000000E+00  0.12283633347E+02  0.12283633347E+02  0.00000000000E+00 0.  1.
          2   -1    0    0  501    0  0.00000000000E+00 -0.00000000000E+00 -0.23955129930E+02  0.23955129930E+02  0.00000000000E+00 0. -1.
        -13    1    1    2    0    0  0.91023658952E+01 -0.11516876321E+02  0.35387065510E+01  0.15100130766E+02  0.00000000000E+00 0.  1.
         13    1    1    2    0    0 -0.91023658952E+01  0.11516876321E+02 -0.15210203134E+02  0.21138632512E+02  0.00000000000E+00 0. -1.
<mgrwt>
<rscale>  0 0.34307785E+02</rscale>
<asrwt>0</asrwt>
<pdfrwt beam="2">  1        2 0.36854046E-02 0.34307785E+02</pdfrwt>
<pdfrwt beam="1">  1       -2 0.18897898E-02 0.34307785E+02</pdfrwt>
<totfact> 0.11857866E+06</totfact>
</mgrwt>
</event>
<event>
 4    1  0.2165211E+000  0.2650216E+02  0.7546771E-02  0.1640318E+00
         -2   -1    0    0    0  501 -0.00000000000E+00  0.00000000000E+00  0.26186389270E+02  0.26186389270E+02  0.00000000000E+00 0. -1.
          2   -1    0    0  501    0  0.00000000000E+00 -0.00000000000E+00 -0.67054342752E+01  0.67054342752E+01  0.00000000000E+00 0.  1.
        -13    1    1    2    0    0  0.95562699896E+01  0.89963663689E+01  0.74742523799E+01  0.15103686722E+02  0.00000000000E+00 0. -1.
         13    1    1    2    0    0 -0.95562699896E+01 -0.89963663689E+01  0.12006702615E+02  0.17788136823E+02  0.00000000000E+00 0.  1.
<mgrwt>
<rscale>  0 0.26502159E+02</rscale>
<asrwt>0</asrwt>
<pdfrwt beam="2">  1        2 0.10316053E-02 0.26502159E+02</pdfrwt>
<pdfrwt beam="1">  1       -2 0.40286752E-02 0.26502159E+02</pdfrwt>
<totfact> 0.19569339E+06</totfact>
</mgrwt>
</event>
<event>
 4    1  0.2165211E+000  0.3140771E+02  0.7546771E-02  0.1583030E+00
          4   -1    0    0  501    0  0.00000000000E+00  0.00000000000E+00  0.62494188091E+02  0.62494188091E+02  0.00000000000E+00 0. -1.
         -4   -1    0    0    0  501 -0.00000000000E+00 -0.00000000000E+00 -0.39461430713E+01  0.39461430713E+01  0.00000000000E+00 0.  1.
        -13    1    1    2    0    0  0.76751502810E+01  0.65503351739E+01  0.54729082411E+02  0.55651480522E+02  0.00000000000E+00 0. -1.
         13    1    1    2    0    0 -0.76751502810E+01 -0.65503351739E+01  0.38189626081E+01  0.10788850640E+02  0.00000000000E+00 0.  1.
<mgrwt>
<rscale>  0 0.31407707E+02</rscale>
<asrwt>0</asrwt>
<pdfrwt beam="1">  1        4 0.96144897E-02 0.31407707E+02</pdfrwt>
<pdfrwt beam="2">  1       -4 0.60709898E-03 0.31407707E+02</pdfrwt>
<totfact> 0.41363371E+05</totfact>
</mgrwt>
</event>
<event>
 4    1  0.2165211E+000  0.3234488E+02  0.7546771E-02  0.1573527E+00
         -3   -1    0    0    0  501 -0.00000000000E+00  0.00000000000E+00  0.32888004624E+02  0.32888004624E+02  0.00000000000E+00 0. -1.
          3   -1    0    0  501    0  0.00000000000E+00 -0.00000000000E+00 -0.79526801855E+01  0.79526801855E+01  0.00000000000E+00 0.  1.
        -13    1    1    2    0    0  0.11176402205E+02  0.74948398493E+01  0.11414126341E+01  0.13505088427E+02  0.00000000000E+00 0.  1.
         13    1    1    2    0    0 -0.11176402205E+02 -0.74948398493E+01  0.23793911804E+02  0.27335596382E+02  0.00000000000E+00 0. -1.
<mgrwt>
<rscale>  0 0.32344878E+02</rscale>
<asrwt>0</asrwt>
<pdfrwt beam="2">  1        3 0.12234893E-02 0.32344878E+02</pdfrwt>
<pdfrwt beam="1">  1       -3 0.50596929E-02 0.32344878E+02</pdfrwt>
<totfact> 0.56269027E+05</totfact>
</mgrwt>
</event>
<event>
 4    1  0.2165211E+000  0.5667959E+02  0.7546771E-02  0.1412319E+00
          2   -1    0    0  501    0  0.00000000000E+00  0.00000000000E+00  0.70483313905E+02  0.70483313905E+02  0.00000000000E+00 0.  1.
         -2   -1    0    0    0  501 -0.00000000000E+00 -0.00000000000E+00 -0.11394809004E+02  0.11394809004E+02  0.00000000000E+00 0. -1.
        -11    1    1    2    0    0  0.23421527230E+02 -0.13680290159E+02  0.17682368131E+02  0.32378764945E+02  0.00000000000E+00 0. -1.
         11    1    1    2    0    0 -0.23421527230E+02  0.13680290159E+02  0.41406136770E+02  0.49499357964E+02  0.00000000000E+00 0.  1.
<mgrwt>
<rscale>  0 0.56679587E+02</rscale>
<asrwt>0</asrwt>
<pdfrwt beam="1">  1        2 0.10843586E-01 0.56679587E+02</pdfrwt>
<pdfrwt beam="2">  1       -2 0.17530476E-02 0.56679587E+02</pdfrwt>
<totfact> 0.39856163E+05</totfact>
</mgrwt>
</event>
<event>
 4    1  0.2165211E+000  0.2549445E+02  0.7546771E-02  0.1654000E+00
         -4   -1    0    0    0  501 -0.00000000000E+00  0.00000000000E+00  0.25636871927E+01  0.25636871927E+01  0.00000000000E+00 0. -1.
          4   -1    0    0  501    0  0.00000000000E+00 -0.00000000000E+00 -0.63382066310E+02  0.63382066310E+02  0.00000000000E+00 0.  1.
        -11    1    1    2    0    0 -0.55939302917E+01 -0.86507558137E+01 -0.10989483913E+02  0.15063080327E+02  0.00000000000E+00 0.  1.
         11    1    1    2    0    0  0.55939302917E+01  0.86507558137E+01 -0.49828895204E+02  0.50882673176E+02  0.00000000000E+00 0. -1.
<mgrwt>
<rscale>  0 0.25494454E+02</rscale>
<asrwt>0</asrwt>
<pdfrwt beam="2">  1        4 0.97510882E-02 0.25494454E+02</pdfrwt>
<pdfrwt beam="1">  1       -4 0.39441337E-03 0.25494454E+02</pdfrwt>
<totfact> 0.65683459E+05</totfact>
</mgrwt>
</event>
<event>
 4    1  0.2165211E+000  0.3353889E+02  0.7546771E-02  0.1561972E+00
         -1   -1    0    0    0  501 -0.00000000000E+00  0.00000000000E+00  0.82760140945E+02  0.82760140945E+02  0.00000000000E+00 0.  1.
          1   -1    0    0  501    0  0.00000000000E+00 -0.00000000000E+00 -0.33979432531E+01  0.33979432531E+01  0.00000000000E+00 0. -1.
        -13    1    1    2    0    0 -0.15918830782E+02 -0.22729515890E+01  0.51903988108E+02  0.54337827192E+02  0.00000000000E+00 0. -1.
         13    1    1    2    0    0  0.15918830782E+02  0.22729515890E+01  0.27458209584E+02  0.31820257006E+02  0.00000000000E+00 0.  1.
<mgrwt>
<rscale>  0 0.33538889E+02</rscale>
<asrwt>0</asrwt>
<pdfrwt beam="2">  1        1 0.52276056E-03 0.33538889E+02</pdfrwt>
<pdfrwt beam="1">  1       -1 0.12732328E-01 0.33538889E+02</pdfrwt>
<totfact> 0.10079226E+06</totfact>
</mgrwt>
</event>
<event>
 4    1  0.2165211E+000  0.3518388E+02  0.7546771E-02  0.1546974E+00
          2   -1    0    0  501    0  0.00000000000E+00  0.00000000000E+00  0.18166626232E+03  0.18166626232E+03  0.00000000000E+00 0.  1.
         -2   -1    0    0    0  501 -0.00000000000E+00 -0.00000000000E+00 -0.17035433834E+01  0.17035433834E+01  0.00000000000E+00 0. -1.
        -11    1    1    2    0    0 -0.64748095817E+01  0.16279792075E+02  0.98257342773E+02  0.99807114967E+02  0.00000000000E+00 0.  1.
         11    1    1    2    0    0  0.64748095817E+01 -0.16279792075E+02  0.81705376159E+02  0.83562690732E+02  0.00000000000E+00 0. -1.
<mgrwt>
<rscale>  0 0.35183880E+02</rscale>
<asrwt>0</asrwt>
<pdfrwt beam="1">  1        2 0.27948640E-01 0.35183880E+02</pdfrwt>
<pdfrwt beam="2">  1       -2 0.26208374E-03 0.35183880E+02</pdfrwt>
<totfact> 0.16881166E+06</totfact>
</mgrwt>
</event>
<event>
 4    1  0.2165211E+000  0.4679148E+02  0.7546771E-02  0.1463458E+00
          2   -1    0    0  501    0  0.00000000000E+00  0.00000000000E+00  0.17860975567E+02  0.17860975567E+02  0.00000000000E+00 0.  1.
         -2   -1    0    0    0  501 -0.00000000000E+00 -0.00000000000E+00 -0.30645617031E+02  0.30645617031E+02  0.00000000000E+00 0. -1.
        -13    1    1    2    0    0  0.20989457449E+02 -0.99185732306E+01 -0.33833077608E+01  0.23460225710E+02  0.00000000000E+00 0.  1.
         13    1    1    2    0    0 -0.20989457449E+02  0.99185732306E+01 -0.94013337034E+01  0.25046366889E+02  0.00000000000E+00 0. -1.
<mgrwt>
<rscale>  0 0.46791479E+02</rscale>
<asrwt>0</asrwt>
<pdfrwt beam="1">  1        2 0.27478425E-02 0.46791479E+02</pdfrwt>
<pdfrwt beam="2">  1       -2 0.47147102E-02 0.46791479E+02</pdfrwt>
<totfact> 0.51615838E+05</totfact>
</mgrwt>
</event>
<event>
 4    1  0.2165211E+000  0.3806873E+02  0.7546771E-02  0.1522924E+00
         -1   -1    0    0    0  501 -0.00000000000E+00  0.00000000000E+00  0.89103526561E+01  0.89103526561E+01  0.00000000000E+00 0. -1.
          1   -1    0    0  501    0  0.00000000000E+00 -0.00000000000E+00 -0.40661355732E+02  0.40661355732E+02  0.00000000000E+00 0.  1.
        -11    1    1    2    0    0  0.38053626496E+01  0.13743624419E+02 -0.32292009620E+02  0.35300734870E+02  0.00000000000E+00 0.  1.
         11    1    1    2    0    0 -0.38053626496E+01 -0.13743624419E+02  0.54100654404E+00  0.14270973518E+02  0.00000000000E+00 0. -1.
<mgrwt>
<rscale>  0 0.38068728E+02</rscale>
<asrwt>0</asrwt>
<pdfrwt beam="2">  1        1 0.62555930E-02 0.38068728E+02</pdfrwt>
<pdfrwt beam="1">  1       -1 0.13708235E-02 0.38068728E+02</pdfrwt>
<totfact> 0.90740943E+05</totfact>
</mgrwt>
</event>
<event>
 4    1  0.2165211E+000  0.2770251E+02  0.7546771E-02  0.1624967E+00
          4   -1    0    0  501    0  0.00000000000E+00  0.00000000000E+00  0.14493716349E+01  0.14493716349E+01  0.00000000000E+00 0.  1.
         -4   -1    0    0    0  501 -0.00000000000E+00 -0.00000000000E+00 -0.13237271380E+03  0.13237271380E+03  0.00000000000E+00 0. -1.
        -11    1    1    2    0    0  0.41623507499E+00  0.13769722542E+02 -0.72426483224E+02  0.73724988862E+02  0.00000000000E+00 0.  1.
         11    1    1    2    0    0 -0.41623507499E+00 -0.13769722542E+02 -0.58496858943E+02  0.60097096574E+02  0.00000000000E+00 0. -1.
<mgrwt>
<rscale>  0 0.27702509E+02</rscale>
<asrwt>0</asrwt>
<pdfrwt beam="1">  1        4 0.22298020E-03 0.27702509E+02</pdfrwt>
<pdfrwt beam="2">  1       -4 0.20365037E-01 0.27702509E+02</pdfrwt>
<totfact> 0.45284684E+05</totfact>
</mgrwt>
</event>
<event>
 4    1  0.2165211E+000  0.2987584E+02  0.7546771E-02  0.1599465E+00
          2   -1    0    0  501    0  0.00000000000E+00  0.00000000000E+00  0.15141066617E+02  0.15141066617E+02  0.00000000000E+00 0.  1.
         -2   -1    0    0    0  501 -0.00000000000E+00 -0.00000000000E+00 -0.14737498132E+02  0.14737498132E+02  0.00000000000E+00 0. -1.
        -13    1    1    2    0    0 -0.12133966243E+02  0.76764833532E+00 -0.84776606569E+01  0.14822049486E+02  0.00000000000E+00 0. -1.
         13    1    1    2    0    0  0.12133966243E+02 -0.76764833532E+00  0.88812291417E+01  0.15056515262E+02  0.00000000000E+00 0.  1.
<mgrwt>
<rscale>  0 0.29875839E+02</rscale>
<asrwt>0</asrwt>
<pdfrwt beam="1">  1        2 0.23293949E-02 0.29875839E+02</pdfrwt>
<pdfrwt beam="2">  1       -2 0.22673074E-02 0.29875839E+02</pdfrwt>
<totfact> 0.15831039E+06</totfact>
</mgrwt>
</event>
<event>
 4    1  0.2165211E+000  0.2357713E+02  0.7546771E-02  0.1682322E+00
          3   -1    0    0  501    0  0.00000000000E+00  0.00000000000E+00  0.71003527470E+01  0.71003527470E+01  0.00000000000E+00 0.  1.
         -3   -1    0    0    0  501 -0.00000000000E+00 -0.00000000000E+00 -0.19572299328E+02  0.19572299328E+02  0.00000000000E+00 0. -1.
        -11    1    1    2    0    0  0.19344779385E+01 -0.11494070493E+02 -0.82324317329E+01  0.14269856118E+02  0.00000000000E+00 0. -1.
         11    1    1    2    0    0 -0.19344779385E+01  0.11494070493E+02 -0.42395148477E+01  0.12402795956E+02  0.00000000000E+00 0.  1.
<mgrwt>
<rscale>  0 0.23577127E+02</rscale>
<asrwt>0</asrwt>
<pdfrwt beam="1">  1        3 0.10923620E-02 0.23577127E+02</pdfrwt>
<pdfrwt beam="2">  1       -3 0.30111230E-02 0.23577127E+02</pdfrwt>
<totfact> 0.12171491E+06</totfact>
</mgrwt>
</event>
<event>
 4    1  0.2165211E+000  0.6837920E+02  0.7546771E-02  0.1365693E+00
          1   -1    0    0  501    0  0.00000000000E+00  0.00000000000E+00  0.86972908855E+01  0.86972908855E+01  0.00000000000E+00 0. -1.
         -1   -1    0    0    0  501 -0.00000000000E+00 -0.00000000000E+00 -0.13440147585E+03  0.13440147585E+03  0.00000000000E+00 0.  1.
        -13    1    1    2    0    0 -0.89245120398E+01 -0.26607173864E+02 -0.21985528420E+02  0.35650414810E+02  0.00000000000E+00 0. -1.
         13    1    1    2    0    0  0.89245120398E+01  0.26607173864E+02 -0.10371865654E+03  0.10744835192E+03  0.00000000000E+00 0.  1.
<mgrwt>
<rscale>  0 0.68379199E+02</rscale>
<asrwt>0</asrwt>
<pdfrwt beam="1">  1        1 0.13380448E-02 0.68379199E+02</pdfrwt>
<pdfrwt beam="2">  1       -1 0.20677150E-01 0.68379199E+02</pdfrwt>
<totfact> 0.16055310E+05</totfact>
</mgrwt>
</event>
<event>
 4    1  0.2165211E+000  0.3004474E+02  0.7546771E-02  0.1597595E+00
         -2   -1    0    0    0  501 -0.00000000000E+00  0.00000000000E+00  0.22383843896E+02  0.22383843896E+02  0.00000000000E+00 0.  1.
          2   -1    0    0  501    0  0.00000000000E+00 -0.00000000000E+00 -0.10081896171E+02  0.10081896171E+02  0.00000000000E+00 0. -1.
        -11    1    1    2    0    0 -0.12543996252E+02 -0.17375018253E+00 -0.27786675871E+01  0.12849242182E+02  0.00000000000E+00 0. -1.
         11    1    1    2    0    0  0.12543996252E+02  0.17375018253E+00  0.15080615312E+02  0.19616497885E+02  0.00000000000E+00 0.  1.
<mgrwt>
<rscale>  0 0.30044739E+02</rscale>
<asrwt>0</asrwt>
<pdfrwt beam="2">  1        2 0.15510610E-02 0.30044739E+02</pdfrwt>
<pdfrwt beam="1">  1       -2 0.34436683E-02 0.30044739E+02</pdfrwt>
<totfact> 0.14972989E+06</totfact>
</mgrwt>
</event>
<event>
 4    1  0.2165211E+000  0.2416473E+02  0.7546771E-02  0.1673297E+00
         -2   -1    0    0    0  501 -0.00000000000E+00  0.00000000000E+00  0.48161968701E+02  0.48161968701E+02  0.00000000000E+00 0. -1.
          2   -1    0    0  501    0  0.00000000000E+00 -0.00000000000E+00 -0.30310954270E+01  0.30310954270E+01  0.00000000000E+00 0.  1.
        -13    1    1    2    0    0  0.64008388863E+01  0.10140331179E+02  0.25698006694E+02  0.28358148792E+02  0.00000000000E+00 0.  1.
         13    1    1    2    0    0 -0.64008388863E+01 -0.10140331179E+02  0.19432866580E+02  0.22834915336E+02  0.00000000000E+00 0. -1.
<mgrwt>
<rscale>  0 0.24164728E+02</rscale>
<asrwt>0</asrwt>
<pdfrwt beam="2">  1        2 0.46632241E-03 0.24164728E+02</pdfrwt>
<pdfrwt beam="1">  1       -2 0.74095331E-02 0.24164728E+02</pdfrwt>
<totfact> 0.22404567E+06</totfact>
</mgrwt>
</event>
<event>
 4    1  0.2165211E+000  0.2761001E+02  0.7546771E-02  0.1626116E+00
          2   -1    0    0  501    0  0.00000000000E+00  0.00000000000E+00  0.61541775247E+01  0.61541775247E+01  0.00000000000E+00 0. -1.
         -2   -1    0    0    0  501 -0.00000000000E+00 -0.00000000000E+00 -0.30967291468E+02  0.30967291468E+02  0.00000000000E+00 0.  1.
        -13    1    1    2    0    0 -0.46406835126E+01  0.12549223066E+02 -0.78354259585E+01  0.15505252110E+02  0.00000000000E+00 0. -1.
         13    1    1    2    0    0  0.46406835126E+01 -0.12549223066E+02 -0.16977687985E+02  0.21616216883E+02  0.00000000000E+00 0.  1.
<mgrwt>
<rscale>  0 0.27610013E+02</rscale>
<asrwt>0</asrwt>
<pdfrwt beam="1">  1        2 0.94679654E-03 0.27610013E+02</pdfrwt>
<pdfrwt beam="2">  1       -2 0.47641987E-02 0.27610013E+02</pdfrwt>
<totfact> 0.17516512E+06</totfact>
</mgrwt>
</event>
<event>
 4    1  0.2165211E+000  0.5039045E+03  0.7546771E-02  0.1012765E+00
          2   -1    0    0  501    0  0.00000000000E+00  0.00000000000E+00  0.61385601229E+03  0.61385601229E+03  0.00000000000E+00 0.  1.
         -2   -1    0    0    0  501 -0.00000000000E+00 -0.00000000000E+00 -0.10341176928E+03  0.10341176928E+03  0.00000000000E+00 0. -1.
        -11    1    1    2    0    0  0.90060155380E+02  0.22446468806E+03  0.35571909235E+03  0.43015264783E+03  0.00000000000E+00 0.  1.
         11    1    1    2    0    0 -0.90060155380E+02 -0.22446468806E+03  0.15472515067E+03  0.28711513374E+03  0.00000000000E+00 0. -1.
<mgrwt>
<rscale>  0 0.50390450E+03</rscale>
<asrwt>0</asrwt>
<pdfrwt beam="1">  1        2 0.94439385E-01 0.50390450E+03</pdfrwt>
<pdfrwt beam="2">  1       -2 0.15909503E-01 0.50390450E+03</pdfrwt>
<totfact> 0.15294740E+03</totfact>
</mgrwt>
</event>
<event>
 4    1  0.2165211E+000  0.4385793E+02  0.7546771E-02  0.1481600E+00
          3   -1    0    0  501    0  0.00000000000E+00  0.00000000000E+00  0.70864571832E+01  0.70864571832E+01  0.00000000000E+00 0. -1.
         -3   -1    0    0    0  501 -0.00000000000E+00 -0.00000000000E+00 -0.67858940214E+02  0.67858940214E+02  0.00000000000E+00 0.  1.
        -11    1    1    2    0    0  0.15594753474E+01  0.13560274168E+02 -0.10578321055E+01  0.13690580982E+02  0.00000000000E+00 0. -1.
         11    1    1    2    0    0 -0.15594753474E+01 -0.13560274168E+02 -0.59714650926E+02  0.61254816415E+02  0.00000000000E+00 0.  1.
<mgrwt>
<rscale>  0 0.43857929E+02</rscale>
<asrwt>0</asrwt>
<pdfrwt beam="1">  1        3 0.10902242E-02 0.43857929E+02</pdfrwt>
<pdfrwt beam="2">  1       -3 0.10439837E-01 0.43857929E+02</pdfrwt>
<totfact> 0.24578130E+05</totfact>
</mgrwt>
</event>
<event>
 4    1  0.2165211E+000  0.8355552E+02  0.7546771E-02  0.1319254E+00
         -2   -1    0    0    0  501 -0.00000000000E+00  0.00000000000E+00  0.21445574242E+02  0.21445574242E+02  0.00000000000E+00 0.  1.
          2   -1    0    0  501    0  0.00000000000E+00 -0.00000000000E+00 -0.81386551185E+02  0.81386551185E+02  0.00000000000E+00 0. -1.
        -13    1    1    2    0    0 -0.18556555101E+02  0.35399162191E+02 -0.44939357287E+02  0.60141435420E+02  0.00000000000E+00 0. -1.
         13    1    1    2    0    0  0.18556555101E+02 -0.35399162191E+02 -0.15001619656E+02  0.42690690008E+02  0.00000000000E+00 0.  1.
<mgrwt>
<rscale>  0 0.83555522E+02</rscale>
<asrwt>0</asrwt>
<pdfrwt beam="2">  1        2 0.12521008E-01 0.83555522E+02</pdfrwt>
<pdfrwt beam="1">  1       -2 0.32993191E-02 0.83555522E+02</pdfrwt>
<totfact> 0.14681862E+05</totfact>
</mgrwt>
</event>
<event>
 4    1  0.2165211E+000  0.4484885E+02  0.7546771E-02  0.1475287E+00
          2   -1    0    0  501    0  0.00000000000E+00  0.00000000000E+00  0.53288346127E+02  0.53288346127E+02  0.00000000000E+00 0. -1.
         -2   -1    0    0    0  501 -0.00000000000E+00 -0.00000000000E+00 -0.94364880361E+01  0.94364880361E+01  0.00000000000E+00 0.  1.
        -13    1    1    2    0    0  0.88298627213E+01 -0.18873185555E+02  0.10334449814E+02  0.23258642730E+02  0.00000000000E+00 0.  1.
         13    1    1    2    0    0 -0.88298627213E+01  0.18873185555E+02  0.33517408277E+02  0.39466191434E+02  0.00000000000E+00 0. -1.
<mgrwt>
<rscale>  0 0.44848850E+02</rscale>
<asrwt>0</asrwt>
<pdfrwt beam="1">  1        2 0.81982069E-02 0.44848850E+02</pdfrwt>
<pdfrwt beam="2">  1       -2 0.14517674E-02 0.44848850E+02</pdfrwt>
<totfact> 0.68510072E+05</totfact>
</mgrwt>
</event>
<event>
 4    1  0.2165211E+000  0.2519442E+02  0.7546771E-02  0.1658225E+00
         -2   -1    0    0    0  501 -0.00000000000E+00  0.00000000000E+00  0.14134642109E+02  0.14134642109E+02  0.00000000000E+00 0.  1.
          2   -1    0    0  501    0  0.00000000000E+00 -0.00000000000E+00 -0.11227008394E+02  0.11227008394E+02  0.00000000000E+00 0. -1.
        -13    1    1    2    0    0  0.42584222373E+01  0.10947033941E+02 -0.31281015561E+01  0.12155522671E+02  0.00000000000E+00 0. -1.
         13    1    1    2    0    0 -0.42584222373E+01 -0.10947033941E+02  0.60357352703E+01  0.13206127832E+02  0.00000000000E+00 0.  1.
<mgrwt>
<rscale>  0 0.25194424E+02</rscale>
<asrwt>0</asrwt>
<pdfrwt beam="2">  1        2 0.17272321E-02 0.25194424E+02</pdfrwt>
<pdfrwt beam="1">  1       -2 0.21745603E-02 0.25194424E+02</pdfrwt>
<totfact> 0.23222989E+06</totfact>
</mgrwt>
</event>
<event>
 4    1  0.2165211E+000  0.2149785E+02  0.7546771E-02  0.1717084E+00
          2   -1    0    0  501    0  0.00000000000E+00  0.00000000000E+00  0.78647610812E+01  0.78647610812E+01  0.00000000000E+00 0.  1.
         -2   -1    0    0    0  501 -0.00000000000E+00 -0.00000000000E+00 -0.14690767987E+02  0.14690767987E+02  0.00000000000E+00 0. -1.
        -13    1    1    2    0    0 -0.41907576000E+01  0.92556893641E+01  0.26804859061E+00  0.10163763324E+02  0.00000000000E+00 0.  1.
         13    1    1    2    0    0  0.41907576000E+01 -0.92556893641E+01 -0.70940554967E+01  0.12391765744E+02  0.00000000000E+00 0. -1.
<mgrwt>
<rscale>  0 0.21497849E+02</rscale>
<asrwt>0</asrwt>
<pdfrwt beam="1">  1        2 0.12099633E-02 0.21497849E+02</pdfrwt>
<pdfrwt beam="2">  1       -2 0.22601181E-02 0.21497849E+02</pdfrwt>
<totfact> 0.32791862E+06</totfact>
</mgrwt>
</event>
<event>
 4    1  0.2165211E+000  0.5642202E+02  0.7546771E-02  0.1413491E+00
         -2   -1    0    0    0  501 -0.00000000000E+00  0.00000000000E+00  0.11884255480E+02  0.11884255480E+02  0.00000000000E+00 0.  1.
          2   -1    0    0  501    0  0.00000000000E+00 -0.00000000000E+00 -0.66967680174E+02  0.66967680174E+02  0.00000000000E+00 0. -1.
        -13    1    1    2    0    0  0.60253770951E+00  0.28037269292E+02 -0.31828648322E+02  0.42420683340E+02  0.00000000000E+00 0. -1.
         13    1    1    2    0    0 -0.60253770951E+00 -0.28037269292E+02 -0.23254776372E+02  0.36431252314E+02  0.00000000000E+00 0.  1.
<mgrwt>
<rscale>  0 0.56422018E+02</rscale>
<asrwt>0</asrwt>
<pdfrwt beam="2">  1        2 0.10302720E-01 0.56422018E+02</pdfrwt>
<pdfrwt beam="1">  1       -2 0.18283470E-02 0.56422018E+02</pdfrwt>
<totfact> 0.39865103E+05</totfact>
</mgrwt>
</event>
<event>
 4    1  0.2165211E+000  0.3282466E+02  0.7546771E-02  0.1568813E+00
         -2   -1    0    0    0  501 -0.00000000000E+00  0.00000000000E+00  0.28305675548E+02  0.28305675548E+02  0.00000000000E+00 0.  1.
          2   -1    0    0  501    0  0.00000000000E+00 -0.00000000000E+00 -0.95162720806E+01  0.95162720806E+01  0.00000000000E+00 0. -1.
        -11    1    1    2    0    0  0.35243535723E+00 -0.13446858173E+02 -0.14401911144E+01  0.13528353775E+02  0.00000000000E+00 0. -1.
         11    1    1    2    0    0 -0.35243535723E+00  0.13446858173E+02  0.20229594582E+02  0.24293593854E+02  0.00000000000E+00 0.  1.
<mgrwt>
<rscale>  0 0.32824656E+02</rscale>
<asrwt>0</asrwt>
<pdfrwt beam="2">  1        2 0.14640419E-02 0.32824656E+02</pdfrwt>
<pdfrwt beam="1">  1       -2 0.43547193E-02 0.32824656E+02</pdfrwt>
<totfact> 0.11912352E+06</totfact>
</mgrwt>
</event>
<event>
 4    1  0.2165211E+000  0.3062109E+02  0.7546771E-02  0.1591323E+00
          1   -1    0    0  501    0  0.00000000000E+00  0.00000000000E+00  0.23497136289E+02  0.23497136289E+02  0.00000000000E+00 0. -1.
         -1   -1    0    0    0  501 -0.00000000000E+00 -0.00000000000E+00 -0.99762261213E+01  0.99762261213E+01  0.00000000000E+00 0.  1.
        -13    1    1    2    0    0 -0.64087456727E+01  0.13767976156E+02  0.46341340580E+01  0.15877795407E+02  0.00000000000E+00 0. -1.
         13    1    1    2    0    0  0.64087456727E+01 -0.13767976156E+02  0.88867761098E+01  0.17595567003E+02  0.00000000000E+00 0.  1.
<mgrwt>
<rscale>  0 0.30621087E+02</rscale>
<asrwt>0</asrwt>
<pdfrwt beam="1">  1        1 0.36149440E-02 0.30621087E+02</pdfrwt>
<pdfrwt beam="2">  1       -1 0.15348040E-02 0.30621087E+02</pdfrwt>
<totfact> 0.14856798E+06</totfact>
</mgrwt>
</event>
<event>
 4    1  0.2165211E+000  0.9803153E+02  0.7546771E-02  0.1284491E+00
         -2   -1    0    0    0  501 -0.00000000000E+00  0.00000000000E+00  0.87897397350E+02  0.87897397350E+02  0.00000000000E+00 0.  1.
          2   -1    0    0  501    0  0.00000000000E+00 -0.00000000000E+00 -0.27333517563E+02  0.27333517563E+02  0.00000000000E+00 0. -1.
        -13    1    1    2    0    0  0.22724790578E+02 -0.24848231224E+02  0.72149894773E+02  0.79620713496E+02  0.00000000000E+00 0.  1.
         13    1    1    2    0    0 -0.22724790578E+02  0.24848231224E+02 -0.11586014986E+02  0.35610201418E+02  0.00000000000E+00 0. -1.
<mgrwt>
<rscale>  0 0.98031527E+02</rscale>
<asrwt>0</asrwt>
<pdfrwt beam="2">  1        2 0.42051566E-02 0.98031527E+02</pdfrwt>
<pdfrwt beam="1">  1       -2 0.13522676E-01 0.98031527E+02</pdfrwt>
<totfact> 0.69282258E+04</totfact>
</mgrwt>
</event>
<event>
 4    1  0.2165211E+000  0.2677758E+02  0.7546771E-02  0.1636709E+00
         -2   -1    0    0    0  501 -0.00000000000E+00  0.00000000000E+00  0.15724766688E+01  0.15724766688E+01  0.00000000000E+00 0. -1.
          2   -1    0    0  501    0  0.00000000000E+00 -0.00000000000E+00 -0.11399831911E+03  0.11399831911E+03  0.00000000000E+00 0.  1.
        -13    1    1    2    0    0  0.51271035149E+00 -0.13325810429E+02 -0.51070590355E+02  0.52783001949E+02  0.00000000000E+00 0. -1.
         13    1    1    2    0    0 -0.51271035149E+00  0.13325810429E+02 -0.61355252085E+02  0.62787793829E+02  0.00000000000E+00 0.  1.
<mgrwt>
<rscale>  0 0.26777580E+02</rscale>
<asrwt>0</asrwt>
<pdfrwt beam="2">  1        2 0.17538202E-01 0.26777580E+02</pdfrwt>
<pdfrwt beam="1">  1       -2 0.24191950E-03 0.26777580E+02</pdfrwt>
<totfact> 0.28141091E+06</totfact>
</mgrwt>
</event>
<event>
 4    1  0.2165211E+000  0.6454081E+02  0.7546771E-02  0.1379707E+00
          2   -1    0    0  501    0  0.00000000000E+00  0.00000000000E+00  0.55089818320E+02  0.55089818320E+02  0.00000000000E+00 0.  1.
         -2   -1    0    0    0  501 -0.00000000000E+00 -0.00000000000E+00 -0.18903291664E+02  0.18903291664E+02  0.00000000000E+00 0. -1.
        -13    1    1    2    0    0 -0.18248484062E+02  0.25427427572E+02  0.27107172522E+02  0.41404831187E+02  0.00000000000E+00 0.  1.
         13    1    1    2    0    0  0.18248484062E+02 -0.25427427572E+02  0.90793541335E+01  0.32588278797E+02  0.00000000000E+00 0. -1.
<mgrwt>
<rscale>  0 0.64540806E+02</rscale>
<asrwt>0</asrwt>
<pdfrwt beam="1">  1        2 0.84753566E-02 0.64540806E+02</pdfrwt>
<pdfrwt beam="2">  1       -2 0.29081987E-02 0.64540806E+02</pdfrwt>
<totfact> 0.26799751E+05</totfact>
</mgrwt>
</event>
<event>
 4    1  0.2165211E+000  0.6999015E+02  0.7546771E-02  0.1360127E+00
          2   -1    0    0  501    0  0.00000000000E+00  0.00000000000E+00  0.81741360163E+02  0.81741360163E+02  0.00000000000E+00 0. -1.
         -2   -1    0    0    0  501 -0.00000000000E+00 -0.00000000000E+00 -0.14982076686E+02  0.14982076686E+02  0.00000000000E+00 0.  1.
        -11    1    1    2    0    0  0.57724533010E+01  0.21506250431E+02  0.70687775689E+02  0.74112088464E+02  0.00000000000E+00 0. -1.
         11    1    1    2    0    0 -0.57724533010E+01 -0.21506250431E+02 -0.39284922115E+01  0.22611348385E+02  0.00000000000E+00 0.  1.
<mgrwt>
<rscale>  0 0.69990151E+02</rscale>
<asrwt>0</asrwt>
<pdfrwt beam="1">  1        2 0.12575594E-01 0.69990151E+02</pdfrwt>
<pdfrwt beam="2">  1       -2 0.23049349E-02 0.69990151E+02</pdfrwt>
<totfact> 0.23722337E+05</totfact>
</mgrwt>
</event>
<event>
 4    1  0.2165211E+000  0.2223713E+02  0.7546771E-02  0.1704183E+00
         -1   -1    0    0    0  501 -0.00000000000E+00  0.00000000000E+00  0.61444902560E+01  0.61444902560E+01  0.00000000000E+00 0. -1.
          1   -1    0    0  501    0  0.00000000000E+00 -0.00000000000E+00 -0.20119238202E+02  0.20119238202E+02  0.00000000000E+00 0.  1.
        -13    1    1    2    0    0  0.68846832638E+01  0.78942793917E+01 -0.11391369030E+02  0.15475199486E+02  0.00000000000E+00 0.  1.
         13    1    1    2    0    0 -0.68846832638E+01 -0.78942793917E+01 -0.25833789160E+01  0.10788528972E+02  0.00000000000E+00 0. -1.
<mgrwt>
<rscale>  0 0.22237128E+02</rscale>
<asrwt>0</asrwt>
<pdfrwt beam="2">  1        1 0.30952674E-02 0.22237128E+02</pdfrwt>
<pdfrwt beam="1">  1       -1 0.94530619E-03 0.22237128E+02</pdfrwt>
<totfact> 0.31230433E+06</totfact>
</mgrwt>
</event>
<event>
 4    1  0.2165211E+000  0.2129965E+02  0.7546771E-02  0.1720653E+00
         -2   -1    0    0    0  501 -0.00000000000E+00  0.00000000000E+00  0.84504236819E+02  0.84504236819E+02  0.00000000000E+00 0. -1.
          2   -1    0    0  501    0  0.00000000000E+00 -0.00000000000E+00 -0.13421663972E+01  0.13421663972E+01  0.00000000000E+00 0.  1.
        -11    1    1    2    0    0  0.94871782793E+01  0.45697095672E+01  0.47991737984E+02  0.49133447996E+02  0.00000000000E+00 0. -1.
         11    1    1    2    0    0 -0.94871782793E+01 -0.45697095672E+01  0.35170332438E+02  0.36712955220E+02  0.00000000000E+00 0.  1.
<mgrwt>
<rscale>  0 0.21299648E+02</rscale>
<asrwt>0</asrwt>
<pdfrwt beam="2">  1        2 0.20648720E-03 0.21299648E+02</pdfrwt>
<pdfrwt beam="1">  1       -2 0.13000648E-01 0.21299648E+02</pdfrwt>
<totfact> 0.26912337E+06</totfact>
</mgrwt>
</event>
<event>
 4    1  0.2165211E+000  0.3063177E+02  0.7546771E-02  0.1591208E+00
          4   -1    0    0  501    0  0.00000000000E+00  0.00000000000E+00  0.40399873843E+02  0.40399873843E+02  0.00000000000E+00 0.  1.
         -4   -1    0    0    0  501 -0.00000000000E+00 -0.00000000000E+00 -0.58063629966E+01  0.58063629966E+01  0.00000000000E+00 0. -1.
        -13    1    1    2    0    0  0.41644069348E+01 -0.14688898882E+02  0.15467682367E+02  0.21733734914E+02  0.00000000000E+00 0. -1.
         13    1    1    2    0    0 -0.41644069348E+01  0.14688898882E+02  0.19125828480E+02  0.24472501926E+02  0.00000000000E+00 0.  1.
<mgrwt>
<rscale>  0 0.30631770E+02</rscale>
<asrwt>0</asrwt>
<pdfrwt beam="1">  1        4 0.62153650E-02 0.30631770E+02</pdfrwt>
<pdfrwt beam="2">  1       -4 0.89328664E-03 0.30631770E+02</pdfrwt>
<totfact> 0.46781304E+05</totfact>
</mgrwt>
</event>
<event>
 4    1  0.2165211E+000  0.2208332E+02  0.7546771E-02  0.1706815E+00
         -2   -1    0    0    0  501 -0.00000000000E+00  0.00000000000E+00  0.87525900913E+01  0.87525900913E+01  0.00000000000E+00 0. -1.
          2   -1    0    0  501    0  0.00000000000E+00 -0.00000000000E+00 -0.13929389625E+02  0.13929389625E+02  0.00000000000E+00 0.  1.
        -11    1    1    2    0    0  0.52750113400E+01 -0.94896170687E+01 -0.52402245561E+00  0.10869828714E+02  0.00000000000E+00 0.  1.
         11    1    1    2    0    0 -0.52750113400E+01  0.94896170687E+01 -0.46527770778E+01  0.11812151002E+02  0.00000000000E+00 0. -1.
<mgrwt>
<rscale>  0 0.22083318E+02</rscale>
<asrwt>0</asrwt>
<pdfrwt beam="2">  1        2 0.21429830E-02 0.22083318E+02</pdfrwt>
<pdfrwt beam="1">  1       -2 0.13465523E-02 0.22083318E+02</pdfrwt>
<totfact> 0.32232851E+06</totfact>
</mgrwt>
</event>
<event>
 4    1  0.2165211E+000  0.3333789E+02  0.7546771E-02  0.1563876E+00
         -2   -1    0    0    0  501 -0.00000000000E+00  0.00000000000E+00  0.75616176101E+01  0.75616176101E+01  0.00000000000E+00 0.  1.
          2   -1    0    0  501    0  0.00000000000E+00 -0.00000000000E+00 -0.36745285668E+02  0.36745285668E+02  0.00000000000E+00 0. -1.
        -13    1    1    2    0    0  0.28426281289E+01  0.13022630792E+02 -0.27894331286E+02  0.30915419539E+02  0.00000000000E+00 0. -1.
         13    1    1    2    0    0 -0.28426281289E+01 -0.13022630792E+02 -0.12893367725E+01  0.13391483739E+02  0.00000000000E+00 0.  1.
<mgrwt>
<rscale>  0 0.33337894E+02</rscale>
<asrwt>0</asrwt>
<pdfrwt beam="2">  1        2 0.56531208E-02 0.33337894E+02</pdfrwt>
<pdfrwt beam="1">  1       -2 0.11633258E-02 0.33337894E+02</pdfrwt>
<totfact> 0.13454691E+06</totfact>
</mgrwt>
</event>
<event>
 4    1  0.2165211E+000  0.4018257E+02  0.7546771E-02  0.1506872E+00
          2   -1    0    0  501    0  0.00000000000E+00  0.00000000000E+00  0.44007573716E+02  0.44007573716E+02  0.00000000000E+00 0.  1.
         -2   -1    0    0    0  501 -0.00000000000E+00 -0.00000000000E+00 -0.91725064054E+01  0.91725064054E+01  0.00000000000E+00 0. -1.
        -13    1    1    2    0    0  0.17286644797E+02  0.98228772247E+01  0.13594872613E+02  0.24086045061E+02  0.00000000000E+00 0. -1.
         13    1    1    2    0    0 -0.17286644797E+02 -0.98228772247E+01  0.21240194698E+02  0.29094035061E+02  0.00000000000E+00 0.  1.
<mgrwt>
<rscale>  0 0.40182571E+02</rscale>
<asrwt>0</asrwt>
<pdfrwt beam="1">  1        2 0.67703958E-02 0.40182571E+02</pdfrwt>
<pdfrwt beam="2">  1       -2 0.14111549E-02 0.40182571E+02</pdfrwt>
<totfact> 0.87281809E+05</totfact>
</mgrwt>
</event>
<event>
 4    1  0.2165211E+000  0.2130816E+02  0.7546771E-02  0.1720499E+00
         -1   -1    0    0    0  501 -0.00000000000E+00  0.00000000000E+00  0.22740986133E+01  0.22740986133E+01  0.00000000000E+00 0. -1.
          1   -1    0    0  501    0  0.00000000000E+00 -0.00000000000E+00 -0.49914017304E+02  0.49914017304E+02  0.00000000000E+00 0.  1.
        -11    1    1    2    0    0  0.10278209156E+02  0.27366992155E+01 -0.22313563882E+02  0.24718944945E+02  0.00000000000E+00 0. -1.
         11    1    1    2    0    0 -0.10278209156E+02 -0.27366992155E+01 -0.25326354809E+02  0.27469170973E+02  0.00000000000E+00 0.  1.
<mgrwt>
<rscale>  0 0.21308158E+02</rscale>
<asrwt>0</asrwt>
<pdfrwt beam="2">  1        1 0.76790787E-02 0.21308158E+02</pdfrwt>
<pdfrwt beam="1">  1       -1 0.34986137E-03 0.21308158E+02</pdfrwt>
<totfact> 0.36198828E+06</totfact>
</mgrwt>
</event>
<event>
 4    1  0.2165211E+000  0.5992335E+02  0.7546771E-02  0.1398154E+00
         -1   -1    0    0    0  501 -0.00000000000E+00  0.00000000000E+00  0.18710132194E+02  0.18710132194E+02  0.00000000000E+00 0.  1.
          1   -1    0    0  501    0  0.00000000000E+00 -0.00000000000E+00 -0.47979458846E+02  0.47979458846E+02  0.00000000000E+00 0. -1.
        -13    1    1    2    0    0  0.50597858989E+01 -0.17263370139E+02 -0.41299989099E+02  0.45047913175E+02  0.00000000000E+00 0. -1.
         13    1    1    2    0    0 -0.50597858989E+01  0.17263370139E+02  0.12030662447E+02  0.21641677865E+02  0.00000000000E+00 0.  1.
<mgrwt>
<rscale>  0 0.59923352E+02</rscale>
<asrwt>0</asrwt>
<pdfrwt beam="2">  1        1 0.73814552E-02 0.59923352E+02</pdfrwt>
<pdfrwt beam="1">  1       -1 0.28784819E-02 0.59923352E+02</pdfrwt>
<totfact> 0.29054050E+05</totfact>
</mgrwt>
</event>
<event>
 4    1  0.2165211E+000  0.8847245E+02  0.7546771E-02  0.1306594E+00
         -1   -1    0    0    0  501 -0.00000000000E+00  0.00000000000E+00  0.22221585248E+02  0.22221585248E+02  0.00000000000E+00 0.  1.
          1   -1    0    0  501    0  0.00000000000E+00 -0.00000000000E+00 -0.88060477939E+02  0.88060477939E+02  0.00000000000E+00 0. -1.
        -11    1    1    2    0    0  0.77877787829E+01  0.24559496136E+02 -0.77742384509E+02  0.81900529290E+02  0.00000000000E+00 0. -1.
         11    1    1    2    0    0 -0.77877787829E+01 -0.24559496136E+02  0.11903491818E+02  0.28381533896E+02  0.00000000000E+00 0.  1.
<mgrwt>
<rscale>  0 0.88472446E+02</rscale>
<asrwt>0</asrwt>
<pdfrwt beam="2">  1        1 0.13547766E-01 0.88472446E+02</pdfrwt>
<pdfrwt beam="1">  1       -1 0.34187055E-02 0.88472446E+02</pdfrwt>
<totfact> 0.11105899E+05</totfact>
</mgrwt>
</event>
<event>
 4    1  0.2165211E+000  0.3081864E+02  0.7546771E-02  0.1589212E+00
          2   -1    0    0  501    0  0.00000000000E+00  0.00000000000E+00  0.38585080427E+02  0.38585080427E+02  0.00000000000E+00 0. -1.
         -2   -1    0    0    0  501 -0.00000000000E+00 -0.00000000000E+00 -0.61538593629E+01  0.61538593629E+01  0.00000000000E+00 0.  1.
        -11    1    1    2    0    0  0.14779691170E+02 -0.41727934879E+01  0.14381838439E+02  0.21040169996E+02  0.00000000000E+00 0.  1.
         11    1    1    2    0    0 -0.14779691170E+02  0.41727934879E+01  0.18049382625E+02  0.23698769793E+02  0.00000000000E+00 0. -1.
<mgrwt>
<rscale>  0 0.30818641E+02</rscale>
<asrwt>0</asrwt>
<pdfrwt beam="1">  1        2 0.59361661E-02 0.30818641E+02</pdfrwt>
<pdfrwt beam="2">  1       -2 0.94674762E-03 0.30818641E+02</pdfrwt>
<totfact> 0.16385545E+06</totfact>
</mgrwt>
</event>
<event>
 4    1  0.2165211E+000  0.2436910E+02  0.7546771E-02  0.1670233E+00
         -2   -1    0    0    0  501 -0.00000000000E+00  0.00000000000E+00  0.32245771816E+02  0.32245771816E+02  0.00000000000E+00 0. -1.
          2   -1    0    0  501    0  0.00000000000E+00 -0.00000000000E+00 -0.46041143459E+01  0.46041143459E+01  0.00000000000E+00 0.  1.
        -11    1    1    2    0    0 -0.97992920415E+01 -0.70567302500E+01  0.11364026259E+02  0.16582058351E+02  0.00000000000E+00 0.  1.
         11    1    1    2    0    0  0.97992920415E+01  0.70567302500E+01  0.16277631212E+02  0.20267827812E+02  0.00000000000E+00 0. -1.
<mgrwt>
<rscale>  0 0.24369097E+02</rscale>
<asrwt>0</asrwt>
<pdfrwt beam="2">  1        2 0.70832531E-03 0.24369097E+02</pdfrwt>
<pdfrwt beam="1">  1       -2 0.49608878E-02 0.24369097E+02</pdfrwt>
<totfact> 0.23116567E+06</totfact>
</mgrwt>
</event>
<event>
 4    1  0.2165211E+000  0.4123509E+02  0.7546771E-02  0.1499314E+00
          1   -1    0    0  501    0  0.00000000000E+00  0.00000000000E+00  0.36250475118E+02  0.36250475118E+02  0.00000000000E+00 0. -1.
         -1   -1    0    0    0  501 -0.00000000000E+00 -0.00000000000E+00 -0.11726276084E+02  0.11726276084E+02  0.00000000000E+00 0.  1.
        -13    1    1    2    0    0 -0.16469455109E+02 -0.91264545187E+01  0.22034610071E+02  0.28983774162E+02  0.00000000000E+00 0. -1.
         13    1    1    2    0    0  0.16469455109E+02  0.91264545187E+01  0.24895889630E+01  0.18992977041E+02  0.00000000000E+00 0.  1.
<mgrwt>
<rscale>  0 0.41235086E+02</rscale>
<asrwt>0</asrwt>
<pdfrwt beam="1">  1        1 0.55769961E-02 0.41235086E+02</pdfrwt>
<pdfrwt beam="2">  1       -1 0.18040425E-02 0.41235086E+02</pdfrwt>
<totfact> 0.73738723E+05</totfact>
</mgrwt>
</event>
<event>
 4    1  0.2165211E+000  0.2700662E+02  0.7546771E-02  0.1633747E+00
          1   -1    0    0  501    0  0.00000000000E+00  0.00000000000E+00  0.63206717127E+01  0.63206717127E+01  0.00000000000E+00 0. -1.
         -1   -1    0    0    0  501 -0.00000000000E+00 -0.00000000000E+00 -0.28848100523E+02  0.28848100523E+02  0.00000000000E+00 0.  1.
        -13    1    1    2    0    0 -0.13236207520E+02 -0.39043466470E+00 -0.78208681910E+01  0.15379063951E+02  0.00000000000E+00 0. -1.
         13    1    1    2    0    0  0.13236207520E+02  0.39043466470E+00 -0.14706560619E+02  0.19789708284E+02  0.00000000000E+00 0.  1.
<mgrwt>
<rscale>  0 0.27006619E+02</rscale>
<asrwt>0</asrwt>
<pdfrwt beam="1">  1        1 0.97241106E-03 0.27006619E+02</pdfrwt>
<pdfrwt beam="2">  1       -1 0.44381692E-02 0.27006619E+02</pdfrwt>
<totfact> 0.18608363E+06</totfact>
</mgrwt>
</event>
<event>
 4    1  0.2165211E+000  0.2348357E+02  0.7546771E-02  0.1683789E+00
          2   -1    0    0  501    0  0.00000000000E+00  0.00000000000E+00  0.40931856679E+01  0.40931856679E+01  0.00000000000E+00 0.  1.
         -2   -1    0    0    0  501 -0.00000000000E+00 -0.00000000000E+00 -0.33682682625E+02  0.33682682625E+02  0.00000000000E+00 0. -1.
        -11    1    1    2    0    0  0.69029477579E+01 -0.86717980054E+01 -0.21028746353E+02  0.23770968461E+02  0.00000000000E+00 0. -1.
         11    1    1    2    0    0 -0.69029477579E+01  0.86717980054E+01 -0.85607506037E+01  0.14004899832E+02  0.00000000000E+00 0.  1.
<mgrwt>
<rscale>  0 0.23483566E+02</rscale>
<asrwt>0</asrwt>
<pdfrwt beam="1">  1        2 0.62972090E-03 0.23483566E+02</pdfrwt>
<pdfrwt beam="2">  1       -2 0.51819509E-02 0.23483566E+02</pdfrwt>
<totfact> 0.24987911E+06</totfact>
</mgrwt>
</event>
<event>
 4    1  0.2165211E+000  0.2174398E+02  0.7546771E-02  0.1712718E+00
         -3   -1    0    0    0  501 -0.00000000000E+00  0.00000000000E+00  0.21891089366E+02  0.21891089366E+02  0.00000000000E+00 0.  1.
          3   -1    0    0  501    0  0.00000000000E+00 -0.00000000000E+00 -0.53994660115E+01  0.53994660115E+01  0.00000000000E+00 0. -1.
        -13    1    1    2    0    0 -0.10525962395E+02  0.18451240308E+01  0.10755927911E+02  0.15162135478E+02  0.00000000000E+00 0. -1.
         13    1    1    2    0    0  0.10525962395E+02 -0.18451240308E+01  0.57356954435E+01  0.12128419899E+02  0.00000000000E+00 0.  1.
<mgrwt>
<rscale>  0 0.21743982E+02</rscale>
<asrwt>0</asrwt>
<pdfrwt beam="2">  1        3 0.83068709E-03 0.21743982E+02</pdfrwt>
<pdfrwt beam="1">  1       -3 0.33678599E-02 0.21743982E+02</pdfrwt>
<totfact> 0.14527784E+06</totfact>
</mgrwt>
</event>
<event>
 4    1  0.2165211E+000  0.3755513E+02  0.7546771E-02  0.1527015E+00
          4   -1    0    0  501    0  0.00000000000E+00  0.00000000000E+00  0.20132424257E+02  0.20132424257E+02  0.00000000000E+00 0. -1.
         -4   -1    0    0    0  501 -0.00000000000E+00 -0.00000000000E+00 -0.17513880544E+02  0.17513880544E+02  0.00000000000E+00 0.  1.
        -13    1    1    2    0    0  0.14153557915E+02 -0.57673799020E+01 -0.96264305646E+01  0.18062503647E+02  0.00000000000E+00 0.  1.
         13    1    1    2    0    0 -0.14153557915E+02  0.57673799020E+01  0.12244974278E+02  0.19583801154E+02  0.00000000000E+00 0. -1.
<mgrwt>
<rscale>  0 0.37555126E+02</rscale>
<asrwt>0</asrwt>
<pdfrwt beam="1">  1        4 0.30972961E-02 0.37555126E+02</pdfrwt>
<pdfrwt beam="2">  1       -4 0.26944431E-02 0.37555126E+02</pdfrwt>
<totfact> 0.30076730E+05</totfact>
</mgrwt>
</event>
<event>
 4    1  0.2165211E+000  0.3780189E+02  0.7546771E-02  0.1525040E+00
          1   -1    0    0  501    0  0.00000000000E+00  0.00000000000E+00  0.62560793324E+02  0.62560793324E+02  0.00000000000E+00 0.  1.
         -1   -1    0    0    0  501 -0.00000000000E+00 -0.00000000000E+00 -0.57103784281E+01  0.57103784281E+01  0.00000000000E+00 0. -1.
        -13    1    1    2    0    0 -0.44663695390E+01  0.11571712730E+02  0.54181988909E+02  0.55583638910E+02  0.00000000000E+00 0.  1.
         13    1    1    2    0    0  0.44663695390E+01 -0.11571712730E+02  0.26684259864E+01  0.12687532841E+02  0.00000000000E+00 0. -1.
<mgrwt>
<rscale>  0 0.37801894E+02</rscale>
<asrwt>0</asrwt>
<pdfrwt beam="1">  1        1 0.96247369E-02 0.37801894E+02</pdfrwt>
<pdfrwt beam="2">  1       -1 0.87851981E-03 0.37801894E+02</pdfrwt>
<totfact> 0.95885703E+05</totfact>
</mgrwt>
</event>
<event>
 4    1  0.2165211E+000  0.6390752E+02  0.7546771E-02  0.1382129E+00
         -4   -1    0    0    0  501 -0.00000000000E+00  0.00000000000E+00  0.22234266602E+03  0.22234266602E+03  0.00000000000E+00 0. -1.
          4   -1    0    0  501    0  0.00000000000E+00 -0.00000000000E+00 -0.45922031263E+01  0.45922031263E+01  0.00000000000E+00 0.  1.
        -11    1    1    2    0    0 -0.20661245915E+01 -0.30476128191E+02  0.75567899314E+02  0.81508101850E+02  0.00000000000E+00 0.  1.
         11    1    1    2    0    0  0.20661245915E+01  0.30476128191E+02  0.14218256358E+03  0.14542676730E+03  0.00000000000E+00 0. -1.
<mgrwt>
<rscale>  0 0.63907517E+02</rscale>
<asrwt>0</asrwt>
<pdfrwt beam="2">  1        4 0.70649296E-03 0.63907517E+02</pdfrwt>
<pdfrwt beam="1">  1       -4 0.34206556E-01 0.63907517E+02</pdfrwt>
<totfact> 0.51205460E+04</totfact>
</mgrwt>
</event>
<event>
 4    1  0.2165211E+000  0.4693965E+02  0.7546771E-02  0.1462584E+00
         -3   -1    0    0    0  501 -0.00000000000E+00  0.00000000000E+00  0.98251835351E+01  0.98251835351E+01  0.00000000000E+00 0.  1.
          3   -1    0    0  501    0  0.00000000000E+00 -0.00000000000E+00 -0.56063349925E+02  0.56063349925E+02  0.00000000000E+00 0. -1.
        -13    1    1    2    0    0  0.55571146332E+01 -0.16208283525E+02 -0.45632506540E+02  0.48743364995E+02  0.00000000000E+00 0. -1.
         13    1    1    2    0    0 -0.55571146332E+01  0.16208283525E+02 -0.60565984989E+00  0.17145168466E+02  0.00000000000E+00 0.  1.
<mgrwt>
<rscale>  0 0.46939651E+02</rscale>
<asrwt>0</asrwt>
<pdfrwt beam="2">  1        3 0.86251308E-02 0.46939651E+02</pdfrwt>
<pdfrwt beam="1">  1       -3 0.15115667E-02 0.46939651E+02</pdfrwt>
<totfact> 0.21244469E+05</totfact>
</mgrwt>
</event>
<event>
 4    1  0.2165211E+000  0.2195642E+02  0.7546771E-02  0.1709007E+00
          2   -1    0    0  501    0  0.00000000000E+00  0.00000000000E+00  0.74659411879E+01  0.74659411879E+01  0.00000000000E+00 0.  1.
         -2   -1    0    0    0  501 -0.00000000000E+00 -0.00000000000E+00 -0.16142783465E+02  0.16142783465E+02  0.00000000000E+00 0. -1.
        -11    1    1    2    0    0  0.32076406567E+01 -0.96178710732E+01 -0.88658236678E+01  0.13468304714E+02  0.00000000000E+00 0. -1.
         11    1    1    2    0    0 -0.32076406567E+01  0.96178710732E+01  0.18898139099E+00  0.10140419938E+02  0.00000000000E+00 0.  1.
<mgrwt>
<rscale>  0 0.21956418E+02</rscale>
<asrwt>0</asrwt>
<pdfrwt beam="1">  1        2 0.11486063E-02 0.21956418E+02</pdfrwt>
<pdfrwt beam="2">  1       -2 0.24835051E-02 0.21956418E+02</pdfrwt>
<totfact> 0.31078255E+06</totfact>
</mgrwt>
</event>
<event>
 4    1  0.2165211E+000  0.2260138E+02  0.7546771E-02  0.1698054E+00
         -2   -1    0    0    0  501 -0.00000000000E+00  0.00000000000E+00  0.17889379986E+02  0.17889379986E+02  0.00000000000E+00 0.  1.
          2   -1    0    0  501    0  0.00000000000E+00 -0.00000000000E+00 -0.71386265064E+01  0.71386265064E+01  0.00000000000E+00 0. -1.
        -11    1    1    2    0    0 -0.14803324888E+01 -0.10627607527E+02  0.14495835465E+01  0.10827682970E+02  0.00000000000E+00 0. -1.
         11    1    1    2    0    0  0.14803324888E+01  0.10627607527E+02  0.93011699334E+01  0.14200323523E+02  0.00000000000E+00 0.  1.
<mgrwt>
<rscale>  0 0.22601381E+02</rscale>
<asrwt>0</asrwt>
<pdfrwt beam="2">  1        2 0.10982502E-02 0.22601381E+02</pdfrwt>
<pdfrwt beam="1">  1       -2 0.27522123E-02 0.22601381E+02</pdfrwt>
<totfact> 0.28917100E+06</totfact>
</mgrwt>
</event>
<event>
 4    1  0.2165211E+000  0.2704259E+02  0.7546771E-02  0.1633286E+00
         -2   -1    0    0    0  501 -0.00000000000E+00  0.00000000000E+00  0.12775025992E+01  0.12775025992E+01  0.00000000000E+00 0.  1.
          2   -1    0    0  501    0  0.00000000000E+00 -0.00000000000E+00 -0.14311163094E+03  0.14311163094E+03  0.00000000000E+00 0. -1.
        -11    1    1    2    0    0 -0.10299732965E+02 -0.87600013290E+01 -0.70607656599E+02  0.71890634250E+02  0.00000000000E+00 0.  1.
         11    1    1    2    0    0  0.10299732965E+02  0.87600013290E+01 -0.71226471747E+02  0.72498499294E+02  0.00000000000E+00 0. -1.
<mgrwt>
<rscale>  0 0.27042595E+02</rscale>
<asrwt>0</asrwt>
<pdfrwt beam="2">  1        2 0.22017172E-01 0.27042595E+02</pdfrwt>
<pdfrwt beam="1">  1       -2 0.19653888E-03 0.27042595E+02</pdfrwt>
<totfact> 0.29220082E+06</totfact>
</mgrwt>
</event>
<event>
 4    1  0.2165211E+000  0.2667649E+02  0.7546771E-02  0.1638027E+00
         -4   -1    0    0    0  501 -0.00000000000E+00  0.00000000000E+00  0.53042929780E+01  0.53042929780E+01  0.00000000000E+00 0. -1.
          4   -1    0    0  501    0  0.00000000000E+00 -0.00000000000E+00 -0.33540514905E+02  0.33540514905E+02  0.00000000000E+00 0.  1.
        -13    1    1    2    0    0 -0.83564090295E+01  0.10261965183E+02 -0.11694072047E+02  0.17660374354E+02  0.00000000000E+00 0. -1.
         13    1    1    2    0    0  0.83564090295E+01 -0.10261965183E+02 -0.16542149880E+02  0.21184433529E+02  0.00000000000E+00 0.  1.
<mgrwt>
<rscale>  0 0.26676485E+02</rscale>
<asrwt>0</asrwt>
<pdfrwt beam="2">  1        4 0.51600793E-02 0.26676485E+02</pdfrwt>
<pdfrwt beam="1">  1       -4 0.81604506E-03 0.26676485E+02</pdfrwt>
<totfact> 0.65353350E+05</totfact>
</mgrwt>
</event>
<event>
 4    1  0.2165211E+000  0.5903802E+02  0.7546771E-02  0.1401914E+00
          2   -1    0    0  501    0  0.00000000000E+00  0.00000000000E+00  0.90785336396E+01  0.90785336396E+01  0.00000000000E+00 0.  1.
         -2   -1    0    0    0  501 -0.00000000000E+00 -0.00000000000E+00 -0.95981574851E+02  0.95981574851E+02  0.00000000000E+00 0. -1.
        -11    1    1    2    0    0  0.27582109720E+02 -0.98314916425E+01 -0.36807174163E+02  0.47034020393E+02  0.00000000000E+00 0. -1.
         11    1    1    2    0    0 -0.27582109720E+02  0.98314916425E+01 -0.50095867049E+02  0.58026088098E+02  0.00000000000E+00 0.  1.
<mgrwt>
<rscale>  0 0.59038020E+02</rscale>
<asrwt>0</asrwt>
<pdfrwt beam="1">  1        2 0.13966975E-02 0.59038020E+02</pdfrwt>
<pdfrwt beam="2">  1       -2 0.14766396E-01 0.59038020E+02</pdfrwt>
<totfact> 0.23729227E+05</totfact>
</mgrwt>
</event>
<event>
 4    1  0.2165211E+000  0.2508189E+02  0.7546771E-02  0.1659828E+00
         -2   -1    0    0    0  501 -0.00000000000E+00  0.00000000000E+00  0.56552263186E+01  0.56552263186E+01  0.00000000000E+00 0. -1.
          2   -1    0    0  501    0  0.00000000000E+00 -0.00000000000E+00 -0.27810613971E+02  0.27810613971E+02  0.00000000000E+00 0.  1.
        -13    1    1    2    0    0 -0.53513161085E+01 -0.92307593279E+01 -0.19870863238E+02  0.22554261409E+02  0.00000000000E+00 0.  1.
         13    1    1    2    0    0  0.53513161085E+01  0.92307593279E+01 -0.22845244136E+01  0.10911578880E+02  0.00000000000E+00 0. -1.
<mgrwt>
<rscale>  0 0.25081891E+02</rscale>
<asrwt>0</asrwt>
<pdfrwt beam="2">  1        2 0.42785560E-02 0.25081891E+02</pdfrwt>
<pdfrwt beam="1">  1       -2 0.87003482E-03 0.25081891E+02</pdfrwt>
<totfact> 0.25609232E+06</totfact>
</mgrwt>
</event>
<event>
 4    1  0.2165211E+000  0.2050824E+02  0.7546771E-02  0.1735406E+00
         -1   -1    0    0    0  501 -0.00000000000E+00  0.00000000000E+00  0.35014708469E+02  0.35014708469E+02  0.00000000000E+00 0. -1.
          1   -1    0    0  501    0  0.00000000000E+00 -0.00000000000E+00 -0.30029383147E+01  0.30029383147E+01  0.00000000000E+00 0.  1.
        -11    1    1    2    0    0 -0.27881281646E+01  0.98230666506E+01  0.17745583088E+02  0.20473690830E+02  0.00000000000E+00 0.  1.
         11    1    1    2    0    0  0.27881281646E+01 -0.98230666506E+01  0.14266187066E+02  0.17543955953E+02  0.00000000000E+00 0. -1.
<mgrwt>
<rscale>  0 0.20508243E+02</rscale>
<asrwt>0</asrwt>
<pdfrwt beam="2">  1        1 0.46199053E-03 0.20508243E+02</pdfrwt>
<pdfrwt beam="1">  1       -1 0.53868779E-02 0.20508243E+02</pdfrwt>
<totfact> 0.34124209E+06</totfact>
</mgrwt>
</event>
<event>
 4    1  0.2165211E+000  0.2584666E+02  0.7546771E-02  0.1649131E+00
         -3   -1    0    0    0  501 -0.00000000000E+00  0.00000000000E+00  0.19985254721E+01  0.19985254721E+01  0.00000000000E+00 0. -1.
          3   -1    0    0  501    0  0.00000000000E+00 -0.00000000000E+00 -0.83567826215E+02  0.83567826215E+02  0.00000000000E+00 0.  1.
        -13    1    1    2    0    0  0.10143561521E+02  0.74020307826E+01 -0.50896992707E+02  0.52423141519E+02  0.00000000000E+00 0. -1.
         13    1    1    2    0    0 -0.10143561521E+02 -0.74020307826E+01 -0.30672308035E+02  0.33143210168E+02  0.00000000000E+00 0.  1.
<mgrwt>
<rscale>  0 0.25846658E+02</rscale>
<asrwt>0</asrwt>
<pdfrwt beam="2">  1        3 0.12856587E-01 0.25846658E+02</pdfrwt>
<pdfrwt beam="1">  1       -3 0.30746549E-03 0.25846658E+02</pdfrwt>
<totfact> 0.83508870E+05</totfact>
</mgrwt>
</event>
<event>
 4    1  0.2165211E+000  0.2673341E+02  0.7546771E-02  0.1637284E+00
          4   -1    0    0  501    0  0.00000000000E+00  0.00000000000E+00  0.49353733382E+01  0.49353733382E+01  0.00000000000E+00 0.  1.
         -4   -1    0    0    0  501 -0.00000000000E+00 -0.00000000000E+00 -0.36201686330E+02  0.36201686330E+02  0.00000000000E+00 0. -1.
        -11    1    1    2    0    0  0.12084427638E+02 -0.23412092649E+01 -0.23651732207E+02  0.26663066000E+02  0.00000000000E+00 0. -1.
         11    1    1    2    0    0 -0.12084427638E+02  0.23412092649E+01 -0.76145807846E+01  0.14473993667E+02  0.00000000000E+00 0.  1.
<mgrwt>
<rscale>  0 0.26733413E+02</rscale>
<asrwt>0</asrwt>
<pdfrwt beam="1">  1        4 0.75928824E-03 0.26733413E+02</pdfrwt>
<pdfrwt beam="2">  1       -4 0.55694900E-02 0.26733413E+02</pdfrwt>
<totfact> 0.64500848E+05</totfact>
</mgrwt>
</event>
<event>
 4    1  0.2165211E+000  0.2924652E+02  0.7546771E-02  0.1606570E+00
          4   -1    0    0  501    0  0.00000000000E+00  0.00000000000E+00  0.43520490927E+01  0.43520490927E+01  0.00000000000E+00 0. -1.
         -4   -1    0    0    0  501 -0.00000000000E+00 -0.00000000000E+00 -0.49135426035E+02  0.49135426035E+02  0.00000000000E+00 0.  1.
        -13    1    1    2    0    0 -0.13387203423E+02  0.75834502333E+00 -0.11720314104E+02  0.17808932179E+02  0.00000000000E+00 0. -1.
         13    1    1    2    0    0  0.13387203423E+02 -0.75834502333E+00 -0.33063062839E+02  0.35678542949E+02  0.00000000000E+00 0.  1.
<mgrwt>
<rscale>  0 0.29246524E+02</rscale>
<asrwt>0</asrwt>
<pdfrwt beam="1">  1        4 0.66954604E-03 0.29246524E+02</pdfrwt>
<pdfrwt beam="2">  1       -4 0.75592960E-02 0.29246524E+02</pdfrwt>
<totfact> 0.50641433E+05</totfact>
</mgrwt>
</event>
<event>
 4    1  0.2165211E+000  0.3068175E+02  0.7546771E-02  0.1590673E+00
          2   -1    0    0  501    0  0.00000000000E+00  0.00000000000E+00  0.74498163312E+02  0.74498163312E+02  0.00000000000E+00 0.  1.
         -2   -1    0    0    0  501 -0.00000000000E+00 -0.00000000000E+00 -0.31590359090E+01  0.31590359090E+01  0.00000000000E+00 0. -1.
        -13    1    1    2    0    0 -0.22364731714E+01  0.15064983113E+02  0.31011565679E+02  0.34549569234E+02  0.00000000000E+00 0.  1.
         13    1    1    2    0    0  0.22364731714E+01 -0.15064983113E+02  0.40327561724E+02  0.43107629986E+02  0.00000000000E+00 0. -1.
<mgrwt>
<rscale>  0 0.30681745E+02</rscale>
<asrwt>0</asrwt>
<pdfrwt beam="1">  1        2 0.11461255E-01 0.30681745E+02</pdfrwt>
<pdfrwt beam="2">  1       -2 0.48600558E-03 0.30681745E+02</pdfrwt>
<totfact> 0.18550830E+06</totfact>
</mgrwt>
</event>
<event>
 4    1  0.2165211E+000  0.2184317E+02  0.7546771E-02  0.1710978E+00
         -4   -1    0    0    0  501 -0.00000000000E+00  0.00000000000E+00  0.65916668943E+02  0.65916668943E+02  0.00000000000E+00 0.  1.
          4   -1    0    0  501    0  0.00000000000E+00 -0.00000000000E+00 -0.18095731934E+01  0.18095731934E+01  0.00000000000E+00 0. -1.
        -11    1    1    2    0    0  0.60067995921E+01  0.85349972860E+01  0.42030064729E+02  0.43306514073E+02  0.00000000000E+00 0.  1.
         11    1    1    2    0    0 -0.60067995921E+01 -0.85349972860E+01  0.22077031020E+02  0.24419728063E+02  0.00000000000E+00 0. -1.
<mgrwt>
<rscale>  0 0.21843172E+02</rscale>
<asrwt>0</asrwt>
<pdfrwt beam="2">  1        4 0.27839593E-03 0.21843172E+02</pdfrwt>
<pdfrwt beam="1">  1       -4 0.10141024E-01 0.21843172E+02</pdfrwt>
<totfact> 0.90485189E+05</totfact>
</mgrwt>
</event>
<event>
 4    1  0.2165211E+000  0.4994717E+02  0.7546771E-02  0.1445627E+00
         -2   -1    0    0    0  501 -0.00000000000E+00  0.00000000000E+00  0.11310315009E+02  0.11310315009E+02  0.00000000000E+00 0. -1.
          2   -1    0    0  501    0  0.00000000000E+00 -0.00000000000E+00 -0.55142577072E+02  0.55142577072E+02  0.00000000000E+00 0.  1.
        -11    1    1    2    0    0 -0.15526420513E+02 -0.13724703174E+02 -0.33733286146E+01  0.20995631858E+02  0.00000000000E+00 0. -1.
         11    1    1    2    0    0  0.15526420513E+02  0.13724703174E+02 -0.40458933449E+02  0.45457260223E+02  0.00000000000E+00 0.  1.
<mgrwt>
<rscale>  0 0.49947169E+02</rscale>
<asrwt>0</asrwt>
<pdfrwt beam="2">  1        2 0.84834732E-02 0.49947169E+02</pdfrwt>
<pdfrwt beam="1">  1       -2 0.17400485E-02 0.49947169E+02</pdfrwt>
<totfact> 0.52424334E+05</totfact>
</mgrwt>
</event>
<event>
 4    1  0.2165211E+000  0.2525773E+02  0.7546771E-02  0.1657327E+00
         -2   -1    0    0    0  501 -0.00000000000E+00  0.00000000000E+00  0.47308888817E+02  0.47308888817E+02  0.00000000000E+00 0.  1.
          2   -1    0    0  501    0  0.00000000000E+00 -0.00000000000E+00 -0.33712100329E+01  0.33712100329E+01  0.00000000000E+00 0. -1.
        -13    1    1    2    0    0  0.86010746032E+01 -0.86272339830E+01  0.28648030029E+02  0.31130648485E+02  0.00000000000E+00 0. -1.
         13    1    1    2    0    0 -0.86010746032E+01  0.86272339830E+01  0.15289648754E+02  0.19549450365E+02  0.00000000000E+00 0.  1.
<mgrwt>
<rscale>  0 0.25257728E+02</rscale>
<asrwt>0</asrwt>
<pdfrwt beam="2">  1        2 0.51864773E-03 0.25257728E+02</pdfrwt>
<pdfrwt beam="1">  1       -2 0.72782901E-02 0.25257728E+02</pdfrwt>
<totfact> 0.20328903E+06</totfact>
</mgrwt>
</event>
<event>
 4    1  0.2165211E+000  0.4795961E+02  0.7546771E-02  0.1456668E+00
         -2   -1    0    0    0  501 -0.00000000000E+00  0.00000000000E+00  0.10464251866E+03  0.10464251866E+03  0.00000000000E+00 0. -1.
          2   -1    0    0  501    0  0.00000000000E+00 -0.00000000000E+00 -0.54951950906E+01  0.54951950906E+01  0.00000000000E+00 0.  1.
        -13    1    1    2    0    0  0.90233609966E+01  0.18985260656E+02  0.23072590489E+02  0.31212266783E+02  0.00000000000E+00 0.  1.
         13    1    1    2    0    0 -0.90233609966E+01 -0.18985260656E+02  0.76074733083E+02  0.78925446970E+02  0.00000000000E+00 0. -1.
<mgrwt>
<rscale>  0 0.47959610E+02</rscale>
<asrwt>0</asrwt>
<pdfrwt beam="2">  1        2 0.84541471E-03 0.47959610E+02</pdfrwt>
<pdfrwt beam="1">  1       -2 0.16098848E-01 0.47959610E+02</pdfrwt>
<totfact> 0.38617348E+05</totfact>
</mgrwt>
</event>
<event>
 4    1  0.2165211E+000  0.5328143E+02  0.7546771E-02  0.1428405E+00
          2   -1    0    0  501    0  0.00000000000E+00  0.00000000000E+00  0.73095596487E+01  0.73095596487E+01  0.00000000000E+00 0. -1.
         -2   -1    0    0    0  501 -0.00000000000E+00 -0.00000000000E+00 -0.97095809898E+02  0.97095809898E+02  0.00000000000E+00 0.  1.
        -13    1    1    2    0    0 -0.14616536159E+02 -0.15394762642E+02 -0.13352611143E+02  0.25078557982E+02  0.00000000000E+00 0. -1.
         13    1    1    2    0    0  0.14616536159E+02  0.15394762642E+02 -0.76433639106E+02  0.79326811565E+02  0.00000000000E+00 0.  1.
<mgrwt>
<rscale>  0 0.53281427E+02</rscale>
<asrwt>0</asrwt>
<pdfrwt beam="1">  1        2 0.11245476E-02 0.53281427E+02</pdfrwt>
<pdfrwt beam="2">  1       -2 0.14937817E-01 0.53281427E+02</pdfrwt>
<totfact> 0.30443070E+05</totfact>
</mgrwt>
</event>
<event>
 4    1  0.2165211E+000  0.2133371E+02  0.7546771E-02  0.1720037E+00
         -2   -1    0    0    0  501 -0.00000000000E+00  0.00000000000E+00  0.11273040545E+02  0.11273040545E+02  0.00000000000E+00 0.  1.
          2   -1    0    0  501    0  0.00000000000E+00 -0.00000000000E+00 -0.10093261975E+02  0.10093261975E+02  0.00000000000E+00 0. -1.
        -11    1    1    2    0    0 -0.96993403379E+01  0.41605024875E+01  0.21397574260E+01  0.10768729999E+02  0.00000000000E+00 0.  1.
         11    1    1    2    0    0  0.96993403379E+01 -0.41605024875E+01 -0.95997885556E+00  0.10597572521E+02  0.00000000000E+00 0. -1.
<mgrwt>
<rscale>  0 0.21333706E+02</rscale>
<asrwt>0</asrwt>
<pdfrwt beam="2">  1        2 0.15528095E-02 0.21333706E+02</pdfrwt>
<pdfrwt beam="1">  1       -2 0.17343139E-02 0.21333706E+02</pdfrwt>
<totfact> 0.34036292E+06</totfact>
</mgrwt>
</event>
<event>
 4    1  0.2165211E+000  0.2377780E+02  0.7546771E-02  0.1679204E+00
          2   -1    0    0  501    0  0.00000000000E+00  0.00000000000E+00  0.80398569368E+02  0.80398569368E+02  0.00000000000E+00 0. -1.
         -2   -1    0    0    0  501 -0.00000000000E+00 -0.00000000000E+00 -0.17580658502E+01  0.17580658502E+01  0.00000000000E+00 0.  1.
        -13    1    1    2    0    0 -0.75364546147E+01 -0.72868412031E+01  0.19943556923E+02  0.22530904678E+02  0.00000000000E+00 0.  1.
         13    1    1    2    0    0  0.75364546147E+01  0.72868412031E+01  0.58696946595E+02  0.59625730541E+02  0.00000000000E+00 0. -1.
<mgrwt>
<rscale>  0 0.23777803E+02</rscale>
<asrwt>0</asrwt>
<pdfrwt beam="1">  1        2 0.12369008E-01 0.23777803E+02</pdfrwt>
<pdfrwt beam="2">  1       -2 0.27047173E-03 0.23777803E+02</pdfrwt>
<totfact> 0.34127984E+06</totfact>
</mgrwt>
</event>
<event>
 4    1  0.2165211E+000  0.4142276E+02  0.7546771E-02  0.1497995E+00
          4   -1    0    0  501    0  0.00000000000E+00  0.00000000000E+00  0.52360912288E+01  0.52360912288E+01  0.00000000000E+00 0. -1.
         -4   -1    0    0    0  501 -0.00000000000E+00 -0.00000000000E+00 -0.81923945781E+02  0.81923945781E+02  0.00000000000E+00 0.  1.
        -11    1    1    2    0    0 -0.96208081232E+01 -0.13706864232E+02 -0.63987320606E+02  0.66142386368E+02  0.00000000000E+00 0.  1.
         11    1    1    2    0    0  0.96208081232E+01  0.13706864232E+02 -0.12700533946E+02  0.21017650642E+02  0.00000000000E+00 0. -1.
<mgrwt>
<rscale>  0 0.41422760E+02</rscale>
<asrwt>0</asrwt>
<pdfrwt beam="1">  1        4 0.80555256E-03 0.41422760E+02</pdfrwt>
<pdfrwt beam="2">  1       -4 0.12603683E-01 0.41422760E+02</pdfrwt>
<totfact> 0.20454547E+05</totfact>
</mgrwt>
</event>
<event>
 4    1  0.2165211E+000  0.2446552E+02  0.7546771E-02  0.1668800E+00
         -2   -1    0    0    0  501 -0.00000000000E+00  0.00000000000E+00  0.86364092449E+01  0.86364092449E+01  0.00000000000E+00 0. -1.
          2   -1    0    0  501    0  0.00000000000E+00 -0.00000000000E+00 -0.17326691533E+02  0.17326691533E+02  0.00000000000E+00 0.  1.
        -11    1    1    2    0    0  0.99422487078E+01 -0.31977745418E+01  0.24138983060E+01  0.10719187302E+02  0.00000000000E+00 0. -1.
         11    1    1    2    0    0 -0.99422487078E+01  0.31977745418E+01 -0.11104180594E+02  0.15243913476E+02  0.00000000000E+00 0.  1.
<mgrwt>
<rscale>  0 0.24465519E+02</rscale>
<asrwt>0</asrwt>
<pdfrwt beam="2">  1        2 0.26656448E-02 0.24465519E+02</pdfrwt>
<pdfrwt beam="1">  1       -2 0.13286784E-02 0.24465519E+02</pdfrwt>
<totfact> 0.25877415E+06</totfact>
</mgrwt>
</event>
<event>
 4    1  0.2165211E+000  0.3170274E+02  0.7546771E-02  0.1579995E+00
         -2   -1    0    0    0  501 -0.00000000000E+00  0.00000000000E+00  0.12216932866E+02  0.12216932866E+02  0.00000000000E+00 0.  1.
          2   -1    0    0  501    0  0.00000000000E+00 -0.00000000000E+00 -0.20567015929E+02  0.20567015929E+02  0.00000000000E+00 0. -1.
        -13    1    1    2    0    0  0.15206106663E+02 -0.17178389761E+00 -0.88009312356E+01  0.17570190101E+02  0.00000000000E+00 0. -1.
         13    1    1    2    0    0 -0.15206106663E+02  0.17178389761E+00  0.45084817255E+00  0.15213758695E+02  0.00000000000E+00 0.  1.
<mgrwt>
<rscale>  0 0.31702735E+02</rscale>
<asrwt>0</asrwt>
<pdfrwt beam="2">  1        2 0.31641563E-02 0.31702735E+02</pdfrwt>
<pdfrwt beam="1">  1       -2 0.18795281E-02 0.31702735E+02</pdfrwt>
<totfact> 0.14145120E+06</totfact>
</mgrwt>
</event>
<event>
 4    1  0.2165211E+000  0.2039217E+02  0.7546771E-02  0.1737640E+00
          1   -1    0    0  501    0  0.00000000000E+00  0.00000000000E+00  0.11296265139E+02  0.11296265139E+02  0.00000000000E+00 0.  1.
         -1   -1    0    0    0  501 -0.00000000000E+00 -0.00000000000E+00 -0.92030557026E+01  0.92030557026E+01  0.00000000000E+00 0. -1.
        -13    1    1    2    0    0 -0.10076106573E+02  0.14624576071E+01  0.15911626510E+01  0.10305265863E+02  0.00000000000E+00 0.  1.
         13    1    1    2    0    0  0.10076106573E+02 -0.14624576071E+01  0.50204678496E+00  0.10194054978E+02  0.00000000000E+00 0. -1.
<mgrwt>
<rscale>  0 0.20392171E+02</rscale>
<asrwt>0</asrwt>
<pdfrwt beam="1">  1        1 0.17378870E-02 0.20392171E+02</pdfrwt>
<pdfrwt beam="2">  1       -1 0.14158547E-02 0.20392171E+02</pdfrwt>
<totfact> 0.37139985E+06</totfact>
</mgrwt>
</event>
<event>
 4    1  0.2165211E+000  0.2194882E+02  0.7546771E-02  0.1709139E+00
         -4   -1    0    0    0  501 -0.00000000000E+00  0.00000000000E+00  0.18660687149E+01  0.18660687149E+01  0.00000000000E+00 0. -1.
          4   -1    0    0  501    0  0.00000000000E+00 -0.00000000000E+00 -0.64540845139E+02  0.64540845139E+02  0.00000000000E+00 0.  1.
        -13    1    1    2    0    0  0.30001747604E+00 -0.10938805837E+02 -0.33850892728E+02  0.35575699883E+02  0.00000000000E+00 0. -1.
         13    1    1    2    0    0 -0.30001747604E+00  0.10938805837E+02 -0.28823883695E+02  0.30831213971E+02  0.00000000000E+00 0.  1.
<mgrwt>
<rscale>  0 0.21948818E+02</rscale>
<asrwt>0</asrwt>
<pdfrwt beam="2">  1        4 0.99293610E-02 0.21948818E+02</pdfrwt>
<pdfrwt beam="1">  1       -4 0.28708749E-03 0.21948818E+02</pdfrwt>
<totfact> 0.89976010E+05</totfact>
</mgrwt>
</event>
<event>
 4    1  0.2165211E+000  0.3621851E+02  0.7546771E-02  0.1538039E+00
         -1   -1    0    0    0  501 -0.00000000000E+00  0.00000000000E+00  0.39709719626E+01  0.39709719626E+01  0.00000000000E+00 0. -1.
          1   -1    0    0  501    0  0.00000000000E+00 -0.00000000000E+00 -0.82585599943E+02  0.82585599943E+02  0.00000000000E+00 0.  1.
        -13    1    1    2    0    0 -0.11699638637E+02 -0.11198395396E+02 -0.19942280275E+02  0.25690078751E+02  0.00000000000E+00 0. -1.
         13    1    1    2    0    0  0.11699638637E+02  0.11198395396E+02 -0.58672347704E+02  0.60866493154E+02  0.00000000000E+00 0.  1.
<mgrwt>
<rscale>  0 0.36218509E+02</rscale>
<asrwt>0</asrwt>
<pdfrwt beam="2">  1        1 0.12705477E-01 0.36218509E+02</pdfrwt>
<pdfrwt beam="1">  1       -1 0.61091875E-03 0.36218509E+02</pdfrwt>
<totfact> 0.10956780E+06</totfact>
</mgrwt>
</event>
<event>
 4    1  0.2165211E+000  0.2715067E+02  0.7546771E-02  0.1631903E+00
         -2   -1    0    0    0  501 -0.00000000000E+00  0.00000000000E+00  0.91081590659E+01  0.91081590659E+01  0.00000000000E+00 0.  1.
          2   -1    0    0  501    0  0.00000000000E+00 -0.00000000000E+00 -0.20233479441E+02  0.20233479441E+02  0.00000000000E+00 0. -1.
        -11    1    1    2    0    0 -0.11577820124E+02 -0.46204645893E+01 -0.11371857913E+02  0.16873463315E+02  0.00000000000E+00 0.  1.
         11    1    1    2    0    0  0.11577820124E+02  0.46204645893E+01  0.24653753879E+00  0.12468175191E+02  0.00000000000E+00 0. -1.
<mgrwt>
<rscale>  0 0.27150672E+02</rscale>
<asrwt>0</asrwt>
<pdfrwt beam="2">  1        2 0.31128429E-02 0.27150672E+02</pdfrwt>
<pdfrwt beam="1">  1       -2 0.14012553E-02 0.27150672E+02</pdfrwt>
<totfact> 0.20532043E+06</totfact>
</mgrwt>
</event>
<event>
 4    1  0.2165211E+000  0.5309114E+02  0.7546771E-02  0.1429348E+00
         -2   -1    0    0    0  501 -0.00000000000E+00  0.00000000000E+00  0.14832605299E+02  0.14832605299E+02  0.00000000000E+00 0. -1.
          2   -1    0    0  501    0  0.00000000000E+00 -0.00000000000E+00 -0.47507985907E+02  0.47507985907E+02  0.00000000000E+00 0.  1.
        -11    1    1    2    0    0 -0.15768556572E+02  0.45891519873E-01 -0.41412621575E+02  0.44313143740E+02  0.00000000000E+00 0.  1.
         11    1    1    2    0    0  0.15768556572E+02 -0.45891519873E-01  0.87372409674E+01  0.18027447466E+02  0.00000000000E+00 0. -1.
<mgrwt>
<rscale>  0 0.53091137E+02</rscale>
<asrwt>0</asrwt>
<pdfrwt beam="2">  1        2 0.73089210E-02 0.53091137E+02</pdfrwt>
<pdfrwt beam="1">  1       -2 0.22819392E-02 0.53091137E+02</pdfrwt>
<totfact> 0.43499638E+05</totfact>
</mgrwt>
</event>
<event>
 4    1  0.2165211E+000  0.2560977E+02  0.7546771E-02  0.1652395E+00
          1   -1    0    0  501    0  0.00000000000E+00  0.00000000000E+00  0.20807926784E+02  0.20807926784E+02  0.00000000000E+00 0.  1.
         -1   -1    0    0    0  501 -0.00000000000E+00 -0.00000000000E+00 -0.78799337658E+01  0.78799337658E+01  0.00000000000E+00 0. -1.
        -13    1    1    2    0    0 -0.12762888887E+02 -0.78930320508E+00  0.72160722439E+01  0.14682848189E+02  0.00000000000E+00 0.  1.
         13    1    1    2    0    0  0.12762888887E+02  0.78930320508E+00  0.57119207741E+01  0.14005012361E+02  0.00000000000E+00 0. -1.
<mgrwt>
<rscale>  0 0.25609770E+02</rscale>
<asrwt>0</asrwt>
<pdfrwt beam="1">  1        1 0.32012195E-02 0.25609770E+02</pdfrwt>
<pdfrwt beam="2">  1       -1 0.12122975E-02 0.25609770E+02</pdfrwt>
<totfact> 0.22560294E+06</totfact>
</mgrwt>
</event>
<event>
 4    1  0.2165211E+000  0.4700510E+02  0.7546771E-02  0.1462199E+00
         -3   -1    0    0    0  501 -0.00000000000E+00  0.00000000000E+00  0.27803694715E+02  0.27803694715E+02  0.00000000000E+00 0. -1.
          3   -1    0    0  501    0  0.00000000000E+00 -0.00000000000E+00 -0.19866777991E+02  0.19866777991E+02  0.00000000000E+00 0.  1.
        -11    1    1    2    0    0  0.86671977136E+01  0.14483643482E+02  0.20554583497E+02  0.26596750693E+02  0.00000000000E+00 0.  1.
         11    1    1    2    0    0 -0.86671977136E+01 -0.14483643482E+02 -0.12617666772E+02  0.21073722013E+02  0.00000000000E+00 0. -1.
<mgrwt>
<rscale>  0 0.47005099E+02</rscale>
<asrwt>0</asrwt>
<pdfrwt beam="2">  1        3 0.30564274E-02 0.47005099E+02</pdfrwt>
<pdfrwt beam="1">  1       -3 0.42774915E-02 0.47005099E+02</pdfrwt>
<totfact> 0.22219606E+05</totfact>
</mgrwt>
</event>
<event>
 4    1  0.2165211E+000  0.2456314E+02  0.7546771E-02  0.1667357E+00
          1   -1    0    0  501    0  0.00000000000E+00  0.00000000000E+00  0.15647312433E+02  0.15647312433E+02  0.00000000000E+00 0. -1.
         -1   -1    0    0    0  501 -0.00000000000E+00 -0.00000000000E+00 -0.96398019074E+01  0.96398019074E+01  0.00000000000E+00 0.  1.
        -13    1    1    2    0    0 -0.10261424948E+02 -0.21107987132E+01  0.96024083118E+01  0.14211212424E+02  0.00000000000E+00 0. -1.
         13    1    1    2    0    0  0.10261424948E+02  0.21107987132E+01 -0.35948977858E+01  0.11075901917E+02  0.00000000000E+00 0.  1.
<mgrwt>
<rscale>  0 0.24563142E+02</rscale>
<asrwt>0</asrwt>
<pdfrwt beam="1">  1        1 0.24072788E-02 0.24563142E+02</pdfrwt>
<pdfrwt beam="2">  1       -1 0.14830464E-02 0.24563142E+02</pdfrwt>
<totfact> 0.24533958E+06</totfact>
</mgrwt>
</event>
<event>
 4    1  0.2165211E+000  0.2150098E+02  0.7546771E-02  0.1717028E+00
          4   -1    0    0  501    0  0.00000000000E+00  0.00000000000E+00  0.10686193872E+02  0.10686193872E+02  0.00000000000E+00 0. -1.
         -4   -1    0    0    0  501 -0.00000000000E+00 -0.00000000000E+00 -0.10815172810E+02  0.10815172810E+02  0.00000000000E+00 0.  1.
        -11    1    1    2    0    0  0.71847863051E+01  0.79956175444E+01  0.83767174548E-01  0.10749794003E+02  0.00000000000E+00 0.  1.
         11    1    1    2    0    0 -0.71847863051E+01 -0.79956175444E+01 -0.21274611170E+00  0.10751572679E+02  0.00000000000E+00 0. -1.
<mgrwt>
<rscale>  0 0.21500980E+02</rscale>
<asrwt>0</asrwt>
<pdfrwt beam="1">  1        4 0.16440298E-02 0.21500980E+02</pdfrwt>
<pdfrwt beam="2">  1       -4 0.16638727E-02 0.21500980E+02</pdfrwt>
<totfact> 0.11128084E+06</totfact>
</mgrwt>
</event>
<event>
 4    1  0.2165211E+000  0.2056283E+02  0.7546771E-02  0.1734362E+00
          2   -1    0    0  501    0  0.00000000000E+00  0.00000000000E+00  0.80370546650E+01  0.80370546650E+01  0.00000000000E+00 0.  1.
         -2   -1    0    0    0  501 -0.00000000000E+00 -0.00000000000E+00 -0.13152520401E+02  0.13152520401E+02  0.00000000000E+00 0. -1.
        -13    1    1    2    0    0 -0.67998699870E+01  0.76910854690E+01 -0.19780042682E+01  0.10454832778E+02  0.00000000000E+00 0.  1.
         13    1    1    2    0    0  0.67998699870E+01 -0.76910854690E+01 -0.31374614682E+01  0.10734742288E+02  0.00000000000E+00 0. -1.
<mgrwt>
<rscale>  0 0.20562833E+02</rscale>
<asrwt>0</asrwt>
<pdfrwt beam="1">  1        2 0.12364700E-02 0.20562833E+02</pdfrwt>
<pdfrwt beam="2">  1       -2 0.20234647E-02 0.20562833E+02</pdfrwt>
<totfact> 0.36427656E+06</totfact>
</mgrwt>
</event>
<event>
 4    1  0.2165211E+000  0.4122855E+02  0.7546771E-02  0.1499360E+00
         -2   -1    0    0    0  501 -0.00000000000E+00  0.00000000000E+00  0.21675068355E+01  0.21675068355E+01  0.00000000000E+00 0.  1.
          2   -1    0    0  501    0  0.00000000000E+00 -0.00000000000E+00 -0.19605394506E+03  0.19605394506E+03  0.00000000000E+00 0. -1.
        -11    1    1    2    0    0  0.10381578787E+02 -0.17760086795E+02 -0.90582270410E+02  0.92888888322E+02  0.00000000000E+00 0.  1.
         11    1    1    2    0    0 -0.10381578787E+02  0.17760086795E+02 -0.10330416782E+03  0.10533256358E+03  0.00000000000E+00 0. -1.
<mgrwt>
<rscale>  0 0.41228547E+02</rscale>
<asrwt>0</asrwt>
<pdfrwt beam="2">  1        2 0.30162145E-01 0.41228547E+02</pdfrwt>
<pdfrwt beam="1">  1       -2 0.33346259E-03 0.41228547E+02</pdfrwt>
<totfact> 0.11786203E+06</totfact>
</mgrwt>
</event>
<event>
 4    1  0.2165211E+000  0.6218065E+02  0.7546771E-02  0.1388902E+00
         -2   -1    0    0    0  501 -0.00000000000E+00  0.00000000000E+00  0.87209579063E+01  0.87209579063E+01  0.00000000000E+00 0. -1.
          2   -1    0    0  501    0  0.00000000000E+00 -0.00000000000E+00 -0.11083740251E+03  0.11083740251E+03  0.00000000000E+00 0.  1.
        -11    1    1    2    0    0 -0.17138593793E+02  0.25632187650E+02 -0.43399009163E+02  0.53237340629E+02  0.00000000000E+00 0.  1.
         11    1    1    2    0    0  0.17138593793E+02 -0.25632187650E+02 -0.58717435442E+02  0.66321019788E+02  0.00000000000E+00 0. -1.
<mgrwt>
<rscale>  0 0.62180650E+02</rscale>
<asrwt>0</asrwt>
<pdfrwt beam="2">  1        2 0.17051907E-01 0.62180650E+02</pdfrwt>
<pdfrwt beam="1">  1       -2 0.13416859E-02 0.62180650E+02</pdfrwt>
<totfact> 0.35183903E+05</totfact>
</mgrwt>
</event>
<event>
 4    1  0.2165211E+000  0.3115533E+02  0.7546771E-02  0.1585658E+00
          2   -1    0    0  501    0  0.00000000000E+00  0.00000000000E+00  0.65121000735E+01  0.65121000735E+01  0.00000000000E+00 0. -1.
         -2   -1    0    0    0  501 -0.00000000000E+00 -0.00000000000E+00 -0.37263511153E+02  0.37263511153E+02  0.00000000000E+00 0.  1.
        -11    1    1    2    0    0 -0.55564397989E+01 -0.13417104691E+02 -0.23295523369E+02  0.27451304715E+02  0.00000000000E+00 0.  1.
         11    1    1    2    0    0  0.55564397989E+01  0.13417104691E+02 -0.74558877113E+01  0.16324306512E+02  0.00000000000E+00 0. -1.
<mgrwt>
<rscale>  0 0.31155334E+02</rscale>
<asrwt>0</asrwt>
<pdfrwt beam="1">  1        2 0.10018616E-02 0.31155334E+02</pdfrwt>
<pdfrwt beam="2">  1       -2 0.57328478E-02 0.31155334E+02</pdfrwt>
<totfact> 0.12991801E+06</totfact>
</mgrwt>
</event>
<event>
 4    1  0.2165211E+000  0.2733803E+02  0.7546771E-02  0.1629526E+00
          2   -1    0    0  501    0  0.00000000000E+00  0.00000000000E+00  0.22541403718E+02  0.22541403718E+02  0.00000000000E+00 0.  1.
         -2   -1    0    0    0  501 -0.00000000000E+00 -0.00000000000E+00 -0.82888350279E+01  0.82888350279E+01  0.00000000000E+00 0. -1.
        -13    1    1    2    0    0  0.18546527169E+01 -0.12089124500E+02  0.14009696107E+02  0.18597264661E+02  0.00000000000E+00 0.  1.
         13    1    1    2    0    0 -0.18546527169E+01  0.12089124500E+02  0.24287258309E+00  0.12232974085E+02  0.00000000000E+00 0. -1.
<mgrwt>
<rscale>  0 0.27338030E+02</rscale>
<asrwt>0</asrwt>
<pdfrwt beam="1">  1        2 0.34679082E-02 0.27338030E+02</pdfrwt>
<pdfrwt beam="2">  1       -2 0.12752054E-02 0.27338030E+02</pdfrwt>
<totfact> 0.20426961E+06</totfact>
</mgrwt>
</event>
<event>
 4    1  0.2165211E+000  0.3375231E+02  0.7546771E-02  0.1559968E+00
         -2   -1    0    0    0  501 -0.00000000000E+00  0.00000000000E+00  0.35720139397E+01  0.35720139397E+01  0.00000000000E+00 0. -1.
          2   -1    0    0  501    0  0.00000000000E+00 -0.00000000000E+00 -0.79732230829E+02  0.79732230829E+02  0.00000000000E+00 0.  1.
        -11    1    1    2    0    0 -0.13125434142E+02  0.12974547216E+01 -0.64064954640E+02  0.65408553135E+02  0.00000000000E+00 0.  1.
         11    1    1    2    0    0  0.13125434142E+02 -0.12974547216E+01 -0.12095262249E+02  0.17895691633E+02  0.00000000000E+00 0. -1.
<mgrwt>
<rscale>  0 0.33752312E+02</rscale>
<asrwt>0</asrwt>
<pdfrwt beam="2">  1        2 0.12266498E-01 0.33752312E+02</pdfrwt>
<pdfrwt beam="1">  1       -2 0.54954055E-03 0.33752312E+02</pdfrwt>
<totfact> 0.14979443E+06</totfact>
</mgrwt>
</event>
<event>
 4    1  0.2165211E+000  0.2452020E+02  0.7546771E-02  0.1667991E+00
          2   -1    0    0  501    0  0.00000000000E+00  0.00000000000E+00  0.71981152304E+02  0.71981152304E+02  0.00000000000E+00 0.  1.
         -2   -1    0    0    0  501 -0.00000000000E+00 -0.00000000000E+00 -0.20881869382E+01  0.20881869382E+01  0.00000000000E+00 0. -1.
        -11    1    1    2    0    0 -0.41266020931E+01  0.10054655653E+02  0.17809190341E+02  0.20863657535E+02  0.00000000000E+00 0. -1.
         11    1    1    2    0    0  0.41266020931E+01 -0.10054655653E+02  0.52083775025E+02  0.53205681708E+02  0.00000000000E+00 0.  1.
<mgrwt>
<rscale>  0 0.24520204E+02</rscale>
<asrwt>0</asrwt>
<pdfrwt beam="1">  1        2 0.11074022E-01 0.24520204E+02</pdfrwt>
<pdfrwt beam="2">  1       -2 0.32125958E-03 0.24520204E+02</pdfrwt>
<totfact> 0.31110664E+06</totfact>
</mgrwt>
</event>
<event>
 4    1  0.2165211E+000  0.2382030E+02  0.7546771E-02  0.1678548E+00
          2   -1    0    0  501    0  0.00000000000E+00  0.00000000000E+00  0.88911141195E+01  0.88911141195E+01  0.00000000000E+00 0. -1.
         -2   -1    0    0    0  501 -0.00000000000E+00 -0.00000000000E+00 -0.15954321414E+02  0.15954321414E+02  0.00000000000E+00 0.  1.
        -13    1    1    2    0    0  0.98393884352E+01  0.66890999969E+01 -0.29659848112E+01  0.12261920300E+02  0.00000000000E+00 0.  1.
         13    1    1    2    0    0 -0.98393884352E+01 -0.66890999969E+01 -0.40972224833E+01  0.12583515233E+02  0.00000000000E+00 0. -1.
<mgrwt>
<rscale>  0 0.23820302E+02</rscale>
<asrwt>0</asrwt>
<pdfrwt beam="1">  1        2 0.13678637E-02 0.23820302E+02</pdfrwt>
<pdfrwt beam="2">  1       -2 0.24545110E-02 0.23820302E+02</pdfrwt>
<totfact> 0.26010597E+06</totfact>
</mgrwt>
</event>
<event>
 4    1  0.2165211E+000  0.2157870E+02  0.7546771E-02  0.1715642E+00
          2   -1    0    0  501    0  0.00000000000E+00  0.00000000000E+00  0.80773686410E+01  0.80773686410E+01  0.00000000000E+00 0. -1.
         -2   -1    0    0    0  501 -0.00000000000E+00 -0.00000000000E+00 -0.14411886179E+02  0.14411886179E+02  0.00000000000E+00 0.  1.
        -13    1    1    2    0    0  0.61951598145E+01 -0.88334066931E+01 -0.32008450906E+01  0.11254087623E+02  0.00000000000E+00 0. -1.
         13    1    1    2    0    0 -0.61951598145E+01  0.88334066931E+01 -0.31336724470E+01  0.11235167197E+02  0.00000000000E+00 0.  1.
<mgrwt>
<rscale>  0 0.21578704E+02</rscale>
<asrwt>0</asrwt>
<pdfrwt beam="1">  1        2 0.12426721E-02 0.21578704E+02</pdfrwt>
<pdfrwt beam="2">  1       -2 0.22172132E-02 0.21578704E+02</pdfrwt>
<totfact> 0.32573988E+06</totfact>
</mgrwt>
</event>
<event>
 4    1  0.2165211E+000  0.2354997E+02  0.7546771E-02  0.1682747E+00
         -2   -1    0    0    0  501 -0.00000000000E+00  0.00000000000E+00  0.64319812352E+01  0.64319812352E+01  0.00000000000E+00 0.  1.
          2   -1    0    0  501    0  0.00000000000E+00 -0.00000000000E+00 -0.21556381670E+02  0.21556381670E+02  0.00000000000E+00 0. -1.
        -11    1    1    2    0    0  0.98311837436E+01  0.45383134183E+01 -0.13060293843E+02  0.16965250889E+02  0.00000000000E+00 0. -1.
         11    1    1    2    0    0 -0.98311837436E+01 -0.45383134183E+01 -0.20641065917E+01  0.11023112015E+02  0.00000000000E+00 0.  1.
<mgrwt>
<rscale>  0 0.23549968E+02</rscale>
<asrwt>0</asrwt>
<pdfrwt beam="2">  1        2 0.33163664E-02 0.23549968E+02</pdfrwt>
<pdfrwt beam="1">  1       -2 0.98953558E-03 0.23549968E+02</pdfrwt>
<totfact> 0.28874289E+06</totfact>
</mgrwt>
</event>
<event>
 4    1  0.2165211E+000  0.3720072E+02  0.7546771E-02  0.1529883E+00
          1   -1    0    0  501    0  0.00000000000E+00  0.00000000000E+00  0.13207200478E+02  0.13207200478E+02  0.00000000000E+00 0.  1.
         -1   -1    0    0    0  501 -0.00000000000E+00 -0.00000000000E+00 -0.26195811509E+02  0.26195811509E+02  0.00000000000E+00 0. -1.
        -13    1    1    2    0    0  0.12009591321E+02 -0.36015128703E+01 -0.21047122885E+02  0.24498623642E+02  0.00000000000E+00 0. -1.
         13    1    1    2    0    0 -0.12009591321E+02  0.36015128703E+01  0.80585118535E+01  0.14904388345E+02  0.00000000000E+00 0.  1.
<mgrwt>
<rscale>  0 0.37200717E+02</rscale>
<asrwt>0</asrwt>
<pdfrwt beam="1">  1        1 0.20318770E-02 0.37200717E+02</pdfrwt>
<pdfrwt beam="2">  1       -1 0.40301248E-02 0.37200717E+02</pdfrwt>
<totfact> 0.88621318E+05</totfact>
</mgrwt>
</event>
<event>
 4    1  0.2165211E+000  0.3704214E+02  0.7546771E-02  0.1531179E+00
          2   -1    0    0  501    0  0.00000000000E+00  0.00000000000E+00  0.24423157568E+02  0.24423157568E+02  0.00000000000E+00 0. -1.
         -2   -1    0    0    0  501 -0.00000000000E+00 -0.00000000000E+00 -0.14045277228E+02  0.14045277228E+02  0.00000000000E+00 0.  1.
        -13    1    1    2    0    0 -0.18181084046E+00  0.16846097523E+02 -0.28018766937E+01  0.17078482659E+02  0.00000000000E+00 0.  1.
         13    1    1    2    0    0  0.18181084046E+00 -0.16846097523E+02  0.13179757034E+02  0.21389952137E+02  0.00000000000E+00 0. -1.
<mgrwt>
<rscale>  0 0.37042139E+02</rscale>
<asrwt>0</asrwt>
<pdfrwt beam="1">  1        2 0.37574089E-02 0.37042139E+02</pdfrwt>
<pdfrwt beam="2">  1       -2 0.21608119E-02 0.37042139E+02</pdfrwt>
<totfact> 0.98226045E+05</totfact>
</mgrwt>
</event>
<event>
 4    1  0.2165211E+000  0.2282341E+02  0.7546771E-02  0.1694389E+00
         -2   -1    0    0    0  501 -0.00000000000E+00  0.00000000000E+00  0.13399215449E+01  0.13399215449E+01  0.00000000000E+00 0. -1.
          2   -1    0    0  501    0  0.00000000000E+00 -0.00000000000E+00 -0.97190067182E+02  0.97190067182E+02  0.00000000000E+00 0.  1.
        -13    1    1    2    0    0  0.73091363464E+01  0.87496862620E+01 -0.50068791287E+02  0.51350407445E+02  0.00000000000E+00 0. -1.
         13    1    1    2    0    0 -0.73091363464E+01 -0.87496862620E+01 -0.45781354351E+02  0.47179581282E+02  0.00000000000E+00 0.  1.
<mgrwt>
<rscale>  0 0.22823415E+02</rscale>
<asrwt>0</asrwt>
<pdfrwt beam="2">  1        2 0.14952322E-01 0.22823415E+02</pdfrwt>
<pdfrwt beam="1">  1       -2 0.20614172E-03 0.22823415E+02</pdfrwt>
<totfact> 0.39030849E+06</totfact>
</mgrwt>
</event>
<event>
 4    1  0.2165211E+000  0.2228948E+02  0.7546771E-02  0.1703293E+00
         -2   -1    0    0    0  501 -0.00000000000E+00  0.00000000000E+00  0.29275160653E+02  0.29275160653E+02  0.00000000000E+00 0. -1.
          2   -1    0    0  501    0  0.00000000000E+00 -0.00000000000E+00 -0.42426830383E+01  0.42426830383E+01  0.00000000000E+00 0.  1.
        -11    1    1    2    0    0 -0.48099440516E+01  0.96671880548E+01  0.16665923601E+02  0.19858073828E+02  0.00000000000E+00 0. -1.
         11    1    1    2    0    0  0.48099440516E+01 -0.96671880548E+01  0.83665540137E+01  0.13659769864E+02  0.00000000000E+00 0.  1.
<mgrwt>
<rscale>  0 0.22289480E+02</rscale>
<asrwt>0</asrwt>
<pdfrwt beam="2">  1        2 0.65272049E-03 0.22289480E+02</pdfrwt>
<pdfrwt beam="1">  1       -2 0.45038707E-02 0.22289480E+02</pdfrwt>
<totfact> 0.28488164E+06</totfact>
</mgrwt>
</event>
<event>
 4    1  0.2165211E+000  0.2282835E+02  0.7546771E-02  0.1694308E+00
          4   -1    0    0  501    0  0.00000000000E+00  0.00000000000E+00  0.23485483234E+02  0.23485483234E+02  0.00000000000E+00 0.  1.
         -4   -1    0    0    0  501 -0.00000000000E+00 -0.00000000000E+00 -0.55474028656E+01  0.55474028656E+01  0.00000000000E+00 0. -1.
        -11    1    1    2    0    0  0.11245101824E+02 -0.17922270433E+01  0.79684034643E+01  0.13898195803E+02  0.00000000000E+00 0. -1.
         11    1    1    2    0    0 -0.11245101824E+02  0.17922270433E+01  0.99696769039E+01  0.15134690297E+02  0.00000000000E+00 0.  1.
<mgrwt>
<rscale>  0 0.22828354E+02</rscale>
<asrwt>0</asrwt>
<pdfrwt beam="1">  1        4 0.36131512E-02 0.22828354E+02</pdfrwt>
<pdfrwt beam="2">  1       -4 0.85344661E-03 0.22828354E+02</pdfrwt>
<totfact> 0.95005234E+05</totfact>
</mgrwt>
</event>
<event>
 4    1  0.2165211E+000  0.2501543E+02  0.7546771E-02  0.1660780E+00
         -1   -1    0    0    0  501 -0.00000000000E+00  0.00000000000E+00  0.15521361380E+01  0.15521361380E+01  0.00000000000E+00 0. -1.
          1   -1    0    0  501    0  0.00000000000E+00 -0.00000000000E+00 -0.10079205849E+03  0.10079205849E+03  0.00000000000E+00 0.  1.
        -13    1    1    2    0    0 -0.10652628493E+02  0.65430244545E+01 -0.48017919512E+02  0.49618648280E+02  0.00000000000E+00 0.  1.
         13    1    1    2    0    0  0.10652628493E+02 -0.65430244545E+01 -0.51222002839E+02  0.52725546347E+02  0.00000000000E+00 0. -1.
<mgrwt>
<rscale>  0 0.25015435E+02</rscale>
<asrwt>0</asrwt>
<pdfrwt beam="2">  1        1 0.15506471E-01 0.25015435E+02</pdfrwt>
<pdfrwt beam="1">  1       -1 0.23879017E-03 0.25015435E+02</pdfrwt>
<totfact> 0.26841117E+06</totfact>
</mgrwt>
</event>
<event>
 4    1  0.2165211E+000  0.2813174E+02  0.7546771E-02  0.1619708E+00
          1   -1    0    0  501    0  0.00000000000E+00  0.00000000000E+00  0.10723412907E+03  0.10723412907E+03  0.00000000000E+00 0. -1.
         -1   -1    0    0    0  501 -0.00000000000E+00 -0.00000000000E+00 -0.18450158941E+01  0.18450158941E+01  0.00000000000E+00 0.  1.
        -11    1    1    2    0    0 -0.10955564859E+02  0.85349811937E+01  0.61346000990E+02  0.62898347695E+02  0.00000000000E+00 0.  1.
         11    1    1    2    0    0  0.10955564859E+02 -0.85349811937E+01  0.44043112190E+02  0.46180797272E+02  0.00000000000E+00 0. -1.
<mgrwt>
<rscale>  0 0.28131738E+02</rscale>
<asrwt>0</asrwt>
<pdfrwt beam="1">  1        1 0.16497553E-01 0.28131738E+02</pdfrwt>
<pdfrwt beam="2">  1       -1 0.28384868E-03 0.28131738E+02</pdfrwt>
<totfact> 0.20610927E+06</totfact>
</mgrwt>
</event>
<event>
 4    1  0.2165211E+000  0.2024323E+02  0.7546771E-02  0.1740534E+00
         -2   -1    0    0    0  501 -0.00000000000E+00  0.00000000000E+00  0.38057565485E+01  0.38057565485E+01  0.00000000000E+00 0.  1.
          2   -1    0    0  501    0  0.00000000000E+00 -0.00000000000E+00 -0.26918977828E+02  0.26918977828E+02  0.00000000000E+00 0. -1.
        -11    1    1    2    0    0 -0.98295689574E+01 -0.20569739959E+01 -0.13473768538E+02  0.16804582902E+02  0.00000000000E+00 0.  1.
         11    1    1    2    0    0  0.98295689574E+01  0.20569739959E+01 -0.96394527422E+01  0.13920151475E+02  0.00000000000E+00 0. -1.
<mgrwt>
<rscale>  0 0.20243229E+02</rscale>
<asrwt>0</asrwt>
<pdfrwt beam="2">  1        2 0.41413812E-02 0.20243229E+02</pdfrwt>
<pdfrwt beam="1">  1       -2 0.58550101E-03 0.20243229E+02</pdfrwt>
<totfact> 0.41727125E+06</totfact>
</mgrwt>
</event>
<event>
 4    1  0.2165211E+000  0.6623915E+02  0.7546771E-02  0.1373370E+00
          2   -1    0    0  501    0  0.00000000000E+00  0.00000000000E+00  0.29901714570E+03  0.29901714570E+03  0.00000000000E+00 0.  1.
         -2   -1    0    0    0  501 -0.00000000000E+00 -0.00000000000E+00 -0.36683724490E+01  0.36683724490E+01  0.00000000000E+00 0. -1.
        -13    1    1    2    0    0  0.29756521984E+02 -0.12539768412E+02  0.11402973317E+03  0.11851361289E+03  0.00000000000E+00 0.  1.
         13    1    1    2    0    0 -0.29756521984E+02  0.12539768412E+02  0.18131904008E+03  0.18417190527E+03  0.00000000000E+00 0. -1.
<mgrwt>
<rscale>  0 0.66239150E+02</rscale>
<asrwt>0</asrwt>
<pdfrwt beam="1">  1        2 0.46002618E-01 0.66239150E+02</pdfrwt>
<pdfrwt beam="2">  1       -2 0.56436523E-03 0.66239150E+02</pdfrwt>
<totfact> 0.41454554E+05</totfact>
</mgrwt>
</event>
<event>
 4    1  0.2165211E+000  0.2213718E+02  0.7546771E-02  0.1705890E+00
         -2   -1    0    0    0  501 -0.00000000000E+00  0.00000000000E+00  0.58810136333E+01  0.58810136333E+01  0.00000000000E+00 0. -1.
          2   -1    0    0  501    0  0.00000000000E+00 -0.00000000000E+00 -0.20832065147E+02  0.20832065147E+02  0.00000000000E+00 0.  1.
        -13    1    1    2    0    0  0.73715815624E+01  0.79335827151E+01 -0.47154340446E+01  0.11811742787E+02  0.00000000000E+00 0. -1.
         13    1    1    2    0    0 -0.73715815624E+01 -0.79335827151E+01 -0.10235617470E+02  0.14901335994E+02  0.00000000000E+00 0.  1.
<mgrwt>
<rscale>  0 0.22137178E+02</rscale>
<asrwt>0</asrwt>
<pdfrwt beam="2">  1        2 0.32049331E-02 0.22137178E+02</pdfrwt>
<pdfrwt beam="1">  1       -2 0.90477132E-03 0.22137178E+02</pdfrwt>
<totfact> 0.33197263E+06</totfact>
</mgrwt>
</event>
<event>
 4    1  0.2165211E+000  0.4322842E+02  0.7546771E-02  0.1485714E+00
          2   -1    0    0  501    0  0.00000000000E+00  0.00000000000E+00  0.95972642522E+02  0.95972642522E+02  0.00000000000E+00 0.  1.
         -2   -1    0    0    0  501 -0.00000000000E+00 -0.00000000000E+00 -0.48677836854E+01  0.48677836854E+01  0.00000000000E+00 0. -1.
        -13    1    1    2    0    0 -0.41196788847E+01  0.19964004842E+02  0.62315820625E+02  0.65565194605E+02  0.00000000000E+00 0.  1.
         13    1    1    2    0    0  0.41196788847E+01 -0.19964004842E+02  0.28789038212E+02  0.35275231602E+02  0.00000000000E+00 0. -1.
<mgrwt>
<rscale>  0 0.43228420E+02</rscale>
<asrwt>0</asrwt>
<pdfrwt beam="1">  1        2 0.14765021E-01 0.43228420E+02</pdfrwt>
<pdfrwt beam="2">  1       -2 0.74888987E-03 0.43228420E+02</pdfrwt>
<totfact> 0.85369879E+05</totfact>
</mgrwt>
</event>
<event>
 4    1  0.2165211E+000  0.7206175E+02  0.7546771E-02  0.1353219E+00
          3   -1    0    0  501    0  0.00000000000E+00  0.00000000000E+00  0.37996535991E+02  0.37996535991E+02  0.00000000000E+00 0. -1.
         -3   -1    0    0    0  501 -0.00000000000E+00 -0.00000000000E+00 -0.34166898887E+02  0.34166898887E+02  0.00000000000E+00 0.  1.
        -11    1    1    2    0    0  0.84672328014E+01  0.25090772801E+02  0.26382530562E+02  0.37380193016E+02  0.00000000000E+00 0. -1.
         11    1    1    2    0    0 -0.84672328014E+01 -0.25090772801E+02 -0.22552893458E+02  0.34783241862E+02  0.00000000000E+00 0.  1.
<mgrwt>
<rscale>  0 0.72061746E+02</rscale>
<asrwt>0</asrwt>
<pdfrwt beam="1">  1        3 0.58456209E-02 0.72061746E+02</pdfrwt>
<pdfrwt beam="2">  1       -3 0.52564460E-02 0.72061746E+02</pdfrwt>
<totfact> 0.69417526E+04</totfact>
</mgrwt>
</event>
<event>
 4    1  0.2165211E+000  0.2685396E+02  0.7546771E-02  0.1635717E+00
         -2   -1    0    0    0  501 -0.00000000000E+00  0.00000000000E+00  0.77332352904E+02  0.77332352904E+02  0.00000000000E+00 0. -1.
          2   -1    0    0  501    0  0.00000000000E+00 -0.00000000000E+00 -0.23312852915E+01  0.23312852915E+01  0.00000000000E+00 0.  1.
        -13    1    1    2    0    0  0.45497649524E+01 -0.11521519996E+02  0.52868869292E+02  0.54300673333E+02  0.00000000000E+00 0. -1.
         13    1    1    2    0    0 -0.45497649524E+01  0.11521519996E+02  0.22132198320E+02  0.25362964863E+02  0.00000000000E+00 0.  1.
<mgrwt>
<rscale>  0 0.26853959E+02</rscale>
<asrwt>0</asrwt>
<pdfrwt beam="2">  1        2 0.35865934E-03 0.26853959E+02</pdfrwt>
<pdfrwt beam="1">  1       -2 0.11897283E-01 0.26853959E+02</pdfrwt>
<totfact> 0.16286809E+06</totfact>
</mgrwt>
</event>
<event>
 4    1  0.2165211E+000  0.3654773E+02  0.7546771E-02  0.1535271E+00
         -4   -1    0    0    0  501 -0.00000000000E+00  0.00000000000E+00  0.73264566139E+01  0.73264566139E+01  0.00000000000E+00 0. -1.
          4   -1    0    0  501    0  0.00000000000E+00 -0.00000000000E+00 -0.45579219683E+02  0.45579219683E+02  0.00000000000E+00 0.  1.
        -11    1    1    2    0    0 -0.65846509931E+01 -0.13433283323E+02 -0.39355433643E+01  0.15469299632E+02  0.00000000000E+00 0. -1.
         11    1    1    2    0    0  0.65846509931E+01  0.13433283323E+02 -0.34317219705E+02  0.37436376665E+02  0.00000000000E+00 0.  1.
<mgrwt>
<rscale>  0 0.36547732E+02</rscale>
<asrwt>0</asrwt>
<pdfrwt beam="2">  1        4 0.70121877E-02 0.36547732E+02</pdfrwt>
<pdfrwt beam="1">  1       -4 0.11271472E-02 0.36547732E+02</pdfrwt>
<totfact> 0.30461606E+05</totfact>
</mgrwt>
</event>
<event>
 4    1  0.2165211E+000  0.2798971E+02  0.7546771E-02  0.1621435E+00
         -2   -1    0    0    0  501 -0.00000000000E+00  0.00000000000E+00  0.87398459738E+01  0.87398459738E+01  0.00000000000E+00 0.  1.
          2   -1    0    0  501    0  0.00000000000E+00 -0.00000000000E+00 -0.22409547664E+02  0.22409547664E+02  0.00000000000E+00 0. -1.
        -13    1    1    2    0    0  0.95637434648E+01 -0.96420711035E+01 -0.30738071482E+01  0.13924188113E+02  0.00000000000E+00 0. -1.
         13    1    1    2    0    0 -0.95637434648E+01  0.96420711035E+01 -0.10595894542E+02  0.17225205525E+02  0.00000000000E+00 0.  1.
<mgrwt>
<rscale>  0 0.27989712E+02</rscale>
<asrwt>0</asrwt>
<pdfrwt beam="2">  1        2 0.34476226E-02 0.27989712E+02</pdfrwt>
<pdfrwt beam="1">  1       -2 0.13445917E-02 0.27989712E+02</pdfrwt>
<totfact> 0.19299215E+06</totfact>
</mgrwt>
</event>
<event>
 4    1  0.2165211E+000  0.2364133E+02  0.7546771E-02  0.1681320E+00
         -4   -1    0    0    0  501 -0.00000000000E+00  0.00000000000E+00  0.28716371429E+02  0.28716371429E+02  0.00000000000E+00 0.  1.
          4   -1    0    0  501    0  0.00000000000E+00 -0.00000000000E+00 -0.48658018626E+01  0.48658018626E+01  0.00000000000E+00 0. -1.
        -13    1    1    2    0    0 -0.11556302534E+02  0.24808573510E+01  0.11698931703E+02  0.16630327250E+02  0.00000000000E+00 0.  1.
         13    1    1    2    0    0  0.11556302534E+02 -0.24808573510E+01  0.12151637863E+02  0.16951846041E+02  0.00000000000E+00 0. -1.
<mgrwt>
<rscale>  0 0.23641334E+02</rscale>
<asrwt>0</asrwt>
<pdfrwt beam="2">  1        4 0.74858492E-03 0.23641334E+02</pdfrwt>
<pdfrwt beam="1">  1       -4 0.44179032E-02 0.23641334E+02</pdfrwt>
<totfact> 0.86607714E+05</totfact>
</mgrwt>
</event>
<event>
 4    1  0.2165211E+000  0.5156953E+02  0.7546771E-02  0.1437055E+00
          2   -1    0    0  501    0  0.00000000000E+00  0.00000000000E+00  0.51231584274E+02  0.51231584274E+02  0.00000000000E+00 0. -1.
         -2   -1    0    0    0  501 -0.00000000000E+00 -0.00000000000E+00 -0.12977424861E+02  0.12977424861E+02  0.00000000000E+00 0.  1.
        -13    1    1    2    0    0  0.10813232155E+02 -0.59247869119E+00 -0.10008618011E+02  0.14746167472E+02  0.00000000000E+00 0.  1.
         13    1    1    2    0    0 -0.10813232155E+02  0.59247869119E+00  0.48262777424E+02  0.49462841663E+02  0.00000000000E+00 0. -1.
<mgrwt>
<rscale>  0 0.51569527E+02</rscale>
<asrwt>0</asrwt>
<pdfrwt beam="1">  1        2 0.78817821E-02 0.51569527E+02</pdfrwt>
<pdfrwt beam="2">  1       -2 0.19965269E-02 0.51569527E+02</pdfrwt>
<totfact> 0.47594795E+05</totfact>
</mgrwt>
</event>
<event>
 4    1  0.2165211E+000  0.2976922E+02  0.7546771E-02  0.1600654E+00
          2   -1    0    0  501    0  0.00000000000E+00  0.00000000000E+00  0.66424060895E+01  0.66424060895E+01  0.00000000000E+00 0.  1.
         -2   -1    0    0    0  501 -0.00000000000E+00 -0.00000000000E+00 -0.33354120765E+02  0.33354120765E+02  0.00000000000E+00 0. -1.
        -13    1    1    2    0    0  0.10193097045E+02  0.80795275574E+01 -0.36326145675E+01  0.13504587425E+02  0.00000000000E+00 0.  1.
         13    1    1    2    0    0 -0.10193097045E+02 -0.80795275574E+01 -0.23079100108E+02  0.26491939429E+02  0.00000000000E+00 0. -1.
<mgrwt>
<rscale>  0 0.29769220E+02</rscale>
<asrwt>0</asrwt>
<pdfrwt beam="1">  1        2 0.10219086E-02 0.29769220E+02</pdfrwt>
<pdfrwt beam="2">  1       -2 0.51314032E-02 0.29769220E+02</pdfrwt>
<totfact> 0.14625828E+06</totfact>
</mgrwt>
</event>
<event>
 4    1  0.2165211E+000  0.3005569E+02  0.7546771E-02  0.1597474E+00
         -2   -1    0    0    0  501 -0.00000000000E+00  0.00000000000E+00  0.10720024559E+02  0.10720024559E+02  0.00000000000E+00 0.  1.
          2   -1    0    0  501    0  0.00000000000E+00 -0.00000000000E+00 -0.21066752131E+02  0.21066752131E+02  0.00000000000E+00 0. -1.
        -13    1    1    2    0    0  0.13169511930E+02 -0.72275968027E+01 -0.55989068229E+01  0.16031904367E+02  0.00000000000E+00 0. -1.
         13    1    1    2    0    0 -0.13169511930E+02  0.72275968027E+01 -0.47478207491E+01  0.15754872322E+02  0.00000000000E+00 0.  1.
<mgrwt>
<rscale>  0 0.30055688E+02</rscale>
<asrwt>0</asrwt>
<pdfrwt beam="2">  1        2 0.32410388E-02 0.30055688E+02</pdfrwt>
<pdfrwt beam="1">  1       -2 0.16492346E-02 0.30055688E+02</pdfrwt>
<totfact> 0.16152140E+06</totfact>
</mgrwt>
</event>
<event>
 4    1  0.2165211E+000  0.2951965E+02  0.7546771E-02  0.1603460E+00
         -4   -1    0    0    0  501 -0.00000000000E+00  0.00000000000E+00  0.31828134479E+02  0.31828134479E+02  0.00000000000E+00 0.  1.
          4   -1    0    0  501    0  0.00000000000E+00 -0.00000000000E+00 -0.68446518298E+01  0.68446518298E+01  0.00000000000E+00 0. -1.
        -13    1    1    2    0    0  0.93838899799E+01  0.78098154810E+01  0.23358358784E+02  0.26356470440E+02  0.00000000000E+00 0.  1.
         13    1    1    2    0    0 -0.93838899799E+01 -0.78098154810E+01  0.16251238658E+01  0.12316315869E+02  0.00000000000E+00 0. -1.
<mgrwt>
<rscale>  0 0.29519654E+02</rscale>
<asrwt>0</asrwt>
<pdfrwt beam="2">  1        4 0.10530234E-02 0.29519654E+02</pdfrwt>
<pdfrwt beam="1">  1       -4 0.48966360E-02 0.29519654E+02</pdfrwt>
<totfact> 0.52237728E+05</totfact>
</mgrwt>
</event>
<event>
 4    1  0.2165211E+000  0.2829355E+02  0.7546771E-02  0.1617755E+00
         -2   -1    0    0    0  501 -0.00000000000E+00  0.00000000000E+00  0.10329591658E+02  0.10329591658E+02  0.00000000000E+00 0. -1.
          2   -1    0    0  501    0  0.00000000000E+00 -0.00000000000E+00 -0.19374548572E+02  0.19374548572E+02  0.00000000000E+00 0.  1.
        -13    1    1    2    0    0  0.11525970702E+02  0.65775037332E+01  0.62284495608E+00  0.13285311130E+02  0.00000000000E+00 0. -1.
         13    1    1    2    0    0 -0.11525970702E+02 -0.65775037332E+01 -0.96678018706E+01  0.16418829099E+02  0.00000000000E+00 0.  1.
<mgrwt>
<rscale>  0 0.28293545E+02</rscale>
<asrwt>0</asrwt>
<pdfrwt beam="2">  1        2 0.29806998E-02 0.28293545E+02</pdfrwt>
<pdfrwt beam="1">  1       -2 0.15891679E-02 0.28293545E+02</pdfrwt>
<totfact> 0.18521408E+06</totfact>
</mgrwt>
</event>
<event>
 4    1  0.2165211E+000  0.2798395E+02  0.7546771E-02  0.1621506E+00
          4   -1    0    0  501    0  0.00000000000E+00  0.00000000000E+00  0.27562569436E+02  0.27562569436E+02  0.00000000000E+00 0.  1.
         -4   -1    0    0    0  501 -0.00000000000E+00 -0.00000000000E+00 -0.71029409025E+01  0.71029409025E+01  0.00000000000E+00 0. -1.
        -11    1    1    2    0    0 -0.76639522105E+01  0.11628177207E+02  0.11903124375E+02  0.18320344935E+02  0.00000000000E+00 0.  1.
         11    1    1    2    0    0  0.76639522105E+01 -0.11628177207E+02  0.85565041581E+01  0.16345165403E+02  0.00000000000E+00 0. -1.
<mgrwt>
<rscale>  0 0.27983946E+02</rscale>
<asrwt>0</asrwt>
<pdfrwt beam="1">  1        4 0.42403952E-02 0.27983946E+02</pdfrwt>
<pdfrwt beam="2">  1       -4 0.10927602E-02 0.27983946E+02</pdfrwt>
<totfact> 0.59733366E+05</totfact>
</mgrwt>
</event>
<event>
 4    1  0.2165211E+000  0.2185289E+02  0.7546771E-02  0.1710809E+00
         -2   -1    0    0    0  501 -0.00000000000E+00  0.00000000000E+00  0.17649394635E+02  0.17649394635E+02  0.00000000000E+00 0.  1.
          2   -1    0    0  501    0  0.00000000000E+00 -0.00000000000E+00 -0.67643766719E+01  0.67643766719E+01  0.00000000000E+00 0. -1.
        -13    1    1    2    0    0  0.47790884807E+01 -0.96587385707E+01  0.74584787027E+01  0.13105717151E+02  0.00000000000E+00 0.  1.
         13    1    1    2    0    0 -0.47790884807E+01  0.96587385707E+01  0.34265392601E+01  0.11308054156E+02  0.00000000000E+00 0. -1.
<mgrwt>
<rscale>  0 0.21852886E+02</rscale>
<asrwt>0</asrwt>
<pdfrwt beam="2">  1        2 0.10406733E-02 0.21852886E+02</pdfrwt>
<pdfrwt beam="1">  1       -2 0.27152915E-02 0.21852886E+02</pdfrwt>
<totfact> 0.31172064E+06</totfact>
</mgrwt>
</event>
<event>
 4    1  0.2165211E+000  0.4039603E+02  0.7546771E-02  0.1505317E+00
          2   -1    0    0  501    0  0.00000000000E+00  0.00000000000E+00  0.96253120158E+02  0.96253120158E+02  0.00000000000E+00 0.  1.
         -2   -1    0    0    0  501 -0.00000000000E+00 -0.00000000000E+00 -0.42384070740E+01  0.42384070740E+01  0.00000000000E+00 0. -1.
        -11    1    1    2    0    0  0.17196673180E+02 -0.10132310845E+02  0.38311435436E+02  0.43199020552E+02  0.00000000000E+00 0. -1.
         11    1    1    2    0    0 -0.17196673180E+02  0.10132310845E+02  0.53703277649E+02  0.57292506681E+02  0.00000000000E+00 0.  1.
<mgrwt>
<rscale>  0 0.40396035E+02</rscale>
<asrwt>0</asrwt>
<pdfrwt beam="1">  1        2 0.14808171E-01 0.40396035E+02</pdfrwt>
<pdfrwt beam="2">  1       -2 0.65206270E-03 0.40396035E+02</pdfrwt>
<totfact> 0.10101791E+06</totfact>
</mgrwt>
</event>
<event>
 4    1  0.2165211E+000  0.3624456E+02  0.7546771E-02  0.1537818E+00
         -4   -1    0    0    0  501 -0.00000000000E+00  0.00000000000E+00  0.10004023775E+02  0.10004023775E+02  0.00000000000E+00 0. -1.
          4   -1    0    0  501    0  0.00000000000E+00 -0.00000000000E+00 -0.32828493869E+02  0.32828493869E+02  0.00000000000E+00 0.  1.
        -11    1    1    2    0    0 -0.14059524793E+02  0.38884952006E+01  0.12952402394E+01  0.14644735559E+02  0.00000000000E+00 0. -1.
         11    1    1    2    0    0  0.14059524793E+02 -0.38884952006E+01 -0.24119710333E+02  0.28187782085E+02  0.00000000000E+00 0.  1.
<mgrwt>
<rscale>  0 0.36244560E+02</rscale>
<asrwt>0</asrwt>
<pdfrwt beam="2">  1        4 0.50505375E-02 0.36244560E+02</pdfrwt>
<pdfrwt beam="1">  1       -4 0.15390806E-02 0.36244560E+02</pdfrwt>
<totfact> 0.32123616E+05</totfact>
</mgrwt>
</event>
<event>
 4    1  0.2165211E+000  0.2173015E+02  0.7546771E-02  0.1712961E+00
          2   -1    0    0  501    0  0.00000000000E+00  0.00000000000E+00  0.70750581623E+01  0.70750581623E+01  0.00000000000E+00 0. -1.
         -2   -1    0    0    0  501 -0.00000000000E+00 -0.00000000000E+00 -0.16685348325E+02  0.16685348325E+02  0.00000000000E+00 0.  1.
        -13    1    1    2    0    0 -0.67883515464E+00  0.10818265132E+02 -0.56190954610E+01  0.12209418963E+02  0.00000000000E+00 0.  1.
         13    1    1    2    0    0  0.67883515464E+00 -0.10818265132E+02 -0.39911947015E+01  0.11550987524E+02  0.00000000000E+00 0. -1.
<mgrwt>
<rscale>  0 0.21730146E+02</rscale>
<asrwt>0</asrwt>
<pdfrwt beam="1">  1        2 0.10884705E-02 0.21730146E+02</pdfrwt>
<pdfrwt beam="2">  1       -2 0.25669766E-02 0.21730146E+02</pdfrwt>
<totfact> 0.31705264E+06</totfact>
</mgrwt>
</event>
<event>
 4    1  0.2165211E+000  0.2738421E+02  0.7546771E-02  0.1628944E+00
          1   -1    0    0  501    0  0.00000000000E+00  0.00000000000E+00  0.67560313368E+01  0.67560313368E+01  0.00000000000E+00 0.  1.
         -1   -1    0    0    0  501 -0.00000000000E+00 -0.00000000000E+00 -0.27749094197E+02  0.27749094197E+02  0.00000000000E+00 0. -1.
        -11    1    1    2    0    0  0.10430299436E+02  0.40111516031E+01 -0.20465430313E+02  0.23317682591E+02  0.00000000000E+00 0. -1.
         11    1    1    2    0    0 -0.10430299436E+02 -0.40111516031E+01 -0.52763254714E+00  0.11187442943E+02  0.00000000000E+00 0.  1.
<mgrwt>
<rscale>  0 0.27384211E+02</rscale>
<asrwt>0</asrwt>
<pdfrwt beam="1">  1        1 0.10393894E-02 0.27384211E+02</pdfrwt>
<pdfrwt beam="2">  1       -1 0.42690914E-02 0.27384211E+02</pdfrwt>
<totfact> 0.18073393E+06</totfact>
</mgrwt>
</event>
<event>
 4    1  0.2165211E+000  0.2183746E+02  0.7546771E-02  0.1711078E+00
         -2   -1    0    0    0  501 -0.00000000000E+00  0.00000000000E+00  0.21007814113E+02  0.21007814113E+02  0.00000000000E+00 0. -1.
          2   -1    0    0  501    0  0.00000000000E+00 -0.00000000000E+00 -0.56749696706E+01  0.56749696706E+01  0.00000000000E+00 0.  1.
        -13    1    1    2    0    0 -0.98518144928E+01  0.29182196571E+01  0.31529891839E+01  0.10747818177E+02  0.00000000000E+00 0.  1.
         13    1    1    2    0    0  0.98518144928E+01 -0.29182196571E+01  0.12179855259E+02  0.15934965607E+02  0.00000000000E+00 0. -1.
<mgrwt>
<rscale>  0 0.21837464E+02</rscale>
<asrwt>0</asrwt>
<pdfrwt beam="2">  1        2 0.87307227E-03 0.21837464E+02</pdfrwt>
<pdfrwt beam="1">  1       -2 0.32319713E-02 0.21837464E+02</pdfrwt>
<totfact> 0.30759557E+06</totfact>
</mgrwt>
</event>
<event>
 4    1  0.2165211E+000  0.3650279E+02  0.7546771E-02  0.1535646E+00
          4   -1    0    0  501    0  0.00000000000E+00  0.00000000000E+00  0.13903623129E+02  0.13903623129E+02  0.00000000000E+00 0. -1.
         -4   -1    0    0    0  501 -0.00000000000E+00 -0.00000000000E+00 -0.23958751078E+02  0.23958751078E+02  0.00000000000E+00 0.  1.
        -11    1    1    2    0    0 -0.34523084998E+01 -0.12709545809E+02  0.80788285503E+01  0.15450516476E+02  0.00000000000E+00 0. -1.
         11    1    1    2    0    0  0.34523084998E+01  0.12709545809E+02 -0.18133956499E+02  0.22411857731E+02  0.00000000000E+00 0.  1.
<mgrwt>
<rscale>  0 0.36502791E+02</rscale>
<asrwt>0</asrwt>
<pdfrwt beam="1">  1        4 0.21390190E-02 0.36502791E+02</pdfrwt>
<pdfrwt beam="2">  1       -4 0.36859616E-02 0.36502791E+02</pdfrwt>
<totfact> 0.32141300E+05</totfact>
</mgrwt>
</event>
<event>
 4    1  0.2165211E+000  0.8678715E+02  0.7546771E-02  0.1310824E+00
         -4   -1    0    0    0  501 -0.00000000000E+00  0.00000000000E+00  0.47530551922E+01  0.47530551922E+01  0.00000000000E+00 0.  1.
          4   -1    0    0  501    0  0.00000000000E+00 -0.00000000000E+00 -0.39616673268E+03  0.39616673268E+03  0.00000000000E+00 0. -1.
        -11    1    1    2    0    0  0.26686814210E+00 -0.43361857168E+02 -0.20327007299E+03  0.20784379819E+03  0.00000000000E+00 0.  1.
         11    1    1    2    0    0 -0.26686814210E+00  0.43361857168E+02 -0.18814360451E+03  0.19307598968E+03  0.00000000000E+00 0. -1.
<mgrwt>
<rscale>  0 0.86787150E+02</rscale>
<asrwt>0</asrwt>
<pdfrwt beam="2">  1        4 0.60948759E-01 0.86787150E+02</pdfrwt>
<pdfrwt beam="1">  1       -4 0.73123889E-03 0.86787150E+02</pdfrwt>
<totfact> 0.17227358E+04</totfact>
</mgrwt>
</event>
<event>
 4    1  0.2165211E+000  0.2715361E+02  0.7546771E-02  0.1631866E+00
         -2   -1    0    0    0  501 -0.00000000000E+00  0.00000000000E+00  0.78075678175E+01  0.78075678175E+01  0.00000000000E+00 0. -1.
          2   -1    0    0  501    0  0.00000000000E+00 -0.00000000000E+00 -0.23609105563E+02  0.23609105563E+02  0.00000000000E+00 0.  1.
        -13    1    1    2    0    0 -0.10140961849E+02 -0.41112490469E+01  0.13976519862E+01  0.11031541461E+02  0.00000000000E+00 0. -1.
         13    1    1    2    0    0  0.10140961849E+02  0.41112490469E+01 -0.17199189732E+02  0.20385131920E+02  0.00000000000E+00 0.  1.
<mgrwt>
<rscale>  0 0.27153614E+02</rscale>
<asrwt>0</asrwt>
<pdfrwt beam="2">  1        2 0.36321701E-02 0.27153614E+02</pdfrwt>
<pdfrwt beam="1">  1       -2 0.12011643E-02 0.27153614E+02</pdfrwt>
<totfact> 0.20861438E+06</totfact>
</mgrwt>
</event>
<event>
 4    1  0.2165211E+000  0.2445218E+02  0.7546771E-02  0.1668997E+00
         -2   -1    0    0    0  501 -0.00000000000E+00  0.00000000000E+00  0.24868837181E+02  0.24868837181E+02  0.00000000000E+00 0.  1.
          2   -1    0    0  501    0  0.00000000000E+00 -0.00000000000E+00 -0.60106267893E+01  0.60106267893E+01  0.00000000000E+00 0. -1.
        -11    1    1    2    0    0 -0.99988218002E+01  0.44238026974E+01  0.25201635296E+01  0.11220414070E+02  0.00000000000E+00 0. -1.
         11    1    1    2    0    0  0.99988218002E+01 -0.44238026974E+01  0.16338046862E+02  0.19659049900E+02  0.00000000000E+00 0.  1.
<mgrwt>
<rscale>  0 0.24452182E+02</rscale>
<asrwt>0</asrwt>
<pdfrwt beam="2">  1        2 0.92471183E-03 0.24452182E+02</pdfrwt>
<pdfrwt beam="1">  1       -2 0.38259749E-02 0.24452182E+02</pdfrwt>
<totfact> 0.23571029E+06</totfact>
</mgrwt>
</event>
<event>
 4    1  0.2165211E+000  0.3052003E+02  0.7546771E-02  0.1592411E+00
         -4   -1    0    0    0  501 -0.00000000000E+00  0.00000000000E+00  0.57413077988E+01  0.57413077988E+01  0.00000000000E+00 0.  1.
          4   -1    0    0  501    0  0.00000000000E+00 -0.00000000000E+00 -0.40560112636E+02  0.40560112636E+02  0.00000000000E+00 0. -1.
        -11    1    1    2    0    0  0.58844593771E+01 -0.10431854160E+02 -0.30637287454E+01  0.12362721270E+02  0.00000000000E+00 0.  1.
         11    1    1    2    0    0 -0.58844593771E+01  0.10431854160E+02 -0.31755076092E+02  0.33938699165E+02  0.00000000000E+00 0. -1.
<mgrwt>
<rscale>  0 0.30520032E+02</rscale>
<asrwt>0</asrwt>
<pdfrwt beam="2">  1        4 0.62400176E-02 0.30520032E+02</pdfrwt>
<pdfrwt beam="1">  1       -4 0.88327808E-03 0.30520032E+02</pdfrwt>
<totfact> 0.47154355E+05</totfact>
</mgrwt>
</event>
<event>
 4    1  0.2165211E+000  0.2850467E+02  0.7546771E-02  0.1615231E+00
         -2   -1    0    0    0  501 -0.00000000000E+00  0.00000000000E+00  0.11005965164E+03  0.11005965164E+03  0.00000000000E+00 0.  1.
          2   -1    0    0  501    0  0.00000000000E+00 -0.00000000000E+00 -0.18456265672E+01  0.18456265672E+01  0.00000000000E+00 0. -1.
        -11    1    1    2    0    0 -0.29233459173E+01 -0.13569161963E+02  0.41409480690E+02  0.43673941873E+02  0.00000000000E+00 0. -1.
         11    1    1    2    0    0  0.29233459173E+01  0.13569161963E+02  0.66804544380E+02  0.68231336331E+02  0.00000000000E+00 0.  1.
<mgrwt>
<rscale>  0 0.28504667E+02</rscale>
<asrwt>0</asrwt>
<pdfrwt beam="2">  1        2 0.28394264E-03 0.28504667E+02</pdfrwt>
<pdfrwt beam="1">  1       -2 0.16932249E-01 0.28504667E+02</pdfrwt>
<totfact> 0.13104761E+06</totfact>
</mgrwt>
</event>
<event>
 4    1  0.2165211E+000  0.8503676E+02  0.7546771E-02  0.1315336E+00
          2   -1    0    0  501    0  0.00000000000E+00  0.00000000000E+00  0.15612554543E+03  0.15612554543E+03  0.00000000000E+00 0. -1.
         -2   -1    0    0    0  501 -0.00000000000E+00 -0.00000000000E+00 -0.11579225162E+02  0.11579225162E+02  0.00000000000E+00 0.  1.
        -11    1    1    2    0    0 -0.27655724354E+02 -0.87441217200E+01  0.10961541432E+02  0.31007324050E+02  0.00000000000E+00 0.  1.
         11    1    1    2    0    0  0.27655724354E+02  0.87441217200E+01  0.13358477884E+03  0.13669744654E+03  0.00000000000E+00 0. -1.
<mgrwt>
<rscale>  0 0.85036765E+02</rscale>
<asrwt>0</asrwt>
<pdfrwt beam="1">  1        2 0.24019313E-01 0.85036765E+02</pdfrwt>
<pdfrwt beam="2">  1       -2 0.17814194E-02 0.85036765E+02</pdfrwt>
<totfact> 0.17105433E+05</totfact>
</mgrwt>
</event>
<event>
 4    1  0.2165211E+000  0.3776014E+02  0.7546771E-02  0.1525372E+00
          2   -1    0    0  501    0  0.00000000000E+00  0.00000000000E+00  0.25483298855E+02  0.25483298855E+02  0.00000000000E+00 0. -1.
         -2   -1    0    0    0  501 -0.00000000000E+00 -0.00000000000E+00 -0.13987867692E+02  0.13987867692E+02  0.00000000000E+00 0.  1.
        -13    1    1    2    0    0 -0.17467060172E+02 -0.50171783474E+01  0.11096894552E+02  0.21293457641E+02  0.00000000000E+00 0. -1.
         13    1    1    2    0    0  0.17467060172E+02  0.50171783474E+01  0.39853661114E+00  0.18177708906E+02  0.00000000000E+00 0.  1.
<mgrwt>
<rscale>  0 0.37760138E+02</rscale>
<asrwt>0</asrwt>
<pdfrwt beam="1">  1        2 0.39205075E-02 0.37760138E+02</pdfrwt>
<pdfrwt beam="2">  1       -2 0.21519796E-02 0.37760138E+02</pdfrwt>
<totfact> 0.94127210E+05</totfact>
</mgrwt>
</event>
<event>
 4    1  0.2165211E+000  0.2866919E+02  0.7546771E-02  0.1613283E+00
          1   -1    0    0  501    0  0.00000000000E+00  0.00000000000E+00  0.65547049470E+02  0.65547049470E+02  0.00000000000E+00 0.  1.
         -1   -1    0    0    0  501 -0.00000000000E+00 -0.00000000000E+00 -0.31348572532E+01  0.31348572532E+01  0.00000000000E+00 0. -1.
        -13    1    1    2    0    0  0.60377739938E+01 -0.12616092143E+02  0.38728707020E+02  0.41176853245E+02  0.00000000000E+00 0.  1.
         13    1    1    2    0    0 -0.60377739938E+01  0.12616092143E+02  0.23683485197E+02  0.27505053478E+02  0.00000000000E+00 0. -1.
<mgrwt>
<rscale>  0 0.28669192E+02</rscale>
<asrwt>0</asrwt>
<pdfrwt beam="1">  1        1 0.10084160E-01 0.28669192E+02</pdfrwt>
<pdfrwt beam="2">  1       -1 0.48228578E-03 0.28669192E+02</pdfrwt>
<totfact> 0.18703267E+06</totfact>
</mgrwt>
</event>
<event>
 4    1  0.2165211E+000  0.2391325E+02  0.7546771E-02  0.1677120E+00
          4   -1    0    0  501    0  0.00000000000E+00  0.00000000000E+00  0.15364287329E+02  0.15364287329E+02  0.00000000000E+00 0. -1.
         -4   -1    0    0    0  501 -0.00000000000E+00 -0.00000000000E+00 -0.93047485163E+01  0.93047485163E+01  0.00000000000E+00 0.  1.
        -11    1    1    2    0    0  0.11497209858E+02  0.32318812431E+01  0.24372120703E+01  0.12188966058E+02  0.00000000000E+00 0. -1.
         11    1    1    2    0    0 -0.11497209858E+02 -0.32318812431E+01  0.36223267427E+01  0.12480069788E+02  0.00000000000E+00 0.  1.
<mgrwt>
<rscale>  0 0.23913246E+02</rscale>
<asrwt>0</asrwt>
<pdfrwt beam="1">  1        4 0.23637365E-02 0.23913246E+02</pdfrwt>
<pdfrwt beam="2">  1       -4 0.14314998E-02 0.23913246E+02</pdfrwt>
<totfact> 0.87649123E+05</totfact>
</mgrwt>
</event>
<event>
 4    1  0.2165211E+000  0.5980054E+02  0.7546771E-02  0.1398671E+00
         -1   -1    0    0    0  501 -0.00000000000E+00  0.00000000000E+00  0.62199287869E+02  0.62199287869E+02  0.00000000000E+00 0.  1.
          1   -1    0    0  501    0  0.00000000000E+00 -0.00000000000E+00 -0.14373577460E+02  0.14373577460E+02  0.00000000000E+00 0. -1.
        -13    1    1    2    0    0 -0.23671664592E+02  0.58183567976E+01  0.17409047464E+01  0.24438325019E+02  0.00000000000E+00 0. -1.
         13    1    1    2    0    0  0.23671664592E+02 -0.58183567976E+01  0.46084805663E+02  0.52134540310E+02  0.00000000000E+00 0.  1.
<mgrwt>
<rscale>  0 0.59800545E+02</rscale>
<asrwt>0</asrwt>
<pdfrwt beam="2">  1        1 0.22113196E-02 0.59800545E+02</pdfrwt>
<pdfrwt beam="1">  1       -1 0.95691211E-02 0.59800545E+02</pdfrwt>
<totfact> 0.25552877E+05</totfact>
</mgrwt>
</event>
<event>
 4    1  0.2165211E+000  0.3051128E+02  0.7546771E-02  0.1592505E+00
         -2   -1    0    0    0  501 -0.00000000000E+00  0.00000000000E+00  0.89656844774E+01  0.89656844774E+01  0.00000000000E+00 0.  1.
          2   -1    0    0  501    0  0.00000000000E+00 -0.00000000000E+00 -0.25958371591E+02  0.25958371591E+02  0.00000000000E+00 0. -1.
        -11    1    1    2    0    0  0.92651105208E+00  0.12826159322E+02 -0.17891065179E+02  0.22033134114E+02  0.00000000000E+00 0. -1.
         11    1    1    2    0    0 -0.92651105208E+00 -0.12826159322E+02  0.89837806526E+00  0.12890921954E+02  0.00000000000E+00 0.  1.
<mgrwt>
<rscale>  0 0.30511281E+02</rscale>
<asrwt>0</asrwt>
<pdfrwt beam="2">  1        2 0.39935956E-02 0.30511281E+02</pdfrwt>
<pdfrwt beam="1">  1       -2 0.13793361E-02 0.30511281E+02</pdfrwt>
<totfact> 0.15947051E+06</totfact>
</mgrwt>
</event>
<event>
 4    1  0.2165211E+000  0.4630767E+02  0.7546771E-02  0.1466339E+00
         -2   -1    0    0    0  501 -0.00000000000E+00  0.00000000000E+00  0.31222652100E+02  0.31222652100E+02  0.00000000000E+00 0.  1.
          2   -1    0    0  501    0  0.00000000000E+00 -0.00000000000E+00 -0.17170227574E+02  0.17170227574E+02  0.00000000000E+00 0. -1.
        -13    1    1    2    0    0  0.13163495796E+02 -0.27310536863E+01 -0.12673737641E+02  0.18475927625E+02  0.00000000000E+00 0. -1.
         13    1    1    2    0    0 -0.13163495796E+02  0.27310536863E+01  0.26726162167E+02  0.29916952050E+02  0.00000000000E+00 0.  1.
<mgrwt>
<rscale>  0 0.46307669E+02</rscale>
<asrwt>0</asrwt>
<pdfrwt beam="2">  1        2 0.26415735E-02 0.46307669E+02</pdfrwt>
<pdfrwt beam="1">  1       -2 0.48034850E-02 0.46307669E+02</pdfrwt>
<totfact> 0.52745377E+05</totfact>
</mgrwt>
</event>
<event>
 4    1  0.2165211E+000  0.2478399E+02  0.7546771E-02  0.1664124E+00
         -4   -1    0    0    0  501 -0.00000000000E+00  0.00000000000E+00  0.94986805616E+01  0.94986805616E+01  0.00000000000E+00 0.  1.
          4   -1    0    0  501    0  0.00000000000E+00 -0.00000000000E+00 -0.16166614475E+02  0.16166614475E+02  0.00000000000E+00 0. -1.
        -11    1    1    2    0    0 -0.71540726776E+01 -0.98193654040E+01 -0.58622626366E+01  0.13489507628E+02  0.00000000000E+00 0.  1.
         11    1    1    2    0    0  0.71540726776E+01  0.98193654040E+01 -0.80567127646E+00  0.12175787409E+02  0.00000000000E+00 0. -1.
<mgrwt>
<rscale>  0 0.24783987E+02</rscale>
<asrwt>0</asrwt>
<pdfrwt beam="2">  1        4 0.24871714E-02 0.24783987E+02</pdfrwt>
<pdfrwt beam="1">  1       -4 0.14613355E-02 0.24783987E+02</pdfrwt>
<totfact> 0.80810824E+05</totfact>
</mgrwt>
</event>
<event>
 4    1  0.2165211E+000  0.3040983E+02  0.7546771E-02  0.1593602E+00
          4   -1    0    0  501    0  0.00000000000E+00  0.00000000000E+00  0.17218773096E+01  0.17218773096E+01  0.00000000000E+00 0. -1.
         -4   -1    0    0    0  501 -0.00000000000E+00 -0.00000000000E+00 -0.13426593476E+03  0.13426593476E+03  0.00000000000E+00 0.  1.
        -11    1    1    2    0    0  0.11158334038E+02  0.96093875516E+01 -0.49337565678E+02  0.51488291238E+02  0.00000000000E+00 0.  1.
         11    1    1    2    0    0 -0.11158334038E+02 -0.96093875516E+01 -0.83206491769E+02  0.84499520828E+02  0.00000000000E+00 0. -1.
<mgrwt>
<rscale>  0 0.30409832E+02</rscale>
<asrwt>0</asrwt>
<pdfrwt beam="1">  1        4 0.26490418E-03 0.30409832E+02</pdfrwt>
<pdfrwt beam="2">  1       -4 0.20656299E-01 0.30409832E+02</pdfrwt>
<totfact> 0.36692572E+05</totfact>
</mgrwt>
</event>
<event>
 4    1  0.2165211E+000  0.2966109E+02  0.7546771E-02  0.1601865E+00
         -4   -1    0    0    0  501 -0.00000000000E+00  0.00000000000E+00  0.30944040198E+02  0.30944040198E+02  0.00000000000E+00 0.  1.
          4   -1    0    0  501    0  0.00000000000E+00 -0.00000000000E+00 -0.71078336344E+01  0.71078336344E+01  0.00000000000E+00 0. -1.
        -13    1    1    2    0    0  0.11219435067E+02 -0.41904795973E+01  0.69673330680E+00  0.11996719542E+02  0.00000000000E+00 0. -1.
         13    1    1    2    0    0 -0.11219435067E+02  0.41904795973E+01  0.23139473257E+02  0.26055154290E+02  0.00000000000E+00 0.  1.
<mgrwt>
<rscale>  0 0.29661092E+02</rscale>
<asrwt>0</asrwt>
<pdfrwt beam="2">  1        4 0.10935129E-02 0.29661092E+02</pdfrwt>
<pdfrwt beam="1">  1       -4 0.47606215E-02 0.29661092E+02</pdfrwt>
<totfact> 0.51795297E+05</totfact>
</mgrwt>
</event>
<event>
 4    1  0.2165211E+000  0.2304969E+02  0.7546771E-02  0.1690706E+00
          4   -1    0    0  501    0  0.00000000000E+00  0.00000000000E+00  0.36641635601E+01  0.36641635601E+01  0.00000000000E+00 0. -1.
         -4   -1    0    0    0  501 -0.00000000000E+00 -0.00000000000E+00 -0.36248929634E+02  0.36248929634E+02  0.00000000000E+00 0.  1.
        -11    1    1    2    0    0  0.66179294990E+01 -0.77843762130E+01 -0.25525054209E+02  0.27494033830E+02  0.00000000000E+00 0.  1.
         11    1    1    2    0    0 -0.66179294990E+01  0.77843762130E+01 -0.70597118655E+01  0.12419059365E+02  0.00000000000E+00 0. -1.
<mgrwt>
<rscale>  0 0.23049686E+02</rscale>
<asrwt>0</asrwt>
<pdfrwt beam="1">  1        4 0.56371747E-03 0.23049686E+02</pdfrwt>
<pdfrwt beam="2">  1       -4 0.55767584E-02 0.23049686E+02</pdfrwt>
<totfact> 0.89176037E+05</totfact>
</mgrwt>
</event>
<event>
 4    1  0.2165211E+000  0.2627261E+02  0.7546771E-02  0.1643368E+00
         -2   -1    0    0    0  501 -0.00000000000E+00  0.00000000000E+00  0.31027019422E+02  0.31027019422E+02  0.00000000000E+00 0. -1.
          2   -1    0    0  501    0  0.00000000000E+00 -0.00000000000E+00 -0.55616856885E+01  0.55616856885E+01  0.00000000000E+00 0.  1.
        -11    1    1    2    0    0 -0.97280655660E+01 -0.87204415672E+01  0.14642773936E+02  0.19623765931E+02  0.00000000000E+00 0.  1.
         11    1    1    2    0    0  0.97280655660E+01  0.87204415672E+01  0.10822559798E+02  0.16964939179E+02  0.00000000000E+00 0. -1.
<mgrwt>
<rscale>  0 0.26272612E+02</rscale>
<asrwt>0</asrwt>
<pdfrwt beam="2">  1        2 0.85564397E-03 0.26272612E+02</pdfrwt>
<pdfrwt beam="1">  1       -2 0.47733875E-02 0.26272612E+02</pdfrwt>
<totfact> 0.19597863E+06</totfact>
</mgrwt>
</event>
<event>
 4    1  0.2165211E+000  0.2082847E+02  0.7546771E-02  0.1729338E+00
          2   -1    0    0  501    0  0.00000000000E+00  0.00000000000E+00  0.11618693625E+02  0.11618693625E+02  0.00000000000E+00 0.  1.
         -2   -1    0    0    0  501 -0.00000000000E+00 -0.00000000000E+00 -0.93346342909E+01  0.93346342909E+01  0.00000000000E+00 0. -1.
        -11    1    1    2    0    0  0.81343462082E+01 -0.64203988996E+01  0.21812498256E+01  0.10589946226E+02  0.00000000000E+00 0.  1.
         11    1    1    2    0    0 -0.81343462082E+01  0.64203988996E+01  0.10280950866E+00  0.10363381690E+02  0.00000000000E+00 0. -1.
<mgrwt>
<rscale>  0 0.20828467E+02</rscale>
<asrwt>0</asrwt>
<pdfrwt beam="1">  1        2 0.17874913E-02 0.20828467E+02</pdfrwt>
<pdfrwt beam="2">  1       -2 0.14360976E-02 0.20828467E+02</pdfrwt>
<totfact> 0.36362694E+06</totfact>
</mgrwt>
</event>
<event>
 4    1  0.2165211E+000  0.3204029E+02  0.7546771E-02  0.1576572E+00
          2   -1    0    0  501    0  0.00000000000E+00  0.00000000000E+00  0.33654630091E+02  0.33654630091E+02  0.00000000000E+00 0. -1.
         -2   -1    0    0    0  501 -0.00000000000E+00 -0.00000000000E+00 -0.76258452860E+01  0.76258452860E+01  0.00000000000E+00 0.  1.
        -13    1    1    2    0    0 -0.12506430710E+02  0.54080526847E+01  0.21591834621E+01  0.13795648450E+02  0.00000000000E+00 0.  1.
         13    1    1    2    0    0  0.12506430710E+02 -0.54080526847E+01  0.23869601343E+02  0.27484826927E+02  0.00000000000E+00 0. -1.
<mgrwt>
<rscale>  0 0.32040287E+02</rscale>
<asrwt>0</asrwt>
<pdfrwt beam="1">  1        2 0.51776353E-02 0.32040287E+02</pdfrwt>
<pdfrwt beam="2">  1       -2 0.11732070E-02 0.32040287E+02</pdfrwt>
<totfact> 0.14637395E+06</totfact>
</mgrwt>
</event>
<event>
 4    1  0.2165211E+000  0.3425350E+02  0.7546771E-02  0.1555331E+00
         -2   -1    0    0    0  501 -0.00000000000E+00  0.00000000000E+00  0.47574403816E+02  0.47574403816E+02  0.00000000000E+00 0.  1.
          2   -1    0    0  501    0  0.00000000000E+00 -0.00000000000E+00 -0.61656173897E+01  0.61656173897E+01  0.00000000000E+00 0. -1.
        -11    1    1    2    0    0  0.10436029621E+02 -0.50669566174E+01  0.93755679904E+00  0.11638890685E+02  0.00000000000E+00 0. -1.
         11    1    1    2    0    0 -0.10436029621E+02  0.50669566174E+01  0.40471229627E+02  0.42101130521E+02  0.00000000000E+00 0.  1.
<mgrwt>
<rscale>  0 0.34253500E+02</rscale>
<asrwt>0</asrwt>
<pdfrwt beam="2">  1        2 0.94855655E-03 0.34253500E+02</pdfrwt>
<pdfrwt beam="1">  1       -2 0.73191388E-02 0.34253500E+02</pdfrwt>
<totfact> 0.10078742E+06</totfact>
</mgrwt>
</event>
<event>
 4    1  0.2165211E+000  0.3475385E+02  0.7546771E-02  0.1550797E+00
          2   -1    0    0  501    0  0.00000000000E+00  0.00000000000E+00  0.12352911588E+03  0.12352911588E+03  0.00000000000E+00 0. -1.
         -2   -1    0    0    0  501 -0.00000000000E+00 -0.00000000000E+00 -0.24444232055E+01  0.24444232055E+01  0.00000000000E+00 0.  1.
        -11    1    1    2    0    0 -0.15958033372E+02  0.39824386577E+00  0.85429275125E+02  0.86907873496E+02  0.00000000000E+00 0. -1.
         11    1    1    2    0    0  0.15958033372E+02 -0.39824386577E+00  0.35655417550E+02  0.39065665590E+02  0.00000000000E+00 0.  1.
<mgrwt>
<rscale>  0 0.34753845E+02</rscale>
<asrwt>0</asrwt>
<pdfrwt beam="1">  1        2 0.19004475E-01 0.34753845E+02</pdfrwt>
<pdfrwt beam="2">  1       -2 0.37606520E-03 0.34753845E+02</pdfrwt>
<totfact> 0.15536288E+06</totfact>
</mgrwt>
</event>
<event>
 4    1  0.2165211E+000  0.3155448E+02  0.7546771E-02  0.1581515E+00
         -4   -1    0    0    0  501 -0.00000000000E+00  0.00000000000E+00  0.16585504353E+02  0.16585504353E+02  0.00000000000E+00 0.  1.
          4   -1    0    0  501    0  0.00000000000E+00 -0.00000000000E+00 -0.15008362757E+02  0.15008362757E+02  0.00000000000E+00 0. -1.
        -11    1    1    2    0    0 -0.90873121265E+01  0.11045635706E+02  0.74554076855E+01  0.16129736935E+02  0.00000000000E+00 0.  1.
         11    1    1    2    0    0  0.90873121265E+01 -0.11045635706E+02 -0.58782660894E+01  0.15464130174E+02  0.00000000000E+00 0. -1.
<mgrwt>
<rscale>  0 0.31554478E+02</rscale>
<asrwt>0</asrwt>
<pdfrwt beam="2">  1        4 0.23089789E-02 0.31554478E+02</pdfrwt>
<pdfrwt beam="1">  1       -4 0.25516160E-02 0.31554478E+02</pdfrwt>
<totfact> 0.46095959E+05</totfact>
</mgrwt>
</event>
<event>
 4    1  0.2165211E+000  0.5371387E+02  0.7546771E-02  0.1426281E+00
         -3   -1    0    0    0  501 -0.00000000000E+00  0.00000000000E+00  0.45656045111E+02  0.45656045111E+02  0.00000000000E+00 0.  1.
          3   -1    0    0  501    0  0.00000000000E+00 -0.00000000000E+00 -0.15798456693E+02  0.15798456693E+02  0.00000000000E+00 0. -1.
        -11    1    1    2    0    0  0.13726399498E+02 -0.88994620574E+01  0.39298053374E+02  0.42567023235E+02  0.00000000000E+00 0. -1.
         11    1    1    2    0    0 -0.13726399498E+02  0.88994620574E+01 -0.94404649555E+01  0.18887478569E+02  0.00000000000E+00 0.  1.
<mgrwt>
<rscale>  0 0.53713873E+02</rscale>
<asrwt>0</asrwt>
<pdfrwt beam="2">  1        3 0.24305318E-02 0.53713873E+02</pdfrwt>
<pdfrwt beam="1">  1       -3 0.70240069E-02 0.53713873E+02</pdfrwt>
<totfact> 0.15296389E+05</totfact>
</mgrwt>
</event>
<event>
 4    1  0.2165211E+000  0.2164350E+02  0.7546771E-02  0.1714491E+00
         -2   -1    0    0    0  501 -0.00000000000E+00  0.00000000000E+00  0.10137903906E+03  0.10137903906E+03  0.00000000000E+00 0.  1.
          2   -1    0    0  501    0  0.00000000000E+00 -0.00000000000E+00 -0.11551726520E+01  0.11551726520E+01  0.00000000000E+00 0. -1.
        -13    1    1    2    0    0 -0.10605999802E+02  0.14820538017E+00  0.60273763797E+02  0.61199965677E+02  0.00000000000E+00 0.  1.
         13    1    1    2    0    0  0.10605999802E+02 -0.14820538017E+00  0.39950102609E+02  0.41334246033E+02  0.00000000000E+00 0. -1.
<mgrwt>
<rscale>  0 0.21643502E+02</rscale>
<asrwt>0</asrwt>
<pdfrwt beam="2">  1        2 0.17771895E-03 0.21643502E+02</pdfrwt>
<pdfrwt beam="1">  1       -2 0.15596768E-01 0.21643502E+02</pdfrwt>
<totfact> 0.24912817E+06</totfact>
</mgrwt>
</event>
<event>
 4    1  0.2165211E+000  0.6185715E+02  0.7546771E-02  0.1390199E+00
         -2   -1    0    0    0  501 -0.00000000000E+00  0.00000000000E+00  0.73120645236E+02  0.73120645236E+02  0.00000000000E+00 0. -1.
          2   -1    0    0  501    0  0.00000000000E+00 -0.00000000000E+00 -0.13082170247E+02  0.13082170247E+02  0.00000000000E+00 0.  1.
        -11    1    1    2    0    0  0.19919554603E+02  0.23341983971E+02  0.24632760774E+02  0.39349838306E+02  0.00000000000E+00 0.  1.
         11    1    1    2    0    0 -0.19919554603E+02 -0.23341983971E+02  0.35405714215E+02  0.46852977178E+02  0.00000000000E+00 0. -1.
<mgrwt>
<rscale>  0 0.61857149E+02</rscale>
<asrwt>0</asrwt>
<pdfrwt beam="2">  1        2 0.20126416E-02 0.61857149E+02</pdfrwt>
<pdfrwt beam="1">  1       -2 0.11249330E-01 0.61857149E+02</pdfrwt>
<totfact> 0.22574672E+05</totfact>
</mgrwt>
</event>
<event>
 4    1  0.2165211E+000  0.2856997E+02  0.7546771E-02  0.1614456E+00
          2   -1    0    0  501    0  0.00000000000E+00  0.00000000000E+00  0.62488764946E+01  0.62488764946E+01  0.00000000000E+00 0.  1.
         -2   -1    0    0    0  501 -0.00000000000E+00 -0.00000000000E+00 -0.32655604913E+02  0.32655604913E+02  0.00000000000E+00 0. -1.
        -11    1    1    2    0    0 -0.79068362681E+01  0.11162680348E+02 -0.75991784235E+01  0.15648354707E+02  0.00000000000E+00 0.  1.
         11    1    1    2    0    0  0.79068362681E+01 -0.11162680348E+02 -0.18807549995E+02  0.23256126701E+02  0.00000000000E+00 0. -1.
<mgrwt>
<rscale>  0 0.28569973E+02</rscale>
<asrwt>0</asrwt>
<pdfrwt beam="1">  1        2 0.96136561E-03 0.28569973E+02</pdfrwt>
<pdfrwt beam="2">  1       -2 0.50239393E-02 0.28569973E+02</pdfrwt>
<totfact> 0.16107390E+06</totfact>
</mgrwt>
</event>
<event>
 4    1  0.2165211E+000  0.2545841E+02  0.7546771E-02  0.1654504E+00
          4   -1    0    0  501    0  0.00000000000E+00  0.00000000000E+00  0.28682567918E+02  0.28682567918E+02  0.00000000000E+00 0. -1.
         -4   -1    0    0    0  501 -0.00000000000E+00 -0.00000000000E+00 -0.56491695150E+01  0.56491695150E+01  0.00000000000E+00 0.  1.
        -11    1    1    2    0    0 -0.11135803198E+02 -0.51721044549E+01  0.69883460746E+01  0.14127765507E+02  0.00000000000E+00 0.  1.
         11    1    1    2    0    0  0.11135803198E+02  0.51721044549E+01  0.16045052328E+02  0.20203971926E+02  0.00000000000E+00 0. -1.
<mgrwt>
<rscale>  0 0.25458412E+02</rscale>
<asrwt>0</asrwt>
<pdfrwt beam="1">  1        4 0.44127027E-02 0.25458412E+02</pdfrwt>
<pdfrwt beam="2">  1       -4 0.86910302E-03 0.25458412E+02</pdfrwt>
<totfact> 0.73630144E+05</totfact>
</mgrwt>
</event>
<event>
 4    1  0.2165211E+000  0.2826948E+02  0.7546771E-02  0.1618045E+00
          2   -1    0    0  501    0  0.00000000000E+00  0.00000000000E+00  0.84786073854E+01  0.84786073854E+01  0.00000000000E+00 0. -1.
         -2   -1    0    0    0  501 -0.00000000000E+00 -0.00000000000E+00 -0.23564108914E+02  0.23564108914E+02  0.00000000000E+00 0.  1.
        -13    1    1    2    0    0  0.71150447845E+01 -0.11921677757E+02 -0.10550317777E+02  0.17437301054E+02  0.00000000000E+00 0.  1.
         13    1    1    2    0    0 -0.71150447845E+01  0.11921677757E+02 -0.45351837510E+01  0.14605415245E+02  0.00000000000E+00 0. -1.
<mgrwt>
<rscale>  0 0.28269477E+02</rscale>
<asrwt>0</asrwt>
<pdfrwt beam="1">  1        2 0.13044011E-02 0.28269477E+02</pdfrwt>
<pdfrwt beam="2">  1       -2 0.36252475E-02 0.28269477E+02</pdfrwt>
<totfact> 0.17098753E+06</totfact>
</mgrwt>
</event>
<event>
 4    1  0.2165211E+000  0.2062914E+02  0.7546771E-02  0.1733099E+00
          2   -1    0    0  501    0  0.00000000000E+00  0.00000000000E+00  0.27564791776E+01  0.27564791776E+01  0.00000000000E+00 0. -1.
         -2   -1    0    0    0  501 -0.00000000000E+00 -0.00000000000E+00 -0.38596472874E+02  0.38596472874E+02  0.00000000000E+00 0.  1.
        -13    1    1    2    0    0  0.10118166718E+02 -0.18677458000E+01 -0.19371908527E+02  0.21934826466E+02  0.00000000000E+00 0. -1.
         13    1    1    2    0    0 -0.10118166718E+02  0.18677458000E+01 -0.16468085170E+02  0.19418125586E+02  0.00000000000E+00 0.  1.
<mgrwt>
<rscale>  0 0.20629142E+02</rscale>
<asrwt>0</asrwt>
<pdfrwt beam="1">  1        2 0.42407373E-03 0.20629142E+02</pdfrwt>
<pdfrwt beam="2">  1       -2 0.59379188E-02 0.20629142E+02</pdfrwt>
<totfact> 0.32771729E+06</totfact>
</mgrwt>
</event>
<event>
 4    1  0.2165211E+000  0.8850600E+02  0.7546771E-02  0.1306510E+00
          1   -1    0    0  501    0  0.00000000000E+00  0.00000000000E+00  0.85936343451E+02  0.85936343451E+02  0.00000000000E+00 0. -1.
         -1   -1    0    0    0  501 -0.00000000000E+00 -0.00000000000E+00 -0.22788123754E+02  0.22788123754E+02  0.00000000000E+00 0.  1.
        -11    1    1    2    0    0  0.35729210528E+02 -0.21585117805E+02  0.13526705963E+02  0.43880127277E+02  0.00000000000E+00 0.  1.
         11    1    1    2    0    0 -0.35729210528E+02  0.21585117805E+02  0.49621513733E+02  0.64844339928E+02  0.00000000000E+00 0. -1.
<mgrwt>
<rscale>  0 0.88506000E+02</rscale>
<asrwt>0</asrwt>
<pdfrwt beam="1">  1        1 0.13220976E-01 0.88506000E+02</pdfrwt>
<pdfrwt beam="2">  1       -1 0.35058652E-02 0.88506000E+02</pdfrwt>
<totfact> 0.11051596E+05</totfact>
</mgrwt>
</event>
<event>
 4    1  0.2165211E+000  0.3192287E+02  0.7546771E-02  0.1577757E+00
         -2   -1    0    0    0  501 -0.00000000000E+00  0.00000000000E+00  0.58554582410E+02  0.58554582410E+02  0.00000000000E+00 0.  1.
          2   -1    0    0  501    0  0.00000000000E+00 -0.00000000000E+00 -0.43509381570E+01  0.43509381570E+01  0.00000000000E+00 0. -1.
        -11    1    1    2    0    0  0.23755264664E+01  0.11439479712E+02  0.56723992166E+01  0.12987722470E+02  0.00000000000E+00 0. -1.
         11    1    1    2    0    0 -0.23755264664E+01 -0.11439479712E+02  0.48531245036E+02  0.49917798097E+02  0.00000000000E+00 0.  1.
<mgrwt>
<rscale>  0 0.31922867E+02</rscale>
<asrwt>0</asrwt>
<pdfrwt beam="2">  1        2 0.66937514E-03 0.31922867E+02</pdfrwt>
<pdfrwt beam="1">  1       -2 0.90083967E-02 0.31922867E+02</pdfrwt>
<totfact> 0.11496701E+06</totfact>
</mgrwt>
</event>
<event>
 4    1  0.2165211E+000  0.2900529E+02  0.7546771E-02  0.1609351E+00
         -2   -1    0    0    0  501 -0.00000000000E+00  0.00000000000E+00  0.44584899471E+01  0.44584899471E+01  0.00000000000E+00 0. -1.
          2   -1    0    0  501    0  0.00000000000E+00 -0.00000000000E+00 -0.47174432409E+02  0.47174432409E+02  0.00000000000E+00 0.  1.
        -13    1    1    2    0    0  0.10855297398E+02  0.47755288837E+01 -0.36217830089E+02  0.38110029835E+02  0.00000000000E+00 0.  1.
         13    1    1    2    0    0 -0.10855297398E+02 -0.47755288837E+01 -0.64981123737E+01  0.13522892521E+02  0.00000000000E+00 0. -1.
<mgrwt>
<rscale>  0 0.29005291E+02</rscale>
<asrwt>0</asrwt>
<pdfrwt beam="2">  1        2 0.72576048E-02 0.29005291E+02</pdfrwt>
<pdfrwt beam="1">  1       -2 0.68592155E-03 0.29005291E+02</pdfrwt>
<totfact> 0.19517586E+06</totfact>
</mgrwt>
</event>
<event>
 4    1  0.2165211E+000  0.3563200E+02  0.7546771E-02  0.1543059E+00
          3   -1    0    0  501    0  0.00000000000E+00  0.00000000000E+00  0.10633146968E+02  0.10633146968E+02  0.00000000000E+00 0. -1.
         -3   -1    0    0    0  501 -0.00000000000E+00 -0.00000000000E+00 -0.29850979636E+02  0.29850979636E+02  0.00000000000E+00 0.  1.
        -11    1    1    2    0    0 -0.12919442508E+02  0.26517840097E+01  0.39998551188E+01  0.13781973521E+02  0.00000000000E+00 0. -1.
         11    1    1    2    0    0  0.12919442508E+02 -0.26517840097E+01 -0.23217687786E+02  0.26702153084E+02  0.00000000000E+00 0.  1.
<mgrwt>
<rscale>  0 0.35632000E+02</rscale>
<asrwt>0</asrwt>
<pdfrwt beam="1">  1        3 0.16358688E-02 0.35632000E+02</pdfrwt>
<pdfrwt beam="2">  1       -3 0.45924584E-02 0.35632000E+02</pdfrwt>
<totfact> 0.44748217E+05</totfact>
</mgrwt>
</event>
<event>
 4    1  0.2165211E+000  0.7192016E+02  0.7546771E-02  0.1353683E+00
         -2   -1    0    0    0  501 -0.00000000000E+00  0.00000000000E+00  0.71833335172E+02  0.71833335172E+02  0.00000000000E+00 0. -1.
          2   -1    0    0  501    0  0.00000000000E+00 -0.00000000000E+00 -0.18001773412E+02  0.18001773412E+02  0.00000000000E+00 0.  1.
        -11    1    1    2    0    0  0.22721750383E+02 -0.13138596073E+01 -0.78603149557E+01  0.24078802269E+02  0.00000000000E+00 0.  1.
         11    1    1    2    0    0 -0.22721750383E+02  0.13138596073E+01  0.61691876716E+02  0.65756306315E+02  0.00000000000E+00 0. -1.
<mgrwt>
<rscale>  0 0.71920162E+02</rscale>
<asrwt>0</asrwt>
<pdfrwt beam="2">  1        2 0.27695036E-02 0.71920162E+02</pdfrwt>
<pdfrwt beam="1">  1       -2 0.11051282E-01 0.71920162E+02</pdfrwt>
<totfact> 0.15662039E+05</totfact>
</mgrwt>
</event>
<event>
 4    1  0.2165211E+000  0.2288256E+02  0.7546771E-02  0.1693421E+00
          1   -1    0    0  501    0  0.00000000000E+00  0.00000000000E+00  0.14416149013E+02  0.14416149013E+02  0.00000000000E+00 0.  1.
         -1   -1    0    0    0  501 -0.00000000000E+00 -0.00000000000E+00 -0.90802912963E+01  0.90802912963E+01  0.00000000000E+00 0. -1.
        -13    1    1    2    0    0 -0.11250088849E+02  0.76964909823E+00  0.68055346605E+00  0.11296902756E+02  0.00000000000E+00 0. -1.
         13    1    1    2    0    0  0.11250088849E+02 -0.76964909823E+00  0.46553042508E+01  0.12199537554E+02  0.00000000000E+00 0.  1.
<mgrwt>
<rscale>  0 0.22882555E+02</rscale>
<asrwt>0</asrwt>
<pdfrwt beam="1">  1        1 0.22178691E-02 0.22882555E+02</pdfrwt>
<pdfrwt beam="2">  1       -1 0.13969679E-02 0.22882555E+02</pdfrwt>
<totfact> 0.28814092E+06</totfact>
</mgrwt>
</event>
<event>
 4    1  0.2165211E+000  0.2605456E+02  0.7546771E-02  0.1646301E+00
         -2   -1    0    0    0  501 -0.00000000000E+00  0.00000000000E+00  0.16342009263E+01  0.16342009263E+01  0.00000000000E+00 0. -1.
          2   -1    0    0  501    0  0.00000000000E+00 -0.00000000000E+00 -0.10384895527E+03  0.10384895527E+03  0.00000000000E+00 0.  1.
        -11    1    1    2    0    0 -0.10881128830E+02 -0.59205384599E+01 -0.34782980344E+02  0.36922993674E+02  0.00000000000E+00 0. -1.
         11    1    1    2    0    0  0.10881128830E+02  0.59205384599E+01 -0.67431773999E+02  0.68560162521E+02  0.00000000000E+00 0.  1.
<mgrwt>
<rscale>  0 0.26054563E+02</rscale>
<asrwt>0</asrwt>
<pdfrwt beam="2">  1        2 0.15976761E-01 0.26054563E+02</pdfrwt>
<pdfrwt beam="1">  1       -2 0.25141555E-03 0.26054563E+02</pdfrwt>
<totfact> 0.29298551E+06</totfact>
</mgrwt>
</event>
<event>
 4    1  0.2165211E+000  0.2791191E+02  0.7546771E-02  0.1622387E+00
          2   -1    0    0  501    0  0.00000000000E+00  0.00000000000E+00  0.37526693997E+01  0.37526693997E+01  0.00000000000E+00 0.  1.
         -2   -1    0    0    0  501 -0.00000000000E+00 -0.00000000000E+00 -0.51901382517E+02  0.51901382517E+02  0.00000000000E+00 0. -1.
        -11    1    1    2    0    0 -0.11567768813E+02 -0.20202480012E+01 -0.90372504308E+01  0.14817778938E+02  0.00000000000E+00 0.  1.
         11    1    1    2    0    0  0.11567768813E+02  0.20202480012E+01 -0.39111462686E+02  0.40836272979E+02  0.00000000000E+00 0. -1.
<mgrwt>
<rscale>  0 0.27911914E+02</rscale>
<asrwt>0</asrwt>
<pdfrwt beam="1">  1        2 0.57733376E-03 0.27911914E+02</pdfrwt>
<pdfrwt beam="2">  1       -2 0.79848279E-02 0.27911914E+02</pdfrwt>
<totfact> 0.15977766E+06</totfact>
</mgrwt>
</event>
<event>
 4    1  0.2165211E+000  0.2844916E+02  0.7546771E-02  0.1615892E+00
          4   -1    0    0  501    0  0.00000000000E+00  0.00000000000E+00  0.49631205191E+02  0.49631205191E+02  0.00000000000E+00 0. -1.
         -4   -1    0    0    0  501 -0.00000000000E+00 -0.00000000000E+00 -0.40768444835E+01  0.40768444835E+01  0.00000000000E+00 0.  1.
        -11    1    1    2    0    0  0.64838191149E+01  0.12335653609E+02  0.17394147179E+02  0.22288216984E+02  0.00000000000E+00 0.  1.
         11    1    1    2    0    0 -0.64838191149E+01 -0.12335653609E+02  0.28160213528E+02  0.31419832690E+02  0.00000000000E+00 0. -1.
<mgrwt>
<rscale>  0 0.28449162E+02</rscale>
<asrwt>0</asrwt>
<pdfrwt beam="1">  1        4 0.76355696E-02 0.28449162E+02</pdfrwt>
<pdfrwt beam="2">  1       -4 0.62720688E-03 0.28449162E+02</pdfrwt>
<totfact> 0.53808514E+05</totfact>
</mgrwt>
</event>
<event>
 4    1  0.2165211E+000  0.5144881E+02  0.7546771E-02  0.1437680E+00
         -1   -1    0    0    0  501 -0.00000000000E+00  0.00000000000E+00  0.47115014360E+01  0.47115014360E+01  0.00000000000E+00 0.  1.
          1   -1    0    0  501    0  0.00000000000E+00 -0.00000000000E+00 -0.14045308383E+03  0.14045308383E+03  0.00000000000E+00 0. -1.
        -11    1    1    2    0    0  0.22343609790E+02  0.83024616145E+01 -0.95164984292E+02  0.98104750153E+02  0.00000000000E+00 0. -1.
         11    1    1    2    0    0 -0.22343609790E+02 -0.83024616145E+01 -0.40576598100E+02  0.47059835111E+02  0.00000000000E+00 0.  1.
<mgrwt>
<rscale>  0 0.51448806E+02</rscale>
<asrwt>0</asrwt>
<pdfrwt beam="2">  1        1 0.21608168E-01 0.51448806E+02</pdfrwt>
<pdfrwt beam="1">  1       -1 0.72484633E-03 0.51448806E+02</pdfrwt>
<totfact> 0.49354325E+05</totfact>
</mgrwt>
</event>
<event>
 4    1  0.2165211E+000  0.2830538E+02  0.7546771E-02  0.1617613E+00
          2   -1    0    0  501    0  0.00000000000E+00  0.00000000000E+00  0.63732639904E+02  0.63732639904E+02  0.00000000000E+00 0. -1.
         -2   -1    0    0    0  501 -0.00000000000E+00 -0.00000000000E+00 -0.31427947635E+01  0.31427947635E+01  0.00000000000E+00 0.  1.
        -11    1    1    2    0    0 -0.11509048623E+02 -0.65144501648E+01  0.42202805861E+02  0.44226384475E+02  0.00000000000E+00 0. -1.
         11    1    1    2    0    0  0.11509048623E+02  0.65144501648E+01  0.18387039279E+02  0.22649050193E+02  0.00000000000E+00 0.  1.
<mgrwt>
<rscale>  0 0.28305378E+02</rscale>
<asrwt>0</asrwt>
<pdfrwt beam="1">  1        2 0.98050206E-02 0.28305378E+02</pdfrwt>
<pdfrwt beam="2">  1       -2 0.48350693E-03 0.28305378E+02</pdfrwt>
<totfact> 0.21770007E+06</totfact>
</mgrwt>
</event>
<event>
 4    1  0.2165211E+000  0.2385455E+02  0.7546771E-02  0.1678021E+00
         -4   -1    0    0    0  501 -0.00000000000E+00  0.00000000000E+00  0.44809298008E+02  0.44809298008E+02  0.00000000000E+00 0.  1.
          4   -1    0    0  501    0  0.00000000000E+00 -0.00000000000E+00 -0.31747861496E+01  0.31747861496E+01  0.00000000000E+00 0. -1.
        -11    1    1    2    0    0  0.98104672780E+01 -0.53180863168E+01  0.29287822550E+02  0.31341727138E+02  0.00000000000E+00 0.  1.
         11    1    1    2    0    0 -0.98104672780E+01  0.53180863168E+01  0.12346689309E+02  0.16642357020E+02  0.00000000000E+00 0. -1.
<mgrwt>
<rscale>  0 0.23854554E+02</rscale>
<asrwt>0</asrwt>
<pdfrwt beam="2">  1        4 0.48842867E-03 0.23854554E+02</pdfrwt>
<pdfrwt beam="1">  1       -4 0.68937377E-02 0.23854554E+02</pdfrwt>
<totfact> 0.80496824E+05</totfact>
</mgrwt>
</event>
<event>
 4    1  0.2165211E+000  0.2695698E+02  0.7546771E-02  0.1634386E+00
          2   -1    0    0  501    0  0.00000000000E+00  0.00000000000E+00  0.84637401259E+02  0.84637401259E+02  0.00000000000E+00 0.  1.
         -2   -1    0    0    0  501 -0.00000000000E+00 -0.00000000000E+00 -0.21464467320E+01  0.21464467320E+01  0.00000000000E+00 0. -1.
        -11    1    1    2    0    0  0.13267324141E+02  0.46300915370E+00  0.48749666355E+02  0.50524907096E+02  0.00000000000E+00 0.  1.
         11    1    1    2    0    0 -0.13267324141E+02 -0.46300915370E+00  0.33741288172E+02  0.36258940895E+02  0.00000000000E+00 0. -1.
<mgrwt>
<rscale>  0 0.26956979E+02</rscale>
<asrwt>0</asrwt>
<pdfrwt beam="1">  1        2 0.13021136E-01 0.26956979E+02</pdfrwt>
<pdfrwt beam="2">  1       -2 0.33022264E-03 0.26956979E+02</pdfrwt>
<totfact> 0.25838415E+06</totfact>
</mgrwt>
</event>
<event>
 4    1  0.2165211E+000  0.2912881E+02  0.7546771E-02  0.1607923E+00
         -1   -1    0    0    0  501 -0.00000000000E+00  0.00000000000E+00  0.24188353479E+01  0.24188353479E+01  0.00000000000E+00 0. -1.
          1   -1    0    0  501    0  0.00000000000E+00 -0.00000000000E+00 -0.87695875069E+02  0.87695875069E+02  0.00000000000E+00 0.  1.
        -11    1    1    2    0    0 -0.23818457167E+01 -0.12782850920E+02 -0.22340835150E+02  0.25849320723E+02  0.00000000000E+00 0. -1.
         11    1    1    2    0    0  0.23818457167E+01  0.12782850920E+02 -0.62936204571E+02  0.64265389694E+02  0.00000000000E+00 0.  1.
<mgrwt>
<rscale>  0 0.29128809E+02</rscale>
<asrwt>0</asrwt>
<pdfrwt beam="2">  1        1 0.13491673E-01 0.29128809E+02</pdfrwt>
<pdfrwt beam="1">  1       -1 0.37212851E-03 0.29128809E+02</pdfrwt>
<totfact> 0.18557318E+06</totfact>
</mgrwt>
</event>
<event>
 4    1  0.2165211E+000  0.3099677E+02  0.7546771E-02  0.1587325E+00
         -2   -1    0    0    0  501 -0.00000000000E+00  0.00000000000E+00  0.66207360064E+01  0.66207360064E+01  0.00000000000E+00 0. -1.
          2   -1    0    0  501    0  0.00000000000E+00 -0.00000000000E+00 -0.36279934821E+02  0.36279934821E+02  0.00000000000E+00 0.  1.
        -13    1    1    2    0    0 -0.10467799939E+02 -0.11405764705E+02 -0.15840578253E+02  0.22149271398E+02  0.00000000000E+00 0.  1.
         13    1    1    2    0    0  0.10467799939E+02  0.11405764705E+02 -0.13818620561E+02  0.20751399429E+02  0.00000000000E+00 0. -1.
<mgrwt>
<rscale>  0 0.30996766E+02</rscale>
<asrwt>0</asrwt>
<pdfrwt beam="2">  1        2 0.55815284E-02 0.30996766E+02</pdfrwt>
<pdfrwt beam="1">  1       -2 0.10185748E-02 0.30996766E+02</pdfrwt>
<totfact> 0.16020469E+06</totfact>
</mgrwt>
</event>
<event>
 4    1  0.2165211E+000  0.4618717E+02  0.7546771E-02  0.1467064E+00
         -2   -1    0    0    0  501 -0.00000000000E+00  0.00000000000E+00  0.34121019023E+02  0.34121019023E+02  0.00000000000E+00 0.  1.
          2   -1    0    0  501    0  0.00000000000E+00 -0.00000000000E+00 -0.15630060528E+02  0.15630060528E+02  0.00000000000E+00 0. -1.
        -11    1    1    2    0    0 -0.15568397911E+02  0.86356406219E+01 -0.65988543961E+01  0.18986684329E+02  0.00000000000E+00 0. -1.
         11    1    1    2    0    0  0.15568397911E+02 -0.86356406219E+01  0.25089812891E+02  0.30764395222E+02  0.00000000000E+00 0.  1.
<mgrwt>
<rscale>  0 0.46187167E+02</rscale>
<asrwt>0</asrwt>
<pdfrwt beam="2">  1        2 0.24046247E-02 0.46187167E+02</pdfrwt>
<pdfrwt beam="1">  1       -2 0.52493875E-02 0.46187167E+02</pdfrwt>
<totfact> 0.52371287E+05</totfact>
</mgrwt>
</event>
<event>
 4    1  0.2165211E+000  0.2406682E+02  0.7546771E-02  0.1674779E+00
          4   -1    0    0  501    0  0.00000000000E+00  0.00000000000E+00  0.18141200582E+02  0.18141200582E+02  0.00000000000E+00 0. -1.
         -4   -1    0    0    0  501 -0.00000000000E+00 -0.00000000000E+00 -0.79819943110E+01  0.79819943110E+01  0.00000000000E+00 0.  1.
        -13    1    1    2    0    0  0.73000120788E+00 -0.10863423466E+02  0.10641495634E+02  0.15224595249E+02  0.00000000000E+00 0. -1.
         13    1    1    2    0    0 -0.73000120788E+00  0.10863423466E+02 -0.48228936258E+00  0.10898599644E+02  0.00000000000E+00 0.  1.
<mgrwt>
<rscale>  0 0.24066820E+02</rscale>
<asrwt>0</asrwt>
<pdfrwt beam="1">  1        4 0.27909539E-02 0.24066820E+02</pdfrwt>
<pdfrwt beam="2">  1       -4 0.12279991E-02 0.24066820E+02</pdfrwt>
<totfact> 0.85929843E+05</totfact>
</mgrwt>
</event>
<event>
 4    1  0.2165211E+000  0.2652553E+02  0.7546771E-02  0.1640010E+00
          2   -1    0    0  501    0  0.00000000000E+00  0.00000000000E+00  0.14882495006E+02  0.14882495006E+02  0.00000000000E+00 0.  1.
         -2   -1    0    0    0  501 -0.00000000000E+00 -0.00000000000E+00 -0.11819320331E+02  0.11819320331E+02  0.00000000000E+00 0. -1.
        -11    1    1    2    0    0  0.42668354951E+01  0.12556103832E+02  0.13319077259E+01  0.13328000854E+02  0.00000000000E+00 0. -1.
         11    1    1    2    0    0 -0.42668354951E+01 -0.12556103832E+02  0.17312669493E+01  0.13373814483E+02  0.00000000000E+00 0.  1.
<mgrwt>
<rscale>  0 0.26525533E+02</rscale>
<asrwt>0</asrwt>
<pdfrwt beam="1">  1        2 0.22896146E-02 0.26525533E+02</pdfrwt>
<pdfrwt beam="2">  1       -2 0.18183570E-02 0.26525533E+02</pdfrwt>
<totfact> 0.21066069E+06</totfact>
</mgrwt>
</event>
<event>
 4    1  0.2165211E+000  0.4441957E+02  0.7546771E-02  0.1477998E+00
          2   -1    0    0  501    0  0.00000000000E+00  0.00000000000E+00  0.94001514869E+02  0.94001514869E+02  0.00000000000E+00 0.  1.
         -2   -1    0    0    0  501 -0.00000000000E+00 -0.00000000000E+00 -0.52475159688E+01  0.52475159688E+01  0.00000000000E+00 0. -1.
        -13    1    1    2    0    0  0.17956703112E+02  0.10959157972E+01  0.15276288674E+02  0.23601042641E+02  0.00000000000E+00 0.  1.
         13    1    1    2    0    0 -0.17956703112E+02 -0.10959157972E+01  0.73477710226E+02  0.75647988196E+02  0.00000000000E+00 0. -1.
<mgrwt>
<rscale>  0 0.44419566E+02</rscale>
<asrwt>0</asrwt>
<pdfrwt beam="1">  1        2 0.14461770E-01 0.44419566E+02</pdfrwt>
<pdfrwt beam="2">  1       -2 0.80731022E-03 0.44419566E+02</pdfrwt>
<totfact> 0.79367313E+05</totfact>
</mgrwt>
</event>
<event>
 4    1  0.2165211E+000  0.6173565E+02  0.7546771E-02  0.1390689E+00
          4   -1    0    0  501    0  0.00000000000E+00  0.00000000000E+00  0.55355293509E+02  0.55355293509E+02  0.00000000000E+00 0.  1.
         -4   -1    0    0    0  501 -0.00000000000E+00 -0.00000000000E+00 -0.17212853732E+02  0.17212853732E+02  0.00000000000E+00 0. -1.
        -11    1    1    2    0    0 -0.13649345709E+02 -0.18599510309E+02  0.43177618920E+02  0.48954603436E+02  0.00000000000E+00 0.  1.
         11    1    1    2    0    0  0.13649345709E+02  0.18599510309E+02 -0.50351791426E+01  0.23613543805E+02  0.00000000000E+00 0. -1.
<mgrwt>
<rscale>  0 0.61735648E+02</rscale>
<asrwt>0</asrwt>
<pdfrwt beam="1">  1        4 0.85161989E-02 0.61735648E+02</pdfrwt>
<pdfrwt beam="2">  1       -4 0.26481314E-02 0.61735648E+02</pdfrwt>
<totfact> 0.79296598E+04</totfact>
</mgrwt>
</event>
<event>
 4    1  0.2165211E+000  0.2294628E+02  0.7546771E-02  0.1692382E+00
         -2   -1    0    0    0  501 -0.00000000000E+00  0.00000000000E+00  0.11311373107E+02  0.11311373107E+02  0.00000000000E+00 0.  1.
          2   -1    0    0  501    0  0.00000000000E+00 -0.00000000000E+00 -0.11637216169E+02  0.11637216169E+02  0.00000000000E+00 0. -1.
        -13    1    1    2    0    0 -0.32455798175E+01 -0.11001877361E+02  0.77519389483E-01  0.11470880659E+02  0.00000000000E+00 0.  1.
         13    1    1    2    0    0  0.32455798175E+01  0.11001877361E+02 -0.40336245185E+00  0.11477708617E+02  0.00000000000E+00 0. -1.
<mgrwt>
<rscale>  0 0.22946276E+02</rscale>
<asrwt>0</asrwt>
<pdfrwt beam="2">  1        2 0.17903409E-02 0.22946276E+02</pdfrwt>
<pdfrwt beam="1">  1       -2 0.17402112E-02 0.22946276E+02</pdfrwt>
<totfact> 0.29051634E+06</totfact>
</mgrwt>
</event>
<event>
 4    1  0.2165211E+000  0.2124725E+02  0.7546771E-02  0.1721605E+00
         -1   -1    0    0    0  501 -0.00000000000E+00  0.00000000000E+00  0.19269779939E+01  0.19269779939E+01  0.00000000000E+00 0.  1.
          1   -1    0    0  501    0  0.00000000000E+00 -0.00000000000E+00 -0.58569143460E+02  0.58569143460E+02  0.00000000000E+00 0. -1.
        -11    1    1    2    0    0  0.92609377196E+01 -0.47839672644E+01 -0.34163236836E+02  0.35718035519E+02  0.00000000000E+00 0.  1.
         11    1    1    2    0    0 -0.92609377196E+01  0.47839672644E+01 -0.22478928630E+02  0.24778085935E+02  0.00000000000E+00 0. -1.
<mgrwt>
<rscale>  0 0.21247254E+02</rscale>
<asrwt>0</asrwt>
<pdfrwt beam="2">  1        1 0.90106367E-02 0.21247254E+02</pdfrwt>
<pdfrwt beam="1">  1       -1 0.29645818E-03 0.21247254E+02</pdfrwt>
<totfact> 0.36875101E+06</totfact>
</mgrwt>
</event>
<event>
 4    1  0.2165211E+000  0.2145280E+02  0.7546771E-02  0.1717891E+00
          2   -1    0    0  501    0  0.00000000000E+00  0.00000000000E+00  0.84208073951E+01  0.84208073951E+01  0.00000000000E+00 0. -1.
         -2   -1    0    0    0  501 -0.00000000000E+00 -0.00000000000E+00 -0.13663261034E+02  0.13663261034E+02  0.00000000000E+00 0.  1.
        -13    1    1    2    0    0  0.10321965429E+02 -0.21709847323E+01 -0.46278268191E+01  0.11518373414E+02  0.00000000000E+00 0.  1.
         13    1    1    2    0    0 -0.10321965429E+02  0.21709847323E+01 -0.61462681980E+00  0.10565695015E+02  0.00000000000E+00 0. -1.
<mgrwt>
<rscale>  0 0.21452803E+02</rscale>
<asrwt>0</asrwt>
<pdfrwt beam="1">  1        2 0.12955088E-02 0.21452803E+02</pdfrwt>
<pdfrwt beam="2">  1       -2 0.21020401E-02 0.21452803E+02</pdfrwt>
<totfact> 0.33130410E+06</totfact>
</mgrwt>
</event>
<event>
 4    1  0.2165211E+000  0.3236075E+02  0.7546771E-02  0.1573370E+00
         -2   -1    0    0    0  501 -0.00000000000E+00  0.00000000000E+00  0.93140018154E+01  0.93140018154E+01  0.00000000000E+00 0. -1.
          2   -1    0    0  501    0  0.00000000000E+00 -0.00000000000E+00 -0.28108709105E+02  0.28108709105E+02  0.00000000000E+00 0.  1.
        -13    1    1    2    0    0 -0.14544069778E+02 -0.43711592800E+01 -0.29412855772E+01  0.15468941787E+02  0.00000000000E+00 0. -1.
         13    1    1    2    0    0  0.14544069778E+02  0.43711592800E+01 -0.15853421712E+02  0.21953769133E+02  0.00000000000E+00 0.  1.
<mgrwt>
<rscale>  0 0.32360752E+02</rscale>
<asrwt>0</asrwt>
<pdfrwt beam="2">  1        2 0.43244168E-02 0.32360752E+02</pdfrwt>
<pdfrwt beam="1">  1       -2 0.14329233E-02 0.32360752E+02</pdfrwt>
<totfact> 0.13957586E+06</totfact>
</mgrwt>
</event>
<event>
 4    1  0.2165211E+000  0.2574616E+02  0.7546771E-02  0.1650510E+00
          2   -1    0    0  501    0  0.00000000000E+00  0.00000000000E+00  0.75967179417E+02  0.75967179417E+02  0.00000000000E+00 0. -1.
         -2   -1    0    0    0  501 -0.00000000000E+00 -0.00000000000E+00 -0.21814188629E+01  0.21814188629E+01  0.00000000000E+00 0.  1.
        -11    1    1    2    0    0  0.10767551913E+02 -0.30376172847E+01  0.56221393310E+02  0.57323750389E+02  0.00000000000E+00 0.  1.
         11    1    1    2    0    0 -0.10767551913E+02  0.30376172847E+01  0.17564367244E+02  0.20824847890E+02  0.00000000000E+00 0. -1.
<mgrwt>
<rscale>  0 0.25746164E+02</rscale>
<asrwt>0</asrwt>
<pdfrwt beam="1">  1        2 0.11687256E-01 0.25746164E+02</pdfrwt>
<pdfrwt beam="2">  1       -2 0.33560296E-03 0.25746164E+02</pdfrwt>
<totfact> 0.28100560E+06</totfact>
</mgrwt>
</event>
<event>
 4    1  0.2165211E+000  0.3225392E+02  0.7546771E-02  0.1574432E+00
          2   -1    0    0  501    0  0.00000000000E+00  0.00000000000E+00  0.68696867117E+02  0.68696867117E+02  0.00000000000E+00 0.  1.
         -2   -1    0    0    0  501 -0.00000000000E+00 -0.00000000000E+00 -0.37858918289E+01  0.37858918289E+01  0.00000000000E+00 0. -1.
        -13    1    1    2    0    0 -0.14330265401E+02  0.23975774492E+01  0.16728880154E+02  0.22157624316E+02  0.00000000000E+00 0.  1.
         13    1    1    2    0    0  0.14330265401E+02 -0.23975774492E+01  0.48182095134E+02  0.50325134631E+02  0.00000000000E+00 0. -1.
<mgrwt>
<rscale>  0 0.32253924E+02</rscale>
<asrwt>0</asrwt>
<pdfrwt beam="1">  1        2 0.10568748E-01 0.32253924E+02</pdfrwt>
<pdfrwt beam="2">  1       -2 0.58244495E-03 0.32253924E+02</pdfrwt>
<totfact> 0.16195743E+06</totfact>
</mgrwt>
</event>
<event>
 4    1  0.2165211E+000  0.2445211E+02  0.7546771E-02  0.1668998E+00
          2   -1    0    0  501    0  0.00000000000E+00  0.00000000000E+00  0.45793712432E+01  0.45793712432E+01  0.00000000000E+00 0.  1.
         -2   -1    0    0    0  501 -0.00000000000E+00 -0.00000000000E+00 -0.32641254616E+02  0.32641254616E+02  0.00000000000E+00 0. -1.
        -13    1    1    2    0    0 -0.34528432831E+01 -0.98815390940E+01 -0.23647183343E+02  0.25860321376E+02  0.00000000000E+00 0. -1.
         13    1    1    2    0    0  0.34528432831E+01  0.98815390940E+01 -0.44147000300E+01  0.11360304484E+02  0.00000000000E+00 0.  1.
<mgrwt>
<rscale>  0 0.24452110E+02</rscale>
<asrwt>0</asrwt>
<pdfrwt beam="1">  1        2 0.70451866E-03 0.24452110E+02</pdfrwt>
<pdfrwt beam="2">  1       -2 0.50217314E-02 0.24452110E+02</pdfrwt>
<totfact> 0.22909900E+06</totfact>
</mgrwt>
</event>
<event>
 4    1  0.2165211E+000  0.3169934E+02  0.7546771E-02  0.1580030E+00
          1   -1    0    0  501    0  0.00000000000E+00  0.00000000000E+00  0.12015931852E+03  0.12015931852E+03  0.00000000000E+00 0. -1.
         -1   -1    0    0    0  501 -0.00000000000E+00 -0.00000000000E+00 -0.20906585843E+01  0.20906585843E+01  0.00000000000E+00 0.  1.
        -13    1    1    2    0    0 -0.10623256133E+02 -0.98618364693E+01  0.34309472721E+02  0.37245795840E+02  0.00000000000E+00 0. -1.
         13    1    1    2    0    0  0.10623256133E+02  0.98618364693E+01  0.83759187216E+02  0.85004181265E+02  0.00000000000E+00 0.  1.
<mgrwt>
<rscale>  0 0.31699345E+02</rscale>
<asrwt>0</asrwt>
<pdfrwt beam="1">  1        1 0.18486044E-01 0.31699345E+02</pdfrwt>
<pdfrwt beam="2">  1       -1 0.32163988E-03 0.31699345E+02</pdfrwt>
<totfact> 0.15791959E+06</totfact>
</mgrwt>
</event>
<event>
 4    1  0.2165211E+000  0.2521369E+02  0.7546771E-02  0.1657951E+00
         -2   -1    0    0    0  501 -0.00000000000E+00  0.00000000000E+00  0.17431439668E+02  0.17431439668E+02  0.00000000000E+00 0.  1.
          2   -1    0    0  501    0  0.00000000000E+00 -0.00000000000E+00 -0.91175817853E+01  0.91175817853E+01  0.00000000000E+00 0. -1.
        -13    1    1    2    0    0 -0.78612044381E+01  0.98553566658E+01  0.40754582382E+01  0.13248998078E+02  0.00000000000E+00 0. -1.
         13    1    1    2    0    0  0.78612044381E+01 -0.98553566658E+01  0.42383996444E+01  0.13300023375E+02  0.00000000000E+00 0.  1.
<mgrwt>
<rscale>  0 0.25213693E+02</rscale>
<asrwt>0</asrwt>
<pdfrwt beam="2">  1        2 0.14027049E-02 0.25213693E+02</pdfrwt>
<pdfrwt beam="1">  1       -2 0.26817599E-02 0.25213693E+02</pdfrwt>
<totfact> 0.22754834E+06</totfact>
</mgrwt>
</event>
<event>
 4    1  0.2165211E+000  0.2683294E+02  0.7546771E-02  0.1635990E+00
         -2   -1    0    0    0  501 -0.00000000000E+00  0.00000000000E+00  0.16670135908E+01  0.16670135908E+01  0.00000000000E+00 0.  1.
          2   -1    0    0  501    0  0.00000000000E+00 -0.00000000000E+00 -0.10797848574E+03  0.10797848574E+03  0.00000000000E+00 0. -1.
        -13    1    1    2    0    0 -0.92973146061E+01 -0.89513285730E+01 -0.68133455247E+02  0.69345036347E+02  0.00000000000E+00 0. -1.
         13    1    1    2    0    0  0.92973146061E+01  0.89513285730E+01 -0.38178016901E+02  0.40300462983E+02  0.00000000000E+00 0.  1.
<mgrwt>
<rscale>  0 0.26832935E+02</rscale>
<asrwt>0</asrwt>
<pdfrwt beam="2">  1        2 0.16612076E-01 0.26832935E+02</pdfrwt>
<pdfrwt beam="1">  1       -2 0.25646361E-03 0.26832935E+02</pdfrwt>
<totfact> 0.27631401E+06</totfact>
</mgrwt>
</event>
<event>
 4    1  0.2165211E+000  0.4425655E+02  0.7546771E-02  0.1479037E+00
         -4   -1    0    0    0  501 -0.00000000000E+00  0.00000000000E+00  0.72996238113E+01  0.72996238113E+01  0.00000000000E+00 0. -1.
          4   -1    0    0  501    0  0.00000000000E+00 -0.00000000000E+00 -0.67080250178E+02  0.67080250178E+02  0.00000000000E+00 0.  1.
        -11    1    1    2    0    0  0.13832280879E+02 -0.32635342445E+01 -0.13846501310E+01  0.14279352439E+02  0.00000000000E+00 0. -1.
         11    1    1    2    0    0 -0.13832280879E+02  0.32635342445E+01 -0.58395976236E+02  0.60100521550E+02  0.00000000000E+00 0.  1.
<mgrwt>
<rscale>  0 0.44256552E+02</rscale>
<asrwt>0</asrwt>
<pdfrwt beam="2">  1        4 0.10320039E-01 0.44256552E+02</pdfrwt>
<pdfrwt beam="1">  1       -4 0.11230190E-02 0.44256552E+02</pdfrwt>
<totfact> 0.18087529E+05</totfact>
</mgrwt>
</event>
<event>
 4    1  0.2165211E+000  0.2105858E+02  0.7546771E-02  0.1725061E+00
          4   -1    0    0  501    0  0.00000000000E+00  0.00000000000E+00  0.62838242237E+02  0.62838242237E+02  0.00000000000E+00 0. -1.
         -4   -1    0    0    0  501 -0.00000000000E+00 -0.00000000000E+00 -0.17643064666E+01  0.17643064666E+01  0.00000000000E+00 0.  1.
        -13    1    1    2    0    0  0.78800381704E+01 -0.64710669095E+01  0.38593085998E+02  0.39917364584E+02  0.00000000000E+00 0. -1.
         13    1    1    2    0    0 -0.78800381704E+01  0.64710669095E+01  0.22480849773E+02  0.24685184119E+02  0.00000000000E+00 0.  1.
<mgrwt>
<rscale>  0 0.21058577E+02</rscale>
<asrwt>0</asrwt>
<pdfrwt beam="1">  1        4 0.96674202E-02 0.21058577E+02</pdfrwt>
<pdfrwt beam="2">  1       -4 0.27143181E-03 0.21058577E+02</pdfrwt>
<totfact> 0.98570465E+05</totfact>
</mgrwt>
</event>
<event>
 4    1  0.2165211E+000  0.2895395E+02  0.7546771E-02  0.1609948E+00
          2   -1    0    0  501    0  0.00000000000E+00  0.00000000000E+00  0.77484500376E+02  0.77484500376E+02  0.00000000000E+00 0.  1.
         -2   -1    0    0    0  501 -0.00000000000E+00 -0.00000000000E+00 -0.27048356674E+01  0.27048356674E+01  0.00000000000E+00 0. -1.
        -11    1    1    2    0    0  0.18464012644E+01  0.14335230408E+02  0.35114734413E+02  0.37973050988E+02  0.00000000000E+00 0.  1.
         11    1    1    2    0    0 -0.18464012644E+01 -0.14335230408E+02  0.39664930295E+02  0.42216285055E+02  0.00000000000E+00 0. -1.
<mgrwt>
<rscale>  0 0.28953952E+02</rscale>
<asrwt>0</asrwt>
<pdfrwt beam="1">  1        2 0.11920691E-01 0.28953952E+02</pdfrwt>
<pdfrwt beam="2">  1       -2 0.41612862E-03 0.28953952E+02</pdfrwt>
<totfact> 0.21452583E+06</totfact>
</mgrwt>
</event>
<event>
 4    1  0.2165211E+000  0.3310528E+02  0.7546771E-02  0.1566100E+00
          2   -1    0    0  501    0  0.00000000000E+00  0.00000000000E+00  0.46027536413E+01  0.46027536413E+01  0.00000000000E+00 0.  1.
         -2   -1    0    0    0  501 -0.00000000000E+00 -0.00000000000E+00 -0.59527397648E+02  0.59527397648E+02  0.00000000000E+00 0. -1.
        -11    1    1    2    0    0 -0.86307131025E+01  0.87379451078E+01 -0.48959452524E+02  0.50476419097E+02  0.00000000000E+00 0. -1.
         11    1    1    2    0    0  0.86307131025E+01 -0.87379451078E+01 -0.59651914826E+01  0.13653732193E+02  0.00000000000E+00 0.  1.
<mgrwt>
<rscale>  0 0.33105283E+02</rscale>
<asrwt>0</asrwt>
<pdfrwt beam="1">  1        2 0.70811598E-03 0.33105283E+02</pdfrwt>
<pdfrwt beam="2">  1       -2 0.91580607E-02 0.33105283E+02</pdfrwt>
<totfact> 0.10532674E+06</totfact>
</mgrwt>
</event>
<event>
 4    1  0.2165211E+000  0.4304244E+02  0.7546771E-02  0.1486946E+00
         -2   -1    0    0    0  501 -0.00000000000E+00  0.00000000000E+00  0.18803457127E+02  0.18803457127E+02  0.00000000000E+00 0.  1.
          2   -1    0    0  501    0  0.00000000000E+00 -0.00000000000E+00 -0.24631795422E+02  0.24631795422E+02  0.00000000000E+00 0. -1.
        -11    1    1    2    0    0  0.11362927393E+02  0.39895682784E+01 -0.20913148294E+02  0.24132810561E+02  0.00000000000E+00 0. -1.
         11    1    1    2    0    0 -0.11362927393E+02 -0.39895682784E+01  0.15084809999E+02  0.19302441988E+02  0.00000000000E+00 0.  1.
<mgrwt>
<rscale>  0 0.43042440E+02</rscale>
<asrwt>0</asrwt>
<pdfrwt beam="2">  1        2 0.37895070E-02 0.43042440E+02</pdfrwt>
<pdfrwt beam="1">  1       -2 0.28928396E-02 0.43042440E+02</pdfrwt>
<totfact> 0.67213590E+05</totfact>
</mgrwt>
</event>
<event>
 4    1  0.2165211E+000  0.2116186E+02  0.7546771E-02  0.1723164E+00
          4   -1    0    0  501    0  0.00000000000E+00  0.00000000000E+00  0.69787128651E+01  0.69787128651E+01  0.00000000000E+00 0.  1.
         -4   -1    0    0    0  501 -0.00000000000E+00 -0.00000000000E+00 -0.16042509477E+02  0.16042509477E+02  0.00000000000E+00 0. -1.
        -11    1    1    2    0    0  0.65354079523E+01 -0.81284301185E+01 -0.64697421225E+01  0.12273569017E+02  0.00000000000E+00 0. -1.
         11    1    1    2    0    0 -0.65354079523E+01  0.81284301185E+01 -0.25940544892E+01  0.10747653325E+02  0.00000000000E+00 0.  1.
<mgrwt>
<rscale>  0 0.21161859E+02</rscale>
<asrwt>0</asrwt>
<pdfrwt beam="1">  1        4 0.10736481E-02 0.21161859E+02</pdfrwt>
<pdfrwt beam="2">  1       -4 0.24680784E-02 0.21161859E+02</pdfrwt>
<totfact> 0.11426022E+06</totfact>
</mgrwt>
</event>
<event>
 4    1  0.2165211E+000  0.9323246E+02  0.7546771E-02  0.1295207E+00
          2   -1    0    0  501    0  0.00000000000E+00  0.00000000000E+00  0.22849880719E+03  0.22849880719E+03  0.00000000000E+00 0. -1.
         -2   -1    0    0    0  501 -0.00000000000E+00 -0.00000000000E+00 -0.95102148939E+01  0.95102148939E+01  0.00000000000E+00 0.  1.
        -11    1    1    2    0    0  0.11183301152E+02  0.32072068031E+02  0.19100154962E+03  0.19399813331E+03  0.00000000000E+00 0. -1.
         11    1    1    2    0    0 -0.11183301152E+02 -0.32072068031E+02  0.27987042675E+02  0.44010888768E+02  0.00000000000E+00 0.  1.
<mgrwt>
<rscale>  0 0.93232457E+02</rscale>
<asrwt>0</asrwt>
<pdfrwt beam="1">  1        2 0.35153659E-01 0.93232457E+02</pdfrwt>
<pdfrwt beam="2">  1       -2 0.14631102E-02 0.93232457E+02</pdfrwt>
<totfact> 0.15293358E+05</totfact>
</mgrwt>
</event>
<event>
 4    1  0.2165211E+000  0.2487605E+02  0.7546771E-02  0.1662789E+00
          2   -1    0    0  501    0  0.00000000000E+00  0.00000000000E+00  0.91370012510E+02  0.91370012510E+02  0.00000000000E+00 0. -1.
         -2   -1    0    0    0  501 -0.00000000000E+00 -0.00000000000E+00 -0.16931644031E+01  0.16931644031E+01  0.00000000000E+00 0.  1.
        -11    1    1    2    0    0  0.10911407165E+02 -0.44023139905E+01  0.29750578998E+02  0.31992751140E+02  0.00000000000E+00 0. -1.
         11    1    1    2    0    0 -0.10911407165E+02  0.44023139905E+01  0.59926269109E+02  0.61070425774E+02  0.00000000000E+00 0.  1.
<mgrwt>
<rscale>  0 0.24876049E+02</rscale>
<asrwt>0</asrwt>
<pdfrwt beam="1">  1        2 0.14056921E-01 0.24876049E+02</pdfrwt>
<pdfrwt beam="2">  1       -2 0.26048690E-03 0.24876049E+02</pdfrwt>
<totfact> 0.31638349E+06</totfact>
</mgrwt>
</event>
<event>
 4    1  0.2165211E+000  0.3498549E+02  0.7546771E-02  0.1548729E+00
          2   -1    0    0  501    0  0.00000000000E+00  0.00000000000E+00  0.31276396850E+01  0.31276396850E+01  0.00000000000E+00 0.  1.
         -2   -1    0    0    0  501 -0.00000000000E+00 -0.00000000000E+00 -0.97836115644E+02  0.97836115644E+02  0.00000000000E+00 0. -1.
        -13    1    1    2    0    0 -0.13217246725E+02  0.27528703585E+01 -0.79453967961E+02  0.80592846649E+02  0.00000000000E+00 0. -1.
         13    1    1    2    0    0  0.13217246725E+02 -0.27528703585E+01 -0.15254507997E+02  0.20370908680E+02  0.00000000000E+00 0.  1.
<mgrwt>
<rscale>  0 0.34985489E+02</rscale>
<asrwt>0</asrwt>
<pdfrwt beam="1">  1        2 0.48117536E-03 0.34985489E+02</pdfrwt>
<pdfrwt beam="2">  1       -2 0.15051709E-01 0.34985489E+02</pdfrwt>
<totfact> 0.83689056E+05</totfact>
</mgrwt>
</event>
<event>
 4    1  0.2165211E+000  0.3691601E+02  0.7546771E-02  0.1532216E+00
          1   -1    0    0  501    0  0.00000000000E+00  0.00000000000E+00  0.25968175601E+01  0.25968175601E+01  0.00000000000E+00 0.  1.
         -1   -1    0    0    0  501 -0.00000000000E+00 -0.00000000000E+00 -0.13119828706E+03  0.13119828706E+03  0.00000000000E+00 0. -1.
        -13    1    1    2    0    0 -0.31200972269E+01 -0.17314176612E+02 -0.44062180775E+02  0.47444615006E+02  0.00000000000E+00 0.  1.
         13    1    1    2    0    0  0.31200972269E+01  0.17314176612E+02 -0.84539288730E+02  0.86350489618E+02  0.00000000000E+00 0. -1.
<mgrwt>
<rscale>  0 0.36916014E+02</rscale>
<asrwt>0</asrwt>
<pdfrwt beam="1">  1        1 0.39951047E-03 0.36916014E+02</pdfrwt>
<pdfrwt beam="2">  1       -1 0.20184348E-01 0.36916014E+02</pdfrwt>
<totfact> 0.74178498E+05</totfact>
</mgrwt>
</event>
<event>
 4    1  0.2165211E+000  0.9994957E+02  0.7546771E-02  0.1280402E+00
          2   -1    0    0  501    0  0.00000000000E+00  0.00000000000E+00  0.43146613650E+03  0.43146613650E+03  0.00000000000E+00 0. -1.
         -2   -1    0    0    0  501 -0.00000000000E+00 -0.00000000000E+00 -0.57883553784E+01  0.57883553784E+01  0.00000000000E+00 0.  1.
        -11    1    1    2    0    0  0.39016393897E+02 -0.31043607026E+02  0.19800674159E+03  0.20418779161E+03  0.00000000000E+00 0.  1.
         11    1    1    2    0    0 -0.39016393897E+02  0.31043607026E+02  0.22767103954E+03  0.23306670027E+03  0.00000000000E+00 0. -1.
<mgrwt>
<rscale>  0 0.99949574E+02</rscale>
<asrwt>0</asrwt>
<pdfrwt beam="1">  1        2 0.66379381E-01 0.99949574E+02</pdfrwt>
<pdfrwt beam="2">  1       -2 0.89051655E-03 0.99949574E+02</pdfrwt>
<totfact> 0.16050258E+05</totfact>
</mgrwt>
</event>
<event>
 4    1  0.2165211E+000  0.2316808E+02  0.7546771E-02  0.1688800E+00
         -2   -1    0    0    0  501 -0.00000000000E+00  0.00000000000E+00  0.33051843157E+01  0.33051843157E+01  0.00000000000E+00 0.  1.
          2   -1    0    0  501    0  0.00000000000E+00 -0.00000000000E+00 -0.40599853731E+02  0.40599853731E+02  0.00000000000E+00 0. -1.
        -11    1    1    2    0    0 -0.37930555695E+01  0.10246934401E+02 -0.25938553043E+02  0.28145967191E+02  0.00000000000E+00 0. -1.
         11    1    1    2    0    0  0.37930555695E+01 -0.10246934401E+02 -0.11356116372E+02  0.15759070855E+02  0.00000000000E+00 0.  1.
<mgrwt>
<rscale>  0 0.23168081E+02</rscale>
<asrwt>0</asrwt>
<pdfrwt beam="2">  1        2 0.62461307E-02 0.23168081E+02</pdfrwt>
<pdfrwt beam="1">  1       -2 0.50848994E-03 0.23168081E+02</pdfrwt>
<totfact> 0.32246553E+06</totfact>
</mgrwt>
</event>
<event>
 4    1  0.2165211E+000  0.2270304E+02  0.7546771E-02  0.1696370E+00
          4   -1    0    0  501    0  0.00000000000E+00  0.00000000000E+00  0.92918661041E+02  0.92918661041E+02  0.00000000000E+00 0.  1.
         -4   -1    0    0    0  501 -0.00000000000E+00 -0.00000000000E+00 -0.13867715924E+01  0.13867715924E+01  0.00000000000E+00 0. -1.
        -13    1    1    2    0    0  0.76643355599E+01 -0.83355855310E+01  0.42461245599E+02  0.43945209108E+02  0.00000000000E+00 0. -1.
         13    1    1    2    0    0 -0.76643355599E+01  0.83355855310E+01  0.49070643849E+02  0.50360223525E+02  0.00000000000E+00 0.  1.
<mgrwt>
<rscale>  0 0.22703036E+02</rscale>
<asrwt>0</asrwt>
<pdfrwt beam="1">  1        4 0.14295174E-01 0.22703036E+02</pdfrwt>
<pdfrwt beam="2">  1       -4 0.21334955E-03 0.22703036E+02</pdfrwt>
<totfact> 0.76954141E+05</totfact>
</mgrwt>
</event>
<event>
 4    1  0.2165211E+000  0.2296702E+02  0.7546771E-02  0.1692045E+00
         -2   -1    0    0    0  501 -0.00000000000E+00  0.00000000000E+00  0.72086395497E+01  0.72086395497E+01  0.00000000000E+00 0.  1.
          2   -1    0    0  501    0  0.00000000000E+00 -0.00000000000E+00 -0.18293461465E+02  0.18293461465E+02  0.00000000000E+00 0. -1.
        -13    1    1    2    0    0  0.32388696874E+01 -0.10735112001E+02 -0.27914334039E+01  0.11555302116E+02  0.00000000000E+00 0.  1.
         13    1    1    2    0    0 -0.32388696874E+01  0.10735112001E+02 -0.82933885116E+01  0.13946798899E+02  0.00000000000E+00 0. -1.
<mgrwt>
<rscale>  0 0.22967017E+02</rscale>
<asrwt>0</asrwt>
<pdfrwt beam="2">  1        2 0.28143787E-02 0.22967017E+02</pdfrwt>
<pdfrwt beam="1">  1       -2 0.11090215E-02 0.22967017E+02</pdfrwt>
<totfact> 0.30132636E+06</totfact>
</mgrwt>
</event>
<event>
 4    1  0.2165211E+000  0.5689815E+02  0.7546771E-02  0.1411330E+00
          1   -1    0    0  501    0  0.00000000000E+00  0.00000000000E+00  0.53060154601E+02  0.53060154601E+02  0.00000000000E+00 0.  1.
         -1   -1    0    0    0  501 -0.00000000000E+00 -0.00000000000E+00 -0.15253438868E+02  0.15253438868E+02  0.00000000000E+00 0. -1.
        -13    1    1    2    0    0  0.19009765528E+02 -0.31105528936E+01  0.44039363665E+02  0.48067788349E+02  0.00000000000E+00 0.  1.
         13    1    1    2    0    0 -0.19009765528E+02  0.31105528936E+01 -0.62326479318E+01  0.20245805120E+02  0.00000000000E+00 0. -1.
<mgrwt>
<rscale>  0 0.56898148E+02</rscale>
<asrwt>0</asrwt>
<pdfrwt beam="1">  1        1 0.81631006E-02 0.56898148E+02</pdfrwt>
<pdfrwt beam="2">  1       -1 0.23466829E-02 0.56898148E+02</pdfrwt>
<totfact> 0.33626613E+05</totfact>
</mgrwt>
</event>
<event>
 4    1  0.2165211E+000  0.2952339E+02  0.7546771E-02  0.1603418E+00
         -2   -1    0    0    0  501 -0.00000000000E+00  0.00000000000E+00  0.12116135512E+02  0.12116135512E+02  0.00000000000E+00 0.  1.
          2   -1    0    0  501    0  0.00000000000E+00 -0.00000000000E+00 -0.17984908833E+02  0.17984908833E+02  0.00000000000E+00 0. -1.
        -11    1    1    2    0    0  0.32190165874E+00 -0.10669221594E+02  0.74617725659E+01  0.13023592436E+02  0.00000000000E+00 0.  1.
         11    1    1    2    0    0 -0.32190165874E+00  0.10669221594E+02 -0.13330545887E+02  0.17077451910E+02  0.00000000000E+00 0. -1.
<mgrwt>
<rscale>  0 0.29523387E+02</rscale>
<asrwt>0</asrwt>
<pdfrwt beam="2">  1        2 0.27669090E-02 0.29523387E+02</pdfrwt>
<pdfrwt beam="1">  1       -2 0.18640208E-02 0.29523387E+02</pdfrwt>
<totfact> 0.16586886E+06</totfact>
</mgrwt>
</event>
<event>
 4    1  0.2165211E+000  0.3570365E+02  0.7546771E-02  0.1542439E+00
         -2   -1    0    0    0  501 -0.00000000000E+00  0.00000000000E+00  0.89409521952E+01  0.89409521952E+01  0.00000000000E+00 0.  1.
          2   -1    0    0  501    0  0.00000000000E+00 -0.00000000000E+00 -0.35643597384E+02  0.35643597384E+02  0.00000000000E+00 0. -1.
        -13    1    1    2    0    0  0.14705542299E+00 -0.17796664548E+02 -0.11609877153E+02  0.21249285678E+02  0.00000000000E+00 0. -1.
         13    1    1    2    0    0 -0.14705542299E+00  0.17796664548E+02 -0.15092768036E+02  0.23335263901E+02  0.00000000000E+00 0.  1.
<mgrwt>
<rscale>  0 0.35703652E+02</rscale>
<asrwt>0</asrwt>
<pdfrwt beam="2">  1        2 0.54836304E-02 0.35703652E+02</pdfrwt>
<pdfrwt beam="1">  1       -2 0.13755311E-02 0.35703652E+02</pdfrwt>
<totfact> 0.11326887E+06</totfact>
</mgrwt>
</event>
<event>
 4    1  0.2165211E+000  0.1026107E+03  0.7546771E-02  0.1274900E+00
          3   -1    0    0  501    0  0.00000000000E+00  0.00000000000E+00  0.38414646663E+03  0.38414646663E+03  0.00000000000E+00 0. -1.
         -3   -1    0    0    0  501 -0.00000000000E+00 -0.00000000000E+00 -0.68521748953E+01  0.68521748953E+01  0.00000000000E+00 0.  1.
        -11    1    1    2    0    0  0.39920413040E+02 -0.27769569462E+02  0.12633047484E+03  0.13536682474E+03  0.00000000000E+00 0.  1.
         11    1    1    2    0    0 -0.39920413040E+02  0.27769569462E+02  0.25096381689E+03  0.25563181678E+03  0.00000000000E+00 0. -1.
<mgrwt>
<rscale>  0 0.10261070E+03</rscale>
<asrwt>0</asrwt>
<pdfrwt beam="1">  1        3 0.59099440E-01 0.10261070E+03</pdfrwt>
<pdfrwt beam="2">  1       -3 0.10541810E-02 0.10261070E+03</pdfrwt>
<totfact> 0.15192464E+04</totfact>
</mgrwt>
</event>
<event>
 4    1  0.2165211E+000  0.2131340E+02  0.7546771E-02  0.1720404E+00
         -1   -1    0    0    0  501 -0.00000000000E+00  0.00000000000E+00  0.35437899311E+02  0.35437899311E+02  0.00000000000E+00 0. -1.
          1   -1    0    0  501    0  0.00000000000E+00 -0.00000000000E+00 -0.32046279886E+01  0.32046279886E+01  0.00000000000E+00 0.  1.
        -11    1    1    2    0    0 -0.10634245213E+02  0.68157943274E+00  0.15905491905E+02  0.19145140232E+02  0.00000000000E+00 0. -1.
         11    1    1    2    0    0  0.10634245213E+02 -0.68157943274E+00  0.16327779418E+02  0.19497387068E+02  0.00000000000E+00 0.  1.
<mgrwt>
<rscale>  0 0.21313403E+02</rscale>
<asrwt>0</asrwt>
<pdfrwt beam="2">  1        1 0.49301972E-03 0.21313403E+02</pdfrwt>
<pdfrwt beam="1">  1       -1 0.54519842E-02 0.21313403E+02</pdfrwt>
<totfact> 0.31300355E+06</totfact>
</mgrwt>
</event>
<event>
 4    1  0.2165211E+000  0.2704612E+02  0.7546771E-02  0.1633240E+00
         -2   -1    0    0    0  501 -0.00000000000E+00  0.00000000000E+00  0.33782914833E+01  0.33782914833E+01  0.00000000000E+00 0. -1.
          2   -1    0    0  501    0  0.00000000000E+00 -0.00000000000E+00 -0.54131839784E+02  0.54131839784E+02  0.00000000000E+00 0.  1.
        -11    1    1    2    0    0  0.14961560615E+01  0.10974819008E+02 -0.41873370940E+02  0.43313558259E+02  0.00000000000E+00 0. -1.
         11    1    1    2    0    0 -0.14961560615E+01 -0.10974819008E+02 -0.88801773607E+01  0.14196573008E+02  0.00000000000E+00 0.  1.
<mgrwt>
<rscale>  0 0.27046119E+02</rscale>
<asrwt>0</asrwt>
<pdfrwt beam="2">  1        2 0.83279744E-02 0.27046119E+02</pdfrwt>
<pdfrwt beam="1">  1       -2 0.51973721E-03 0.27046119E+02</pdfrwt>
<totfact> 0.23533248E+06</totfact>
</mgrwt>
</event>
<event>
 4    1  0.2165211E+000  0.3560056E+02  0.7546771E-02  0.1543331E+00
         -2   -1    0    0    0  501 -0.00000000000E+00  0.00000000000E+00  0.12528061361E+02  0.12528061361E+02  0.00000000000E+00 0. -1.
          2   -1    0    0  501    0  0.00000000000E+00 -0.00000000000E+00 -0.25291218339E+02  0.25291218339E+02  0.00000000000E+00 0.  1.
        -11    1    1    2    0    0  0.17463161904E+02  0.31522055569E+01 -0.48975507354E+01  0.18408813834E+02  0.00000000000E+00 0. -1.
         11    1    1    2    0    0 -0.17463161904E+02 -0.31522055569E+01 -0.78656062420E+01  0.19410465866E+02  0.00000000000E+00 0.  1.
<mgrwt>
<rscale>  0 0.35600558E+02</rscale>
<asrwt>0</asrwt>
<pdfrwt beam="2">  1        2 0.38909566E-02 0.35600558E+02</pdfrwt>
<pdfrwt beam="1">  1       -2 0.19273941E-02 0.35600558E+02</pdfrwt>
<totfact> 0.10893819E+06</totfact>
</mgrwt>
</event>
<event>
 4    1  0.2165211E+000  0.2117839E+02  0.7546771E-02  0.1722861E+00
          2   -1    0    0  501    0  0.00000000000E+00  0.00000000000E+00  0.59015264365E+02  0.59015264365E+02  0.00000000000E+00 0. -1.
         -2   -1    0    0    0  501 -0.00000000000E+00 -0.00000000000E+00 -0.19000355773E+01  0.19000355773E+01  0.00000000000E+00 0.  1.
        -13    1    1    2    0    0  0.91497652312E+00  0.10073289990E+02  0.19542943804E+02  0.22005340393E+02  0.00000000000E+00 0.  1.
         13    1    1    2    0    0 -0.91497652312E+00 -0.10073289990E+02  0.37572284984E+02  0.38909959550E+02  0.00000000000E+00 0. -1.
<mgrwt>
<rscale>  0 0.21178395E+02</rscale>
<asrwt>0</asrwt>
<pdfrwt beam="1">  1        2 0.90792700E-02 0.21178395E+02</pdfrwt>
<pdfrwt beam="2">  1       -2 0.29231321E-03 0.21178395E+02</pdfrwt>
<totfact> 0.41851649E+06</totfact>
</mgrwt>
</event>
<event>
 4    1  0.2165211E+000  0.2996681E+02  0.7546771E-02  0.1598456E+00
         -4   -1    0    0    0  501 -0.00000000000E+00  0.00000000000E+00  0.41973771383E+02  0.41973771383E+02  0.00000000000E+00 0. -1.
          4   -1    0    0  501    0  0.00000000000E+00 -0.00000000000E+00 -0.53486367021E+01  0.53486367021E+01  0.00000000000E+00 0.  1.
        -11    1    1    2    0    0 -0.77880635947E+01  0.94997498057E+01  0.47645776204E+01  0.13175749725E+02  0.00000000000E+00 0.  1.
         11    1    1    2    0    0  0.77880635947E+01 -0.94997498057E+01  0.31860557060E+02  0.34146658359E+02  0.00000000000E+00 0. -1.
<mgrwt>
<rscale>  0 0.29966812E+02</rscale>
<asrwt>0</asrwt>
<pdfrwt beam="2">  1        4 0.82286721E-03 0.29966812E+02</pdfrwt>
<pdfrwt beam="1">  1       -4 0.64575031E-02 0.29966812E+02</pdfrwt>
<totfact> 0.48969872E+05</totfact>
</mgrwt>
</event>
<event>
 4    1  0.2165211E+000  0.3282239E+02  0.7546771E-02  0.1568835E+00
          1   -1    0    0  501    0  0.00000000000E+00  0.00000000000E+00  0.17158559678E+03  0.17158559678E+03  0.00000000000E+00 0.  1.
         -1   -1    0    0    0  501 -0.00000000000E+00 -0.00000000000E+00 -0.15696378498E+01  0.15696378498E+01  0.00000000000E+00 0. -1.
        -11    1    1    2    0    0  0.16229699917E+02  0.12354442705E+01  0.73944760590E+02  0.75714972765E+02  0.00000000000E+00 0. -1.
         11    1    1    2    0    0 -0.16229699917E+02 -0.12354442705E+01  0.96071198341E+02  0.97440261867E+02  0.00000000000E+00 0.  1.
<mgrwt>
<rscale>  0 0.32822385E+02</rscale>
<asrwt>0</asrwt>
<pdfrwt beam="1">  1        1 0.26397769E-01 0.32822385E+02</pdfrwt>
<pdfrwt beam="2">  1       -1 0.24148288E-03 0.32822385E+02</pdfrwt>
<totfact> 0.15307727E+06</totfact>
</mgrwt>
</event>
<event>
 4    1  0.2165211E+000  0.3054589E+02  0.7546771E-02  0.1592132E+00
          2   -1    0    0  501    0  0.00000000000E+00  0.00000000000E+00  0.49070802353E+01  0.49070802353E+01  0.00000000000E+00 0. -1.
         -2   -1    0    0    0  501 -0.00000000000E+00 -0.00000000000E+00 -0.47535983196E+02  0.47535983196E+02  0.00000000000E+00 0.  1.
        -11    1    1    2    0    0  0.15183847105E+02 -0.16428604759E+01 -0.21106433739E+02  0.26052442278E+02  0.00000000000E+00 0. -1.
         11    1    1    2    0    0 -0.15183847105E+02  0.16428604759E+01 -0.21522469222E+02  0.26390621153E+02  0.00000000000E+00 0.  1.
<mgrwt>
<rscale>  0 0.30545892E+02</rscale>
<asrwt>0</asrwt>
<pdfrwt beam="1">  1        2 0.75493544E-03 0.30545892E+02</pdfrwt>
<pdfrwt beam="2">  1       -2 0.73132280E-02 0.30545892E+02</pdfrwt>
<totfact> 0.13154763E+06</totfact>
</mgrwt>
</event>
<event>
 4    1  0.2165211E+000  0.5034891E+02  0.7546771E-02  0.1443469E+00
          4   -1    0    0  501    0  0.00000000000E+00  0.00000000000E+00  0.19739029586E+02  0.19739029586E+02  0.00000000000E+00 0.  1.
         -4   -1    0    0    0  501 -0.00000000000E+00 -0.00000000000E+00 -0.32106603673E+02  0.32106603673E+02  0.00000000000E+00 0. -1.
        -11    1    1    2    0    0 -0.23761261413E+02 -0.75990316264E+01 -0.27054468993E+01  0.25093072122E+02  0.00000000000E+00 0.  1.
         11    1    1    2    0    0  0.23761261413E+02  0.75990316264E+01 -0.96621271876E+01  0.26752561137E+02  0.00000000000E+00 0. -1.
<mgrwt>
<rscale>  0 0.50348911E+02</rscale>
<asrwt>0</asrwt>
<pdfrwt beam="1">  1        4 0.30367738E-02 0.50348911E+02</pdfrwt>
<pdfrwt beam="2">  1       -4 0.49394774E-02 0.50348911E+02</pdfrwt>
<totfact> 0.14090334E+05</totfact>
</mgrwt>
</event>
<event>
 4    1  0.2165211E+000  0.2472626E+02  0.7546771E-02  0.1664965E+00
         -2   -1    0    0    0  501 -0.00000000000E+00  0.00000000000E+00  0.12412066890E+02  0.12412066890E+02  0.00000000000E+00 0. -1.
          2   -1    0    0  501    0  0.00000000000E+00 -0.00000000000E+00 -0.12314386878E+02  0.12314386878E+02  0.00000000000E+00 0.  1.
        -11    1    1    2    0    0  0.86939352393E+01  0.85817177309E+01  0.19505920732E+01  0.12370739614E+02  0.00000000000E+00 0.  1.
         11    1    1    2    0    0 -0.86939352393E+01 -0.85817177309E+01 -0.18529120616E+01  0.12355714154E+02  0.00000000000E+00 0. -1.
<mgrwt>
<rscale>  0 0.24726261E+02</rscale>
<asrwt>0</asrwt>
<pdfrwt beam="2">  1        2 0.18945211E-02 0.24726261E+02</pdfrwt>
<pdfrwt beam="1">  1       -2 0.19095488E-02 0.24726261E+02</pdfrwt>
<totfact> 0.24481853E+06</totfact>
</mgrwt>
</event>
<event>
 4    1  0.2165211E+000  0.2839190E+02  0.7546771E-02  0.1616576E+00
         -2   -1    0    0    0  501 -0.00000000000E+00  0.00000000000E+00  0.88259125259E+01  0.88259125259E+01  0.00000000000E+00 0. -1.
          2   -1    0    0  501    0  0.00000000000E+00 -0.00000000000E+00 -0.22833338302E+02  0.22833338302E+02  0.00000000000E+00 0.  1.
        -13    1    1    2    0    0  0.81858586829E+01 -0.10090314799E+02 -0.62702225011E+00  0.13008300889E+02  0.00000000000E+00 0. -1.
         13    1    1    2    0    0 -0.81858586829E+01  0.10090314799E+02 -0.13380403526E+02  0.18650949939E+02  0.00000000000E+00 0.  1.
<mgrwt>
<rscale>  0 0.28391904E+02</rscale>
<asrwt>0</asrwt>
<pdfrwt beam="2">  1        2 0.35128213E-02 0.28391904E+02</pdfrwt>
<pdfrwt beam="1">  1       -2 0.13578327E-02 0.28391904E+02</pdfrwt>
<totfact> 0.18689786E+06</totfact>
</mgrwt>
</event>
<event>
 4    1  0.2165211E+000  0.2504068E+02  0.7546771E-02  0.1660418E+00
          2   -1    0    0  501    0  0.00000000000E+00  0.00000000000E+00  0.86918807832E+01  0.86918807832E+01  0.00000000000E+00 0. -1.
         -2   -1    0    0    0  501 -0.00000000000E+00 -0.00000000000E+00 -0.18035100544E+02  0.18035100544E+02  0.00000000000E+00 0.  1.
        -13    1    1    2    0    0  0.13489947444E+01  0.12268611547E+02 -0.24275678562E+01  0.12579018316E+02  0.00000000000E+00 0. -1.
         13    1    1    2    0    0 -0.13489947444E+01 -0.12268611547E+02 -0.69156519048E+01  0.14147963011E+02  0.00000000000E+00 0.  1.
<mgrwt>
<rscale>  0 0.25040682E+02</rscale>
<asrwt>0</asrwt>
<pdfrwt beam="1">  1        2 0.13372124E-02 0.25040682E+02</pdfrwt>
<pdfrwt beam="2">  1       -2 0.27746308E-02 0.25040682E+02</pdfrwt>
<totfact> 0.23035452E+06</totfact>
</mgrwt>
</event>
<event>
 4    1  0.2165211E+000  0.4403240E+02  0.7546771E-02  0.1480474E+00
          4   -1    0    0  501    0  0.00000000000E+00  0.00000000000E+00  0.10538841489E+03  0.10538841489E+03  0.00000000000E+00 0.  1.
         -4   -1    0    0    0  501 -0.00000000000E+00 -0.00000000000E+00 -0.45993010487E+01  0.45993010487E+01  0.00000000000E+00 0. -1.
        -13    1    1    2    0    0 -0.15204102783E+02  0.78160651045E+01  0.85047424262E+02  0.86748602229E+02  0.00000000000E+00 0.  1.
         13    1    1    2    0    0  0.15204102783E+02 -0.78160651045E+01  0.15741689577E+02  0.23239113707E+02  0.00000000000E+00 0. -1.
<mgrwt>
<rscale>  0 0.44032399E+02</rscale>
<asrwt>0</asrwt>
<pdfrwt beam="1">  1        4 0.16213600E-01 0.44032399E+02</pdfrwt>
<pdfrwt beam="2">  1       -4 0.70758486E-03 0.44032399E+02</pdfrwt>
<totfact> 0.16630195E+05</totfact>
</mgrwt>
</event>
<event>
 4    1  0.2165211E+000  0.3949459E+02  0.7546771E-02  0.1511964E+00
          3   -1    0    0  501    0  0.00000000000E+00  0.00000000000E+00  0.14797731120E+02  0.14797731120E+02  0.00000000000E+00 0. -1.
         -3   -1    0    0    0  501 -0.00000000000E+00 -0.00000000000E+00 -0.26352390289E+02  0.26352390289E+02  0.00000000000E+00 0.  1.
        -13    1    1    2    0    0  0.20460003059E+01  0.13718083568E+02  0.88683340787E+01  0.16462663313E+02  0.00000000000E+00 0. -1.
         13    1    1    2    0    0 -0.20460003059E+01 -0.13718083568E+02 -0.20422993248E+02  0.24687458096E+02  0.00000000000E+00 0.  1.
<mgrwt>
<rscale>  0 0.39494586E+02</rscale>
<asrwt>0</asrwt>
<pdfrwt beam="1">  1        3 0.22765740E-02 0.39494586E+02</pdfrwt>
<pdfrwt beam="2">  1       -3 0.40542139E-02 0.39494586E+02</pdfrwt>
<totfact> 0.34805293E+05</totfact>
</mgrwt>
</event>
<event>
 4    1  0.2165211E+000  0.2574635E+02  0.7546771E-02  0.1650508E+00
          2   -1    0    0  501    0  0.00000000000E+00  0.00000000000E+00  0.17601061617E+01  0.17601061617E+01  0.00000000000E+00 0. -1.
         -2   -1    0    0    0  501 -0.00000000000E+00 -0.00000000000E+00 -0.94152657644E+02  0.94152657644E+02  0.00000000000E+00 0.  1.
        -13    1    1    2    0    0 -0.38062822246E+01  0.11476178539E+02 -0.62658630506E+02  0.63814531536E+02  0.00000000000E+00 0. -1.
         13    1    1    2    0    0  0.38062822246E+01 -0.11476178539E+02 -0.29733920976E+02  0.32098232270E+02  0.00000000000E+00 0.  1.
<mgrwt>
<rscale>  0 0.25746353E+02</rscale>
<asrwt>0</asrwt>
<pdfrwt beam="1">  1        2 0.27078549E-03 0.25746353E+02</pdfrwt>
<pdfrwt beam="2">  1       -2 0.14485028E-01 0.25746353E+02</pdfrwt>
<totfact> 0.17184622E+06</totfact>
</mgrwt>
</event>
<event>
 4    1  0.2165211E+000  0.2167443E+02  0.7546771E-02  0.1713944E+00
         -2   -1    0    0    0  501 -0.00000000000E+00  0.00000000000E+00  0.38576410614E+01  0.38576410614E+01  0.00000000000E+00 0.  1.
          2   -1    0    0  501    0  0.00000000000E+00 -0.00000000000E+00 -0.30444831270E+02  0.30444831270E+02  0.00000000000E+00 0. -1.
        -13    1    1    2    0    0 -0.93481147089E+01  0.37150857268E+01 -0.69126326340E+01  0.12205474202E+02  0.00000000000E+00 0.  1.
         13    1    1    2    0    0  0.93481147089E+01 -0.37150857268E+01 -0.19674557575E+02  0.22096998129E+02  0.00000000000E+00 0. -1.
<mgrwt>
<rscale>  0 0.21674430E+02</rscale>
<asrwt>0</asrwt>
<pdfrwt beam="2">  1        2 0.46838203E-02 0.21674430E+02</pdfrwt>
<pdfrwt beam="1">  1       -2 0.59348323E-03 0.21674430E+02</pdfrwt>
<totfact> 0.36225392E+06</totfact>
</mgrwt>
</event>
<event>
 4    1  0.2165211E+000  0.4892572E+02  0.7546771E-02  0.1451224E+00
          2   -1    0    0  501    0  0.00000000000E+00  0.00000000000E+00  0.38572092817E+02  0.38572092817E+02  0.00000000000E+00 0. -1.
         -2   -1    0    0    0  501 -0.00000000000E+00 -0.00000000000E+00 -0.15514625158E+02  0.15514625158E+02  0.00000000000E+00 0.  1.
        -13    1    1    2    0    0 -0.17416926920E+02 -0.14396443535E+02  0.21888776804E+02  0.31459902730E+02  0.00000000000E+00 0. -1.
         13    1    1    2    0    0  0.17416926920E+02  0.14396443535E+02  0.11686908552E+01  0.22626815245E+02  0.00000000000E+00 0.  1.
<mgrwt>
<rscale>  0 0.48925722E+02</rscale>
<asrwt>0</asrwt>
<pdfrwt beam="1">  1        2 0.59341681E-02 0.48925722E+02</pdfrwt>
<pdfrwt beam="2">  1       -2 0.23868654E-02 0.48925722E+02</pdfrwt>
<totfact> 0.51778481E+05</totfact>
</mgrwt>
</event>
<event>
 4    1  0.2165211E+000  0.2461027E+02  0.7546771E-02  0.1666664E+00
          1   -1    0    0  501    0  0.00000000000E+00  0.00000000000E+00  0.47092353270E+02  0.47092353270E+02  0.00000000000E+00 0. -1.
         -1   -1    0    0    0  501 -0.00000000000E+00 -0.00000000000E+00 -0.32153076909E+01  0.32153076909E+01  0.00000000000E+00 0.  1.
        -11    1    1    2    0    0 -0.52807257478E+01 -0.11104754224E+02  0.20991175149E+02  0.24327578279E+02  0.00000000000E+00 0. -1.
         11    1    1    2    0    0  0.52807257478E+01  0.11104754224E+02  0.22885870430E+02  0.25980082682E+02  0.00000000000E+00 0.  1.
<mgrwt>
<rscale>  0 0.24610275E+02</rscale>
<asrwt>0</asrwt>
<pdfrwt beam="1">  1        1 0.72449770E-02 0.24610275E+02</pdfrwt>
<pdfrwt beam="2">  1       -1 0.49466275E-03 0.24610275E+02</pdfrwt>
<totfact> 0.25969691E+06</totfact>
</mgrwt>
</event>
<event>
 4    1  0.2165211E+000  0.4467865E+02  0.7546771E-02  0.1476358E+00
          2   -1    0    0  501    0  0.00000000000E+00  0.00000000000E+00  0.51344365007E+01  0.51344365007E+01  0.00000000000E+00 0. -1.
         -2   -1    0    0    0  501 -0.00000000000E+00 -0.00000000000E+00 -0.97195735855E+02  0.97195735855E+02  0.00000000000E+00 0.  1.
        -11    1    1    2    0    0  0.13995761756E+01 -0.22124870247E+02 -0.39726275959E+02  0.45493358839E+02  0.00000000000E+00 0. -1.
         11    1    1    2    0    0 -0.13995761756E+01  0.22124870247E+02 -0.52335023395E+02  0.56836813516E+02  0.00000000000E+00 0.  1.
<mgrwt>
<rscale>  0 0.44678645E+02</rscale>
<asrwt>0</asrwt>
<pdfrwt beam="1">  1        2 0.78991336E-03 0.44678645E+02</pdfrwt>
<pdfrwt beam="2">  1       -2 0.14953189E-01 0.44678645E+02</pdfrwt>
<totfact> 0.46719509E+05</totfact>
</mgrwt>
</event>
<event>
 4    1  0.2165211E+000  0.3385881E+02  0.7546771E-02  0.1558975E+00
         -2   -1    0    0    0  501 -0.00000000000E+00  0.00000000000E+00  0.19242746785E+01  0.19242746785E+01  0.00000000000E+00 0.  1.
          2   -1    0    0  501    0  0.00000000000E+00 -0.00000000000E+00 -0.14894168968E+03  0.14894168968E+03  0.00000000000E+00 0. -1.
        -11    1    1    2    0    0 -0.15798026840E+02  0.53495794785E+01 -0.60587783403E+02  0.62841667310E+02  0.00000000000E+00 0.  1.
         11    1    1    2    0    0  0.15798026840E+02 -0.53495794785E+01 -0.86429631601E+02  0.88024297051E+02  0.00000000000E+00 0. -1.
<mgrwt>
<rscale>  0 0.33858808E+02</rscale>
<asrwt>0</asrwt>
<pdfrwt beam="2">  1        2 0.22914111E-01 0.33858808E+02</pdfrwt>
<pdfrwt beam="1">  1       -2 0.29604220E-03 0.33858808E+02</pdfrwt>
<totfact> 0.17429676E+06</totfact>
</mgrwt>
</event>
<event>
 4    1  0.2165211E+000  0.3048760E+02  0.7546771E-02  0.1592761E+00
         -2   -1    0    0    0  501 -0.00000000000E+00  0.00000000000E+00  0.47654415373E+02  0.47654415373E+02  0.00000000000E+00 0.  1.
          2   -1    0    0  501    0  0.00000000000E+00 -0.00000000000E+00 -0.48762209481E+01  0.48762209481E+01  0.00000000000E+00 0. -1.
        -13    1    1    2    0    0 -0.13366279053E+02  0.39435070763E+01  0.10744704955E+02  0.17597083518E+02  0.00000000000E+00 0. -1.
         13    1    1    2    0    0  0.13366279053E+02 -0.39435070763E+01  0.32033489470E+02  0.34933552803E+02  0.00000000000E+00 0.  1.
<mgrwt>
<rscale>  0 0.30487601E+02</rscale>
<asrwt>0</asrwt>
<pdfrwt beam="2">  1        2 0.75018787E-03 0.30487601E+02</pdfrwt>
<pdfrwt beam="1">  1       -2 0.73314482E-02 0.30487601E+02</pdfrwt>
<totfact> 0.13208215E+06</totfact>
</mgrwt>
</event>
<event>
 4    1  0.2165211E+000  0.2095979E+02  0.7546771E-02  0.1726889E+00
          2   -1    0    0  501    0  0.00000000000E+00  0.00000000000E+00  0.42076036420E+01  0.42076036420E+01  0.00000000000E+00 0.  1.
         -2   -1    0    0    0  501 -0.00000000000E+00 -0.00000000000E+00 -0.26102321439E+02  0.26102321439E+02  0.00000000000E+00 0. -1.
        -11    1    1    2    0    0  0.34098874722E+01  0.98321792114E+01 -0.91591353218E+01  0.13863218979E+02  0.00000000000E+00 0. -1.
         11    1    1    2    0    0 -0.34098874722E+01 -0.98321792114E+01 -0.12735582475E+02  0.16446706102E+02  0.00000000000E+00 0.  1.
<mgrwt>
<rscale>  0 0.20959792E+02</rscale>
<asrwt>0</asrwt>
<pdfrwt beam="1">  1        2 0.64732364E-03 0.20959792E+02</pdfrwt>
<pdfrwt beam="2">  1       -2 0.40157417E-02 0.20959792E+02</pdfrwt>
<totfact> 0.32998775E+06</totfact>
</mgrwt>
</event>
<event>
 4    1  0.2165211E+000  0.2521604E+02  0.7546771E-02  0.1657918E+00
          2   -1    0    0  501    0  0.00000000000E+00  0.00000000000E+00  0.10769433563E+03  0.10769433563E+03  0.00000000000E+00 0. -1.
         -2   -1    0    0    0  501 -0.00000000000E+00 -0.00000000000E+00 -0.14760491504E+01  0.14760491504E+01  0.00000000000E+00 0.  1.
        -13    1    1    2    0    0 -0.11536606500E+02 -0.28127500346E+01  0.71455434593E+02  0.72435377994E+02  0.00000000000E+00 0. -1.
         13    1    1    2    0    0  0.11536606500E+02  0.28127500346E+01  0.34762851888E+02  0.36735006788E+02  0.00000000000E+00 0.  1.
<mgrwt>
<rscale>  0 0.25216037E+02</rscale>
<asrwt>0</asrwt>
<pdfrwt beam="1">  1        2 0.16568353E-01 0.25216037E+02</pdfrwt>
<pdfrwt beam="2">  1       -2 0.22708457E-03 0.25216037E+02</pdfrwt>
<totfact> 0.31867656E+06</totfact>
</mgrwt>
</event>
<event>
 4    1  0.2165211E+000  0.3028070E+02  0.7546771E-02  0.1595006E+00
         -2   -1    0    0    0  501 -0.00000000000E+00  0.00000000000E+00  0.11029842625E+03  0.11029842625E+03  0.00000000000E+00 0.  1.
          2   -1    0    0  501    0  0.00000000000E+00 -0.00000000000E+00 -0.20782723682E+01  0.20782723682E+01  0.00000000000E+00 0. -1.
        -11    1    1    2    0    0  0.90799432394E+00 -0.14959602263E+02  0.46136666354E+02  0.48509856069E+02  0.00000000000E+00 0. -1.
         11    1    1    2    0    0 -0.90799432394E+00  0.14959602263E+02  0.62083487524E+02  0.63866842546E+02  0.00000000000E+00 0.  1.
<mgrwt>
<rscale>  0 0.30280698E+02</rscale>
<asrwt>0</asrwt>
<pdfrwt beam="2">  1        2 0.31973430E-03 0.30280698E+02</pdfrwt>
<pdfrwt beam="1">  1       -2 0.16968984E-01 0.30280698E+02</pdfrwt>
<totfact> 0.11389406E+06</totfact>
</mgrwt>
</event>
<event>
 4    1  0.2165211E+000  0.3110294E+02  0.7546771E-02  0.1586208E+00
         -4   -1    0    0    0  501 -0.00000000000E+00  0.00000000000E+00  0.88812538012E+01  0.88812538012E+01  0.00000000000E+00 0.  1.
          4   -1    0    0  501    0  0.00000000000E+00 -0.00000000000E+00 -0.27231312083E+02  0.27231312083E+02  0.00000000000E+00 0. -1.
        -13    1    1    2    0    0  0.72189911356E+01 -0.83343093396E+01  0.35583060183E+01  0.11586029816E+02  0.00000000000E+00 0.  1.
         13    1    1    2    0    0 -0.72189911356E+01  0.83343093396E+01 -0.21908364300E+02  0.24526536068E+02  0.00000000000E+00 0. -1.
<mgrwt>
<rscale>  0 0.31102938E+02</rscale>
<asrwt>0</asrwt>
<pdfrwt beam="2">  1        4 0.41894325E-02 0.31102938E+02</pdfrwt>
<pdfrwt beam="1">  1       -4 0.13663468E-02 0.31102938E+02</pdfrwt>
<totfact> 0.46843676E+05</totfact>
</mgrwt>
</event>
<event>
 4    1  0.2165211E+000  0.2864040E+02  0.7546771E-02  0.1613622E+00
          1   -1    0    0  501    0  0.00000000000E+00  0.00000000000E+00  0.21733117116E+02  0.21733117116E+02  0.00000000000E+00 0.  1.
         -1   -1    0    0    0  501 -0.00000000000E+00 -0.00000000000E+00 -0.94357468960E+01  0.94357468960E+01  0.00000000000E+00 0. -1.
        -11    1    1    2    0    0  0.75469550848E+01  0.98173720849E+01 -0.16787000409E+01  0.12496213808E+02  0.00000000000E+00 0. -1.
         11    1    1    2    0    0 -0.75469550848E+01 -0.98173720849E+01  0.13976070261E+02  0.18672650204E+02  0.00000000000E+00 0.  1.
<mgrwt>
<rscale>  0 0.28640404E+02</rscale>
<asrwt>0</asrwt>
<pdfrwt beam="1">  1        1 0.33435565E-02 0.28640404E+02</pdfrwt>
<pdfrwt beam="2">  1       -1 0.14516534E-02 0.28640404E+02</pdfrwt>
<totfact> 0.17361065E+06</totfact>
</mgrwt>
</event>
<event>
 4    1  0.2165211E+000  0.2302155E+02  0.7546771E-02  0.1691161E+00
          2   -1    0    0  501    0  0.00000000000E+00  0.00000000000E+00  0.40349557847E+01  0.40349557847E+01  0.00000000000E+00 0. -1.
         -2   -1    0    0    0  501 -0.00000000000E+00 -0.00000000000E+00 -0.32837528743E+02  0.32837528743E+02  0.00000000000E+00 0.  1.
        -13    1    1    2    0    0 -0.11423663977E+02  0.56473154660E+00 -0.12325955047E+02  0.16815117847E+02  0.00000000000E+00 0. -1.
         13    1    1    2    0    0  0.11423663977E+02 -0.56473154660E+00 -0.16476617912E+02  0.20057366681E+02  0.00000000000E+00 0.  1.
<mgrwt>
<rscale>  0 0.23021553E+02</rscale>
<asrwt>0</asrwt>
<pdfrwt beam="1">  1        2 0.62076244E-03 0.23021553E+02</pdfrwt>
<pdfrwt beam="2">  1       -2 0.50519274E-02 0.23021553E+02</pdfrwt>
<totfact> 0.26193131E+06</totfact>
</mgrwt>
</event>
<event>
 4    1  0.2165211E+000  0.3495432E+02  0.7546771E-02  0.1549007E+00
          4   -1    0    0  501    0  0.00000000000E+00  0.00000000000E+00  0.99435128845E+01  0.99435128845E+01  0.00000000000E+00 0. -1.
         -4   -1    0    0    0  501 -0.00000000000E+00 -0.00000000000E+00 -0.30718637480E+02  0.30718637480E+02  0.00000000000E+00 0.  1.
        -13    1    1    2    0    0  0.12893659930E+02  0.69018821279E+01 -0.21519301767E+02  0.26018508640E+02  0.00000000000E+00 0.  1.
         13    1    1    2    0    0 -0.12893659930E+02 -0.69018821279E+01  0.74417717146E+00  0.14643641725E+02  0.00000000000E+00 0. -1.
<mgrwt>
<rscale>  0 0.34954323E+02</rscale>
<asrwt>0</asrwt>
<pdfrwt beam="1">  1        4 0.15297712E-02 0.34954323E+02</pdfrwt>
<pdfrwt beam="2">  1       -4 0.47259443E-02 0.34954323E+02</pdfrwt>
<totfact> 0.35227859E+05</totfact>
</mgrwt>
</event>
<event>
 4    1  0.2165211E+000  0.2281263E+02  0.7546771E-02  0.1694566E+00
         -4   -1    0    0    0  501 -0.00000000000E+00  0.00000000000E+00  0.34330676755E+02  0.34330676755E+02  0.00000000000E+00 0. -1.
          4   -1    0    0  501    0  0.00000000000E+00 -0.00000000000E+00 -0.37897294507E+01  0.37897294507E+01  0.00000000000E+00 0.  1.
        -13    1    1    2    0    0  0.66886981060E+01  0.86860375094E+01  0.20533012500E+02  0.23276394315E+02  0.00000000000E+00 0.  1.
         13    1    1    2    0    0 -0.66886981060E+01 -0.86860375094E+01  0.10007934804E+02  0.14844011890E+02  0.00000000000E+00 0. -1.
<mgrwt>
<rscale>  0 0.22812626E+02</rscale>
<asrwt>0</asrwt>
<pdfrwt beam="2">  1        4 0.58303532E-03 0.22812626E+02</pdfrwt>
<pdfrwt beam="1">  1       -4 0.52816424E-02 0.22812626E+02</pdfrwt>
<totfact> 0.91767335E+05</totfact>
</mgrwt>
</event>
<event>
 4    1  0.2165211E+000  0.2536004E+02  0.7546771E-02  0.1655884E+00
          4   -1    0    0  501    0  0.00000000000E+00  0.00000000000E+00  0.38432511304E+02  0.38432511304E+02  0.00000000000E+00 0.  1.
         -4   -1    0    0    0  501 -0.00000000000E+00 -0.00000000000E+00 -0.41835133643E+01  0.41835133643E+01  0.00000000000E+00 0. -1.
        -11    1    1    2    0    0  0.11770667828E+01  0.11831347545E+02  0.97197528950E+01  0.15357078735E+02  0.00000000000E+00 0. -1.
         11    1    1    2    0    0 -0.11770667828E+01 -0.11831347545E+02  0.24529245045E+02  0.27258945933E+02  0.00000000000E+00 0.  1.
<mgrwt>
<rscale>  0 0.25360041E+02</rscale>
<asrwt>0</asrwt>
<pdfrwt beam="1">  1        4 0.59126938E-02 0.25360041E+02</pdfrwt>
<pdfrwt beam="2">  1       -4 0.64361747E-03 0.25360041E+02</pdfrwt>
<totfact> 0.71973462E+05</totfact>
</mgrwt>
</event>
<event>
 4    1  0.2165211E+000  0.3653026E+02  0.7546771E-02  0.1535417E+00
         -2   -1    0    0    0  501 -0.00000000000E+00  0.00000000000E+00  0.11296180938E+03  0.11296180938E+03  0.00000000000E+00 0.  1.
          2   -1    0    0  501    0  0.00000000000E+00 -0.00000000000E+00 -0.29533430856E+01  0.29533430856E+01  0.00000000000E+00 0. -1.
        -11    1    1    2    0    0 -0.11603430498E+02 -0.10583989074E+02  0.25415006673E+02  0.29876127396E+02  0.00000000000E+00 0. -1.
         11    1    1    2    0    0  0.11603430498E+02  0.10583989074E+02  0.84593459617E+02  0.86039025065E+02  0.00000000000E+00 0.  1.
<mgrwt>
<rscale>  0 0.36530260E+02</rscale>
<asrwt>0</asrwt>
<pdfrwt beam="2">  1        2 0.45436056E-03 0.36530260E+02</pdfrwt>
<pdfrwt beam="1">  1       -2 0.17378737E-01 0.36530260E+02</pdfrwt>
<totfact> 0.72853947E+05</totfact>
</mgrwt>
</event>
<event>
 4    1  0.2165211E+000  0.4981919E+02  0.7546771E-02  0.1446319E+00
          4   -1    0    0  501    0  0.00000000000E+00  0.00000000000E+00  0.17051749356E+02  0.17051749356E+02  0.00000000000E+00 0. -1.
         -4   -1    0    0    0  501 -0.00000000000E+00 -0.00000000000E+00 -0.36388515345E+02  0.36388515345E+02  0.00000000000E+00 0.  1.
        -13    1    1    2    0    0  0.21274349150E+02  0.12908213440E+02 -0.10876254745E+02  0.27157187322E+02  0.00000000000E+00 0.  1.
         13    1    1    2    0    0 -0.21274349150E+02 -0.12908213440E+02 -0.84605112441E+01  0.26283077378E+02  0.00000000000E+00 0. -1.
<mgrwt>
<rscale>  0 0.49819187E+02</rscale>
<asrwt>0</asrwt>
<pdfrwt beam="1">  1        4 0.26233461E-02 0.49819187E+02</pdfrwt>
<pdfrwt beam="2">  1       -4 0.55982330E-02 0.49819187E+02</pdfrwt>
<totfact> 0.14394649E+05</totfact>
</mgrwt>
</event>
<event>
 4    1  0.2165211E+000  0.2053515E+02  0.7546771E-02  0.1734891E+00
          2   -1    0    0  501    0  0.00000000000E+00  0.00000000000E+00  0.81586344224E+01  0.81586344224E+01  0.00000000000E+00 0.  1.
         -2   -1    0    0    0  501 -0.00000000000E+00 -0.00000000000E+00 -0.12921665238E+02  0.12921665238E+02  0.00000000000E+00 0. -1.
        -11    1    1    2    0    0 -0.30657129337E+00  0.10115402025E+02 -0.60117442006E+00  0.10137887096E+02  0.00000000000E+00 0. -1.
         11    1    1    2    0    0  0.30657129337E+00 -0.10115402025E+02 -0.41618563952E+01  0.10942412565E+02  0.00000000000E+00 0.  1.
<mgrwt>
<rscale>  0 0.20535155E+02</rscale>
<asrwt>0</asrwt>
<pdfrwt beam="1">  1        2 0.12551745E-02 0.20535155E+02</pdfrwt>
<pdfrwt beam="2">  1       -2 0.19879485E-02 0.20535155E+02</pdfrwt>
<totfact> 0.36582862E+06</totfact>
</mgrwt>
</event>
<event>
 4    1  0.2165211E+000  0.2213825E+02  0.7546771E-02  0.1705872E+00
         -4   -1    0    0    0  501 -0.00000000000E+00  0.00000000000E+00  0.28128999117E+02  0.28128999117E+02  0.00000000000E+00 0. -1.
          4   -1    0    0  501    0  0.00000000000E+00 -0.00000000000E+00 -0.43558442139E+01  0.43558442139E+01  0.00000000000E+00 0.  1.
        -11    1    1    2    0    0  0.99060679247E+01 -0.20146123612E+01  0.18503828964E+02  0.21085078397E+02  0.00000000000E+00 0. -1.
         11    1    1    2    0    0 -0.99060679247E+01  0.20146123612E+01  0.52693259398E+01  0.11399764934E+02  0.00000000000E+00 0.  1.
<mgrwt>
<rscale>  0 0.22138251E+02</rscale>
<asrwt>0</asrwt>
<pdfrwt beam="2">  1        4 0.67012990E-03 0.22138251E+02</pdfrwt>
<pdfrwt beam="1">  1       -4 0.43275382E-02 0.22138251E+02</pdfrwt>
<totfact> 0.99932573E+05</totfact>
</mgrwt>
</event>
<event>
 4    1  0.2165211E+000  0.2692211E+02  0.7546771E-02  0.1634836E+00
          2   -1    0    0  501    0  0.00000000000E+00  0.00000000000E+00  0.47015249328E+01  0.47015249328E+01  0.00000000000E+00 0. -1.
         -2   -1    0    0    0  501 -0.00000000000E+00 -0.00000000000E+00 -0.38540690613E+02  0.38540690613E+02  0.00000000000E+00 0.  1.
        -11    1    1    2    0    0  0.79210926970E+01 -0.80466573900E+01 -0.51484909589E+01  0.12409648014E+02  0.00000000000E+00 0. -1.
         11    1    1    2    0    0 -0.79210926970E+01  0.80466573900E+01 -0.28690674721E+02  0.30832567532E+02  0.00000000000E+00 0.  1.
<mgrwt>
<rscale>  0 0.26922111E+02</rscale>
<asrwt>0</asrwt>
<pdfrwt beam="1">  1        2 0.72331150E-03 0.26922111E+02</pdfrwt>
<pdfrwt beam="2">  1       -2 0.59293372E-02 0.26922111E+02</pdfrwt>
<totfact> 0.18074391E+06</totfact>
</mgrwt>
</event>
<event>
 4    1  0.2165211E+000  0.2333547E+02  0.7546771E-02  0.1686129E+00
          2   -1    0    0  501    0  0.00000000000E+00  0.00000000000E+00  0.71775919177E+01  0.71775919177E+01  0.00000000000E+00 0. -1.
         -2   -1    0    0    0  501 -0.00000000000E+00 -0.00000000000E+00 -0.18966820565E+02  0.18966820565E+02  0.00000000000E+00 0.  1.
        -13    1    1    2    0    0 -0.10906967486E+02 -0.32679605983E+01 -0.87498250802E+01  0.14359698644E+02  0.00000000000E+00 0.  1.
         13    1    1    2    0    0  0.10906967486E+02  0.32679605983E+01 -0.30394035666E+01  0.11784713838E+02  0.00000000000E+00 0. -1.
<mgrwt>
<rscale>  0 0.23335475E+02</rscale>
<asrwt>0</asrwt>
<pdfrwt beam="1">  1        2 0.11042449E-02 0.23335475E+02</pdfrwt>
<pdfrwt beam="2">  1       -2 0.29179723E-02 0.23335475E+02</pdfrwt>
<totfact> 0.26813937E+06</totfact>
</mgrwt>
</event>
<event>
 4    1  0.2165211E+000  0.6174789E+02  0.7546771E-02  0.1390640E+00
         -2   -1    0    0    0  501 -0.00000000000E+00  0.00000000000E+00  0.91441991733E+01  0.91441991733E+01  0.00000000000E+00 0.  1.
          2   -1    0    0  501    0  0.00000000000E+00 -0.00000000000E+00 -0.10424100767E+03  0.10424100767E+03  0.00000000000E+00 0. -1.
        -13    1    1    2    0    0  0.18077204869E+02 -0.16409117480E+01 -0.93407977118E+02  0.95155284228E+02  0.00000000000E+00 0. -1.
         13    1    1    2    0    0 -0.18077204869E+02  0.16409117480E+01 -0.16888313822E+01  0.18229922619E+02  0.00000000000E+00 0.  1.
<mgrwt>
<rscale>  0 0.61747892E+02</rscale>
<asrwt>0</asrwt>
<pdfrwt beam="2">  1        2 0.16037078E-01 0.61747892E+02</pdfrwt>
<pdfrwt beam="1">  1       -2 0.14067999E-02 0.61747892E+02</pdfrwt>
<totfact> 0.35218973E+05</totfact>
</mgrwt>
</event>
<event>
 4    1  0.2165211E+000  0.2185961E+02  0.7546771E-02  0.1710691E+00
          2   -1    0    0  501    0  0.00000000000E+00  0.00000000000E+00  0.10377900017E+03  0.10377900017E+03  0.00000000000E+00 0. -1.
         -2   -1    0    0    0  501 -0.00000000000E+00 -0.00000000000E+00 -0.11511063984E+01  0.11511063984E+01  0.00000000000E+00 0.  1.
        -11    1    1    2    0    0 -0.82126833005E+01 -0.69727325349E+01  0.42471307845E+02  0.43816425642E+02  0.00000000000E+00 0.  1.
         11    1    1    2    0    0  0.82126833005E+01  0.69727325349E+01  0.60156585924E+02  0.61113680923E+02  0.00000000000E+00 0. -1.
<mgrwt>
<rscale>  0 0.21859613E+02</rscale>
<asrwt>0</asrwt>
<pdfrwt beam="1">  1        2 0.15965993E-01 0.21859613E+02</pdfrwt>
<pdfrwt beam="2">  1       -2 0.17709337E-03 0.21859613E+02</pdfrwt>
<totfact> 0.43666041E+06</totfact>
</mgrwt>
</event>
<event>
 4    1  0.2165211E+000  0.2766528E+02  0.7546771E-02  0.1625429E+00
          2   -1    0    0  501    0  0.00000000000E+00  0.00000000000E+00  0.15122727711E+02  0.15122727711E+02  0.00000000000E+00 0.  1.
         -2   -1    0    0    0  501 -0.00000000000E+00 -0.00000000000E+00 -0.12652608618E+02  0.12652608618E+02  0.00000000000E+00 0. -1.
        -13    1    1    2    0    0 -0.10838801054E+02  0.54569291076E+01  0.79010710841E+01  0.14480490594E+02  0.00000000000E+00 0.  1.
         13    1    1    2    0    0  0.10838801054E+02 -0.54569291076E+01 -0.54309519909E+01  0.13294845734E+02  0.00000000000E+00 0. -1.
<mgrwt>
<rscale>  0 0.27665282E+02</rscale>
<asrwt>0</asrwt>
<pdfrwt beam="1">  1        2 0.23265735E-02 0.27665282E+02</pdfrwt>
<pdfrwt beam="2">  1       -2 0.19465552E-02 0.27665282E+02</pdfrwt>
<totfact> 0.19072454E+06</totfact>
</mgrwt>
</event>
<event>
 4    1  0.2165211E+000  0.2344928E+02  0.7546771E-02  0.1684329E+00
          2   -1    0    0  501    0  0.00000000000E+00  0.00000000000E+00  0.18090237856E+02  0.18090237856E+02  0.00000000000E+00 0.  1.
         -2   -1    0    0    0  501 -0.00000000000E+00 -0.00000000000E+00 -0.75989701917E+01  0.75989701917E+01  0.00000000000E+00 0. -1.
        -11    1    1    2    0    0  0.11393153384E+01  0.11668272041E+02  0.54027424400E+01  0.12908765926E+02  0.00000000000E+00 0.  1.
         11    1    1    2    0    0 -0.11393153384E+01 -0.11668272041E+02  0.50885252246E+01  0.12780442122E+02  0.00000000000E+00 0. -1.
<mgrwt>
<rscale>  0 0.23449280E+02</rscale>
<asrwt>0</asrwt>
<pdfrwt beam="1">  1        2 0.27831135E-02 0.23449280E+02</pdfrwt>
<pdfrwt beam="2">  1       -2 0.11690723E-02 0.23449280E+02</pdfrwt>
<totfact> 0.28684753E+06</totfact>
</mgrwt>
</event>
<event>
 4    1  0.2165211E+000  0.2663227E+02  0.7546771E-02  0.1638606E+00
          2   -1    0    0  501    0  0.00000000000E+00  0.00000000000E+00  0.29717614586E+02  0.29717614586E+02  0.00000000000E+00 0.  1.
         -2   -1    0    0    0  501 -0.00000000000E+00 -0.00000000000E+00 -0.59668116653E+01  0.59668116653E+01  0.00000000000E+00 0. -1.
        -13    1    1    2    0    0 -0.13228000932E+02 -0.34915753265E+00  0.13870670182E+02  0.19170221984E+02  0.00000000000E+00 0. -1.
         13    1    1    2    0    0  0.13228000932E+02  0.34915753265E+00  0.98801327390E+01  0.16514204267E+02  0.00000000000E+00 0.  1.
<mgrwt>
<rscale>  0 0.26632267E+02</rscale>
<asrwt>0</asrwt>
<pdfrwt beam="1">  1        2 0.45719406E-02 0.26632267E+02</pdfrwt>
<pdfrwt beam="2">  1       -2 0.91797104E-03 0.26632267E+02</pdfrwt>
<totfact> 0.22416749E+06</totfact>
</mgrwt>
</event>
<event>
 4    1  0.2165211E+000  0.2313445E+02  0.7546771E-02  0.1689340E+00
          4   -1    0    0  501    0  0.00000000000E+00  0.00000000000E+00  0.97213379676E+01  0.97213379676E+01  0.00000000000E+00 0. -1.
         -4   -1    0    0    0  501 -0.00000000000E+00 -0.00000000000E+00 -0.13763614013E+02  0.13763614013E+02  0.00000000000E+00 0.  1.
        -13    1    1    2    0    0 -0.44494212634E+01  0.10666407869E+02 -0.15330870015E+01  0.11658471690E+02  0.00000000000E+00 0. -1.
         13    1    1    2    0    0  0.44494212634E+01 -0.10666407869E+02 -0.25091890439E+01  0.11826480290E+02  0.00000000000E+00 0.  1.
<mgrwt>
<rscale>  0 0.23134454E+02</rscale>
<asrwt>0</asrwt>
<pdfrwt beam="1">  1        4 0.14955905E-02 0.23134454E+02</pdfrwt>
<pdfrwt beam="2">  1       -4 0.21174791E-02 0.23134454E+02</pdfrwt>
<totfact> 0.94540450E+05</totfact>
</mgrwt>
</event>
<event>
 4    1  0.2165211E+000  0.3992899E+02  0.7546771E-02  0.1508735E+00
         -4   -1    0    0    0  501 -0.00000000000E+00  0.00000000000E+00  0.22716363326E+02  0.22716363326E+02  0.00000000000E+00 0. -1.
          4   -1    0    0  501    0  0.00000000000E+00 -0.00000000000E+00 -0.17545984999E+02  0.17545984999E+02  0.00000000000E+00 0.  1.
        -11    1    1    2    0    0 -0.88619961454E+01 -0.10771885475E+02 -0.11817354198E+02  0.18281639768E+02  0.00000000000E+00 0.  1.
         11    1    1    2    0    0  0.88619961454E+01  0.10771885475E+02  0.16987732524E+02  0.21980708557E+02  0.00000000000E+00 0. -1.
<mgrwt>
<rscale>  0 0.39928985E+02</rscale>
<asrwt>0</asrwt>
<pdfrwt beam="2">  1        4 0.26993823E-02 0.39928985E+02</pdfrwt>
<pdfrwt beam="1">  1       -4 0.34948251E-02 0.39928985E+02</pdfrwt>
<totfact> 0.25760323E+05</totfact>
</mgrwt>
</event>
<event>
 4    1  0.2165211E+000  0.1110654E+03  0.7546771E-02  0.1258610E+00
          4   -1    0    0  501    0  0.00000000000E+00  0.00000000000E+00  0.22631186753E+03  0.22631186753E+03  0.00000000000E+00 0. -1.
         -4   -1    0    0    0  501 -0.00000000000E+00 -0.00000000000E+00 -0.13626677418E+02  0.13626677418E+02  0.00000000000E+00 0.  1.
        -13    1    1    2    0    0 -0.20327941847E+02 -0.27862200552E+02  0.12315798052E+02  0.36622483818E+02  0.00000000000E+00 0.  1.
         13    1    1    2    0    0  0.20327941847E+02  0.27862200552E+02  0.20036939206E+03  0.20331606113E+03  0.00000000000E+00 0. -1.
<mgrwt>
<rscale>  0 0.11106536E+03</rscale>
<asrwt>0</asrwt>
<pdfrwt beam="1">  1        4 0.34817208E-01 0.11106536E+03</pdfrwt>
<pdfrwt beam="2">  1       -4 0.20964121E-02 0.11106536E+03</pdfrwt>
<totfact> 0.11623439E+04</totfact>
</mgrwt>
</event>
<event>
 4    1  0.2165211E+000  0.3054173E+02  0.7546771E-02  0.1592177E+00
          4   -1    0    0  501    0  0.00000000000E+00  0.00000000000E+00  0.22774969411E+01  0.22774969411E+01  0.00000000000E+00 0. -1.
         -4   -1    0    0    0  501 -0.00000000000E+00 -0.00000000000E+00 -0.10239279088E+03  0.10239279088E+03  0.00000000000E+00 0.  1.
        -11    1    1    2    0    0 -0.14111287884E+02  0.58370007126E+01 -0.50004008539E+02  0.52283839693E+02  0.00000000000E+00 0.  1.
         11    1    1    2    0    0  0.14111287884E+02 -0.58370007126E+01 -0.50111285399E+02  0.52386448127E+02  0.00000000000E+00 0. -1.
<mgrwt>
<rscale>  0 0.30541727E+02</rscale>
<asrwt>0</asrwt>
<pdfrwt beam="1">  1        4 0.35038407E-03 0.30541727E+02</pdfrwt>
<pdfrwt beam="2">  1       -4 0.15752740E-01 0.30541727E+02</pdfrwt>
<totfact> 0.39420561E+05</totfact>
</mgrwt>
</event>
<event>
 4    1  0.2165211E+000  0.2505877E+02  0.7546771E-02  0.1660159E+00
         -2   -1    0    0    0  501 -0.00000000000E+00  0.00000000000E+00  0.52660266582E+01  0.52660266582E+01  0.00000000000E+00 0. -1.
          2   -1    0    0  501    0  0.00000000000E+00 -0.00000000000E+00 -0.29811001726E+02  0.29811001726E+02  0.00000000000E+00 0.  1.
        -13    1    1    2    0    0  0.42320908895E+01  0.11196270063E+02 -0.17457094945E+02  0.21166417282E+02  0.00000000000E+00 0.  1.
         13    1    1    2    0    0 -0.42320908895E+01 -0.11196270063E+02 -0.70878801231E+01  0.13910611103E+02  0.00000000000E+00 0. -1.
<mgrwt>
<rscale>  0 0.25058773E+02</rscale>
<asrwt>0</asrwt>
<pdfrwt beam="2">  1        2 0.45863078E-02 0.25058773E+02</pdfrwt>
<pdfrwt beam="1">  1       -2 0.81015797E-03 0.25058773E+02</pdfrwt>
<totfact> 0.25869743E+06</totfact>
</mgrwt>
</event>
<event>
 4    1  0.2165211E+000  0.3923337E+02  0.7546771E-02  0.1513930E+00
         -1   -1    0    0    0  501 -0.00000000000E+00  0.00000000000E+00  0.17102648695E+02  0.17102648695E+02  0.00000000000E+00 0. -1.
          1   -1    0    0  501    0  0.00000000000E+00 -0.00000000000E+00 -0.22500277733E+02  0.22500277733E+02  0.00000000000E+00 0.  1.
        -11    1    1    2    0    0  0.16071560179E+02  0.76389991671E+01 -0.11032792457E+02  0.20937331832E+02  0.00000000000E+00 0.  1.
         11    1    1    2    0    0 -0.16071560179E+02 -0.76389991671E+01  0.56351634198E+01  0.18665594596E+02  0.00000000000E+00 0. -1.
<mgrwt>
<rscale>  0 0.39233371E+02</rscale>
<asrwt>0</asrwt>
<pdfrwt beam="2">  1        1 0.34615812E-02 0.39233371E+02</pdfrwt>
<pdfrwt beam="1">  1       -1 0.26311767E-02 0.39233371E+02</pdfrwt>
<totfact> 0.80575894E+05</totfact>
</mgrwt>
</event>
<event>
 4    1  0.2165211E+000  0.3849473E+02  0.7546771E-02  0.1519590E+00
         -1   -1    0    0    0  501 -0.00000000000E+00  0.00000000000E+00  0.98131604485E+02  0.98131604485E+02  0.00000000000E+00 0.  1.
          1   -1    0    0  501    0  0.00000000000E+00 -0.00000000000E+00 -0.37751448660E+01  0.37751448660E+01  0.00000000000E+00 0. -1.
        -11    1    1    2    0    0  0.16381950956E+02 -0.98923415008E+01  0.41730798600E+02  0.45909544642E+02  0.00000000000E+00 0. -1.
         11    1    1    2    0    0 -0.16381950956E+02  0.98923415008E+01  0.52625661019E+02  0.55997204709E+02  0.00000000000E+00 0.  1.
<mgrwt>
<rscale>  0 0.38494728E+02</rscale>
<asrwt>0</asrwt>
<pdfrwt beam="2">  1        1 0.58079159E-03 0.38494728E+02</pdfrwt>
<pdfrwt beam="1">  1       -1 0.15097168E-01 0.38494728E+02</pdfrwt>
<totfact> 0.70678799E+05</totfact>
</mgrwt>
</event>
<event>
 4    1  0.2165211E+000  0.3871187E+02  0.7546771E-02  0.1517910E+00
          2   -1    0    0  501    0  0.00000000000E+00  0.00000000000E+00  0.53103269415E+02  0.53103269415E+02  0.00000000000E+00 0. -1.
         -2   -1    0    0    0  501 -0.00000000000E+00 -0.00000000000E+00 -0.70551646769E+01  0.70551646769E+01  0.00000000000E+00 0.  1.
        -11    1    1    2    0    0 -0.15759814354E+02 -0.39704861445E+01  0.66873457661E+01  0.17574330772E+02  0.00000000000E+00 0.  1.
         11    1    1    2    0    0  0.15759814354E+02  0.39704861445E+01  0.39360758972E+02  0.42584103320E+02  0.00000000000E+00 0. -1.
<mgrwt>
<rscale>  0 0.38711875E+02</rscale>
<asrwt>0</asrwt>
<pdfrwt beam="1">  1        2 0.81697335E-02 0.38711875E+02</pdfrwt>
<pdfrwt beam="2">  1       -2 0.10854100E-02 0.38711875E+02</pdfrwt>
<totfact> 0.98913530E+05</totfact>
</mgrwt>
</event>
<event>
 4    1  0.2165211E+000  0.5273617E+02  0.7546771E-02  0.1431118E+00
          4   -1    0    0  501    0  0.00000000000E+00  0.00000000000E+00  0.57662842035E+02  0.57662842035E+02  0.00000000000E+00 0.  1.
         -4   -1    0    0    0  501 -0.00000000000E+00 -0.00000000000E+00 -0.12057609428E+02  0.12057609428E+02  0.00000000000E+00 0. -1.
        -13    1    1    2    0    0  0.21180338078E+02  0.73172607393E+01  0.41175319806E+02  0.46878097091E+02  0.00000000000E+00 0.  1.
         13    1    1    2    0    0 -0.21180338078E+02 -0.73172607393E+01  0.44299128014E+01  0.22842354372E+02  0.00000000000E+00 0. -1.
<mgrwt>
<rscale>  0 0.52736175E+02</rscale>
<asrwt>0</asrwt>
<pdfrwt beam="1">  1        4 0.88712064E-02 0.52736175E+02</pdfrwt>
<pdfrwt beam="2">  1       -4 0.18550169E-02 0.52736175E+02</pdfrwt>
<totfact> 0.11910194E+05</totfact>
</mgrwt>
</event>
<event>
 4    1  0.2165211E+000  0.3816046E+02  0.7546771E-02  0.1522202E+00
          4   -1    0    0  501    0  0.00000000000E+00  0.00000000000E+00  0.82902439579E+01  0.82902439579E+01  0.00000000000E+00 0. -1.
         -4   -1    0    0    0  501 -0.00000000000E+00 -0.00000000000E+00 -0.43913678991E+02  0.43913678991E+02  0.00000000000E+00 0.  1.
        -13    1    1    2    0    0 -0.84110294885E+01 -0.16896049404E+02 -0.13982946040E+02  0.23489246102E+02  0.00000000000E+00 0. -1.
         13    1    1    2    0    0  0.84110294885E+01  0.16896049404E+02 -0.21640488993E+02  0.28714676846E+02  0.00000000000E+00 0.  1.
<mgrwt>
<rscale>  0 0.38160457E+02</rscale>
<asrwt>0</asrwt>
<pdfrwt beam="1">  1        4 0.12754222E-02 0.38160457E+02</pdfrwt>
<pdfrwt beam="2">  1       -4 0.67559505E-02 0.38160457E+02</pdfrwt>
<totfact> 0.27576901E+05</totfact>
</mgrwt>
</event>
<event>
 4    1  0.2165211E+000  0.3585982E+02  0.7546771E-02  0.1541095E+00
         -2   -1    0    0    0  501 -0.00000000000E+00  0.00000000000E+00  0.15873421817E+02  0.15873421817E+02  0.00000000000E+00 0.  1.
          2   -1    0    0  501    0  0.00000000000E+00 -0.00000000000E+00 -0.20252825762E+02  0.20252825762E+02  0.00000000000E+00 0. -1.
        -11    1    1    2    0    0 -0.17768752982E+02  0.64833853988E+00 -0.45161277099E+01  0.18345144722E+02  0.00000000000E+00 0. -1.
         11    1    1    2    0    0  0.17768752982E+02 -0.64833853988E+00  0.13672376513E+00  0.17781102856E+02  0.00000000000E+00 0.  1.
<mgrwt>
<rscale>  0 0.35859819E+02</rscale>
<asrwt>0</asrwt>
<pdfrwt beam="2">  1        2 0.31158194E-02 0.35859819E+02</pdfrwt>
<pdfrwt beam="1">  1       -2 0.24420649E-02 0.35859819E+02</pdfrwt>
<totfact> 0.10409462E+06</totfact>
</mgrwt>
</event>
<event>
 4    1  0.2165211E+000  0.2372174E+02  0.7546771E-02  0.1680071E+00
         -2   -1    0    0    0  501 -0.00000000000E+00  0.00000000000E+00  0.32104282759E+02  0.32104282759E+02  0.00000000000E+00 0.  1.
          2   -1    0    0  501    0  0.00000000000E+00 -0.00000000000E+00 -0.43819774307E+01  0.43819774307E+01  0.00000000000E+00 0. -1.
        -13    1    1    2    0    0 -0.51377912119E+01  0.97995396403E+01  0.20432318003E+02  0.23235909594E+02  0.00000000000E+00 0.  1.
         13    1    1    2    0    0  0.51377912119E+01 -0.97995396403E+01  0.72899873253E+01  0.13250350595E+02  0.00000000000E+00 0. -1.
<mgrwt>
<rscale>  0 0.23721740E+02</rscale>
<asrwt>0</asrwt>
<pdfrwt beam="2">  1        2 0.67415040E-03 0.23721740E+02</pdfrwt>
<pdfrwt beam="1">  1       -2 0.49391203E-02 0.23721740E+02</pdfrwt>
<totfact> 0.24562452E+06</totfact>
</mgrwt>
</event>
<event>
 4    1  0.2165211E+000  0.4333350E+02  0.7546771E-02  0.1485022E+00
          2   -1    0    0  501    0  0.00000000000E+00  0.00000000000E+00  0.73997132349E+01  0.73997132349E+01  0.00000000000E+00 0.  1.
         -2   -1    0    0    0  501 -0.00000000000E+00 -0.00000000000E+00 -0.63441379236E+02  0.63441379236E+02  0.00000000000E+00 0. -1.
        -11    1    1    2    0    0  0.69942916735E+01 -0.12226259156E+02 -0.11065142835E+01  0.14128903100E+02  0.00000000000E+00 0.  1.
         11    1    1    2    0    0 -0.69942916735E+01  0.12226259156E+02 -0.54935151717E+02  0.56712189370E+02  0.00000000000E+00 0. -1.
<mgrwt>
<rscale>  0 0.43333498E+02</rscale>
<asrwt>0</asrwt>
<pdfrwt beam="1">  1        2 0.11384174E-02 0.43333498E+02</pdfrwt>
<pdfrwt beam="2">  1       -2 0.97602124E-02 0.43333498E+02</pdfrwt>
<totfact> 0.55069886E+05</totfact>
</mgrwt>
</event>
<event>
 4    1  0.2165211E+000  0.3882024E+02  0.7546771E-02  0.1517077E+00
          2   -1    0    0  501    0  0.00000000000E+00  0.00000000000E+00  0.11947771980E+03  0.11947771980E+03  0.00000000000E+00 0. -1.
         -2   -1    0    0    0  501 -0.00000000000E+00 -0.00000000000E+00 -0.31533309851E+01  0.31533309851E+01  0.00000000000E+00 0.  1.
        -13    1    1    2    0    0 -0.12735829742E+02  0.12019228836E+02  0.84608738270E+02  0.86401978060E+02  0.00000000000E+00 0. -1.
         13    1    1    2    0    0  0.12735829742E+02 -0.12019228836E+02  0.31715650544E+02  0.36229072724E+02  0.00000000000E+00 0.  1.
<mgrwt>
<rscale>  0 0.38820242E+02</rscale>
<asrwt>0</asrwt>
<pdfrwt beam="1">  1        2 0.18381184E-01 0.38820242E+02</pdfrwt>
<pdfrwt beam="2">  1       -2 0.48512794E-03 0.38820242E+02</pdfrwt>
<totfact> 0.11776328E+06</totfact>
</mgrwt>
</event>
<event>
 4    1  0.2165211E+000  0.2426059E+02  0.7546771E-02  0.1671855E+00
         -4   -1    0    0    0  501 -0.00000000000E+00  0.00000000000E+00  0.72098079969E+02  0.72098079969E+02  0.00000000000E+00 0. -1.
          4   -1    0    0  501    0  0.00000000000E+00 -0.00000000000E+00 -0.20408878265E+01  0.20408878265E+01  0.00000000000E+00 0.  1.
        -13    1    1    2    0    0 -0.94730485753E+01  0.56052018234E+01  0.19450136668E+02  0.22348708088E+02  0.00000000000E+00 0. -1.
         13    1    1    2    0    0  0.94730485753E+01 -0.56052018234E+01  0.50607055474E+02  0.51790259707E+02  0.00000000000E+00 0.  1.
<mgrwt>
<rscale>  0 0.24260593E+02</rscale>
<asrwt>0</asrwt>
<pdfrwt beam="2">  1        4 0.31398280E-03 0.24260593E+02</pdfrwt>
<pdfrwt beam="1">  1       -4 0.11092010E-01 0.24260593E+02</pdfrwt>
<totfact> 0.71165998E+05</totfact>
</mgrwt>
</event>
<event>
 4    1  0.2165211E+000  0.3297595E+02  0.7546771E-02  0.1567346E+00
          2   -1    0    0  501    0  0.00000000000E+00  0.00000000000E+00  0.42163676619E+02  0.42163676619E+02  0.00000000000E+00 0. -1.
         -2   -1    0    0    0  501 -0.00000000000E+00 -0.00000000000E+00 -0.64475720266E+01  0.64475720266E+01  0.00000000000E+00 0.  1.
        -13    1    1    2    0    0 -0.87979701168E+01 -0.66279679317E+01  0.35943749535E+02  0.37593714471E+02  0.00000000000E+00 0. -1.
         13    1    1    2    0    0  0.87979701168E+01  0.66279679317E+01 -0.22764494225E+00  0.11017534175E+02  0.00000000000E+00 0.  1.
<mgrwt>
<rscale>  0 0.32975951E+02</rscale>
<asrwt>0</asrwt>
<pdfrwt beam="1">  1        2 0.64867193E-02 0.32975951E+02</pdfrwt>
<pdfrwt beam="2">  1       -2 0.99193418E-03 0.32975951E+02</pdfrwt>
<totfact> 0.14099558E+06</totfact>
</mgrwt>
</event>
<event>
 4    1  0.2165211E+000  0.4760111E+02  0.7546771E-02  0.1458727E+00
         -3   -1    0    0    0  501 -0.00000000000E+00  0.00000000000E+00  0.40406395548E+02  0.40406395548E+02  0.00000000000E+00 0. -1.
          3   -1    0    0  501    0  0.00000000000E+00 -0.00000000000E+00 -0.14019224209E+02  0.14019224209E+02  0.00000000000E+00 0.  1.
        -13    1    1    2    0    0 -0.15329174202E+02  0.73384232831E+01  0.32244672540E+02  0.36449347665E+02  0.00000000000E+00 0. -1.
         13    1    1    2    0    0  0.15329174202E+02 -0.73384232831E+01 -0.58575012017E+01  0.17976272092E+02  0.00000000000E+00 0.  1.
<mgrwt>
<rscale>  0 0.47601106E+02</rscale>
<asrwt>0</asrwt>
<pdfrwt beam="2">  1        3 0.21568037E-02 0.47601106E+02</pdfrwt>
<pdfrwt beam="1">  1       -3 0.62163685E-02 0.47601106E+02</pdfrwt>
<totfact> 0.21140302E+05</totfact>
</mgrwt>
</event>
<event>
 4    1  0.2165211E+000  0.4233297E+02  0.7546771E-02  0.1491713E+00
         -2   -1    0    0    0  501 -0.00000000000E+00  0.00000000000E+00  0.39261805289E+02  0.39261805289E+02  0.00000000000E+00 0.  1.
          2   -1    0    0  501    0  0.00000000000E+00 -0.00000000000E+00 -0.11411091601E+02  0.11411091601E+02  0.00000000000E+00 0. -1.
        -11    1    1    2    0    0 -0.12866937448E+02  0.15182502542E+02  0.52974627344E+01  0.20594406380E+02  0.00000000000E+00 0. -1.
         11    1    1    2    0    0  0.12866937448E+02 -0.15182502542E+02  0.22553250954E+02  0.30078490509E+02  0.00000000000E+00 0.  1.
<mgrwt>
<rscale>  0 0.42332969E+02</rscale>
<asrwt>0</asrwt>
<pdfrwt beam="2">  1        2 0.17555526E-02 0.42332969E+02</pdfrwt>
<pdfrwt beam="1">  1       -2 0.60402777E-02 0.42332969E+02</pdfrwt>
<totfact> 0.63015579E+05</totfact>
</mgrwt>
</event>
<event>
 4    1  0.2165211E+000  0.2224190E+02  0.7546771E-02  0.1704102E+00
         -1   -1    0    0    0  501 -0.00000000000E+00  0.00000000000E+00  0.83354625359E+02  0.83354625359E+02  0.00000000000E+00 0. -1.
          1   -1    0    0  501    0  0.00000000000E+00 -0.00000000000E+00 -0.14837273113E+01  0.14837273113E+01  0.00000000000E+00 0.  1.
        -13    1    1    2    0    0 -0.74070543429E+01 -0.79641010461E+01  0.32084702488E+02  0.33878008992E+02  0.00000000000E+00 0.  1.
         13    1    1    2    0    0  0.74070543429E+01  0.79641010461E+01  0.49786195560E+02  0.50960343679E+02  0.00000000000E+00 0. -1.
<mgrwt>
<rscale>  0 0.22241900E+02</rscale>
<asrwt>0</asrwt>
<pdfrwt beam="2">  1        1 0.22826580E-03 0.22241900E+02</pdfrwt>
<pdfrwt beam="1">  1       -1 0.12823785E-01 0.22241900E+02</pdfrwt>
<totfact> 0.25924373E+06</totfact>
</mgrwt>
</event>
<event>
 4    1  0.2165211E+000  0.4794903E+02  0.7546771E-02  0.1456729E+00
          2   -1    0    0  501    0  0.00000000000E+00  0.00000000000E+00  0.92580818301E+01  0.92580818301E+01  0.00000000000E+00 0.  1.
         -2   -1    0    0    0  501 -0.00000000000E+00 -0.00000000000E+00 -0.62083837860E+02  0.62083837860E+02  0.00000000000E+00 0. -1.
        -11    1    1    2    0    0 -0.11095240995E+00  0.23807816407E+02 -0.22216973927E+02  0.32564065517E+02  0.00000000000E+00 0.  1.
         11    1    1    2    0    0  0.11095240995E+00 -0.23807816407E+02 -0.30608782103E+02  0.38777854174E+02  0.00000000000E+00 0. -1.
<mgrwt>
<rscale>  0 0.47949025E+02</rscale>
<asrwt>0</asrwt>
<pdfrwt beam="1">  1        2 0.14243203E-02 0.47949025E+02</pdfrwt>
<pdfrwt beam="2">  1       -2 0.95513595E-02 0.47949025E+02</pdfrwt>
<totfact> 0.43353157E+05</totfact>
</mgrwt>
</event>
<event>
 4    1  0.2165211E+000  0.4326776E+02  0.7546771E-02  0.1485455E+00
          2   -1    0    0  501    0  0.00000000000E+00  0.00000000000E+00  0.13565857096E+03  0.13565857096E+03  0.00000000000E+00 0. -1.
         -2   -1    0    0    0  501 -0.00000000000E+00 -0.00000000000E+00 -0.34500196624E+01  0.34500196624E+01  0.00000000000E+00 0.  1.
        -11    1    1    2    0    0 -0.60442444757E+01 -0.16656756985E+02  0.26200650045E+02  0.31629962177E+02  0.00000000000E+00 0.  1.
         11    1    1    2    0    0  0.60442444757E+01  0.16656756985E+02  0.10600790125E+03  0.10747862844E+03  0.00000000000E+00 0. -1.
<mgrwt>
<rscale>  0 0.43267759E+02</rscale>
<asrwt>0</asrwt>
<pdfrwt beam="1">  1        2 0.20870545E-01 0.43267759E+02</pdfrwt>
<pdfrwt beam="2">  1       -2 0.53077236E-03 0.43267759E+02</pdfrwt>
<totfact> 0.93487985E+05</totfact>
</mgrwt>
</event>
<event>
 4    1  0.2165211E+000  0.2346443E+02  0.7546771E-02  0.1684091E+00
         -4   -1    0    0    0  501 -0.00000000000E+00  0.00000000000E+00  0.21235312768E+02  0.21235312768E+02  0.00000000000E+00 0. -1.
          4   -1    0    0  501    0  0.00000000000E+00 -0.00000000000E+00 -0.64818869368E+01  0.64818869368E+01  0.00000000000E+00 0.  1.
        -13    1    1    2    0    0 -0.10265455950E+02 -0.52983057483E+01  0.49578261140E+01  0.12571064769E+02  0.00000000000E+00 0. -1.
         13    1    1    2    0    0  0.10265455950E+02  0.52983057483E+01  0.97955997171E+01  0.15146134935E+02  0.00000000000E+00 0.  1.
<mgrwt>
<rscale>  0 0.23464432E+02</rscale>
<asrwt>0</asrwt>
<pdfrwt beam="2">  1        4 0.99721339E-03 0.23464432E+02</pdfrwt>
<pdfrwt beam="1">  1       -4 0.32669712E-02 0.23464432E+02</pdfrwt>
<totfact> 0.90112142E+05</totfact>
</mgrwt>
</event>
<event>
 4    1  0.2165211E+000  0.4385017E+02  0.7546771E-02  0.1481650E+00
          2   -1    0    0  501    0  0.00000000000E+00  0.00000000000E+00  0.17497957146E+02  0.17497957146E+02  0.00000000000E+00 0. -1.
         -2   -1    0    0    0  501 -0.00000000000E+00 -0.00000000000E+00 -0.27472308259E+02  0.27472308259E+02  0.00000000000E+00 0.  1.
        -13    1    1    2    0    0  0.11735606727E+02  0.71753096986E+01  0.12522306104E+02  0.18601550599E+02  0.00000000000E+00 0. -1.
         13    1    1    2    0    0 -0.11735606727E+02 -0.71753096986E+01 -0.22496657218E+02  0.26368714806E+02  0.00000000000E+00 0.  1.
<mgrwt>
<rscale>  0 0.43850166E+02</rscale>
<asrwt>0</asrwt>
<pdfrwt beam="1">  1        2 0.26919934E-02 0.43850166E+02</pdfrwt>
<pdfrwt beam="2">  1       -2 0.42265089E-02 0.43850166E+02</pdfrwt>
<totfact> 0.61056740E+05</totfact>
</mgrwt>
</event>
<event>
 4    1  0.2165211E+000  0.3584125E+02  0.7546771E-02  0.1541254E+00
         -1   -1    0    0    0  501 -0.00000000000E+00  0.00000000000E+00  0.48718363195E+02  0.48718363195E+02  0.00000000000E+00 0.  1.
          1   -1    0    0  501    0  0.00000000000E+00 -0.00000000000E+00 -0.65919457084E+01  0.65919457084E+01  0.00000000000E+00 0. -1.
        -13    1    1    2    0    0  0.76565970856E+01  0.76449709254E+01 -0.98244009596E+00  0.10864356765E+02  0.00000000000E+00 0. -1.
         13    1    1    2    0    0 -0.76565970856E+01 -0.76449709254E+01  0.43108857583E+02  0.44445952138E+02  0.00000000000E+00 0.  1.
<mgrwt>
<rscale>  0 0.35841250E+02</rscale>
<asrwt>0</asrwt>
<pdfrwt beam="2">  1        1 0.10141455E-02 0.35841250E+02</pdfrwt>
<pdfrwt beam="1">  1       -1 0.74951326E-02 0.35841250E+02</pdfrwt>
<totfact> 0.91770139E+05</totfact>
</mgrwt>
</event>
<event>
 4    1  0.2165211E+000  0.2023435E+02  0.7546771E-02  0.1740707E+00
          2   -1    0    0  501    0  0.00000000000E+00  0.00000000000E+00  0.87327778812E+01  0.87327778812E+01  0.00000000000E+00 0. -1.
         -2   -1    0    0    0  501 -0.00000000000E+00 -0.00000000000E+00 -0.11721041876E+02  0.11721041876E+02  0.00000000000E+00 0.  1.
        -13    1    1    2    0    0 -0.10049148166E+02  0.11504737855E+01 -0.12720068450E+01  0.10194457818E+02  0.00000000000E+00 0. -1.
         13    1    1    2    0    0  0.10049148166E+02 -0.11504737855E+01 -0.17162571501E+01  0.10259361939E+02  0.00000000000E+00 0.  1.
<mgrwt>
<rscale>  0 0.20234352E+02</rscale>
<asrwt>0</asrwt>
<pdfrwt beam="1">  1        2 0.13435043E-02 0.20234352E+02</pdfrwt>
<pdfrwt beam="2">  1       -2 0.18032372E-02 0.20234352E+02</pdfrwt>
<totfact> 0.38043138E+06</totfact>
</mgrwt>
</event>
<event>
 4    1  0.2165211E+000  0.2423823E+02  0.7546771E-02  0.1672191E+00
         -2   -1    0    0    0  501 -0.00000000000E+00  0.00000000000E+00  0.22680058646E+02  0.22680058646E+02  0.00000000000E+00 0.  1.
          2   -1    0    0  501    0  0.00000000000E+00 -0.00000000000E+00 -0.64758613321E+01  0.64758613321E+01  0.00000000000E+00 0. -1.
        -13    1    1    2    0    0 -0.19796437120E+01  0.11248879028E+02  0.12975903287E+02  0.17286709771E+02  0.00000000000E+00 0.  1.
         13    1    1    2    0    0  0.19796437120E+01 -0.11248879028E+02  0.32282940268E+01  0.11869210207E+02  0.00000000000E+00 0. -1.
<mgrwt>
<rscale>  0 0.24238227E+02</rscale>
<asrwt>0</asrwt>
<pdfrwt beam="2">  1        2 0.99628637E-03 0.24238227E+02</pdfrwt>
<pdfrwt beam="1">  1       -2 0.34892397E-02 0.24238227E+02</pdfrwt>
<totfact> 0.24251681E+06</totfact>
</mgrwt>
</event>
<event>
 4    1  0.2165211E+000  0.2456633E+02  0.7546771E-02  0.1667310E+00
         -2   -1    0    0    0  501 -0.00000000000E+00  0.00000000000E+00  0.11670510186E+03  0.11670510186E+03  0.00000000000E+00 0. -1.
          2   -1    0    0  501    0  0.00000000000E+00 -0.00000000000E+00 -0.12927983652E+01  0.12927983652E+01  0.00000000000E+00 0.  1.
        -11    1    1    2    0    0 -0.23337189557E+01  0.11816088445E+02  0.69283819509E+02  0.70322925394E+02  0.00000000000E+00 0.  1.
         11    1    1    2    0    0  0.23337189557E+01 -0.11816088445E+02  0.46128483991E+02  0.47674974836E+02  0.00000000000E+00 0. -1.
<mgrwt>
<rscale>  0 0.24566332E+02</rscale>
<asrwt>0</asrwt>
<pdfrwt beam="2">  1        2 0.19889215E-03 0.24566332E+02</pdfrwt>
<pdfrwt beam="1">  1       -2 0.17954623E-01 0.24566332E+02</pdfrwt>
<totfact> 0.18104533E+06</totfact>
</mgrwt>
</event>
<event>
 4    1  0.2165211E+000  0.3088899E+02  0.7546771E-02  0.1588465E+00
          2   -1    0    0  501    0  0.00000000000E+00  0.00000000000E+00  0.60001438659E+02  0.60001438659E+02  0.00000000000E+00 0.  1.
         -2   -1    0    0    0  501 -0.00000000000E+00 -0.00000000000E+00 -0.39754440888E+01  0.39754440888E+01  0.00000000000E+00 0. -1.
        -11    1    1    2    0    0  0.60862095429E+01 -0.12958394339E+02  0.40013457521E+02  0.42497514200E+02  0.00000000000E+00 0.  1.
         11    1    1    2    0    0 -0.60862095429E+01  0.12958394339E+02  0.16012537050E+02  0.21479368548E+02  0.00000000000E+00 0. -1.
<mgrwt>
<rscale>  0 0.30888986E+02</rscale>
<asrwt>0</asrwt>
<pdfrwt beam="1">  1        2 0.92309899E-02 0.30888986E+02</pdfrwt>
<pdfrwt beam="2">  1       -2 0.61160682E-03 0.30888986E+02</pdfrwt>
<totfact> 0.17502826E+06</totfact>
</mgrwt>
</event>
<event>
 4    1  0.2165211E+000  0.2328875E+02  0.7546771E-02  0.1686872E+00
         -4   -1    0    0    0  501 -0.00000000000E+00  0.00000000000E+00  0.58759433197E+01  0.58759433197E+01  0.00000000000E+00 0.  1.
          4   -1    0    0  501    0  0.00000000000E+00 -0.00000000000E+00 -0.23075697304E+02  0.23075697304E+02  0.00000000000E+00 0. -1.
        -13    1    1    2    0    0 -0.11474090677E+02 -0.11823250892E+01 -0.66190587444E+01  0.13299044633E+02  0.00000000000E+00 0.  1.
         13    1    1    2    0    0  0.11474090677E+02  0.11823250892E+01 -0.10580695240E+02  0.15652595991E+02  0.00000000000E+00 0. -1.
<mgrwt>
<rscale>  0 0.23288752E+02</rscale>
<asrwt>0</asrwt>
<pdfrwt beam="2">  1        4 0.35501072E-02 0.23288752E+02</pdfrwt>
<pdfrwt beam="1">  1       -4 0.90399129E-03 0.23288752E+02</pdfrwt>
<totfact> 0.91099495E+05</totfact>
</mgrwt>
</event>
<event>
 4    1  0.2165211E+000  0.2726657E+02  0.7546771E-02  0.1630430E+00
         -2   -1    0    0    0  501 -0.00000000000E+00  0.00000000000E+00  0.69783911711E+01  0.69783911711E+01  0.00000000000E+00 0.  1.
          2   -1    0    0  501    0  0.00000000000E+00 -0.00000000000E+00 -0.26634578603E+02  0.26634578603E+02  0.00000000000E+00 0. -1.
        -11    1    1    2    0    0  0.10119850092E+02 -0.43649310925E+01 -0.19721087722E+02  0.22591708441E+02  0.00000000000E+00 0. -1.
         11    1    1    2    0    0 -0.10119850092E+02  0.43649310925E+01  0.64900289761E-01  0.11021261334E+02  0.00000000000E+00 0.  1.
<mgrwt>
<rscale>  0 0.27266574E+02</rscale>
<asrwt>0</asrwt>
<pdfrwt beam="2">  1        2 0.40976274E-02 0.27266574E+02</pdfrwt>
<pdfrwt beam="1">  1       -2 0.10735987E-02 0.27266574E+02</pdfrwt>
<totfact> 0.20934935E+06</totfact>
</mgrwt>
</event>
<event>
 4    1  0.2165211E+000  0.2268426E+02  0.7546771E-02  0.1696680E+00
          2   -1    0    0  501    0  0.00000000000E+00  0.00000000000E+00  0.16979296270E+02  0.16979296270E+02  0.00000000000E+00 0. -1.
         -2   -1    0    0    0  501 -0.00000000000E+00 -0.00000000000E+00 -0.75765161362E+01  0.75765161362E+01  0.00000000000E+00 0.  1.
        -11    1    1    2    0    0 -0.53714795727E+01  0.96532294718E+01  0.19190629736E+01  0.11212512418E+02  0.00000000000E+00 0. -1.
         11    1    1    2    0    0  0.53714795727E+01 -0.96532294718E+01  0.74837171605E+01  0.13343299988E+02  0.00000000000E+00 0.  1.
<mgrwt>
<rscale>  0 0.22684260E+02</rscale>
<asrwt>0</asrwt>
<pdfrwt beam="1">  1        2 0.26121994E-02 0.22684260E+02</pdfrwt>
<pdfrwt beam="2">  1       -2 0.11656179E-02 0.22684260E+02</pdfrwt>
<totfact> 0.30803815E+06</totfact>
</mgrwt>
</event>
<event>
 4    1  0.2165211E+000  0.2187367E+02  0.7546771E-02  0.1710446E+00
         -4   -1    0    0    0  501 -0.00000000000E+00  0.00000000000E+00  0.23472042959E+01  0.23472042959E+01  0.00000000000E+00 0.  1.
          4   -1    0    0  501    0  0.00000000000E+00 -0.00000000000E+00 -0.50960341235E+02  0.50960341235E+02  0.00000000000E+00 0. -1.
        -13    1    1    2    0    0  0.66980747784E+01  0.81917494040E+01 -0.17568021281E+02  0.20508640515E+02  0.00000000000E+00 0. -1.
         13    1    1    2    0    0 -0.66980747784E+01 -0.81917494040E+01 -0.31045115658E+02  0.32798905016E+02  0.00000000000E+00 0.  1.
<mgrwt>
<rscale>  0 0.21873667E+02</rscale>
<asrwt>0</asrwt>
<pdfrwt beam="2">  1        4 0.78400520E-02 0.21873667E+02</pdfrwt>
<pdfrwt beam="1">  1       -4 0.36110838E-03 0.21873667E+02</pdfrwt>
<totfact> 0.94751544E+05</totfact>
</mgrwt>
</event>
<event>
 4    1  0.2165211E+000  0.5579190E+02  0.7546771E-02  0.1416391E+00
         -1   -1    0    0    0  501 -0.00000000000E+00  0.00000000000E+00  0.33944396581E+01  0.33944396581E+01  0.00000000000E+00 0. -1.
          1   -1    0    0  501    0  0.00000000000E+00 -0.00000000000E+00 -0.22925255299E+03  0.22925255299E+03  0.00000000000E+00 0.  1.
        -13    1    1    2    0    0  0.24275582747E+02  0.13396376618E+02 -0.12572539376E+03  0.12874642309E+03  0.00000000000E+00 0.  1.
         13    1    1    2    0    0 -0.24275582747E+02 -0.13396376618E+02 -0.10013271958E+03  0.10390056956E+03  0.00000000000E+00 0. -1.
<mgrwt>
<rscale>  0 0.55791898E+02</rscale>
<asrwt>0</asrwt>
<pdfrwt beam="2">  1        1 0.35269622E-01 0.55791898E+02</pdfrwt>
<pdfrwt beam="1">  1       -1 0.52222151E-03 0.55791898E+02</pdfrwt>
<totfact> 0.43684829E+05</totfact>
</mgrwt>
</event>
<event>
 4    1  0.2165211E+000  0.2693814E+02  0.7546771E-02  0.1634629E+00
          3   -1    0    0  501    0  0.00000000000E+00  0.00000000000E+00  0.31662921438E+01  0.31662921438E+01  0.00000000000E+00 0.  1.
         -3   -1    0    0    0  501 -0.00000000000E+00 -0.00000000000E+00 -0.57296006147E+02  0.57296006147E+02  0.00000000000E+00 0. -1.
        -13    1    1    2    0    0 -0.11124931317E+02  0.19896585162E+01 -0.43511454044E+02  0.44955194036E+02  0.00000000000E+00 0. -1.
         13    1    1    2    0    0  0.11124931317E+02 -0.19896585162E+01 -0.10618259960E+02  0.15507104256E+02  0.00000000000E+00 0.  1.
<mgrwt>
<rscale>  0 0.26938144E+02</rscale>
<asrwt>0</asrwt>
<pdfrwt beam="1">  1        3 0.48712191E-03 0.26938144E+02</pdfrwt>
<pdfrwt beam="2">  1       -3 0.88147695E-02 0.26938144E+02</pdfrwt>
<totfact> 0.81282447E+05</totfact>
</mgrwt>
</event>
<event>
 4    1  0.2165211E+000  0.2134407E+02  0.7546771E-02  0.1719849E+00
          4   -1    0    0  501    0  0.00000000000E+00  0.00000000000E+00  0.81256239284E+01  0.81256239284E+01  0.00000000000E+00 0. -1.
         -4   -1    0    0    0  501 -0.00000000000E+00 -0.00000000000E+00 -0.14016438447E+02  0.14016438447E+02  0.00000000000E+00 0.  1.
        -13    1    1    2    0    0 -0.10438808682E+02  0.19143768332E+00 -0.65211687220E+00  0.10460909688E+02  0.00000000000E+00 0. -1.
         13    1    1    2    0    0  0.10438808682E+02 -0.19143768332E+00 -0.52386976461E+01  0.11681152687E+02  0.00000000000E+00 0.  1.
<mgrwt>
<rscale>  0 0.21344068E+02</rscale>
<asrwt>0</asrwt>
<pdfrwt beam="1">  1        4 0.12500960E-02 0.21344068E+02</pdfrwt>
<pdfrwt beam="2">  1       -4 0.21563751E-02 0.21344068E+02</pdfrwt>
<totfact> 0.11267519E+06</totfact>
</mgrwt>
</event>
<event>
 4    1  0.2165211E+000  0.2927165E+02  0.7546771E-02  0.1606282E+00
         -2   -1    0    0    0  501 -0.00000000000E+00  0.00000000000E+00  0.80834491357E+01  0.80834491357E+01  0.00000000000E+00 0. -1.
          2   -1    0    0  501    0  0.00000000000E+00 -0.00000000000E+00 -0.26499506233E+02  0.26499506233E+02  0.00000000000E+00 0.  1.
        -13    1    1    2    0    0  0.99813803738E+01 -0.95438522012E+01 -0.14934623995E+02  0.20340994638E+02  0.00000000000E+00 0.  1.
         13    1    1    2    0    0 -0.99813803738E+01  0.95438522012E+01 -0.34814331026E+01  0.14241960731E+02  0.00000000000E+00 0. -1.
<mgrwt>
<rscale>  0 0.29271653E+02</rscale>
<asrwt>0</asrwt>
<pdfrwt beam="2">  1        2 0.40768470E-02 0.29271653E+02</pdfrwt>
<pdfrwt beam="1">  1       -2 0.12436076E-02 0.29271653E+02</pdfrwt>
<totfact> 0.17666677E+06</totfact>
</mgrwt>
</event>
<event>
 4    1  0.2165211E+000  0.5831034E+02  0.7546771E-02  0.1405062E+00
         -2   -1    0    0    0  501 -0.00000000000E+00  0.00000000000E+00  0.59419346531E+02  0.59419346531E+02  0.00000000000E+00 0.  1.
          2   -1    0    0  501    0  0.00000000000E+00 -0.00000000000E+00 -0.14305508523E+02  0.14305508523E+02  0.00000000000E+00 0. -1.
        -13    1    1    2    0    0 -0.11790360097E+02  0.26577988357E+02  0.25275105054E+02  0.38525744533E+02  0.00000000000E+00 0.  1.
         13    1    1    2    0    0  0.11790360097E+02 -0.26577988357E+02  0.19838732953E+02  0.35199110521E+02  0.00000000000E+00 0. -1.
<mgrwt>
<rscale>  0 0.58310341E+02</rscale>
<asrwt>0</asrwt>
<pdfrwt beam="2">  1        2 0.22008475E-02 0.58310341E+02</pdfrwt>
<pdfrwt beam="1">  1       -2 0.91414378E-02 0.58310341E+02</pdfrwt>
<totfact> 0.27235442E+05</totfact>
</mgrwt>
</event>
<event>
 4    1  0.2165211E+000  0.2089451E+02  0.7546771E-02  0.1728103E+00
          1   -1    0    0  501    0  0.00000000000E+00  0.00000000000E+00  0.10012552151E+01  0.10012552151E+01  0.00000000000E+00 0.  1.
         -1   -1    0    0    0  501 -0.00000000000E+00 -0.00000000000E+00 -0.10900830329E+03  0.10900830329E+03  0.00000000000E+00 0. -1.
        -13    1    1    2    0    0  0.15081503186E+01  0.10238541656E+02 -0.61528751259E+02  0.62393024322E+02  0.00000000000E+00 0. -1.
         13    1    1    2    0    0 -0.15081503186E+01 -0.10238541656E+02 -0.46478296817E+02  0.47616534183E+02  0.00000000000E+00 0.  1.
<mgrwt>
<rscale>  0 0.20894510E+02</rscale>
<asrwt>0</asrwt>
<pdfrwt beam="1">  1        1 0.15403931E-03 0.20894510E+02</pdfrwt>
<pdfrwt beam="2">  1       -1 0.16770503E-01 0.20894510E+02</pdfrwt>
<totfact> 0.28515042E+06</totfact>
</mgrwt>
</event>
<event>
 4    1  0.2165211E+000  0.9459126E+02  0.7546771E-02  0.1292099E+00
          1   -1    0    0  501    0  0.00000000000E+00  0.00000000000E+00  0.97293898931E+02  0.97293898931E+02  0.00000000000E+00 0. -1.
         -1   -1    0    0    0  501 -0.00000000000E+00 -0.00000000000E+00 -0.22990921594E+02  0.22990921594E+02  0.00000000000E+00 0.  1.
        -13    1    1    2    0    0 -0.36104399439E+02 -0.25001428176E+02  0.59478501957E+02  0.73934371335E+02  0.00000000000E+00 0. -1.
         13    1    1    2    0    0  0.36104399439E+02  0.25001428176E+02  0.14824475380E+02  0.46350449189E+02  0.00000000000E+00 0.  1.
<mgrwt>
<rscale>  0 0.94591255E+02</rscale>
<asrwt>0</asrwt>
<pdfrwt beam="1">  1        1 0.14968292E-01 0.94591255E+02</pdfrwt>
<pdfrwt beam="2">  1       -1 0.35370649E-02 0.94591255E+02</pdfrwt>
<totfact> 0.94024106E+04</totfact>
</mgrwt>
</event>
<event>
 4    1  0.2165211E+000  0.2506819E+02  0.7546771E-02  0.1660024E+00
         -1   -1    0    0    0  501 -0.00000000000E+00  0.00000000000E+00  0.94772674904E+01  0.94772674904E+01  0.00000000000E+00 0.  1.
          1   -1    0    0  501    0  0.00000000000E+00 -0.00000000000E+00 -0.16576875299E+02  0.16576875299E+02  0.00000000000E+00 0. -1.
        -11    1    1    2    0    0  0.11107887935E+02  0.57448018177E+01 -0.26706262640E+01  0.12787500418E+02  0.00000000000E+00 0. -1.
         11    1    1    2    0    0 -0.11107887935E+02 -0.57448018177E+01 -0.44289815443E+01  0.13266642371E+02  0.00000000000E+00 0.  1.
<mgrwt>
<rscale>  0 0.25068186E+02</rscale>
<asrwt>0</asrwt>
<pdfrwt beam="2">  1        1 0.25502885E-02 0.25068186E+02</pdfrwt>
<pdfrwt beam="1">  1       -1 0.14580412E-02 0.25068186E+02</pdfrwt>
<totfact> 0.23456318E+06</totfact>
</mgrwt>
</event>
<event>
 4    1  0.2165211E+000  0.3340125E+02  0.7546771E-02  0.1563274E+00
          3   -1    0    0  501    0  0.00000000000E+00  0.00000000000E+00  0.29127993637E+02  0.29127993637E+02  0.00000000000E+00 0. -1.
         -3   -1    0    0    0  501 -0.00000000000E+00 -0.00000000000E+00 -0.95753530085E+01  0.95753530085E+01  0.00000000000E+00 0.  1.
        -11    1    1    2    0    0 -0.15653217100E+02  0.57287487727E+01  0.10974399561E+02  0.19956933978E+02  0.00000000000E+00 0. -1.
         11    1    1    2    0    0  0.15653217100E+02 -0.57287487727E+01  0.85782410670E+01  0.18746412667E+02  0.00000000000E+00 0.  1.
<mgrwt>
<rscale>  0 0.33401247E+02</rscale>
<asrwt>0</asrwt>
<pdfrwt beam="1">  1        3 0.44812297E-02 0.33401247E+02</pdfrwt>
<pdfrwt beam="2">  1       -3 0.14731312E-02 0.33401247E+02</pdfrwt>
<totfact> 0.52479963E+05</totfact>
</mgrwt>
</event>
<event>
 4    1  0.2165211E+000  0.7259902E+02  0.7546771E-02  0.1351472E+00
         -4   -1    0    0    0  501 -0.00000000000E+00  0.00000000000E+00  0.26955635293E+02  0.26955635293E+02  0.00000000000E+00 0.  1.
          4   -1    0    0  501    0  0.00000000000E+00 -0.00000000000E+00 -0.48882330475E+02  0.48882330475E+02  0.00000000000E+00 0. -1.
        -11    1    1    2    0    0  0.18176374886E+02  0.37677046265E+01 -0.43549252431E+02  0.47340401239E+02  0.00000000000E+00 0. -1.
         11    1    1    2    0    0 -0.18176374886E+02 -0.37677046265E+01  0.21622557248E+02  0.28497564530E+02  0.00000000000E+00 0.  1.
<mgrwt>
<rscale>  0 0.72599016E+02</rscale>
<asrwt>0</asrwt>
<pdfrwt beam="2">  1        4 0.75203585E-02 0.72599016E+02</pdfrwt>
<pdfrwt beam="1">  1       -4 0.41470208E-02 0.72599016E+02</pdfrwt>
<totfact> 0.51593891E+04</totfact>
</mgrwt>
</event>
<event>
 4    1  0.2165211E+000  0.3813621E+02  0.7546771E-02  0.1522393E+00
          2   -1    0    0  501    0  0.00000000000E+00  0.00000000000E+00  0.32981603460E+02  0.32981603460E+02  0.00000000000E+00 0.  1.
         -2   -1    0    0    0  501 -0.00000000000E+00 -0.00000000000E+00 -0.11024106804E+02  0.11024106804E+02  0.00000000000E+00 0. -1.
        -11    1    1    2    0    0  0.18155826517E+01 -0.14967679542E+02  0.24448622152E+02  0.28723908097E+02  0.00000000000E+00 0.  1.
         11    1    1    2    0    0 -0.18155826517E+01  0.14967679542E+02 -0.24911254964E+01  0.15281802167E+02  0.00000000000E+00 0. -1.
<mgrwt>
<rscale>  0 0.38136215E+02</rscale>
<asrwt>0</asrwt>
<pdfrwt beam="1">  1        2 0.50740928E-02 0.38136215E+02</pdfrwt>
<pdfrwt beam="2">  1       -2 0.16960164E-02 0.38136215E+02</pdfrwt>
<totfact> 0.95117129E+05</totfact>
</mgrwt>
</event>
<event>
 4    1  0.2165211E+000  0.3292792E+02  0.7546771E-02  0.1567811E+00
          1   -1    0    0  501    0  0.00000000000E+00  0.00000000000E+00  0.61720284276E+01  0.61720284276E+01  0.00000000000E+00 0.  1.
         -1   -1    0    0    0  501 -0.00000000000E+00 -0.00000000000E+00 -0.43917812651E+02  0.43917812651E+02  0.00000000000E+00 0. -1.
        -13    1    1    2    0    0  0.13273495193E+02 -0.76759988747E+01 -0.97513737281E+01  0.18171293926E+02  0.00000000000E+00 0.  1.
         13    1    1    2    0    0 -0.13273495193E+02  0.76759988747E+01 -0.27994410495E+02  0.31918547153E+02  0.00000000000E+00 0. -1.
<mgrwt>
<rscale>  0 0.32927921E+02</rscale>
<asrwt>0</asrwt>
<pdfrwt beam="1">  1        1 0.94954285E-03 0.32927921E+02</pdfrwt>
<pdfrwt beam="2">  1       -1 0.67565865E-02 0.32927921E+02</pdfrwt>
<totfact> 0.11332015E+06</totfact>
</mgrwt>
</event>
<event>
 4    1  0.2165211E+000  0.2889800E+02  0.7546771E-02  0.1610599E+00
         -2   -1    0    0    0  501 -0.00000000000E+00  0.00000000000E+00  0.11296431397E+03  0.11296431397E+03  0.00000000000E+00 0. -1.
          2   -1    0    0  501    0  0.00000000000E+00 -0.00000000000E+00 -0.18481377797E+01  0.18481377797E+01  0.00000000000E+00 0.  1.
        -11    1    1    2    0    0  0.14027883631E+02 -0.33117117656E+00  0.69253455609E+02  0.70660684311E+02  0.00000000000E+00 0. -1.
         11    1    1    2    0    0 -0.14027883631E+02  0.33117117656E+00  0.41862720580E+02  0.44151767438E+02  0.00000000000E+00 0.  1.
<mgrwt>
<rscale>  0 0.28898001E+02</rscale>
<asrwt>0</asrwt>
<pdfrwt beam="2">  1        2 0.28432898E-03 0.28898001E+02</pdfrwt>
<pdfrwt beam="1">  1       -2 0.17379120E-01 0.28898001E+02</pdfrwt>
<totfact> 0.12610878E+06</totfact>
</mgrwt>
</event>
<event>
 4    1  0.2165211E+000  0.3287577E+02  0.7546771E-02  0.1568316E+00
          2   -1    0    0  501    0  0.00000000000E+00  0.00000000000E+00  0.15564836193E+03  0.15564836193E+03  0.00000000000E+00 0. -1.
         -2   -1    0    0    0  501 -0.00000000000E+00 -0.00000000000E+00 -0.17359908303E+01  0.17359908303E+01  0.00000000000E+00 0.  1.
        -13    1    1    2    0    0  0.37323723526E+01 -0.15735554790E+02  0.62863591963E+02  0.64910472825E+02  0.00000000000E+00 0. -1.
         13    1    1    2    0    0 -0.37323723526E+01  0.15735554790E+02  0.91048779137E+02  0.92473879936E+02  0.00000000000E+00 0.  1.
<mgrwt>
<rscale>  0 0.32875774E+02</rscale>
<asrwt>0</asrwt>
<pdfrwt beam="1">  1        2 0.23945891E-01 0.32875774E+02</pdfrwt>
<pdfrwt beam="2">  1       -2 0.26707563E-03 0.32875774E+02</pdfrwt>
<totfact> 0.18938604E+06</totfact>
</mgrwt>
</event>
<event>
 4    1  0.2165211E+000  0.5006516E+02  0.7546771E-02  0.1444990E+00
         -2   -1    0    0    0  501 -0.00000000000E+00  0.00000000000E+00  0.49270790613E+01  0.49270790613E+01  0.00000000000E+00 0.  1.
          2   -1    0    0  501    0  0.00000000000E+00 -0.00000000000E+00 -0.12718083707E+03  0.12718083707E+03  0.00000000000E+00 0. -1.
        -11    1    1    2    0    0 -0.38806059769E+01  0.19900776905E+02 -0.99865764406E+02  0.10190324295E+03  0.00000000000E+00 0. -1.
         11    1    1    2    0    0  0.38806059769E+01 -0.19900776905E+02 -0.22387993603E+02  0.30204673177E+02  0.00000000000E+00 0.  1.
<mgrwt>
<rscale>  0 0.50065159E+02</rscale>
<asrwt>0</asrwt>
<pdfrwt beam="2">  1        2 0.19566283E-01 0.50065159E+02</pdfrwt>
<pdfrwt beam="1">  1       -2 0.75801213E-03 0.50065159E+02</pdfrwt>
<totfact> 0.63738577E+05</totfact>
</mgrwt>
</event>
<event>
 4    1  0.2165211E+000  0.3592202E+02  0.7546771E-02  0.1540562E+00
         -2   -1    0    0    0  501 -0.00000000000E+00  0.00000000000E+00  0.61230186868E+02  0.61230186868E+02  0.00000000000E+00 0. -1.
          2   -1    0    0  501    0  0.00000000000E+00 -0.00000000000E+00 -0.52686077370E+01  0.52686077370E+01  0.00000000000E+00 0.  1.
        -11    1    1    2    0    0  0.12356306656E+02 -0.12848860958E+02  0.32047656360E+02  0.36671839608E+02  0.00000000000E+00 0. -1.
         11    1    1    2    0    0 -0.12356306656E+02  0.12848860958E+02  0.23913922771E+02  0.29826954997E+02  0.00000000000E+00 0.  1.
<mgrwt>
<rscale>  0 0.35922018E+02</rscale>
<asrwt>0</asrwt>
<pdfrwt beam="2">  1        2 0.81055508E-03 0.35922018E+02</pdfrwt>
<pdfrwt beam="1">  1       -2 0.94200283E-02 0.35922018E+02</pdfrwt>
<totfact> 0.86548940E+05</totfact>
</mgrwt>
</event>
<event>
 4    1  0.2165211E+000  0.3939085E+02  0.7546771E-02  0.1512743E+00
          4   -1    0    0  501    0  0.00000000000E+00  0.00000000000E+00  0.17016181484E+02  0.17016181484E+02  0.00000000000E+00 0.  1.
         -4   -1    0    0    0  501 -0.00000000000E+00 -0.00000000000E+00 -0.22796526021E+02  0.22796526021E+02  0.00000000000E+00 0. -1.
        -13    1    1    2    0    0 -0.63533153334E+01 -0.80368790414E+01  0.14111204077E+02  0.17437950595E+02  0.00000000000E+00 0.  1.
         13    1    1    2    0    0  0.63533153334E+01  0.80368790414E+01 -0.19891548614E+02  0.22374756909E+02  0.00000000000E+00 0. -1.
<mgrwt>
<rscale>  0 0.39390853E+02</rscale>
<asrwt>0</asrwt>
<pdfrwt beam="1">  1        4 0.26178741E-02 0.39390853E+02</pdfrwt>
<pdfrwt beam="2">  1       -4 0.35071579E-02 0.39390853E+02</pdfrwt>
<totfact> 0.26649749E+05</totfact>
</mgrwt>
</event>
<event>
 4    1  0.2165211E+000  0.2211904E+02  0.7546771E-02  0.1706201E+00
          2   -1    0    0  501    0  0.00000000000E+00  0.00000000000E+00  0.12194987629E+03  0.12194987629E+03  0.00000000000E+00 0. -1.
         -2   -1    0    0    0  501 -0.00000000000E+00 -0.00000000000E+00 -0.10029772702E+01  0.10029772702E+01  0.00000000000E+00 0.  1.
        -13    1    1    2    0    0  0.96936066315E+01  0.53219258623E+01  0.61335487577E+02  0.62324400845E+02  0.00000000000E+00 0.  1.
         13    1    1    2    0    0 -0.96936066315E+01 -0.53219258623E+01  0.59611411444E+02  0.60628452716E+02  0.00000000000E+00 0. -1.
<mgrwt>
<rscale>  0 0.22119037E+02</rscale>
<asrwt>0</asrwt>
<pdfrwt beam="1">  1        2 0.18761508E-01 0.22119037E+02</pdfrwt>
<pdfrwt beam="2">  1       -2 0.15430429E-03 0.22119037E+02</pdfrwt>
<totfact> 0.44233060E+06</totfact>
</mgrwt>
</event>
<event>
 4    1  0.2165211E+000  0.2986345E+02  0.7546771E-02  0.1599603E+00
         -2   -1    0    0    0  501 -0.00000000000E+00  0.00000000000E+00  0.46706939106E+02  0.46706939106E+02  0.00000000000E+00 0.  1.
          2   -1    0    0  501    0  0.00000000000E+00 -0.00000000000E+00 -0.47735191295E+01  0.47735191295E+01  0.00000000000E+00 0. -1.
        -13    1    1    2    0    0 -0.70310132897E+01 -0.12998498757E+02  0.24648011887E+02  0.28738834489E+02  0.00000000000E+00 0. -1.
         13    1    1    2    0    0  0.70310132897E+01  0.12998498757E+02  0.17285408090E+02  0.22741623747E+02  0.00000000000E+00 0.  1.
<mgrwt>
<rscale>  0 0.29863454E+02</rscale>
<asrwt>0</asrwt>
<pdfrwt beam="2">  1        2 0.73438759E-03 0.29863454E+02</pdfrwt>
<pdfrwt beam="1">  1       -2 0.71856826E-02 0.29863454E+02</pdfrwt>
<totfact> 0.13894775E+06</totfact>
</mgrwt>
</event>
<event>
 4    1  0.2165211E+000  0.2652872E+02  0.7546771E-02  0.1639968E+00
          2   -1    0    0  501    0  0.00000000000E+00  0.00000000000E+00  0.25452155229E+02  0.25452155229E+02  0.00000000000E+00 0.  1.
         -2   -1    0    0    0  501 -0.00000000000E+00 -0.00000000000E+00 -0.69127031366E+01  0.69127031366E+01  0.00000000000E+00 0. -1.
        -11    1    1    2    0    0  0.11314428376E+02 -0.19315613756E+01  0.17380248616E+02  0.20828352330E+02  0.00000000000E+00 0.  1.
         11    1    1    2    0    0 -0.11314428376E+02  0.19315613756E+01  0.11592034772E+01  0.11536506036E+02  0.00000000000E+00 0. -1.
<mgrwt>
<rscale>  0 0.26528716E+02</rscale>
<asrwt>0</asrwt>
<pdfrwt beam="1">  1        2 0.39157161E-02 0.26528716E+02</pdfrwt>
<pdfrwt beam="2">  1       -2 0.10634928E-02 0.26528716E+02</pdfrwt>
<totfact> 0.22225810E+06</totfact>
</mgrwt>
</event>
<event>
 4    1  0.2165211E+000  0.6385511E+02  0.7546771E-02  0.1382331E+00
          2   -1    0    0  501    0  0.00000000000E+00  0.00000000000E+00  0.46028110033E+02  0.46028110033E+02  0.00000000000E+00 0.  1.
         -2   -1    0    0    0  501 -0.00000000000E+00 -0.00000000000E+00 -0.22146658698E+02  0.22146658698E+02  0.00000000000E+00 0. -1.
        -11    1    1    2    0    0  0.16627905911E+02  0.14103828024E+02 -0.12960053056E+02  0.25364703726E+02  0.00000000000E+00 0. -1.
         11    1    1    2    0    0 -0.16627905911E+02 -0.14103828024E+02  0.36841504392E+02  0.42810065005E+02  0.00000000000E+00 0.  1.
<mgrwt>
<rscale>  0 0.63855112E+02</rscale>
<asrwt>0</asrwt>
<pdfrwt beam="1">  1        2 0.70812477E-02 0.63855112E+02</pdfrwt>
<pdfrwt beam="2">  1       -2 0.34071783E-02 0.63855112E+02</pdfrwt>
<totfact> 0.26544006E+05</totfact>
</mgrwt>
</event>
<event>
 4    1  0.2165211E+000  0.3326980E+02  0.7546771E-02  0.1564525E+00
          2   -1    0    0  501    0  0.00000000000E+00  0.00000000000E+00  0.86361061188E+02  0.86361061188E+02  0.00000000000E+00 0. -1.
         -2   -1    0    0    0  501 -0.00000000000E+00 -0.00000000000E+00 -0.32042214463E+01  0.32042214463E+01  0.00000000000E+00 0.  1.
        -11    1    1    2    0    0  0.13060502188E+02 -0.93144967714E+01  0.53430768093E+02  0.55786947815E+02  0.00000000000E+00 0. -1.
         11    1    1    2    0    0 -0.13060502188E+02  0.93144967714E+01  0.29726071648E+02  0.33778334819E+02  0.00000000000E+00 0.  1.
<mgrwt>
<rscale>  0 0.33269804E+02</rscale>
<asrwt>0</asrwt>
<pdfrwt beam="1">  1        2 0.13286315E-01 0.33269804E+02</pdfrwt>
<pdfrwt beam="2">  1       -2 0.49295721E-03 0.33269804E+02</pdfrwt>
<totfact> 0.15784290E+06</totfact>
</mgrwt>
</event>
<event>
 4    1  0.2165211E+000  0.2648046E+02  0.7546771E-02  0.1640605E+00
         -1   -1    0    0    0  501 -0.00000000000E+00  0.00000000000E+00  0.50254940945E+01  0.50254940945E+01  0.00000000000E+00 0. -1.
          1   -1    0    0  501    0  0.00000000000E+00 -0.00000000000E+00 -0.34882869444E+02  0.34882869444E+02  0.00000000000E+00 0.  1.
        -13    1    1    2    0    0  0.10476394326E+01 -0.12084558558E+02 -0.22927553235E+02  0.25938519643E+02  0.00000000000E+00 0.  1.
         13    1    1    2    0    0 -0.10476394326E+01  0.12084558558E+02 -0.69298221147E+01  0.13969843896E+02  0.00000000000E+00 0. -1.
<mgrwt>
<rscale>  0 0.26480457E+02</rscale>
<asrwt>0</asrwt>
<pdfrwt beam="2">  1        1 0.53665953E-02 0.26480457E+02</pdfrwt>
<pdfrwt beam="1">  1       -1 0.77315293E-03 0.26480457E+02</pdfrwt>
<totfact> 0.21470185E+06</totfact>
</mgrwt>
</event>
<event>
 4    1  0.2165211E+000  0.3349980E+02  0.7546771E-02  0.1562341E+00
         -3   -1    0    0    0  501 -0.00000000000E+00  0.00000000000E+00  0.42925114156E+02  0.42925114156E+02  0.00000000000E+00 0.  1.
          3   -1    0    0  501    0  0.00000000000E+00 -0.00000000000E+00 -0.65360126618E+01  0.65360126618E+01  0.00000000000E+00 0. -1.
        -11    1    1    2    0    0  0.16153928177E+02  0.19282979943E+01  0.12308792978E+02  0.20400345910E+02  0.00000000000E+00 0. -1.
         11    1    1    2    0    0 -0.16153928177E+02 -0.19282979943E+01  0.24080308517E+02  0.29060780908E+02  0.00000000000E+00 0.  1.
<mgrwt>
<rscale>  0 0.33499796E+02</rscale>
<asrwt>0</asrwt>
<pdfrwt beam="2">  1        3 0.10055404E-02 0.33499796E+02</pdfrwt>
<pdfrwt beam="1">  1       -3 0.66038635E-02 0.33499796E+02</pdfrwt>
<totfact> 0.50501303E+05</totfact>
</mgrwt>
</event>
<event>
 4    1  0.2165211E+000  0.2472239E+02  0.7546771E-02  0.1665022E+00
          2   -1    0    0  501    0  0.00000000000E+00  0.00000000000E+00  0.12042945070E+02  0.12042945070E+02  0.00000000000E+00 0. -1.
         -2   -1    0    0    0  501 -0.00000000000E+00 -0.00000000000E+00 -0.12687857363E+02  0.12687857363E+02  0.00000000000E+00 0.  1.
        -13    1    1    2    0    0 -0.12073959672E+02  0.13706876617E+01  0.19454459887E+01  0.12306260476E+02  0.00000000000E+00 0. -1.
         13    1    1    2    0    0  0.12073959672E+02 -0.13706876617E+01 -0.25903582813E+01  0.12424541957E+02  0.00000000000E+00 0.  1.
<mgrwt>
<rscale>  0 0.24722392E+02</rscale>
<asrwt>0</asrwt>
<pdfrwt beam="1">  1        2 0.18527608E-02 0.24722392E+02</pdfrwt>
<pdfrwt beam="2">  1       -2 0.19519781E-02 0.24722392E+02</pdfrwt>
<totfact> 0.24443391E+06</totfact>
</mgrwt>
</event>
<event>
 4    1  0.2165211E+000  0.2497899E+02  0.7546771E-02  0.1661304E+00
         -4   -1    0    0    0  501 -0.00000000000E+00  0.00000000000E+00  0.27996071501E+01  0.27996071501E+01  0.00000000000E+00 0. -1.
          4   -1    0    0  501    0  0.00000000000E+00 -0.00000000000E+00 -0.55717653944E+02  0.55717653944E+02  0.00000000000E+00 0.  1.
        -13    1    1    2    0    0  0.89300217882E+01 -0.73478468069E+01 -0.15408376225E+02  0.19265362694E+02  0.00000000000E+00 0. -1.
         13    1    1    2    0    0 -0.89300217882E+01  0.73478468069E+01 -0.37509670569E+02  0.39251898400E+02  0.00000000000E+00 0.  1.
<mgrwt>
<rscale>  0 0.24978995E+02</rscale>
<asrwt>0</asrwt>
<pdfrwt beam="2">  1        4 0.85719459E-02 0.24978995E+02</pdfrwt>
<pdfrwt beam="1">  1       -4 0.43070883E-03 0.24978995E+02</pdfrwt>
<totfact> 0.70336828E+05</totfact>
</mgrwt>
</event>
<event>
 4    1  0.2165211E+000  0.2682007E+02  0.7546771E-02  0.1636157E+00
         -1   -1    0    0    0  501 -0.00000000000E+00  0.00000000000E+00  0.78888960279E+01  0.78888960279E+01  0.00000000000E+00 0. -1.
          1   -1    0    0  501    0  0.00000000000E+00 -0.00000000000E+00 -0.22795211226E+02  0.22795211226E+02  0.00000000000E+00 0.  1.
        -13    1    1    2    0    0  0.61806036352E+01 -0.98968724467E+01 -0.15014525718E+02  0.19015360319E+02  0.00000000000E+00 0.  1.
         13    1    1    2    0    0 -0.61806036352E+01  0.98968724467E+01  0.10821051966E+00  0.11668746935E+02  0.00000000000E+00 0. -1.
<mgrwt>
<rscale>  0 0.26820071E+02</rscale>
<asrwt>0</asrwt>
<pdfrwt beam="2">  1        1 0.35069555E-02 0.26820071E+02</pdfrwt>
<pdfrwt beam="1">  1       -1 0.12136763E-02 0.26820071E+02</pdfrwt>
<totfact> 0.20336031E+06</totfact>
</mgrwt>
</event>
<event>
 4    1  0.2165211E+000  0.2013421E+02  0.7546771E-02  0.1742672E+00
         -1   -1    0    0    0  501 -0.00000000000E+00  0.00000000000E+00  0.97551666568E+02  0.97551666568E+02  0.00000000000E+00 0. -1.
          1   -1    0    0  501    0  0.00000000000E+00 -0.00000000000E+00 -0.10389020519E+01  0.10389020519E+01  0.00000000000E+00 0.  1.
        -13    1    1    2    0    0  0.71679020835E+01 -0.70552378499E+01  0.46113983813E+02  0.47198037083E+02  0.00000000000E+00 0. -1.
         13    1    1    2    0    0 -0.71679020835E+01  0.70552378499E+01  0.50398780703E+02  0.51392531537E+02  0.00000000000E+00 0.  1.
<mgrwt>
<rscale>  0 0.20134212E+02</rscale>
<asrwt>0</asrwt>
<pdfrwt beam="2">  1        1 0.15983116E-03 0.20134212E+02</pdfrwt>
<pdfrwt beam="1">  1       -1 0.15007941E-01 0.20134212E+02</pdfrwt>
<totfact> 0.31534297E+06</totfact>
</mgrwt>
</event>
<event>
 4    1  0.2165211E+000  0.2425536E+02  0.7546771E-02  0.1671934E+00
         -4   -1    0    0    0  501 -0.00000000000E+00  0.00000000000E+00  0.12689987944E+02  0.12689987944E+02  0.00000000000E+00 0. -1.
          4   -1    0    0  501    0  0.00000000000E+00 -0.00000000000E+00 -0.11590285732E+02  0.11590285732E+02  0.00000000000E+00 0.  1.
        -11    1    1    2    0    0  0.10145797258E+02 -0.57568342810E+01 -0.27705192492E+01  0.11989750616E+02  0.00000000000E+00 0. -1.
         11    1    1    2    0    0 -0.10145797258E+02  0.57568342810E+01  0.38702214608E+01  0.12290523060E+02  0.00000000000E+00 0.  1.
<mgrwt>
<rscale>  0 0.24255357E+02</rscale>
<asrwt>0</asrwt>
<pdfrwt beam="2">  1        4 0.17831209E-02 0.24255357E+02</pdfrwt>
<pdfrwt beam="1">  1       -4 0.19523058E-02 0.24255357E+02</pdfrwt>
<totfact> 0.85159116E+05</totfact>
</mgrwt>
</event>
<event>
 4    1  0.2165211E+000  0.3454420E+02  0.7546771E-02  0.1552686E+00
          4   -1    0    0  501    0  0.00000000000E+00  0.00000000000E+00  0.46619094129E+02  0.46619094129E+02  0.00000000000E+00 0. -1.
         -4   -1    0    0    0  501 -0.00000000000E+00 -0.00000000000E+00 -0.63992117098E+01  0.63992117098E+01  0.00000000000E+00 0.  1.
        -11    1    1    2    0    0  0.12937146590E+02 -0.97864423839E+01  0.11006486278E+02  0.19603238421E+02  0.00000000000E+00 0.  1.
         11    1    1    2    0    0 -0.12937146590E+02  0.97864423839E+01  0.29213396141E+02  0.33415067418E+02  0.00000000000E+00 0. -1.
<mgrwt>
<rscale>  0 0.34544201E+02</rscale>
<asrwt>0</asrwt>
<pdfrwt beam="1">  1        4 0.71721681E-02 0.34544201E+02</pdfrwt>
<pdfrwt beam="2">  1       -4 0.98449414E-03 0.34544201E+02</pdfrwt>
<totfact> 0.34724542E+05</totfact>
</mgrwt>
</event>
<event>
 4    1  0.2165211E+000  0.2211700E+02  0.7546771E-02  0.1706236E+00
         -4   -1    0    0    0  501 -0.00000000000E+00  0.00000000000E+00  0.60708110151E+02  0.60708110151E+02  0.00000000000E+00 0. -1.
          4   -1    0    0  501    0  0.00000000000E+00 -0.00000000000E+00 -0.20143999895E+01  0.20143999895E+01  0.00000000000E+00 0.  1.
        -13    1    1    2    0    0 -0.10461903950E+02  0.24080273382E+01  0.21822046190E+02  0.24319780628E+02  0.00000000000E+00 0.  1.
         13    1    1    2    0    0  0.10461903950E+02 -0.24080273382E+01  0.36871663972E+02  0.38402729512E+02  0.00000000000E+00 0. -1.
<mgrwt>
<rscale>  0 0.22116999E+02</rscale>
<asrwt>0</asrwt>
<pdfrwt beam="2">  1        4 0.30990774E-03 0.22116999E+02</pdfrwt>
<pdfrwt beam="1">  1       -4 0.93397079E-02 0.22116999E+02</pdfrwt>
<totfact> 0.89654649E+05</totfact>
</mgrwt>
</event>
<event>
 4    1  0.2165211E+000  0.3261288E+02  0.7546771E-02  0.1570882E+00
         -2   -1    0    0    0  501 -0.00000000000E+00  0.00000000000E+00  0.53302591963E+01  0.53302591963E+01  0.00000000000E+00 0. -1.
          2   -1    0    0  501    0  0.00000000000E+00 -0.00000000000E+00 -0.49884991482E+02  0.49884991482E+02  0.00000000000E+00 0.  1.
        -11    1    1    2    0    0 -0.16208582065E+02  0.11930509191E+01 -0.24522450539E+02  0.29419246820E+02  0.00000000000E+00 0. -1.
         11    1    1    2    0    0  0.16208582065E+02 -0.11930509191E+01 -0.20032281747E+02  0.25796003858E+02  0.00000000000E+00 0.  1.
<mgrwt>
<rscale>  0 0.32612877E+02</rscale>
<asrwt>0</asrwt>
<pdfrwt beam="2">  1        2 0.76746139E-02 0.32612877E+02</pdfrwt>
<pdfrwt beam="1">  1       -2 0.82003989E-03 0.32612877E+02</pdfrwt>
<totfact> 0.14875905E+06</totfact>
</mgrwt>
</event>
<event>
 4    1  0.2165211E+000  0.2703693E+02  0.7546771E-02  0.1633358E+00
          2   -1    0    0  501    0  0.00000000000E+00  0.00000000000E+00  0.11635200143E+02  0.11635200143E+02  0.00000000000E+00 0. -1.
         -2   -1    0    0    0  501 -0.00000000000E+00 -0.00000000000E+00 -0.15706559115E+02  0.15706559115E+02  0.00000000000E+00 0.  1.
        -13    1    1    2    0    0 -0.61076141142E+01 -0.94255387960E+01 -0.96441484299E+01  0.14803828245E+02  0.00000000000E+00 0.  1.
         13    1    1    2    0    0  0.61076141142E+01  0.94255387960E+01  0.55727894575E+01  0.12537931014E+02  0.00000000000E+00 0. -1.
<mgrwt>
<rscale>  0 0.27036935E+02</rscale>
<asrwt>0</asrwt>
<pdfrwt beam="1">  1        2 0.17900308E-02 0.27036935E+02</pdfrwt>
<pdfrwt beam="2">  1       -2 0.24163937E-02 0.27036935E+02</pdfrwt>
<totfact> 0.19663812E+06</totfact>
</mgrwt>
</event>
<event>
 4    1  0.2165211E+000  0.3536882E+02  0.7546771E-02  0.1545350E+00
          2   -1    0    0  501    0  0.00000000000E+00  0.00000000000E+00  0.80919226470E+01  0.80919226470E+01  0.00000000000E+00 0. -1.
         -2   -1    0    0    0  501 -0.00000000000E+00 -0.00000000000E+00 -0.38648203400E+02  0.38648203400E+02  0.00000000000E+00 0.  1.
        -11    1    1    2    0    0  0.80801185727E+01  0.15585850544E+02 -0.18091186769E+02  0.25209087490E+02  0.00000000000E+00 0.  1.
         11    1    1    2    0    0 -0.80801185727E+01 -0.15585850544E+02 -0.12465093984E+02  0.21531038557E+02  0.00000000000E+00 0. -1.
<mgrwt>
<rscale>  0 0.35368815E+02</rscale>
<asrwt>0</asrwt>
<pdfrwt beam="1">  1        2 0.12449111E-02 0.35368815E+02</pdfrwt>
<pdfrwt beam="2">  1       -2 0.59458776E-02 0.35368815E+02</pdfrwt>
<totfact> 0.96337391E+05</totfact>
</mgrwt>
</event>
<event>
 4    1  0.2165211E+000  0.3096125E+02  0.7546771E-02  0.1587700E+00
          2   -1    0    0  501    0  0.00000000000E+00  0.00000000000E+00  0.37344552294E+02  0.37344552294E+02  0.00000000000E+00 0.  1.
         -2   -1    0    0    0  501 -0.00000000000E+00 -0.00000000000E+00 -0.64172619583E+01  0.64172619583E+01  0.00000000000E+00 0. -1.
        -13    1    1    2    0    0 -0.13409116951E+02  0.77113952100E+01  0.14592640026E+02  0.21265351547E+02  0.00000000000E+00 0. -1.
         13    1    1    2    0    0  0.13409116951E+02 -0.77113952100E+01  0.16334650310E+02  0.22496462705E+02  0.00000000000E+00 0.  1.
<mgrwt>
<rscale>  0 0.30961252E+02</rscale>
<asrwt>0</asrwt>
<pdfrwt beam="1">  1        2 0.57453156E-02 0.30961252E+02</pdfrwt>
<pdfrwt beam="2">  1       -2 0.98727109E-03 0.30961252E+02</pdfrwt>
<totfact> 0.16129711E+06</totfact>
</mgrwt>
</event>
<event>
 4    1  0.2165211E+000  0.1125229E+03  0.7546771E-02  0.1255968E+00
          2   -1    0    0  501    0  0.00000000000E+00  0.00000000000E+00  0.17622164512E+03  0.17622164512E+03  0.00000000000E+00 0. -1.
         -2   -1    0    0    0  501 -0.00000000000E+00 -0.00000000000E+00 -0.17962320395E+02  0.17962320395E+02  0.00000000000E+00 0.  1.
        -13    1    1    2    0    0  0.96001069565E+01  0.39962906493E+02  0.12825878296E+02  0.43054606060E+02  0.00000000000E+00 0.  1.
         13    1    1    2    0    0 -0.96001069565E+01 -0.39962906493E+02  0.14543344643E+03  0.15112935946E+03  0.00000000000E+00 0. -1.
<mgrwt>
<rscale>  0 0.11252288E+03</rscale>
<asrwt>0</asrwt>
<pdfrwt beam="1">  1        2 0.27111021E-01 0.11252288E+03</pdfrwt>
<pdfrwt beam="2">  1       -2 0.27634340E-02 0.11252288E+03</pdfrwt>
<totfact> 0.83087696E+04</totfact>
</mgrwt>
</event>
<event>
 4    1  0.2165211E+000  0.2136207E+02  0.7546771E-02  0.1719524E+00
         -2   -1    0    0    0  501 -0.00000000000E+00  0.00000000000E+00  0.52477019057E+01  0.52477019057E+01  0.00000000000E+00 0. -1.
          2   -1    0    0  501    0  0.00000000000E+00 -0.00000000000E+00 -0.21739894359E+02  0.21739894359E+02  0.00000000000E+00 0.  1.
        -13    1    1    2    0    0  0.46663798122E+01 -0.95686903760E+01 -0.71523390177E+01  0.12825400169E+02  0.00000000000E+00 0. -1.
         13    1    1    2    0    0 -0.46663798122E+01  0.95686903760E+01 -0.93398534358E+01  0.14162196096E+02  0.00000000000E+00 0.  1.
<mgrwt>
<rscale>  0 0.21362068E+02</rscale>
<asrwt>0</asrwt>
<pdfrwt beam="2">  1        2 0.33445992E-02 0.21362068E+02</pdfrwt>
<pdfrwt beam="1">  1       -2 0.80733874E-03 0.21362068E+02</pdfrwt>
<totfact> 0.36164306E+06</totfact>
</mgrwt>
</event>
<event>
 4    1  0.2165211E+000  0.2417017E+02  0.7546771E-02  0.1673215E+00
         -2   -1    0    0    0  501 -0.00000000000E+00  0.00000000000E+00  0.61345923187E+01  0.61345923187E+01  0.00000000000E+00 0. -1.
          2   -1    0    0  501    0  0.00000000000E+00 -0.00000000000E+00 -0.23807499443E+02  0.23807499443E+02  0.00000000000E+00 0.  1.
        -13    1    1    2    0    0 -0.61436788047E+01  0.90213583615E+01 -0.24090324277E+01  0.11177349112E+02  0.00000000000E+00 0. -1.
         13    1    1    2    0    0  0.61436788047E+01 -0.90213583615E+01 -0.15263874696E+02  0.18764742649E+02  0.00000000000E+00 0.  1.
<mgrwt>
<rscale>  0 0.24170172E+02</rscale>
<asrwt>0</asrwt>
<pdfrwt beam="2">  1        2 0.36626923E-02 0.24170172E+02</pdfrwt>
<pdfrwt beam="1">  1       -2 0.94378343E-03 0.24170172E+02</pdfrwt>
<totfact> 0.27455512E+06</totfact>
</mgrwt>
</event>
<event>
 4    1  0.2165211E+000  0.3051384E+02  0.7546771E-02  0.1592477E+00
          2   -1    0    0  501    0  0.00000000000E+00  0.00000000000E+00  0.16437713401E+02  0.16437713401E+02  0.00000000000E+00 0.  1.
         -2   -1    0    0    0  501 -0.00000000000E+00 -0.00000000000E+00 -0.14160951585E+02  0.14160951585E+02  0.00000000000E+00 0. -1.
        -11    1    1    2    0    0  0.31001406713E+01  0.11284667717E+02  0.10954312624E+02  0.16029708754E+02  0.00000000000E+00 0.  1.
         11    1    1    2    0    0 -0.31001406713E+01 -0.11284667717E+02 -0.86775508080E+01  0.14568956232E+02  0.00000000000E+00 0. -1.
<mgrwt>
<rscale>  0 0.30513844E+02</rscale>
<asrwt>0</asrwt>
<pdfrwt beam="1">  1        2 0.25288790E-02 0.30513844E+02</pdfrwt>
<pdfrwt beam="2">  1       -2 0.21786079E-02 0.30513844E+02</pdfrwt>
<totfact> 0.15161396E+06</totfact>
</mgrwt>
</event>
<event>
 4    1  0.2165211E+000  0.3087348E+02  0.7546771E-02  0.1588629E+00
          2   -1    0    0  501    0  0.00000000000E+00  0.00000000000E+00  0.11539643404E+03  0.11539643404E+03  0.00000000000E+00 0. -1.
         -2   -1    0    0    0  501 -0.00000000000E+00 -0.00000000000E+00 -0.20649936389E+01  0.20649936389E+01  0.00000000000E+00 0.  1.
        -11    1    1    2    0    0  0.10186920116E+02 -0.11258523994E+02  0.67267676294E+02  0.68959901233E+02  0.00000000000E+00 0. -1.
         11    1    1    2    0    0 -0.10186920116E+02  0.11258523994E+02  0.46063764109E+02  0.48501526449E+02  0.00000000000E+00 0.  1.
<mgrwt>
<rscale>  0 0.30873477E+02</rscale>
<asrwt>0</asrwt>
<pdfrwt beam="1">  1        2 0.17753292E-01 0.30873477E+02</pdfrwt>
<pdfrwt beam="2">  1       -2 0.31769142E-03 0.30873477E+02</pdfrwt>
<totfact> 0.20234412E+06</totfact>
</mgrwt>
</event>
<event>
 4    1  0.2165211E+000  0.1250232E+03  0.7546771E-02  0.1235033E+00
          1   -1    0    0  501    0  0.00000000000E+00  0.00000000000E+00  0.11649107243E+03  0.11649107243E+03  0.00000000000E+00 0. -1.
         -1   -1    0    0    0  501 -0.00000000000E+00 -0.00000000000E+00 -0.33545073508E+02  0.33545073508E+02  0.00000000000E+00 0.  1.
        -13    1    1    2    0    0 -0.26503233560E+02 -0.38260741651E+02 -0.86058059400E+01  0.47332500850E+02  0.00000000000E+00 0.  1.
         13    1    1    2    0    0  0.26503233560E+02  0.38260741651E+02  0.91551804865E+02  0.10270364509E+03  0.00000000000E+00 0. -1.
<mgrwt>
<rscale>  0 0.12502322E+03</rscale>
<asrwt>0</asrwt>
<pdfrwt beam="1">  1        1 0.17921703E-01 0.12502322E+03</pdfrwt>
<pdfrwt beam="2">  1       -1 0.51607806E-02 0.12502322E+03</pdfrwt>
<totfact> 0.44667909E+04</totfact>
</mgrwt>
</event>
<event>
 4    1  0.2165211E+000  0.2399343E+02  0.7546771E-02  0.1675895E+00
         -3   -1    0    0    0  501 -0.00000000000E+00  0.00000000000E+00  0.17057492660E+02  0.17057492660E+02  0.00000000000E+00 0. -1.
          3   -1    0    0  501    0  0.00000000000E+00 -0.00000000000E+00 -0.84374199646E+01  0.84374199646E+01  0.00000000000E+00 0.  1.
        -11    1    1    2    0    0  0.11118437882E+02  0.98873129047E+00 -0.36095837709E+00  0.11168148523E+02  0.00000000000E+00 0.  1.
         11    1    1    2    0    0 -0.11118437882E+02 -0.98873129047E+00  0.89810310728E+01  0.14326764102E+02  0.00000000000E+00 0. -1.
<mgrwt>
<rscale>  0 0.23993435E+02</rscale>
<asrwt>0</asrwt>
<pdfrwt beam="2">  1        3 0.12980646E-02 0.23993435E+02</pdfrwt>
<pdfrwt beam="1">  1       -3 0.26242296E-02 0.23993435E+02</pdfrwt>
<totfact> 0.11752167E+06</totfact>
</mgrwt>
</event>
<event>
 4    1  0.2165211E+000  0.3727911E+02  0.7546771E-02  0.1529245E+00
         -4   -1    0    0    0  501 -0.00000000000E+00  0.00000000000E+00  0.14572129556E+02  0.14572129556E+02  0.00000000000E+00 0. -1.
          4   -1    0    0  501    0  0.00000000000E+00 -0.00000000000E+00 -0.23842296511E+02  0.23842296511E+02  0.00000000000E+00 0.  1.
        -13    1    1    2    0    0  0.77423269581E+01  0.12222942239E+02 -0.16744089156E+02  0.22129357545E+02  0.00000000000E+00 0.  1.
         13    1    1    2    0    0 -0.77423269581E+01 -0.12222942239E+02  0.74739222006E+01  0.16285068522E+02  0.00000000000E+00 0. -1.
<mgrwt>
<rscale>  0 0.37279111E+02</rscale>
<asrwt>0</asrwt>
<pdfrwt beam="2">  1        4 0.36680456E-02 0.37279111E+02</pdfrwt>
<pdfrwt beam="1">  1       -4 0.22418661E-02 0.37279111E+02</pdfrwt>
<totfact> 0.30524064E+05</totfact>
</mgrwt>
</event>
<event>
 4    1  0.2165211E+000  0.3851167E+02  0.7546771E-02  0.1519459E+00
          2   -1    0    0  501    0  0.00000000000E+00  0.00000000000E+00  0.20979674132E+02  0.20979674132E+02  0.00000000000E+00 0.  1.
         -2   -1    0    0    0  501 -0.00000000000E+00 -0.00000000000E+00 -0.17673637345E+02  0.17673637345E+02  0.00000000000E+00 0. -1.
        -11    1    1    2    0    0  0.95756525673E+01  0.15424293723E+02  0.80941908364E+01  0.19877572393E+02  0.00000000000E+00 0.  1.
         11    1    1    2    0    0 -0.95756525673E+01 -0.15424293723E+02 -0.47881540492E+01  0.18775739084E+02  0.00000000000E+00 0. -1.
<mgrwt>
<rscale>  0 0.38511668E+02</rscale>
<asrwt>0</asrwt>
<pdfrwt beam="1">  1        2 0.32276422E-02 0.38511668E+02</pdfrwt>
<pdfrwt beam="2">  1       -2 0.27190211E-02 0.38511668E+02</pdfrwt>
<totfact> 0.87348223E+05</totfact>
</mgrwt>
</event>
<event>
 4    1  0.2165211E+000  0.2286369E+02  0.7546771E-02  0.1693729E+00
          2   -1    0    0  501    0  0.00000000000E+00  0.00000000000E+00  0.95851217237E+01  0.95851217237E+01  0.00000000000E+00 0.  1.
         -2   -1    0    0    0  501 -0.00000000000E+00 -0.00000000000E+00 -0.13634363051E+02  0.13634363051E+02  0.00000000000E+00 0. -1.
        -11    1    1    2    0    0 -0.67572713986E+01 -0.82162937497E+01  0.22260639768E+01  0.10868466339E+02  0.00000000000E+00 0.  1.
         11    1    1    2    0    0  0.67572713986E+01  0.82162937497E+01 -0.62753053043E+01  0.12351018436E+02  0.00000000000E+00 0. -1.
<mgrwt>
<rscale>  0 0.22863686E+02</rscale>
<asrwt>0</asrwt>
<pdfrwt beam="1">  1        2 0.14746341E-02 0.22863686E+02</pdfrwt>
<pdfrwt beam="2">  1       -2 0.20975943E-02 0.22863686E+02</pdfrwt>
<totfact> 0.28837076E+06</totfact>
</mgrwt>
</event>
<event>
 4    1  0.2165211E+000  0.2307794E+02  0.7546771E-02  0.1690250E+00
          2   -1    0    0  501    0  0.00000000000E+00  0.00000000000E+00  0.26929417350E+01  0.26929417350E+01  0.00000000000E+00 0.  1.
         -2   -1    0    0    0  501 -0.00000000000E+00 -0.00000000000E+00 -0.49443278571E+02  0.49443278571E+02  0.00000000000E+00 0. -1.
        -13    1    1    2    0    0 -0.10465893161E+02 -0.19011294024E+01 -0.33477993657E+02  0.35127272481E+02  0.00000000000E+00 0. -1.
         13    1    1    2    0    0  0.10465893161E+02  0.19011294024E+01 -0.13272343179E+02  0.17008947825E+02  0.00000000000E+00 0.  1.
<mgrwt>
<rscale>  0 0.23077943E+02</rscale>
<asrwt>0</asrwt>
<pdfrwt beam="1">  1        2 0.41429871E-03 0.23077943E+02</pdfrwt>
<pdfrwt beam="2">  1       -2 0.76066586E-02 0.23077943E+02</pdfrwt>
<totfact> 0.24743216E+06</totfact>
</mgrwt>
</event>
<event>
 4    1  0.2165211E+000  0.3398947E+02  0.7546771E-02  0.1557762E+00
         -2   -1    0    0    0  501 -0.00000000000E+00  0.00000000000E+00  0.21868864822E+01  0.21868864822E+01  0.00000000000E+00 0.  1.
          2   -1    0    0  501    0  0.00000000000E+00 -0.00000000000E+00 -0.13206951258E+03  0.13206951258E+03  0.00000000000E+00 0. -1.
        -11    1    1    2    0    0  0.40084950821E+01  0.15290451060E+02 -0.40288142339E+02  0.43278173940E+02  0.00000000000E+00 0.  1.
         11    1    1    2    0    0 -0.40084950821E+01 -0.15290451060E+02 -0.89594483763E+02  0.90978225127E+02  0.00000000000E+00 0. -1.
<mgrwt>
<rscale>  0 0.33989471E+02</rscale>
<asrwt>0</asrwt>
<pdfrwt beam="2">  1        2 0.20318390E-01 0.33989471E+02</pdfrwt>
<pdfrwt beam="1">  1       -2 0.33644402E-03 0.33989471E+02</pdfrwt>
<totfact> 0.16690159E+06</totfact>
</mgrwt>
</event>
<event>
 4    1  0.2165211E+000  0.2409492E+02  0.7546771E-02  0.1674353E+00
         -2   -1    0    0    0  501 -0.00000000000E+00  0.00000000000E+00  0.31940414667E+01  0.31940414667E+01  0.00000000000E+00 0.  1.
          2   -1    0    0  501    0  0.00000000000E+00 -0.00000000000E+00 -0.45441271467E+02  0.45441271467E+02  0.00000000000E+00 0. -1.
        -11    1    1    2    0    0 -0.10445844215E+02 -0.18545597491E+01 -0.96012026447E+01  0.14308673784E+02  0.00000000000E+00 0.  1.
         11    1    1    2    0    0  0.10445844215E+02  0.18545597491E+01 -0.32646027356E+02  0.34326639150E+02  0.00000000000E+00 0. -1.
<mgrwt>
<rscale>  0 0.24094921E+02</rscale>
<asrwt>0</asrwt>
<pdfrwt beam="2">  1        2 0.69909648E-02 0.24094921E+02</pdfrwt>
<pdfrwt beam="1">  1       -2 0.49139100E-03 0.24094921E+02</pdfrwt>
<totfact> 0.29943875E+06</totfact>
</mgrwt>
</event>
<event>
 4    1  0.2165211E+000  0.2718844E+02  0.7546771E-02  0.1631422E+00
         -2   -1    0    0    0  501 -0.00000000000E+00  0.00000000000E+00  0.30775666971E+01  0.30775666971E+01  0.00000000000E+00 0.  1.
          2   -1    0    0  501    0  0.00000000000E+00 -0.00000000000E+00 -0.60048347776E+02  0.60048347776E+02  0.00000000000E+00 0. -1.
        -13    1    1    2    0    0 -0.10389868570E+02  0.58765189983E+01 -0.43589530329E+02  0.45194358041E+02  0.00000000000E+00 0. -1.
         13    1    1    2    0    0  0.10389868570E+02 -0.58765189983E+01 -0.13381250750E+02  0.17931556432E+02  0.00000000000E+00 0.  1.
<mgrwt>
<rscale>  0 0.27188438E+02</rscale>
<asrwt>0</asrwt>
<pdfrwt beam="2">  1        2 0.92382069E-02 0.27188438E+02</pdfrwt>
<pdfrwt beam="1">  1       -2 0.47347182E-03 0.27188438E+02</pdfrwt>
<totfact> 0.23667562E+06</totfact>
</mgrwt>
</event>
<event>
 4    1  0.2165211E+000  0.2228248E+02  0.7546771E-02  0.1703412E+00
         -2   -1    0    0    0  501 -0.00000000000E+00  0.00000000000E+00  0.14002830518E+01  0.14002830518E+01  0.00000000000E+00 0. -1.
          2   -1    0    0  501    0  0.00000000000E+00 -0.00000000000E+00 -0.88644367192E+02  0.88644367192E+02  0.00000000000E+00 0.  1.
        -13    1    1    2    0    0  0.41665711897E+01  0.10137349391E+02 -0.35538890767E+02  0.37190575757E+02  0.00000000000E+00 0. -1.
         13    1    1    2    0    0 -0.41665711897E+01 -0.10137349391E+02 -0.51705193373E+02  0.52854074487E+02  0.00000000000E+00 0.  1.
<mgrwt>
<rscale>  0 0.22282478E+02</rscale>
<asrwt>0</asrwt>
<pdfrwt beam="2">  1        2 0.13637599E-01 0.22282478E+02</pdfrwt>
<pdfrwt beam="1">  1       -2 0.21542810E-03 0.22282478E+02</pdfrwt>
<totfact> 0.40367210E+06</totfact>
</mgrwt>
</event>
<event>
 4    1  0.2165211E+000  0.2073481E+02  0.7546771E-02  0.1731098E+00
          2   -1    0    0  501    0  0.00000000000E+00  0.00000000000E+00  0.90954361297E+01  0.90954361297E+01  0.00000000000E+00 0. -1.
         -2   -1    0    0    0  501 -0.00000000000E+00 -0.00000000000E+00 -0.11817257502E+02  0.11817257502E+02  0.00000000000E+00 0.  1.
        -11    1    1    2    0    0 -0.78997743010E+01 -0.65782445175E+01 -0.27153295587E+01  0.10632626653E+02  0.00000000000E+00 0. -1.
         11    1    1    2    0    0  0.78997743010E+01  0.65782445175E+01 -0.64918139572E-02  0.10280066979E+02  0.00000000000E+00 0.  1.
<mgrwt>
<rscale>  0 0.20734812E+02</rscale>
<asrwt>0</asrwt>
<pdfrwt beam="1">  1        2 0.13992979E-02 0.20734812E+02</pdfrwt>
<pdfrwt beam="2">  1       -2 0.18180396E-02 0.20734812E+02</pdfrwt>
<totfact> 0.36067526E+06</totfact>
</mgrwt>
</event>
<event>
 4    1  0.2165211E+000  0.2047789E+02  0.7546771E-02  0.1735988E+00
          2   -1    0    0  501    0  0.00000000000E+00  0.00000000000E+00  0.10246025493E+01  0.10246025493E+01  0.00000000000E+00 0. -1.
         -2   -1    0    0    0  501 -0.00000000000E+00 -0.00000000000E+00 -0.10231865672E+03  0.10231865672E+03  0.00000000000E+00 0.  1.
        -13    1    1    2    0    0 -0.81221804263E+01  0.59848470211E+01 -0.41836811424E+02  0.43036112729E+02  0.00000000000E+00 0. -1.
         13    1    1    2    0    0  0.81221804263E+01 -0.59848470211E+01 -0.59457242750E+02  0.60307146543E+02  0.00000000000E+00 0.  1.
<mgrwt>
<rscale>  0 0.20477886E+02</rscale>
<asrwt>0</asrwt>
<pdfrwt beam="1">  1        2 0.15763120E-03 0.20477886E+02</pdfrwt>
<pdfrwt beam="2">  1       -2 0.15741328E-01 0.20477886E+02</pdfrwt>
<totfact> 0.28076104E+06</totfact>
</mgrwt>
</event>
<event>
 4    1  0.2165211E+000  0.3619513E+02  0.7546771E-02  0.1538237E+00
          2   -1    0    0  501    0  0.00000000000E+00  0.00000000000E+00  0.10733667117E+03  0.10733667117E+03  0.00000000000E+00 0. -1.
         -2   -1    0    0    0  501 -0.00000000000E+00 -0.00000000000E+00 -0.30513509410E+01  0.30513509410E+01  0.00000000000E+00 0.  1.
        -13    1    1    2    0    0  0.10551604926E+02  0.14467536504E+02  0.60139819585E+02  0.62749054804E+02  0.00000000000E+00 0.  1.
         13    1    1    2    0    0 -0.10551604926E+02 -0.14467536504E+02  0.44145500643E+02  0.47638967307E+02  0.00000000000E+00 0. -1.
<mgrwt>
<rscale>  0 0.36195130E+02</rscale>
<asrwt>0</asrwt>
<pdfrwt beam="1">  1        2 0.16513331E-01 0.36195130E+02</pdfrwt>
<pdfrwt beam="2">  1       -2 0.46943869E-03 0.36195130E+02</pdfrwt>
<totfact> 0.13575435E+06</totfact>
</mgrwt>
</event>
<event>
 4    1  0.2165211E+000  0.2450400E+02  0.7546771E-02  0.1668230E+00
         -2   -1    0    0    0  501 -0.00000000000E+00  0.00000000000E+00  0.58819675596E+01  0.58819675596E+01  0.00000000000E+00 0. -1.
          2   -1    0    0  501    0  0.00000000000E+00 -0.00000000000E+00 -0.25520618835E+02  0.25520618835E+02  0.00000000000E+00 0.  1.
        -11    1    1    2    0    0  0.27777970984E+01  0.10849259981E+02 -0.34516787869E+01  0.11719073568E+02  0.00000000000E+00 0. -1.
         11    1    1    2    0    0 -0.27777970984E+01 -0.10849259981E+02 -0.16186972488E+02  0.19683512826E+02  0.00000000000E+00 0.  1.
<mgrwt>
<rscale>  0 0.24503996E+02</rscale>
<asrwt>0</asrwt>
<pdfrwt beam="2">  1        2 0.39262491E-02 0.24503996E+02</pdfrwt>
<pdfrwt beam="1">  1       -2 0.90491808E-03 0.24503996E+02</pdfrwt>
<totfact> 0.26787878E+06</totfact>
</mgrwt>
</event>
<event>
 4    1  0.2165211E+000  0.3979361E+02  0.7546771E-02  0.1509736E+00
         -4   -1    0    0    0  501 -0.00000000000E+00  0.00000000000E+00  0.45268541164E+02  0.45268541164E+02  0.00000000000E+00 0.  1.
          4   -1    0    0  501    0  0.00000000000E+00 -0.00000000000E+00 -0.87452105235E+01  0.87452105235E+01  0.00000000000E+00 0. -1.
        -11    1    1    2    0    0 -0.88976317130E+01 -0.17766838364E+02  0.19655527447E+02  0.27949385588E+02  0.00000000000E+00 0. -1.
         11    1    1    2    0    0  0.88976317130E+01  0.17766838364E+02  0.16867803194E+02  0.26064366099E+02  0.00000000000E+00 0.  1.
<mgrwt>
<rscale>  0 0.39793614E+02</rscale>
<asrwt>0</asrwt>
<pdfrwt beam="2">  1        4 0.13454170E-02 0.39793614E+02</pdfrwt>
<pdfrwt beam="1">  1       -4 0.69643908E-02 0.39793614E+02</pdfrwt>
<totfact> 0.24821807E+05</totfact>
</mgrwt>
</event>
<event>
 4    1  0.2165211E+000  0.2047714E+02  0.7546771E-02  0.1736003E+00
          1   -1    0    0  501    0  0.00000000000E+00  0.00000000000E+00  0.12605751150E+02  0.12605751150E+02  0.00000000000E+00 0.  1.
         -1   -1    0    0    0  501 -0.00000000000E+00 -0.00000000000E+00 -0.83159114433E+01  0.83159114433E+01  0.00000000000E+00 0. -1.
        -13    1    1    2    0    0 -0.81758304526E+01 -0.60901649036E+01  0.11788796432E+01  0.10262751549E+02  0.00000000000E+00 0. -1.
         13    1    1    2    0    0  0.81758304526E+01  0.60901649036E+01  0.31109600638E+01  0.10658911045E+02  0.00000000000E+00 0.  1.
<mgrwt>
<rscale>  0 0.20477139E+02</rscale>
<asrwt>0</asrwt>
<pdfrwt beam="1">  1        1 0.19393463E-02 0.20477139E+02</pdfrwt>
<pdfrwt beam="2">  1       -1 0.12793710E-02 0.20477139E+02</pdfrwt>
<totfact> 0.36952428E+06</totfact>
</mgrwt>
</event>
<event>
 4    1  0.2165211E+000  0.2365750E+02  0.7546771E-02  0.1681069E+00
          2   -1    0    0  501    0  0.00000000000E+00  0.00000000000E+00  0.32078912590E+01  0.32078912590E+01  0.00000000000E+00 0.  1.
         -2   -1    0    0    0  501 -0.00000000000E+00 -0.00000000000E+00 -0.43617246515E+02  0.43617246515E+02  0.00000000000E+00 0. -1.
        -11    1    1    2    0    0 -0.10660036293E+02  0.17529575899E+01 -0.10669054077E+02  0.15183476182E+02  0.00000000000E+00 0.  1.
         11    1    1    2    0    0  0.10660036293E+02 -0.17529575899E+01 -0.29740301179E+02  0.31641661592E+02  0.00000000000E+00 0. -1.
<mgrwt>
<rscale>  0 0.23657505E+02</rscale>
<asrwt>0</asrwt>
<pdfrwt beam="1">  1        2 0.49352175E-03 0.23657505E+02</pdfrwt>
<pdfrwt beam="2">  1       -2 0.67103454E-02 0.23657505E+02</pdfrwt>
<totfact> 0.23816442E+06</totfact>
</mgrwt>
</event>
<event>
 4    1  0.2165211E+000  0.5707970E+02  0.7546771E-02  0.1410512E+00
          2   -1    0    0  501    0  0.00000000000E+00  0.00000000000E+00  0.19333348588E+03  0.19333348588E+03  0.00000000000E+00 0.  1.
         -2   -1    0    0    0  501 -0.00000000000E+00 -0.00000000000E+00 -0.42130471984E+01  0.42130471984E+01  0.00000000000E+00 0. -1.
        -11    1    1    2    0    0 -0.24764812298E+02  0.27958842150E+01  0.14269149868E+03  0.14485156780E+03  0.00000000000E+00 0.  1.
         11    1    1    2    0    0  0.24764812298E+02 -0.27958842150E+01  0.46428940003E+02  0.52694965286E+02  0.00000000000E+00 0. -1.
<mgrwt>
<rscale>  0 0.57079702E+02</rscale>
<asrwt>0</asrwt>
<pdfrwt beam="1">  1        2 0.29743606E-01 0.57079702E+02</pdfrwt>
<pdfrwt beam="2">  1       -2 0.64816126E-03 0.57079702E+02</pdfrwt>
<totfact> 0.52101759E+05</totfact>
</mgrwt>
</event>
<event>
 4    1  0.2165211E+000  0.6192484E+02  0.7546771E-02  0.1389927E+00
          2   -1    0    0  501    0  0.00000000000E+00  0.00000000000E+00  0.13331695664E+03  0.13331695664E+03  0.00000000000E+00 0. -1.
         -2   -1    0    0    0  501 -0.00000000000E+00 -0.00000000000E+00 -0.71909201659E+01  0.71909201659E+01  0.00000000000E+00 0.  1.
        -11    1    1    2    0    0 -0.15806541845E+02 -0.24433497610E+02  0.39068446178E+02  0.48715357510E+02  0.00000000000E+00 0. -1.
         11    1    1    2    0    0  0.15806541845E+02  0.24433497610E+02  0.87057590297E+02  0.91792519296E+02  0.00000000000E+00 0.  1.
<mgrwt>
<rscale>  0 0.61924845E+02</rscale>
<asrwt>0</asrwt>
<pdfrwt beam="1">  1        2 0.20510299E-01 0.61924845E+02</pdfrwt>
<pdfrwt beam="2">  1       -2 0.11062955E-02 0.61924845E+02</pdfrwt>
<totfact> 0.37540628E+05</totfact>
</mgrwt>
</event>
<event>
 4    1  0.2165211E+000  0.2297387E+02  0.7546771E-02  0.1691934E+00
         -1   -1    0    0    0  501 -0.00000000000E+00  0.00000000000E+00  0.15180221086E+02  0.15180221086E+02  0.00000000000E+00 0.  1.
          1   -1    0    0  501    0  0.00000000000E+00 -0.00000000000E+00 -0.86922109250E+01  0.86922109250E+01  0.00000000000E+00 0. -1.
        -13    1    1    2    0    0  0.91505153072E+01  0.49118985179E+01 -0.18562272743E+01  0.10550083276E+02  0.00000000000E+00 0. -1.
         13    1    1    2    0    0 -0.91505153072E+01 -0.49118985179E+01  0.83442374349E+01  0.13322348735E+02  0.00000000000E+00 0.  1.
<mgrwt>
<rscale>  0 0.22973871E+02</rscale>
<asrwt>0</asrwt>
<pdfrwt beam="2">  1        1 0.13372632E-02 0.22973871E+02</pdfrwt>
<pdfrwt beam="1">  1       -1 0.23354186E-02 0.22973871E+02</pdfrwt>
<totfact> 0.27894479E+06</totfact>
</mgrwt>
</event>
<event>
 4    1  0.2165211E+000  0.3428305E+02  0.7546771E-02  0.1555061E+00
          2   -1    0    0  501    0  0.00000000000E+00  0.00000000000E+00  0.50156840118E+02  0.50156840118E+02  0.00000000000E+00 0. -1.
         -2   -1    0    0    0  501 -0.00000000000E+00 -0.00000000000E+00 -0.58582620538E+01  0.58582620538E+01  0.00000000000E+00 0.  1.
        -13    1    1    2    0    0 -0.53580628168E-01  0.16807428000E+02  0.16647286135E+02  0.23656386928E+02  0.00000000000E+00 0.  1.
         13    1    1    2    0    0  0.53580628168E-01 -0.16807428000E+02  0.27651291929E+02  0.32358715243E+02  0.00000000000E+00 0. -1.
<mgrwt>
<rscale>  0 0.34283052E+02</rscale>
<asrwt>0</asrwt>
<pdfrwt beam="1">  1        2 0.77164367E-02 0.34283052E+02</pdfrwt>
<pdfrwt beam="2">  1       -2 0.90127112E-03 0.34283052E+02</pdfrwt>
<totfact> 0.13193409E+06</totfact>
</mgrwt>
</event>
<event>
 4    1  0.2165211E+000  0.3491846E+02  0.7546771E-02  0.1549326E+00
          1   -1    0    0  501    0  0.00000000000E+00  0.00000000000E+00  0.50449179067E+02  0.50449179067E+02  0.00000000000E+00 0. -1.
         -1   -1    0    0    0  501 -0.00000000000E+00 -0.00000000000E+00 -0.60422122655E+01  0.60422122655E+01  0.00000000000E+00 0.  1.
        -13    1    1    2    0    0 -0.13013991004E+02  0.96277418428E+01  0.32783418840E+02  0.36562411377E+02  0.00000000000E+00 0. -1.
         13    1    1    2    0    0  0.13013991004E+02 -0.96277418428E+01  0.11623547961E+02  0.19928979955E+02  0.00000000000E+00 0.  1.
<mgrwt>
<rscale>  0 0.34918456E+02</rscale>
<asrwt>0</asrwt>
<pdfrwt beam="1">  1        1 0.77614119E-02 0.34918456E+02</pdfrwt>
<pdfrwt beam="2">  1       -1 0.92957115E-03 0.34918456E+02</pdfrwt>
<totfact> 0.11409723E+06</totfact>
</mgrwt>
</event>
<event>
 4    1  0.2165211E+000  0.5695227E+02  0.7546771E-02  0.1411086E+00
         -2   -1    0    0    0  501 -0.00000000000E+00  0.00000000000E+00  0.10082179344E+03  0.10082179344E+03  0.00000000000E+00 0. -1.
          2   -1    0    0  501    0  0.00000000000E+00 -0.00000000000E+00 -0.80428072287E+01  0.80428072287E+01  0.00000000000E+00 0.  1.
        -13    1    1    2    0    0  0.11427441355E+02  0.14706857633E+02  0.52138552493E+01  0.19340691919E+02  0.00000000000E+00 0.  1.
         13    1    1    2    0    0 -0.11427441355E+02 -0.14706857633E+02  0.87565130960E+02  0.89523908747E+02  0.00000000000E+00 0. -1.
<mgrwt>
<rscale>  0 0.56952269E+02</rscale>
<asrwt>0</asrwt>
<pdfrwt beam="2">  1        2 0.12373550E-02 0.56952269E+02</pdfrwt>
<pdfrwt beam="1">  1       -2 0.15511044E-01 0.56952269E+02</pdfrwt>
<totfact> 0.25600362E+05</totfact>
</mgrwt>
</event>
<event>
 4    1  0.2165211E+000  0.2087020E+02  0.7546771E-02  0.1728557E+00
          2   -1    0    0  501    0  0.00000000000E+00  0.00000000000E+00  0.30297762299E+02  0.30297762299E+02  0.00000000000E+00 0.  1.
         -2   -1    0    0    0  501 -0.00000000000E+00 -0.00000000000E+00 -0.35940376603E+01  0.35940376603E+01  0.00000000000E+00 0. -1.
        -11    1    1    2    0    0  0.47208814273E+01 -0.89023744900E+01  0.89485465715E+01  0.13476478722E+02  0.00000000000E+00 0.  1.
         11    1    1    2    0    0 -0.47208814273E+01  0.89023744900E+01  0.17755178067E+02  0.20415321237E+02  0.00000000000E+00 0. -1.
<mgrwt>
<rscale>  0 0.20870199E+02</rscale>
<asrwt>0</asrwt>
<pdfrwt beam="1">  1        2 0.46611940E-02 0.20870199E+02</pdfrwt>
<pdfrwt beam="2">  1       -2 0.55292889E-03 0.20870199E+02</pdfrwt>
<totfact> 0.39448686E+06</totfact>
</mgrwt>
</event>
<event>
 4    1  0.2165211E+000  0.3147221E+02  0.7546771E-02  0.1582363E+00
         -2   -1    0    0    0  501 -0.00000000000E+00  0.00000000000E+00  0.27575339671E+02  0.27575339671E+02  0.00000000000E+00 0.  1.
          2   -1    0    0  501    0  0.00000000000E+00 -0.00000000000E+00 -0.89799447208E+01  0.89799447208E+01  0.00000000000E+00 0. -1.
        -13    1    1    2    0    0  0.10355449914E+01  0.14377045894E+02  0.19651542218E+01  0.14547633250E+02  0.00000000000E+00 0. -1.
         13    1    1    2    0    0 -0.10355449914E+01 -0.14377045894E+02  0.16630240728E+02  0.22007651141E+02  0.00000000000E+00 0.  1.
<mgrwt>
<rscale>  0 0.31472212E+02</rscale>
<asrwt>0</asrwt>
<pdfrwt beam="2">  1        2 0.13815300E-02 0.31472212E+02</pdfrwt>
<pdfrwt beam="1">  1       -2 0.42423599E-02 0.31472212E+02</pdfrwt>
<totfact> 0.13161829E+06</totfact>
</mgrwt>
</event>
<event>
 4    1  0.2165211E+000  0.3795371E+02  0.7546771E-02  0.1523834E+00
          2   -1    0    0  501    0  0.00000000000E+00  0.00000000000E+00  0.17997863509E+02  0.17997863509E+02  0.00000000000E+00 0. -1.
         -2   -1    0    0    0  501 -0.00000000000E+00 -0.00000000000E+00 -0.20009096982E+02  0.20009096982E+02  0.00000000000E+00 0.  1.
        -13    1    1    2    0    0  0.78932548453E+01  0.16960613784E+02 -0.41967953964E+01  0.19172349454E+02  0.00000000000E+00 0.  1.
         13    1    1    2    0    0 -0.78932548453E+01 -0.16960613784E+02  0.21855619232E+01  0.18834611036E+02  0.00000000000E+00 0. -1.
<mgrwt>
<rscale>  0 0.37953708E+02</rscale>
<asrwt>0</asrwt>
<pdfrwt beam="1">  1        2 0.27689021E-02 0.37953708E+02</pdfrwt>
<pdfrwt beam="2">  1       -2 0.30783226E-02 0.37953708E+02</pdfrwt>
<totfact> 0.88912055E+05</totfact>
</mgrwt>
</event>
<event>
 4    1  0.2165211E+000  0.2290130E+02  0.7546771E-02  0.1693115E+00
         -1   -1    0    0    0  501 -0.00000000000E+00  0.00000000000E+00  0.21786752928E+02  0.21786752928E+02  0.00000000000E+00 0.  1.
          1   -1    0    0  501    0  0.00000000000E+00 -0.00000000000E+00 -0.60182175180E+01  0.60182175180E+01  0.00000000000E+00 0. -1.
        -13    1    1    2    0    0  0.11357978196E+02  0.13256542578E+01  0.86090793134E+01  0.14313534662E+02  0.00000000000E+00 0. -1.
         13    1    1    2    0    0 -0.11357978196E+02 -0.13256542578E+01  0.71594560966E+01  0.13491435784E+02  0.00000000000E+00 0.  1.
<mgrwt>
<rscale>  0 0.22901303E+02</rscale>
<asrwt>0</asrwt>
<pdfrwt beam="2">  1        1 0.92587963E-03 0.22901303E+02</pdfrwt>
<pdfrwt beam="1">  1       -1 0.33518081E-02 0.22901303E+02</pdfrwt>
<totfact> 0.27555566E+06</totfact>
</mgrwt>
</event>
<event>
 4    1  0.2165211E+000  0.6504867E+02  0.7546771E-02  0.1377789E+00
         -1   -1    0    0    0  501 -0.00000000000E+00  0.00000000000E+00  0.48964688540E+02  0.48964688540E+02  0.00000000000E+00 0.  1.
          1   -1    0    0  501    0  0.00000000000E+00 -0.00000000000E+00 -0.21603986208E+02  0.21603986208E+02  0.00000000000E+00 0. -1.
        -13    1    1    2    0    0  0.14331526471E+02 -0.13537148813E+02 -0.14383466687E+02  0.24403507185E+02  0.00000000000E+00 0. -1.
         13    1    1    2    0    0 -0.14331526471E+02  0.13537148813E+02  0.41744169020E+02  0.46165167563E+02  0.00000000000E+00 0.  1.
<mgrwt>
<rscale>  0 0.65048673E+02</rscale>
<asrwt>0</asrwt>
<pdfrwt beam="2">  1        1 0.33236902E-02 0.65048673E+02</pdfrwt>
<pdfrwt beam="1">  1       -1 0.75330290E-02 0.65048673E+02</pdfrwt>
<totfact> 0.21341097E+05</totfact>
</mgrwt>
</event>
<event>
 4    1  0.2165211E+000  0.2777328E+02  0.7546771E-02  0.1624092E+00
         -3   -1    0    0    0  501 -0.00000000000E+00  0.00000000000E+00  0.13839888793E+01  0.13839888793E+01  0.00000000000E+00 0. -1.
          3   -1    0    0  501    0  0.00000000000E+00 -0.00000000000E+00 -0.13933545702E+03  0.13933545702E+03  0.00000000000E+00 0.  1.
        -13    1    1    2    0    0 -0.13624252246E+02 -0.23131192961E+01 -0.75900577443E+02  0.77148353361E+02  0.00000000000E+00 0.  1.
         13    1    1    2    0    0  0.13624252246E+02  0.23131192961E+01 -0.62050890700E+02  0.63571092541E+02  0.00000000000E+00 0. -1.
<mgrwt>
<rscale>  0 0.27773277E+02</rscale>
<asrwt>0</asrwt>
<pdfrwt beam="2">  1        3 0.21436226E-01 0.27773277E+02</pdfrwt>
<pdfrwt beam="1">  1       -3 0.21292135E-03 0.27773277E+02</pdfrwt>
<totfact> 0.62340940E+05</totfact>
</mgrwt>
</event>
<event>
 4    1  0.2165211E+000  0.3736513E+02  0.7546771E-02  0.1528548E+00
          2   -1    0    0  501    0  0.00000000000E+00  0.00000000000E+00  0.33125948816E+02  0.33125948816E+02  0.00000000000E+00 0.  1.
         -2   -1    0    0    0  501 -0.00000000000E+00 -0.00000000000E+00 -0.10536698998E+02  0.10536698998E+02  0.00000000000E+00 0. -1.
        -13    1    1    2    0    0  0.38735332759E+01 -0.18233452267E+02  0.98280674575E+01  0.21072587680E+02  0.00000000000E+00 0.  1.
         13    1    1    2    0    0 -0.38735332759E+01  0.18233452267E+02  0.12761182361E+02  0.22590060134E+02  0.00000000000E+00 0. -1.
<mgrwt>
<rscale>  0 0.37365126E+02</rscale>
<asrwt>0</asrwt>
<pdfrwt beam="1">  1        2 0.50962998E-02 0.37365126E+02</pdfrwt>
<pdfrwt beam="2">  1       -2 0.16210306E-02 0.37365126E+02</pdfrwt>
<totfact> 0.10014475E+06</totfact>
</mgrwt>
</event>
<event>
 4    1  0.2165211E+000  0.2990860E+02  0.7546771E-02  0.1599101E+00
          2   -1    0    0  501    0  0.00000000000E+00  0.00000000000E+00  0.83182733629E+01  0.83182733629E+01  0.00000000000E+00 0.  1.
         -2   -1    0    0    0  501 -0.00000000000E+00 -0.00000000000E+00 -0.26884317443E+02  0.26884317443E+02  0.00000000000E+00 0. -1.
        -11    1    1    2    0    0  0.10339978886E+02  0.87250334092E+01 -0.16781732985E+02  0.21556157666E+02  0.00000000000E+00 0. -1.
         11    1    1    2    0    0 -0.10339978886E+02 -0.87250334092E+01 -0.17843110951E+01  0.13646433140E+02  0.00000000000E+00 0.  1.
<mgrwt>
<rscale>  0 0.29908601E+02</rscale>
<asrwt>0</asrwt>
<pdfrwt beam="1">  1        2 0.12797344E-02 0.29908601E+02</pdfrwt>
<pdfrwt beam="2">  1       -2 0.41360489E-02 0.29908601E+02</pdfrwt>
<totfact> 0.14833202E+06</totfact>
</mgrwt>
</event>
<event>
 4    1  0.2165211E+000  0.2332361E+02  0.7546771E-02  0.1686318E+00
         -4   -1    0    0    0  501 -0.00000000000E+00  0.00000000000E+00  0.48071409910E+02  0.48071409910E+02  0.00000000000E+00 0. -1.
          4   -1    0    0  501    0  0.00000000000E+00 -0.00000000000E+00 -0.28290755852E+01  0.28290755852E+01  0.00000000000E+00 0.  1.
        -11    1    1    2    0    0 -0.93066008460E+01  0.69948426893E+01  0.24096494517E+02  0.26761571172E+02  0.00000000000E+00 0.  1.
         11    1    1    2    0    0  0.93066008460E+01 -0.69948426893E+01  0.21145839808E+02  0.24138914324E+02  0.00000000000E+00 0. -1.
<mgrwt>
<rscale>  0 0.23323606E+02</rscale>
<asrwt>0</asrwt>
<pdfrwt beam="2">  1        4 0.43524243E-03 0.23323606E+02</pdfrwt>
<pdfrwt beam="1">  1       -4 0.73956009E-02 0.23323606E+02</pdfrwt>
<totfact> 0.83551836E+05</totfact>
</mgrwt>
</event>
<event>
 4    1  0.2165211E+000  0.2455486E+02  0.7546771E-02  0.1667479E+00
         -2   -1    0    0    0  501 -0.00000000000E+00  0.00000000000E+00  0.96974791552E+01  0.96974791552E+01  0.00000000000E+00 0. -1.
          2   -1    0    0  501    0  0.00000000000E+00 -0.00000000000E+00 -0.15543756877E+02  0.15543756877E+02  0.00000000000E+00 0.  1.
        -11    1    1    2    0    0 -0.45868443853E+01 -0.10498887866E+02  0.16126232350E+01  0.11570062296E+02  0.00000000000E+00 0. -1.
         11    1    1    2    0    0  0.45868443853E+01  0.10498887866E+02 -0.74589009570E+01  0.13671173736E+02  0.00000000000E+00 0.  1.
<mgrwt>
<rscale>  0 0.24554858E+02</rscale>
<asrwt>0</asrwt>
<pdfrwt beam="2">  1        2 0.23913472E-02 0.24554858E+02</pdfrwt>
<pdfrwt beam="1">  1       -2 0.14919199E-02 0.24554858E+02</pdfrwt>
<totfact> 0.25404488E+06</totfact>
</mgrwt>
</event>
<event>
 4    1  0.2165211E+000  0.3407183E+02  0.7546771E-02  0.1557001E+00
         -2   -1    0    0    0  501 -0.00000000000E+00  0.00000000000E+00  0.45449154734E+02  0.45449154734E+02  0.00000000000E+00 0. -1.
          2   -1    0    0  501    0  0.00000000000E+00 -0.00000000000E+00 -0.63856501299E+01  0.63856501299E+01  0.00000000000E+00 0.  1.
        -11    1    1    2    0    0  0.45779697442E+01 -0.15698217213E+02  0.12262589662E+02  0.20439249885E+02  0.00000000000E+00 0.  1.
         11    1    1    2    0    0 -0.45779697442E+01  0.15698217213E+02  0.26800914942E+02  0.31395554978E+02  0.00000000000E+00 0. -1.
<mgrwt>
<rscale>  0 0.34071830E+02</rscale>
<asrwt>0</asrwt>
<pdfrwt beam="2">  1        2 0.98240774E-03 0.34071830E+02</pdfrwt>
<pdfrwt beam="1">  1       -2 0.69921774E-02 0.34071830E+02</pdfrwt>
<totfact> 0.10273576E+06</totfact>
</mgrwt>
</event>
<event>
 4    1  0.2165211E+000  0.2225657E+02  0.7546771E-02  0.1703852E+00
         -2   -1    0    0    0  501 -0.00000000000E+00  0.00000000000E+00  0.75672051832E+01  0.75672051832E+01  0.00000000000E+00 0.  1.
          2   -1    0    0  501    0  0.00000000000E+00 -0.00000000000E+00 -0.16365184541E+02  0.16365184541E+02  0.00000000000E+00 0. -1.
        -13    1    1    2    0    0  0.74138554295E+01 -0.79872881490E+01 -0.68217919389E+01  0.12856860797E+02  0.00000000000E+00 0. -1.
         13    1    1    2    0    0 -0.74138554295E+01  0.79872881490E+01 -0.19761874193E+01  0.11075528927E+02  0.00000000000E+00 0.  1.
<mgrwt>
<rscale>  0 0.22256568E+02</rscale>
<asrwt>0</asrwt>
<pdfrwt beam="2">  1        2 0.25177207E-02 0.22256568E+02</pdfrwt>
<pdfrwt beam="1">  1       -2 0.11641854E-02 0.22256568E+02</pdfrwt>
<totfact> 0.32086744E+06</totfact>
</mgrwt>
</event>
<event>
 4    1  0.2165211E+000  0.2089479E+02  0.7546771E-02  0.1728098E+00
          2   -1    0    0  501    0  0.00000000000E+00  0.00000000000E+00  0.11518487800E+02  0.11518487800E+02  0.00000000000E+00 0.  1.
         -2   -1    0    0    0  501 -0.00000000000E+00 -0.00000000000E+00 -0.94759023111E+01  0.94759023111E+01  0.00000000000E+00 0. -1.
        -11    1    1    2    0    0 -0.46448041840E+01 -0.93577464319E+01  0.11019309596E+01  0.10505040506E+02  0.00000000000E+00 0. -1.
         11    1    1    2    0    0  0.46448041840E+01  0.93577464319E+01  0.94065452913E+00  0.10489349605E+02  0.00000000000E+00 0.  1.
<mgrwt>
<rscale>  0 0.20894790E+02</rscale>
<asrwt>0</asrwt>
<pdfrwt beam="1">  1        2 0.17720750E-02 0.20894790E+02</pdfrwt>
<pdfrwt beam="2">  1       -2 0.14578311E-02 0.20894790E+02</pdfrwt>
<totfact> 0.36073837E+06</totfact>
</mgrwt>
</event>
<event>
 4    1  0.2165211E+000  0.3100758E+02  0.7546771E-02  0.1587211E+00
         -2   -1    0    0    0  501 -0.00000000000E+00  0.00000000000E+00  0.30799191481E+02  0.30799191481E+02  0.00000000000E+00 0.  1.
          2   -1    0    0  501    0  0.00000000000E+00 -0.00000000000E+00 -0.78043443932E+01  0.78043443932E+01  0.00000000000E+00 0. -1.
        -11    1    1    2    0    0 -0.10015221748E+01 -0.13913215703E+02  0.30732027302E+01  0.14283738758E+02  0.00000000000E+00 0. -1.
         11    1    1    2    0    0  0.10015221748E+01  0.13913215703E+02  0.19921644358E+02  0.24319797117E+02  0.00000000000E+00 0.  1.
<mgrwt>
<rscale>  0 0.31007580E+02</rscale>
<asrwt>0</asrwt>
<pdfrwt beam="2">  1        2 0.12006684E-02 0.31007580E+02</pdfrwt>
<pdfrwt beam="1">  1       -2 0.47383371E-02 0.31007580E+02</pdfrwt>
<totfact> 0.13445572E+06</totfact>
</mgrwt>
</event>
<event>
 4    1  0.2165211E+000  0.2245595E+02  0.7546771E-02  0.1700484E+00
         -1   -1    0    0    0  501 -0.00000000000E+00  0.00000000000E+00  0.24096846781E+01  0.24096846781E+01  0.00000000000E+00 0.  1.
          1   -1    0    0  501    0  0.00000000000E+00 -0.00000000000E+00 -0.52316988278E+02  0.52316988278E+02  0.00000000000E+00 0. -1.
        -11    1    1    2    0    0 -0.34200327632E+01  0.10148452087E+02 -0.33174824432E+02  0.34860531837E+02  0.00000000000E+00 0. -1.
         11    1    1    2    0    0  0.34200327632E+01 -0.10148452087E+02 -0.16732479168E+02  0.19866141119E+02  0.00000000000E+00 0.  1.
<mgrwt>
<rscale>  0 0.22455952E+02</rscale>
<asrwt>0</asrwt>
<pdfrwt beam="2">  1        1 0.80487681E-02 0.22455952E+02</pdfrwt>
<pdfrwt beam="1">  1       -1 0.37072069E-03 0.22455952E+02</pdfrwt>
<totfact> 0.32265626E+06</totfact>
</mgrwt>
</event>
<event>
 4    1  0.2165211E+000  0.3853228E+02  0.7546771E-02  0.1519299E+00
          1   -1    0    0  501    0  0.00000000000E+00  0.00000000000E+00  0.12137390993E+03  0.12137390993E+03  0.00000000000E+00 0.  1.
         -1   -1    0    0    0  501 -0.00000000000E+00 -0.00000000000E+00 -0.30581878596E+01  0.30581878596E+01  0.00000000000E+00 0. -1.
        -13    1    1    2    0    0 -0.18038221451E+02  0.33091155535E+01  0.40092290449E+02  0.44087633553E+02  0.00000000000E+00 0. -1.
         13    1    1    2    0    0  0.18038221451E+02 -0.33091155535E+01  0.78223431626E+02  0.80344464242E+02  0.00000000000E+00 0.  1.
<mgrwt>
<rscale>  0 0.38532283E+02</rscale>
<asrwt>0</asrwt>
<pdfrwt beam="1">  1        1 0.18672905E-01 0.38532283E+02</pdfrwt>
<pdfrwt beam="2">  1       -1 0.47049054E-03 0.38532283E+02</pdfrwt>
<totfact> 0.98910671E+05</totfact>
</mgrwt>
</event>
<event>
 4    1  0.2165211E+000  0.2197506E+02  0.7546771E-02  0.1708684E+00
         -1   -1    0    0    0  501 -0.00000000000E+00  0.00000000000E+00  0.38094802682E+01  0.38094802682E+01  0.00000000000E+00 0. -1.
          1   -1    0    0  501    0  0.00000000000E+00 -0.00000000000E+00 -0.31690900952E+02  0.31690900952E+02  0.00000000000E+00 0.  1.
        -11    1    1    2    0    0 -0.37808197365E+01 -0.10316057720E+02 -0.13777417709E+02  0.17621943239E+02  0.00000000000E+00 0. -1.
         11    1    1    2    0    0  0.37808197365E+01  0.10316057720E+02 -0.14104002974E+02  0.17878437981E+02  0.00000000000E+00 0.  1.
<mgrwt>
<rscale>  0 0.21975064E+02</rscale>
<asrwt>0</asrwt>
<pdfrwt beam="2">  1        1 0.48755234E-02 0.21975064E+02</pdfrwt>
<pdfrwt beam="1">  1       -1 0.58607387E-03 0.21975064E+02</pdfrwt>
<totfact> 0.32814918E+06</totfact>
</mgrwt>
</event>
<event>
 4    1  0.2165211E+000  0.3392081E+02  0.7546771E-02  0.1558398E+00
          2   -1    0    0  501    0  0.00000000000E+00  0.00000000000E+00  0.57174129058E+01  0.57174129058E+01  0.00000000000E+00 0. -1.
         -2   -1    0    0    0  501 -0.00000000000E+00 -0.00000000000E+00 -0.50312160428E+02  0.50312160428E+02  0.00000000000E+00 0.  1.
        -13    1    1    2    0    0 -0.10270800389E+02 -0.10924817252E+02 -0.92061349916E+01  0.17595280450E+02  0.00000000000E+00 0. -1.
         13    1    1    2    0    0  0.10270800389E+02  0.10924817252E+02 -0.35388612530E+02  0.38434292884E+02  0.00000000000E+00 0.  1.
<mgrwt>
<rscale>  0 0.33920813E+02</rscale>
<asrwt>0</asrwt>
<pdfrwt beam="1">  1        2 0.87960197E-03 0.33920813E+02</pdfrwt>
<pdfrwt beam="2">  1       -2 0.77403325E-02 0.33920813E+02</pdfrwt>
<totfact> 0.10224046E+06</totfact>
</mgrwt>
</event>
<event>
 4    1  0.2165211E+000  0.2361189E+02  0.7546771E-02  0.1681779E+00
          2   -1    0    0  501    0  0.00000000000E+00  0.00000000000E+00  0.69501947185E+02  0.69501947185E+02  0.00000000000E+00 0.  1.
         -2   -1    0    0    0  501 -0.00000000000E+00 -0.00000000000E+00 -0.20054168595E+01  0.20054168595E+01  0.00000000000E+00 0. -1.
        -11    1    1    2    0    0  0.91393896073E+01 -0.55362356009E+01  0.48951559914E+02  0.50104227017E+02  0.00000000000E+00 0.  1.
         11    1    1    2    0    0 -0.91393896073E+01  0.55362356009E+01  0.18544970412E+02  0.21403137027E+02  0.00000000000E+00 0. -1.
<mgrwt>
<rscale>  0 0.23611893E+02</rscale>
<asrwt>0</asrwt>
<pdfrwt beam="1">  1        2 0.10692605E-01 0.23611893E+02</pdfrwt>
<pdfrwt beam="2">  1       -2 0.30852572E-03 0.23611893E+02</pdfrwt>
<totfact> 0.33689595E+06</totfact>
</mgrwt>
</event>
<event>
 4    1  0.2165211E+000  0.2264685E+02  0.7546771E-02  0.1697299E+00
         -2   -1    0    0    0  501 -0.00000000000E+00  0.00000000000E+00  0.19469579802E+02  0.19469579802E+02  0.00000000000E+00 0.  1.
          2   -1    0    0  501    0  0.00000000000E+00 -0.00000000000E+00 -0.65856562389E+01  0.65856562389E+01  0.00000000000E+00 0. -1.
        -11    1    1    2    0    0  0.10856289731E+02  0.22623077309E-01  0.10145151000E+02  0.14858789565E+02  0.00000000000E+00 0.  1.
         11    1    1    2    0    0 -0.10856289731E+02 -0.22623077309E-01  0.27387725631E+01  0.11196446476E+02  0.00000000000E+00 0. -1.
<mgrwt>
<rscale>  0 0.22646851E+02</rscale>
<asrwt>0</asrwt>
<pdfrwt beam="2">  1        2 0.10131779E-02 0.22646851E+02</pdfrwt>
<pdfrwt beam="1">  1       -2 0.29953199E-02 0.22646851E+02</pdfrwt>
<totfact> 0.28580758E+06</totfact>
</mgrwt>
</event>
<event>
 4    1  0.2165211E+000  0.6680796E+02  0.7546771E-02  0.1371297E+00
          1   -1    0    0  501    0  0.00000000000E+00  0.00000000000E+00  0.16318989619E+03  0.16318989619E+03  0.00000000000E+00 0. -1.
         -1   -1    0    0    0  501 -0.00000000000E+00 -0.00000000000E+00 -0.68375919873E+01  0.68375919873E+01  0.00000000000E+00 0.  1.
        -11    1    1    2    0    0  0.18202497097E+01 -0.25886451364E+02  0.24645742547E+02  0.35788745422E+02  0.00000000000E+00 0.  1.
         11    1    1    2    0    0 -0.18202497097E+01  0.25886451364E+02  0.13170656165E+03  0.13423874275E+03  0.00000000000E+00 0. -1.
<mgrwt>
<rscale>  0 0.66807961E+02</rscale>
<asrwt>0</asrwt>
<pdfrwt beam="1">  1        1 0.25106135E-01 0.66807961E+02</pdfrwt>
<pdfrwt beam="2">  1       -1 0.10519374E-02 0.66807961E+02</pdfrwt>
<totfact> 0.25916808E+05</totfact>
</mgrwt>
</event>
<event>
 4    1  0.2165211E+000  0.4000935E+02  0.7546771E-02  0.1508143E+00
         -2   -1    0    0    0  501 -0.00000000000E+00  0.00000000000E+00  0.49762795379E+02  0.49762795379E+02  0.00000000000E+00 0. -1.
          2   -1    0    0  501    0  0.00000000000E+00 -0.00000000000E+00 -0.80418912320E+01  0.80418912320E+01  0.00000000000E+00 0.  1.
        -11    1    1    2    0    0  0.10276557925E+02 -0.16307070286E+01 -0.38245747063E+01  0.11085766545E+02  0.00000000000E+00 0.  1.
         11    1    1    2    0    0 -0.10276557925E+02  0.16307070286E+01  0.45545478854E+02  0.46718920067E+02  0.00000000000E+00 0. -1.
<mgrwt>
<rscale>  0 0.40009348E+02</rscale>
<asrwt>0</asrwt>
<pdfrwt beam="2">  1        2 0.12372141E-02 0.40009348E+02</pdfrwt>
<pdfrwt beam="1">  1       -2 0.76558144E-02 0.40009348E+02</pdfrwt>
<totfact> 0.69441596E+05</totfact>
</mgrwt>
</event>
<event>
 4    1  0.2165211E+000  0.5959180E+02  0.7546771E-02  0.1399553E+00
         -2   -1    0    0    0  501 -0.00000000000E+00  0.00000000000E+00  0.38310987235E+02  0.38310987235E+02  0.00000000000E+00 0.  1.
          2   -1    0    0  501    0  0.00000000000E+00 -0.00000000000E+00 -0.23173398755E+02  0.23173398755E+02  0.00000000000E+00 0. -1.
        -11    1    1    2    0    0 -0.16029414763E+02  0.12958961027E+02 -0.14630072143E+02  0.25276784199E+02  0.00000000000E+00 0. -1.
         11    1    1    2    0    0  0.16029414763E+02 -0.12958961027E+02  0.29767660622E+02  0.36207601791E+02  0.00000000000E+00 0.  1.
<mgrwt>
<rscale>  0 0.59591804E+02</rscale>
<asrwt>0</asrwt>
<pdfrwt beam="2">  1        2 0.35651383E-02 0.59591804E+02</pdfrwt>
<pdfrwt beam="1">  1       -2 0.58939980E-02 0.59591804E+02</pdfrwt>
<totfact> 0.28084211E+05</totfact>
</mgrwt>
</event>
<event>
 4    1  0.2165211E+000  0.9995182E+02  0.7546771E-02  0.1280397E+00
          2   -1    0    0  501    0  0.00000000000E+00  0.00000000000E+00  0.15282011904E+02  0.15282011904E+02  0.00000000000E+00 0. -1.
         -2   -1    0    0    0  501 -0.00000000000E+00 -0.00000000000E+00 -0.16343343797E+03  0.16343343797E+03  0.00000000000E+00 0.  1.
        -11    1    1    2    0    0 -0.21318167401E+02 -0.32472123010E+02 -0.13029704953E+03  0.13596405462E+03  0.00000000000E+00 0.  1.
         11    1    1    2    0    0  0.21318167401E+02  0.32472123010E+02 -0.17854376536E+02  0.42751395248E+02  0.00000000000E+00 0. -1.
<mgrwt>
<rscale>  0 0.99951823E+02</rscale>
<asrwt>0</asrwt>
<pdfrwt beam="1">  1        2 0.23510787E-02 0.99951823E+02</pdfrwt>
<pdfrwt beam="2">  1       -2 0.25143606E-01 0.99951823E+02</pdfrwt>
<totfact> 0.53564395E+04</totfact>
</mgrwt>
</event>
<event>
 4    1  0.2165211E+000  0.3424539E+02  0.7546771E-02  0.1555406E+00
          2   -1    0    0  501    0  0.00000000000E+00  0.00000000000E+00  0.88900409662E+02  0.88900409662E+02  0.00000000000E+00 0. -1.
         -2   -1    0    0    0  501 -0.00000000000E+00 -0.00000000000E+00 -0.32979231833E+01  0.32979231833E+01  0.00000000000E+00 0.  1.
        -11    1    1    2    0    0  0.29195991644E+01 -0.15340627092E+02  0.61710170829E+02  0.63655353920E+02  0.00000000000E+00 0. -1.
         11    1    1    2    0    0 -0.29195991644E+01  0.15340627092E+02  0.23892315650E+02  0.28542978926E+02  0.00000000000E+00 0.  1.
<mgrwt>
<rscale>  0 0.34245392E+02</rscale>
<asrwt>0</asrwt>
<pdfrwt beam="1">  1        2 0.13676984E-01 0.34245392E+02</pdfrwt>
<pdfrwt beam="2">  1       -2 0.50737286E-03 0.34245392E+02</pdfrwt>
<totfact> 0.14822882E+06</totfact>
</mgrwt>
</event>
<event>
 4    1  0.2165211E+000  0.2663710E+02  0.7546771E-02  0.1638543E+00
          2   -1    0    0  501    0  0.00000000000E+00  0.00000000000E+00  0.77397686483E+02  0.77397686483E+02  0.00000000000E+00 0.  1.
         -2   -1    0    0    0  501 -0.00000000000E+00 -0.00000000000E+00 -0.22918484648E+01  0.22918484648E+01  0.00000000000E+00 0. -1.
        -13    1    1    2    0    0 -0.32106153540E+01 -0.11917055287E+02  0.52529085382E+02  0.53959513236E+02  0.00000000000E+00 0.  1.
         13    1    1    2    0    0  0.32106153540E+01  0.11917055287E+02  0.22576752636E+02  0.25730021711E+02  0.00000000000E+00 0. -1.
<mgrwt>
<rscale>  0 0.26637100E+02</rscale>
<asrwt>0</asrwt>
<pdfrwt beam="1">  1        2 0.11907334E-01 0.26637100E+02</pdfrwt>
<pdfrwt beam="2">  1       -2 0.35259213E-03 0.26637100E+02</pdfrwt>
<totfact> 0.26067942E+06</totfact>
</mgrwt>
</event>
<event>
 4    1  0.2165211E+000  0.3914102E+02  0.7546771E-02  0.1514629E+00
         -1   -1    0    0    0  501 -0.00000000000E+00  0.00000000000E+00  0.74522823262E+01  0.74522823262E+01  0.00000000000E+00 0.  1.
          1   -1    0    0  501    0  0.00000000000E+00 -0.00000000000E+00 -0.51394310823E+02  0.51394310823E+02  0.00000000000E+00 0. -1.
        -13    1    1    2    0    0  0.40046458987E+01 -0.17257730597E+02 -0.34472136645E+02  0.38758156032E+02  0.00000000000E+00 0. -1.
         13    1    1    2    0    0 -0.40046458987E+01  0.17257730597E+02 -0.94698918520E+01  0.20088437117E+02  0.00000000000E+00 0.  1.
<mgrwt>
<rscale>  0 0.39141023E+02</rscale>
<asrwt>0</asrwt>
<pdfrwt beam="2">  1        1 0.79068170E-02 0.39141023E+02</pdfrwt>
<pdfrwt beam="1">  1       -1 0.11465050E-02 0.39141023E+02</pdfrwt>
<totfact> 0.86422604E+05</totfact>
</mgrwt>
</event>
<event>
 4    1  0.2165211E+000  0.2772811E+02  0.7546771E-02  0.1624650E+00
          2   -1    0    0  501    0  0.00000000000E+00  0.00000000000E+00  0.18447610588E+01  0.18447610588E+01  0.00000000000E+00 0.  1.
         -2   -1    0    0    0  501 -0.00000000000E+00 -0.00000000000E+00 -0.10419343836E+03  0.10419343836E+03  0.00000000000E+00 0. -1.
        -11    1    1    2    0    0 -0.14059229737E+01 -0.12802610329E+02 -0.31551783922E+02  0.34079297517E+02  0.00000000000E+00 0.  1.
         11    1    1    2    0    0  0.14059229737E+01  0.12802610329E+02 -0.70796893377E+02  0.71958901899E+02  0.00000000000E+00 0. -1.
<mgrwt>
<rscale>  0 0.27728108E+02</rscale>
<asrwt>0</asrwt>
<pdfrwt beam="1">  1        2 0.28380934E-03 0.27728108E+02</pdfrwt>
<pdfrwt beam="2">  1       -2 0.16029763E-01 0.27728108E+02</pdfrwt>
<totfact> 0.14159701E+06</totfact>
</mgrwt>
</event>
<event>
 4    1  0.2165211E+000  0.2689294E+02  0.7546771E-02  0.1635213E+00
         -3   -1    0    0    0  501 -0.00000000000E+00  0.00000000000E+00  0.25415868638E+02  0.25415868638E+02  0.00000000000E+00 0. -1.
          3   -1    0    0  501    0  0.00000000000E+00 -0.00000000000E+00 -0.71139653561E+01  0.71139653561E+01  0.00000000000E+00 0.  1.
        -11    1    1    2    0    0 -0.47461736269E+01  0.11670872347E+02  0.34681022126E+01  0.13067637828E+02  0.00000000000E+00 0.  1.
         11    1    1    2    0    0  0.47461736269E+01 -0.11670872347E+02  0.14833801070E+02  0.19462196166E+02  0.00000000000E+00 0. -1.
<mgrwt>
<rscale>  0 0.26892944E+02</rscale>
<asrwt>0</asrwt>
<pdfrwt beam="2">  1        3 0.10944562E-02 0.26892944E+02</pdfrwt>
<pdfrwt beam="1">  1       -3 0.39101336E-02 0.26892944E+02</pdfrwt>
<totfact> 0.88668955E+05</totfact>
</mgrwt>
</event>
<event>
 4    1  0.2165211E+000  0.2721496E+02  0.7546771E-02  0.1631085E+00
         -2   -1    0    0    0  501 -0.00000000000E+00  0.00000000000E+00  0.90714199253E+01  0.90714199253E+01  0.00000000000E+00 0.  1.
          2   -1    0    0  501    0  0.00000000000E+00 -0.00000000000E+00 -0.20411741746E+02  0.20411741746E+02  0.00000000000E+00 0. -1.
        -13    1    1    2    0    0  0.65443327465E+00 -0.11231294789E+02 -0.13962748266E+02  0.17931218717E+02  0.00000000000E+00 0. -1.
         13    1    1    2    0    0 -0.65443327465E+00  0.11231294789E+02  0.26224264451E+01  0.11551942954E+02  0.00000000000E+00 0.  1.
<mgrwt>
<rscale>  0 0.27214958E+02</rscale>
<asrwt>0</asrwt>
<pdfrwt beam="2">  1        2 0.31402680E-02 0.27214958E+02</pdfrwt>
<pdfrwt beam="1">  1       -2 0.13956031E-02 0.27214958E+02</pdfrwt>
<totfact> 0.20434988E+06</totfact>
</mgrwt>
</event>
<event>
 4    1  0.2165211E+000  0.6679028E+02  0.7546771E-02  0.1371361E+00
          2   -1    0    0  501    0  0.00000000000E+00  0.00000000000E+00  0.87002130912E+02  0.87002130912E+02  0.00000000000E+00 0. -1.
         -2   -1    0    0    0  501 -0.00000000000E+00 -0.00000000000E+00 -0.12818485259E+02  0.12818485259E+02  0.00000000000E+00 0.  1.
        -13    1    1    2    0    0  0.13580147393E+02  0.15009052245E+02  0.76789842544E+02  0.79412668828E+02  0.00000000000E+00 0. -1.
         13    1    1    2    0    0 -0.13580147393E+02 -0.15009052245E+02 -0.26061968909E+01  0.20407947343E+02  0.00000000000E+00 0.  1.
<mgrwt>
<rscale>  0 0.66790285E+02</rscale>
<asrwt>0</asrwt>
<pdfrwt beam="1">  1        2 0.13384943E-01 0.66790285E+02</pdfrwt>
<pdfrwt beam="2">  1       -2 0.19720747E-02 0.66790285E+02</pdfrwt>
<totfact> 0.27301979E+05</totfact>
</mgrwt>
</event>
<event>
 4    1  0.2165211E+000  0.4261468E+02  0.7546771E-02  0.1489807E+00
         -2   -1    0    0    0  501 -0.00000000000E+00  0.00000000000E+00  0.52439236317E+01  0.52439236317E+01  0.00000000000E+00 0. -1.
          2   -1    0    0  501    0  0.00000000000E+00 -0.00000000000E+00 -0.86576903545E+02  0.86576903545E+02  0.00000000000E+00 0.  1.
        -11    1    1    2    0    0 -0.15046256020E+02  0.24374301807E+01 -0.72746700509E+02  0.74326397203E+02  0.00000000000E+00 0.  1.
         11    1    1    2    0    0  0.15046256020E+02 -0.24374301807E+01 -0.85862794042E+01  0.17494429974E+02  0.00000000000E+00 0. -1.
<mgrwt>
<rscale>  0 0.42614677E+02</rscale>
<asrwt>0</asrwt>
<pdfrwt beam="2">  1        2 0.13319523E-01 0.42614677E+02</pdfrwt>
<pdfrwt beam="1">  1       -2 0.80675750E-03 0.42614677E+02</pdfrwt>
<totfact> 0.86274499E+05</totfact>
</mgrwt>
</event>
<event>
 4    1  0.2165211E+000  0.2236356E+02  0.7546771E-02  0.1702039E+00
          2   -1    0    0  501    0  0.00000000000E+00  0.00000000000E+00  0.86600521509E+01  0.86600521509E+01  0.00000000000E+00 0. -1.
         -2   -1    0    0    0  501 -0.00000000000E+00 -0.00000000000E+00 -0.14437807340E+02  0.14437807340E+02  0.00000000000E+00 0.  1.
        -13    1    1    2    0    0  0.60393406376E+01 -0.81856690276E+01  0.19061186670E+01  0.10349497627E+02  0.00000000000E+00 0.  1.
         13    1    1    2    0    0 -0.60393406376E+01  0.81856690276E+01 -0.76838738558E+01  0.12748361863E+02  0.00000000000E+00 0. -1.
<mgrwt>
<rscale>  0 0.22363556E+02</rscale>
<asrwt>0</asrwt>
<pdfrwt beam="1">  1        2 0.13323157E-02 0.22363556E+02</pdfrwt>
<pdfrwt beam="2">  1       -2 0.22212011E-02 0.22363556E+02</pdfrwt>
<totfact> 0.30125607E+06</totfact>
</mgrwt>
</event>
<event>
 4    1  0.2165211E+000  0.3800233E+02  0.7546771E-02  0.1523449E+00
         -2   -1    0    0    0  501 -0.00000000000E+00  0.00000000000E+00  0.13330132752E+02  0.13330132752E+02  0.00000000000E+00 0. -1.
          2   -1    0    0  501    0  0.00000000000E+00 -0.00000000000E+00 -0.27084824697E+02  0.27084824697E+02  0.00000000000E+00 0.  1.
        -13    1    1    2    0    0  0.11156122389E+02  0.84140198363E+01 -0.20570717935E+02  0.24867835308E+02  0.00000000000E+00 0.  1.
         13    1    1    2    0    0 -0.11156122389E+02 -0.84140198363E+01  0.68160259894E+01  0.15547122141E+02  0.00000000000E+00 0. -1.
<mgrwt>
<rscale>  0 0.38002332E+02</rscale>
<asrwt>0</asrwt>
<pdfrwt beam="2">  1        2 0.41668961E-02 0.38002332E+02</pdfrwt>
<pdfrwt beam="1">  1       -2 0.20507897E-02 0.38002332E+02</pdfrwt>
<totfact> 0.93380258E+05</totfact>
</mgrwt>
</event>
<event>
 4    1  0.2165211E+000  0.2811603E+02  0.7546771E-02  0.1619898E+00
         -2   -1    0    0    0  501 -0.00000000000E+00  0.00000000000E+00  0.12722903315E+02  0.12722903315E+02  0.00000000000E+00 0. -1.
          2   -1    0    0  501    0  0.00000000000E+00 -0.00000000000E+00 -0.15533229030E+02  0.15533229030E+02  0.00000000000E+00 0.  1.
        -13    1    1    2    0    0 -0.13489786787E+02 -0.38320538035E+01 -0.23943373931E+01  0.14226448449E+02  0.00000000000E+00 0.  1.
         13    1    1    2    0    0  0.13489786787E+02  0.38320538035E+01 -0.41598832153E+00  0.14029683895E+02  0.00000000000E+00 0. -1.
<mgrwt>
<rscale>  0 0.28116029E+02</rscale>
<asrwt>0</asrwt>
<pdfrwt beam="2">  1        2 0.23897275E-02 0.28116029E+02</pdfrwt>
<pdfrwt beam="1">  1       -2 0.19573697E-02 0.28116029E+02</pdfrwt>
<totfact> 0.18391789E+06</totfact>
</mgrwt>
</event>
<event>
 4    1  0.2165211E+000  0.2634276E+02  0.7546771E-02  0.1642432E+00
         -1   -1    0    0    0  501 -0.00000000000E+00  0.00000000000E+00  0.58508825448E+02  0.58508825448E+02  0.00000000000E+00 0. -1.
          1   -1    0    0  501    0  0.00000000000E+00 -0.00000000000E+00 -0.29651123510E+01  0.29651123510E+01  0.00000000000E+00 0.  1.
        -13    1    1    2    0    0 -0.11913107698E+02  0.18695001943E+01  0.15408508805E+02  0.19566279912E+02  0.00000000000E+00 0. -1.
         13    1    1    2    0    0  0.11913107698E+02 -0.18695001943E+01  0.40135204291E+02  0.41907657886E+02  0.00000000000E+00 0.  1.
<mgrwt>
<rscale>  0 0.26342759E+02</rscale>
<asrwt>0</asrwt>
<pdfrwt beam="2">  1        1 0.45617118E-03 0.26342759E+02</pdfrwt>
<pdfrwt beam="1">  1       -1 0.90013569E-02 0.26342759E+02</pdfrwt>
<totfact> 0.18493420E+06</totfact>
</mgrwt>
</event>
<event>
 4    1  0.2165211E+000  0.3432205E+02  0.7546771E-02  0.1554705E+00
          2   -1    0    0  501    0  0.00000000000E+00  0.00000000000E+00  0.61079023005E+01  0.61079023005E+01  0.00000000000E+00 0. -1.
         -2   -1    0    0    0  501 -0.00000000000E+00 -0.00000000000E+00 -0.48216354385E+02  0.48216354385E+02  0.00000000000E+00 0.  1.
        -11    1    1    2    0    0  0.14128483451E+01 -0.16072396472E+02 -0.30308105451E+02  0.34335103391E+02  0.00000000000E+00 0. -1.
         11    1    1    2    0    0 -0.14128483451E+01  0.16072396472E+02 -0.11800346633E+02  0.19989153295E+02  0.00000000000E+00 0.  1.
<mgrwt>
<rscale>  0 0.34322050E+02</rscale>
<asrwt>0</asrwt>
<pdfrwt beam="1">  1        2 0.93967734E-03 0.34322050E+02</pdfrwt>
<pdfrwt beam="2">  1       -2 0.74179002E-02 0.34322050E+02</pdfrwt>
<totfact> 0.10011653E+06</totfact>
</mgrwt>
</event>
<event>
 4    1  0.2165211E+000  0.4845303E+02  0.7546771E-02  0.1453869E+00
          2   -1    0    0  501    0  0.00000000000E+00  0.00000000000E+00  0.41058755199E+02  0.41058755199E+02  0.00000000000E+00 0. -1.
         -2   -1    0    0    0  501 -0.00000000000E+00 -0.00000000000E+00 -0.14294735261E+02  0.14294735261E+02  0.00000000000E+00 0.  1.
        -11    1    1    2    0    0 -0.14104147979E+02  0.32122669964E+01  0.35583653958E+02  0.38411483680E+02  0.00000000000E+00 0. -1.
         11    1    1    2    0    0  0.14104147979E+02 -0.32122669964E+01 -0.88196340201E+01  0.16942006780E+02  0.00000000000E+00 0.  1.
<mgrwt>
<rscale>  0 0.48453030E+02</rscale>
<asrwt>0</asrwt>
<pdfrwt beam="1">  1        2 0.63167316E-02 0.48453030E+02</pdfrwt>
<pdfrwt beam="2">  1       -2 0.21991900E-02 0.48453030E+02</pdfrwt>
<totfact> 0.53665190E+05</totfact>
</mgrwt>
</event>
<event>
 4    1  0.2165211E+000  0.5768382E+02  0.7546771E-02  0.1407817E+00
          2   -1    0    0  501    0  0.00000000000E+00  0.00000000000E+00  0.10293725102E+03  0.10293725102E+03  0.00000000000E+00 0.  1.
         -2   -1    0    0    0  501 -0.00000000000E+00 -0.00000000000E+00 -0.80811930700E+01  0.80811930700E+01  0.00000000000E+00 0. -1.
        -13    1    1    2    0    0 -0.26087682408E+02  0.12258054457E+02  0.49380080191E+02  0.57177088000E+02  0.00000000000E+00 0. -1.
         13    1    1    2    0    0  0.26087682408E+02 -0.12258054457E+02  0.45475977763E+02  0.53841356094E+02  0.00000000000E+00 0.  1.
<mgrwt>
<rscale>  0 0.57683821E+02</rscale>
<asrwt>0</asrwt>
<pdfrwt beam="1">  1        2 0.15836499E-01 0.57683821E+02</pdfrwt>
<pdfrwt beam="2">  1       -2 0.12432605E-02 0.57683821E+02</pdfrwt>
<totfact> 0.41865311E+05</totfact>
</mgrwt>
</event>
<event>
 4    1  0.2165211E+000  0.3814140E+02  0.7546771E-02  0.1522352E+00
         -2   -1    0    0    0  501 -0.00000000000E+00  0.00000000000E+00  0.21358071914E+01  0.21358071914E+01  0.00000000000E+00 0. -1.
          2   -1    0    0  501    0  0.00000000000E+00 -0.00000000000E+00 -0.17028295203E+03  0.17028295203E+03  0.00000000000E+00 0.  1.
        -11    1    1    2    0    0  0.17237200691E+02  0.81586268803E+01 -0.84459097487E+02  0.86585353430E+02  0.00000000000E+00 0. -1.
         11    1    1    2    0    0 -0.17237200691E+02 -0.81586268803E+01 -0.83688047350E+02  0.85833405790E+02  0.00000000000E+00 0.  1.
<mgrwt>
<rscale>  0 0.38141398E+02</rscale>
<asrwt>0</asrwt>
<pdfrwt beam="2">  1        2 0.26197372E-01 0.38141398E+02</pdfrwt>
<pdfrwt beam="1">  1       -2 0.32858578E-03 0.38141398E+02</pdfrwt>
<totfact> 0.13622550E+06</totfact>
</mgrwt>
</event>
<event>
 4    1  0.2165211E+000  0.2022765E+02  0.7546771E-02  0.1740838E+00
         -2   -1    0    0    0  501 -0.00000000000E+00  0.00000000000E+00  0.64637968953E+01  0.64637968953E+01  0.00000000000E+00 0. -1.
          2   -1    0    0  501    0  0.00000000000E+00 -0.00000000000E+00 -0.15824985741E+02  0.15824985741E+02  0.00000000000E+00 0.  1.
        -11    1    1    2    0    0 -0.96782044667E+01  0.25726454671E+01 -0.62402150180E+01  0.11799424980E+02  0.00000000000E+00 0.  1.
         11    1    1    2    0    0  0.96782044667E+01 -0.25726454671E+01 -0.31209738276E+01  0.10489357656E+02  0.00000000000E+00 0. -1.
<mgrwt>
<rscale>  0 0.20227654E+02</rscale>
<asrwt>0</asrwt>
<pdfrwt beam="2">  1        2 0.24346132E-02 0.20227654E+02</pdfrwt>
<pdfrwt beam="1">  1       -2 0.99443028E-03 0.20227654E+02</pdfrwt>
<totfact> 0.39829627E+06</totfact>
</mgrwt>
</event>
<event>
 4    1  0.2165211E+000  0.4550855E+02  0.7546771E-02  0.1471192E+00
         -1   -1    0    0    0  501 -0.00000000000E+00  0.00000000000E+00  0.87075191146E+02  0.87075191146E+02  0.00000000000E+00 0. -1.
          1   -1    0    0  501    0  0.00000000000E+00 -0.00000000000E+00 -0.59460901258E+01  0.59460901258E+01  0.00000000000E+00 0.  1.
        -13    1    1    2    0    0 -0.18409263882E+02 -0.85611316634E+00  0.67844864809E+02  0.70303339944E+02  0.00000000000E+00 0. -1.
         13    1    1    2    0    0  0.18409263882E+02  0.85611316634E+00  0.13284236212E+02  0.22717941328E+02  0.00000000000E+00 0.  1.
<mgrwt>
<rscale>  0 0.45508546E+02</rscale>
<asrwt>0</asrwt>
<pdfrwt beam="2">  1        1 0.91478316E-03 0.45508546E+02</pdfrwt>
<pdfrwt beam="1">  1       -1 0.13396182E-01 0.45508546E+02</pdfrwt>
<totfact> 0.47958192E+05</totfact>
</mgrwt>
</event>
<event>
 4    1  0.2165211E+000  0.2720816E+02  0.7546771E-02  0.1631171E+00
          4   -1    0    0  501    0  0.00000000000E+00  0.00000000000E+00  0.64254218321E+02  0.64254218321E+02  0.00000000000E+00 0. -1.
         -4   -1    0    0    0  501 -0.00000000000E+00 -0.00000000000E+00 -0.28802929265E+01  0.28802929265E+01  0.00000000000E+00 0.  1.
        -13    1    1    2    0    0  0.12106731008E+02 -0.23609604535E+01  0.44844976301E+02  0.46510417859E+02  0.00000000000E+00 0. -1.
         13    1    1    2    0    0 -0.12106731008E+02  0.23609604535E+01  0.16528949093E+02  0.20624093388E+02  0.00000000000E+00 0.  1.
<mgrwt>
<rscale>  0 0.27208158E+02</rscale>
<asrwt>0</asrwt>
<pdfrwt beam="1">  1        4 0.98852633E-02 0.27208158E+02</pdfrwt>
<pdfrwt beam="2">  1       -4 0.44312204E-03 0.27208158E+02</pdfrwt>
<totfact> 0.56809486E+05</totfact>
</mgrwt>
</event>
<event>
 4    1  0.2165211E+000  0.3908875E+02  0.7546771E-02  0.1515026E+00
         -2   -1    0    0    0  501 -0.00000000000E+00  0.00000000000E+00  0.16163952905E+02  0.16163952905E+02  0.00000000000E+00 0.  1.
          2   -1    0    0  501    0  0.00000000000E+00 -0.00000000000E+00 -0.23631761795E+02  0.23631761795E+02  0.00000000000E+00 0. -1.
        -11    1    1    2    0    0  0.55240677854E+01  0.16820256053E+02  0.46951067265E+01  0.18316123110E+02  0.00000000000E+00 0.  1.
         11    1    1    2    0    0 -0.55240677854E+01 -0.16820256053E+02 -0.12162915616E+02  0.21479591590E+02  0.00000000000E+00 0. -1.
<mgrwt>
<rscale>  0 0.39088755E+02</rscale>
<asrwt>0</asrwt>
<pdfrwt beam="2">  1        2 0.36356557E-02 0.39088755E+02</pdfrwt>
<pdfrwt beam="1">  1       -2 0.24867620E-02 0.39088755E+02</pdfrwt>
<totfact> 0.85425875E+05</totfact>
</mgrwt>
</event>
<event>
 4    1  0.2165211E+000  0.2226770E+02  0.7546771E-02  0.1703663E+00
         -1   -1    0    0    0  501 -0.00000000000E+00  0.00000000000E+00  0.36419669412E+02  0.36419669412E+02  0.00000000000E+00 0.  1.
          1   -1    0    0  501    0  0.00000000000E+00 -0.00000000000E+00 -0.34037264896E+01  0.34037264896E+01  0.00000000000E+00 0. -1.
        -13    1    1    2    0    0 -0.79186144109E+01 -0.71221831882E+01  0.10703913885E+02  0.15099792052E+02  0.00000000000E+00 0. -1.
         13    1    1    2    0    0  0.79186144109E+01  0.71221831882E+01  0.22312029037E+02  0.24723603850E+02  0.00000000000E+00 0.  1.
<mgrwt>
<rscale>  0 0.22267698E+02</rscale>
<asrwt>0</asrwt>
<pdfrwt beam="2">  1        1 0.52365026E-03 0.22267698E+02</pdfrwt>
<pdfrwt beam="1">  1       -1 0.56030258E-02 0.22267698E+02</pdfrwt>
<totfact> 0.28323559E+06</totfact>
</mgrwt>
</event>
<event>
 4    1  0.2165211E+000  0.2633710E+02  0.7546771E-02  0.1642507E+00
         -4   -1    0    0    0  501 -0.00000000000E+00  0.00000000000E+00  0.10882483276E+02  0.10882483276E+02  0.00000000000E+00 0. -1.
          4   -1    0    0  501    0  0.00000000000E+00 -0.00000000000E+00 -0.15934851423E+02  0.15934851423E+02  0.00000000000E+00 0.  1.
        -13    1    1    2    0    0  0.87263899418E+00  0.10935066687E+02  0.48918147747E+01  0.12011121265E+02  0.00000000000E+00 0. -1.
         13    1    1    2    0    0 -0.87263899418E+00 -0.10935066687E+02 -0.99441829211E+01  0.14806213433E+02  0.00000000000E+00 0.  1.
<mgrwt>
<rscale>  0 0.26337103E+02</rscale>
<asrwt>0</asrwt>
<pdfrwt beam="2">  1        4 0.24515156E-02 0.26337103E+02</pdfrwt>
<pdfrwt beam="1">  1       -4 0.16742282E-02 0.26337103E+02</pdfrwt>
<totfact> 0.70430295E+05</totfact>
</mgrwt>
</event>
<event>
 4    1  0.2165211E+000  0.2700060E+02  0.7546771E-02  0.1633825E+00
          2   -1    0    0  501    0  0.00000000000E+00  0.00000000000E+00  0.83618459272E+01  0.83618459272E+01  0.00000000000E+00 0. -1.
         -2   -1    0    0    0  501 -0.00000000000E+00 -0.00000000000E+00 -0.21796394772E+02  0.21796394772E+02  0.00000000000E+00 0.  1.
        -13    1    1    2    0    0 -0.13219926258E+02 -0.13991582054E+01 -0.40897170510E+01  0.13908626082E+02  0.00000000000E+00 0. -1.
         13    1    1    2    0    0  0.13219926258E+02  0.13991582054E+01 -0.93448317941E+01  0.16249614617E+02  0.00000000000E+00 0.  1.
<mgrwt>
<rscale>  0 0.27000600E+02</rscale>
<asrwt>0</asrwt>
<pdfrwt beam="1">  1        2 0.12864379E-02 0.27000600E+02</pdfrwt>
<pdfrwt beam="2">  1       -2 0.33532914E-02 0.27000600E+02</pdfrwt>
<totfact> 0.19115183E+06</totfact>
</mgrwt>
</event>
<event>
 4    1  0.2165211E+000  0.2896363E+02  0.7546771E-02  0.1609835E+00
         -2   -1    0    0    0  501 -0.00000000000E+00  0.00000000000E+00  0.21935892461E+02  0.21935892461E+02  0.00000000000E+00 0. -1.
          2   -1    0    0  501    0  0.00000000000E+00 -0.00000000000E+00 -0.95607236350E+01  0.95607236350E+01  0.00000000000E+00 0.  1.
        -13    1    1    2    0    0  0.12943411200E+02 -0.37969219590E+01  0.45653760348E+00  0.13496552761E+02  0.00000000000E+00 0.  1.
         13    1    1    2    0    0 -0.12943411200E+02  0.37969219590E+01  0.11918631222E+02  0.18000063335E+02  0.00000000000E+00 0. -1.
<mgrwt>
<rscale>  0 0.28963633E+02</rscale>
<asrwt>0</asrwt>
<pdfrwt beam="2">  1        2 0.14708806E-02 0.28963633E+02</pdfrwt>
<pdfrwt beam="1">  1       -2 0.33747527E-02 0.28963633E+02</pdfrwt>
<totfact> 0.16305414E+06</totfact>
</mgrwt>
</event>
<event>
 4    1  0.2165211E+000  0.2861647E+02  0.7546771E-02  0.1613905E+00
          4   -1    0    0  501    0  0.00000000000E+00  0.00000000000E+00  0.11213894386E+02  0.11213894386E+02  0.00000000000E+00 0. -1.
         -4   -1    0    0    0  501 -0.00000000000E+00 -0.00000000000E+00 -0.18256420633E+02  0.18256420633E+02  0.00000000000E+00 0.  1.
        -11    1    1    2    0    0  0.10952456731E+02 -0.80595734245E+01  0.10626757741E+01  0.13639732843E+02  0.00000000000E+00 0. -1.
         11    1    1    2    0    0 -0.10952456731E+02  0.80595734245E+01 -0.81052020211E+01  0.15830582176E+02  0.00000000000E+00 0.  1.
<mgrwt>
<rscale>  0 0.28616469E+02</rscale>
<asrwt>0</asrwt>
<pdfrwt beam="1">  1        4 0.17252145E-02 0.28616469E+02</pdfrwt>
<pdfrwt beam="2">  1       -4 0.28086801E-02 0.28616469E+02</pdfrwt>
<totfact> 0.57981081E+05</totfact>
</mgrwt>
</event>
<event>
 4    1  0.2165211E+000  0.6851674E+02  0.7546771E-02  0.1365211E+00
          2   -1    0    0  501    0  0.00000000000E+00  0.00000000000E+00  0.11847657265E+03  0.11847657265E+03  0.00000000000E+00 0. -1.
         -2   -1    0    0    0  501 -0.00000000000E+00 -0.00000000000E+00 -0.99060581004E+01  0.99060581004E+01  0.00000000000E+00 0.  1.
        -11    1    1    2    0    0 -0.28934129366E+02 -0.13327505780E+02  0.77899567507E+02  0.84161445272E+02  0.00000000000E+00 0. -1.
         11    1    1    2    0    0  0.28934129366E+02  0.13327505780E+02  0.30670947037E+02  0.44221185473E+02  0.00000000000E+00 0.  1.
<mgrwt>
<rscale>  0 0.68516737E+02</rscale>
<asrwt>0</asrwt>
<pdfrwt beam="1">  1        2 0.18227164E-01 0.68516737E+02</pdfrwt>
<pdfrwt beam="2">  1       -2 0.15240090E-02 0.68516737E+02</pdfrwt>
<totfact> 0.27825588E+05</totfact>
</mgrwt>
</event>
<event>
 4    1  0.2165211E+000  0.5796952E+02  0.7546771E-02  0.1406556E+00
          2   -1    0    0  501    0  0.00000000000E+00  0.00000000000E+00  0.35505011308E+02  0.35505011308E+02  0.00000000000E+00 0. -1.
         -2   -1    0    0    0  501 -0.00000000000E+00 -0.00000000000E+00 -0.23661909409E+02  0.23661909409E+02  0.00000000000E+00 0.  1.
        -11    1    1    2    0    0  0.14247710124E+02  0.25240188564E+02  0.61542931649E+01  0.29630047028E+02  0.00000000000E+00 0. -1.
         11    1    1    2    0    0 -0.14247710124E+02 -0.25240188564E+02  0.56888087345E+01  0.29536873689E+02  0.00000000000E+00 0.  1.
<mgrwt>
<rscale>  0 0.57969522E+02</rscale>
<asrwt>0</asrwt>
<pdfrwt beam="1">  1        2 0.54623094E-02 0.57969522E+02</pdfrwt>
<pdfrwt beam="2">  1       -2 0.36402938E-02 0.57969522E+02</pdfrwt>
<totfact> 0.32687480E+05</totfact>
</mgrwt>
</event>
<event>
 4    1  0.2165211E+000  0.2067285E+02  0.7546771E-02  0.1732269E+00
          2   -1    0    0  501    0  0.00000000000E+00  0.00000000000E+00  0.89511810943E+02  0.89511810943E+02  0.00000000000E+00 0.  1.
         -2   -1    0    0    0  501 -0.00000000000E+00 -0.00000000000E+00 -0.11936044508E+01  0.11936044508E+01  0.00000000000E+00 0. -1.
        -11    1    1    2    0    0 -0.70962249874E+00  0.10218555144E+02  0.50237653853E+02  0.51271281416E+02  0.00000000000E+00 0.  1.
         11    1    1    2    0    0  0.70962249874E+00 -0.10218555144E+02  0.38080552639E+02  0.39434133978E+02  0.00000000000E+00 0. -1.
<mgrwt>
<rscale>  0 0.20672851E+02</rscale>
<asrwt>0</asrwt>
<pdfrwt beam="1">  1        2 0.13771043E-01 0.20672851E+02</pdfrwt>
<pdfrwt beam="2">  1       -2 0.18363152E-03 0.20672851E+02</pdfrwt>
<totfact> 0.47843589E+06</totfact>
</mgrwt>
</event>
<event>
 4    1  0.2165211E+000  0.4300861E+02  0.7546771E-02  0.1487171E+00
          2   -1    0    0  501    0  0.00000000000E+00  0.00000000000E+00  0.33859027275E+02  0.33859027275E+02  0.00000000000E+00 0.  1.
         -2   -1    0    0    0  501 -0.00000000000E+00 -0.00000000000E+00 -0.13657659524E+02  0.13657659524E+02  0.00000000000E+00 0. -1.
        -11    1    1    2    0    0  0.32901459418E+01 -0.12880198522E+02  0.28775394044E+02  0.31697758228E+02  0.00000000000E+00 0.  1.
         11    1    1    2    0    0 -0.32901459418E+01  0.12880198522E+02 -0.85740262928E+01  0.15818928571E+02  0.00000000000E+00 0. -1.
<mgrwt>
<rscale>  0 0.43008607E+02</rscale>
<asrwt>0</asrwt>
<pdfrwt beam="1">  1        2 0.52090811E-02 0.43008607E+02</pdfrwt>
<pdfrwt beam="2">  1       -2 0.21011784E-02 0.43008607E+02</pdfrwt>
<totfact> 0.70557945E+05</totfact>
</mgrwt>
</event>
<event>
 4    1  0.2165211E+000  0.2694849E+02  0.7546771E-02  0.1634496E+00
          1   -1    0    0  501    0  0.00000000000E+00  0.00000000000E+00  0.90443335835E+01  0.90443335835E+01  0.00000000000E+00 0. -1.
         -1   -1    0    0    0  501 -0.00000000000E+00 -0.00000000000E+00 -0.20073924941E+02  0.20073924941E+02  0.00000000000E+00 0.  1.
        -11    1    1    2    0    0  0.73453114605E+01 -0.11087223502E+02 -0.78510959126E+01  0.15444087298E+02  0.00000000000E+00 0.  1.
         11    1    1    2    0    0 -0.73453114605E+01  0.11087223502E+02 -0.31784954448E+01  0.13674171226E+02  0.00000000000E+00 0. -1.
<mgrwt>
<rscale>  0 0.26948490E+02</rscale>
<asrwt>0</asrwt>
<pdfrwt beam="1">  1        1 0.13914359E-02 0.26948490E+02</pdfrwt>
<pdfrwt beam="2">  1       -1 0.30882961E-02 0.26948490E+02</pdfrwt>
<totfact> 0.19144065E+06</totfact>
</mgrwt>
</event>
<event>
 4    1  0.2165211E+000  0.3405987E+02  0.7546771E-02  0.1557111E+00
         -2   -1    0    0    0  501 -0.00000000000E+00  0.00000000000E+00  0.49054845379E+01  0.49054845379E+01  0.00000000000E+00 0.  1.
          2   -1    0    0  501    0  0.00000000000E+00 -0.00000000000E+00 -0.59121326401E+02  0.59121326401E+02  0.00000000000E+00 0. -1.
        -11    1    1    2    0    0 -0.15419911839E+02  0.84582457059E-01 -0.40694551339E+02  0.43518126614E+02  0.00000000000E+00 0. -1.
         11    1    1    2    0    0  0.15419911839E+02 -0.84582457059E-01 -0.13521290524E+02  0.20508684325E+02  0.00000000000E+00 0.  1.
<mgrwt>
<rscale>  0 0.34059874E+02</rscale>
<asrwt>0</asrwt>
<pdfrwt beam="2">  1        2 0.90955883E-02 0.34059874E+02</pdfrwt>
<pdfrwt beam="1">  1       -2 0.75468996E-03 0.34059874E+02</pdfrwt>
<totfact> 0.13799920E+06</totfact>
</mgrwt>
</event>
<event>
 4    1  0.2165211E+000  0.4395340E+02  0.7546771E-02  0.1480983E+00
         -2   -1    0    0    0  501 -0.00000000000E+00  0.00000000000E+00  0.19470020819E+03  0.19470020819E+03  0.00000000000E+00 0.  1.
          2   -1    0    0  501    0  0.00000000000E+00 -0.00000000000E+00 -0.24806105278E+01  0.24806105278E+01  0.00000000000E+00 0. -1.
        -11    1    1    2    0    0 -0.19701316593E+02 -0.97377037978E+01  0.95647151171E+02  0.98139402269E+02  0.00000000000E+00 0. -1.
         11    1    1    2    0    0  0.19701316593E+02  0.97377037978E+01  0.96572446495E+02  0.99041416451E+02  0.00000000000E+00 0.  1.
<mgrwt>
<rscale>  0 0.43953402E+02</rscale>
<asrwt>0</asrwt>
<pdfrwt beam="2">  1        2 0.38163254E-03 0.43953402E+02</pdfrwt>
<pdfrwt beam="1">  1       -2 0.29953866E-01 0.43953402E+02</pdfrwt>
<totfact> 0.39047019E+05</totfact>
</mgrwt>
</event>
<event>
 4    1  0.2165211E+000  0.3210320E+02  0.7546771E-02  0.1575940E+00
          3   -1    0    0  501    0  0.00000000000E+00  0.00000000000E+00  0.32879821800E+01  0.32879821800E+01  0.00000000000E+00 0. -1.
         -3   -1    0    0    0  501 -0.00000000000E+00 -0.00000000000E+00 -0.78362305922E+02  0.78362305922E+02  0.00000000000E+00 0.  1.
        -13    1    1    2    0    0  0.87695442961E+01 -0.72762625820E+01 -0.87841561384E+01  0.14387852633E+02  0.00000000000E+00 0. -1.
         13    1    1    2    0    0 -0.87695442961E+01  0.72762625820E+01 -0.66290167604E+02  0.67262435469E+02  0.00000000000E+00 0.  1.
<mgrwt>
<rscale>  0 0.32103200E+02</rscale>
<asrwt>0</asrwt>
<pdfrwt beam="1">  1        3 0.50584343E-03 0.32103200E+02</pdfrwt>
<pdfrwt beam="2">  1       -3 0.12055739E-01 0.32103200E+02</pdfrwt>
<totfact> 0.51210820E+05</totfact>
</mgrwt>
</event>
<event>
 4    1  0.2165211E+000  0.4071778E+02  0.7546771E-02  0.1502995E+00
          2   -1    0    0  501    0  0.00000000000E+00  0.00000000000E+00  0.89066450264E+02  0.89066450264E+02  0.00000000000E+00 0. -1.
         -2   -1    0    0    0  501 -0.00000000000E+00 -0.00000000000E+00 -0.46536527005E+01  0.46536527005E+01  0.00000000000E+00 0.  1.
        -13    1    1    2    0    0  0.32821200080E+01 -0.20037598793E+02  0.45625527093E+02  0.49939627548E+02  0.00000000000E+00 0. -1.
         13    1    1    2    0    0 -0.32821200080E+01  0.20037598793E+02  0.38787270471E+02  0.43780475416E+02  0.00000000000E+00 0.  1.
<mgrwt>
<rscale>  0 0.40717776E+02</rscale>
<asrwt>0</asrwt>
<pdfrwt beam="1">  1        2 0.13702529E-01 0.40717776E+02</pdfrwt>
<pdfrwt beam="2">  1       -2 0.71594664E-03 0.40717776E+02</pdfrwt>
<totfact> 0.97217835E+05</totfact>
</mgrwt>
</event>
<event>
 4    1  0.2165211E+000  0.2680576E+02  0.7546771E-02  0.1636342E+00
         -2   -1    0    0    0  501 -0.00000000000E+00  0.00000000000E+00  0.61393506433E+02  0.61393506433E+02  0.00000000000E+00 0. -1.
          2   -1    0    0  501    0  0.00000000000E+00 -0.00000000000E+00 -0.29259955621E+01  0.29259955621E+01  0.00000000000E+00 0.  1.
        -11    1    1    2    0    0  0.11189633000E+02 -0.13346309089E+01  0.11823482883E+02  0.16333519946E+02  0.00000000000E+00 0.  1.
         11    1    1    2    0    0 -0.11189633000E+02  0.13346309089E+01  0.46644027988E+02  0.47985982049E+02  0.00000000000E+00 0. -1.
<mgrwt>
<rscale>  0 0.26805755E+02</rscale>
<asrwt>0</asrwt>
<pdfrwt beam="2">  1        2 0.45015321E-03 0.26805755E+02</pdfrwt>
<pdfrwt beam="1">  1       -2 0.94451539E-02 0.26805755E+02</pdfrwt>
<totfact> 0.17061001E+06</totfact>
</mgrwt>
</event>
<event>
 4    1  0.2165211E+000  0.2806795E+02  0.7546771E-02  0.1620482E+00
          3   -1    0    0  501    0  0.00000000000E+00  0.00000000000E+00  0.17991155885E+02  0.17991155885E+02  0.00000000000E+00 0.  1.
         -3   -1    0    0    0  501 -0.00000000000E+00 -0.00000000000E+00 -0.10947179348E+02  0.10947179348E+02  0.00000000000E+00 0. -1.
        -13    1    1    2    0    0  0.35942083248E+01 -0.11133292851E+02  0.11513737276E+02  0.16414465853E+02  0.00000000000E+00 0.  1.
         13    1    1    2    0    0 -0.35942083248E+01  0.11133292851E+02 -0.44697607387E+01  0.12523869380E+02  0.00000000000E+00 0. -1.
<mgrwt>
<rscale>  0 0.28067947E+02</rscale>
<asrwt>0</asrwt>
<pdfrwt beam="1">  1        3 0.27678701E-02 0.28067947E+02</pdfrwt>
<pdfrwt beam="2">  1       -3 0.16841814E-02 0.28067947E+02</pdfrwt>
<totfact> 0.81315838E+05</totfact>
</mgrwt>
</event>
<event>
 4    1  0.2165211E+000  0.4338981E+02  0.7546771E-02  0.1484651E+00
         -3   -1    0    0    0  501 -0.00000000000E+00  0.00000000000E+00  0.50749874902E+02  0.50749874902E+02  0.00000000000E+00 0.  1.
          3   -1    0    0  501    0  0.00000000000E+00 -0.00000000000E+00 -0.92742889985E+01  0.92742889985E+01  0.00000000000E+00 0. -1.
        -11    1    1    2    0    0 -0.11368499669E+02  0.14715523108E+02  0.52786976296E+01  0.19330133309E+02  0.00000000000E+00 0. -1.
         11    1    1    2    0    0  0.11368499669E+02 -0.14715523108E+02  0.36196888274E+02  0.40694030592E+02  0.00000000000E+00 0.  1.
<mgrwt>
<rscale>  0 0.43389815E+02</rscale>
<asrwt>0</asrwt>
<pdfrwt beam="2">  1        3 0.14268137E-02 0.43389815E+02</pdfrwt>
<pdfrwt beam="1">  1       -3 0.78076729E-02 0.43389815E+02</pdfrwt>
<totfact> 0.26229910E+05</totfact>
</mgrwt>
</event>
<event>
 4    1  0.2165211E+000  0.4031298E+02  0.7546771E-02  0.1505921E+00
          3   -1    0    0  501    0  0.00000000000E+00  0.00000000000E+00  0.57616032479E+02  0.57616032479E+02  0.00000000000E+00 0. -1.
         -3   -1    0    0    0  501 -0.00000000000E+00 -0.00000000000E+00 -0.70515805197E+01  0.70515805197E+01  0.00000000000E+00 0.  1.
        -13    1    1    2    0    0  0.18242082404E+02 -0.46330565390E+01  0.36854873383E+02  0.41382610786E+02  0.00000000000E+00 0. -1.
         13    1    1    2    0    0 -0.18242082404E+02  0.46330565390E+01  0.13709578576E+02  0.23285002213E+02  0.00000000000E+00 0.  1.
<mgrwt>
<rscale>  0 0.40312980E+02</rscale>
<asrwt>0</asrwt>
<pdfrwt beam="1">  1        3 0.88640047E-02 0.40312980E+02</pdfrwt>
<pdfrwt beam="2">  1       -3 0.10848586E-02 0.40312980E+02</pdfrwt>
<totfact> 0.31027542E+05</totfact>
</mgrwt>
</event>
<event>
 4    1  0.2165211E+000  0.2528334E+02  0.7546771E-02  0.1656965E+00
          2   -1    0    0  501    0  0.00000000000E+00  0.00000000000E+00  0.86230555100E+02  0.86230555100E+02  0.00000000000E+00 0. -1.
         -2   -1    0    0    0  501 -0.00000000000E+00 -0.00000000000E+00 -0.18533088961E+01  0.18533088961E+01  0.00000000000E+00 0.  1.
        -11    1    1    2    0    0 -0.88226657698E+01 -0.79940810540E+01  0.56996949909E+02  0.58227116210E+02  0.00000000000E+00 0. -1.
         11    1    1    2    0    0  0.88226657698E+01  0.79940810540E+01  0.27380296295E+02  0.29856747787E+02  0.00000000000E+00 0.  1.
<mgrwt>
<rscale>  0 0.25283343E+02</rscale>
<asrwt>0</asrwt>
<pdfrwt beam="1">  1        2 0.13266236E-01 0.25283343E+02</pdfrwt>
<pdfrwt beam="2">  1       -2 0.28512451E-03 0.25283343E+02</pdfrwt>
<totfact> 0.30092339E+06</totfact>
</mgrwt>
</event>
<event>
 4    1  0.2165211E+000  0.3274379E+02  0.7546771E-02  0.1569600E+00
         -4   -1    0    0    0  501 -0.00000000000E+00  0.00000000000E+00  0.58038730934E+02  0.58038730934E+02  0.00000000000E+00 0. -1.
          4   -1    0    0  501    0  0.00000000000E+00 -0.00000000000E+00 -0.46182764953E+01  0.46182764953E+01  0.00000000000E+00 0.  1.
        -13    1    1    2    0    0 -0.12194473984E+02  0.67094272747E+01  0.10213959886E+02  0.17264025795E+02  0.00000000000E+00 0.  1.
         13    1    1    2    0    0  0.12194473984E+02 -0.67094272747E+01  0.43206494552E+02  0.45392981634E+02  0.00000000000E+00 0. -1.
<mgrwt>
<rscale>  0 0.32743788E+02</rscale>
<asrwt>0</asrwt>
<pdfrwt beam="2">  1        4 0.71050412E-03 0.32743788E+02</pdfrwt>
<pdfrwt beam="1">  1       -4 0.89290350E-02 0.32743788E+02</pdfrwt>
<totfact> 0.38073337E+05</totfact>
</mgrwt>
</event>
<event>
 4    1  0.2165211E+000  0.3209573E+02  0.7546771E-02  0.1576015E+00
          2   -1    0    0  501    0  0.00000000000E+00  0.00000000000E+00  0.77919160103E+02  0.77919160103E+02  0.00000000000E+00 0.  1.
         -2   -1    0    0    0  501 -0.00000000000E+00 -0.00000000000E+00 -0.33051428197E+01  0.33051428197E+01  0.00000000000E+00 0. -1.
        -11    1    1    2    0    0  0.88972965054E+01 -0.82097020691E+01  0.63966210235E+02  0.65101744562E+02  0.00000000000E+00 0.  1.
         11    1    1    2    0    0 -0.88972965054E+01  0.82097020691E+01  0.10647807049E+02  0.16122558362E+02  0.00000000000E+00 0. -1.
<mgrwt>
<rscale>  0 0.32095729E+02</rscale>
<asrwt>0</asrwt>
<pdfrwt beam="1">  1        2 0.11987562E-01 0.32095729E+02</pdfrwt>
<pdfrwt beam="2">  1       -2 0.50848357E-03 0.32095729E+02</pdfrwt>
<totfact> 0.16818476E+06</totfact>
</mgrwt>
</event>
<event>
 4    1  0.2165211E+000  0.5935145E+02  0.7546771E-02  0.1400574E+00
         -4   -1    0    0    0  501 -0.00000000000E+00  0.00000000000E+00  0.41128343409E+02  0.41128343409E+02  0.00000000000E+00 0. -1.
          4   -1    0    0  501    0  0.00000000000E+00 -0.00000000000E+00 -0.21412210129E+02  0.21412210129E+02  0.00000000000E+00 0.  1.
        -11    1    1    2    0    0 -0.14210912236E+02 -0.17176368088E+02 -0.10781943335E+02  0.24763439772E+02  0.00000000000E+00 0.  1.
         11    1    1    2    0    0  0.14210912236E+02  0.17176368088E+02  0.30498076615E+02  0.37777113766E+02  0.00000000000E+00 0. -1.
<mgrwt>
<rscale>  0 0.59351453E+02</rscale>
<asrwt>0</asrwt>
<pdfrwt beam="2">  1        4 0.32941862E-02 0.59351453E+02</pdfrwt>
<pdfrwt beam="1">  1       -4 0.63274374E-02 0.59351453E+02</pdfrwt>
<totfact> 0.90169318E+04</totfact>
</mgrwt>
</event>
<event>
 4    1  0.2165211E+000  0.3272846E+02  0.7546771E-02  0.1569750E+00
         -3   -1    0    0    0  501 -0.00000000000E+00  0.00000000000E+00  0.36750453639E+02  0.36750453639E+02  0.00000000000E+00 0.  1.
          3   -1    0    0  501    0  0.00000000000E+00 -0.00000000000E+00 -0.72866574372E+01  0.72866574372E+01  0.00000000000E+00 0. -1.
        -13    1    1    2    0    0  0.65041034057E+01 -0.84038643922E+01 -0.20122269595E+01  0.10815607018E+02  0.00000000000E+00 0. -1.
         13    1    1    2    0    0 -0.65041034057E+01  0.84038643922E+01  0.31476023162E+02  0.33221504058E+02  0.00000000000E+00 0.  1.
<mgrwt>
<rscale>  0 0.32728457E+02</rscale>
<asrwt>0</asrwt>
<pdfrwt beam="2">  1        3 0.11210242E-02 0.32728457E+02</pdfrwt>
<pdfrwt beam="1">  1       -3 0.56539158E-02 0.32728457E+02</pdfrwt>
<totfact> 0.54208160E+05</totfact>
</mgrwt>
</event>
<event>
 4    1  0.2165211E+000  0.2175362E+02  0.7546771E-02  0.1712548E+00
          2   -1    0    0  501    0  0.00000000000E+00  0.00000000000E+00  0.19582036376E+01  0.19582036376E+01  0.00000000000E+00 0.  1.
         -2   -1    0    0    0  501 -0.00000000000E+00 -0.00000000000E+00 -0.60415075408E+02  0.60415075408E+02  0.00000000000E+00 0. -1.
        -13    1    1    2    0    0 -0.10663195968E+02 -0.18062768887E+01 -0.25911032842E+02  0.28077535636E+02  0.00000000000E+00 0. -1.
         13    1    1    2    0    0  0.10663195968E+02  0.18062768887E+01 -0.32545838928E+02  0.34295743409E+02  0.00000000000E+00 0.  1.
<mgrwt>
<rscale>  0 0.21753622E+02</rscale>
<asrwt>0</asrwt>
<pdfrwt beam="1">  1        2 0.30126209E-03 0.21753622E+02</pdfrwt>
<pdfrwt beam="2">  1       -2 0.92946272E-02 0.21753622E+02</pdfrwt>
<totfact> 0.27361802E+06</totfact>
</mgrwt>
</event>
<event>
 4    1  0.2165211E+000  0.2578474E+02  0.7546771E-02  0.1649980E+00
         -1   -1    0    0    0  501 -0.00000000000E+00  0.00000000000E+00  0.39696274984E+02  0.39696274984E+02  0.00000000000E+00 0.  1.
          1   -1    0    0  501    0  0.00000000000E+00 -0.00000000000E+00 -0.41871221600E+01  0.41871221600E+01  0.00000000000E+00 0. -1.
        -11    1    1    2    0    0 -0.10671001155E+02 -0.65545293472E+00  0.54921408699E+01  0.12019296798E+02  0.00000000000E+00 0. -1.
         11    1    1    2    0    0  0.10671001155E+02  0.65545293472E+00  0.30017011954E+02  0.31864100346E+02  0.00000000000E+00 0.  1.
<mgrwt>
<rscale>  0 0.25784736E+02</rscale>
<asrwt>0</asrwt>
<pdfrwt beam="2">  1        1 0.64417266E-03 0.25784736E+02</pdfrwt>
<pdfrwt beam="1">  1       -1 0.61071190E-02 0.25784736E+02</pdfrwt>
<totfact> 0.20180832E+06</totfact>
</mgrwt>
</event>
<event>
 4    1  0.2165211E+000  0.3790193E+02  0.7546771E-02  0.1524244E+00
         -2   -1    0    0    0  501 -0.00000000000E+00  0.00000000000E+00  0.27863884813E+02  0.27863884813E+02  0.00000000000E+00 0. -1.
          2   -1    0    0  501    0  0.00000000000E+00 -0.00000000000E+00 -0.12889053152E+02  0.12889053152E+02  0.00000000000E+00 0.  1.
        -13    1    1    2    0    0 -0.10001698908E+02  0.15580933751E+02  0.31411278967E+01  0.18779407926E+02  0.00000000000E+00 0.  1.
         13    1    1    2    0    0  0.10001698908E+02 -0.15580933751E+02  0.11833703765E+02  0.21973530039E+02  0.00000000000E+00 0. -1.
<mgrwt>
<rscale>  0 0.37901931E+02</rscale>
<asrwt>0</asrwt>
<pdfrwt beam="2">  1        2 0.19829313E-02 0.37901931E+02</pdfrwt>
<pdfrwt beam="1">  1       -2 0.42867515E-02 0.37901931E+02</pdfrwt>
<totfact> 0.85573689E+05</totfact>
</mgrwt>
</event>
<event>
 4    1  0.2165211E+000  0.3744686E+02  0.7546771E-02  0.1527887E+00
          2   -1    0    0  501    0  0.00000000000E+00  0.00000000000E+00  0.86297038002E+01  0.86297038002E+01  0.00000000000E+00 0.  1.
         -2   -1    0    0    0  501 -0.00000000000E+00 -0.00000000000E+00 -0.40623271155E+02  0.40623271155E+02  0.00000000000E+00 0. -1.
        -13    1    1    2    0    0 -0.11410178760E+02  0.24256779271E+01  0.32661007708E+01  0.12113773442E+02  0.00000000000E+00 0.  1.
         13    1    1    2    0    0  0.11410178760E+02 -0.24256779271E+01 -0.35259668126E+02  0.37139201514E+02  0.00000000000E+00 0. -1.
<mgrwt>
<rscale>  0 0.37446858E+02</rscale>
<asrwt>0</asrwt>
<pdfrwt beam="1">  1        2 0.13276467E-02 0.37446858E+02</pdfrwt>
<pdfrwt beam="2">  1       -2 0.62497343E-02 0.37446858E+02</pdfrwt>
<totfact> 0.83696766E+05</totfact>
</mgrwt>
</event>
<event>
 4    1  0.2165211E+000  0.2437475E+02  0.7546771E-02  0.1670148E+00
         -4   -1    0    0    0  501 -0.00000000000E+00  0.00000000000E+00  0.13189958243E+02  0.13189958243E+02  0.00000000000E+00 0.  1.
          4   -1    0    0  501    0  0.00000000000E+00 -0.00000000000E+00 -0.11260996127E+02  0.11260996127E+02  0.00000000000E+00 0. -1.
        -11    1    1    2    0    0  0.66018335591E+00  0.11196544793E+02 -0.38184037340E+01  0.11848150254E+02  0.00000000000E+00 0. -1.
         11    1    1    2    0    0 -0.66018335591E+00 -0.11196544793E+02  0.57473658494E+01  0.12602804116E+02  0.00000000000E+00 0.  1.
<mgrwt>
<rscale>  0 0.24374747E+02</rscale>
<asrwt>0</asrwt>
<pdfrwt beam="2">  1        4 0.17324609E-02 0.24374747E+02</pdfrwt>
<pdfrwt beam="1">  1       -4 0.20292243E-02 0.24374747E+02</pdfrwt>
<totfact> 0.84204428E+05</totfact>
</mgrwt>
</event>
<event>
 4    1  0.2165211E+000  0.2993744E+02  0.7546771E-02  0.1598781E+00
          2   -1    0    0  501    0  0.00000000000E+00  0.00000000000E+00  0.66962414278E+02  0.66962414278E+02  0.00000000000E+00 0. -1.
         -2   -1    0    0    0  501 -0.00000000000E+00 -0.00000000000E+00 -0.33460949538E+01  0.33460949538E+01  0.00000000000E+00 0.  1.
        -13    1    1    2    0    0 -0.23836786006E+01  0.11760705080E+02  0.52822637520E+02  0.54168506923E+02  0.00000000000E+00 0. -1.
         13    1    1    2    0    0  0.23836786006E+01 -0.11760705080E+02  0.10793681804E+02  0.16140002309E+02  0.00000000000E+00 0.  1.
<mgrwt>
<rscale>  0 0.29937441E+02</rscale>
<asrwt>0</asrwt>
<pdfrwt beam="1">  1        2 0.10301909E-01 0.29937441E+02</pdfrwt>
<pdfrwt beam="2">  1       -2 0.51478389E-03 0.29937441E+02</pdfrwt>
<totfact> 0.19250419E+06</totfact>
</mgrwt>
</event>
<event>
 4    1  0.2165211E+000  0.5629010E+02  0.7546771E-02  0.1414095E+00
         -2   -1    0    0    0  501 -0.00000000000E+00  0.00000000000E+00  0.80209834955E+01  0.80209834955E+01  0.00000000000E+00 0. -1.
          2   -1    0    0  501    0  0.00000000000E+00 -0.00000000000E+00 -0.98758939275E+02  0.98758939275E+02  0.00000000000E+00 0.  1.
        -13    1    1    2    0    0  0.15685280857E+02 -0.15837401455E+02 -0.77966440549E+02  0.81090179259E+02  0.00000000000E+00 0.  1.
         13    1    1    2    0    0 -0.15685280857E+02  0.15837401455E+02 -0.12771515231E+02  0.25689743512E+02  0.00000000000E+00 0. -1.
<mgrwt>
<rscale>  0 0.56290099E+02</rscale>
<asrwt>0</asrwt>
<pdfrwt beam="2">  1        2 0.15193682E-01 0.56290099E+02</pdfrwt>
<pdfrwt beam="1">  1       -2 0.12339976E-02 0.56290099E+02</pdfrwt>
<totfact> 0.44096458E+05</totfact>
</mgrwt>
</event>
<event>
 4    1  0.2165211E+000  0.3520515E+02  0.7546771E-02  0.1546786E+00
         -2   -1    0    0    0  501 -0.00000000000E+00  0.00000000000E+00  0.59528619576E+02  0.59528619576E+02  0.00000000000E+00 0. -1.
          2   -1    0    0  501    0  0.00000000000E+00 -0.00000000000E+00 -0.52050703113E+01  0.52050703113E+01  0.00000000000E+00 0.  1.
        -11    1    1    2    0    0  0.13981191949E+02 -0.18781904308E+01  0.78024285634E+01  0.16120769805E+02  0.00000000000E+00 0.  1.
         11    1    1    2    0    0 -0.13981191949E+02  0.18781904308E+01  0.46521120702E+02  0.48612920083E+02  0.00000000000E+00 0. -1.
<mgrwt>
<rscale>  0 0.35205150E+02</rscale>
<asrwt>0</asrwt>
<pdfrwt beam="2">  1        2 0.80078009E-03 0.35205150E+02</pdfrwt>
<pdfrwt beam="1">  1       -2 0.91582487E-02 0.35205150E+02</pdfrwt>
<totfact> 0.91197757E+05</totfact>
</mgrwt>
</event>
<event>
 4    1  0.2165211E+000  0.4325973E+02  0.7546771E-02  0.1485508E+00
          1   -1    0    0  501    0  0.00000000000E+00  0.00000000000E+00  0.59930127466E+01  0.59930127466E+01  0.00000000000E+00 0.  1.
         -1   -1    0    0    0  501 -0.00000000000E+00 -0.00000000000E+00 -0.78066097025E+02  0.78066097025E+02  0.00000000000E+00 0. -1.
        -13    1    1    2    0    0  0.15851822714E+02 -0.14684995713E+02 -0.34171007529E+02  0.40430027677E+02  0.00000000000E+00 0.  1.
         13    1    1    2    0    0 -0.15851822714E+02  0.14684995713E+02 -0.37902076749E+02  0.43629082094E+02  0.00000000000E+00 0. -1.
<mgrwt>
<rscale>  0 0.43259733E+02</rscale>
<asrwt>0</asrwt>
<pdfrwt beam="1">  1        1 0.92200199E-03 0.43259733E+02</pdfrwt>
<pdfrwt beam="2">  1       -1 0.12010168E-01 0.43259733E+02</pdfrwt>
<totfact> 0.55145402E+05</totfact>
</mgrwt>
</event>
<event>
 4    1  0.2165211E+000  0.2266905E+02  0.7546771E-02  0.1696931E+00
         -2   -1    0    0    0  501 -0.00000000000E+00  0.00000000000E+00  0.22518090318E+01  0.22518090318E+01  0.00000000000E+00 0. -1.
          2   -1    0    0  501    0  0.00000000000E+00 -0.00000000000E+00 -0.57052577205E+02  0.57052577205E+02  0.00000000000E+00 0.  1.
        -13    1    1    2    0    0 -0.67350460630E+01  0.76888157071E+01 -0.40214647855E+02  0.41493332411E+02  0.00000000000E+00 0.  1.
         13    1    1    2    0    0  0.67350460630E+01 -0.76888157071E+01 -0.14586120318E+02  0.17811053825E+02  0.00000000000E+00 0. -1.
<mgrwt>
<rscale>  0 0.22669055E+02</rscale>
<asrwt>0</asrwt>
<pdfrwt beam="2">  1        2 0.87773196E-02 0.22669055E+02</pdfrwt>
<pdfrwt beam="1">  1       -2 0.34643216E-03 0.22669055E+02</pdfrwt>
<totfact> 0.35683816E+06</totfact>
</mgrwt>
</event>
<event>
 4    1  0.2165211E+000  0.2931743E+02  0.7546771E-02  0.1605758E+00
          4   -1    0    0  501    0  0.00000000000E+00  0.00000000000E+00  0.18226333639E+01  0.18226333639E+01  0.00000000000E+00 0.  1.
         -4   -1    0    0    0  501 -0.00000000000E+00 -0.00000000000E+00 -0.11789417598E+03  0.11789417598E+03  0.00000000000E+00 0. -1.
        -13    1    1    2    0    0  0.14216125308E+02  0.55693377274E+00 -0.43616171526E+02  0.45877868440E+02  0.00000000000E+00 0.  1.
         13    1    1    2    0    0 -0.14216125308E+02 -0.55693377274E+00 -0.72455371093E+02  0.73838940907E+02  0.00000000000E+00 0. -1.
<mgrwt>
<rscale>  0 0.29317425E+02</rscale>
<asrwt>0</asrwt>
<pdfrwt beam="1">  1        4 0.28040513E-03 0.29317425E+02</pdfrwt>
<pdfrwt beam="2">  1       -4 0.18137566E-01 0.29317425E+02</pdfrwt>
<totfact> 0.41480037E+05</totfact>
</mgrwt>
</event>
<event>
 4    1  0.2165211E+000  0.2087563E+02  0.7546771E-02  0.1728456E+00
         -2   -1    0    0    0  501 -0.00000000000E+00  0.00000000000E+00  0.48289940937E+01  0.48289940937E+01  0.00000000000E+00 0.  1.
          2   -1    0    0  501    0  0.00000000000E+00 -0.00000000000E+00 -0.22561216108E+02  0.22561216108E+02  0.00000000000E+00 0. -1.
        -13    1    1    2    0    0  0.45978425331E+01 -0.93698303105E+01 -0.90219286030E+01  0.13795980274E+02  0.00000000000E+00 0.  1.
         13    1    1    2    0    0 -0.45978425331E+01  0.93698303105E+01 -0.87102934108E+01  0.13594229927E+02  0.00000000000E+00 0. -1.
<mgrwt>
<rscale>  0 0.20875630E+02</rscale>
<asrwt>0</asrwt>
<pdfrwt beam="2">  1        2 0.34709563E-02 0.20875630E+02</pdfrwt>
<pdfrwt beam="1">  1       -2 0.74292217E-03 0.20875630E+02</pdfrwt>
<totfact> 0.38245489E+06</totfact>
</mgrwt>
</event>
<event>
 4    1  0.2165211E+000  0.2948594E+02  0.7546771E-02  0.1603841E+00
          2   -1    0    0  501    0  0.00000000000E+00  0.00000000000E+00  0.13599372534E+03  0.13599372534E+03  0.00000000000E+00 0. -1.
         -2   -1    0    0    0  501 -0.00000000000E+00 -0.00000000000E+00 -0.15982731843E+01  0.15982731843E+01  0.00000000000E+00 0.  1.
        -13    1    1    2    0    0  0.49979871160E+01 -0.13337054065E+02  0.84965616008E+02  0.86151104404E+02  0.00000000000E+00 0. -1.
         13    1    1    2    0    0 -0.49979871160E+01  0.13337054065E+02  0.49429836143E+02  0.51440894116E+02  0.00000000000E+00 0.  1.
<mgrwt>
<rscale>  0 0.29485937E+02</rscale>
<asrwt>0</asrwt>
<pdfrwt beam="1">  1        2 0.20922102E-01 0.29485937E+02</pdfrwt>
<pdfrwt beam="2">  1       -2 0.24588829E-03 0.29485937E+02</pdfrwt>
<totfact> 0.23559865E+06</totfact>
</mgrwt>
</event>
<event>
 4    1  0.2165211E+000  0.6599221E+02  0.7546771E-02  0.1374278E+00
          2   -1    0    0  501    0  0.00000000000E+00  0.00000000000E+00  0.11639555129E+03  0.11639555129E+03  0.00000000000E+00 0.  1.
         -2   -1    0    0    0  501 -0.00000000000E+00 -0.00000000000E+00 -0.93538203350E+01  0.93538203350E+01  0.00000000000E+00 0. -1.
        -13    1    1    2    0    0  0.23073229451E+02 -0.90717522081E+01  0.95010106746E+02  0.98191603456E+02  0.00000000000E+00 0.  1.
         13    1    1    2    0    0 -0.23073229451E+02  0.90717522081E+01  0.12031624212E+02  0.27557768172E+02  0.00000000000E+00 0. -1.
<mgrwt>
<rscale>  0 0.65992214E+02</rscale>
<asrwt>0</asrwt>
<pdfrwt beam="1">  1        2 0.17907007E-01 0.65992214E+02</pdfrwt>
<pdfrwt beam="2">  1       -2 0.14390494E-02 0.65992214E+02</pdfrwt>
<totfact> 0.30547972E+05</totfact>
</mgrwt>
</event>
<event>
 4    1  0.2165211E+000  0.3796724E+02  0.7546771E-02  0.1523726E+00
         -3   -1    0    0    0  501 -0.00000000000E+00  0.00000000000E+00  0.30272909548E+02  0.30272909548E+02  0.00000000000E+00 0. -1.
          3   -1    0    0  501    0  0.00000000000E+00 -0.00000000000E+00 -0.11904300096E+02  0.11904300096E+02  0.00000000000E+00 0.  1.
        -11    1    1    2    0    0 -0.90673809919E+01 -0.10504951567E+02 -0.52061026004E+01  0.14821434133E+02  0.00000000000E+00 0.  1.
         11    1    1    2    0    0  0.90673809919E+01  0.10504951567E+02  0.23574712052E+02  0.27355775511E+02  0.00000000000E+00 0. -1.
<mgrwt>
<rscale>  0 0.37967239E+02</rscale>
<asrwt>0</asrwt>
<pdfrwt beam="2">  1        3 0.18314308E-02 0.37967239E+02</pdfrwt>
<pdfrwt beam="1">  1       -3 0.46573707E-02 0.37967239E+02</pdfrwt>
<totfact> 0.38196662E+05</totfact>
</mgrwt>
</event>
<event>
 4    1  0.2165211E+000  0.4816830E+02  0.7546771E-02  0.1455479E+00
         -2   -1    0    0    0  501 -0.00000000000E+00  0.00000000000E+00  0.11400337124E+03  0.11400337124E+03  0.00000000000E+00 0.  1.
          2   -1    0    0  501    0  0.00000000000E+00 -0.00000000000E+00 -0.50879745805E+01  0.50879745805E+01  0.00000000000E+00 0. -1.
        -11    1    1    2    0    0 -0.19480280148E+02 -0.88086777189E+01  0.81874844933E+02  0.84620117884E+02  0.00000000000E+00 0.  1.
         11    1    1    2    0    0  0.19480280148E+02  0.88086777189E+01  0.27040551725E+02  0.34471227936E+02  0.00000000000E+00 0. -1.
<mgrwt>
<rscale>  0 0.48168299E+02</rscale>
<asrwt>0</asrwt>
<pdfrwt beam="2">  1        2 0.78276540E-03 0.48168299E+02</pdfrwt>
<pdfrwt beam="1">  1       -2 0.17538978E-01 0.48168299E+02</pdfrwt>
<totfact> 0.37349523E+05</totfact>
</mgrwt>
</event>
<event>
 4    1  0.2165211E+000  0.3374085E+02  0.7546771E-02  0.1560075E+00
          2   -1    0    0  501    0  0.00000000000E+00  0.00000000000E+00  0.43422481504E+01  0.43422481504E+01  0.00000000000E+00 0.  1.
         -2   -1    0    0    0  501 -0.00000000000E+00 -0.00000000000E+00 -0.65544689239E+02  0.65544689239E+02  0.00000000000E+00 0. -1.
        -11    1    1    2    0    0  0.83920957499E+01 -0.13581060980E+02 -0.19305816114E+02  0.25051687054E+02  0.00000000000E+00 0.  1.
         11    1    1    2    0    0 -0.83920957499E+01  0.13581060980E+02 -0.41896624975E+02  0.44835250336E+02  0.00000000000E+00 0. -1.
<mgrwt>
<rscale>  0 0.33740854E+02</rscale>
<asrwt>0</asrwt>
<pdfrwt beam="1">  1        2 0.66803824E-03 0.33740854E+02</pdfrwt>
<pdfrwt beam="2">  1       -2 0.10083797E-01 0.33740854E+02</pdfrwt>
<totfact> 0.99060381E+05</totfact>
</mgrwt>
</event>
<event>
 4    1  0.2165211E+000  0.4251343E+02  0.7546771E-02  0.1490490E+00
          4   -1    0    0  501    0  0.00000000000E+00  0.00000000000E+00  0.51355071295E+02  0.51355071295E+02  0.00000000000E+00 0. -1.
         -4   -1    0    0    0  501 -0.00000000000E+00 -0.00000000000E+00 -0.87985072024E+01  0.87985072024E+01  0.00000000000E+00 0.  1.
        -13    1    1    2    0    0  0.16097113873E+02 -0.13232484668E+02  0.15336878634E+02  0.25873453031E+02  0.00000000000E+00 0.  1.
         13    1    1    2    0    0 -0.16097113873E+02  0.13232484668E+02  0.27219685459E+02  0.34280125466E+02  0.00000000000E+00 0. -1.
<mgrwt>
<rscale>  0 0.42513432E+02</rscale>
<asrwt>0</asrwt>
<pdfrwt beam="1">  1        4 0.79007800E-02 0.42513432E+02</pdfrwt>
<pdfrwt beam="2">  1       -4 0.13536165E-02 0.42513432E+02</pdfrwt>
<totfact> 0.20789299E+05</totfact>
</mgrwt>
</event>
<event>
 4    1  0.2165211E+000  0.2068635E+02  0.7546771E-02  0.1732014E+00
         -2   -1    0    0    0  501 -0.00000000000E+00  0.00000000000E+00  0.41339008156E+02  0.41339008156E+02  0.00000000000E+00 0.  1.
          2   -1    0    0  501    0  0.00000000000E+00 -0.00000000000E+00 -0.25879010901E+01  0.25879010901E+01  0.00000000000E+00 0. -1.
        -11    1    1    2    0    0 -0.38406969839E+01 -0.94215117930E+01  0.23328538230E+02  0.25450668630E+02  0.00000000000E+00 0.  1.
         11    1    1    2    0    0  0.38406969839E+01  0.94215117930E+01  0.15422568836E+02  0.18476240616E+02  0.00000000000E+00 0. -1.
<mgrwt>
<rscale>  0 0.20686350E+02</rscale>
<asrwt>0</asrwt>
<pdfrwt beam="2">  1        2 0.39813866E-03 0.20686350E+02</pdfrwt>
<pdfrwt beam="1">  1       -2 0.63598469E-02 0.20686350E+02</pdfrwt>
<totfact> 0.32298783E+06</totfact>
</mgrwt>
</event>
<event>
 4    1  0.2165211E+000  0.4192565E+02  0.7546771E-02  0.1494501E+00
          2   -1    0    0  501    0  0.00000000000E+00  0.00000000000E+00  0.91318251664E+02  0.91318251664E+02  0.00000000000E+00 0.  1.
         -2   -1    0    0    0  501 -0.00000000000E+00 -0.00000000000E+00 -0.48121818134E+01  0.48121818134E+01  0.00000000000E+00 0. -1.
        -13    1    1    2    0    0 -0.46392532606E+01  0.18065844249E+02  0.65190820713E+02  0.67806640563E+02  0.00000000000E+00 0.  1.
         13    1    1    2    0    0  0.46392532606E+01 -0.18065844249E+02  0.21315249138E+02  0.28323792914E+02  0.00000000000E+00 0. -1.
<mgrwt>
<rscale>  0 0.41925650E+02</rscale>
<asrwt>0</asrwt>
<pdfrwt beam="1">  1        2 0.14048961E-01 0.41925650E+02</pdfrwt>
<pdfrwt beam="2">  1       -2 0.74033573E-03 0.41925650E+02</pdfrwt>
<totfact> 0.90985079E+05</totfact>
</mgrwt>
</event>
<event>
 4    1  0.2165211E+000  0.4103347E+02  0.7546771E-02  0.1500741E+00
         -2   -1    0    0    0  501 -0.00000000000E+00  0.00000000000E+00  0.14287618787E+02  0.14287618787E+02  0.00000000000E+00 0. -1.
          2   -1    0    0  501    0  0.00000000000E+00 -0.00000000000E+00 -0.29461626525E+02  0.29461626525E+02  0.00000000000E+00 0.  1.
        -11    1    1    2    0    0 -0.53198830882E+01 -0.14221705244E+02 -0.22297968673E+02  0.26976980244E+02  0.00000000000E+00 0.  1.
         11    1    1    2    0    0  0.53198830882E+01  0.14221705244E+02  0.71239609352E+01  0.16772265068E+02  0.00000000000E+00 0. -1.
<mgrwt>
<rscale>  0 0.41033474E+02</rscale>
<asrwt>0</asrwt>
<pdfrwt beam="2">  1        2 0.45325578E-02 0.41033474E+02</pdfrwt>
<pdfrwt beam="1">  1       -2 0.21980952E-02 0.41033474E+02</pdfrwt>
<totfact> 0.77867580E+05</totfact>
</mgrwt>
</event>
<event>
 4    1  0.2165211E+000  0.4846869E+02  0.7546771E-02  0.1453780E+00
          2   -1    0    0  501    0  0.00000000000E+00  0.00000000000E+00  0.61248628480E+01  0.61248628480E+01  0.00000000000E+00 0.  1.
         -2   -1    0    0    0  501 -0.00000000000E+00 -0.00000000000E+00 -0.95888429795E+02  0.95888429795E+02  0.00000000000E+00 0. -1.
        -13    1    1    2    0    0 -0.91175149453E+01 -0.21170388218E+02 -0.60630569777E+02  0.64864323072E+02  0.00000000000E+00 0.  1.
         13    1    1    2    0    0  0.91175149453E+01  0.21170388218E+02 -0.29132997170E+02  0.37148969571E+02  0.00000000000E+00 0. -1.
<mgrwt>
<rscale>  0 0.48468690E+02</rscale>
<asrwt>0</asrwt>
<pdfrwt beam="1">  1        2 0.94228668E-03 0.48468690E+02</pdfrwt>
<pdfrwt beam="2">  1       -2 0.14752065E-01 0.48468690E+02</pdfrwt>
<totfact> 0.38474415E+05</totfact>
</mgrwt>
</event>
<event>
 4    1  0.2165211E+000  0.3183219E+02  0.7546771E-02  0.1578677E+00
          4   -1    0    0  501    0  0.00000000000E+00  0.00000000000E+00  0.27924868503E+02  0.27924868503E+02  0.00000000000E+00 0.  1.
         -4   -1    0    0    0  501 -0.00000000000E+00 -0.00000000000E+00 -0.90715566544E+01  0.90715566544E+01  0.00000000000E+00 0. -1.
        -13    1    1    2    0    0  0.86605212596E+01  0.12864193195E+02  0.13589646812E+02  0.20619665262E+02  0.00000000000E+00 0.  1.
         13    1    1    2    0    0 -0.86605212596E+01 -0.12864193195E+02  0.52636650362E+01  0.16376759895E+02  0.00000000000E+00 0. -1.
<mgrwt>
<rscale>  0 0.31832187E+02</rscale>
<asrwt>0</asrwt>
<pdfrwt beam="1">  1        4 0.42961336E-02 0.31832187E+02</pdfrwt>
<pdfrwt beam="2">  1       -4 0.13956241E-02 0.31832187E+02</pdfrwt>
<totfact> 0.44286352E+05</totfact>
</mgrwt>
</event>
<event>
 4    1  0.2165211E+000  0.2669583E+02  0.7546771E-02  0.1637774E+00
         -1   -1    0    0    0  501 -0.00000000000E+00  0.00000000000E+00  0.46446552709E+02  0.46446552709E+02  0.00000000000E+00 0. -1.
          1   -1    0    0  501    0  0.00000000000E+00 -0.00000000000E+00 -0.38359549814E+01  0.38359549814E+01  0.00000000000E+00 0.  1.
        -13    1    1    2    0    0  0.55224915120E+01 -0.11031721391E+02  0.11706647544E+02  0.17007127508E+02  0.00000000000E+00 0.  1.
         13    1    1    2    0    0 -0.55224915120E+01  0.11031721391E+02  0.30903950183E+02  0.33275380182E+02  0.00000000000E+00 0. -1.
<mgrwt>
<rscale>  0 0.26695834E+02</rscale>
<asrwt>0</asrwt>
<pdfrwt beam="2">  1        1 0.59014695E-03 0.26695834E+02</pdfrwt>
<pdfrwt beam="1">  1       -1 0.71456231E-02 0.26695834E+02</pdfrwt>
<totfact> 0.18371956E+06</totfact>
</mgrwt>
</event>
<event>
 4    1  0.2165211E+000  0.5206226E+02  0.7546771E-02  0.1434525E+00
          1   -1    0    0  501    0  0.00000000000E+00  0.00000000000E+00  0.79614773697E+02  0.79614773697E+02  0.00000000000E+00 0.  1.
         -1   -1    0    0    0  501 -0.00000000000E+00 -0.00000000000E+00 -0.85112317238E+01  0.85112317238E+01  0.00000000000E+00 0. -1.
        -11    1    1    2    0    0  0.15716343488E+02  0.12913646882E+02  0.80561875659E+01  0.21878479986E+02  0.00000000000E+00 0. -1.
         11    1    1    2    0    0 -0.15716343488E+02 -0.12913646882E+02  0.63047354407E+02  0.66247525434E+02  0.00000000000E+00 0.  1.
<mgrwt>
<rscale>  0 0.52062262E+02</rscale>
<asrwt>0</asrwt>
<pdfrwt beam="1">  1        1 0.12248426E-01 0.52062262E+02</pdfrwt>
<pdfrwt beam="2">  1       -1 0.13094203E-02 0.52062262E+02</pdfrwt>
<totfact> 0.44268076E+05</totfact>
</mgrwt>
</event>
<event>
 4    1  0.2165211E+000  0.2500260E+02  0.7546771E-02  0.1660965E+00
          3   -1    0    0  501    0  0.00000000000E+00  0.00000000000E+00  0.80631962270E+01  0.80631962270E+01  0.00000000000E+00 0.  1.
         -3   -1    0    0    0  501 -0.00000000000E+00 -0.00000000000E+00 -0.19382207423E+02  0.19382207423E+02  0.00000000000E+00 0. -1.
        -13    1    1    2    0    0 -0.12336681828E+02  0.15032323313E+01 -0.71440903504E+01  0.14334973069E+02  0.00000000000E+00 0.  1.
         13    1    1    2    0    0  0.12336681828E+02 -0.15032323313E+01 -0.41749208459E+01  0.13110430581E+02  0.00000000000E+00 0. -1.
<mgrwt>
<rscale>  0 0.25002603E+02</rscale>
<asrwt>0</asrwt>
<pdfrwt beam="1">  1        3 0.12404917E-02 0.25002603E+02</pdfrwt>
<pdfrwt beam="2">  1       -3 0.29818780E-02 0.25002603E+02</pdfrwt>
<totfact> 0.10641459E+06</totfact>
</mgrwt>
</event>
<event>
 4    1  0.2165211E+000  0.2660607E+02  0.7546771E-02  0.1638950E+00
          4   -1    0    0  501    0  0.00000000000E+00  0.00000000000E+00  0.39955533635E+01  0.39955533635E+01  0.00000000000E+00 0. -1.
         -4   -1    0    0    0  501 -0.00000000000E+00 -0.00000000000E+00 -0.44291926638E+02  0.44291926638E+02  0.00000000000E+00 0.  1.
        -13    1    1    2    0    0 -0.11822463519E+02 -0.42371487795E+01 -0.12186011266E+02  0.17499226955E+02  0.00000000000E+00 0. -1.
         13    1    1    2    0    0  0.11822463519E+02  0.42371487795E+01 -0.28110362009E+02  0.30788253047E+02  0.00000000000E+00 0.  1.
<mgrwt>
<rscale>  0 0.26606071E+02</rscale>
<asrwt>0</asrwt>
<pdfrwt beam="1">  1        4 0.61470045E-03 0.26606071E+02</pdfrwt>
<pdfrwt beam="2">  1       -4 0.68141433E-02 0.26606071E+02</pdfrwt>
<totfact> 0.63530025E+05</totfact>
</mgrwt>
</event>
<event>
 4    1  0.2165211E+000  0.2421037E+02  0.7546771E-02  0.1672610E+00
          2   -1    0    0  501    0  0.00000000000E+00  0.00000000000E+00  0.32658043389E+02  0.32658043389E+02  0.00000000000E+00 0. -1.
         -2   -1    0    0    0  501 -0.00000000000E+00 -0.00000000000E+00 -0.44869667230E+01  0.44869667230E+01  0.00000000000E+00 0.  1.
        -11    1    1    2    0    0 -0.33970615435E+01  0.10609583119E+02  0.21352211364E+02  0.24083608767E+02  0.00000000000E+00 0. -1.
         11    1    1    2    0    0  0.33970615435E+01 -0.10609583119E+02  0.68188653017E+01  0.13061401345E+02  0.00000000000E+00 0.  1.
<mgrwt>
<rscale>  0 0.24210374E+02</rscale>
<asrwt>0</asrwt>
<pdfrwt beam="1">  1        2 0.50243142E-02 0.24210374E+02</pdfrwt>
<pdfrwt beam="2">  1       -2 0.69030259E-03 0.24210374E+02</pdfrwt>
<totfact> 0.28333538E+06</totfact>
</mgrwt>
</event>
<event>
 4    1  0.2165211E+000  0.3815613E+02  0.7546771E-02  0.1522236E+00
         -3   -1    0    0    0  501 -0.00000000000E+00  0.00000000000E+00  0.58329154310E+01  0.58329154310E+01  0.00000000000E+00 0. -1.
          3   -1    0    0  501    0  0.00000000000E+00 -0.00000000000E+00 -0.62399758398E+02  0.62399758398E+02  0.00000000000E+00 0.  1.
        -13    1    1    2    0    0  0.16414495247E+02  0.80956024158E+01 -0.37913120868E+02  0.42099633806E+02  0.00000000000E+00 0. -1.
         13    1    1    2    0    0 -0.16414495247E+02 -0.80956024158E+01 -0.18653722099E+02  0.26133040023E+02  0.00000000000E+00 0.  1.
<mgrwt>
<rscale>  0 0.38156127E+02</rscale>
<asrwt>0</asrwt>
<pdfrwt beam="2">  1        3 0.95999632E-02 0.38156127E+02</pdfrwt>
<pdfrwt beam="1">  1       -3 0.89737157E-03 0.38156127E+02</pdfrwt>
<totfact> 0.35128625E+05</totfact>
</mgrwt>
</event>
<event>
 4    1  0.2165211E+000  0.3975870E+02  0.7546771E-02  0.1509995E+00
          4   -1    0    0  501    0  0.00000000000E+00  0.00000000000E+00  0.14643603318E+03  0.14643603318E+03  0.00000000000E+00 0.  1.
         -4   -1    0    0    0  501 -0.00000000000E+00 -0.00000000000E+00 -0.26987110608E+01  0.26987110608E+01  0.00000000000E+00 0. -1.
        -11    1    1    2    0    0 -0.16982972434E+02 -0.10285956036E+02  0.75555908140E+02  0.78121171901E+02  0.00000000000E+00 0.  1.
         11    1    1    2    0    0  0.16982972434E+02  0.10285956036E+02  0.68181413977E+02  0.71013572338E+02  0.00000000000E+00 0. -1.
<mgrwt>
<rscale>  0 0.39758699E+02</rscale>
<asrwt>0</asrwt>
<pdfrwt beam="1">  1        4 0.22528614E-01 0.39758699E+02</pdfrwt>
<pdfrwt beam="2">  1       -4 0.41518643E-03 0.39758699E+02</pdfrwt>
<totfact> 0.19255853E+05</totfact>
</mgrwt>
</event>
<event>
 4    1  0.2165211E+000  0.2441252E+02  0.7546771E-02  0.1669586E+00
         -3   -1    0    0    0  501 -0.00000000000E+00  0.00000000000E+00  0.25399185685E+01  0.25399185685E+01  0.00000000000E+00 0.  1.
          3   -1    0    0  501    0  0.00000000000E+00 -0.00000000000E+00 -0.58660462342E+02  0.58660462342E+02  0.00000000000E+00 0. -1.
        -13    1    1    2    0    0 -0.90197209975E+01 -0.79987257226E+01 -0.23265670489E+02  0.26203557075E+02  0.00000000000E+00 0.  1.
         13    1    1    2    0    0  0.90197209975E+01  0.79987257226E+01 -0.32854873284E+02  0.34996823836E+02  0.00000000000E+00 0. -1.
<mgrwt>
<rscale>  0 0.24412521E+02</rscale>
<asrwt>0</asrwt>
<pdfrwt beam="2">  1        3 0.90246854E-02 0.24412521E+02</pdfrwt>
<pdfrwt beam="1">  1       -3 0.39075675E-03 0.24412521E+02</pdfrwt>
<totfact> 0.10131453E+06</totfact>
</mgrwt>
</event>
<event>
 4    1  0.2165211E+000  0.3441793E+02  0.7546771E-02  0.1553831E+00
          2   -1    0    0  501    0  0.00000000000E+00  0.00000000000E+00  0.63708852313E+01  0.63708852313E+01  0.00000000000E+00 0.  1.
         -2   -1    0    0    0  501 -0.00000000000E+00 -0.00000000000E+00 -0.46484657387E+02  0.46484657387E+02  0.00000000000E+00 0. -1.
        -11    1    1    2    0    0  0.16094021801E+02 -0.51854881601E+01 -0.15142270327E+02  0.22697911266E+02  0.00000000000E+00 0.  1.
         11    1    1    2    0    0 -0.16094021801E+02  0.51854881601E+01 -0.24971501828E+02  0.30157631352E+02  0.00000000000E+00 0. -1.
<mgrwt>
<rscale>  0 0.34417927E+02</rscale>
<asrwt>0</asrwt>
<pdfrwt beam="1">  1        2 0.98013622E-03 0.34417927E+02</pdfrwt>
<pdfrwt beam="2">  1       -2 0.71514855E-02 0.34417927E+02</pdfrwt>
<totfact> 0.10001031E+06</totfact>
</mgrwt>
</event>
<event>
 4    1  0.2165211E+000  0.2320715E+02  0.7546771E-02  0.1688174E+00
          2   -1    0    0  501    0  0.00000000000E+00  0.00000000000E+00  0.23179154306E+01  0.23179154306E+01  0.00000000000E+00 0. -1.
         -2   -1    0    0    0  501 -0.00000000000E+00 -0.00000000000E+00 -0.58087956417E+02  0.58087956417E+02  0.00000000000E+00 0.  1.
        -13    1    1    2    0    0 -0.45406706007E+01 -0.10438868828E+02 -0.33737376350E+02  0.35606154452E+02  0.00000000000E+00 0.  1.
         13    1    1    2    0    0  0.45406706007E+01  0.10438868828E+02 -0.22032664636E+02  0.24799717395E+02  0.00000000000E+00 0. -1.
<mgrwt>
<rscale>  0 0.23207152E+02</rscale>
<asrwt>0</asrwt>
<pdfrwt beam="1">  1        2 0.35660237E-03 0.23207152E+02</pdfrwt>
<pdfrwt beam="2">  1       -2 0.89366088E-02 0.23207152E+02</pdfrwt>
<totfact> 0.23845726E+06</totfact>
</mgrwt>
</event>
<event>
 4    1  0.2165211E+000  0.3100060E+02  0.7546771E-02  0.1587285E+00
         -2   -1    0    0    0  501 -0.00000000000E+00  0.00000000000E+00  0.36493263419E+01  0.36493263419E+01  0.00000000000E+00 0. -1.
          2   -1    0    0  501    0  0.00000000000E+00 -0.00000000000E+00 -0.65836636842E+02  0.65836636842E+02  0.00000000000E+00 0.  1.
        -13    1    1    2    0    0  0.33029614844E+01  0.15132540311E+02 -0.29756204856E+02  0.33546014045E+02  0.00000000000E+00 0.  1.
         13    1    1    2    0    0 -0.33029614844E+01 -0.15132540311E+02 -0.32431105644E+02  0.35939949140E+02  0.00000000000E+00 0. -1.
<mgrwt>
<rscale>  0 0.31000605E+02</rscale>
<asrwt>0</asrwt>
<pdfrwt beam="2">  1        2 0.10128713E-01 0.31000605E+02</pdfrwt>
<pdfrwt beam="1">  1       -2 0.56143482E-03 0.31000605E+02</pdfrwt>
<totfact> 0.17658273E+06</totfact>
</mgrwt>
</event>
<event>
 4    1  0.2165211E+000  0.3064257E+02  0.7546771E-02  0.1591093E+00
         -2   -1    0    0    0  501 -0.00000000000E+00  0.00000000000E+00  0.46935316388E+01  0.46935316388E+01  0.00000000000E+00 0.  1.
          2   -1    0    0  501    0  0.00000000000E+00 -0.00000000000E+00 -0.50013876262E+02  0.50013876262E+02  0.00000000000E+00 0. -1.
        -11    1    1    2    0    0 -0.41255956864E+01  0.97851528627E+01 -0.29427108395E+01  0.11019496513E+02  0.00000000000E+00 0.  1.
         11    1    1    2    0    0  0.41255956864E+01 -0.97851528627E+01 -0.42377633783E+02  0.43687911387E+02  0.00000000000E+00 0. -1.
<mgrwt>
<rscale>  0 0.30642566E+02</rscale>
<asrwt>0</asrwt>
<pdfrwt beam="2">  1        2 0.76944421E-02 0.30642566E+02</pdfrwt>
<pdfrwt beam="1">  1       -2 0.72208183E-03 0.30642566E+02</pdfrwt>
<totfact> 0.17286054E+06</totfact>
</mgrwt>
</event>
<event>
 4    1  0.2165211E+000  0.4961311E+02  0.7546771E-02  0.1447440E+00
         -2   -1    0    0    0  501 -0.00000000000E+00  0.00000000000E+00  0.62771181668E+01  0.62771181668E+01  0.00000000000E+00 0.  1.
          2   -1    0    0  501    0  0.00000000000E+00 -0.00000000000E+00 -0.98033063307E+02  0.98033063307E+02  0.00000000000E+00 0. -1.
        -11    1    1    2    0    0 -0.68995045209E+01  0.21180941058E+02 -0.68825731714E+02  0.72340975752E+02  0.00000000000E+00 0. -1.
         11    1    1    2    0    0  0.68995045209E+01 -0.21180941058E+02 -0.22930213426E+02  0.31969205722E+02  0.00000000000E+00 0.  1.
<mgrwt>
<rscale>  0 0.49613108E+02</rscale>
<asrwt>0</asrwt>
<pdfrwt beam="2">  1        2 0.15082010E-01 0.49613108E+02</pdfrwt>
<pdfrwt beam="1">  1       -2 0.96571049E-03 0.49613108E+02</pdfrwt>
<totfact> 0.60749646E+05</totfact>
</mgrwt>
</event>
<event>
 4    1  0.2165211E+000  0.2704844E+02  0.7546771E-02  0.1633211E+00
          2   -1    0    0  501    0  0.00000000000E+00  0.00000000000E+00  0.59516792930E+02  0.59516792930E+02  0.00000000000E+00 0.  1.
         -2   -1    0    0    0  501 -0.00000000000E+00 -0.00000000000E+00 -0.30731589371E+01  0.30731589371E+01  0.00000000000E+00 0. -1.
        -11    1    1    2    0    0 -0.47539321582E+01 -0.11950558176E+02  0.18544766506E+02  0.22568209421E+02  0.00000000000E+00 0. -1.
         11    1    1    2    0    0  0.47539321582E+01  0.11950558176E+02  0.37898867487E+02  0.40021742447E+02  0.00000000000E+00 0.  1.
<mgrwt>
<rscale>  0 0.27048443E+02</rscale>
<asrwt>0</asrwt>
<pdfrwt beam="1">  1        2 0.91564289E-02 0.27048443E+02</pdfrwt>
<pdfrwt beam="2">  1       -2 0.47279373E-03 0.27048443E+02</pdfrwt>
<totfact> 0.23917164E+06</totfact>
</mgrwt>
</event>
<event>
 4    1  0.2165211E+000  0.4535922E+02  0.7546771E-02  0.1472111E+00
         -2   -1    0    0    0  501 -0.00000000000E+00  0.00000000000E+00  0.43009790280E+02  0.43009790280E+02  0.00000000000E+00 0.  1.
          2   -1    0    0  501    0  0.00000000000E+00 -0.00000000000E+00 -0.11959246706E+02  0.11959246706E+02  0.00000000000E+00 0. -1.
        -13    1    1    2    0    0  0.97158569940E+01 -0.12403221428E+02  0.35294829656E+02  0.38651814697E+02  0.00000000000E+00 0.  1.
         13    1    1    2    0    0 -0.97158569940E+01  0.12403221428E+02 -0.42442860812E+01  0.16317222290E+02  0.00000000000E+00 0. -1.
<mgrwt>
<rscale>  0 0.45359219E+02</rscale>
<asrwt>0</asrwt>
<pdfrwt beam="2">  1        2 0.18398841E-02 0.45359219E+02</pdfrwt>
<pdfrwt beam="1">  1       -2 0.66168907E-02 0.45359219E+02</pdfrwt>
<totfact> 0.52754892E+05</totfact>
</mgrwt>
</event>
<event>
 4    1  0.2165211E+000  0.3918994E+02  0.7546771E-02  0.1514259E+00
          2   -1    0    0  501    0  0.00000000000E+00  0.00000000000E+00  0.13513880145E+03  0.13513880145E+03  0.00000000000E+00 0. -1.
         -2   -1    0    0    0  501 -0.00000000000E+00 -0.00000000000E+00 -0.28412481824E+01  0.28412481824E+01  0.00000000000E+00 0.  1.
        -13    1    1    2    0    0  0.60167376160E+01  0.17677879747E+02  0.87053662192E+02  0.89033974779E+02  0.00000000000E+00 0. -1.
         13    1    1    2    0    0 -0.60167376160E+01 -0.17677879747E+02  0.45243891073E+02  0.48946074851E+02  0.00000000000E+00 0.  1.
<mgrwt>
<rscale>  0 0.39189941E+02</rscale>
<asrwt>0</asrwt>
<pdfrwt beam="1">  1        2 0.20790580E-01 0.39189941E+02</pdfrwt>
<pdfrwt beam="2">  1       -2 0.43711521E-03 0.39189941E+02</pdfrwt>
<totfact> 0.11907836E+06</totfact>
</mgrwt>
</event>
<event>
 4    1  0.2165211E+000  0.2863516E+02  0.7546771E-02  0.1613684E+00
          1   -1    0    0  501    0  0.00000000000E+00  0.00000000000E+00  0.70971054669E+02  0.70971054669E+02  0.00000000000E+00 0.  1.
         -1   -1    0    0    0  501 -0.00000000000E+00 -0.00000000000E+00 -0.28884045132E+01  0.28884045132E+01  0.00000000000E+00 0. -1.
        -13    1    1    2    0    0  0.10572260864E+02  0.85101323878E+01  0.22278329859E+02  0.26086759752E+02  0.00000000000E+00 0. -1.
         13    1    1    2    0    0 -0.10572260864E+02 -0.85101323878E+01  0.45804320296E+02  0.47772699430E+02  0.00000000000E+00 0.  1.
<mgrwt>
<rscale>  0 0.28635161E+02</rscale>
<asrwt>0</asrwt>
<pdfrwt beam="1">  1        1 0.10918622E-01 0.28635161E+02</pdfrwt>
<pdfrwt beam="2">  1       -1 0.44436998E-03 0.28635161E+02</pdfrwt>
<totfact> 0.18897613E+06</totfact>
</mgrwt>
</event>
<event>
 4    1  0.2165211E+000  0.3036441E+02  0.7546771E-02  0.1594095E+00
         -3   -1    0    0    0  501 -0.00000000000E+00  0.00000000000E+00  0.56066768191E+02  0.56066768191E+02  0.00000000000E+00 0.  1.
          3   -1    0    0  501    0  0.00000000000E+00 -0.00000000000E+00 -0.41111590370E+01  0.41111590370E+01  0.00000000000E+00 0. -1.
        -11    1    1    2    0    0  0.64444876794E+01  0.10079720487E+02  0.44502307908E+02  0.46082400064E+02  0.00000000000E+00 0.  1.
         11    1    1    2    0    0 -0.64444876794E+01 -0.10079720487E+02  0.74533012460E+01  0.14095527164E+02  0.00000000000E+00 0. -1.
<mgrwt>
<rscale>  0 0.30364413E+02</rscale>
<asrwt>0</asrwt>
<pdfrwt beam="2">  1        3 0.63248604E-03 0.30364413E+02</pdfrwt>
<pdfrwt beam="1">  1       -3 0.86256561E-02 0.30364413E+02</pdfrwt>
<totfact> 0.61741873E+05</totfact>
</mgrwt>
</event>
<event>
 4    1  0.2165211E+000  0.3987957E+02  0.7546771E-02  0.1509100E+00
          1   -1    0    0  501    0  0.00000000000E+00  0.00000000000E+00  0.23094261827E+02  0.23094261827E+02  0.00000000000E+00 0. -1.
         -1   -1    0    0    0  501 -0.00000000000E+00 -0.00000000000E+00 -0.17216185474E+02  0.17216185474E+02  0.00000000000E+00 0.  1.
        -11    1    1    2    0    0  0.13510013631E+02  0.84117499787E+01  0.15082038111E+02  0.21925917988E+02  0.00000000000E+00 0. -1.
         11    1    1    2    0    0 -0.13510013631E+02 -0.84117499787E+01 -0.92039617582E+01  0.18384529313E+02  0.00000000000E+00 0.  1.
<mgrwt>
<rscale>  0 0.39879573E+02</rscale>
<asrwt>0</asrwt>
<pdfrwt beam="1">  1        1 0.35529634E-02 0.39879573E+02</pdfrwt>
<pdfrwt beam="2">  1       -1 0.26486439E-02 0.39879573E+02</pdfrwt>
<totfact> 0.77484824E+05</totfact>
</mgrwt>
</event>
<event>
 4    1  0.2165211E+000  0.2598109E+02  0.7546771E-02  0.1647297E+00
          2   -1    0    0  501    0  0.00000000000E+00  0.00000000000E+00  0.54837109771E+01  0.54837109771E+01  0.00000000000E+00 0.  1.
         -2   -1    0    0    0  501 -0.00000000000E+00 -0.00000000000E+00 -0.30773732466E+02  0.30773732466E+02  0.00000000000E+00 0. -1.
        -13    1    1    2    0    0 -0.11592724145E+02  0.44775115307E+01 -0.73650115797E+01  0.14445856090E+02  0.00000000000E+00 0.  1.
         13    1    1    2    0    0  0.11592724145E+02 -0.44775115307E+01 -0.17925009910E+02  0.21811587353E+02  0.00000000000E+00 0. -1.
<mgrwt>
<rscale>  0 0.25981090E+02</rscale>
<asrwt>0</asrwt>
<pdfrwt beam="1">  1        2 0.84364784E-03 0.25981090E+02</pdfrwt>
<pdfrwt beam="2">  1       -2 0.47344204E-02 0.25981090E+02</pdfrwt>
<totfact> 0.20116409E+06</totfact>
</mgrwt>
</event>
<event>
 4    1  0.2165211E+000  0.2316579E+02  0.7546771E-02  0.1688837E+00
          2   -1    0    0  501    0  0.00000000000E+00  0.00000000000E+00  0.17447916812E+01  0.17447916812E+01  0.00000000000E+00 0.  1.
         -2   -1    0    0    0  501 -0.00000000000E+00 -0.00000000000E+00 -0.76893697322E+02  0.76893697322E+02  0.00000000000E+00 0. -1.
        -11    1    1    2    0    0  0.82926169982E+01 -0.71228680843E+01 -0.24576770948E+02  0.26898334830E+02  0.00000000000E+00 0.  1.
         11    1    1    2    0    0 -0.82926169982E+01  0.71228680843E+01 -0.50572134693E+02  0.51740154173E+02  0.00000000000E+00 0. -1.
<mgrwt>
<rscale>  0 0.23165792E+02</rscale>
<asrwt>0</asrwt>
<pdfrwt beam="1">  1        2 0.26842950E-03 0.23165792E+02</pdfrwt>
<pdfrwt beam="2">  1       -2 0.11829799E-01 0.23165792E+02</pdfrwt>
<totfact> 0.22769697E+06</totfact>
</mgrwt>
</event>
<event>
 4    1  0.2165211E+000  0.3394987E+02  0.7546771E-02  0.1558129E+00
          2   -1    0    0  501    0  0.00000000000E+00  0.00000000000E+00  0.12417080549E+02  0.12417080549E+02  0.00000000000E+00 0. -1.
         -2   -1    0    0    0  501 -0.00000000000E+00 -0.00000000000E+00 -0.23205810541E+02  0.23205810541E+02  0.00000000000E+00 0.  1.
        -13    1    1    2    0    0 -0.16355554192E+02  0.34382068027E+01 -0.85110949895E+01  0.18755376746E+02  0.00000000000E+00 0. -1.
         13    1    1    2    0    0  0.16355554192E+02 -0.34382068027E+01 -0.22776350024E+01  0.16867514344E+02  0.00000000000E+00 0.  1.
<mgrwt>
<rscale>  0 0.33949870E+02</rscale>
<asrwt>0</asrwt>
<pdfrwt beam="1">  1        2 0.19103201E-02 0.33949870E+02</pdfrwt>
<pdfrwt beam="2">  1       -2 0.35701247E-02 0.33949870E+02</pdfrwt>
<totfact> 0.11281401E+06</totfact>
</mgrwt>
</event>
<event>
 4    1  0.2165211E+000  0.3744384E+02  0.7546771E-02  0.1527911E+00
         -4   -1    0    0    0  501 -0.00000000000E+00  0.00000000000E+00  0.39200791603E+02  0.39200791603E+02  0.00000000000E+00 0.  1.
          4   -1    0    0  501    0  0.00000000000E+00 -0.00000000000E+00 -0.89414080807E+01  0.89414080807E+01  0.00000000000E+00 0. -1.
        -11    1    1    2    0    0  0.37313465462E+00  0.17296894753E+02  0.59308814625E+01  0.18289263312E+02  0.00000000000E+00 0. -1.
         11    1    1    2    0    0 -0.37313465462E+00 -0.17296894753E+02  0.24328502060E+02  0.29852936372E+02  0.00000000000E+00 0.  1.
<mgrwt>
<rscale>  0 0.37443839E+02</rscale>
<asrwt>0</asrwt>
<pdfrwt beam="2">  1        4 0.13756013E-02 0.37443839E+02</pdfrwt>
<pdfrwt beam="1">  1       -4 0.60308909E-02 0.37443839E+02</pdfrwt>
<totfact> 0.29226080E+05</totfact>
</mgrwt>
</event>
<event>
 4    1  0.2165211E+000  0.2565475E+02  0.7546771E-02  0.1651772E+00
          2   -1    0    0  501    0  0.00000000000E+00  0.00000000000E+00  0.33741266435E+01  0.33741266435E+01  0.00000000000E+00 0.  1.
         -2   -1    0    0    0  501 -0.00000000000E+00 -0.00000000000E+00 -0.48765670019E+02  0.48765670019E+02  0.00000000000E+00 0. -1.
        -11    1    1    2    0    0  0.43809963587E+01  0.11863198263E+02 -0.18330707247E+02  0.22269787388E+02  0.00000000000E+00 0.  1.
         11    1    1    2    0    0 -0.43809963587E+01 -0.11863198263E+02 -0.27060836128E+02  0.29870009275E+02  0.00000000000E+00 0. -1.
<mgrwt>
<rscale>  0 0.25654750E+02</rscale>
<asrwt>0</asrwt>
<pdfrwt beam="1">  1        2 0.51909642E-03 0.25654750E+02</pdfrwt>
<pdfrwt beam="2">  1       -2 0.75024106E-02 0.25654750E+02</pdfrwt>
<totfact> 0.19539276E+06</totfact>
</mgrwt>
</event>
<event>
 4    1  0.2165211E+000  0.3115590E+02  0.7546771E-02  0.1585652E+00
         -3   -1    0    0    0  501 -0.00000000000E+00  0.00000000000E+00  0.22335057616E+02  0.22335057616E+02  0.00000000000E+00 0.  1.
          3   -1    0    0  501    0  0.00000000000E+00 -0.00000000000E+00 -0.10865091724E+02  0.10865091724E+02  0.00000000000E+00 0. -1.
        -11    1    1    2    0    0 -0.10033289773E+02 -0.10609971277E+02 -0.46308408387E-01  0.14602757912E+02  0.00000000000E+00 0. -1.
         11    1    1    2    0    0  0.10033289773E+02  0.10609971277E+02  0.11516274300E+02  0.18597391428E+02  0.00000000000E+00 0.  1.
<mgrwt>
<rscale>  0 0.31155895E+02</rscale>
<asrwt>0</asrwt>
<pdfrwt beam="2">  1        3 0.16715526E-02 0.31155895E+02</pdfrwt>
<pdfrwt beam="1">  1       -3 0.34361627E-02 0.31155895E+02</pdfrwt>
<totfact> 0.62912052E+05</totfact>
</mgrwt>
</event>
<event>
 4    1  0.2165211E+000  0.3670976E+02  0.7546771E-02  0.1533921E+00
          4   -1    0    0  501    0  0.00000000000E+00  0.00000000000E+00  0.14107870286E+03  0.14107870286E+03  0.00000000000E+00 0.  1.
         -4   -1    0    0    0  501 -0.00000000000E+00 -0.00000000000E+00 -0.23880402507E+01  0.23880402507E+01  0.00000000000E+00 0. -1.
        -11    1    1    2    0    0  0.14326192048E+02  0.11458715530E+02  0.71689173104E+02  0.73999185675E+02  0.00000000000E+00 0.  1.
         11    1    1    2    0    0 -0.14326192048E+02 -0.11458715530E+02  0.67001489509E+02  0.69467557440E+02  0.00000000000E+00 0. -1.
<mgrwt>
<rscale>  0 0.36709760E+02</rscale>
<asrwt>0</asrwt>
<pdfrwt beam="1">  1        4 0.21704409E-01 0.36709760E+02</pdfrwt>
<pdfrwt beam="2">  1       -4 0.36739092E-03 0.36709760E+02</pdfrwt>
<totfact> 0.23506570E+05</totfact>
</mgrwt>
</event>
<event>
 4    1  0.2165211E+000  0.2973067E+02  0.7546771E-02  0.1601085E+00
         -2   -1    0    0    0  501 -0.00000000000E+00  0.00000000000E+00  0.62412677079E+01  0.62412677079E+01  0.00000000000E+00 0.  1.
          2   -1    0    0  501    0  0.00000000000E+00 -0.00000000000E+00 -0.35405988002E+02  0.35405988002E+02  0.00000000000E+00 0. -1.
        -11    1    1    2    0    0  0.13957483025E+02  0.33927521272E+01 -0.19945159924E+02  0.24579086716E+02  0.00000000000E+00 0. -1.
         11    1    1    2    0    0 -0.13957483025E+02 -0.33927521272E+01 -0.92195603698E+01  0.17068168994E+02  0.00000000000E+00 0.  1.
<mgrwt>
<rscale>  0 0.29730674E+02</rscale>
<asrwt>0</asrwt>
<pdfrwt beam="2">  1        2 0.54470752E-02 0.29730674E+02</pdfrwt>
<pdfrwt beam="1">  1       -2 0.96019502E-03 0.29730674E+02</pdfrwt>
<totfact> 0.17649814E+06</totfact>
</mgrwt>
</event>
<event>
 4    1  0.2165211E+000  0.3553982E+02  0.7546771E-02  0.1543858E+00
         -2   -1    0    0    0  501 -0.00000000000E+00  0.00000000000E+00  0.72497147227E+02  0.72497147227E+02  0.00000000000E+00 0. -1.
          2   -1    0    0  501    0  0.00000000000E+00 -0.00000000000E+00 -0.43556164249E+01  0.43556164249E+01  0.00000000000E+00 0.  1.
        -11    1    1    2    0    0  0.17413458566E+02 -0.12087640613E+01  0.26872690454E+02  0.32044206060E+02  0.00000000000E+00 0.  1.
         11    1    1    2    0    0 -0.17413458566E+02  0.12087640613E+01  0.41268840348E+02  0.44808557592E+02  0.00000000000E+00 0. -1.
<mgrwt>
<rscale>  0 0.35539824E+02</rscale>
<asrwt>0</asrwt>
<pdfrwt beam="2">  1        2 0.67009489E-03 0.35539824E+02</pdfrwt>
<pdfrwt beam="1">  1       -2 0.11153406E-01 0.35539824E+02</pdfrwt>
<totfact> 0.86039043E+05</totfact>
</mgrwt>
</event>
<event>
 4    1  0.2165211E+000  0.2918643E+02  0.7546771E-02  0.1607260E+00
          2   -1    0    0  501    0  0.00000000000E+00  0.00000000000E+00  0.32065159722E+02  0.32065159722E+02  0.00000000000E+00 0.  1.
         -2   -1    0    0    0  501 -0.00000000000E+00 -0.00000000000E+00 -0.66415358832E+01  0.66415358832E+01  0.00000000000E+00 0. -1.
        -13    1    1    2    0    0  0.79275947787E+01 -0.70438260445E+01 -0.58316054271E+00  0.10620843683E+02  0.00000000000E+00 0. -1.
         13    1    1    2    0    0 -0.79275947787E+01  0.70438260445E+01  0.26006784382E+02  0.28085851922E+02  0.00000000000E+00 0.  1.
<mgrwt>
<rscale>  0 0.29186429E+02</rscale>
<asrwt>0</asrwt>
<pdfrwt beam="1">  1        2 0.49331014E-02 0.29186429E+02</pdfrwt>
<pdfrwt beam="2">  1       -2 0.10217748E-02 0.29186429E+02</pdfrwt>
<totfact> 0.18208813E+06</totfact>
</mgrwt>
</event>
<event>
 4    1  0.2165211E+000  0.2431218E+02  0.7546771E-02  0.1671082E+00
         -4   -1    0    0    0  501 -0.00000000000E+00  0.00000000000E+00  0.25608293956E+01  0.25608293956E+01  0.00000000000E+00 0.  1.
          4   -1    0    0  501    0  0.00000000000E+00 -0.00000000000E+00 -0.57704184063E+02  0.57704184063E+02  0.00000000000E+00 0. -1.
        -13    1    1    2    0    0 -0.11297255759E+02 -0.33106640916E+01 -0.35082923130E+02  0.37005404737E+02  0.00000000000E+00 0. -1.
         13    1    1    2    0    0  0.11297255759E+02  0.33106640916E+01 -0.20060431538E+02  0.23259608722E+02  0.00000000000E+00 0.  1.
<mgrwt>
<rscale>  0 0.24312184E+02</rscale>
<asrwt>0</asrwt>
<pdfrwt beam="2">  1        4 0.88775660E-02 0.24312184E+02</pdfrwt>
<pdfrwt beam="1">  1       -4 0.39397379E-03 0.24312184E+02</pdfrwt>
<totfact> 0.74098649E+05</totfact>
</mgrwt>
</event>
<event>
 4    1  0.2165211E+000  0.2281434E+02  0.7546771E-02  0.1694537E+00
          2   -1    0    0  501    0  0.00000000000E+00  0.00000000000E+00  0.66328018954E+02  0.66328018954E+02  0.00000000000E+00 0.  1.
         -2   -1    0    0    0  501 -0.00000000000E+00 -0.00000000000E+00 -0.19618187831E+01  0.19618187831E+01  0.00000000000E+00 0. -1.
        -13    1    1    2    0    0  0.21437552719E+01 -0.10739198588E+02  0.41741706263E+02  0.43154329038E+02  0.00000000000E+00 0.  1.
         13    1    1    2    0    0 -0.21437552719E+01  0.10739198588E+02  0.22624493908E+02  0.25135508699E+02  0.00000000000E+00 0. -1.
<mgrwt>
<rscale>  0 0.22814342E+02</rscale>
<asrwt>0</asrwt>
<pdfrwt beam="1">  1        2 0.10204309E-01 0.22814342E+02</pdfrwt>
<pdfrwt beam="2">  1       -2 0.30181833E-03 0.22814342E+02</pdfrwt>
<totfact> 0.36113682E+06</totfact>
</mgrwt>
</event>
<event>
 4    1  0.2165211E+000  0.2126788E+02  0.7546771E-02  0.1721230E+00
         -2   -1    0    0    0  501 -0.00000000000E+00  0.00000000000E+00  0.24281457087E+01  0.24281457087E+01  0.00000000000E+00 0. -1.
          2   -1    0    0  501    0  0.00000000000E+00 -0.00000000000E+00 -0.46570802818E+02  0.46570802818E+02  0.00000000000E+00 0.  1.
        -11    1    1    2    0    0 -0.15667732583E+01  0.10366327012E+02 -0.17972480722E+02  0.20806863711E+02  0.00000000000E+00 0. -1.
         11    1    1    2    0    0  0.15667732583E+01 -0.10366327012E+02 -0.26170176387E+02  0.28192084816E+02  0.00000000000E+00 0.  1.
<mgrwt>
<rscale>  0 0.21267881E+02</rscale>
<asrwt>0</asrwt>
<pdfrwt beam="2">  1        2 0.71647384E-02 0.21267881E+02</pdfrwt>
<pdfrwt beam="1">  1       -2 0.37356090E-03 0.21267881E+02</pdfrwt>
<totfact> 0.39939884E+06</totfact>
</mgrwt>
</event>
<event>
 4    1  0.2165211E+000  0.3102260E+02  0.7546771E-02  0.1587053E+00
         -1   -1    0    0    0  501 -0.00000000000E+00  0.00000000000E+00  0.69779838279E+02  0.69779838279E+02  0.00000000000E+00 0. -1.
          1   -1    0    0  501    0  0.00000000000E+00 -0.00000000000E+00 -0.34479943553E+01  0.34479943553E+01  0.00000000000E+00 0.  1.
        -11    1    1    2    0    0  0.55890955983E+01  0.12503505229E+02  0.15977433750E+02  0.21044097078E+02  0.00000000000E+00 0. -1.
         11    1    1    2    0    0 -0.55890955983E+01 -0.12503505229E+02  0.50354410174E+02  0.52183735556E+02  0.00000000000E+00 0.  1.
<mgrwt>
<rscale>  0 0.31022604E+02</rscale>
<asrwt>0</asrwt>
<pdfrwt beam="2">  1        1 0.53046072E-03 0.31022604E+02</pdfrwt>
<pdfrwt beam="1">  1       -1 0.10735359E-01 0.31022604E+02</pdfrwt>
<totfact> 0.12393711E+06</totfact>
</mgrwt>
</event>
<event>
 4    1  0.2165211E+000  0.5034358E+02  0.7546771E-02  0.1443497E+00
          2   -1    0    0  501    0  0.00000000000E+00  0.00000000000E+00  0.24057050966E+02  0.24057050966E+02  0.00000000000E+00 0. -1.
         -2   -1    0    0    0  501 -0.00000000000E+00 -0.00000000000E+00 -0.26338186981E+02  0.26338186981E+02  0.00000000000E+00 0.  1.
        -13    1    1    2    0    0  0.24613790079E+02 -0.11769742349E+01  0.40023269544E+01  0.24964826285E+02  0.00000000000E+00 0. -1.
         13    1    1    2    0    0 -0.24613790079E+02  0.11769742349E+01 -0.62834629688E+01  0.25430411662E+02  0.00000000000E+00 0.  1.
<mgrwt>
<rscale>  0 0.50343584E+02</rscale>
<asrwt>0</asrwt>
<pdfrwt beam="1">  1        2 0.37010847E-02 0.50343584E+02</pdfrwt>
<pdfrwt beam="2">  1       -2 0.40520288E-02 0.50343584E+02</pdfrwt>
<totfact> 0.44514625E+05</totfact>
</mgrwt>
</event>
<event>
 4    1  0.2165211E+000  0.2476051E+02  0.7546771E-02  0.1664466E+00
          4   -1    0    0  501    0  0.00000000000E+00  0.00000000000E+00  0.13505370495E+01  0.13505370495E+01  0.00000000000E+00 0. -1.
         -4   -1    0    0    0  501 -0.00000000000E+00 -0.00000000000E+00 -0.11348869578E+03  0.11348869578E+03  0.00000000000E+00 0.  1.
        -11    1    1    2    0    0 -0.11365685330E+02 -0.40397199594E+01 -0.68999493604E+02  0.70045901079E+02  0.00000000000E+00 0.  1.
         11    1    1    2    0    0  0.11365685330E+02  0.40397199594E+01 -0.43138665122E+02  0.44793331746E+02  0.00000000000E+00 0. -1.
<mgrwt>
<rscale>  0 0.24760508E+02</rscale>
<asrwt>0</asrwt>
<pdfrwt beam="1">  1        4 0.20777495E-03 0.24760508E+02</pdfrwt>
<pdfrwt beam="2">  1       -4 0.17459797E-01 0.24760508E+02</pdfrwt>
<totfact> 0.60566929E+05</totfact>
</mgrwt>
</event>
<event>
 4    1  0.2165211E+000  0.2934721E+02  0.7546771E-02  0.1605418E+00
         -4   -1    0    0    0  501 -0.00000000000E+00  0.00000000000E+00  0.19602736436E+02  0.19602736436E+02  0.00000000000E+00 0. -1.
          4   -1    0    0  501    0  0.00000000000E+00 -0.00000000000E+00 -0.10983910100E+02  0.10983910100E+02  0.00000000000E+00 0.  1.
        -11    1    1    2    0    0 -0.93600828943E+01 -0.11294702796E+02  0.39289883670E+01  0.15186125662E+02  0.00000000000E+00 0.  1.
         11    1    1    2    0    0  0.93600828943E+01  0.11294702796E+02  0.46898379697E+01  0.15400520875E+02  0.00000000000E+00 0. -1.
<mgrwt>
<rscale>  0 0.29347211E+02</rscale>
<asrwt>0</asrwt>
<pdfrwt beam="2">  1        4 0.16898323E-02 0.29347211E+02</pdfrwt>
<pdfrwt beam="1">  1       -4 0.30158056E-02 0.29347211E+02</pdfrwt>
<totfact> 0.54561221E+05</totfact>
</mgrwt>
</event>
<event>
 4    1  0.2165211E+000  0.2417679E+02  0.7546771E-02  0.1673115E+00
         -1   -1    0    0    0  501 -0.00000000000E+00  0.00000000000E+00  0.54621980815E+02  0.54621980815E+02  0.00000000000E+00 0.  1.
          1   -1    0    0  501    0  0.00000000000E+00 -0.00000000000E+00 -0.26752846654E+01  0.26752846654E+01  0.00000000000E+00 0. -1.
        -13    1    1    2    0    0  0.95235576638E+01  0.74405378086E+01  0.26598552051E+02  0.29215453525E+02  0.00000000000E+00 0. -1.
         13    1    1    2    0    0 -0.95235576638E+01 -0.74405378086E+01  0.25348144099E+02  0.28081811956E+02  0.00000000000E+00 0.  1.
<mgrwt>
<rscale>  0 0.24176794E+02</rscale>
<asrwt>0</asrwt>
<pdfrwt beam="2">  1        1 0.41158230E-03 0.24176794E+02</pdfrwt>
<pdfrwt beam="1">  1       -1 0.84033808E-02 0.24176794E+02</pdfrwt>
<totfact> 0.22660452E+06</totfact>
</mgrwt>
</event>
<event>
 4    1  0.2165211E+000  0.3261397E+02  0.7546771E-02  0.1570871E+00
          1   -1    0    0  501    0  0.00000000000E+00  0.00000000000E+00  0.52747049337E+01  0.52747049337E+01  0.00000000000E+00 0.  1.
         -1   -1    0    0    0  501 -0.00000000000E+00 -0.00000000000E+00 -0.50413762874E+02  0.50413762874E+02  0.00000000000E+00 0. -1.
        -13    1    1    2    0    0  0.15763180048E+02 -0.31793382876E+01 -0.17946106527E+02  0.24096654885E+02  0.00000000000E+00 0.  1.
         13    1    1    2    0    0 -0.15763180048E+02  0.31793382876E+01 -0.27192951414E+02  0.31591812923E+02  0.00000000000E+00 0. -1.
<mgrwt>
<rscale>  0 0.32613968E+02</rscale>
<asrwt>0</asrwt>
<pdfrwt beam="1">  1        1 0.81149300E-03 0.32613968E+02</pdfrwt>
<pdfrwt beam="2">  1       -1 0.77559641E-02 0.32613968E+02</pdfrwt>
<totfact> 0.11434680E+06</totfact>
</mgrwt>
</event>
<event>
 4    1  0.2165211E+000  0.1356416E+03  0.7546771E-02  0.1219317E+00
         -2   -1    0    0    0  501 -0.00000000000E+00  0.00000000000E+00  0.36631605243E+02  0.36631605243E+02  0.00000000000E+00 0.  1.
          2   -1    0    0  501    0  0.00000000000E+00 -0.00000000000E+00 -0.12556536300E+03  0.12556536300E+03  0.00000000000E+00 0. -1.
        -13    1    1    2    0    0  0.57036160975E+02 -0.36154255046E+02 -0.51973361461E+02  0.85214342210E+02  0.00000000000E+00 0.  1.
         13    1    1    2    0    0 -0.57036160975E+02  0.36154255046E+02 -0.36960396297E+02  0.76982626034E+02  0.00000000000E+00 0. -1.
<mgrwt>
<rscale>  0 0.13564160E+03</rscale>
<asrwt>0</asrwt>
<pdfrwt beam="2">  1        2 0.19317748E-01 0.13564160E+03</pdfrwt>
<pdfrwt beam="1">  1       -2 0.56356317E-02 0.13564160E+03</pdfrwt>
<totfact> 0.43106159E+04</totfact>
</mgrwt>
</event>
<event>
 4    1  0.2165211E+000  0.2056896E+02  0.7546771E-02  0.1734245E+00
         -4   -1    0    0    0  501 -0.00000000000E+00  0.00000000000E+00  0.10059511907E+02  0.10059511907E+02  0.00000000000E+00 0. -1.
          4   -1    0    0  501    0  0.00000000000E+00 -0.00000000000E+00 -0.10514483195E+02  0.10514483195E+02  0.00000000000E+00 0.  1.
        -11    1    1    2    0    0 -0.51771764297E+01  0.86263409343E+01 -0.23619371276E+01  0.10334198599E+02  0.00000000000E+00 0.  1.
         11    1    1    2    0    0  0.51771764297E+01 -0.86263409343E+01  0.19069658389E+01  0.10239796502E+02  0.00000000000E+00 0. -1.
<mgrwt>
<rscale>  0 0.20568964E+02</rscale>
<asrwt>0</asrwt>
<pdfrwt beam="2">  1        4 0.16176128E-02 0.20568964E+02</pdfrwt>
<pdfrwt beam="1">  1       -4 0.15476172E-02 0.20568964E+02</pdfrwt>
<totfact> 0.12252834E+06</totfact>
</mgrwt>
</event>
<event>
 4    1  0.2165211E+000  0.2590409E+02  0.7546771E-02  0.1648346E+00
          4   -1    0    0  501    0  0.00000000000E+00  0.00000000000E+00  0.75841672062E+01  0.75841672062E+01  0.00000000000E+00 0. -1.
         -4   -1    0    0    0  501 -0.00000000000E+00 -0.00000000000E+00 -0.22119166969E+02  0.22119166969E+02  0.00000000000E+00 0.  1.
        -11    1    1    2    0    0  0.80768416797E+00 -0.12884352571E+02 -0.60667453540E+01  0.14264091071E+02  0.00000000000E+00 0. -1.
         11    1    1    2    0    0 -0.80768416797E+00  0.12884352571E+02 -0.84682544087E+01  0.15439243104E+02  0.00000000000E+00 0.  1.
<mgrwt>
<rscale>  0 0.25904089E+02</rscale>
<asrwt>0</asrwt>
<pdfrwt beam="1">  1        4 0.11667950E-02 0.25904089E+02</pdfrwt>
<pdfrwt beam="2">  1       -4 0.34029487E-02 0.25904089E+02</pdfrwt>
<totfact> 0.72194068E+05</totfact>
</mgrwt>
</event>
<event>
 4    1  0.2165211E+000  0.3322767E+02  0.7546771E-02  0.1564927E+00
         -2   -1    0    0    0  501 -0.00000000000E+00  0.00000000000E+00  0.25119838174E+02  0.25119838174E+02  0.00000000000E+00 0.  1.
          2   -1    0    0  501    0  0.00000000000E+00 -0.00000000000E+00 -0.10988111225E+02  0.10988111225E+02  0.00000000000E+00 0. -1.
        -11    1    1    2    0    0  0.41363022538E+01 -0.15611029859E+02  0.28283114922E+01  0.16395505344E+02  0.00000000000E+00 0. -1.
         11    1    1    2    0    0 -0.41363022538E+01  0.15611029859E+02  0.11303415458E+02  0.19712444055E+02  0.00000000000E+00 0.  1.
<mgrwt>
<rscale>  0 0.33227674E+02</rscale>
<asrwt>0</asrwt>
<pdfrwt beam="2">  1        2 0.16904787E-02 0.33227674E+02</pdfrwt>
<pdfrwt beam="1">  1       -2 0.38645905E-02 0.33227674E+02</pdfrwt>
<totfact> 0.11744469E+06</totfact>
</mgrwt>
</event>
<event>
 4    1  0.2165211E+000  0.2562205E+02  0.7546771E-02  0.1652225E+00
          4   -1    0    0  501    0  0.00000000000E+00  0.00000000000E+00  0.15355287256E+02  0.15355287256E+02  0.00000000000E+00 0.  1.
         -4   -1    0    0    0  501 -0.00000000000E+00 -0.00000000000E+00 -0.10688330070E+02  0.10688330070E+02  0.00000000000E+00 0. -1.
        -11    1    1    2    0    0  0.14871413090E+01 -0.12621796036E+02  0.39727924053E+01  0.13315569982E+02  0.00000000000E+00 0.  1.
         11    1    1    2    0    0 -0.14871413090E+01  0.12621796036E+02  0.69416478035E+00  0.12728047344E+02  0.00000000000E+00 0. -1.
<mgrwt>
<rscale>  0 0.25622051E+02</rscale>
<asrwt>0</asrwt>
<pdfrwt beam="1">  1        4 0.23623519E-02 0.25622051E+02</pdfrwt>
<pdfrwt beam="2">  1       -4 0.16443585E-02 0.25622051E+02</pdfrwt>
<totfact> 0.75047267E+05</totfact>
</mgrwt>
</event>
<event>
 4    1  0.2165211E+000  0.2207774E+02  0.7546771E-02  0.1706911E+00
         -2   -1    0    0    0  501 -0.00000000000E+00  0.00000000000E+00  0.10537659069E+01  0.10537659069E+01  0.00000000000E+00 0.  1.
          2   -1    0    0  501    0  0.00000000000E+00 -0.00000000000E+00 -0.11563923608E+03  0.11563923608E+03  0.00000000000E+00 0. -1.
        -13    1    1    2    0    0  0.86503912276E+01 -0.67392054272E+01 -0.50585028625E+02  0.51759938941E+02  0.00000000000E+00 0. -1.
         13    1    1    2    0    0 -0.86503912276E+01  0.67392054272E+01 -0.64000441552E+02  0.64933063050E+02  0.00000000000E+00 0.  1.
<mgrwt>
<rscale>  0 0.22077743E+02</rscale>
<asrwt>0</asrwt>
<pdfrwt beam="2">  1        2 0.17790646E-01 0.22077743E+02</pdfrwt>
<pdfrwt beam="1">  1       -2 0.16211788E-03 0.22077743E+02</pdfrwt>
<totfact> 0.43831956E+06</totfact>
</mgrwt>
</event>
<event>
 4    1  0.2165211E+000  0.7278812E+02  0.7546771E-02  0.1350861E+00
          2   -1    0    0  501    0  0.00000000000E+00  0.00000000000E+00  0.22137200658E+02  0.22137200658E+02  0.00000000000E+00 0. -1.
         -2   -1    0    0    0  501 -0.00000000000E+00 -0.00000000000E+00 -0.59832659153E+02  0.59832659153E+02  0.00000000000E+00 0.  1.
        -11    1    1    2    0    0 -0.11664165722E+02  0.24508164123E+02  0.84557261606E+01  0.28428896841E+02  0.00000000000E+00 0. -1.
         11    1    1    2    0    0  0.11664165722E+02 -0.24508164123E+02 -0.46151184655E+02  0.53540962970E+02  0.00000000000E+00 0.  1.
<mgrwt>
<rscale>  0 0.72788119E+02</rscale>
<asrwt>0</asrwt>
<pdfrwt beam="1">  1        2 0.34057232E-02 0.72788119E+02</pdfrwt>
<pdfrwt beam="2">  1       -2 0.92050243E-02 0.72788119E+02</pdfrwt>
<totfact> 0.15863925E+05</totfact>
</mgrwt>
</event>
<event>
 4    1  0.2165211E+000  0.8534384E+02  0.7546771E-02  0.1314536E+00
          2   -1    0    0  501    0  0.00000000000E+00  0.00000000000E+00  0.16883280120E+03  0.16883280120E+03  0.00000000000E+00 0. -1.
         -2   -1    0    0    0  501 -0.00000000000E+00 -0.00000000000E+00 -0.10785183561E+02  0.10785183561E+02  0.00000000000E+00 0.  1.
        -11    1    1    2    0    0 -0.31531762796E+02  0.28610555546E+02  0.85005131907E+02  0.95072016935E+02  0.00000000000E+00 0. -1.
         11    1    1    2    0    0  0.31531762796E+02 -0.28610555546E+02  0.73042485733E+02  0.84545967826E+02  0.00000000000E+00 0.  1.
<mgrwt>
<rscale>  0 0.85343840E+02</rscale>
<asrwt>0</asrwt>
<pdfrwt beam="1">  1        2 0.25974275E-01 0.85343840E+02</pdfrwt>
<pdfrwt beam="2">  1       -2 0.16592591E-02 0.85343840E+02</pdfrwt>
<totfact> 0.17399118E+05</totfact>
</mgrwt>
</event>
<event>
 4    1  0.2165211E+000  0.2459761E+02  0.7546771E-02  0.1666850E+00
          2   -1    0    0  501    0  0.00000000000E+00  0.00000000000E+00  0.20987506681E+02  0.20987506681E+02  0.00000000000E+00 0.  1.
         -2   -1    0    0    0  501 -0.00000000000E+00 -0.00000000000E+00 -0.72071746700E+01  0.72071746700E+01  0.00000000000E+00 0. -1.
        -13    1    1    2    0    0  0.10991184199E+02 -0.48282897450E+01  0.99534527644E+01  0.15594541798E+02  0.00000000000E+00 0. -1.
         13    1    1    2    0    0 -0.10991184199E+02  0.48282897450E+01  0.38268792461E+01  0.12600139552E+02  0.00000000000E+00 0.  1.
<mgrwt>
<rscale>  0 0.24597612E+02</rscale>
<asrwt>0</asrwt>
<pdfrwt beam="1">  1        2 0.32288472E-02 0.24597612E+02</pdfrwt>
<pdfrwt beam="2">  1       -2 0.11087961E-02 0.24597612E+02</pdfrwt>
<totfact> 0.26022534E+06</totfact>
</mgrwt>
</event>
<event>
 4    1  0.2165211E+000  0.2256940E+02  0.7546771E-02  0.1698587E+00
         -2   -1    0    0    0  501 -0.00000000000E+00  0.00000000000E+00  0.37990274538E+02  0.37990274538E+02  0.00000000000E+00 0.  1.
          2   -1    0    0  501    0  0.00000000000E+00 -0.00000000000E+00 -0.33520275386E+01  0.33520275386E+01  0.00000000000E+00 0. -1.
        -11    1    1    2    0    0 -0.33489637923E+01 -0.10214054246E+02  0.23612042805E+02  0.25943612471E+02  0.00000000000E+00 0.  1.
         11    1    1    2    0    0  0.33489637923E+01  0.10214054246E+02  0.11026204195E+02  0.15398689606E+02  0.00000000000E+00 0. -1.
<mgrwt>
<rscale>  0 0.22569399E+02</rscale>
<asrwt>0</asrwt>
<pdfrwt beam="2">  1        2 0.51569657E-03 0.22569399E+02</pdfrwt>
<pdfrwt beam="1">  1       -2 0.58446573E-02 0.22569399E+02</pdfrwt>
<totfact> 0.26918485E+06</totfact>
</mgrwt>
</event>
<event>
 4    1  0.2165211E+000  0.2362656E+02  0.7546771E-02  0.1681551E+00
          2   -1    0    0  501    0  0.00000000000E+00  0.00000000000E+00  0.47901681428E+01  0.47901681428E+01  0.00000000000E+00 0.  1.
         -2   -1    0    0    0  501 -0.00000000000E+00 -0.00000000000E+00 -0.29133326322E+02  0.29133326322E+02  0.00000000000E+00 0. -1.
        -11    1    1    2    0    0  0.97518722378E+01  0.24292049114E+01 -0.32563608119E+01  0.10564276330E+02  0.00000000000E+00 0.  1.
         11    1    1    2    0    0 -0.97518722378E+01 -0.24292049114E+01 -0.21086797367E+02  0.23359218134E+02  0.00000000000E+00 0. -1.
<mgrwt>
<rscale>  0 0.23626556E+02</rscale>
<asrwt>0</asrwt>
<pdfrwt beam="1">  1        2 0.73694895E-03 0.23626556E+02</pdfrwt>
<pdfrwt beam="2">  1       -2 0.44820502E-02 0.23626556E+02</pdfrwt>
<totfact> 0.25043005E+06</totfact>
</mgrwt>
</event>
<event>
 4    1  0.2165211E+000  0.2118595E+02  0.7546771E-02  0.1722723E+00
         -2   -1    0    0    0  501 -0.00000000000E+00  0.00000000000E+00  0.45783261031E+01  0.45783261031E+01  0.00000000000E+00 0. -1.
          2   -1    0    0  501    0  0.00000000000E+00 -0.00000000000E+00 -0.24509199184E+02  0.24509199184E+02  0.00000000000E+00 0.  1.
        -13    1    1    2    0    0  0.48671220409E+01  0.89826972829E+01 -0.13808109501E+02  0.17176775466E+02  0.00000000000E+00 0.  1.
         13    1    1    2    0    0 -0.48671220409E+01 -0.89826972829E+01 -0.61227635806E+01  0.11910749821E+02  0.00000000000E+00 0. -1.
<mgrwt>
<rscale>  0 0.21185949E+02</rscale>
<asrwt>0</asrwt>
<pdfrwt beam="2">  1        2 0.37706461E-02 0.21185949E+02</pdfrwt>
<pdfrwt beam="1">  1       -2 0.70435785E-03 0.21185949E+02</pdfrwt>
<totfact> 0.37283999E+06</totfact>
</mgrwt>
</event>
<event>
 4    1  0.2165211E+000  0.6694905E+02  0.7546771E-02  0.1370786E+00
         -4   -1    0    0    0  501 -0.00000000000E+00  0.00000000000E+00  0.35486699826E+02  0.35486699826E+02  0.00000000000E+00 0.  1.
          4   -1    0    0  501    0  0.00000000000E+00 -0.00000000000E+00 -0.31576445910E+02  0.31576445910E+02  0.00000000000E+00 0. -1.
        -13    1    1    2    0    0 -0.15491782704E+02 -0.11787206104E+02 -0.25323805581E+02  0.31941018897E+02  0.00000000000E+00 0. -1.
         13    1    1    2    0    0  0.15491782704E+02  0.11787206104E+02  0.29234059497E+02  0.35122126840E+02  0.00000000000E+00 0.  1.
<mgrwt>
<rscale>  0 0.66949051E+02</rscale>
<asrwt>0</asrwt>
<pdfrwt beam="2">  1        4 0.48579147E-02 0.66949051E+02</pdfrwt>
<pdfrwt beam="1">  1       -4 0.54594923E-02 0.66949051E+02</pdfrwt>
<totfact> 0.65275463E+04</totfact>
</mgrwt>
</event>
<event>
 4    1  0.2165211E+000  0.4867118E+02  0.7546771E-02  0.1452643E+00
          2   -1    0    0  501    0  0.00000000000E+00  0.00000000000E+00  0.10223336449E+03  0.10223336449E+03  0.00000000000E+00 0. -1.
         -2   -1    0    0    0  501 -0.00000000000E+00 -0.00000000000E+00 -0.57928347770E+01  0.57928347770E+01  0.00000000000E+00 0.  1.
        -11    1    1    2    0    0 -0.18000066815E+01 -0.23704855305E+02  0.59766157632E+02  0.64320710406E+02  0.00000000000E+00 0. -1.
         11    1    1    2    0    0  0.18000066815E+01  0.23704855305E+02  0.36674372083E+02  0.43705488863E+02  0.00000000000E+00 0.  1.
<mgrwt>
<rscale>  0 0.48671182E+02</rscale>
<asrwt>0</asrwt>
<pdfrwt beam="1">  1        2 0.15728209E-01 0.48671182E+02</pdfrwt>
<pdfrwt beam="2">  1       -2 0.89120543E-03 0.48671182E+02</pdfrwt>
<totfact> 0.64460697E+05</totfact>
</mgrwt>
</event>
<event>
 4    1  0.2165211E+000  0.2118964E+02  0.7546771E-02  0.1722656E+00
          2   -1    0    0  501    0  0.00000000000E+00  0.00000000000E+00  0.31006352739E+02  0.31006352739E+02  0.00000000000E+00 0.  1.
         -2   -1    0    0    0  501 -0.00000000000E+00 -0.00000000000E+00 -0.36202334328E+01  0.36202334328E+01  0.00000000000E+00 0. -1.
        -11    1    1    2    0    0 -0.24537629422E+01 -0.10262577432E+02  0.12135240524E+02  0.16081216083E+02  0.00000000000E+00 0.  1.
         11    1    1    2    0    0  0.24537629422E+01  0.10262577432E+02  0.15250878781E+02  0.18545370088E+02  0.00000000000E+00 0. -1.
<mgrwt>
<rscale>  0 0.21189642E+02</rscale>
<asrwt>0</asrwt>
<pdfrwt beam="1">  1        2 0.47702080E-02 0.21189642E+02</pdfrwt>
<pdfrwt beam="2">  1       -2 0.55695901E-03 0.21189642E+02</pdfrwt>
<totfact> 0.38214384E+06</totfact>
</mgrwt>
</event>
<event>
 4    1  0.2165211E+000  0.2489161E+02  0.7546771E-02  0.1662564E+00
          2   -1    0    0  501    0  0.00000000000E+00  0.00000000000E+00  0.34300163874E+02  0.34300163874E+02  0.00000000000E+00 0. -1.
         -2   -1    0    0    0  501 -0.00000000000E+00 -0.00000000000E+00 -0.45159553516E+01  0.45159553516E+01  0.00000000000E+00 0.  1.
        -11    1    1    2    0    0  0.56577520088E+01 -0.85719639249E+01  0.39307683703E+01  0.10997257081E+02  0.00000000000E+00 0.  1.
         11    1    1    2    0    0 -0.56577520088E+01  0.85719639249E+01  0.25853440152E+02  0.27818862145E+02  0.00000000000E+00 0. -1.
<mgrwt>
<rscale>  0 0.24891606E+02</rscale>
<asrwt>0</asrwt>
<pdfrwt beam="1">  1        2 0.52769481E-02 0.24891606E+02</pdfrwt>
<pdfrwt beam="2">  1       -2 0.69476238E-03 0.24891606E+02</pdfrwt>
<totfact> 0.26727203E+06</totfact>
</mgrwt>
</event>
<event>
 4    1  0.2165211E+000  0.3954250E+02  0.7546771E-02  0.1511605E+00
          2   -1    0    0  501    0  0.00000000000E+00  0.00000000000E+00  0.73022924848E+01  0.73022924848E+01  0.00000000000E+00 0.  1.
         -2   -1    0    0    0  501 -0.00000000000E+00 -0.00000000000E+00 -0.53531445825E+02  0.53531445825E+02  0.00000000000E+00 0. -1.
        -11    1    1    2    0    0  0.12074186430E+02 -0.15590455338E+02 -0.20909719201E+02  0.28741340133E+02  0.00000000000E+00 0. -1.
         11    1    1    2    0    0 -0.12074186430E+02  0.15590455338E+02 -0.25319434139E+02  0.32092398176E+02  0.00000000000E+00 0.  1.
<mgrwt>
<rscale>  0 0.39542497E+02</rscale>
<asrwt>0</asrwt>
<pdfrwt beam="1">  1        2 0.11234296E-02 0.39542497E+02</pdfrwt>
<pdfrwt beam="2">  1       -2 0.82356072E-02 0.39542497E+02</pdfrwt>
<totfact> 0.70557296E+05</totfact>
</mgrwt>
</event>
<event>
 4    1  0.2165211E+000  0.3221893E+02  0.7546771E-02  0.1574782E+00
         -2   -1    0    0    0  501 -0.00000000000E+00  0.00000000000E+00  0.14997125065E+02  0.14997125065E+02  0.00000000000E+00 0.  1.
          2   -1    0    0  501    0  0.00000000000E+00 -0.00000000000E+00 -0.17304302565E+02  0.17304302565E+02  0.00000000000E+00 0. -1.
        -13    1    1    2    0    0 -0.15206467537E+01  0.14783852818E+02 -0.73856238809E+01  0.16595846191E+02  0.00000000000E+00 0. -1.
         13    1    1    2    0    0  0.15206467537E+01 -0.14783852818E+02  0.50784463813E+01  0.15705581439E+02  0.00000000000E+00 0.  1.
<mgrwt>
<rscale>  0 0.32218925E+02</rscale>
<asrwt>0</asrwt>
<pdfrwt beam="2">  1        2 0.26622004E-02 0.32218925E+02</pdfrwt>
<pdfrwt beam="1">  1       -2 0.23072500E-02 0.32218925E+02</pdfrwt>
<totfact> 0.13337562E+06</totfact>
</mgrwt>
</event>
<event>
 4    1  0.2165211E+000  0.2081779E+02  0.7546771E-02  0.1729538E+00
         -2   -1    0    0    0  501 -0.00000000000E+00  0.00000000000E+00  0.28870412355E+01  0.28870412355E+01  0.00000000000E+00 0.  1.
          2   -1    0    0  501    0  0.00000000000E+00 -0.00000000000E+00 -0.37528084372E+02  0.37528084372E+02  0.00000000000E+00 0. -1.
        -13    1    1    2    0    0  0.68361560002E+01  0.75794315208E+01 -0.21282217014E+02  0.23603253421E+02  0.00000000000E+00 0. -1.
         13    1    1    2    0    0 -0.68361560002E+01 -0.75794315208E+01 -0.13358826122E+02  0.16811872186E+02  0.00000000000E+00 0.  1.
<mgrwt>
<rscale>  0 0.20817793E+02</rscale>
<asrwt>0</asrwt>
<pdfrwt beam="2">  1        2 0.57735515E-02 0.20817793E+02</pdfrwt>
<pdfrwt beam="1">  1       -2 0.44416018E-03 0.20817793E+02</pdfrwt>
<totfact> 0.40697781E+06</totfact>
</mgrwt>
</event>
<event>
 4    1  0.2165211E+000  0.2366901E+02  0.7546771E-02  0.1680890E+00
          3   -1    0    0  501    0  0.00000000000E+00  0.00000000000E+00  0.84083276777E+01  0.84083276777E+01  0.00000000000E+00 0. -1.
         -3   -1    0    0    0  501 -0.00000000000E+00 -0.00000000000E+00 -0.16656756370E+02  0.16656756370E+02  0.00000000000E+00 0.  1.
        -11    1    1    2    0    0 -0.51696658279E+01  0.10632411255E+02 -0.46864255584E+01  0.12717554733E+02  0.00000000000E+00 0. -1.
         11    1    1    2    0    0  0.51696658279E+01 -0.10632411255E+02 -0.35620031339E+01  0.12347529315E+02  0.00000000000E+00 0.  1.
<mgrwt>
<rscale>  0 0.23669006E+02</rscale>
<asrwt>0</asrwt>
<pdfrwt beam="1">  1        3 0.12935889E-02 0.23669006E+02</pdfrwt>
<pdfrwt beam="2">  1       -3 0.25625779E-02 0.23669006E+02</pdfrwt>
<totfact> 0.12132867E+06</totfact>
</mgrwt>
</event>
<event>
 4    1  0.2165211E+000  0.2644920E+02  0.7546771E-02  0.1641018E+00
         -2   -1    0    0    0  501 -0.00000000000E+00  0.00000000000E+00  0.78457065427E+01  0.78457065427E+01  0.00000000000E+00 0.  1.
          2   -1    0    0  501    0  0.00000000000E+00 -0.00000000000E+00 -0.22291186099E+02  0.22291186099E+02  0.00000000000E+00 0. -1.
        -13    1    1    2    0    0  0.11854578136E+02  0.56168315467E+01 -0.91328615573E+01  0.15984022636E+02  0.00000000000E+00 0. -1.
         13    1    1    2    0    0 -0.11854578136E+02 -0.56168315467E+01 -0.53126179988E+01  0.14152870006E+02  0.00000000000E+00 0.  1.
<mgrwt>
<rscale>  0 0.26449204E+02</rscale>
<asrwt>0</asrwt>
<pdfrwt beam="2">  1        2 0.34294132E-02 0.26449204E+02</pdfrwt>
<pdfrwt beam="1">  1       -2 0.12070318E-02 0.26449204E+02</pdfrwt>
<totfact> 0.22068099E+06</totfact>
</mgrwt>
</event>
<event>
 4    1  0.2165211E+000  0.2719816E+02  0.7546771E-02  0.1631299E+00
         -2   -1    0    0    0  501 -0.00000000000E+00  0.00000000000E+00  0.72240888297E+02  0.72240888297E+02  0.00000000000E+00 0.  1.
          2   -1    0    0  501    0  0.00000000000E+00 -0.00000000000E+00 -0.25599768013E+01  0.25599768013E+01  0.00000000000E+00 0. -1.
        -13    1    1    2    0    0  0.10569292709E+02 -0.72567151541E+00  0.11391168379E+02  0.15556196983E+02  0.00000000000E+00 0. -1.
         13    1    1    2    0    0 -0.10569292709E+02  0.72567151541E+00  0.58289743117E+02  0.59244668116E+02  0.00000000000E+00 0.  1.
<mgrwt>
<rscale>  0 0.27198162E+02</rscale>
<asrwt>0</asrwt>
<pdfrwt beam="2">  1        2 0.39384264E-03 0.27198162E+02</pdfrwt>
<pdfrwt beam="1">  1       -2 0.11113981E-01 0.27198162E+02</pdfrwt>
<totfact> 0.16030393E+06</totfact>
</mgrwt>
</event>
<event>
 4    1  0.2165211E+000  0.2595580E+02  0.7546771E-02  0.1647641E+00
          1   -1    0    0  501    0  0.00000000000E+00  0.00000000000E+00  0.58785108909E+01  0.58785108909E+01  0.00000000000E+00 0.  1.
         -1   -1    0    0    0  501 -0.00000000000E+00 -0.00000000000E+00 -0.28651121175E+02  0.28651121175E+02  0.00000000000E+00 0. -1.
        -13    1    1    2    0    0 -0.41175078678E+01 -0.95275213477E+01 -0.10218594515E+01  0.10429368668E+02  0.00000000000E+00 0.  1.
         13    1    1    2    0    0  0.41175078678E+01  0.95275213477E+01 -0.21750750833E+02  0.24100263398E+02  0.00000000000E+00 0. -1.
<mgrwt>
<rscale>  0 0.25955803E+02</rscale>
<asrwt>0</asrwt>
<pdfrwt beam="1">  1        1 0.90438630E-03 0.25955803E+02</pdfrwt>
<pdfrwt beam="2">  1       -1 0.44078647E-02 0.25955803E+02</pdfrwt>
<totfact> 0.20389914E+06</totfact>
</mgrwt>
</event>
<event>
 4    1  0.2165211E+000  0.2116594E+02  0.7546771E-02  0.1723089E+00
         -2   -1    0    0    0  501 -0.00000000000E+00  0.00000000000E+00  0.22299515285E+01  0.22299515285E+01  0.00000000000E+00 0. -1.
          2   -1    0    0  501    0  0.00000000000E+00 -0.00000000000E+00 -0.50224966174E+02  0.50224966174E+02  0.00000000000E+00 0.  1.
        -13    1    1    2    0    0  0.92685462498E+01  0.43378053335E+01 -0.17312267867E+02  0.20110622154E+02  0.00000000000E+00 0.  1.
         13    1    1    2    0    0 -0.92685462498E+01 -0.43378053335E+01 -0.30682746778E+02  0.32344295549E+02  0.00000000000E+00 0. -1.
<mgrwt>
<rscale>  0 0.21165939E+02</rscale>
<asrwt>0</asrwt>
<pdfrwt beam="2">  1        2 0.77269177E-02 0.21165939E+02</pdfrwt>
<pdfrwt beam="1">  1       -2 0.34306947E-03 0.21165939E+02</pdfrwt>
<totfact> 0.40833283E+06</totfact>
</mgrwt>
</event>
<event>
 4    1  0.2165211E+000  0.2574859E+02  0.7546771E-02  0.1650477E+00
         -2   -1    0    0    0  501 -0.00000000000E+00  0.00000000000E+00  0.30821019498E+01  0.30821019498E+01  0.00000000000E+00 0. -1.
          2   -1    0    0  501    0  0.00000000000E+00 -0.00000000000E+00 -0.53777404768E+02  0.53777404768E+02  0.00000000000E+00 0.  1.
        -13    1    1    2    0    0 -0.10760123655E+02 -0.35552424703E+01 -0.38839260213E+02  0.40458721483E+02  0.00000000000E+00 0.  1.
         13    1    1    2    0    0  0.10760123655E+02  0.35552424703E+01 -0.11856042605E+02  0.16400785235E+02  0.00000000000E+00 0. -1.
<mgrwt>
<rscale>  0 0.25748588E+02</rscale>
<asrwt>0</asrwt>
<pdfrwt beam="2">  1        2 0.82734469E-02 0.25748588E+02</pdfrwt>
<pdfrwt beam="1">  1       -2 0.47416953E-03 0.25748588E+02</pdfrwt>
<totfact> 0.26364756E+06</totfact>
</mgrwt>
</event>
<event>
 4    1  0.2165211E+000  0.3853392E+02  0.7546771E-02  0.1519286E+00
          2   -1    0    0  501    0  0.00000000000E+00  0.00000000000E+00  0.68662198104E+01  0.68662198104E+01  0.00000000000E+00 0. -1.
         -2   -1    0    0    0  501 -0.00000000000E+00 -0.00000000000E+00 -0.54064066149E+02  0.54064066149E+02  0.00000000000E+00 0.  1.
        -13    1    1    2    0    0  0.72720778836E+01  0.16172631206E+02 -0.11684239152E+02  0.21235784926E+02  0.00000000000E+00 0. -1.
         13    1    1    2    0    0 -0.72720778836E+01 -0.16172631206E+02 -0.35513607186E+02  0.39694501033E+02  0.00000000000E+00 0.  1.
<mgrwt>
<rscale>  0 0.38533921E+02</rscale>
<asrwt>0</asrwt>
<pdfrwt beam="1">  1        2 0.10563415E-02 0.38533921E+02</pdfrwt>
<pdfrwt beam="2">  1       -2 0.83175487E-02 0.38533921E+02</pdfrwt>
<totfact> 0.74886984E+05</totfact>
</mgrwt>
</event>
<event>
 4    1  0.2165211E+000  0.3309503E+02  0.7546771E-02  0.1566198E+00
          4   -1    0    0  501    0  0.00000000000E+00  0.00000000000E+00  0.39294766670E+02  0.39294766670E+02  0.00000000000E+00 0.  1.
         -4   -1    0    0    0  501 -0.00000000000E+00 -0.00000000000E+00 -0.69683661147E+01  0.69683661147E+01  0.00000000000E+00 0. -1.
        -11    1    1    2    0    0 -0.55956466528E+01 -0.10434037692E+02  0.32394639634E-02  0.11839781016E+02  0.00000000000E+00 0. -1.
         11    1    1    2    0    0  0.55956466528E+01  0.10434037692E+02  0.32323161091E+02  0.34423351768E+02  0.00000000000E+00 0.  1.
<mgrwt>
<rscale>  0 0.33095034E+02</rscale>
<asrwt>0</asrwt>
<pdfrwt beam="1">  1        4 0.60453486E-02 0.33095034E+02</pdfrwt>
<pdfrwt beam="2">  1       -4 0.10720564E-02 0.33095034E+02</pdfrwt>
<totfact> 0.39205717E+05</totfact>
</mgrwt>
</event>
<event>
 4    1  0.2165211E+000  0.2962656E+02  0.7546771E-02  0.1602254E+00
         -2   -1    0    0    0  501 -0.00000000000E+00  0.00000000000E+00  0.13981674961E+03  0.13981674961E+03  0.00000000000E+00 0.  1.
          2   -1    0    0  501    0  0.00000000000E+00 -0.00000000000E+00 -0.15694350530E+01  0.15694350530E+01  0.00000000000E+00 0. -1.
        -11    1    1    2    0    0 -0.27794484882E+01  0.14448153339E+02  0.77332583930E+02  0.78719775191E+02  0.00000000000E+00 0.  1.
         11    1    1    2    0    0  0.27794484882E+01 -0.14448153339E+02  0.60914730629E+02  0.62666409474E+02  0.00000000000E+00 0. -1.
<mgrwt>
<rscale>  0 0.29626563E+02</rscale>
<asrwt>0</asrwt>
<pdfrwt beam="2">  1        2 0.24145166E-03 0.29626563E+02</pdfrwt>
<pdfrwt beam="1">  1       -2 0.21510259E-01 0.29626563E+02</pdfrwt>
<totfact> 0.11194789E+06</totfact>
</mgrwt>
</event>
<event>
 4    1  0.2165211E+000  0.4431806E+02  0.7546771E-02  0.1478644E+00
          3   -1    0    0  501    0  0.00000000000E+00  0.00000000000E+00  0.19332659215E+01  0.19332659215E+01  0.00000000000E+00 0. -1.
         -3   -1    0    0    0  501 -0.00000000000E+00 -0.00000000000E+00 -0.25398607508E+03  0.25398607508E+03  0.00000000000E+00 0.  1.
        -11    1    1    2    0    0  0.16260131735E+02 -0.15053163740E+02 -0.12707542756E+03  0.12899284443E+03  0.00000000000E+00 0. -1.
         11    1    1    2    0    0 -0.16260131735E+02  0.15053163740E+02 -0.12497738159E+03  0.12692649657E+03  0.00000000000E+00 0.  1.
<mgrwt>
<rscale>  0 0.44318061E+02</rscale>
<asrwt>0</asrwt>
<pdfrwt beam="1">  1        3 0.29742538E-03 0.44318061E+02</pdfrwt>
<pdfrwt beam="2">  1       -3 0.39074799E-01 0.44318061E+02</pdfrwt>
<totfact> 0.16486372E+05</totfact>
</mgrwt>
</event>
<event>
 4    1  0.2165211E+000  0.2018834E+02  0.7546771E-02  0.1741608E+00
          2   -1    0    0  501    0  0.00000000000E+00  0.00000000000E+00  0.28756188383E+01  0.28756188383E+01  0.00000000000E+00 0. -1.
         -2   -1    0    0    0  501 -0.00000000000E+00 -0.00000000000E+00 -0.35433178076E+02  0.35433178076E+02  0.00000000000E+00 0.  1.
        -13    1    1    2    0    0  0.10079431414E+02 -0.82958825775E-01 -0.17301523352E+02  0.20023599329E+02  0.00000000000E+00 0.  1.
         13    1    1    2    0    0 -0.10079431414E+02  0.82958825775E-01 -0.15256035886E+02  0.18285197585E+02  0.00000000000E+00 0. -1.
<mgrwt>
<rscale>  0 0.20188345E+02</rscale>
<asrwt>0</asrwt>
<pdfrwt beam="1">  1        2 0.44240289E-03 0.20188345E+02</pdfrwt>
<pdfrwt beam="2">  1       -2 0.54512582E-02 0.20188345E+02</pdfrwt>
<totfact> 0.34705995E+06</totfact>
</mgrwt>
</event>
<event>
 4    1  0.2165211E+000  0.2611852E+02  0.7546771E-02  0.1645437E+00
          2   -1    0    0  501    0  0.00000000000E+00  0.00000000000E+00  0.46066338798E+02  0.46066338798E+02  0.00000000000E+00 0.  1.
         -2   -1    0    0    0  501 -0.00000000000E+00 -0.00000000000E+00 -0.37021451431E+01  0.37021451431E+01  0.00000000000E+00 0. -1.
        -13    1    1    2    0    0 -0.10416408471E+02 -0.65163839117E+01  0.12750573128E+02  0.17707115514E+02  0.00000000000E+00 0.  1.
         13    1    1    2    0    0  0.10416408471E+02  0.65163839117E+01  0.29613620528E+02  0.32061368428E+02  0.00000000000E+00 0. -1.
<mgrwt>
<rscale>  0 0.26118520E+02</rscale>
<asrwt>0</asrwt>
<pdfrwt beam="1">  1        2 0.70871286E-02 0.26118520E+02</pdfrwt>
<pdfrwt beam="2">  1       -2 0.56956083E-03 0.26118520E+02</pdfrwt>
<totfact> 0.24885286E+06</totfact>
</mgrwt>
</event>
<event>
 4    1  0.2165211E+000  0.3895995E+02  0.7546771E-02  0.1516008E+00
          2   -1    0    0  501    0  0.00000000000E+00  0.00000000000E+00  0.21558091968E+01  0.21558091968E+01  0.00000000000E+00 0. -1.
         -2   -1    0    0    0  501 -0.00000000000E+00 -0.00000000000E+00 -0.17602178852E+03  0.17602178852E+03  0.00000000000E+00 0.  1.
        -13    1    1    2    0    0  0.15261699525E+02 -0.11248698701E+02 -0.66471798072E+02  0.69122736012E+02  0.00000000000E+00 0. -1.
         13    1    1    2    0    0 -0.15261699525E+02  0.11248698701E+02 -0.10739418125E+03  0.10905486171E+03  0.00000000000E+00 0.  1.
<mgrwt>
<rscale>  0 0.38959948E+02</rscale>
<asrwt>0</asrwt>
<pdfrwt beam="1">  1        2 0.33166291E-03 0.38959948E+02</pdfrwt>
<pdfrwt beam="2">  1       -2 0.27080279E-01 0.38959948E+02</pdfrwt>
<totfact> 0.54294896E+05</totfact>
</mgrwt>
</event>
<event>
 4    1  0.2165211E+000  0.1722319E+03  0.7546771E-02  0.1175540E+00
          2   -1    0    0  501    0  0.00000000000E+00  0.00000000000E+00  0.19353738643E+03  0.19353738643E+03  0.00000000000E+00 0. -1.
         -2   -1    0    0    0  501 -0.00000000000E+00 -0.00000000000E+00 -0.38317973921E+02  0.38317973921E+02  0.00000000000E+00 0.  1.
        -13    1    1    2    0    0  0.54206304641E+02  0.38366273891E+02  0.38067418177E+01  0.66519062820E+02  0.00000000000E+00 0.  1.
         13    1    1    2    0    0 -0.54206304641E+02 -0.38366273891E+02  0.15141267069E+03  0.16533629753E+03  0.00000000000E+00 0. -1.
<mgrwt>
<rscale>  0 0.17223194E+03</rscale>
<asrwt>0</asrwt>
<pdfrwt beam="1">  1        2 0.29774982E-01 0.17223194E+03</pdfrwt>
<pdfrwt beam="2">  1       -2 0.58950730E-02 0.17223194E+03</pdfrwt>
<totfact> 0.25514648E+04</totfact>
</mgrwt>
</event>
<event>
 4    1  0.2165211E+000  0.1153986E+03  0.7546771E-02  0.1250887E+00
         -2   -1    0    0    0  501 -0.00000000000E+00  0.00000000000E+00  0.10295802136E+03  0.10295802136E+03  0.00000000000E+00 0.  1.
          2   -1    0    0  501    0  0.00000000000E+00 -0.00000000000E+00 -0.32335616774E+02  0.32335616774E+02  0.00000000000E+00 0. -1.
        -13    1    1    2    0    0  0.10302669596E+02 -0.49152829044E+02  0.68617864127E+02  0.85032681254E+02  0.00000000000E+00 0.  1.
         13    1    1    2    0    0 -0.10302669596E+02  0.49152829044E+02  0.20045404578E+01  0.50260956878E+02  0.00000000000E+00 0. -1.
<mgrwt>
<rscale>  0 0.11539863E+03</rscale>
<asrwt>0</asrwt>
<pdfrwt beam="2">  1        2 0.49747103E-02 0.11539863E+03</pdfrwt>
<pdfrwt beam="1">  1       -2 0.15839695E-01 0.11539863E+03</pdfrwt>
<totfact> 0.44074392E+04</totfact>
</mgrwt>
</event>
<event>
 4    1  0.2165211E+000  0.3873287E+02  0.7546771E-02  0.1517749E+00
          4   -1    0    0  501    0  0.00000000000E+00  0.00000000000E+00  0.32053698139E+02  0.32053698139E+02  0.00000000000E+00 0. -1.
         -4   -1    0    0    0  501 -0.00000000000E+00 -0.00000000000E+00 -0.11700953376E+02  0.11700953376E+02  0.00000000000E+00 0.  1.
        -11    1    1    2    0    0  0.90527388369E+01  0.88205071855E+01  0.26752077001E+02  0.29587616520E+02  0.00000000000E+00 0. -1.
         11    1    1    2    0    0 -0.90527388369E+01 -0.88205071855E+01 -0.63993322377E+01  0.14167034995E+02  0.00000000000E+00 0.  1.
<mgrwt>
<rscale>  0 0.38732871E+02</rscale>
<asrwt>0</asrwt>
<pdfrwt beam="1">  1        4 0.49313381E-02 0.38732871E+02</pdfrwt>
<pdfrwt beam="2">  1       -4 0.18001467E-02 0.38732871E+02</pdfrwt>
<totfact> 0.27371731E+05</totfact>
</mgrwt>
</event>
<event>
 4    1  0.2165211E+000  0.2360732E+02  0.7546771E-02  0.1681851E+00
         -2   -1    0    0    0  501 -0.00000000000E+00  0.00000000000E+00  0.58304324067E+02  0.58304324067E+02  0.00000000000E+00 0.  1.
          2   -1    0    0  501    0  0.00000000000E+00 -0.00000000000E+00 -0.23896399583E+01  0.23896399583E+01  0.00000000000E+00 0. -1.
        -11    1    1    2    0    0  0.17805521045E+00  0.10985094566E+02  0.16862631644E+02  0.20125912458E+02  0.00000000000E+00 0. -1.
         11    1    1    2    0    0 -0.17805521045E+00 -0.10985094566E+02  0.39052052465E+02  0.40568051568E+02  0.00000000000E+00 0.  1.
<mgrwt>
<rscale>  0 0.23607316E+02</rscale>
<asrwt>0</asrwt>
<pdfrwt beam="2">  1        2 0.36763696E-03 0.23607316E+02</pdfrwt>
<pdfrwt beam="1">  1       -2 0.89698949E-02 0.23607316E+02</pdfrwt>
<totfact> 0.22936809E+06</totfact>
</mgrwt>
</event>
<event>
 4    1  0.2165211E+000  0.6584499E+02  0.7546771E-02  0.1374821E+00
         -4   -1    0    0    0  501 -0.00000000000E+00  0.00000000000E+00  0.19064045273E+03  0.19064045273E+03  0.00000000000E+00 0. -1.
          4   -1    0    0  501    0  0.00000000000E+00 -0.00000000000E+00 -0.56855238393E+01  0.56855238393E+01  0.00000000000E+00 0.  1.
        -11    1    1    2    0    0  0.26379809754E+02 -0.14510823401E+02  0.52760910466E+02  0.60746786184E+02  0.00000000000E+00 0.  1.
         11    1    1    2    0    0 -0.26379809754E+02  0.14510823401E+02  0.13219401843E+03  0.13557919039E+03  0.00000000000E+00 0. -1.
<mgrwt>
<rscale>  0 0.65844995E+02</rscale>
<asrwt>0</asrwt>
<pdfrwt beam="2">  1        4 0.87469612E-03 0.65844995E+02</pdfrwt>
<pdfrwt beam="1">  1       -4 0.29329296E-01 0.65844995E+02</pdfrwt>
<totfact> 0.50437931E+04</totfact>
</mgrwt>
</event>
<event>
 4    1  0.2165211E+000  0.3736768E+02  0.7546771E-02  0.1528527E+00
          2   -1    0    0  501    0  0.00000000000E+00  0.00000000000E+00  0.22297372746E+01  0.22297372746E+01  0.00000000000E+00 0.  1.
         -2   -1    0    0    0  501 -0.00000000000E+00 -0.00000000000E+00 -0.15655922925E+03  0.15655922925E+03  0.00000000000E+00 0. -1.
        -11    1    1    2    0    0  0.46282352925E+01  0.17035380057E+02 -0.10317323146E+03  0.10467253902E+03  0.00000000000E+00 0. -1.
         11    1    1    2    0    0 -0.46282352925E+01 -0.17035380057E+02 -0.51156260513E+02  0.54116427499E+02  0.00000000000E+00 0.  1.
<mgrwt>
<rscale>  0 0.37367684E+02</rscale>
<asrwt>0</asrwt>
<pdfrwt beam="1">  1        2 0.34303640E-03 0.37367684E+02</pdfrwt>
<pdfrwt beam="2">  1       -2 0.24086043E-01 0.37367684E+02</pdfrwt>
<totfact> 0.62541716E+05</totfact>
</mgrwt>
</event>
<event>
 4    1  0.2165211E+000  0.2960314E+02  0.7546771E-02  0.1602517E+00
          1   -1    0    0  501    0  0.00000000000E+00  0.00000000000E+00  0.24846431903E+01  0.24846431903E+01  0.00000000000E+00 0. -1.
         -1   -1    0    0    0  501 -0.00000000000E+00 -0.00000000000E+00 -0.88176256316E+02  0.88176256316E+02  0.00000000000E+00 0.  1.
        -13    1    1    2    0    0 -0.96352770680E+01  0.10794793989E+02 -0.33297549454E+02  0.36305549728E+02  0.00000000000E+00 0. -1.
         13    1    1    2    0    0  0.96352770680E+01 -0.10794793989E+02 -0.52394063672E+02  0.54355349778E+02  0.00000000000E+00 0.  1.
<mgrwt>
<rscale>  0 0.29603144E+02</rscale>
<asrwt>0</asrwt>
<pdfrwt beam="1">  1        1 0.38225280E-03 0.29603144E+02</pdfrwt>
<pdfrwt beam="2">  1       -1 0.13565578E-01 0.29603144E+02</pdfrwt>
<totfact> 0.13389128E+06</totfact>
</mgrwt>
</event>
<event>
 4    1  0.2165211E+000  0.3105325E+02  0.7546771E-02  0.1586730E+00
         -2   -1    0    0    0  501 -0.00000000000E+00  0.00000000000E+00  0.80461199644E+01  0.80461199644E+01  0.00000000000E+00 0.  1.
          2   -1    0    0  501    0  0.00000000000E+00 -0.00000000000E+00 -0.29961773068E+02  0.29961773068E+02  0.00000000000E+00 0. -1.
        -13    1    1    2    0    0 -0.10820196930E+02 -0.10117256721E+02 -0.16651600096E+02  0.22287021580E+02  0.00000000000E+00 0. -1.
         13    1    1    2    0    0  0.10820196930E+02  0.10117256721E+02 -0.52640530079E+01  0.15720871453E+02  0.00000000000E+00 0.  1.
<mgrwt>
<rscale>  0 0.31053246E+02</rscale>
<asrwt>0</asrwt>
<pdfrwt beam="2">  1        2 0.46095035E-02 0.31053246E+02</pdfrwt>
<pdfrwt beam="1">  1       -2 0.12378646E-02 0.31053246E+02</pdfrwt>
<totfact> 0.15551926E+06</totfact>
</mgrwt>
</event>
<event>
 4    1  0.2165211E+000  0.3424032E+02  0.7546771E-02  0.1555452E+00
          1   -1    0    0  501    0  0.00000000000E+00  0.00000000000E+00  0.33082602397E+02  0.33082602397E+02  0.00000000000E+00 0.  1.
         -1   -1    0    0    0  501 -0.00000000000E+00 -0.00000000000E+00 -0.88596403140E+01  0.88596403140E+01  0.00000000000E+00 0. -1.
        -11    1    1    2    0    0 -0.89996237800E+01 -0.84417315991E+01 -0.24257868084E+01  0.12575392726E+02  0.00000000000E+00 0. -1.
         11    1    1    2    0    0  0.89996237800E+01  0.84417315991E+01  0.26648748892E+02  0.29366849985E+02  0.00000000000E+00 0.  1.
<mgrwt>
<rscale>  0 0.34240325E+02</rscale>
<asrwt>0</asrwt>
<pdfrwt beam="1">  1        1 0.50896311E-02 0.34240325E+02</pdfrwt>
<pdfrwt beam="2">  1       -1 0.13630216E-02 0.34240325E+02</pdfrwt>
<totfact> 0.11586371E+06</totfact>
</mgrwt>
</event>
<event>
 4    1  0.2165211E+000  0.3711936E+02  0.7546771E-02  0.1530547E+00
          2   -1    0    0  501    0  0.00000000000E+00  0.00000000000E+00  0.26609298182E+02  0.26609298182E+02  0.00000000000E+00 0.  1.
         -2   -1    0    0    0  501 -0.00000000000E+00 -0.00000000000E+00 -0.12945164640E+02  0.12945164640E+02  0.00000000000E+00 0. -1.
        -11    1    1    2    0    0 -0.99892977028E+01 -0.10101444104E+01  0.23465538884E+02  0.25523283007E+02  0.00000000000E+00 0.  1.
         11    1    1    2    0    0  0.99892977028E+01  0.10101444104E+01 -0.98014053423E+01  0.14031179815E+02  0.00000000000E+00 0. -1.
<mgrwt>
<rscale>  0 0.37119361E+02</rscale>
<asrwt>0</asrwt>
<pdfrwt beam="1">  1        2 0.40937382E-02 0.37119361E+02</pdfrwt>
<pdfrwt beam="2">  1       -2 0.19915638E-02 0.37119361E+02</pdfrwt>
<totfact> 0.98808060E+05</totfact>
</mgrwt>
</event>
<event>
 4    1  0.2165211E+000  0.2329379E+02  0.7546771E-02  0.1686792E+00
          1   -1    0    0  501    0  0.00000000000E+00  0.00000000000E+00  0.10037731786E+02  0.10037731786E+02  0.00000000000E+00 0.  1.
         -1   -1    0    0    0  501 -0.00000000000E+00 -0.00000000000E+00 -0.13514026188E+02  0.13514026188E+02  0.00000000000E+00 0. -1.
        -11    1    1    2    0    0  0.98332407453E+01  0.47611988453E+01 -0.58187482624E+01  0.12378185220E+02  0.00000000000E+00 0. -1.
         11    1    1    2    0    0 -0.98332407453E+01 -0.47611988453E+01  0.23424538599E+01  0.11173572754E+02  0.00000000000E+00 0.  1.
<mgrwt>
<rscale>  0 0.23293791E+02</rscale>
<asrwt>0</asrwt>
<pdfrwt beam="1">  1        1 0.15442664E-02 0.23293791E+02</pdfrwt>
<pdfrwt beam="2">  1       -1 0.20790810E-02 0.23293791E+02</pdfrwt>
<totfact> 0.27196696E+06</totfact>
</mgrwt>
</event>
<event>
 4    1  0.2165211E+000  0.2126301E+02  0.7546771E-02  0.1721319E+00
         -2   -1    0    0    0  501 -0.00000000000E+00  0.00000000000E+00  0.58960876835E+01  0.58960876835E+01  0.00000000000E+00 0. -1.
          2   -1    0    0  501    0  0.00000000000E+00 -0.00000000000E+00 -0.19170154258E+02  0.19170154258E+02  0.00000000000E+00 0.  1.
        -11    1    1    2    0    0  0.77403147029E+01  0.68740066200E+01 -0.37822121190E+01  0.11021323297E+02  0.00000000000E+00 0. -1.
         11    1    1    2    0    0 -0.77403147029E+01 -0.68740066200E+01 -0.94918544554E+01  0.14044918644E+02  0.00000000000E+00 0.  1.
<mgrwt>
<rscale>  0 0.21263011E+02</rscale>
<asrwt>0</asrwt>
<pdfrwt beam="2">  1        2 0.29492545E-02 0.21263011E+02</pdfrwt>
<pdfrwt beam="1">  1       -2 0.90709042E-03 0.21263011E+02</pdfrwt>
<totfact> 0.36131365E+06</totfact>
</mgrwt>
</event>
<event>
 4    1  0.2165211E+000  0.2585418E+02  0.7546771E-02  0.1649028E+00
          3   -1    0    0  501    0  0.00000000000E+00  0.00000000000E+00  0.12543046861E+02  0.12543046861E+02  0.00000000000E+00 0. -1.
         -3   -1    0    0    0  501 -0.00000000000E+00 -0.00000000000E+00 -0.13322888663E+02  0.13322888663E+02  0.00000000000E+00 0.  1.
        -13    1    1    2    0    0 -0.88862736902E+01 -0.91562527443E+01  0.16863042242E+01  0.12870370871E+02  0.00000000000E+00 0. -1.
         13    1    1    2    0    0  0.88862736902E+01  0.91562527443E+01 -0.24661460260E+01  0.12995564652E+02  0.00000000000E+00 0.  1.
<mgrwt>
<rscale>  0 0.25854177E+02</rscale>
<asrwt>0</asrwt>
<pdfrwt beam="1">  1        3 0.19296995E-02 0.25854177E+02</pdfrwt>
<pdfrwt beam="2">  1       -3 0.20496752E-02 0.25854177E+02</pdfrwt>
<totfact> 0.99155933E+05</totfact>
</mgrwt>
</event>
<event>
 4    1  0.2165211E+000  0.5191588E+02  0.7546771E-02  0.1435273E+00
         -2   -1    0    0    0  501 -0.00000000000E+00  0.00000000000E+00  0.98413819142E+02  0.98413819142E+02  0.00000000000E+00 0.  1.
          2   -1    0    0  501    0  0.00000000000E+00 -0.00000000000E+00 -0.68467487728E+01  0.68467487728E+01  0.00000000000E+00 0. -1.
        -13    1    1    2    0    0 -0.22682307037E+02 -0.86883892758E+01  0.27218751055E+02  0.36480619098E+02  0.00000000000E+00 0. -1.
         13    1    1    2    0    0  0.22682307037E+02  0.86883892758E+01  0.64348319314E+02  0.68779948817E+02  0.00000000000E+00 0.  1.
<mgrwt>
<rscale>  0 0.51915882E+02</rscale>
<asrwt>0</asrwt>
<pdfrwt beam="2">  1        2 0.10533460E-02 0.51915882E+02</pdfrwt>
<pdfrwt beam="1">  1       -2 0.15140587E-01 0.51915882E+02</pdfrwt>
<totfact> 0.32332714E+05</totfact>
</mgrwt>
</event>
<event>
 4    1  0.2165211E+000  0.5104781E+02  0.7546771E-02  0.1439771E+00
         -2   -1    0    0    0  501 -0.00000000000E+00  0.00000000000E+00  0.68494307875E+02  0.68494307875E+02  0.00000000000E+00 0.  1.
          2   -1    0    0  501    0  0.00000000000E+00 -0.00000000000E+00 -0.95112978200E+01  0.95112978200E+01  0.00000000000E+00 0. -1.
        -11    1    1    2    0    0 -0.15743885119E+02 -0.17424305471E+02  0.44771893691E+02  0.50556886816E+02  0.00000000000E+00 0. -1.
         11    1    1    2    0    0  0.15743885119E+02  0.17424305471E+02  0.14211116364E+02  0.27448718879E+02  0.00000000000E+00 0.  1.
<mgrwt>
<rscale>  0 0.51047811E+02</rscale>
<asrwt>0</asrwt>
<pdfrwt beam="2">  1        2 0.14632766E-02 0.51047811E+02</pdfrwt>
<pdfrwt beam="1">  1       -2 0.10537586E-01 0.51047811E+02</pdfrwt>
<totfact> 0.36556390E+05</totfact>
</mgrwt>
</event>
<event>
 4    1  0.2165211E+000  0.3774169E+02  0.7546771E-02  0.1525520E+00
         -2   -1    0    0    0  501 -0.00000000000E+00  0.00000000000E+00  0.72508049296E+01  0.72508049296E+01  0.00000000000E+00 0. -1.
          2   -1    0    0  501    0  0.00000000000E+00 -0.00000000000E+00 -0.49113009800E+02  0.49113009800E+02  0.00000000000E+00 0.  1.
        -13    1    1    2    0    0  0.97901853089E+01 -0.74226653352E+01 -0.42322088697E+02  0.44069296350E+02  0.00000000000E+00 0.  1.
         13    1    1    2    0    0 -0.97901853089E+01  0.74226653352E+01  0.45988382680E+00  0.12294518380E+02  0.00000000000E+00 0. -1.
<mgrwt>
<rscale>  0 0.37741693E+02</rscale>
<asrwt>0</asrwt>
<pdfrwt beam="2">  1        2 0.75558477E-02 0.37741693E+02</pdfrwt>
<pdfrwt beam="1">  1       -2 0.11155084E-02 0.37741693E+02</pdfrwt>
<totfact> 0.10387966E+06</totfact>
</mgrwt>
</event>
<event>
 4    1  0.2165211E+000  0.2905127E+02  0.7546771E-02  0.1608819E+00
         -2   -1    0    0    0  501 -0.00000000000E+00  0.00000000000E+00  0.71601101113E+02  0.71601101113E+02  0.00000000000E+00 0.  1.
          2   -1    0    0  501    0  0.00000000000E+00 -0.00000000000E+00 -0.29468001159E+01  0.29468001159E+01  0.00000000000E+00 0. -1.
        -13    1    1    2    0    0  0.10922823777E+02  0.85400107428E+01  0.23214431788E+02  0.27039780065E+02  0.00000000000E+00 0. -1.
         13    1    1    2    0    0 -0.10922823777E+02 -0.85400107428E+01  0.45439869209E+02  0.47508121164E+02  0.00000000000E+00 0.  1.
<mgrwt>
<rscale>  0 0.29051274E+02</rscale>
<asrwt>0</asrwt>
<pdfrwt beam="2">  1        2 0.45335392E-03 0.29051274E+02</pdfrwt>
<pdfrwt beam="1">  1       -2 0.11015553E-01 0.29051274E+02</pdfrwt>
<totfact> 0.13802826E+06</totfact>
</mgrwt>
</event>
<event>
 4    1  0.2165211E+000  0.2942770E+02  0.7546771E-02  0.1604502E+00
          2   -1    0    0  501    0  0.00000000000E+00  0.00000000000E+00  0.32186371144E+01  0.32186371144E+01  0.00000000000E+00 0.  1.
         -2   -1    0    0    0  501 -0.00000000000E+00 -0.00000000000E+00 -0.67263667963E+02  0.67263667963E+02  0.00000000000E+00 0. -1.
        -11    1    1    2    0    0  0.14433568488E+02  0.11034830735E+01 -0.38337486013E+02  0.40979365637E+02  0.00000000000E+00 0. -1.
         11    1    1    2    0    0 -0.14433568488E+02 -0.11034830735E+01 -0.25707544835E+02  0.29502939441E+02  0.00000000000E+00 0.  1.
<mgrwt>
<rscale>  0 0.29427697E+02</rscale>
<asrwt>0</asrwt>
<pdfrwt beam="1">  1        2 0.49517499E-03 0.29427697E+02</pdfrwt>
<pdfrwt beam="2">  1       -2 0.10348256E-01 0.29427697E+02</pdfrwt>
<totfact> 0.13555162E+06</totfact>
</mgrwt>
</event>
<event>
 4    1  0.2165211E+000  0.3268104E+02  0.7546771E-02  0.1570213E+00
          2   -1    0    0  501    0  0.00000000000E+00  0.00000000000E+00  0.95977505722E+01  0.95977505722E+01  0.00000000000E+00 0. -1.
         -2   -1    0    0    0  501 -0.00000000000E+00 -0.00000000000E+00 -0.27820335682E+02  0.27820335682E+02  0.00000000000E+00 0.  1.
        -13    1    1    2    0    0  0.70560718414E+01  0.11778547675E+02  0.10323439721E+01  0.13769098345E+02  0.00000000000E+00 0. -1.
         13    1    1    2    0    0 -0.70560718414E+01 -0.11778547675E+02 -0.19254929082E+02  0.23648987909E+02  0.00000000000E+00 0.  1.
<mgrwt>
<rscale>  0 0.32681043E+02</rscale>
<asrwt>0</asrwt>
<pdfrwt beam="1">  1        2 0.14765770E-02 0.32681043E+02</pdfrwt>
<pdfrwt beam="2">  1       -2 0.42800516E-02 0.32681043E+02</pdfrwt>
<totfact> 0.12057600E+06</totfact>
</mgrwt>
</event>
<event>
 4    1  0.2165211E+000  0.2450535E+02  0.7546771E-02  0.1668210E+00
         -4   -1    0    0    0  501 -0.00000000000E+00  0.00000000000E+00  0.14485312876E+02  0.14485312876E+02  0.00000000000E+00 0. -1.
          4   -1    0    0  501    0  0.00000000000E+00 -0.00000000000E+00 -0.10364157231E+02  0.10364157231E+02  0.00000000000E+00 0.  1.
        -11    1    1    2    0    0 -0.98905231998E+01  0.42363956889E+01  0.80045079195E+01  0.13410505010E+02  0.00000000000E+00 0. -1.
         11    1    1    2    0    0  0.98905231998E+01 -0.42363956889E+01 -0.38833522744E+01  0.11438965097E+02  0.00000000000E+00 0.  1.
<mgrwt>
<rscale>  0 0.24505351E+02</rscale>
<asrwt>0</asrwt>
<pdfrwt beam="2">  1        4 0.15944857E-02 0.24505351E+02</pdfrwt>
<pdfrwt beam="1">  1       -4 0.22285097E-02 0.24505351E+02</pdfrwt>
<totfact> 0.83098289E+05</totfact>
</mgrwt>
</event>
<event>
 4    1  0.2165211E+000  0.3660076E+02  0.7546771E-02  0.1534828E+00
         -3   -1    0    0    0  501 -0.00000000000E+00  0.00000000000E+00  0.33386966178E+01  0.33386966178E+01  0.00000000000E+00 0.  1.
          3   -1    0    0  501    0  0.00000000000E+00 -0.00000000000E+00 -0.10030977781E+03  0.10030977781E+03  0.00000000000E+00 0. -1.
        -11    1    1    2    0    0  0.35685183400E+01  0.16287461019E+02 -0.69844688652E+02  0.71807355072E+02  0.00000000000E+00 0. -1.
         11    1    1    2    0    0 -0.35685183400E+01 -0.16287461019E+02 -0.27126392541E+02  0.31841119356E+02  0.00000000000E+00 0.  1.
<mgrwt>
<rscale>  0 0.36600760E+02</rscale>
<asrwt>0</asrwt>
<pdfrwt beam="2">  1        3 0.15432270E-01 0.36600760E+02</pdfrwt>
<pdfrwt beam="1">  1       -3 0.51364575E-03 0.36600760E+02</pdfrwt>
<totfact> 0.35568865E+05</totfact>
</mgrwt>
</event>
<event>
 4    1  0.2165211E+000  0.2144357E+02  0.7546771E-02  0.1718057E+00
          2   -1    0    0  501    0  0.00000000000E+00  0.00000000000E+00  0.43658381103E+01  0.43658381103E+01  0.00000000000E+00 0.  1.
         -2   -1    0    0    0  501 -0.00000000000E+00 -0.00000000000E+00 -0.26330943499E+02  0.26330943499E+02  0.00000000000E+00 0. -1.
        -11    1    1    2    0    0 -0.10443475021E+02  0.16303223576E+01 -0.13556301186E+02  0.17190038492E+02  0.00000000000E+00 0.  1.
         11    1    1    2    0    0  0.10443475021E+02 -0.16303223576E+01 -0.84088042019E+01  0.13506743117E+02  0.00000000000E+00 0. -1.
<mgrwt>
<rscale>  0 0.21443567E+02</rscale>
<asrwt>0</asrwt>
<pdfrwt beam="1">  1        2 0.67166738E-03 0.21443567E+02</pdfrwt>
<pdfrwt beam="2">  1       -2 0.40509145E-02 0.21443567E+02</pdfrwt>
<totfact> 0.31358269E+06</totfact>
</mgrwt>
</event>
<event>
 4    1  0.2165211E+000  0.7976061E+02  0.7546771E-02  0.1329732E+00
          1   -1    0    0  501    0  0.00000000000E+00  0.00000000000E+00  0.33584055940E+02  0.33584055940E+02  0.00000000000E+00 0. -1.
         -1   -1    0    0    0  501 -0.00000000000E+00 -0.00000000000E+00 -0.47356962216E+02  0.47356962216E+02  0.00000000000E+00 0.  1.
        -13    1    1    2    0    0 -0.15723156860E+02 -0.67379726373E+01 -0.43444885447E+02  0.46691284073E+02  0.00000000000E+00 0.  1.
         13    1    1    2    0    0  0.15723156860E+02  0.67379726373E+01  0.29671979171E+02  0.34249734084E+02  0.00000000000E+00 0. -1.
<mgrwt>
<rscale>  0 0.79760614E+02</rscale>
<asrwt>0</asrwt>
<pdfrwt beam="1">  1        1 0.51667779E-02 0.79760614E+02</pdfrwt>
<pdfrwt beam="2">  1       -1 0.72856864E-02 0.79760614E+02</pdfrwt>
<totfact> 0.12862441E+05</totfact>
</mgrwt>
</event>
<event>
 4    1  0.2165211E+000  0.2208563E+02  0.7546771E-02  0.1706775E+00
          2   -1    0    0  501    0  0.00000000000E+00  0.00000000000E+00  0.49360129101E+02  0.49360129101E+02  0.00000000000E+00 0.  1.
         -2   -1    0    0    0  501 -0.00000000000E+00 -0.00000000000E+00 -0.24704903353E+01  0.24704903353E+01  0.00000000000E+00 0. -1.
        -13    1    1    2    0    0  0.55345153866E+01  0.90898280128E+01  0.30362074413E+02  0.32173147134E+02  0.00000000000E+00 0. -1.
         13    1    1    2    0    0 -0.55345153866E+01 -0.90898280128E+01  0.16527564352E+02  0.19657472301E+02  0.00000000000E+00 0.  1.
<mgrwt>
<rscale>  0 0.22085626E+02</rscale>
<asrwt>0</asrwt>
<pdfrwt beam="1">  1        2 0.75938653E-02 0.22085626E+02</pdfrwt>
<pdfrwt beam="2">  1       -2 0.38007547E-03 0.22085626E+02</pdfrwt>
<totfact> 0.36992714E+06</totfact>
</mgrwt>
</event>
<event>
 4    1  0.2165211E+000  0.2464092E+02  0.7546771E-02  0.1666214E+00
          2   -1    0    0  501    0  0.00000000000E+00  0.00000000000E+00  0.83651012163E+02  0.83651012163E+02  0.00000000000E+00 0. -1.
         -2   -1    0    0    0  501 -0.00000000000E+00 -0.00000000000E+00 -0.18146071240E+01  0.18146071240E+01  0.00000000000E+00 0.  1.
        -13    1    1    2    0    0 -0.10561385642E+02  0.43540175479E+01  0.56923248168E+02  0.58058216624E+02  0.00000000000E+00 0. -1.
         13    1    1    2    0    0  0.10561385642E+02 -0.43540175479E+01  0.24913156871E+02  0.27407402664E+02  0.00000000000E+00 0.  1.
<mgrwt>
<rscale>  0 0.24640919E+02</rscale>
<asrwt>0</asrwt>
<pdfrwt beam="1">  1        2 0.12869384E-01 0.24640919E+02</pdfrwt>
<pdfrwt beam="2">  1       -2 0.27917039E-03 0.24640919E+02</pdfrwt>
<totfact> 0.31718442E+06</totfact>
</mgrwt>
</event>
<event>
 4    1  0.2165211E+000  0.2422743E+02  0.7546771E-02  0.1672353E+00
         -2   -1    0    0    0  501 -0.00000000000E+00  0.00000000000E+00  0.97747023885E+02  0.97747023885E+02  0.00000000000E+00 0. -1.
          2   -1    0    0  501    0  0.00000000000E+00 -0.00000000000E+00 -0.15012431394E+01  0.15012431394E+01  0.00000000000E+00 0.  1.
        -11    1    1    2    0    0  0.87545190500E+01  0.74721704056E+01  0.63596218044E+02  0.64629357756E+02  0.00000000000E+00 0.  1.
         11    1    1    2    0    0 -0.87545190500E+01 -0.74721704056E+01  0.32649562701E+02  0.34618909268E+02  0.00000000000E+00 0. -1.
<mgrwt>
<rscale>  0 0.24227427E+02</rscale>
<asrwt>0</asrwt>
<pdfrwt beam="2">  1        2 0.23096056E-03 0.24227427E+02</pdfrwt>
<pdfrwt beam="1">  1       -2 0.15037999E-01 0.24227427E+02</pdfrwt>
<totfact> 0.19544915E+06</totfact>
</mgrwt>
</event>
<event>
 4    1  0.2165211E+000  0.1157006E+03  0.7546771E-02  0.1250363E+00
          2   -1    0    0  501    0  0.00000000000E+00  0.00000000000E+00  0.47417505773E+03  0.47417505773E+03  0.00000000000E+00 0. -1.
         -2   -1    0    0    0  501 -0.00000000000E+00 -0.00000000000E+00 -0.70578497638E+01  0.70578497638E+01  0.00000000000E+00 0.  1.
        -11    1    1    2    0    0  0.22572761824E+02 -0.51007996326E+02  0.29736157883E+03  0.30254793641E+03  0.00000000000E+00 0.  1.
         11    1    1    2    0    0 -0.22572761824E+02  0.51007996326E+02  0.16975562914E+03  0.17868497108E+03  0.00000000000E+00 0. -1.
<mgrwt>
<rscale>  0 0.11570058E+03</rscale>
<asrwt>0</asrwt>
<pdfrwt beam="1">  1        2 0.72949984E-01 0.11570058E+03</pdfrwt>
<pdfrwt beam="2">  1       -2 0.10858234E-02 0.11570058E+03</pdfrwt>
<totfact> 0.11177981E+05</totfact>
</mgrwt>
</event>
<event>
 4    1  0.2165211E+000  0.3303771E+02  0.7546771E-02  0.1566750E+00
          1   -1    0    0  501    0  0.00000000000E+00  0.00000000000E+00  0.33589852487E+02  0.33589852487E+02  0.00000000000E+00 0.  1.
         -1   -1    0    0    0  501 -0.00000000000E+00 -0.00000000000E+00 -0.81236604481E+01  0.81236604481E+01  0.00000000000E+00 0. -1.
        -11    1    1    2    0    0  0.47472159443E+01 -0.11916182196E+02  0.25875156409E+02  0.28880013444E+02  0.00000000000E+00 0.  1.
         11    1    1    2    0    0 -0.47472159443E+01  0.11916182196E+02 -0.40896436970E+00  0.12833499491E+02  0.00000000000E+00 0. -1.
<mgrwt>
<rscale>  0 0.33037709E+02</rscale>
<asrwt>0</asrwt>
<pdfrwt beam="1">  1        1 0.51676695E-02 0.33037709E+02</pdfrwt>
<pdfrwt beam="2">  1       -1 0.12497939E-02 0.33037709E+02</pdfrwt>
<totfact> 0.12649919E+06</totfact>
</mgrwt>
</event>
<event>
 4    1  0.2165211E+000  0.7625332E+02  0.7546771E-02  0.1340033E+00
         -4   -1    0    0    0  501 -0.00000000000E+00  0.00000000000E+00  0.10901969056E+03  0.10901969056E+03  0.00000000000E+00 0.  1.
          4   -1    0    0  501    0  0.00000000000E+00 -0.00000000000E+00 -0.13333758510E+02  0.13333758510E+02  0.00000000000E+00 0. -1.
        -13    1    1    2    0    0 -0.59254712943E+01  0.36979738698E+02  0.36380712895E+02  0.52212724071E+02  0.00000000000E+00 0. -1.
         13    1    1    2    0    0  0.59254712943E+01 -0.36979738698E+02  0.59305219155E+02  0.70140724998E+02  0.00000000000E+00 0.  1.
<mgrwt>
<rscale>  0 0.76253321E+02</rscale>
<asrwt>0</asrwt>
<pdfrwt beam="2">  1        4 0.20513475E-02 0.76253321E+02</pdfrwt>
<pdfrwt beam="1">  1       -4 0.16772260E-01 0.76253321E+02</pdfrwt>
<totfact> 0.40477348E+04</totfact>
</mgrwt>
</event>
<event>
 4    1  0.2165211E+000  0.2880312E+02  0.7546771E-02  0.1611708E+00
          2   -1    0    0  501    0  0.00000000000E+00  0.00000000000E+00  0.30849646801E+01  0.30849646801E+01  0.00000000000E+00 0. -1.
         -2   -1    0    0    0  501 -0.00000000000E+00 -0.00000000000E+00 -0.67230871008E+02  0.67230871008E+02  0.00000000000E+00 0.  1.
        -11    1    1    2    0    0  0.12492720923E+02 -0.40003069144E+01 -0.17561459502E+02  0.21919748888E+02  0.00000000000E+00 0. -1.
         11    1    1    2    0    0 -0.12492720923E+02  0.40003069144E+01 -0.46584446827E+02  0.48396086801E+02  0.00000000000E+00 0.  1.
<mgrwt>
<rscale>  0 0.28803115E+02</rscale>
<asrwt>0</asrwt>
<pdfrwt beam="1">  1        2 0.47461000E-03 0.28803115E+02</pdfrwt>
<pdfrwt beam="2">  1       -2 0.10343210E-01 0.28803115E+02</pdfrwt>
<totfact> 0.14243102E+06</totfact>
</mgrwt>
</event>
<event>
 4    1  0.2165211E+000  0.2494897E+02  0.7546771E-02  0.1661736E+00
         -2   -1    0    0    0  501 -0.00000000000E+00  0.00000000000E+00  0.16620536720E+02  0.16620536720E+02  0.00000000000E+00 0.  1.
          2   -1    0    0  501    0  0.00000000000E+00 -0.00000000000E+00 -0.93626791547E+01  0.93626791547E+01  0.00000000000E+00 0. -1.
        -11    1    1    2    0    0  0.26404714302E+01 -0.11726789210E+02  0.71023128476E+01  0.13961823747E+02  0.00000000000E+00 0. -1.
         11    1    1    2    0    0 -0.26404714302E+01  0.11726789210E+02  0.15554471792E+00  0.12021392128E+02  0.00000000000E+00 0.  1.
<mgrwt>
<rscale>  0 0.24948968E+02</rscale>
<asrwt>0</asrwt>
<pdfrwt beam="2">  1        2 0.14404122E-02 0.24948968E+02</pdfrwt>
<pdfrwt beam="1">  1       -2 0.25570056E-02 0.24948968E+02</pdfrwt>
<totfact> 0.23394676E+06</totfact>
</mgrwt>
</event>
<event>
 4    1  0.2165211E+000  0.2705167E+02  0.7546771E-02  0.1633169E+00
         -1   -1    0    0    0  501 -0.00000000000E+00  0.00000000000E+00  0.49243468326E+02  0.49243468326E+02  0.00000000000E+00 0.  1.
          1   -1    0    0  501    0  0.00000000000E+00 -0.00000000000E+00 -0.37151770629E+01  0.37151770629E+01  0.00000000000E+00 0. -1.
        -11    1    1    2    0    0  0.57224629996E+01 -0.11174620241E+02  0.12911429602E+02  0.18008990385E+02  0.00000000000E+00 0. -1.
         11    1    1    2    0    0 -0.57224629996E+01  0.11174620241E+02  0.32616861661E+02  0.34949655004E+02  0.00000000000E+00 0.  1.
<mgrwt>
<rscale>  0 0.27051669E+02</rscale>
<asrwt>0</asrwt>
<pdfrwt beam="2">  1        1 0.57156574E-03 0.27051669E+02</pdfrwt>
<pdfrwt beam="1">  1       -1 0.75759178E-02 0.27051669E+02</pdfrwt>
<totfact> 0.17719280E+06</totfact>
</mgrwt>
</event>
<event>
 4    1  0.2165211E+000  0.2425716E+02  0.7546771E-02  0.1671907E+00
          1   -1    0    0  501    0  0.00000000000E+00  0.00000000000E+00  0.17818332172E+01  0.17818332172E+01  0.00000000000E+00 0.  1.
         -1   -1    0    0    0  501 -0.00000000000E+00 -0.00000000000E+00 -0.82556826301E+02  0.82556826301E+02  0.00000000000E+00 0. -1.
        -13    1    1    2    0    0  0.87832506622E+01 -0.78735494396E+01 -0.30575477804E+02  0.32771910471E+02  0.00000000000E+00 0. -1.
         13    1    1    2    0    0 -0.87832506622E+01  0.78735494396E+01 -0.50199515280E+02  0.51566749047E+02  0.00000000000E+00 0.  1.
<mgrwt>
<rscale>  0 0.24257164E+02</rscale>
<asrwt>0</asrwt>
<pdfrwt beam="1">  1        1 0.27412816E-03 0.24257164E+02</pdfrwt>
<pdfrwt beam="2">  1       -1 0.12701052E-01 0.24257164E+02</pdfrwt>
<totfact> 0.21362036E+06</totfact>
</mgrwt>
</event>
<event>
 4    1  0.2165211E+000  0.2292371E+02  0.7546771E-02  0.1692750E+00
          2   -1    0    0  501    0  0.00000000000E+00  0.00000000000E+00  0.69312085505E+02  0.69312085505E+02  0.00000000000E+00 0. -1.
         -2   -1    0    0    0  501 -0.00000000000E+00 -0.00000000000E+00 -0.18954007142E+01  0.18954007142E+01  0.00000000000E+00 0.  1.
        -11    1    1    2    0    0  0.56019487206E+01 -0.97556908574E+01  0.26889478295E+02  0.29147888029E+02  0.00000000000E+00 0.  1.
         11    1    1    2    0    0 -0.56019487206E+01  0.97556908574E+01  0.40527206496E+02  0.42059598190E+02  0.00000000000E+00 0. -1.
<mgrwt>
<rscale>  0 0.22923715E+02</rscale>
<asrwt>0</asrwt>
<pdfrwt beam="1">  1        2 0.10663396E-01 0.22923715E+02</pdfrwt>
<pdfrwt beam="2">  1       -2 0.29160016E-03 0.22923715E+02</pdfrwt>
<totfact> 0.36017889E+06</totfact>
</mgrwt>
</event>
<event>
 4    1  0.2165211E+000  0.2695550E+02  0.7546771E-02  0.1634405E+00
          1   -1    0    0  501    0  0.00000000000E+00  0.00000000000E+00  0.11836061305E+02  0.11836061305E+02  0.00000000000E+00 0. -1.
         -1   -1    0    0    0  501 -0.00000000000E+00 -0.00000000000E+00 -0.15347146144E+02  0.15347146144E+02  0.00000000000E+00 0.  1.
        -11    1    1    2    0    0 -0.72594498956E+01  0.10814239638E+02 -0.52492520591E+01  0.14042864341E+02  0.00000000000E+00 0.  1.
         11    1    1    2    0    0  0.72594498956E+01 -0.10814239638E+02  0.17381672203E+01  0.13140343109E+02  0.00000000000E+00 0. -1.
<mgrwt>
<rscale>  0 0.26955501E+02</rscale>
<asrwt>0</asrwt>
<pdfrwt beam="1">  1        1 0.18209325E-02 0.26955501E+02</pdfrwt>
<pdfrwt beam="2">  1       -1 0.23610994E-02 0.26955501E+02</pdfrwt>
<totfact> 0.19422766E+06</totfact>
</mgrwt>
</event>
<event>
 4    1  0.2165211E+000  0.2487674E+02  0.7546771E-02  0.1662779E+00
          3   -1    0    0  501    0  0.00000000000E+00  0.00000000000E+00  0.61635480279E+01  0.61635480279E+01  0.00000000000E+00 0. -1.
         -3   -1    0    0    0  501 -0.00000000000E+00 -0.00000000000E+00 -0.25101287667E+02  0.25101287667E+02  0.00000000000E+00 0.  1.
        -11    1    1    2    0    0  0.10616102051E+02  0.64124488535E+01 -0.82819720663E+01  0.14913490013E+02  0.00000000000E+00 0. -1.
         11    1    1    2    0    0 -0.10616102051E+02 -0.64124488535E+01 -0.10655767573E+02  0.16351345682E+02  0.00000000000E+00 0.  1.
<mgrwt>
<rscale>  0 0.24876735E+02</rscale>
<asrwt>0</asrwt>
<pdfrwt beam="1">  1        3 0.94823815E-03 0.24876735E+02</pdfrwt>
<pdfrwt beam="2">  1       -3 0.38617366E-02 0.24876735E+02</pdfrwt>
<totfact> 0.10628227E+06</totfact>
</mgrwt>
</event>
<event>
 4    1  0.2165211E+000  0.2517360E+02  0.7546771E-02  0.1658521E+00
          3   -1    0    0  501    0  0.00000000000E+00  0.00000000000E+00  0.48767453027E+01  0.48767453027E+01  0.00000000000E+00 0.  1.
         -3   -1    0    0    0  501 -0.00000000000E+00 -0.00000000000E+00 -0.32486313531E+02  0.32486313531E+02  0.00000000000E+00 0. -1.
        -13    1    1    2    0    0 -0.11281708484E+02 -0.10808402194E+01 -0.56777935271E+01  0.12676060162E+02  0.00000000000E+00 0.  1.
         13    1    1    2    0    0  0.11281708484E+02  0.10808402194E+01 -0.21931774701E+02  0.24686998672E+02  0.00000000000E+00 0. -1.
<mgrwt>
<rscale>  0 0.25173595E+02</rscale>
<asrwt>0</asrwt>
<pdfrwt beam="1">  1        3 0.75026849E-03 0.25173595E+02</pdfrwt>
<pdfrwt beam="2">  1       -3 0.49978945E-02 0.25173595E+02</pdfrwt>
<totfact> 0.10147010E+06</totfact>
</mgrwt>
</event>
<event>
 4    1  0.2165211E+000  0.2118247E+02  0.7546771E-02  0.1722787E+00
          2   -1    0    0  501    0  0.00000000000E+00  0.00000000000E+00  0.55073545594E+01  0.55073545594E+01  0.00000000000E+00 0. -1.
         -2   -1    0    0    0  501 -0.00000000000E+00 -0.00000000000E+00 -0.20368078904E+02  0.20368078904E+02  0.00000000000E+00 0.  1.
        -13    1    1    2    0    0  0.31095805459E+00 -0.99975437818E+01 -0.11684206649E+02  0.15380775715E+02  0.00000000000E+00 0.  1.
         13    1    1    2    0    0 -0.31095805459E+00  0.99975437818E+01 -0.31765176954E+01  0.10494657748E+02  0.00000000000E+00 0. -1.
<mgrwt>
<rscale>  0 0.21182467E+02</rscale>
<asrwt>0</asrwt>
<pdfrwt beam="1">  1        2 0.84728530E-03 0.21182467E+02</pdfrwt>
<pdfrwt beam="2">  1       -2 0.31335507E-02 0.21182467E+02</pdfrwt>
<totfact> 0.32973953E+06</totfact>
</mgrwt>
</event>
<event>
 4    1  0.2165211E+000  0.2162304E+02  0.7546771E-02  0.1714854E+00
          2   -1    0    0  501    0  0.00000000000E+00  0.00000000000E+00  0.26507659074E+02  0.26507659074E+02  0.00000000000E+00 0.  1.
         -2   -1    0    0    0  501 -0.00000000000E+00 -0.00000000000E+00 -0.44096287903E+01  0.44096287903E+01  0.00000000000E+00 0. -1.
        -13    1    1    2    0    0 -0.88184098610E+01 -0.58397800014E+01  0.14253098046E+02  0.17748751698E+02  0.00000000000E+00 0.  1.
         13    1    1    2    0    0  0.88184098610E+01  0.58397800014E+01  0.78449322380E+01  0.13168536166E+02  0.00000000000E+00 0. -1.
<mgrwt>
<rscale>  0 0.21623037E+02</rscale>
<asrwt>0</asrwt>
<pdfrwt beam="1">  1        2 0.40781013E-02 0.21623037E+02</pdfrwt>
<pdfrwt beam="2">  1       -2 0.67840445E-03 0.21623037E+02</pdfrwt>
<totfact> 0.35876715E+06</totfact>
</mgrwt>
</event>
<event>
 4    1  0.2165211E+000  0.6338536E+02  0.7546771E-02  0.1384150E+00
          2   -1    0    0  501    0  0.00000000000E+00  0.00000000000E+00  0.29552028719E+03  0.29552028719E+03  0.00000000000E+00 0.  1.
         -2   -1    0    0    0  501 -0.00000000000E+00 -0.00000000000E+00 -0.33988395849E+01  0.33988395849E+01  0.00000000000E+00 0. -1.
        -11    1    1    2    0    0  0.28374123628E+02  0.13773229643E+02  0.16069773325E+03  0.16376371460E+03  0.00000000000E+00 0.  1.
         11    1    1    2    0    0 -0.28374123628E+02 -0.13773229643E+02  0.13142371435E+03  0.13515541217E+03  0.00000000000E+00 0. -1.
<mgrwt>
<rscale>  0 0.63385363E+02</rscale>
<asrwt>0</asrwt>
<pdfrwt beam="1">  1        2 0.45464639E-01 0.63385363E+02</pdfrwt>
<pdfrwt beam="2">  1       -2 0.52289863E-03 0.63385363E+02</pdfrwt>
<totfact> 0.46223881E+05</totfact>
</mgrwt>
</event>
<event>
 4    1  0.2165211E+000  0.4278228E+02  0.7546771E-02  0.1488681E+00
          2   -1    0    0  501    0  0.00000000000E+00  0.00000000000E+00  0.13946673315E+03  0.13946673315E+03  0.00000000000E+00 0.  1.
         -2   -1    0    0    0  501 -0.00000000000E+00 -0.00000000000E+00 -0.32809324378E+01  0.32809324378E+01  0.00000000000E+00 0. -1.
        -11    1    1    2    0    0 -0.10864173797E+02 -0.14541734508E+02  0.30330436332E+02  0.35347244347E+02  0.00000000000E+00 0.  1.
         11    1    1    2    0    0  0.10864173797E+02  0.14541734508E+02  0.10585536438E+03  0.10740042124E+03  0.00000000000E+00 0. -1.
<mgrwt>
<rscale>  0 0.42782283E+02</rscale>
<asrwt>0</asrwt>
<pdfrwt beam="1">  1        2 0.21456416E-01 0.42782283E+02</pdfrwt>
<pdfrwt beam="2">  1       -2 0.50475894E-03 0.42782283E+02</pdfrwt>
<totfact> 0.96906969E+05</totfact>
</mgrwt>
</event>
<event>
 4    1  0.2165211E+000  0.1211990E+03  0.7546771E-02  0.1241132E+00
          4   -1    0    0  501    0  0.00000000000E+00  0.00000000000E+00  0.10392845153E+03  0.10392845153E+03  0.00000000000E+00 0. -1.
         -4   -1    0    0    0  501 -0.00000000000E+00 -0.00000000000E+00 -0.35334907331E+02  0.35334907331E+02  0.00000000000E+00 0.  1.
        -13    1    1    2    0    0 -0.39825601265E+02  0.44928762894E+02  0.24847307453E+02  0.64977387906E+02  0.00000000000E+00 0.  1.
         13    1    1    2    0    0  0.39825601265E+02 -0.44928762894E+02  0.43746236749E+02  0.74285970957E+02  0.00000000000E+00 0. -1.
<mgrwt>
<rscale>  0 0.12119905E+03</rscale>
<asrwt>0</asrwt>
<pdfrwt beam="1">  1        4 0.15988992E-01 0.12119905E+03</pdfrwt>
<pdfrwt beam="2">  1       -4 0.54361396E-02 0.12119905E+03</pdfrwt>
<totfact> 0.11069316E+04</totfact>
</mgrwt>
</event>
<event>
 4    1  0.2165211E+000  0.2222277E+02  0.7546771E-02  0.1704428E+00
         -2   -1    0    0    0  501 -0.00000000000E+00  0.00000000000E+00  0.70188420198E+02  0.70188420198E+02  0.00000000000E+00 0. -1.
          2   -1    0    0  501    0  0.00000000000E+00 -0.00000000000E+00 -0.17590209584E+01  0.17590209584E+01  0.00000000000E+00 0.  1.
        -11    1    1    2    0    0  0.54387020005E+01 -0.94391938757E+01  0.41296765773E+02  0.42709492197E+02  0.00000000000E+00 0. -1.
         11    1    1    2    0    0 -0.54387020005E+01  0.94391938757E+01  0.27132633467E+02  0.29237948959E+02  0.00000000000E+00 0.  1.
<mgrwt>
<rscale>  0 0.22222772E+02</rscale>
<asrwt>0</asrwt>
<pdfrwt beam="2">  1        2 0.27061866E-03 0.22222772E+02</pdfrwt>
<pdfrwt beam="1">  1       -2 0.10798216E-01 0.22222772E+02</pdfrwt>
<totfact> 0.25420073E+06</totfact>
</mgrwt>
</event>
<event>
 4    1  0.2165211E+000  0.5576268E+02  0.7546771E-02  0.1416526E+00
          3   -1    0    0  501    0  0.00000000000E+00  0.00000000000E+00  0.31941466925E+02  0.31941466925E+02  0.00000000000E+00 0. -1.
         -3   -1    0    0    0  501 -0.00000000000E+00 -0.00000000000E+00 -0.24337297728E+02  0.24337297728E+02  0.00000000000E+00 0.  1.
        -13    1    1    2    0    0  0.15617918457E+02  0.18565590709E+02  0.17668546565E+02  0.30012965082E+02  0.00000000000E+00 0. -1.
         13    1    1    2    0    0 -0.15617918457E+02 -0.18565590709E+02 -0.10064377368E+02  0.26265799571E+02  0.00000000000E+00 0.  1.
<mgrwt>
<rscale>  0 0.55762675E+02</rscale>
<asrwt>0</asrwt>
<pdfrwt beam="1">  1        3 0.49140719E-02 0.55762675E+02</pdfrwt>
<pdfrwt beam="2">  1       -3 0.37441996E-02 0.55762675E+02</pdfrwt>
<totfact> 0.14085161E+05</totfact>
</mgrwt>
</event>
<event>
 4    1  0.2165211E+000  0.3926732E+02  0.7546771E-02  0.1513673E+00
         -2   -1    0    0    0  501 -0.00000000000E+00  0.00000000000E+00  0.41429059016E+02  0.41429059016E+02  0.00000000000E+00 0. -1.
          2   -1    0    0  501    0  0.00000000000E+00 -0.00000000000E+00 -0.93045964804E+01  0.93045964804E+01  0.00000000000E+00 0.  1.
        -13    1    1    2    0    0 -0.15838385580E+02 -0.11391908437E+02  0.18907769500E+02  0.27168617614E+02  0.00000000000E+00 0.  1.
         13    1    1    2    0    0  0.15838385580E+02  0.11391908437E+02  0.13216693036E+02  0.23565037882E+02  0.00000000000E+00 0. -1.
<mgrwt>
<rscale>  0 0.39267324E+02</rscale>
<asrwt>0</asrwt>
<pdfrwt beam="2">  1        2 0.14314764E-02 0.39267324E+02</pdfrwt>
<pdfrwt beam="1">  1       -2 0.63737013E-02 0.39267324E+02</pdfrwt>
<totfact> 0.74643538E+05</totfact>
</mgrwt>
</event>
<event>
 4    1  0.2165211E+000  0.3127544E+02  0.7546771E-02  0.1584404E+00
          2   -1    0    0  501    0  0.00000000000E+00  0.00000000000E+00  0.21982561392E+01  0.21982561392E+01  0.00000000000E+00 0.  1.
         -2   -1    0    0    0  501 -0.00000000000E+00 -0.00000000000E+00 -0.11124193653E+03  0.11124193653E+03  0.00000000000E+00 0. -1.
        -11    1    1    2    0    0  0.10868840736E+02  0.11171853409E+02 -0.49939200849E+02  0.52315062736E+02  0.00000000000E+00 0.  1.
         11    1    1    2    0    0 -0.10868840736E+02 -0.11171853409E+02 -0.59104479543E+02  0.61125129936E+02  0.00000000000E+00 0. -1.
<mgrwt>
<rscale>  0 0.31275439E+02</rscale>
<asrwt>0</asrwt>
<pdfrwt beam="1">  1        2 0.33819326E-03 0.31275439E+02</pdfrwt>
<pdfrwt beam="2">  1       -2 0.17114144E-01 0.31275439E+02</pdfrwt>
<totfact> 0.10540708E+06</totfact>
</mgrwt>
</event>
<event>
 4    1  0.2165211E+000  0.4246288E+02  0.7546771E-02  0.1490832E+00
         -2   -1    0    0    0  501 -0.00000000000E+00  0.00000000000E+00  0.36608057269E+02  0.36608057269E+02  0.00000000000E+00 0.  1.
          2   -1    0    0  501    0  0.00000000000E+00 -0.00000000000E+00 -0.12313519336E+02  0.12313519336E+02  0.00000000000E+00 0. -1.
        -11    1    1    2    0    0  0.31080352884E+01 -0.16399969937E+02 -0.29692219008E+01  0.16953913295E+02  0.00000000000E+00 0. -1.
         11    1    1    2    0    0 -0.31080352884E+01  0.16399969937E+02  0.27263759834E+02  0.31967663311E+02  0.00000000000E+00 0.  1.
<mgrwt>
<rscale>  0 0.42462879E+02</rscale>
<asrwt>0</asrwt>
<pdfrwt beam="2">  1        2 0.18943876E-02 0.42462879E+02</pdfrwt>
<pdfrwt beam="1">  1       -2 0.56320088E-02 0.42462879E+02</pdfrwt>
<totfact> 0.63207906E+05</totfact>
</mgrwt>
</event>
<event>
 4    1  0.2165211E+000  0.2503819E+02  0.7546771E-02  0.1660454E+00
          2   -1    0    0  501    0  0.00000000000E+00  0.00000000000E+00  0.67872371181E+02  0.67872371181E+02  0.00000000000E+00 0. -1.
         -2   -1    0    0    0  501 -0.00000000000E+00 -0.00000000000E+00 -0.23091539695E+01  0.23091539695E+01  0.00000000000E+00 0.  1.
        -13    1    1    2    0    0  0.97521299479E+01  0.57071647831E+01  0.17673581005E+02  0.20976921460E+02  0.00000000000E+00 0.  1.
         13    1    1    2    0    0 -0.97521299479E+01 -0.57071647831E+01  0.47889636207E+02  0.49204603691E+02  0.00000000000E+00 0. -1.
<mgrwt>
<rscale>  0 0.25038191E+02</rscale>
<asrwt>0</asrwt>
<pdfrwt beam="1">  1        2 0.10441902E-01 0.25038191E+02</pdfrwt>
<pdfrwt beam="2">  1       -2 0.35525451E-03 0.25038191E+02</pdfrwt>
<totfact> 0.29315411E+06</totfact>
</mgrwt>
</event>
<event>
 4    1  0.2165211E+000  0.2139737E+02  0.7546771E-02  0.1718887E+00
         -4   -1    0    0    0  501 -0.00000000000E+00  0.00000000000E+00  0.77859194101E+02  0.77859194101E+02  0.00000000000E+00 0.  1.
          4   -1    0    0  501    0  0.00000000000E+00 -0.00000000000E+00 -0.14701135999E+01  0.14701135999E+01  0.00000000000E+00 0. -1.
        -11    1    1    2    0    0 -0.10382244013E+02  0.19979747166E+01  0.44262698577E+02  0.45507904577E+02  0.00000000000E+00 0.  1.
         11    1    1    2    0    0  0.10382244013E+02 -0.19979747166E+01  0.32126381924E+02  0.33821403124E+02  0.00000000000E+00 0. -1.
<mgrwt>
<rscale>  0 0.21397370E+02</rscale>
<asrwt>0</asrwt>
<pdfrwt beam="2">  1        4 0.22617138E-03 0.21397370E+02</pdfrwt>
<pdfrwt beam="1">  1       -4 0.11978334E-01 0.21397370E+02</pdfrwt>
<totfact> 0.90972048E+05</totfact>
</mgrwt>
</event>
<event>
 4    1  0.2165211E+000  0.3891309E+02  0.7546771E-02  0.1516366E+00
          4   -1    0    0  501    0  0.00000000000E+00  0.00000000000E+00  0.55535919140E+02  0.55535919140E+02  0.00000000000E+00 0.  1.
         -4   -1    0    0    0  501 -0.00000000000E+00 -0.00000000000E+00 -0.68164369833E+01  0.68164369833E+01  0.00000000000E+00 0. -1.
        -13    1    1    2    0    0  0.77554848240E+01  0.82518766652E+01  0.49711118069E+02  0.50984667038E+02  0.00000000000E+00 0.  1.
         13    1    1    2    0    0 -0.77554848240E+01 -0.82518766652E+01 -0.99163591213E+00  0.11367689085E+02  0.00000000000E+00 0. -1.
<mgrwt>
<rscale>  0 0.38913087E+02</rscale>
<asrwt>0</asrwt>
<pdfrwt beam="1">  1        4 0.85439873E-02 0.38913087E+02</pdfrwt>
<pdfrwt beam="2">  1       -4 0.10486826E-02 0.38913087E+02</pdfrwt>
<totfact> 0.25503423E+05</totfact>
</mgrwt>
</event>
<event>
 4    1  0.2165211E+000  0.6764157E+02  0.7546771E-02  0.1368302E+00
          1   -1    0    0  501    0  0.00000000000E+00  0.00000000000E+00  0.58570935776E+02  0.58570935776E+02  0.00000000000E+00 0. -1.
         -1   -1    0    0    0  501 -0.00000000000E+00 -0.00000000000E+00 -0.19529234674E+02  0.19529234674E+02  0.00000000000E+00 0.  1.
        -13    1    1    2    0    0 -0.18051361843E+02 -0.13636873819E+02  0.48548173663E+02  0.53560630672E+02  0.00000000000E+00 0. -1.
         13    1    1    2    0    0  0.18051361843E+02  0.13636873819E+02 -0.95064725608E+01  0.24539539778E+02  0.00000000000E+00 0.  1.
<mgrwt>
<rscale>  0 0.67641572E+02</rscale>
<asrwt>0</asrwt>
<pdfrwt beam="1">  1        1 0.90109131E-02 0.67641572E+02</pdfrwt>
<pdfrwt beam="2">  1       -1 0.30044977E-02 0.67641572E+02</pdfrwt>
<totfact> 0.21594763E+05</totfact>
</mgrwt>
</event>
<event>
 4    1  0.2165211E+000  0.3097948E+02  0.7546771E-02  0.1587508E+00
          2   -1    0    0  501    0  0.00000000000E+00  0.00000000000E+00  0.12787582365E+02  0.12787582365E+02  0.00000000000E+00 0.  1.
         -2   -1    0    0    0  501 -0.00000000000E+00 -0.00000000000E+00 -0.18762891197E+02  0.18762891197E+02  0.00000000000E+00 0. -1.
        -13    1    1    2    0    0  0.26117856412E+01 -0.15026302661E+02 -0.57432258211E+01  0.16297111362E+02  0.00000000000E+00 0.  1.
         13    1    1    2    0    0 -0.26117856412E+01  0.15026302661E+02 -0.23208301092E+00  0.15253362201E+02  0.00000000000E+00 0. -1.
<mgrwt>
<rscale>  0 0.30979478E+02</rscale>
<asrwt>0</asrwt>
<pdfrwt beam="1">  1        2 0.19673204E-02 0.30979478E+02</pdfrwt>
<pdfrwt beam="2">  1       -2 0.28865986E-02 0.30979478E+02</pdfrwt>
<totfact> 0.14228129E+06</totfact>
</mgrwt>
</event>
<event>
 4    1  0.2165211E+000  0.5996081E+02  0.7546771E-02  0.1397996E+00
          2   -1    0    0  501    0  0.00000000000E+00  0.00000000000E+00  0.79609678127E+01  0.79609678127E+01  0.00000000000E+00 0. -1.
         -2   -1    0    0    0  501 -0.00000000000E+00 -0.00000000000E+00 -0.11290395208E+03  0.11290395208E+03  0.00000000000E+00 0.  1.
        -11    1    1    2    0    0 -0.25739528201E+02  0.14761250048E+02 -0.61119642894E+02  0.67941361205E+02  0.00000000000E+00 0. -1.
         11    1    1    2    0    0  0.25739528201E+02 -0.14761250048E+02 -0.43823341375E+02  0.52923558688E+02  0.00000000000E+00 0.  1.
<mgrwt>
<rscale>  0 0.59960811E+02</rscale>
<asrwt>0</asrwt>
<pdfrwt beam="1">  1        2 0.12247643E-02 0.59960811E+02</pdfrwt>
<pdfrwt beam="2">  1       -2 0.17369839E-01 0.59960811E+02</pdfrwt>
<totfact> 0.21868308E+05</totfact>
</mgrwt>
</event>
<event>
 4    1  0.2165211E+000  0.3063433E+02  0.7546771E-02  0.1591181E+00
          1   -1    0    0  501    0  0.00000000000E+00  0.00000000000E+00  0.84741879236E+02  0.84741879236E+02  0.00000000000E+00 0.  1.
         -1   -1    0    0    0  501 -0.00000000000E+00 -0.00000000000E+00 -0.27685910848E+01  0.27685910848E+01  0.00000000000E+00 0. -1.
        -11    1    1    2    0    0  0.14462768021E+02  0.26523936004E+01  0.53243070013E+02  0.55236141746E+02  0.00000000000E+00 0.  1.
         11    1    1    2    0    0 -0.14462768021E+02 -0.26523936004E+01  0.28730218139E+02  0.32274328575E+02  0.00000000000E+00 0. -1.
<mgrwt>
<rscale>  0 0.30634334E+02</rscale>
<asrwt>0</asrwt>
<pdfrwt beam="1">  1        1 0.13037210E-01 0.30634334E+02</pdfrwt>
<pdfrwt beam="2">  1       -1 0.42593716E-03 0.30634334E+02</pdfrwt>
<totfact> 0.16414466E+06</totfact>
</mgrwt>
</event>
<event>
 4    1  0.2165211E+000  0.2992347E+02  0.7546771E-02  0.1598936E+00
         -2   -1    0    0    0  501 -0.00000000000E+00  0.00000000000E+00  0.70889200905E+02  0.70889200905E+02  0.00000000000E+00 0.  1.
          2   -1    0    0  501    0  0.00000000000E+00 -0.00000000000E+00 -0.31577934561E+01  0.31577934561E+01  0.00000000000E+00 0. -1.
        -11    1    1    2    0    0  0.18555506708E+01  0.11361579588E+02  0.10217937089E+02  0.15392686490E+02  0.00000000000E+00 0. -1.
         11    1    1    2    0    0 -0.18555506708E+01 -0.11361579588E+02  0.57513470360E+02  0.58654307872E+02  0.00000000000E+00 0.  1.
<mgrwt>
<rscale>  0 0.29923466E+02</rscale>
<asrwt>0</asrwt>
<pdfrwt beam="2">  1        2 0.48581443E-03 0.29923466E+02</pdfrwt>
<pdfrwt beam="1">  1       -2 0.10906030E-01 0.29923466E+02</pdfrwt>
<totfact> 0.12915446E+06</totfact>
</mgrwt>
</event>
<event>
 4    1  0.2165211E+000  0.7887633E+02  0.7546771E-02  0.1332271E+00
          2   -1    0    0  501    0  0.00000000000E+00  0.00000000000E+00  0.33654619122E+02  0.33654619122E+02  0.00000000000E+00 0. -1.
         -2   -1    0    0    0  501 -0.00000000000E+00 -0.00000000000E+00 -0.46215615421E+02  0.46215615421E+02  0.00000000000E+00 0.  1.
        -13    1    1    2    0    0 -0.12422412163E+02 -0.11545219006E+02  0.29773785145E+02  0.34264948383E+02  0.00000000000E+00 0. -1.
         13    1    1    2    0    0  0.12422412163E+02  0.11545219006E+02 -0.42334781444E+02  0.45605286160E+02  0.00000000000E+00 0.  1.
<mgrwt>
<rscale>  0 0.78876332E+02</rscale>
<asrwt>0</asrwt>
<pdfrwt beam="1">  1        2 0.51776337E-02 0.78876332E+02</pdfrwt>
<pdfrwt beam="2">  1       -2 0.71100947E-02 0.78876332E+02</pdfrwt>
<totfact> 0.13858715E+05</totfact>
</mgrwt>
</event>
<event>
 4    1  0.2165211E+000  0.2276306E+02  0.7546771E-02  0.1695380E+00
          2   -1    0    0  501    0  0.00000000000E+00  0.00000000000E+00  0.10475523215E+03  0.10475523215E+03  0.00000000000E+00 0. -1.
         -2   -1    0    0    0  501 -0.00000000000E+00 -0.00000000000E+00 -0.12365899616E+01  0.12365899616E+01  0.00000000000E+00 0.  1.
        -13    1    1    2    0    0  0.64947425750E+01  0.91396036725E+01  0.60866220472E+02  0.61890312901E+02  0.00000000000E+00 0. -1.
         13    1    1    2    0    0 -0.64947425750E+01 -0.91396036725E+01  0.42652421718E+02  0.44101509212E+02  0.00000000000E+00 0.  1.
<mgrwt>
<rscale>  0 0.22763064E+02</rscale>
<asrwt>0</asrwt>
<pdfrwt beam="1">  1        2 0.16116183E-01 0.22763064E+02</pdfrwt>
<pdfrwt beam="2">  1       -2 0.19024469E-03 0.22763064E+02</pdfrwt>
<totfact> 0.39954239E+06</totfact>
</mgrwt>
</event>
<event>
 4    1  0.2165211E+000  0.2415309E+02  0.7546771E-02  0.1673473E+00
          4   -1    0    0  501    0  0.00000000000E+00  0.00000000000E+00  0.10037774729E+02  0.10037774729E+02  0.00000000000E+00 0. -1.
         -4   -1    0    0    0  501 -0.00000000000E+00 -0.00000000000E+00 -0.14529413293E+02  0.14529413293E+02  0.00000000000E+00 0.  1.
        -11    1    1    2    0    0  0.18145204471E-01 -0.11693680077E+02  0.82260344345E+00  0.11722591838E+02  0.00000000000E+00 0. -1.
         11    1    1    2    0    0 -0.18145204471E-01  0.11693680077E+02 -0.53142420077E+01  0.12844596183E+02  0.00000000000E+00 0.  1.
<mgrwt>
<rscale>  0 0.24153093E+02</rscale>
<asrwt>0</asrwt>
<pdfrwt beam="1">  1        4 0.15442730E-02 0.24153093E+02</pdfrwt>
<pdfrwt beam="2">  1       -4 0.22352943E-02 0.24153093E+02</pdfrwt>
<totfact> 0.85830751E+05</totfact>
</mgrwt>
</event>
<event>
 4    1  0.2165211E+000  0.4146616E+02  0.7546771E-02  0.1497691E+00
          1   -1    0    0  501    0  0.00000000000E+00  0.00000000000E+00  0.77811244061E+02  0.77811244061E+02  0.00000000000E+00 0. -1.
         -1   -1    0    0    0  501 -0.00000000000E+00 -0.00000000000E+00 -0.55244009281E+01  0.55244009281E+01  0.00000000000E+00 0.  1.
        -13    1    1    2    0    0  0.17513809519E+02  0.11082479410E+02  0.37254484563E+02  0.42631578599E+02  0.00000000000E+00 0. -1.
         13    1    1    2    0    0 -0.17513809519E+02 -0.11082479410E+02  0.35032358570E+02  0.40704066390E+02  0.00000000000E+00 0.  1.
<mgrwt>
<rscale>  0 0.41466155E+02</rscale>
<asrwt>0</asrwt>
<pdfrwt beam="1">  1        1 0.11970960E-01 0.41466155E+02</pdfrwt>
<pdfrwt beam="2">  1       -1 0.84990789E-03 0.41466155E+02</pdfrwt>
<totfact> 0.78139301E+05</totfact>
</mgrwt>
</event>
<event>
 4    1  0.2165211E+000  0.3409526E+02  0.7546771E-02  0.1556785E+00
          1   -1    0    0  501    0  0.00000000000E+00  0.00000000000E+00  0.22868199686E+01  0.22868199686E+01  0.00000000000E+00 0. -1.
         -1   -1    0    0    0  501 -0.00000000000E+00 -0.00000000000E+00 -0.12708552408E+03  0.12708552408E+03  0.00000000000E+00 0.  1.
        -13    1    1    2    0    0  0.85654503413E+01  0.14126386665E+02 -0.78363058790E+02  0.80085521305E+02  0.00000000000E+00 0.  1.
         13    1    1    2    0    0 -0.85654503413E+01 -0.14126386665E+02 -0.46435645325E+02  0.49286822747E+02  0.00000000000E+00 0. -1.
<mgrwt>
<rscale>  0 0.34095262E+02</rscale>
<asrwt>0</asrwt>
<pdfrwt beam="1">  1        1 0.35181831E-03 0.34095262E+02</pdfrwt>
<pdfrwt beam="2">  1       -1 0.19551627E-01 0.34095262E+02</pdfrwt>
<totfact> 0.90216725E+05</totfact>
</mgrwt>
</event>
<event>
 4    1  0.2165211E+000  0.2096878E+02  0.7546771E-02  0.1726722E+00
         -2   -1    0    0    0  501 -0.00000000000E+00  0.00000000000E+00  0.19060144980E+02  0.19060144980E+02  0.00000000000E+00 0.  1.
          2   -1    0    0  501    0  0.00000000000E+00 -0.00000000000E+00 -0.57671357576E+01  0.57671357576E+01  0.00000000000E+00 0. -1.
        -13    1    1    2    0    0  0.61824718497E+01 -0.83603651164E+01  0.82366902562E+01  0.13265056707E+02  0.00000000000E+00 0.  1.
         13    1    1    2    0    0 -0.61824718497E+01  0.83603651164E+01  0.50563189662E+01  0.11562224031E+02  0.00000000000E+00 0. -1.
<mgrwt>
<rscale>  0 0.20968781E+02</rscale>
<asrwt>0</asrwt>
<pdfrwt beam="2">  1        2 0.88725167E-03 0.20968781E+02</pdfrwt>
<pdfrwt beam="1">  1       -2 0.29323300E-02 0.20968781E+02</pdfrwt>
<totfact> 0.33903581E+06</totfact>
</mgrwt>
</event>
<event>
 4    1  0.2165211E+000  0.2047638E+02  0.7546771E-02  0.1736017E+00
          2   -1    0    0  501    0  0.00000000000E+00  0.00000000000E+00  0.23241948035E+01  0.23241948035E+01  0.00000000000E+00 0.  1.
         -2   -1    0    0    0  501 -0.00000000000E+00 -0.00000000000E+00 -0.45099725070E+02  0.45099725070E+02  0.00000000000E+00 0. -1.
        -13    1    1    2    0    0  0.99881847815E+01 -0.20316936675E+01 -0.19155548885E+02  0.21698540676E+02  0.00000000000E+00 0.  1.
         13    1    1    2    0    0 -0.99881847815E+01  0.20316936675E+01 -0.23619981382E+02  0.25725379198E+02  0.00000000000E+00 0. -1.
<mgrwt>
<rscale>  0 0.20476381E+02</rscale>
<asrwt>0</asrwt>
<pdfrwt beam="1">  1        2 0.35756844E-03 0.20476381E+02</pdfrwt>
<pdfrwt beam="2">  1       -2 0.69384190E-02 0.20476381E+02</pdfrwt>
<totfact> 0.32659425E+06</totfact>
</mgrwt>
</event>
<event>
 4    1  0.2165211E+000  0.4717864E+02  0.7546771E-02  0.1461182E+00
         -2   -1    0    0    0  501 -0.00000000000E+00  0.00000000000E+00  0.11914302677E+02  0.11914302677E+02  0.00000000000E+00 0.  1.
          2   -1    0    0  501    0  0.00000000000E+00 -0.00000000000E+00 -0.46704874722E+02  0.46704874722E+02  0.00000000000E+00 0. -1.
        -11    1    1    2    0    0  0.19639050466E+02  0.11614855713E+02 -0.99549524480E+01  0.24893739267E+02  0.00000000000E+00 0.  1.
         11    1    1    2    0    0 -0.19639050466E+02 -0.11614855713E+02 -0.24835619597E+02  0.33725438133E+02  0.00000000000E+00 0. -1.
<mgrwt>
<rscale>  0 0.47178640E+02</rscale>
<asrwt>0</asrwt>
<pdfrwt beam="2">  1        2 0.71853653E-02 0.47178640E+02</pdfrwt>
<pdfrwt beam="1">  1       -2 0.18329696E-02 0.47178640E+02</pdfrwt>
<totfact> 0.58787641E+05</totfact>
</mgrwt>
</event>
<event>
 4    1  0.2165211E+000  0.2683225E+02  0.7546771E-02  0.1635999E+00
         -2   -1    0    0    0  501 -0.00000000000E+00  0.00000000000E+00  0.21874204623E+01  0.21874204623E+01  0.00000000000E+00 0.  1.
          2   -1    0    0  501    0  0.00000000000E+00 -0.00000000000E+00 -0.82285215163E+02  0.82285215163E+02  0.00000000000E+00 0. -1.
        -11    1    1    2    0    0 -0.60189000170E+01 -0.11882130408E+02 -0.45105796112E+02  0.47031319600E+02  0.00000000000E+00 0. -1.
         11    1    1    2    0    0  0.60189000170E+01  0.11882130408E+02 -0.34991998589E+02  0.37441316025E+02  0.00000000000E+00 0.  1.
<mgrwt>
<rscale>  0 0.26832247E+02</rscale>
<asrwt>0</asrwt>
<pdfrwt beam="2">  1        2 0.12659264E-01 0.26832247E+02</pdfrwt>
<pdfrwt beam="1">  1       -2 0.33652623E-03 0.26832247E+02</pdfrwt>
<totfact> 0.25960621E+06</totfact>
</mgrwt>
</event>
<event>
 4    1  0.2165211E+000  0.2460298E+02  0.7546771E-02  0.1666771E+00
         -1   -1    0    0    0  501 -0.00000000000E+00  0.00000000000E+00  0.11711228833E+02  0.11711228833E+02  0.00000000000E+00 0.  1.
          1   -1    0    0  501    0  0.00000000000E+00 -0.00000000000E+00 -0.12921503552E+02  0.12921503552E+02  0.00000000000E+00 0. -1.
        -11    1    1    2    0    0 -0.81750404418E+01 -0.87085083947E+01  0.23407461723E+01  0.12171626733E+02  0.00000000000E+00 0. -1.
         11    1    1    2    0    0  0.81750404418E+01  0.87085083947E+01 -0.35510208913E+01  0.12461105651E+02  0.00000000000E+00 0.  1.
<mgrwt>
<rscale>  0 0.24602982E+02</rscale>
<asrwt>0</asrwt>
<pdfrwt beam="2">  1        1 0.19879236E-02 0.24602982E+02</pdfrwt>
<pdfrwt beam="1">  1       -1 0.18017275E-02 0.24602982E+02</pdfrwt>
<totfact> 0.24220907E+06</totfact>
</mgrwt>
</event>
<event>
 4    1  0.2165211E+000  0.3387855E+02  0.7546771E-02  0.1558791E+00
         -2   -1    0    0    0  501 -0.00000000000E+00  0.00000000000E+00  0.36432066799E+02  0.36432066799E+02  0.00000000000E+00 0. -1.
          2   -1    0    0  501    0  0.00000000000E+00 -0.00000000000E+00 -0.78760018980E+01  0.78760018980E+01  0.00000000000E+00 0.  1.
        -11    1    1    2    0    0  0.11543415403E+02  0.23617134103E+01 -0.16386122270E+01  0.11895931213E+02  0.00000000000E+00 0.  1.
         11    1    1    2    0    0 -0.11543415403E+02 -0.23617134103E+01  0.30194677128E+02  0.32412137483E+02  0.00000000000E+00 0. -1.
<mgrwt>
<rscale>  0 0.33878549E+02</rscale>
<asrwt>0</asrwt>
<pdfrwt beam="2">  1        2 0.12116926E-02 0.33878549E+02</pdfrwt>
<pdfrwt beam="1">  1       -2 0.56049332E-02 0.33878549E+02</pdfrwt>
<totfact> 0.10732452E+06</totfact>
</mgrwt>
</event>
<event>
 4    1  0.2165211E+000  0.3068952E+02  0.7546771E-02  0.1590590E+00
          2   -1    0    0  501    0  0.00000000000E+00  0.00000000000E+00  0.10028750299E+03  0.10028750299E+03  0.00000000000E+00 0.  1.
         -2   -1    0    0    0  501 -0.00000000000E+00 -0.00000000000E+00 -0.23478656762E+01  0.23478656762E+01  0.00000000000E+00 0. -1.
        -13    1    1    2    0    0  0.12484046974E+02 -0.88578324215E+01  0.45385060650E+02  0.47896934706E+02  0.00000000000E+00 0. -1.
         13    1    1    2    0    0 -0.12484046974E+02  0.88578324215E+01  0.52554576659E+02  0.54738433955E+02  0.00000000000E+00 0.  1.
<mgrwt>
<rscale>  0 0.30689515E+02</rscale>
<asrwt>0</asrwt>
<pdfrwt beam="1">  1        2 0.15428843E-01 0.30689515E+02</pdfrwt>
<pdfrwt beam="2">  1       -2 0.36121018E-03 0.30689515E+02</pdfrwt>
<totfact> 0.19815662E+06</totfact>
</mgrwt>
</event>
<event>
 4    1  0.2165211E+000  0.2584935E+02  0.7546771E-02  0.1649094E+00
         -2   -1    0    0    0  501 -0.00000000000E+00  0.00000000000E+00  0.59106372894E+02  0.59106372894E+02  0.00000000000E+00 0. -1.
          2   -1    0    0  501    0  0.00000000000E+00 -0.00000000000E+00 -0.28262131812E+01  0.28262131812E+01  0.00000000000E+00 0.  1.
        -11    1    1    2    0    0  0.25687320108E+00 -0.10684617995E+02  0.45552914707E+02  0.46789903652E+02  0.00000000000E+00 0. -1.
         11    1    1    2    0    0 -0.25687320108E+00  0.10684617995E+02  0.10727245006E+02  0.15142682422E+02  0.00000000000E+00 0.  1.
<mgrwt>
<rscale>  0 0.25849349E+02</rscale>
<asrwt>0</asrwt>
<pdfrwt beam="2">  1        2 0.43480207E-03 0.25849349E+02</pdfrwt>
<pdfrwt beam="1">  1       -2 0.90932872E-02 0.25849349E+02</pdfrwt>
<totfact> 0.18649168E+06</totfact>
</mgrwt>
</event>
<event>
 4    1  0.2165211E+000  0.4146794E+02  0.7546771E-02  0.1497679E+00
          2   -1    0    0  501    0  0.00000000000E+00  0.00000000000E+00  0.19088114552E+02  0.19088114552E+02  0.00000000000E+00 0. -1.
         -2   -1    0    0    0  501 -0.00000000000E+00 -0.00000000000E+00 -0.22521733433E+02  0.22521733433E+02  0.00000000000E+00 0.  1.
        -11    1    1    2    0    0 -0.32871441064E+01 -0.14343779892E+02  0.12939616895E+02  0.19595484770E+02  0.00000000000E+00 0.  1.
         11    1    1    2    0    0  0.32871441064E+01  0.14343779892E+02 -0.16373235776E+02  0.22014363215E+02  0.00000000000E+00 0. -1.
<mgrwt>
<rscale>  0 0.41467936E+02</rscale>
<asrwt>0</asrwt>
<pdfrwt beam="1">  1        2 0.29366330E-02 0.41467936E+02</pdfrwt>
<pdfrwt beam="2">  1       -2 0.34648821E-02 0.41467936E+02</pdfrwt>
<totfact> 0.71429596E+05</totfact>
</mgrwt>
</event>
<event>
 4    1  0.2165211E+000  0.3916011E+02  0.7546771E-02  0.1514485E+00
         -2   -1    0    0    0  501 -0.00000000000E+00  0.00000000000E+00  0.76956775632E+01  0.76956775632E+01  0.00000000000E+00 0. -1.
          2   -1    0    0  501    0  0.00000000000E+00 -0.00000000000E+00 -0.49817377085E+02  0.49817377085E+02  0.00000000000E+00 0.  1.
        -11    1    1    2    0    0 -0.74098306995E+01 -0.17675238899E+02 -0.15175405410E+02  0.24446116061E+02  0.00000000000E+00 0. -1.
         11    1    1    2    0    0  0.74098306995E+01  0.17675238899E+02 -0.26946294112E+02  0.33066938587E+02  0.00000000000E+00 0.  1.
<mgrwt>
<rscale>  0 0.39160106E+02</rscale>
<asrwt>0</asrwt>
<pdfrwt beam="2">  1        2 0.76642122E-02 0.39160106E+02</pdfrwt>
<pdfrwt beam="1">  1       -2 0.11839503E-02 0.39160106E+02</pdfrwt>
<totfact> 0.95049120E+05</totfact>
</mgrwt>
</event>
<event>
 4    1  0.2165211E+000  0.2112905E+02  0.7546771E-02  0.1723765E+00
         -1   -1    0    0    0  501 -0.00000000000E+00  0.00000000000E+00  0.17538466476E+02  0.17538466476E+02  0.00000000000E+00 0. -1.
          1   -1    0    0  501    0  0.00000000000E+00 -0.00000000000E+00 -0.63636791916E+01  0.63636791916E+01  0.00000000000E+00 0.  1.
        -11    1    1    2    0    0 -0.43140230955E+01 -0.91111023468E+01  0.91622362193E+01  0.13622391632E+02  0.00000000000E+00 0. -1.
         11    1    1    2    0    0  0.43140230955E+01  0.91111023468E+01  0.20125510653E+01  0.10279754036E+02  0.00000000000E+00 0.  1.
<mgrwt>
<rscale>  0 0.21129049E+02</rscale>
<asrwt>0</asrwt>
<pdfrwt beam="2">  1        1 0.97902758E-03 0.21129049E+02</pdfrwt>
<pdfrwt beam="1">  1       -1 0.26982256E-02 0.21129049E+02</pdfrwt>
<totfact> 0.33371916E+06</totfact>
</mgrwt>
</event>
<event>
 4    1  0.2165211E+000  0.3460649E+02  0.7546771E-02  0.1552123E+00
         -2   -1    0    0    0  501 -0.00000000000E+00  0.00000000000E+00  0.27153210016E+02  0.27153210016E+02  0.00000000000E+00 0.  1.
          2   -1    0    0  501    0  0.00000000000E+00 -0.00000000000E+00 -0.11026407355E+02  0.11026407355E+02  0.00000000000E+00 0. -1.
        -13    1    1    2    0    0 -0.86985541557E+01 -0.14930307506E+02  0.90645228187E+01  0.19512675382E+02  0.00000000000E+00 0. -1.
         13    1    1    2    0    0  0.86985541557E+01  0.14930307506E+02  0.70622798424E+01  0.18666941988E+02  0.00000000000E+00 0.  1.
<mgrwt>
<rscale>  0 0.34606494E+02</rscale>
<asrwt>0</asrwt>
<pdfrwt beam="2">  1        2 0.16963704E-02 0.34606494E+02</pdfrwt>
<pdfrwt beam="1">  1       -2 0.41774169E-02 0.34606494E+02</pdfrwt>
<totfact> 0.10598340E+06</totfact>
</mgrwt>
</event>
<event>
 4    1  0.2165211E+000  0.2071246E+02  0.7546771E-02  0.1731520E+00
          1   -1    0    0  501    0  0.00000000000E+00  0.00000000000E+00  0.12275423511E+02  0.12275423511E+02  0.00000000000E+00 0.  1.
         -1   -1    0    0    0  501 -0.00000000000E+00 -0.00000000000E+00 -0.87370944373E+01  0.87370944373E+01  0.00000000000E+00 0. -1.
        -13    1    1    2    0    0 -0.77816577967E+01  0.63099941018E+01  0.44303916075E+01  0.10954386949E+02  0.00000000000E+00 0.  1.
         13    1    1    2    0    0  0.77816577967E+01 -0.63099941018E+01 -0.89206253406E+00  0.10058130999E+02  0.00000000000E+00 0. -1.
<mgrwt>
<rscale>  0 0.20712463E+02</rscale>
<asrwt>0</asrwt>
<pdfrwt beam="1">  1        1 0.18885267E-02 0.20712463E+02</pdfrwt>
<pdfrwt beam="2">  1       -1 0.13441684E-02 0.20712463E+02</pdfrwt>
<totfact> 0.35966165E+06</totfact>
</mgrwt>
</event>
<event>
 4    1  0.2165211E+000  0.2151856E+02  0.7546771E-02  0.1716714E+00
          2   -1    0    0  501    0  0.00000000000E+00  0.00000000000E+00  0.20801908739E+02  0.20801908739E+02  0.00000000000E+00 0. -1.
         -2   -1    0    0    0  501 -0.00000000000E+00 -0.00000000000E+00 -0.55649757056E+01  0.55649757056E+01  0.00000000000E+00 0.  1.
        -11    1    1    2    0    0  0.78246257013E+01  0.72412142112E+01  0.58419096684E+01  0.12156803000E+02  0.00000000000E+00 0.  1.
         11    1    1    2    0    0 -0.78246257013E+01 -0.72412142112E+01  0.93950233648E+01  0.14210081444E+02  0.00000000000E+00 0. -1.
<mgrwt>
<rscale>  0 0.21518561E+02</rscale>
<asrwt>0</asrwt>
<pdfrwt beam="1">  1        2 0.32002936E-02 0.21518561E+02</pdfrwt>
<pdfrwt beam="2">  1       -2 0.85615012E-03 0.21518561E+02</pdfrwt>
<totfact> 0.35420075E+06</totfact>
</mgrwt>
</event>
<event>
 4    1  0.2165211E+000  0.2174914E+02  0.7546771E-02  0.1712627E+00
         -1   -1    0    0    0  501 -0.00000000000E+00  0.00000000000E+00  0.31300896373E+02  0.31300896373E+02  0.00000000000E+00 0. -1.
          1   -1    0    0  501    0  0.00000000000E+00 -0.00000000000E+00 -0.37780477886E+01  0.37780477886E+01  0.00000000000E+00 0.  1.
        -13    1    1    2    0    0 -0.10713617945E+02  0.94180124614E+00  0.16355961873E+02  0.19575139536E+02  0.00000000000E+00 0. -1.
         13    1    1    2    0    0  0.10713617945E+02 -0.94180124614E+00  0.11166886712E+02  0.15503804626E+02  0.00000000000E+00 0.  1.
<mgrwt>
<rscale>  0 0.21749141E+02</rscale>
<asrwt>0</asrwt>
<pdfrwt beam="2">  1        1 0.58123814E-03 0.21749141E+02</pdfrwt>
<pdfrwt beam="1">  1       -1 0.48155223E-02 0.21749141E+02</pdfrwt>
<totfact> 0.30205256E+06</totfact>
</mgrwt>
</event>
<event>
 4    1  0.2165211E+000  0.2224782E+02  0.7546771E-02  0.1704001E+00
          4   -1    0    0  501    0  0.00000000000E+00  0.00000000000E+00  0.25362182112E+02  0.25362182112E+02  0.00000000000E+00 0.  1.
         -4   -1    0    0    0  501 -0.00000000000E+00 -0.00000000000E+00 -0.48789700193E+01  0.48789700193E+01  0.00000000000E+00 0. -1.
        -13    1    1    2    0    0 -0.74166189199E+00 -0.10099834913E+02  0.39852555178E+01  0.10882967847E+02  0.00000000000E+00 0. -1.
         13    1    1    2    0    0  0.74166189199E+00  0.10099834913E+02  0.16497956575E+02  0.19358184284E+02  0.00000000000E+00 0.  1.
<mgrwt>
<rscale>  0 0.22247816E+02</rscale>
<asrwt>0</asrwt>
<pdfrwt beam="1">  1        4 0.39018741E-02 0.22247816E+02</pdfrwt>
<pdfrwt beam="2">  1       -4 0.75061079E-03 0.22247816E+02</pdfrwt>
<totfact> 0.99808137E+05</totfact>
</mgrwt>
</event>
<event>
 4    1  0.2165211E+000  0.2181268E+02  0.7546771E-02  0.1711512E+00
          2   -1    0    0  501    0  0.00000000000E+00  0.00000000000E+00  0.91677334655E+02  0.91677334655E+02  0.00000000000E+00 0.  1.
         -2   -1    0    0    0  501 -0.00000000000E+00 -0.00000000000E+00 -0.12974657444E+01  0.12974657444E+01  0.00000000000E+00 0. -1.
        -11    1    1    2    0    0  0.10363272093E+02  0.23561031230E+01  0.55630317025E+02  0.56636391152E+02  0.00000000000E+00 0.  1.
         11    1    1    2    0    0 -0.10363272093E+02 -0.23561031230E+01  0.34749551885E+02  0.36338409247E+02  0.00000000000E+00 0. -1.
<mgrwt>
<rscale>  0 0.21812675E+02</rscale>
<asrwt>0</asrwt>
<pdfrwt beam="1">  1        2 0.14104200E-01 0.21812675E+02</pdfrwt>
<pdfrwt beam="2">  1       -2 0.19961019E-03 0.21812675E+02</pdfrwt>
<totfact> 0.42659889E+06</totfact>
</mgrwt>
</event>
<event>
 4    1  0.2165211E+000  0.6078244E+02  0.7546771E-02  0.1394577E+00
          4   -1    0    0  501    0  0.00000000000E+00  0.00000000000E+00  0.10966794184E+02  0.10966794184E+02  0.00000000000E+00 0.  1.
         -4   -1    0    0    0  501 -0.00000000000E+00 -0.00000000000E+00 -0.84220256723E+02  0.84220256723E+02  0.00000000000E+00 0. -1.
        -13    1    1    2    0    0 -0.64794853336E+01 -0.18039590814E+02  0.30684420570E+00  0.19170412627E+02  0.00000000000E+00 0.  1.
         13    1    1    2    0    0  0.64794853336E+01  0.18039590814E+02 -0.73560306745E+02  0.76016638280E+02  0.00000000000E+00 0. -1.
<mgrwt>
<rscale>  0 0.60782439E+02</rscale>
<asrwt>0</asrwt>
<pdfrwt beam="1">  1        4 0.16871991E-02 0.60782439E+02</pdfrwt>
<pdfrwt beam="2">  1       -4 0.12956962E-01 0.60782439E+02</pdfrwt>
<totfact> 0.77736971E+04</totfact>
</mgrwt>
</event>
<event>
 4    1  0.2165211E+000  0.9244708E+02  0.7546771E-02  0.1297032E+00
         -4   -1    0    0    0  501 -0.00000000000E+00  0.00000000000E+00  0.16515264992E+02  0.16515264992E+02  0.00000000000E+00 0. -1.
          4   -1    0    0  501    0  0.00000000000E+00 -0.00000000000E+00 -0.12937215774E+03  0.12937215774E+03  0.00000000000E+00 0.  1.
        -13    1    1    2    0    0 -0.76389455974E+01  0.45340798858E+02 -0.63909525509E+02  0.78730991241E+02  0.00000000000E+00 0.  1.
         13    1    1    2    0    0  0.76389455974E+01 -0.45340798858E+02 -0.48947367235E+02  0.67156431488E+02  0.00000000000E+00 0. -1.
<mgrwt>
<rscale>  0 0.92447076E+02</rscale>
<asrwt>0</asrwt>
<pdfrwt beam="2">  1        4 0.19903408E-01 0.92447076E+02</pdfrwt>
<pdfrwt beam="1">  1       -4 0.25408101E-02 0.92447076E+02</pdfrwt>
<totfact> 0.23005717E+04</totfact>
</mgrwt>
</event>
<event>
 4    1  0.2165211E+000  0.2593443E+02  0.7546771E-02  0.1647932E+00
          4   -1    0    0  501    0  0.00000000000E+00  0.00000000000E+00  0.24921934682E+01  0.24921934682E+01  0.00000000000E+00 0.  1.
         -4   -1    0    0    0  501 -0.00000000000E+00 -0.00000000000E+00 -0.67470140358E+02  0.67470140358E+02  0.00000000000E+00 0. -1.
        -13    1    1    2    0    0  0.95484715579E+01  0.40278360651E+01 -0.53515495193E+02  0.54509678023E+02  0.00000000000E+00 0. -1.
         13    1    1    2    0    0 -0.95484715579E+01 -0.40278360651E+01 -0.11462451697E+02  0.15452655803E+02  0.00000000000E+00 0.  1.
<mgrwt>
<rscale>  0 0.25934428E+02</rscale>
<asrwt>0</asrwt>
<pdfrwt beam="1">  1        4 0.38341439E-03 0.25934428E+02</pdfrwt>
<pdfrwt beam="2">  1       -4 0.10380021E-01 0.25934428E+02</pdfrwt>
<totfact> 0.62492740E+05</totfact>
</mgrwt>
</event>
<event>
 4    1  0.2165211E+000  0.1517618E+03  0.7546771E-02  0.1198325E+00
         -2   -1    0    0    0  501 -0.00000000000E+00  0.00000000000E+00  0.81532325208E+02  0.81532325208E+02  0.00000000000E+00 0. -1.
          2   -1    0    0  501    0  0.00000000000E+00 -0.00000000000E+00 -0.70621200383E+02  0.70621200383E+02  0.00000000000E+00 0.  1.
        -13    1    1    2    0    0 -0.61119334219E+02  0.33794798349E+02  0.35201139454E+02  0.78209856346E+02  0.00000000000E+00 0. -1.
         13    1    1    2    0    0  0.61119334219E+02 -0.33794798349E+02 -0.24290014628E+02  0.73943669245E+02  0.00000000000E+00 0.  1.
<mgrwt>
<rscale>  0 0.15176180E+03</rscale>
<asrwt>0</asrwt>
<pdfrwt beam="2">  1        2 0.10864800E-01 0.15176180E+03</pdfrwt>
<pdfrwt beam="1">  1       -2 0.12543435E-01 0.15176180E+03</pdfrwt>
<totfact> 0.24775362E+04</totfact>
</mgrwt>
</event>
<event>
 4    1  0.2165211E+000  0.1652789E+03  0.7546771E-02  0.1182863E+00
          2   -1    0    0  501    0  0.00000000000E+00  0.00000000000E+00  0.26241552206E+03  0.26241552206E+03  0.00000000000E+00 0. -1.
         -2   -1    0    0    0  501 -0.00000000000E+00 -0.00000000000E+00 -0.26024669485E+02  0.26024669485E+02  0.00000000000E+00 0.  1.
        -13    1    1    2    0    0  0.81166222664E+02  0.47772873324E+01  0.92398783604E+02  0.12307848466E+03  0.00000000000E+00 0.  1.
         13    1    1    2    0    0 -0.81166222664E+02 -0.47772873324E+01  0.14399206897E+03  0.16536170688E+03  0.00000000000E+00 0. -1.
<mgrwt>
<rscale>  0 0.16527888E+03</rscale>
<asrwt>0</asrwt>
<pdfrwt beam="1">  1        2 0.40371617E-01 0.16527888E+03</pdfrwt>
<pdfrwt beam="2">  1       -2 0.40037955E-02 0.16527888E+03</pdfrwt>
<totfact> 0.32785349E+04</totfact>
</mgrwt>
</event>
<event>
 4    1  0.2165211E+000  0.7145575E+02  0.7546771E-02  0.1355212E+00
         -2   -1    0    0    0  501 -0.00000000000E+00  0.00000000000E+00  0.25672011985E+02  0.25672011985E+02  0.00000000000E+00 0. -1.
          2   -1    0    0  501    0  0.00000000000E+00 -0.00000000000E+00 -0.49722678471E+02  0.49722678471E+02  0.00000000000E+00 0.  1.
        -13    1    1    2    0    0 -0.94268839939E+01  0.12213021582E+02 -0.46026815359E+02  0.48543709892E+02  0.00000000000E+00 0.  1.
         13    1    1    2    0    0  0.94268839939E+01 -0.12213021582E+02  0.21976148872E+02  0.26850980564E+02  0.00000000000E+00 0. -1.
<mgrwt>
<rscale>  0 0.71455754E+02</rscale>
<asrwt>0</asrwt>
<pdfrwt beam="2">  1        2 0.76496428E-02 0.71455754E+02</pdfrwt>
<pdfrwt beam="1">  1       -2 0.39495403E-02 0.71455754E+02</pdfrwt>
<totfact> 0.19908518E+05</totfact>
</mgrwt>
</event>
<event>
 4    1  0.2165211E+000  0.2091667E+02  0.7546771E-02  0.1727690E+00
          2   -1    0    0  501    0  0.00000000000E+00  0.00000000000E+00  0.18031957940E+02  0.18031957940E+02  0.00000000000E+00 0.  1.
         -2   -1    0    0    0  501 -0.00000000000E+00 -0.00000000000E+00 -0.60657199515E+01  0.60657199515E+01  0.00000000000E+00 0. -1.
        -13    1    1    2    0    0 -0.48751053694E+01 -0.91693253298E+01  0.74098514721E+01  0.12757314694E+02  0.00000000000E+00 0. -1.
         13    1    1    2    0    0  0.48751053694E+01  0.91693253298E+01  0.45563865168E+01  0.11340363198E+02  0.00000000000E+00 0.  1.
<mgrwt>
<rscale>  0 0.20916673E+02</rscale>
<asrwt>0</asrwt>
<pdfrwt beam="1">  1        2 0.27741473E-02 0.20916673E+02</pdfrwt>
<pdfrwt beam="2">  1       -2 0.93318770E-03 0.20916673E+02</pdfrwt>
<totfact> 0.37310557E+06</totfact>
</mgrwt>
</event>
<event>
 4    1  0.2165211E+000  0.3799510E+02  0.7546771E-02  0.1523506E+00
         -2   -1    0    0    0  501 -0.00000000000E+00  0.00000000000E+00  0.18858039954E+01  0.18858039954E+01  0.00000000000E+00 0.  1.
          2   -1    0    0  501    0  0.00000000000E+00 -0.00000000000E+00 -0.19138096376E+03  0.19138096376E+03  0.00000000000E+00 0. -1.
        -11    1    1    2    0    0 -0.18794366508E+02  0.20257457967E+01 -0.85129789240E+02  0.87203284769E+02  0.00000000000E+00 0.  1.
         11    1    1    2    0    0  0.18794366508E+02 -0.20257457967E+01 -0.10436537053E+03  0.10606348299E+03  0.00000000000E+00 0. -1.
<mgrwt>
<rscale>  0 0.37995104E+02</rscale>
<asrwt>0</asrwt>
<pdfrwt beam="2">  1        2 0.29443225E-01 0.37995104E+02</pdfrwt>
<pdfrwt beam="1">  1       -2 0.29012370E-03 0.37995104E+02</pdfrwt>
<totfact> 0.14263059E+06</totfact>
</mgrwt>
</event>
<event>
 4    1  0.2165211E+000  0.3061213E+02  0.7546771E-02  0.1591419E+00
          4   -1    0    0  501    0  0.00000000000E+00  0.00000000000E+00  0.39796940843E+02  0.39796940843E+02  0.00000000000E+00 0. -1.
         -4   -1    0    0    0  501 -0.00000000000E+00 -0.00000000000E+00 -0.58867759158E+01  0.58867759158E+01  0.00000000000E+00 0.  1.
        -13    1    1    2    0    0 -0.10044089276E+02  0.14877889094E+01  0.34047325053E+02  0.35529109030E+02  0.00000000000E+00 0. -1.
         13    1    1    2    0    0  0.10044089276E+02 -0.14877889094E+01 -0.13716012592E+00  0.10154607728E+02  0.00000000000E+00 0.  1.
<mgrwt>
<rscale>  0 0.30612133E+02</rscale>
<asrwt>0</asrwt>
<pdfrwt beam="1">  1        4 0.61226061E-02 0.30612133E+02</pdfrwt>
<pdfrwt beam="2">  1       -4 0.90565786E-03 0.30612133E+02</pdfrwt>
<totfact> 0.46934429E+05</totfact>
</mgrwt>
</event>
<event>
 4    1  0.2165211E+000  0.8537944E+02  0.7546771E-02  0.1314443E+00
         -3   -1    0    0    0  501 -0.00000000000E+00  0.00000000000E+00  0.71954590712E+01  0.71954590712E+01  0.00000000000E+00 0.  1.
          3   -1    0    0  501    0  0.00000000000E+00 -0.00000000000E+00 -0.25327252473E+03  0.25327252473E+03  0.00000000000E+00 0. -1.
        -11    1    1    2    0    0  0.30794821856E+02 -0.15485414429E+02 -0.46205848053E+02  0.57646331258E+02  0.00000000000E+00 0.  1.
         11    1    1    2    0    0 -0.30794821856E+02  0.15485414429E+02 -0.19987121760E+03  0.20282165254E+03  0.00000000000E+00 0. -1.
<mgrwt>
<rscale>  0 0.85379437E+02</rscale>
<asrwt>0</asrwt>
<pdfrwt beam="2">  1        3 0.38965001E-01 0.85379437E+02</pdfrwt>
<pdfrwt beam="1">  1       -3 0.11069938E-02 0.85379437E+02</pdfrwt>
<totfact> 0.30573374E+04</totfact>
</mgrwt>
</event>
<event>
 4    1  0.2165211E+000  0.2567752E+02  0.7546771E-02  0.1651457E+00
          1   -1    0    0  501    0  0.00000000000E+00  0.00000000000E+00  0.14981983036E+02  0.14981983036E+02  0.00000000000E+00 0.  1.
         -1   -1    0    0    0  501 -0.00000000000E+00 -0.00000000000E+00 -0.11002131304E+02  0.11002131304E+02  0.00000000000E+00 0. -1.
        -13    1    1    2    0    0 -0.96611610700E+01  0.81043130671E+01  0.44303222806E+01  0.13365840004E+02  0.00000000000E+00 0. -1.
         13    1    1    2    0    0  0.96611610700E+01 -0.81043130671E+01 -0.45047054859E+00  0.12618274336E+02  0.00000000000E+00 0.  1.
<mgrwt>
<rscale>  0 0.25677519E+02</rscale>
<asrwt>0</asrwt>
<pdfrwt beam="1">  1        1 0.23049205E-02 0.25677519E+02</pdfrwt>
<pdfrwt beam="2">  1       -1 0.16926356E-02 0.25677519E+02</pdfrwt>
<totfact> 0.22059984E+06</totfact>
</mgrwt>
</event>
<event>
 4    1  0.2165211E+000  0.2814256E+02  0.7546771E-02  0.1619577E+00
         -2   -1    0    0    0  501 -0.00000000000E+00  0.00000000000E+00  0.55350847910E+02  0.55350847910E+02  0.00000000000E+00 0.  1.
          2   -1    0    0  501    0  0.00000000000E+00 -0.00000000000E+00 -0.35771964221E+01  0.35771964221E+01  0.00000000000E+00 0. -1.
        -13    1    1    2    0    0 -0.10810760193E+02 -0.69619288165E+01  0.13920365537E+02  0.18950397502E+02  0.00000000000E+00 0. -1.
         13    1    1    2    0    0  0.10810760193E+02  0.69619288165E+01  0.37853285951E+02  0.39977646830E+02  0.00000000000E+00 0.  1.
<mgrwt>
<rscale>  0 0.28142555E+02</rscale>
<asrwt>0</asrwt>
<pdfrwt beam="2">  1        2 0.55033795E-03 0.28142555E+02</pdfrwt>
<pdfrwt beam="1">  1       -2 0.85155144E-02 0.28142555E+02</pdfrwt>
<totfact> 0.15524491E+06</totfact>
</mgrwt>
</event>
<event>
 4    1  0.2165211E+000  0.5370046E+02  0.7546771E-02  0.1426346E+00
          2   -1    0    0  501    0  0.00000000000E+00  0.00000000000E+00  0.80231541082E+01  0.80231541082E+01  0.00000000000E+00 0. -1.
         -2   -1    0    0    0  501 -0.00000000000E+00 -0.00000000000E+00 -0.89856801845E+02  0.89856801845E+02  0.00000000000E+00 0.  1.
        -13    1    1    2    0    0  0.14006893834E+02 -0.13901145686E+02 -0.74103023253E+02  0.76685676508E+02  0.00000000000E+00 0.  1.
         13    1    1    2    0    0 -0.14006893834E+02  0.13901145686E+02 -0.77306244832E+01  0.21194279445E+02  0.00000000000E+00 0. -1.
<mgrwt>
<rscale>  0 0.53700464E+02</rscale>
<asrwt>0</asrwt>
<pdfrwt beam="1">  1        2 0.12343315E-02 0.53700464E+02</pdfrwt>
<pdfrwt beam="2">  1       -2 0.13824122E-01 0.53700464E+02</pdfrwt>
<totfact> 0.30436617E+05</totfact>
</mgrwt>
</event>
<event>
 4    1  0.2165211E+000  0.4616726E+02  0.7546771E-02  0.1467184E+00
          1   -1    0    0  501    0  0.00000000000E+00  0.00000000000E+00  0.44732111625E+02  0.44732111625E+02  0.00000000000E+00 0.  1.
         -1   -1    0    0    0  501 -0.00000000000E+00 -0.00000000000E+00 -0.11912114286E+02  0.11912114286E+02  0.00000000000E+00 0. -1.
        -13    1    1    2    0    0  0.14044111841E+02 -0.11707367695E+02  0.33698660568E+02  0.38339265249E+02  0.00000000000E+00 0.  1.
         13    1    1    2    0    0 -0.14044111841E+02  0.11707367695E+02 -0.87866322885E+00  0.18304960662E+02  0.00000000000E+00 0. -1.
<mgrwt>
<rscale>  0 0.46167262E+02</rscale>
<asrwt>0</asrwt>
<pdfrwt beam="1">  1        1 0.68818632E-02 0.46167262E+02</pdfrwt>
<pdfrwt beam="2">  1       -1 0.18326330E-02 0.46167262E+02</pdfrwt>
<totfact> 0.56501302E+05</totfact>
</mgrwt>
</event>
<event>
 4    1  0.2165211E+000  0.2954408E+02  0.7546771E-02  0.1603184E+00
         -2   -1    0    0    0  501 -0.00000000000E+00  0.00000000000E+00  0.13241921451E+02  0.13241921451E+02  0.00000000000E+00 0. -1.
          2   -1    0    0  501    0  0.00000000000E+00 -0.00000000000E+00 -0.16478964118E+02  0.16478964118E+02  0.00000000000E+00 0.  1.
        -13    1    1    2    0    0 -0.81820418898E+00 -0.13711119795E+02  0.38498983256E+01  0.14264851252E+02  0.00000000000E+00 0. -1.
         13    1    1    2    0    0  0.81820418898E+00  0.13711119795E+02 -0.70869409928E+01  0.15456034316E+02  0.00000000000E+00 0.  1.
<mgrwt>
<rscale>  0 0.29544079E+02</rscale>
<asrwt>0</asrwt>
<pdfrwt beam="2">  1        2 0.25352252E-02 0.29544079E+02</pdfrwt>
<pdfrwt beam="1">  1       -2 0.20372187E-02 0.29544079E+02</pdfrwt>
<totfact> 0.16410027E+06</totfact>
</mgrwt>
</event>
<event>
 4    1  0.2165211E+000  0.2097664E+02  0.7546771E-02  0.1726576E+00
          2   -1    0    0  501    0  0.00000000000E+00  0.00000000000E+00  0.10614861621E+03  0.10614861621E+03  0.00000000000E+00 0.  1.
         -2   -1    0    0    0  501 -0.00000000000E+00 -0.00000000000E+00 -0.10363288040E+01  0.10363288040E+01  0.00000000000E+00 0. -1.
        -13    1    1    2    0    0 -0.79450875089E+00  0.10325541620E+02  0.61040162454E+02  0.61912434021E+02  0.00000000000E+00 0. -1.
         13    1    1    2    0    0  0.79450875089E+00 -0.10325541620E+02  0.44072124955E+02  0.45272510997E+02  0.00000000000E+00 0.  1.
<mgrwt>
<rscale>  0 0.20976641E+02</rscale>
<asrwt>0</asrwt>
<pdfrwt beam="1">  1        2 0.16330548E-01 0.20976641E+02</pdfrwt>
<pdfrwt beam="2">  1       -2 0.15943528E-03 0.20976641E+02</pdfrwt>
<totfact> 0.48129794E+06</totfact>
</mgrwt>
</event>
<event>
 4    1  0.2165211E+000  0.6072055E+02  0.7546771E-02  0.1394833E+00
         -2   -1    0    0    0  501 -0.00000000000E+00  0.00000000000E+00  0.95595448952E+01  0.95595448952E+01  0.00000000000E+00 0. -1.
          2   -1    0    0  501    0  0.00000000000E+00 -0.00000000000E+00 -0.96421580138E+02  0.96421580138E+02  0.00000000000E+00 0.  1.
        -13    1    1    2    0    0 -0.21770339431E+02  0.89351350077E+00 -0.80332749128E+02  0.83235188639E+02  0.00000000000E+00 0.  1.
         13    1    1    2    0    0  0.21770339431E+02 -0.89351350077E+00 -0.65292861152E+01  0.22745936395E+02  0.00000000000E+00 0. -1.
<mgrwt>
<rscale>  0 0.60720554E+02</rscale>
<asrwt>0</asrwt>
<pdfrwt beam="2">  1        2 0.14834089E-01 0.60720554E+02</pdfrwt>
<pdfrwt beam="1">  1       -2 0.14706992E-02 0.60720554E+02</pdfrwt>
<totfact> 0.36018469E+05</totfact>
</mgrwt>
</event>
<event>
 4    1  0.2165211E+000  0.2601800E+02  0.7546771E-02  0.1646796E+00
         -2   -1    0    0    0  501 -0.00000000000E+00  0.00000000000E+00  0.16999551221E+02  0.16999551221E+02  0.00000000000E+00 0.  1.
          2   -1    0    0  501    0  0.00000000000E+00 -0.00000000000E+00 -0.99552124324E+01  0.99552124324E+01  0.00000000000E+00 0. -1.
        -11    1    1    2    0    0  0.15102389742E+01  0.12207360215E+02 -0.86511945251E+00  0.12330810875E+02  0.00000000000E+00 0. -1.
         11    1    1    2    0    0 -0.15102389742E+01 -0.12207360215E+02  0.79094582407E+01  0.14623952778E+02  0.00000000000E+00 0.  1.
<mgrwt>
<rscale>  0 0.26018005E+02</rscale>
<asrwt>0</asrwt>
<pdfrwt beam="2">  1        2 0.15315711E-02 0.26018005E+02</pdfrwt>
<pdfrwt beam="1">  1       -2 0.26153156E-02 0.26018005E+02</pdfrwt>
<totfact> 0.21265834E+06</totfact>
</mgrwt>
</event>
<event>
 4    1  0.2165211E+000  0.3953698E+02  0.7546771E-02  0.1511647E+00
          4   -1    0    0  501    0  0.00000000000E+00  0.00000000000E+00  0.14946202490E+03  0.14946202490E+03  0.00000000000E+00 0. -1.
         -4   -1    0    0    0  501 -0.00000000000E+00 -0.00000000000E+00 -0.26146652742E+01  0.26146652742E+01  0.00000000000E+00 0.  1.
        -11    1    1    2    0    0 -0.18399917679E+02  0.49535115711E+01  0.93667412072E+02  0.95585973509E+02  0.00000000000E+00 0. -1.
         11    1    1    2    0    0  0.18399917679E+02 -0.49535115711E+01  0.53179947550E+02  0.56490716661E+02  0.00000000000E+00 0.  1.
<mgrwt>
<rscale>  0 0.39536978E+02</rscale>
<asrwt>0</asrwt>
<pdfrwt beam="1">  1        4 0.22994151E-01 0.39536978E+02</pdfrwt>
<pdfrwt beam="2">  1       -4 0.40225631E-03 0.39536978E+02</pdfrwt>
<totfact> 0.19376235E+05</totfact>
</mgrwt>
</event>
<event>
 4    1  0.2165211E+000  0.3412439E+02  0.7546771E-02  0.1556516E+00
         -2   -1    0    0    0  501 -0.00000000000E+00  0.00000000000E+00  0.24698579920E+02  0.24698579920E+02  0.00000000000E+00 0. -1.
          2   -1    0    0  501    0  0.00000000000E+00 -0.00000000000E+00 -0.11786854142E+02  0.11786854142E+02  0.00000000000E+00 0.  1.
        -11    1    1    2    0    0 -0.57574052213E+01  0.12921968514E+02  0.16654917955E+02  0.21852031421E+02  0.00000000000E+00 0. -1.
         11    1    1    2    0    0  0.57574052213E+01 -0.12921968514E+02 -0.37431921774E+01  0.14633402640E+02  0.00000000000E+00 0.  1.
<mgrwt>
<rscale>  0 0.34124394E+02</rscale>
<asrwt>0</asrwt>
<pdfrwt beam="2">  1        2 0.18133622E-02 0.34124394E+02</pdfrwt>
<pdfrwt beam="1">  1       -2 0.37997815E-02 0.34124394E+02</pdfrwt>
<totfact> 0.11069303E+06</totfact>
</mgrwt>
</event>
<event>
 4    1  0.2165211E+000  0.4591842E+02  0.7546771E-02  0.1468688E+00
         -2   -1    0    0    0  501 -0.00000000000E+00  0.00000000000E+00  0.11318943838E+03  0.11318943838E+03  0.00000000000E+00 0. -1.
          2   -1    0    0  501    0  0.00000000000E+00 -0.00000000000E+00 -0.46570181526E+01  0.46570181526E+01  0.00000000000E+00 0.  1.
        -13    1    1    2    0    0  0.41373125110E+01  0.20129757231E+02  0.80539344630E+02  0.83119856319E+02  0.00000000000E+00 0. -1.
         13    1    1    2    0    0 -0.41373125110E+01 -0.20129757231E+02  0.27993075595E+02  0.34726600212E+02  0.00000000000E+00 0.  1.
<mgrwt>
<rscale>  0 0.45918418E+02</rscale>
<asrwt>0</asrwt>
<pdfrwt beam="2">  1        2 0.71646442E-03 0.45918418E+02</pdfrwt>
<pdfrwt beam="1">  1       -2 0.17413758E-01 0.45918418E+02</pdfrwt>
<totfact> 0.42040119E+05</totfact>
</mgrwt>
</event>
<event>
 4    1  0.2165211E+000  0.6467920E+02  0.7546771E-02  0.1379182E+00
         -4   -1    0    0    0  501 -0.00000000000E+00  0.00000000000E+00  0.20968476717E+03  0.20968476717E+03  0.00000000000E+00 0. -1.
          4   -1    0    0  501    0  0.00000000000E+00 -0.00000000000E+00 -0.49877236461E+01  0.49877236461E+01  0.00000000000E+00 0.  1.
        -13    1    1    2    0    0 -0.31039449803E+02  0.70962369865E+01  0.83559840603E+02  0.89420640710E+02  0.00000000000E+00 0.  1.
         13    1    1    2    0    0  0.31039449803E+02 -0.70962369865E+01  0.12113720292E+03  0.12525185011E+03  0.00000000000E+00 0. -1.
<mgrwt>
<rscale>  0 0.64679198E+02</rscale>
<asrwt>0</asrwt>
<pdfrwt beam="2">  1        4 0.76734226E-03 0.64679198E+02</pdfrwt>
<pdfrwt beam="1">  1       -4 0.32259188E-01 0.64679198E+02</pdfrwt>
<totfact> 0.50877463E+04</totfact>
</mgrwt>
</event>
<event>
 4    1  0.2165211E+000  0.2460010E+02  0.7546771E-02  0.1666813E+00
          1   -1    0    0  501    0  0.00000000000E+00  0.00000000000E+00  0.50688484679E+02  0.50688484679E+02  0.00000000000E+00 0.  1.
         -1   -1    0    0    0  501 -0.00000000000E+00 -0.00000000000E+00 -0.29847263145E+01  0.29847263145E+01  0.00000000000E+00 0. -1.
        -13    1    1    2    0    0 -0.28659833829E+00 -0.11830580185E+02  0.31168813078E+02  0.33339761169E+02  0.00000000000E+00 0.  1.
         13    1    1    2    0    0  0.28659833829E+00  0.11830580185E+02  0.16534945287E+02  0.20333449825E+02  0.00000000000E+00 0. -1.
<mgrwt>
<rscale>  0 0.24600102E+02</rscale>
<asrwt>0</asrwt>
<pdfrwt beam="1">  1        1 0.77982278E-02 0.24600102E+02</pdfrwt>
<pdfrwt beam="2">  1       -1 0.45918870E-03 0.24600102E+02</pdfrwt>
<totfact> 0.26136397E+06</totfact>
</mgrwt>
</event>
<event>
 4    1  0.2165211E+000  0.4666550E+02  0.7546771E-02  0.1464204E+00
         -2   -1    0    0    0  501 -0.00000000000E+00  0.00000000000E+00  0.38076420466E+01  0.38076420466E+01  0.00000000000E+00 0. -1.
          2   -1    0    0  501    0  0.00000000000E+00 -0.00000000000E+00 -0.14298012979E+03  0.14298012979E+03  0.00000000000E+00 0.  1.
        -11    1    1    2    0    0  0.19566329929E+02  0.88659571579E+00 -0.29699987440E+02  0.35576910670E+02  0.00000000000E+00 0.  1.
         11    1    1    2    0    0 -0.19566329929E+02 -0.88659571579E+00 -0.10947250030E+03  0.11121086116E+03  0.00000000000E+00 0. -1.
<mgrwt>
<rscale>  0 0.46665497E+02</rscale>
<asrwt>0</asrwt>
<pdfrwt beam="2">  1        2 0.21996943E-01 0.46665497E+02</pdfrwt>
<pdfrwt beam="1">  1       -2 0.58579108E-03 0.46665497E+02</pdfrwt>
<totfact> 0.78683216E+05</totfact>
</mgrwt>
</event>
<event>
 4    1  0.2165211E+000  0.8362582E+02  0.7546771E-02  0.1319066E+00
          2   -1    0    0  501    0  0.00000000000E+00  0.00000000000E+00  0.10885670955E+03  0.10885670955E+03  0.00000000000E+00 0. -1.
         -2   -1    0    0    0  501 -0.00000000000E+00 -0.00000000000E+00 -0.16060741021E+02  0.16060741021E+02  0.00000000000E+00 0.  1.
        -11    1    1    2    0    0 -0.28080411998E+02 -0.29484926748E+02  0.60604401166E+02  0.73012080398E+02  0.00000000000E+00 0. -1.
         11    1    1    2    0    0  0.28080411998E+02  0.29484926748E+02  0.32191567359E+02  0.51905370168E+02  0.00000000000E+00 0.  1.
<mgrwt>
<rscale>  0 0.83625819E+02</rscale>
<asrwt>0</asrwt>
<pdfrwt beam="1">  1        2 0.16747186E-01 0.83625819E+02</pdfrwt>
<pdfrwt beam="2">  1       -2 0.24708833E-02 0.83625819E+02</pdfrwt>
<totfact> 0.15937863E+05</totfact>
</mgrwt>
</event>
<event>
 4    1  0.2165211E+000  0.3584166E+02  0.7546771E-02  0.1541251E+00
          2   -1    0    0  501    0  0.00000000000E+00  0.00000000000E+00  0.34575549670E+01  0.34575549670E+01  0.00000000000E+00 0. -1.
         -2   -1    0    0    0  501 -0.00000000000E+00 -0.00000000000E+00 -0.92885348164E+02  0.92885348164E+02  0.00000000000E+00 0.  1.
        -13    1    1    2    0    0 -0.11673729834E+02 -0.13481274713E+02 -0.49473626043E+02  0.52589546585E+02  0.00000000000E+00 0. -1.
         13    1    1    2    0    0  0.11673729834E+02  0.13481274713E+02 -0.39954167154E+02  0.43753356546E+02  0.00000000000E+00 0.  1.
<mgrwt>
<rscale>  0 0.35841663E+02</rscale>
<asrwt>0</asrwt>
<pdfrwt beam="1">  1        2 0.53193149E-03 0.35841663E+02</pdfrwt>
<pdfrwt beam="2">  1       -2 0.14290055E-01 0.35841663E+02</pdfrwt>
<totfact> 0.80015731E+05</totfact>
</mgrwt>
</event>
<event>
 4    1  0.2165211E+000  0.6012063E+02  0.7546771E-02  0.1397326E+00
          2   -1    0    0  501    0  0.00000000000E+00  0.00000000000E+00  0.10260864386E+02  0.10260864386E+02  0.00000000000E+00 0.  1.
         -2   -1    0    0    0  501 -0.00000000000E+00 -0.00000000000E+00 -0.88064939232E+02  0.88064939232E+02  0.00000000000E+00 0. -1.
        -11    1    1    2    0    0  0.17802921892E+02 -0.22834374002E+02 -0.25689082947E+02  0.38707643258E+02  0.00000000000E+00 0.  1.
         11    1    1    2    0    0 -0.17802921892E+02  0.22834374002E+02 -0.52114991899E+02  0.59618160359E+02  0.00000000000E+00 0. -1.
<mgrwt>
<rscale>  0 0.60120625E+02</rscale>
<asrwt>0</asrwt>
<pdfrwt beam="1">  1        2 0.15785945E-02 0.60120625E+02</pdfrwt>
<pdfrwt beam="2">  1       -2 0.13548452E-01 0.60120625E+02</pdfrwt>
<totfact> 0.23182498E+05</totfact>
</mgrwt>
</event>
<event>
 4    1  0.2165211E+000  0.3295709E+02  0.7546771E-02  0.1567528E+00
          2   -1    0    0  501    0  0.00000000000E+00  0.00000000000E+00  0.63350713226E+01  0.63350713226E+01  0.00000000000E+00 0. -1.
         -2   -1    0    0    0  501 -0.00000000000E+00 -0.00000000000E+00 -0.42863366116E+02  0.42863366116E+02  0.00000000000E+00 0.  1.
        -11    1    1    2    0    0  0.10538734082E+02 -0.10328144900E+02 -0.73139546173E+01  0.16469044455E+02  0.00000000000E+00 0. -1.
         11    1    1    2    0    0 -0.10538734082E+02  0.10328144900E+02 -0.29214340176E+02  0.32729392984E+02  0.00000000000E+00 0.  1.
<mgrwt>
<rscale>  0 0.32957092E+02</rscale>
<asrwt>0</asrwt>
<pdfrwt beam="1">  1        2 0.97462636E-03 0.32957092E+02</pdfrwt>
<pdfrwt beam="2">  1       -2 0.65943640E-02 0.32957092E+02</pdfrwt>
<totfact> 0.11193962E+06</totfact>
</mgrwt>
</event>
<event>
 4    1  0.2165211E+000  0.2450434E+02  0.7546771E-02  0.1668225E+00
         -4   -1    0    0    0  501 -0.00000000000E+00  0.00000000000E+00  0.75315069696E+02  0.75315069696E+02  0.00000000000E+00 0.  1.
          4   -1    0    0  501    0  0.00000000000E+00 -0.00000000000E+00 -0.19931693249E+01  0.19931693249E+01  0.00000000000E+00 0. -1.
        -11    1    1    2    0    0  0.36111628856E+01 -0.11387308853E+02  0.45245692855E+02  0.46796196665E+02  0.00000000000E+00 0.  1.
         11    1    1    2    0    0 -0.36111628856E+01  0.11387308853E+02  0.28076207516E+02  0.30512042357E+02  0.00000000000E+00 0. -1.
<mgrwt>
<rscale>  0 0.24504341E+02</rscale>
<asrwt>0</asrwt>
<pdfrwt beam="2">  1        4 0.30664149E-03 0.24504341E+02</pdfrwt>
<pdfrwt beam="1">  1       -4 0.11586932E-01 0.24504341E+02</pdfrwt>
<totfact> 0.68987933E+05</totfact>
</mgrwt>
</event>
<event>
 4    1  0.2165211E+000  0.6007670E+02  0.7546771E-02  0.1397510E+00
         -2   -1    0    0    0  501 -0.00000000000E+00  0.00000000000E+00  0.33683383903E+01  0.33683383903E+01  0.00000000000E+00 0.  1.
          2   -1    0    0  501    0  0.00000000000E+00 -0.00000000000E+00 -0.26787759570E+03  0.26787759570E+03  0.00000000000E+00 0. -1.
        -13    1    1    2    0    0 -0.57924951099E+01 -0.29419163131E+02 -0.14040945119E+03  0.14357525603E+03  0.00000000000E+00 0. -1.
         13    1    1    2    0    0  0.57924951099E+01  0.29419163131E+02 -0.12409980611E+03  0.12767067806E+03  0.00000000000E+00 0.  1.
<mgrwt>
<rscale>  0 0.60076697E+02</rscale>
<asrwt>0</asrwt>
<pdfrwt beam="2">  1        2 0.41211931E-01 0.60076697E+02</pdfrwt>
<pdfrwt beam="1">  1       -2 0.51820599E-03 0.60076697E+02</pdfrwt>
<totfact> 0.51186801E+05</totfact>
</mgrwt>
</event>
<event>
 4    1  0.2165211E+000  0.3440418E+02  0.7546771E-02  0.1553956E+00
          2   -1    0    0  501    0  0.00000000000E+00  0.00000000000E+00  0.58771730263E+01  0.58771730263E+01  0.00000000000E+00 0.  1.
         -2   -1    0    0    0  501 -0.00000000000E+00 -0.00000000000E+00 -0.50349356809E+02  0.50349356809E+02  0.00000000000E+00 0. -1.
        -13    1    1    2    0    0 -0.11477458042E+02 -0.98720323882E+01 -0.88865222883E+01  0.17554467949E+02  0.00000000000E+00 0.  1.
         13    1    1    2    0    0  0.11477458042E+02  0.98720323882E+01 -0.35585661495E+02  0.38672061887E+02  0.00000000000E+00 0. -1.
<mgrwt>
<rscale>  0 0.34404179E+02</rscale>
<asrwt>0</asrwt>
<pdfrwt beam="1">  1        2 0.90418048E-03 0.34404179E+02</pdfrwt>
<pdfrwt beam="2">  1       -2 0.77460547E-02 0.34404179E+02</pdfrwt>
<totfact> 0.98904385E+05</totfact>
</mgrwt>
</event>
<event>
 4    1  0.2165211E+000  0.2580236E+02  0.7546771E-02  0.1649738E+00
          2   -1    0    0  501    0  0.00000000000E+00  0.00000000000E+00  0.46997881501E+02  0.46997881501E+02  0.00000000000E+00 0.  1.
         -2   -1    0    0    0  501 -0.00000000000E+00 -0.00000000000E+00 -0.35414447815E+01  0.35414447815E+01  0.00000000000E+00 0. -1.
        -11    1    1    2    0    0 -0.12602640534E+02 -0.41883008418E+00  0.27070304223E+02  0.29863076496E+02  0.00000000000E+00 0. -1.
         11    1    1    2    0    0  0.12602640534E+02  0.41883008418E+00  0.16386132497E+02  0.20676249787E+02  0.00000000000E+00 0.  1.
<mgrwt>
<rscale>  0 0.25802357E+02</rscale>
<asrwt>0</asrwt>
<pdfrwt beam="1">  1        2 0.72304428E-02 0.25802357E+02</pdfrwt>
<pdfrwt beam="2">  1       -2 0.54483770E-03 0.25802357E+02</pdfrwt>
<totfact> 0.25680384E+06</totfact>
</mgrwt>
</event>
<event>
 4    1  0.2165211E+000  0.5529913E+02  0.7546771E-02  0.1418690E+00
          4   -1    0    0  501    0  0.00000000000E+00  0.00000000000E+00  0.34620373642E+02  0.34620373642E+02  0.00000000000E+00 0.  1.
         -4   -1    0    0    0  501 -0.00000000000E+00 -0.00000000000E+00 -0.22082325396E+02  0.22082325396E+02  0.00000000000E+00 0. -1.
        -13    1    1    2    0    0  0.11417718323E+02  0.79764311125E+01 -0.18222585095E+02  0.22935787593E+02  0.00000000000E+00 0. -1.
         13    1    1    2    0    0 -0.11417718323E+02 -0.79764311125E+01  0.30760633341E+02  0.33766911445E+02  0.00000000000E+00 0.  1.
<mgrwt>
<rscale>  0 0.55299127E+02</rscale>
<asrwt>0</asrwt>
<pdfrwt beam="1">  1        4 0.53262114E-02 0.55299127E+02</pdfrwt>
<pdfrwt beam="2">  1       -4 0.33972808E-02 0.55299127E+02</pdfrwt>
<totfact> 0.10974480E+05</totfact>
</mgrwt>
</event>
<event>
 4    1  0.2165211E+000  0.2671597E+02  0.7546771E-02  0.1637512E+00
          2   -1    0    0  501    0  0.00000000000E+00  0.00000000000E+00  0.27126277128E+02  0.27126277128E+02  0.00000000000E+00 0.  1.
         -2   -1    0    0    0  501 -0.00000000000E+00 -0.00000000000E+00 -0.65779675921E+01  0.65779675921E+01  0.00000000000E+00 0. -1.
        -11    1    1    2    0    0  0.12573219446E+02  0.34265040456E+01  0.65725515832E+01  0.14595383227E+02  0.00000000000E+00 0.  1.
         11    1    1    2    0    0 -0.12573219446E+02 -0.34265040456E+01  0.13975757952E+02  0.19108861493E+02  0.00000000000E+00 0. -1.
<mgrwt>
<rscale>  0 0.26715971E+02</rscale>
<asrwt>0</asrwt>
<pdfrwt beam="1">  1        2 0.41732734E-02 0.26715971E+02</pdfrwt>
<pdfrwt beam="2">  1       -2 0.10119950E-02 0.26715971E+02</pdfrwt>
<totfact> 0.22016310E+06</totfact>
</mgrwt>
</event>
<event>
 4    1  0.2165211E+000  0.2709413E+02  0.7546771E-02  0.1632626E+00
         -2   -1    0    0    0  501 -0.00000000000E+00  0.00000000000E+00  0.20076179062E+01  0.20076179062E+01  0.00000000000E+00 0.  1.
          2   -1    0    0  501    0  0.00000000000E+00 -0.00000000000E+00 -0.91413317029E+02  0.91413317029E+02  0.00000000000E+00 0. -1.
        -13    1    1    2    0    0  0.11730906442E+02  0.28802145449E+01 -0.65849381406E+02  0.66948120461E+02  0.00000000000E+00 0. -1.
         13    1    1    2    0    0 -0.11730906442E+02 -0.28802145449E+01 -0.23556317717E+02  0.26472814474E+02  0.00000000000E+00 0.  1.
<mgrwt>
<rscale>  0 0.27094133E+02</rscale>
<asrwt>0</asrwt>
<pdfrwt beam="2">  1        2 0.14063580E-01 0.27094133E+02</pdfrwt>
<pdfrwt beam="1">  1       -2 0.30886444E-03 0.27094133E+02</pdfrwt>
<totfact> 0.25975401E+06</totfact>
</mgrwt>
</event>
<event>
 4    1  0.2165211E+000  0.2050629E+02  0.7546771E-02  0.1735443E+00
         -4   -1    0    0    0  501 -0.00000000000E+00  0.00000000000E+00  0.25623401813E+01  0.25623401813E+01  0.00000000000E+00 0.  1.
          4   -1    0    0  501    0  0.00000000000E+00 -0.00000000000E+00 -0.41027742525E+02  0.41027742525E+02  0.00000000000E+00 0. -1.
        -13    1    1    2    0    0 -0.35131814486E+01 -0.94021246045E+01 -0.23683803469E+02  0.25722848554E+02  0.00000000000E+00 0. -1.
         13    1    1    2    0    0  0.35131814486E+01  0.94021246045E+01 -0.14781598875E+02  0.17867234153E+02  0.00000000000E+00 0.  1.
<mgrwt>
<rscale>  0 0.20506295E+02</rscale>
<asrwt>0</asrwt>
<pdfrwt beam="2">  1        4 0.63119599E-02 0.20506295E+02</pdfrwt>
<pdfrwt beam="1">  1       -4 0.39420621E-03 0.20506295E+02</pdfrwt>
<totfact> 0.11213709E+06</totfact>
</mgrwt>
</event>
<event>
 4    1  0.2165211E+000  0.2592534E+02  0.7546771E-02  0.1648056E+00
          2   -1    0    0  501    0  0.00000000000E+00  0.00000000000E+00  0.34812320738E+02  0.34812320738E+02  0.00000000000E+00 0.  1.
         -2   -1    0    0    0  501 -0.00000000000E+00 -0.00000000000E+00 -0.48267623071E+01  0.48267623071E+01  0.00000000000E+00 0. -1.
        -13    1    1    2    0    0 -0.11636950375E+02  0.19494640514E+01  0.67857844769E+01  0.13611241497E+02  0.00000000000E+00 0. -1.
         13    1    1    2    0    0  0.11636950375E+02 -0.19494640514E+01  0.23199773954E+02  0.26027841548E+02  0.00000000000E+00 0.  1.
<mgrwt>
<rscale>  0 0.25925339E+02</rscale>
<asrwt>0</asrwt>
<pdfrwt beam="1">  1        2 0.53557415E-02 0.25925339E+02</pdfrwt>
<pdfrwt beam="2">  1       -2 0.74257884E-03 0.25925339E+02</pdfrwt>
<totfact> 0.24350746E+06</totfact>
</mgrwt>
</event>
<event>
 4    1  0.2165211E+000  0.2230085E+02  0.7546771E-02  0.1703100E+00
          2   -1    0    0  501    0  0.00000000000E+00  0.00000000000E+00  0.73538594968E+01  0.73538594968E+01  0.00000000000E+00 0.  1.
         -2   -1    0    0    0  501 -0.00000000000E+00 -0.00000000000E+00 -0.16907036333E+02  0.16907036333E+02  0.00000000000E+00 0. -1.
        -13    1    1    2    0    0 -0.97754645948E+01  0.38619007400E+01 -0.88264060185E+01  0.13725138563E+02  0.00000000000E+00 0. -1.
         13    1    1    2    0    0  0.97754645948E+01 -0.38619007400E+01 -0.72677081787E+00  0.10535757267E+02  0.00000000000E+00 0.  1.
<mgrwt>
<rscale>  0 0.22300849E+02</rscale>
<asrwt>0</asrwt>
<pdfrwt beam="1">  1        2 0.11313630E-02 0.22300849E+02</pdfrwt>
<pdfrwt beam="2">  1       -2 0.26010825E-02 0.22300849E+02</pdfrwt>
<totfact> 0.29921800E+06</totfact>
</mgrwt>
</event>
<event>
 4    1  0.2165211E+000  0.2276605E+02  0.7546771E-02  0.1695331E+00
          2   -1    0    0  501    0  0.00000000000E+00  0.00000000000E+00  0.21374091255E+02  0.21374091255E+02  0.00000000000E+00 0.  1.
         -2   -1    0    0    0  501 -0.00000000000E+00 -0.00000000000E+00 -0.60621649617E+01  0.60621649617E+01  0.00000000000E+00 0. -1.
        -11    1    1    2    0    0 -0.47215129421E+01 -0.10210150285E+02  0.55570088710E+01  0.12546720723E+02  0.00000000000E+00 0. -1.
         11    1    1    2    0    0  0.47215129421E+01  0.10210150285E+02  0.97549174219E+01  0.14889535493E+02  0.00000000000E+00 0.  1.
<mgrwt>
<rscale>  0 0.22766051E+02</rscale>
<asrwt>0</asrwt>
<pdfrwt beam="1">  1        2 0.32883217E-02 0.22766051E+02</pdfrwt>
<pdfrwt beam="2">  1       -2 0.93264077E-03 0.22766051E+02</pdfrwt>
<totfact> 0.31200331E+06</totfact>
</mgrwt>
</event>
<event>
 4    1  0.2165211E+000  0.2363936E+02  0.7546771E-02  0.1681351E+00
         -2   -1    0    0    0  501 -0.00000000000E+00  0.00000000000E+00  0.45699128456E+01  0.45699128456E+01  0.00000000000E+00 0. -1.
          2   -1    0    0  501    0  0.00000000000E+00 -0.00000000000E+00 -0.30570559300E+02  0.30570559300E+02  0.00000000000E+00 0.  1.
        -11    1    1    2    0    0 -0.10865070626E+02 -0.30671648137E+01 -0.77980131282E+01  0.13721015577E+02  0.00000000000E+00 0. -1.
         11    1    1    2    0    0  0.10865070626E+02  0.30671648137E+01 -0.18202633326E+02  0.21419456569E+02  0.00000000000E+00 0.  1.
<mgrwt>
<rscale>  0 0.23639356E+02</rscale>
<asrwt>0</asrwt>
<pdfrwt beam="2">  1        2 0.47031630E-02 0.23639356E+02</pdfrwt>
<pdfrwt beam="1">  1       -2 0.70306351E-03 0.23639356E+02</pdfrwt>
<totfact> 0.29706042E+06</totfact>
</mgrwt>
</event>
<event>
 4    1  0.2165211E+000  0.5140839E+02  0.7546771E-02  0.1437890E+00
         -1   -1    0    0    0  501 -0.00000000000E+00  0.00000000000E+00  0.47472609100E+01  0.47472609100E+01  0.00000000000E+00 0. -1.
          1   -1    0    0  501    0  0.00000000000E+00 -0.00000000000E+00 -0.13917617885E+03  0.13917617885E+03  0.00000000000E+00 0.  1.
        -11    1    1    2    0    0  0.22295147790E+02  0.12440488702E+02 -0.58878266286E+02  0.64175459601E+02  0.00000000000E+00 0. -1.
         11    1    1    2    0    0 -0.22295147790E+02 -0.12440488702E+02 -0.75550651650E+02  0.79747980155E+02  0.00000000000E+00 0.  1.
<mgrwt>
<rscale>  0 0.51408390E+02</rscale>
<asrwt>0</asrwt>
<pdfrwt beam="2">  1        1 0.21411722E-01 0.51408390E+02</pdfrwt>
<pdfrwt beam="1">  1       -1 0.73034775E-03 0.51408390E+02</pdfrwt>
<totfact> 0.49381945E+05</totfact>
</mgrwt>
</event>
<event>
 4    1  0.2165211E+000  0.3021883E+02  0.7546771E-02  0.1595682E+00
         -2   -1    0    0    0  501 -0.00000000000E+00  0.00000000000E+00  0.72832671100E+01  0.72832671100E+01  0.00000000000E+00 0.  1.
          2   -1    0    0  501    0  0.00000000000E+00 -0.00000000000E+00 -0.31345048760E+02  0.31345048760E+02  0.00000000000E+00 0. -1.
        -13    1    1    2    0    0 -0.23941243230E+01  0.13961626380E+02 -0.18750778395E+02  0.23500011337E+02  0.00000000000E+00 0. -1.
         13    1    1    2    0    0  0.23941243230E+01 -0.13961626380E+02 -0.53110032550E+01  0.15128304532E+02  0.00000000000E+00 0.  1.
<mgrwt>
<rscale>  0 0.30218826E+02</rscale>
<asrwt>0</asrwt>
<pdfrwt beam="2">  1        2 0.48223151E-02 0.30218826E+02</pdfrwt>
<pdfrwt beam="1">  1       -2 0.11205026E-02 0.30218826E+02</pdfrwt>
<totfact> 0.16703811E+06</totfact>
</mgrwt>
</event>
<event>
 4    1  0.2165211E+000  0.3224457E+02  0.7546771E-02  0.1574526E+00
          2   -1    0    0  501    0  0.00000000000E+00  0.00000000000E+00  0.18274081026E+01  0.18274081026E+01  0.00000000000E+00 0. -1.
         -2   -1    0    0    0  501 -0.00000000000E+00 -0.00000000000E+00 -0.14223863668E+03  0.14223863668E+03  0.00000000000E+00 0.  1.
        -11    1    1    2    0    0  0.56220938653E+01 -0.15074275726E+02 -0.65548876550E+02  0.67494421585E+02  0.00000000000E+00 0.  1.
         11    1    1    2    0    0 -0.56220938653E+01  0.15074275726E+02 -0.74862352031E+02  0.76571623202E+02  0.00000000000E+00 0. -1.
<mgrwt>
<rscale>  0 0.32244568E+02</rscale>
<asrwt>0</asrwt>
<pdfrwt beam="1">  1        2 0.28113967E-03 0.32244568E+02</pdfrwt>
<pdfrwt beam="2">  1       -2 0.21882870E-01 0.32244568E+02</pdfrwt>
<totfact> 0.91425036E+05</totfact>
</mgrwt>
</event>
<event>
 4    1  0.2165211E+000  0.4855421E+02  0.7546771E-02  0.1453299E+00
          3   -1    0    0  501    0  0.00000000000E+00  0.00000000000E+00  0.12085454988E+02  0.12085454988E+02  0.00000000000E+00 0.  1.
         -3   -1    0    0    0  501 -0.00000000000E+00 -0.00000000000E+00 -0.48767537962E+02  0.48767537962E+02  0.00000000000E+00 0. -1.
        -13    1    1    2    0    0  0.12421120012E+02  0.26319676213E+01  0.75924700024E+01  0.14793818867E+02  0.00000000000E+00 0.  1.
         13    1    1    2    0    0 -0.12421120012E+02 -0.26319676213E+01 -0.44274552977E+02  0.46059174083E+02  0.00000000000E+00 0. -1.
<mgrwt>
<rscale>  0 0.48554212E+02</rscale>
<asrwt>0</asrwt>
<pdfrwt beam="1">  1        3 0.18593008E-02 0.48554212E+02</pdfrwt>
<pdfrwt beam="2">  1       -3 0.75026982E-02 0.48554212E+02</pdfrwt>
<totfact> 0.19777496E+05</totfact>
</mgrwt>
</event>
<event>
 4    1  0.2165211E+000  0.2262432E+02  0.7546771E-02  0.1697673E+00
          2   -1    0    0  501    0  0.00000000000E+00  0.00000000000E+00  0.29605114333E+01  0.29605114333E+01  0.00000000000E+00 0. -1.
         -2   -1    0    0    0  501 -0.00000000000E+00 -0.00000000000E+00 -0.43223935618E+02  0.43223935618E+02  0.00000000000E+00 0.  1.
        -11    1    1    2    0    0 -0.67955459471E+01  0.83918982812E+01 -0.27012514681E+02  0.29090880889E+02  0.00000000000E+00 0. -1.
         11    1    1    2    0    0  0.67955459471E+01 -0.83918982812E+01 -0.13250909503E+02  0.17093566162E+02  0.00000000000E+00 0.  1.
<mgrwt>
<rscale>  0 0.22624319E+02</rscale>
<asrwt>0</asrwt>
<pdfrwt beam="1">  1        2 0.45546329E-03 0.22624319E+02</pdfrwt>
<pdfrwt beam="2">  1       -2 0.66498363E-02 0.22624319E+02</pdfrwt>
<totfact> 0.26343462E+06</totfact>
</mgrwt>
</event>
<event>
 4    1  0.2165211E+000  0.3239683E+02  0.7546771E-02  0.1573012E+00
         -2   -1    0    0    0  501 -0.00000000000E+00  0.00000000000E+00  0.59429168006E+02  0.59429168006E+02  0.00000000000E+00 0. -1.
          2   -1    0    0  501    0  0.00000000000E+00 -0.00000000000E+00 -0.44151484313E+01  0.44151484313E+01  0.00000000000E+00 0.  1.
        -11    1    1    2    0    0 -0.10292868584E+02 -0.51676250147E+01  0.50599964730E+01  0.12579787609E+02  0.00000000000E+00 0.  1.
         11    1    1    2    0    0  0.10292868584E+02  0.51676250147E+01  0.49954023102E+02  0.51264528829E+02  0.00000000000E+00 0. -1.
<mgrwt>
<rscale>  0 0.32396827E+02</rscale>
<asrwt>0</asrwt>
<pdfrwt beam="2">  1        2 0.67925365E-03 0.32396827E+02</pdfrwt>
<pdfrwt beam="1">  1       -2 0.91429484E-02 0.32396827E+02</pdfrwt>
<totfact> 0.11081111E+06</totfact>
</mgrwt>
</event>
<event>
 4    1  0.2165211E+000  0.3885104E+02  0.7546771E-02  0.1516841E+00
          2   -1    0    0  501    0  0.00000000000E+00  0.00000000000E+00  0.29264514851E+02  0.29264514851E+02  0.00000000000E+00 0.  1.
         -2   -1    0    0    0  501 -0.00000000000E+00 -0.00000000000E+00 -0.12894483206E+02  0.12894483206E+02  0.00000000000E+00 0. -1.
        -11    1    1    2    0    0 -0.12969553741E+02 -0.13983451714E+02  0.41825306806E+01  0.19525363222E+02  0.00000000000E+00 0.  1.
         11    1    1    2    0    0  0.12969553741E+02  0.13983451714E+02  0.12187500964E+02  0.22633634834E+02  0.00000000000E+00 0. -1.
<mgrwt>
<rscale>  0 0.38851038E+02</rscale>
<asrwt>0</asrwt>
<pdfrwt beam="1">  1        2 0.45022330E-02 0.38851038E+02</pdfrwt>
<pdfrwt beam="2">  1       -2 0.19837667E-02 0.38851038E+02</pdfrwt>
<totfact> 0.89282505E+05</totfact>
</mgrwt>
</event>
<event>
 4    1  0.2165211E+000  0.6471502E+02  0.7546771E-02  0.1379047E+00
          2   -1    0    0  501    0  0.00000000000E+00  0.00000000000E+00  0.53166631198E+02  0.53166631198E+02  0.00000000000E+00 0.  1.
         -2   -1    0    0    0  501 -0.00000000000E+00 -0.00000000000E+00 -0.19692959832E+02  0.19692959832E+02  0.00000000000E+00 0. -1.
        -13    1    1    2    0    0  0.29863542971E+02 -0.10940294391E+02  0.23443659118E+02  0.39511092025E+02  0.00000000000E+00 0.  1.
         13    1    1    2    0    0 -0.29863542971E+02  0.10940294391E+02  0.10030012248E+02  0.33348499005E+02  0.00000000000E+00 0. -1.
<mgrwt>
<rscale>  0 0.64715016E+02</rscale>
<asrwt>0</asrwt>
<pdfrwt beam="1">  1        2 0.81794817E-02 0.64715016E+02</pdfrwt>
<pdfrwt beam="2">  1       -2 0.30296861E-02 0.64715016E+02</pdfrwt>
<totfact> 0.26401953E+05</totfact>
</mgrwt>
</event>
<event>
 4    1  0.2165211E+000  0.3233269E+02  0.7546771E-02  0.1573648E+00
         -2   -1    0    0    0  501 -0.00000000000E+00  0.00000000000E+00  0.95352100864E+01  0.95352100864E+01  0.00000000000E+00 0. -1.
          2   -1    0    0  501    0  0.00000000000E+00 -0.00000000000E+00 -0.27409018484E+02  0.27409018484E+02  0.00000000000E+00 0.  1.
        -11    1    1    2    0    0  0.15086083499E+01  0.13712121457E+02 -0.18568420062E+02  0.23131891354E+02  0.00000000000E+00 0. -1.
         11    1    1    2    0    0 -0.15086083499E+01 -0.13712121457E+02  0.69461166522E+00  0.13812337216E+02  0.00000000000E+00 0.  1.
<mgrwt>
<rscale>  0 0.32332692E+02</rscale>
<asrwt>0</asrwt>
<pdfrwt beam="2">  1        2 0.42167720E-02 0.32332692E+02</pdfrwt>
<pdfrwt beam="1">  1       -2 0.14669554E-02 0.32332692E+02</pdfrwt>
<totfact> 0.13943319E+06</totfact>
</mgrwt>
</event>
<event>
 4    1  0.2165211E+000  0.2176293E+02  0.7546771E-02  0.1712385E+00
         -2   -1    0    0    0  501 -0.00000000000E+00  0.00000000000E+00  0.10900741664E+01  0.10900741664E+01  0.00000000000E+00 0.  1.
          2   -1    0    0  501    0  0.00000000000E+00 -0.00000000000E+00 -0.10862220326E+03  0.10862220326E+03  0.00000000000E+00 0. -1.
        -13    1    1    2    0    0 -0.10765779831E+02  0.12961877933E+01 -0.49189513881E+02  0.50370531008E+02  0.00000000000E+00 0.  1.
         13    1    1    2    0    0  0.10765779831E+02 -0.12961877933E+01 -0.58342615211E+02  0.59341746417E+02  0.00000000000E+00 0. -1.
<mgrwt>
<rscale>  0 0.21762928E+02</rscale>
<asrwt>0</asrwt>
<pdfrwt beam="2">  1        2 0.16711103E-01 0.21762928E+02</pdfrwt>
<pdfrwt beam="1">  1       -2 0.16770377E-03 0.21762928E+02</pdfrwt>
<totfact> 0.44580387E+06</totfact>
</mgrwt>
</event>
<event>
 4    1  0.2165211E+000  0.3273075E+02  0.7546771E-02  0.1569728E+00
         -2   -1    0    0    0  501 -0.00000000000E+00  0.00000000000E+00  0.59596266012E+02  0.59596266012E+02  0.00000000000E+00 0.  1.
          2   -1    0    0  501    0  0.00000000000E+00 -0.00000000000E+00 -0.44939968126E+01  0.44939968126E+01  0.00000000000E+00 0. -1.
        -13    1    1    2    0    0  0.14059878776E+02  0.81600398837E+01  0.23857113448E+02  0.28869158355E+02  0.00000000000E+00 0.  1.
         13    1    1    2    0    0 -0.14059878776E+02 -0.81600398837E+01  0.31245155752E+02  0.35221104470E+02  0.00000000000E+00 0. -1.
<mgrwt>
<rscale>  0 0.32730746E+02</rscale>
<asrwt>0</asrwt>
<pdfrwt beam="2">  1        2 0.69138417E-03 0.32730746E+02</pdfrwt>
<pdfrwt beam="1">  1       -2 0.91686557E-02 0.32730746E+02</pdfrwt>
<totfact> 0.10814095E+06</totfact>
</mgrwt>
</event>
<event>
 4    1  0.2165211E+000  0.2756998E+02  0.7546771E-02  0.1626615E+00
         -4   -1    0    0    0  501 -0.00000000000E+00  0.00000000000E+00  0.33960316141E+01  0.33960316141E+01  0.00000000000E+00 0. -1.
          4   -1    0    0  501    0  0.00000000000E+00 -0.00000000000E+00 -0.55955284248E+02  0.55955284248E+02  0.00000000000E+00 0.  1.
        -13    1    1    2    0    0 -0.10610463425E+02  0.65529522502E+01 -0.13634560549E+02  0.18477671894E+02  0.00000000000E+00 0.  1.
         13    1    1    2    0    0  0.10610463425E+02 -0.65529522502E+01 -0.38924692085E+02  0.40873643968E+02  0.00000000000E+00 0. -1.
<mgrwt>
<rscale>  0 0.27569977E+02</rscale>
<asrwt>0</asrwt>
<pdfrwt beam="2">  1        4 0.86085050E-02 0.27569977E+02</pdfrwt>
<pdfrwt beam="1">  1       -4 0.52246642E-03 0.27569977E+02</pdfrwt>
<totfact> 0.56594532E+05</totfact>
</mgrwt>
</event>
<event>
 4    1  0.2165211E+000  0.2200266E+02  0.7546771E-02  0.1708206E+00
          2   -1    0    0  501    0  0.00000000000E+00  0.00000000000E+00  0.21616962465E+02  0.21616962465E+02  0.00000000000E+00 0.  1.
         -2   -1    0    0    0  501 -0.00000000000E+00 -0.00000000000E+00 -0.55988093891E+01  0.55988093891E+01  0.00000000000E+00 0. -1.
        -11    1    1    2    0    0  0.19621858235E+01  0.10605961937E+02  0.53295713981E+01  0.12030832602E+02  0.00000000000E+00 0. -1.
         11    1    1    2    0    0 -0.19621858235E+01 -0.10605961937E+02  0.10688581678E+02  0.15184939252E+02  0.00000000000E+00 0.  1.
<mgrwt>
<rscale>  0 0.22002659E+02</rscale>
<asrwt>0</asrwt>
<pdfrwt beam="1">  1        2 0.33256865E-02 0.22002659E+02</pdfrwt>
<pdfrwt beam="2">  1       -2 0.86135530E-03 0.22002659E+02</pdfrwt>
<totfact> 0.33782762E+06</totfact>
</mgrwt>
</event>
<event>
 4    1  0.2165211E+000  0.2647171E+02  0.7546771E-02  0.1640721E+00
         -2   -1    0    0    0  501 -0.00000000000E+00  0.00000000000E+00  0.81282161216E+01  0.81282161216E+01  0.00000000000E+00 0.  1.
          2   -1    0    0  501    0  0.00000000000E+00 -0.00000000000E+00 -0.21553045220E+02  0.21553045220E+02  0.00000000000E+00 0. -1.
        -11    1    1    2    0    0  0.79858227530E+01 -0.73322688782E+01  0.18010954558E+01  0.10989971646E+02  0.00000000000E+00 0.  1.
         11    1    1    2    0    0 -0.79858227530E+01  0.73322688782E+01 -0.15225924554E+02  0.18691289695E+02  0.00000000000E+00 0. -1.
<mgrwt>
<rscale>  0 0.26471706E+02</rscale>
<asrwt>0</asrwt>
<pdfrwt beam="2">  1        2 0.33158530E-02 0.26471706E+02</pdfrwt>
<pdfrwt beam="1">  1       -2 0.12504948E-02 0.26471706E+02</pdfrwt>
<totfact> 0.21946996E+06</totfact>
</mgrwt>
</event>
<event>
 4    1  0.2165211E+000  0.2536263E+02  0.7546771E-02  0.1655847E+00
          3   -1    0    0  501    0  0.00000000000E+00  0.00000000000E+00  0.10430162120E+02  0.10430162120E+02  0.00000000000E+00 0.  1.
         -3   -1    0    0    0  501 -0.00000000000E+00 -0.00000000000E+00 -0.15418331906E+02  0.15418331906E+02  0.00000000000E+00 0. -1.
        -11    1    1    2    0    0 -0.11479566494E+02 -0.35135444585E+01  0.16695493751E+01  0.12120760565E+02  0.00000000000E+00 0.  1.
         11    1    1    2    0    0  0.11479566494E+02  0.35135444585E+01 -0.66577191606E+01  0.13727733461E+02  0.00000000000E+00 0. -1.
<mgrwt>
<rscale>  0 0.25362626E+02</rscale>
<asrwt>0</asrwt>
<pdfrwt beam="1">  1        3 0.16046403E-02 0.25362626E+02</pdfrwt>
<pdfrwt beam="2">  1       -3 0.23720510E-02 0.25362626E+02</pdfrwt>
<totfact> 0.10357985E+06</totfact>
</mgrwt>
</event>
<event>
 4    1  0.2165211E+000  0.2616088E+02  0.7546771E-02  0.1644867E+00
          4   -1    0    0  501    0  0.00000000000E+00  0.00000000000E+00  0.56898388640E+01  0.56898388640E+01  0.00000000000E+00 0. -1.
         -4   -1    0    0    0  501 -0.00000000000E+00 -0.00000000000E+00 -0.30070774539E+02  0.30070774539E+02  0.00000000000E+00 0.  1.
        -13    1    1    2    0    0  0.11226916477E+02  0.23895812881E+01 -0.36162891068E+01  0.12034587621E+02  0.00000000000E+00 0. -1.
         13    1    1    2    0    0 -0.11226916477E+02 -0.23895812881E+01 -0.20764646569E+02  0.23726025782E+02  0.00000000000E+00 0.  1.
<mgrwt>
<rscale>  0 0.26160876E+02</rscale>
<asrwt>0</asrwt>
<pdfrwt beam="1">  1        4 0.87535985E-03 0.26160876E+02</pdfrwt>
<pdfrwt beam="2">  1       -4 0.46262729E-02 0.26160876E+02</pdfrwt>
<totfact> 0.69005278E+05</totfact>
</mgrwt>
</event>
<event>
 4    1  0.2165211E+000  0.5216843E+02  0.7546771E-02  0.1433985E+00
          1   -1    0    0  501    0  0.00000000000E+00  0.00000000000E+00  0.79279973967E+02  0.79279973967E+02  0.00000000000E+00 0. -1.
         -1   -1    0    0    0  501 -0.00000000000E+00 -0.00000000000E+00 -0.85820706145E+01  0.85820706145E+01  0.00000000000E+00 0.  1.
        -11    1    1    2    0    0  0.74315931206E+01  0.20483756367E+02  0.59496723644E+02  0.63361447077E+02  0.00000000000E+00 0. -1.
         11    1    1    2    0    0 -0.74315931206E+01 -0.20483756367E+02  0.11201179708E+02  0.24500597505E+02  0.00000000000E+00 0.  1.
<mgrwt>
<rscale>  0 0.52168432E+02</rscale>
<asrwt>0</asrwt>
<pdfrwt beam="1">  1        1 0.12196919E-01 0.52168432E+02</pdfrwt>
<pdfrwt beam="2">  1       -1 0.13203186E-02 0.52168432E+02</pdfrwt>
<totfact> 0.44016155E+05</totfact>
</mgrwt>
</event>
<event>
 4    1  0.2165211E+000  0.3317921E+02  0.7546771E-02  0.1565391E+00
         -4   -1    0    0    0  501 -0.00000000000E+00  0.00000000000E+00  0.36671901010E+01  0.36671901010E+01  0.00000000000E+00 0. -1.
          4   -1    0    0  501    0  0.00000000000E+00 -0.00000000000E+00 -0.75047908683E+02  0.75047908683E+02  0.00000000000E+00 0.  1.
        -11    1    1    2    0    0 -0.12756083953E+02 -0.71135713979E+01 -0.17025805133E+02  0.22432088986E+02  0.00000000000E+00 0. -1.
         11    1    1    2    0    0  0.12756083953E+02  0.71135713979E+01 -0.54354913449E+02  0.56283009798E+02  0.00000000000E+00 0.  1.
<mgrwt>
<rscale>  0 0.33179207E+02</rscale>
<asrwt>0</asrwt>
<pdfrwt beam="2">  1        4 0.11545831E-01 0.33179207E+02</pdfrwt>
<pdfrwt beam="1">  1       -4 0.56418317E-03 0.33179207E+02</pdfrwt>
<totfact> 0.35178832E+05</totfact>
</mgrwt>
</event>
<event>
 4    1  0.2165211E+000  0.2832607E+02  0.7546771E-02  0.1617365E+00
         -2   -1    0    0    0  501 -0.00000000000E+00  0.00000000000E+00  0.16554148337E+02  0.16554148337E+02  0.00000000000E+00 0. -1.
          2   -1    0    0  501    0  0.00000000000E+00 -0.00000000000E+00 -0.12117302739E+02  0.12117302739E+02  0.00000000000E+00 0.  1.
        -11    1    1    2    0    0  0.11739604125E+02  0.61016269127E+01  0.73341011814E+01  0.15127365802E+02  0.00000000000E+00 0. -1.
         11    1    1    2    0    0 -0.11739604125E+02 -0.61016269127E+01 -0.28972555833E+01  0.13544085274E+02  0.00000000000E+00 0.  1.
<mgrwt>
<rscale>  0 0.28326075E+02</rscale>
<asrwt>0</asrwt>
<pdfrwt beam="2">  1        2 0.18642004E-02 0.28326075E+02</pdfrwt>
<pdfrwt beam="1">  1       -2 0.25467921E-02 0.28326075E+02</pdfrwt>
<totfact> 0.17631208E+06</totfact>
</mgrwt>
</event>
<event>
 4    1  0.2165211E+000  0.3977403E+02  0.7546771E-02  0.1509881E+00
          2   -1    0    0  501    0  0.00000000000E+00  0.00000000000E+00  0.40346964273E+01  0.40346964273E+01  0.00000000000E+00 0.  1.
         -2   -1    0    0    0  501 -0.00000000000E+00 -0.00000000000E+00 -0.98023081818E+02  0.98023081818E+02  0.00000000000E+00 0. -1.
        -13    1    1    2    0    0  0.64457143147E+01 -0.13688249104E+02 -0.13876863624E+02  0.20530044827E+02  0.00000000000E+00 0.  1.
         13    1    1    2    0    0 -0.64457143147E+01  0.13688249104E+02 -0.80111521768E+02  0.81527733419E+02  0.00000000000E+00 0. -1.
<mgrwt>
<rscale>  0 0.39774031E+02</rscale>
<asrwt>0</asrwt>
<pdfrwt beam="1">  1        2 0.62072256E-03 0.39774031E+02</pdfrwt>
<pdfrwt beam="2">  1       -2 0.15080473E-01 0.39774031E+02</pdfrwt>
<totfact> 0.61664450E+05</totfact>
</mgrwt>
</event>
<event>
 4    1  0.2165211E+000  0.2931229E+02  0.7546771E-02  0.1605817E+00
          2   -1    0    0  501    0  0.00000000000E+00  0.00000000000E+00  0.94540648348E+01  0.94540648348E+01  0.00000000000E+00 0.  1.
         -2   -1    0    0    0  501 -0.00000000000E+00 -0.00000000000E+00 -0.22720659331E+02  0.22720659331E+02  0.00000000000E+00 0. -1.
        -11    1    1    2    0    0 -0.25796681813E+01 -0.12786592305E+02  0.70137079391E+00  0.13063060579E+02  0.00000000000E+00 0.  1.
         11    1    1    2    0    0  0.25796681813E+01  0.12786592305E+02 -0.13967965290E+02  0.19111663587E+02  0.00000000000E+00 0. -1.
<mgrwt>
<rscale>  0 0.29312290E+02</rscale>
<asrwt>0</asrwt>
<pdfrwt beam="1">  1        2 0.14544715E-02 0.29312290E+02</pdfrwt>
<pdfrwt beam="2">  1       -2 0.34954860E-02 0.29312290E+02</pdfrwt>
<totfact> 0.15812016E+06</totfact>
</mgrwt>
</event>
<event>
 4    1  0.2165211E+000  0.3871283E+02  0.7546771E-02  0.1517903E+00
          1   -1    0    0  501    0  0.00000000000E+00  0.00000000000E+00  0.92061887131E+01  0.92061887131E+01  0.00000000000E+00 0.  1.
         -1   -1    0    0    0  501 -0.00000000000E+00 -0.00000000000E+00 -0.40697719228E+02  0.40697719228E+02  0.00000000000E+00 0. -1.
        -11    1    1    2    0    0  0.10704217307E+02 -0.87072614971E+01  0.17531799126E+01  0.13909360544E+02  0.00000000000E+00 0.  1.
         11    1    1    2    0    0 -0.10704217307E+02  0.87072614971E+01 -0.33244710427E+02  0.35994547397E+02  0.00000000000E+00 0. -1.
<mgrwt>
<rscale>  0 0.38712834E+02</rscale>
<asrwt>0</asrwt>
<pdfrwt beam="1">  1        1 0.14163367E-02 0.38712834E+02</pdfrwt>
<pdfrwt beam="2">  1       -1 0.62611876E-02 0.38712834E+02</pdfrwt>
<totfact> 0.77667876E+05</totfact>
</mgrwt>
</event>
<event>
 4    1  0.2165211E+000  0.6877778E+02  0.7546771E-02  0.1364299E+00
         -2   -1    0    0    0  501 -0.00000000000E+00  0.00000000000E+00  0.41442669901E+01  0.41442669901E+01  0.00000000000E+00 0. -1.
          2   -1    0    0  501    0  0.00000000000E+00 -0.00000000000E+00 -0.28535705557E+03  0.28535705557E+03  0.00000000000E+00 0.  1.
        -11    1    1    2    0    0  0.21922254365E+02  0.25116803402E+02 -0.17611311120E+03  0.17924080726E+03  0.00000000000E+00 0.  1.
         11    1    1    2    0    0 -0.21922254365E+02 -0.25116803402E+02 -0.10509967738E+03  0.11026051531E+03  0.00000000000E+00 0. -1.
<mgrwt>
<rscale>  0 0.68777782E+02</rscale>
<asrwt>0</asrwt>
<pdfrwt beam="2">  1        2 0.43901092E-01 0.68777782E+02</pdfrwt>
<pdfrwt beam="1">  1       -2 0.63757944E-03 0.68777782E+02</pdfrwt>
<totfact> 0.36993641E+05</totfact>
</mgrwt>
</event>
<event>
 4    1  0.2165211E+000  0.2529468E+02  0.7546771E-02  0.1656805E+00
         -2   -1    0    0    0  501 -0.00000000000E+00  0.00000000000E+00  0.87195797907E+01  0.87195797907E+01  0.00000000000E+00 0. -1.
          2   -1    0    0  501    0  0.00000000000E+00 -0.00000000000E+00 -0.18344371954E+02  0.18344371954E+02  0.00000000000E+00 0.  1.
        -13    1    1    2    0    0  0.86633748474E+01  0.64128328218E+01 -0.11891587473E+02  0.16049558909E+02  0.00000000000E+00 0.  1.
         13    1    1    2    0    0 -0.86633748474E+01 -0.64128328218E+01  0.22667953103E+01  0.11014392835E+02  0.00000000000E+00 0. -1.
<mgrwt>
<rscale>  0 0.25294680E+02</rscale>
<asrwt>0</asrwt>
<pdfrwt beam="2">  1        2 0.28222110E-02 0.25294680E+02</pdfrwt>
<pdfrwt beam="1">  1       -2 0.13414738E-02 0.25294680E+02</pdfrwt>
<totfact> 0.24052252E+06</totfact>
</mgrwt>
</event>
<event>
 4    1  0.2165211E+000  0.2902678E+02  0.7546771E-02  0.1609102E+00
         -1   -1    0    0    0  501 -0.00000000000E+00  0.00000000000E+00  0.29757430431E+01  0.29757430431E+01  0.00000000000E+00 0.  1.
          1   -1    0    0  501    0  0.00000000000E+00 -0.00000000000E+00 -0.70785167359E+02  0.70785167359E+02  0.00000000000E+00 0. -1.
        -13    1    1    2    0    0 -0.19078507756E+01 -0.14068082774E+02 -0.26244292716E+02  0.29838125740E+02  0.00000000000E+00 0. -1.
         13    1    1    2    0    0  0.19078507756E+01  0.14068082774E+02 -0.41565131600E+02  0.43922784662E+02  0.00000000000E+00 0.  1.
<mgrwt>
<rscale>  0 0.29026779E+02</rscale>
<asrwt>0</asrwt>
<pdfrwt beam="2">  1        1 0.10890026E-01 0.29026779E+02</pdfrwt>
<pdfrwt beam="1">  1       -1 0.45780662E-03 0.29026779E+02</pdfrwt>
<totfact> 0.18299303E+06</totfact>
</mgrwt>
</event>
<event>
 4    1  0.2165211E+000  0.2235215E+02  0.7546771E-02  0.1702232E+00
          4   -1    0    0  501    0  0.00000000000E+00  0.00000000000E+00  0.43811592257E+02  0.43811592257E+02  0.00000000000E+00 0.  1.
         -4   -1    0    0    0  501 -0.00000000000E+00 -0.00000000000E+00 -0.28509494716E+01  0.28509494716E+01  0.00000000000E+00 0. -1.
        -11    1    1    2    0    0  0.41936574219E+01 -0.99419497284E+01  0.26557919906E+02  0.28666221179E+02  0.00000000000E+00 0.  1.
         11    1    1    2    0    0 -0.41936574219E+01  0.99419497284E+01  0.14402722880E+02  0.17996320550E+02  0.00000000000E+00 0. -1.
<mgrwt>
<rscale>  0 0.22352149E+02</rscale>
<asrwt>0</asrwt>
<pdfrwt beam="1">  1        4 0.67402445E-02 0.22352149E+02</pdfrwt>
<pdfrwt beam="2">  1       -4 0.43860764E-03 0.22352149E+02</pdfrwt>
<totfact> 0.92762581E+05</totfact>
</mgrwt>
</event>
<event>
 4    1  0.2165211E+000  0.2710395E+02  0.7546771E-02  0.1632500E+00
          4   -1    0    0  501    0  0.00000000000E+00  0.00000000000E+00  0.64207799220E+01  0.64207799220E+01  0.00000000000E+00 0.  1.
         -4   -1    0    0    0  501 -0.00000000000E+00 -0.00000000000E+00 -0.28603387668E+02  0.28603387668E+02  0.00000000000E+00 0. -1.
        -11    1    1    2    0    0 -0.43046900076E+01 -0.10982663842E+02 -0.24704880971E+01  0.12052077520E+02  0.00000000000E+00 0.  1.
         11    1    1    2    0    0  0.43046900076E+01  0.10982663842E+02 -0.19712119649E+02  0.22972090070E+02  0.00000000000E+00 0. -1.
<mgrwt>
<rscale>  0 0.27103952E+02</rscale>
<asrwt>0</asrwt>
<pdfrwt beam="1">  1        4 0.98781231E-03 0.27103952E+02</pdfrwt>
<pdfrwt beam="2">  1       -4 0.44005211E-02 0.27103952E+02</pdfrwt>
<totfact> 0.64021077E+05</totfact>
</mgrwt>
</event>
<event>
 4    1  0.2165211E+000  0.2832958E+02  0.7546771E-02  0.1617322E+00
          2   -1    0    0  501    0  0.00000000000E+00  0.00000000000E+00  0.20137671880E+02  0.20137671880E+02  0.00000000000E+00 0.  1.
         -2   -1    0    0    0  501 -0.00000000000E+00 -0.00000000000E+00 -0.99634778315E+01  0.99634778315E+01  0.00000000000E+00 0. -1.
        -11    1    1    2    0    0  0.29556053019E+01  0.12952243524E+02  0.10308135267E+02  0.16815286726E+02  0.00000000000E+00 0.  1.
         11    1    1    2    0    0 -0.29556053019E+01 -0.12952243524E+02 -0.13394121858E+00  0.13285862985E+02  0.00000000000E+00 0. -1.
<mgrwt>
<rscale>  0 0.28329578E+02</rscale>
<asrwt>0</asrwt>
<pdfrwt beam="1">  1        2 0.30981034E-02 0.28329578E+02</pdfrwt>
<pdfrwt beam="2">  1       -2 0.15328427E-02 0.28329578E+02</pdfrwt>
<totfact> 0.18538963E+06</totfact>
</mgrwt>
</event>
<event>
 4    1  0.2165211E+000  0.2253040E+02  0.7546771E-02  0.1699237E+00
         -1   -1    0    0    0  501 -0.00000000000E+00  0.00000000000E+00  0.51562243726E+01  0.51562243726E+01  0.00000000000E+00 0.  1.
          1   -1    0    0  501    0  0.00000000000E+00 -0.00000000000E+00 -0.24611941442E+02  0.24611941442E+02  0.00000000000E+00 0. -1.
        -11    1    1    2    0    0 -0.22909607362E+01  0.10467490555E+02 -0.14321503862E+02  0.17886372816E+02  0.00000000000E+00 0. -1.
         11    1    1    2    0    0  0.22909607362E+01 -0.10467490555E+02 -0.51342132067E+01  0.11881792999E+02  0.00000000000E+00 0.  1.
<mgrwt>
<rscale>  0 0.22530397E+02</rscale>
<asrwt>0</asrwt>
<pdfrwt beam="2">  1        1 0.37864524E-02 0.22530397E+02</pdfrwt>
<pdfrwt beam="1">  1       -1 0.79326531E-03 0.22530397E+02</pdfrwt>
<totfact> 0.30597692E+06</totfact>
</mgrwt>
</event>
<event>
 4    1  0.2165211E+000  0.4651094E+02  0.7546771E-02  0.1465124E+00
          1   -1    0    0  501    0  0.00000000000E+00  0.00000000000E+00  0.12106688655E+03  0.12106688655E+03  0.00000000000E+00 0. -1.
         -1   -1    0    0    0  501 -0.00000000000E+00 -0.00000000000E+00 -0.44670914472E+01  0.44670914472E+01  0.00000000000E+00 0.  1.
        -11    1    1    2    0    0  0.20941094038E+02 -0.86508095785E+00  0.85497008653E+02  0.88028496938E+02  0.00000000000E+00 0. -1.
         11    1    1    2    0    0 -0.20941094038E+02  0.86508095785E+00  0.31102786453E+02  0.37505481062E+02  0.00000000000E+00 0.  1.
<mgrwt>
<rscale>  0 0.46510939E+02</rscale>
<asrwt>0</asrwt>
<pdfrwt beam="1">  1        1 0.18625672E-01 0.46510939E+02</pdfrwt>
<pdfrwt beam="2">  1       -1 0.68724493E-03 0.46510939E+02</pdfrwt>
<totfact> 0.62166554E+05</totfact>
</mgrwt>
</event>
<event>
 4    1  0.2165211E+000  0.2114358E+02  0.7546771E-02  0.1723498E+00
         -2   -1    0    0    0  501 -0.00000000000E+00  0.00000000000E+00  0.72234121232E+02  0.72234121232E+02  0.00000000000E+00 0.  1.
          2   -1    0    0  501    0  0.00000000000E+00 -0.00000000000E+00 -0.15472292235E+01  0.15472292235E+01  0.00000000000E+00 0. -1.
        -11    1    1    2    0    0 -0.67164436639E+01 -0.81601397848E+01  0.34458956200E+02  0.36043281749E+02  0.00000000000E+00 0. -1.
         11    1    1    2    0    0  0.67164436639E+01  0.81601397848E+01  0.36227935808E+02  0.37738068707E+02  0.00000000000E+00 0.  1.
<mgrwt>
<rscale>  0 0.21143580E+02</rscale>
<asrwt>0</asrwt>
<pdfrwt beam="2">  1        2 0.23803532E-03 0.21143580E+02</pdfrwt>
<pdfrwt beam="1">  1       -2 0.11112939E-01 0.21143580E+02</pdfrwt>
<totfact> 0.28229700E+06</totfact>
</mgrwt>
</event>
<event>
 4    1  0.2165211E+000  0.8150182E+02  0.7546771E-02  0.1324843E+00
         -2   -1    0    0    0  501 -0.00000000000E+00  0.00000000000E+00  0.91127062298E+01  0.91127062298E+01  0.00000000000E+00 0.  1.
          2   -1    0    0  501    0  0.00000000000E+00 -0.00000000000E+00 -0.18223308980E+03  0.18223308980E+03  0.00000000000E+00 0. -1.
        -11    1    1    2    0    0 -0.32654062575E+02  0.98380059034E+01 -0.13892932958E+03  0.14305395059E+03  0.00000000000E+00 0. -1.
         11    1    1    2    0    0  0.32654062575E+02 -0.98380059034E+01 -0.34191053995E+02  0.48291845441E+02  0.00000000000E+00 0.  1.
<mgrwt>
<rscale>  0 0.81501819E+02</rscale>
<asrwt>0</asrwt>
<pdfrwt beam="2">  1        2 0.28035856E-01 0.81501819E+02</pdfrwt>
<pdfrwt beam="1">  1       -2 0.14019550E-02 0.81501819E+02</pdfrwt>
<totfact> 0.20204840E+05</totfact>
</mgrwt>
</event>
<event>
 4    1  0.2165211E+000  0.4725624E+02  0.7546771E-02  0.1460729E+00
          4   -1    0    0  501    0  0.00000000000E+00  0.00000000000E+00  0.64445737854E+01  0.64445737854E+01  0.00000000000E+00 0.  1.
         -4   -1    0    0    0  501 -0.00000000000E+00 -0.00000000000E+00 -0.86629182216E+02  0.86629182216E+02  0.00000000000E+00 0. -1.
        -13    1    1    2    0    0  0.18433589412E+02  0.46224723543E+01 -0.12439610435E+02  0.22713616556E+02  0.00000000000E+00 0.  1.
         13    1    1    2    0    0 -0.18433589412E+02 -0.46224723543E+01 -0.67744997996E+02  0.70360139445E+02  0.00000000000E+00 0. -1.
<mgrwt>
<rscale>  0 0.47256244E+02</rscale>
<asrwt>0</asrwt>
<pdfrwt beam="1">  1        4 0.99147283E-03 0.47256244E+02</pdfrwt>
<pdfrwt beam="2">  1       -4 0.13327567E-01 0.47256244E+02</pdfrwt>
<totfact> 0.14644518E+05</totfact>
</mgrwt>
</event>
<event>
 4    1  0.2165211E+000  0.2325208E+02  0.7546771E-02  0.1687456E+00
          4   -1    0    0  501    0  0.00000000000E+00  0.00000000000E+00  0.37182823826E+01  0.37182823826E+01  0.00000000000E+00 0.  1.
         -4   -1    0    0    0  501 -0.00000000000E+00 -0.00000000000E+00 -0.36351398138E+02  0.36351398138E+02  0.00000000000E+00 0. -1.
        -11    1    1    2    0    0 -0.11338156080E+02  0.25638620541E+01 -0.15982441223E+02  0.19762732588E+02  0.00000000000E+00 0. -1.
         11    1    1    2    0    0  0.11338156080E+02 -0.25638620541E+01 -0.16650674533E+02  0.20306947932E+02  0.00000000000E+00 0.  1.
<mgrwt>
<rscale>  0 0.23252076E+02</rscale>
<asrwt>0</asrwt>
<pdfrwt beam="1">  1        4 0.57204344E-03 0.23252076E+02</pdfrwt>
<pdfrwt beam="2">  1       -4 0.55925229E-02 0.23252076E+02</pdfrwt>
<totfact> 0.87492099E+05</totfact>
</mgrwt>
</event>
<event>
 4    1  0.2165211E+000  0.2197296E+02  0.7546771E-02  0.1708720E+00
         -1   -1    0    0    0  501 -0.00000000000E+00  0.00000000000E+00  0.85376211378E+02  0.85376211378E+02  0.00000000000E+00 0. -1.
          1   -1    0    0  501    0  0.00000000000E+00 -0.00000000000E+00 -0.14137751016E+01  0.14137751016E+01  0.00000000000E+00 0.  1.
        -11    1    1    2    0    0 -0.73187729359E+01  0.80066112738E+01  0.48859523692E+02  0.50049208953E+02  0.00000000000E+00 0.  1.
         11    1    1    2    0    0  0.73187729359E+01 -0.80066112738E+01  0.35102912584E+02  0.36740777527E+02  0.00000000000E+00 0. -1.
<mgrwt>
<rscale>  0 0.21972962E+02</rscale>
<asrwt>0</asrwt>
<pdfrwt beam="2">  1        1 0.21750393E-03 0.21972962E+02</pdfrwt>
<pdfrwt beam="1">  1       -1 0.13134798E-01 0.21972962E+02</pdfrwt>
<totfact> 0.26543552E+06</totfact>
</mgrwt>
</event>
<event>
 4    1  0.2165211E+000  0.8067630E+02  0.7546771E-02  0.1327143E+00
          2   -1    0    0  501    0  0.00000000000E+00  0.00000000000E+00  0.15976804005E+03  0.15976804005E+03  0.00000000000E+00 0. -1.
         -2   -1    0    0    0  501 -0.00000000000E+00 -0.00000000000E+00 -0.10184554620E+02  0.10184554620E+02  0.00000000000E+00 0.  1.
        -13    1    1    2    0    0  0.32391302293E+02 -0.24026241775E+02  0.73017225647E+02  0.83414459174E+02  0.00000000000E+00 0. -1.
         13    1    1    2    0    0 -0.32391302293E+02  0.24026241775E+02  0.76566259780E+02  0.86538135494E+02  0.00000000000E+00 0.  1.
<mgrwt>
<rscale>  0 0.80676300E+02</rscale>
<asrwt>0</asrwt>
<pdfrwt beam="1">  1        2 0.24579697E-01 0.80676300E+02</pdfrwt>
<pdfrwt beam="2">  1       -2 0.15668547E-02 0.80676300E+02</pdfrwt>
<totfact> 0.19846890E+05</totfact>
</mgrwt>
</event>
<event>
 4    1  0.2165211E+000  0.2866670E+02  0.7546771E-02  0.1613312E+00
          1   -1    0    0  501    0  0.00000000000E+00  0.00000000000E+00  0.44424183880E+02  0.44424183880E+02  0.00000000000E+00 0.  1.
         -1   -1    0    0    0  501 -0.00000000000E+00 -0.00000000000E+00 -0.46246175173E+01  0.46246175173E+01  0.00000000000E+00 0. -1.
        -13    1    1    2    0    0 -0.12374546095E+02  0.10881632192E+01  0.32134515545E+02  0.34452003999E+02  0.00000000000E+00 0.  1.
         13    1    1    2    0    0  0.12374546095E+02 -0.10881632192E+01  0.76650508181E+01  0.14596797399E+02  0.00000000000E+00 0. -1.
<mgrwt>
<rscale>  0 0.28666696E+02</rscale>
<asrwt>0</asrwt>
<pdfrwt beam="1">  1        1 0.68344895E-02 0.28666696E+02</pdfrwt>
<pdfrwt beam="2">  1       -1 0.71147965E-03 0.28666696E+02</pdfrwt>
<totfact> 0.18115072E+06</totfact>
</mgrwt>
</event>
<event>
 4    1  0.2165211E+000  0.3230944E+02  0.7546771E-02  0.1573880E+00
         -2   -1    0    0    0  501 -0.00000000000E+00  0.00000000000E+00  0.14836435644E+02  0.14836435644E+02  0.00000000000E+00 0.  1.
          2   -1    0    0  501    0  0.00000000000E+00 -0.00000000000E+00 -0.17590139288E+02  0.17590139288E+02  0.00000000000E+00 0. -1.
        -13    1    1    2    0    0 -0.83560242517E+01 -0.83909972879E+01 -0.12405000772E+02  0.17149811105E+02  0.00000000000E+00 0. -1.
         13    1    1    2    0    0  0.83560242517E+01  0.83909972879E+01  0.96512971279E+01  0.15276763827E+02  0.00000000000E+00 0.  1.
<mgrwt>
<rscale>  0 0.32309439E+02</rscale>
<asrwt>0</asrwt>
<pdfrwt beam="2">  1        2 0.27061753E-02 0.32309439E+02</pdfrwt>
<pdfrwt beam="1">  1       -2 0.22825286E-02 0.32309439E+02</pdfrwt>
<totfact> 0.13269404E+06</totfact>
</mgrwt>
</event>
<event>
 4    1  0.2165211E+000  0.2801664E+02  0.7546771E-02  0.1621107E+00
         -2   -1    0    0    0  501 -0.00000000000E+00  0.00000000000E+00  0.84894069826E+01  0.84894069826E+01  0.00000000000E+00 0.  1.
          2   -1    0    0  501    0  0.00000000000E+00 -0.00000000000E+00 -0.23115049684E+02  0.23115049684E+02  0.00000000000E+00 0. -1.
        -11    1    1    2    0    0 -0.76973745208E+01 -0.10584034604E+02 -0.12948799881E+02  0.18410398729E+02  0.00000000000E+00 0.  1.
         11    1    1    2    0    0  0.76973745208E+01  0.10584034604E+02 -0.16768428204E+01  0.13194057937E+02  0.00000000000E+00 0. -1.
<mgrwt>
<rscale>  0 0.28016642E+02</rscale>
<asrwt>0</asrwt>
<pdfrwt beam="2">  1        2 0.35561614E-02 0.28016642E+02</pdfrwt>
<pdfrwt beam="1">  1       -2 0.13060626E-02 0.28016642E+02</pdfrwt>
<totfact> 0.19319454E+06</totfact>
</mgrwt>
</event>
<event>
 4    1  0.2165211E+000  0.2367728E+02  0.7546771E-02  0.1680761E+00
         -2   -1    0    0    0  501 -0.00000000000E+00  0.00000000000E+00  0.24426013487E+01  0.24426013487E+01  0.00000000000E+00 0. -1.
          2   -1    0    0  501    0  0.00000000000E+00 -0.00000000000E+00 -0.57378764617E+02  0.57378764617E+02  0.00000000000E+00 0.  1.
        -11    1    1    2    0    0  0.11797447583E+02  0.97262285541E+00 -0.27888452158E+02  0.30296724715E+02  0.00000000000E+00 0. -1.
         11    1    1    2    0    0 -0.11797447583E+02 -0.97262285541E+00 -0.27047711110E+02  0.29524641251E+02  0.00000000000E+00 0.  1.
<mgrwt>
<rscale>  0 0.23677284E+02</rscale>
<asrwt>0</asrwt>
<pdfrwt beam="2">  1        2 0.88275025E-02 0.23677284E+02</pdfrwt>
<pdfrwt beam="1">  1       -2 0.37578481E-03 0.23677284E+02</pdfrwt>
<totfact> 0.32342861E+06</totfact>
</mgrwt>
</event>
<event>
 4    1  0.2165211E+000  0.3075444E+02  0.7546771E-02  0.1589896E+00
          4   -1    0    0  501    0  0.00000000000E+00  0.00000000000E+00  0.42585991091E+02  0.42585991091E+02  0.00000000000E+00 0. -1.
         -4   -1    0    0    0  501 -0.00000000000E+00 -0.00000000000E+00 -0.55525040553E+01  0.55525040553E+01  0.00000000000E+00 0.  1.
        -11    1    1    2    0    0  0.14672198658E+02  0.21740437771E+01  0.24866930688E+02  0.28954518156E+02  0.00000000000E+00 0. -1.
         11    1    1    2    0    0 -0.14672198658E+02 -0.21740437771E+01  0.12166556348E+02  0.19183976990E+02  0.00000000000E+00 0.  1.
<mgrwt>
<rscale>  0 0.30754440E+02</rscale>
<asrwt>0</asrwt>
<pdfrwt beam="1">  1        4 0.65516907E-02 0.30754440E+02</pdfrwt>
<pdfrwt beam="2">  1       -4 0.85423142E-03 0.30754440E+02</pdfrwt>
<totfact> 0.46051733E+05</totfact>
</mgrwt>
</event>
<event>
 4    1  0.2165211E+000  0.2243433E+02  0.7546771E-02  0.1700847E+00
         -2   -1    0    0    0  501 -0.00000000000E+00  0.00000000000E+00  0.48102807372E+02  0.48102807372E+02  0.00000000000E+00 0.  1.
          2   -1    0    0  501    0  0.00000000000E+00 -0.00000000000E+00 -0.26157461793E+01  0.26157461793E+01  0.00000000000E+00 0. -1.
        -13    1    1    2    0    0 -0.46366780522E+01  0.96979375565E+01  0.29990643389E+02  0.31858867950E+02  0.00000000000E+00 0.  1.
         13    1    1    2    0    0  0.46366780522E+01 -0.96979375565E+01  0.15496417805E+02  0.18859685601E+02  0.00000000000E+00 0. -1.
<mgrwt>
<rscale>  0 0.22434325E+02</rscale>
<asrwt>0</asrwt>
<pdfrwt beam="2">  1        2 0.40242252E-03 0.22434325E+02</pdfrwt>
<pdfrwt beam="1">  1       -2 0.74004313E-02 0.22434325E+02</pdfrwt>
<totfact> 0.26455995E+06</totfact>
</mgrwt>
</event>
<event>
 4    1  0.2165211E+000  0.3465267E+02  0.7546771E-02  0.1551707E+00
         -2   -1    0    0    0  501 -0.00000000000E+00  0.00000000000E+00  0.37080514273E+02  0.37080514273E+02  0.00000000000E+00 0. -1.
          2   -1    0    0  501    0  0.00000000000E+00 -0.00000000000E+00 -0.80959478612E+01  0.80959478612E+01  0.00000000000E+00 0.  1.
        -11    1    1    2    0    0  0.79813019361E+01  0.14874386425E+02  0.94006368787E+01  0.19321504233E+02  0.00000000000E+00 0.  1.
         11    1    1    2    0    0 -0.79813019361E+01 -0.14874386425E+02  0.19583929533E+02  0.25854957901E+02  0.00000000000E+00 0. -1.
<mgrwt>
<rscale>  0 0.34652671E+02</rscale>
<asrwt>0</asrwt>
<pdfrwt beam="2">  1        2 0.12455305E-02 0.34652671E+02</pdfrwt>
<pdfrwt beam="1">  1       -2 0.57046944E-02 0.34652671E+02</pdfrwt>
<totfact> 0.10160026E+06</totfact>
</mgrwt>
</event>
<event>
 4    1  0.2165211E+000  0.2326634E+02  0.7546771E-02  0.1687229E+00
          2   -1    0    0  501    0  0.00000000000E+00  0.00000000000E+00  0.16476222823E+01  0.16476222823E+01  0.00000000000E+00 0. -1.
         -2   -1    0    0    0  501 -0.00000000000E+00 -0.00000000000E+00 -0.82136915212E+02  0.82136915212E+02  0.00000000000E+00 0.  1.
        -13    1    1    2    0    0  0.10199509110E+02 -0.36608558689E+01 -0.55479817351E+02  0.56528240598E+02  0.00000000000E+00 0.  1.
         13    1    1    2    0    0 -0.10199509110E+02  0.36608558689E+01 -0.25009475579E+02  0.27256296897E+02  0.00000000000E+00 0. -1.
<mgrwt>
<rscale>  0 0.23266337E+02</rscale>
<asrwt>0</asrwt>
<pdfrwt beam="1">  1        2 0.25348043E-03 0.23266337E+02</pdfrwt>
<pdfrwt beam="2">  1       -2 0.12636444E-01 0.23266337E+02</pdfrwt>
<totfact> 0.22250033E+06</totfact>
</mgrwt>
</event>
<event>
 4    1  0.2165211E+000  0.3876299E+02  0.7546771E-02  0.1517517E+00
          1   -1    0    0  501    0  0.00000000000E+00  0.00000000000E+00  0.95257211045E+02  0.95257211045E+02  0.00000000000E+00 0. -1.
         -1   -1    0    0    0  501 -0.00000000000E+00 -0.00000000000E+00 -0.39434530457E+01  0.39434530457E+01  0.00000000000E+00 0.  1.
        -13    1    1    2    0    0  0.88107962789E+01 -0.17094456857E+02  0.39497990782E+02  0.43931103584E+02  0.00000000000E+00 0. -1.
         13    1    1    2    0    0 -0.88107962789E+01  0.17094456857E+02  0.51815767218E+02  0.55269560507E+02  0.00000000000E+00 0.  1.
<mgrwt>
<rscale>  0 0.38762990E+02</rscale>
<asrwt>0</asrwt>
<pdfrwt beam="1">  1        1 0.14654954E-01 0.38762990E+02</pdfrwt>
<pdfrwt beam="2">  1       -1 0.60668516E-03 0.38762990E+02</pdfrwt>
<totfact> 0.94439809E+05</totfact>
</mgrwt>
</event>
<event>
 4    1  0.2165211E+000  0.2335794E+02  0.7546771E-02  0.1685773E+00
         -2   -1    0    0    0  501 -0.00000000000E+00  0.00000000000E+00  0.45377698649E+02  0.45377698649E+02  0.00000000000E+00 0. -1.
          2   -1    0    0  501    0  0.00000000000E+00 -0.00000000000E+00 -0.30058441549E+01  0.30058441549E+01  0.00000000000E+00 0.  1.
        -11    1    1    2    0    0  0.97369699417E+01 -0.54010522965E+01  0.13886395665E+02  0.17799211615E+02  0.00000000000E+00 0.  1.
         11    1    1    2    0    0 -0.97369699417E+01  0.54010522965E+01  0.28485458829E+02  0.30584331189E+02  0.00000000000E+00 0. -1.
<mgrwt>
<rscale>  0 0.23357936E+02</rscale>
<asrwt>0</asrwt>
<pdfrwt beam="2">  1        2 0.46243760E-03 0.23357936E+02</pdfrwt>
<pdfrwt beam="1">  1       -2 0.69811839E-02 0.23357936E+02</pdfrwt>
<totfact> 0.24375476E+06</totfact>
</mgrwt>
</event>
<event>
 4    1  0.2165211E+000  0.2534694E+02  0.7546771E-02  0.1656068E+00
         -1   -1    0    0    0  501 -0.00000000000E+00  0.00000000000E+00  0.10541718485E+02  0.10541718485E+02  0.00000000000E+00 0.  1.
          1   -1    0    0  501    0  0.00000000000E+00 -0.00000000000E+00 -0.15236300800E+02  0.15236300800E+02  0.00000000000E+00 0. -1.
        -11    1    1    2    0    0 -0.11500479117E+02 -0.52368528535E+01 -0.13659207066E+01  0.12710286665E+02  0.00000000000E+00 0. -1.
         11    1    1    2    0    0  0.11500479117E+02  0.52368528535E+01 -0.33286616086E+01  0.13067732620E+02  0.00000000000E+00 0.  1.
<mgrwt>
<rscale>  0 0.25346936E+02</rscale>
<asrwt>0</asrwt>
<pdfrwt beam="2">  1        1 0.23440463E-02 0.25346936E+02</pdfrwt>
<pdfrwt beam="1">  1       -1 0.16218029E-02 0.25346936E+02</pdfrwt>
<totfact> 0.22762261E+06</totfact>
</mgrwt>
</event>
<event>
 4    1  0.2165211E+000  0.3406384E+02  0.7546771E-02  0.1557075E+00
          2   -1    0    0  501    0  0.00000000000E+00  0.00000000000E+00  0.20469364749E+02  0.20469364749E+02  0.00000000000E+00 0. -1.
         -2   -1    0    0    0  501 -0.00000000000E+00 -0.00000000000E+00 -0.14171730766E+02  0.14171730766E+02  0.00000000000E+00 0.  1.
        -13    1    1    2    0    0 -0.13581779491E+02  0.31306663241E+01 -0.68058619104E+01  0.15510820808E+02  0.00000000000E+00 0.  1.
         13    1    1    2    0    0  0.13581779491E+02 -0.31306663241E+01  0.13103495894E+02  0.19130274708E+02  0.00000000000E+00 0. -1.
<mgrwt>
<rscale>  0 0.34063842E+02</rscale>
<asrwt>0</asrwt>
<pdfrwt beam="1">  1        2 0.31491330E-02 0.34063842E+02</pdfrwt>
<pdfrwt beam="2">  1       -2 0.21802663E-02 0.34063842E+02</pdfrwt>
<totfact> 0.11844887E+06</totfact>
</mgrwt>
</event>
<event>
 4    1  0.2165211E+000  0.3273077E+02  0.7546771E-02  0.1569727E+00
          2   -1    0    0  501    0  0.00000000000E+00  0.00000000000E+00  0.11225488096E+02  0.11225488096E+02  0.00000000000E+00 0.  1.
         -2   -1    0    0    0  501 -0.00000000000E+00 -0.00000000000E+00 -0.23858729855E+02  0.23858729855E+02  0.00000000000E+00 0. -1.
        -11    1    1    2    0    0  0.77543589555E+01 -0.70372954018E+01 -0.19797577567E+02  0.22396376647E+02  0.00000000000E+00 0. -1.
         11    1    1    2    0    0 -0.77543589555E+01  0.70372954018E+01  0.71643358075E+01  0.12687841304E+02  0.00000000000E+00 0.  1.
<mgrwt>
<rscale>  0 0.32730774E+02</rscale>
<asrwt>0</asrwt>
<pdfrwt beam="1">  1        2 0.17269982E-02 0.32730774E+02</pdfrwt>
<pdfrwt beam="2">  1       -2 0.36705738E-02 0.32730774E+02</pdfrwt>
<totfact> 0.12228819E+06</totfact>
</mgrwt>
</event>
<event>
 4    1  0.2165211E+000  0.2935002E+02  0.7546771E-02  0.1605386E+00
         -4   -1    0    0    0  501 -0.00000000000E+00  0.00000000000E+00  0.13275086543E+03  0.13275086543E+03  0.00000000000E+00 0. -1.
          4   -1    0    0  501    0  0.00000000000E+00 -0.00000000000E+00 -0.16222558097E+01  0.16222558097E+01  0.00000000000E+00 0.  1.
        -13    1    1    2    0    0  0.10024317586E+02 -0.10714446846E+02  0.64356914497E+02  0.66008323398E+02  0.00000000000E+00 0.  1.
         13    1    1    2    0    0 -0.10024317586E+02  0.10714446846E+02  0.66771695123E+02  0.68364797841E+02  0.00000000000E+00 0. -1.
<mgrwt>
<rscale>  0 0.29350016E+02</rscale>
<asrwt>0</asrwt>
<pdfrwt beam="2">  1        4 0.24957792E-03 0.29350016E+02</pdfrwt>
<pdfrwt beam="1">  1       -4 0.20423202E-01 0.29350016E+02</pdfrwt>
<totfact> 0.39855204E+05</totfact>
</mgrwt>
</event>
<event>
 4    1  0.2165211E+000  0.2842456E+02  0.7546771E-02  0.1616186E+00
         -2   -1    0    0    0  501 -0.00000000000E+00  0.00000000000E+00  0.45875095314E+02  0.45875095314E+02  0.00000000000E+00 0.  1.
          2   -1    0    0  501    0  0.00000000000E+00 -0.00000000000E+00 -0.44030190735E+01  0.44030190735E+01  0.00000000000E+00 0. -1.
        -13    1    1    2    0    0 -0.13542444386E+02  0.38117233245E+01  0.17171124382E+02  0.22198525789E+02  0.00000000000E+00 0. -1.
         13    1    1    2    0    0  0.13542444386E+02 -0.38117233245E+01  0.24300951858E+02  0.28079588599E+02  0.00000000000E+00 0.  1.
<mgrwt>
<rscale>  0 0.28424561E+02</rscale>
<asrwt>0</asrwt>
<pdfrwt beam="2">  1        2 0.67738758E-03 0.28424561E+02</pdfrwt>
<pdfrwt beam="1">  1       -2 0.70577066E-02 0.28424561E+02</pdfrwt>
<totfact> 0.15603557E+06</totfact>
</mgrwt>
</event>
<event>
 4    1  0.2165211E+000  0.7361815E+02  0.7546771E-02  0.1348204E+00
          1   -1    0    0  501    0  0.00000000000E+00  0.00000000000E+00  0.12471438087E+02  0.12471438087E+02  0.00000000000E+00 0. -1.
         -1   -1    0    0    0  501 -0.00000000000E+00 -0.00000000000E+00 -0.10864088765E+03  0.10864088765E+03  0.00000000000E+00 0.  1.
        -13    1    1    2    0    0 -0.20611938025E+01 -0.26326042957E+02 -0.58972028917E+01  0.27057088898E+02  0.00000000000E+00 0. -1.
         13    1    1    2    0    0  0.20611938025E+01  0.26326042957E+02 -0.90272246669E+02  0.94055236836E+02  0.00000000000E+00 0.  1.
<mgrwt>
<rscale>  0 0.73618153E+02</rscale>
<asrwt>0</asrwt>
<pdfrwt beam="1">  1        1 0.19186828E-02 0.73618153E+02</pdfrwt>
<pdfrwt beam="2">  1       -1 0.16713982E-01 0.73618153E+02</pdfrwt>
<totfact> 0.13869472E+05</totfact>
</mgrwt>
</event>
<event>
 4    1  0.2165211E+000  0.3966785E+02  0.7546771E-02  0.1510670E+00
          2   -1    0    0  501    0  0.00000000000E+00  0.00000000000E+00  0.62149974634E+02  0.62149974634E+02  0.00000000000E+00 0.  1.
         -2   -1    0    0    0  501 -0.00000000000E+00 -0.00000000000E+00 -0.63296029494E+01  0.63296029494E+01  0.00000000000E+00 0. -1.
        -13    1    1    2    0    0 -0.12383061441E+02 -0.83076003284E+01  0.50486667626E+02  0.52642758684E+02  0.00000000000E+00 0.  1.
         13    1    1    2    0    0  0.12383061441E+02  0.83076003284E+01  0.53337040587E+01  0.15836818899E+02  0.00000000000E+00 0. -1.
<mgrwt>
<rscale>  0 0.39667854E+02</rscale>
<asrwt>0</asrwt>
<pdfrwt beam="1">  1        2 0.95615341E-02 0.39667854E+02</pdfrwt>
<pdfrwt beam="2">  1       -2 0.97378511E-03 0.39667854E+02</pdfrwt>
<totfact> 0.95919994E+05</totfact>
</mgrwt>
</event>
<event>
 4    1  0.2165211E+000  0.2877106E+02  0.7546771E-02  0.1612084E+00
          2   -1    0    0  501    0  0.00000000000E+00  0.00000000000E+00  0.88017520675E+02  0.88017520675E+02  0.00000000000E+00 0. -1.
         -2   -1    0    0    0  501 -0.00000000000E+00 -0.00000000000E+00 -0.23511626017E+01  0.23511626017E+01  0.00000000000E+00 0.  1.
        -11    1    1    2    0    0 -0.11547892375E+02  0.26069597831E+00  0.15901098994E+02  0.19653669629E+02  0.00000000000E+00 0.  1.
         11    1    1    2    0    0  0.11547892375E+02 -0.26069597831E+00  0.69765259080E+02  0.70715013647E+02  0.00000000000E+00 0. -1.
<mgrwt>
<rscale>  0 0.28771062E+02</rscale>
<asrwt>0</asrwt>
<pdfrwt beam="1">  1        2 0.13541155E-01 0.28771062E+02</pdfrwt>
<pdfrwt beam="2">  1       -2 0.36171739E-03 0.28771062E+02</pdfrwt>
<totfact> 0.22383379E+06</totfact>
</mgrwt>
</event>
<event>
 4    1  0.2165211E+000  0.4983972E+02  0.7546771E-02  0.1446208E+00
         -1   -1    0    0    0  501 -0.00000000000E+00  0.00000000000E+00  0.32237317597E+02  0.32237317597E+02  0.00000000000E+00 0. -1.
          1   -1    0    0  501    0  0.00000000000E+00 -0.00000000000E+00 -0.19263373033E+02  0.19263373033E+02  0.00000000000E+00 0.  1.
        -13    1    1    2    0    0  0.11655389113E+02 -0.35387850487E+01 -0.15977557828E+02  0.20091128618E+02  0.00000000000E+00 0.  1.
         13    1    1    2    0    0 -0.11655389113E+02  0.35387850487E+01  0.28951502392E+02  0.31409562012E+02  0.00000000000E+00 0. -1.
<mgrwt>
<rscale>  0 0.49839722E+02</rscale>
<asrwt>0</asrwt>
<pdfrwt beam="2">  1        1 0.29635959E-02 0.49839722E+02</pdfrwt>
<pdfrwt beam="1">  1       -1 0.49595873E-02 0.49839722E+02</pdfrwt>
<totfact> 0.43064132E+05</totfact>
</mgrwt>
</event>
<event>
 4    1  0.2165211E+000  0.2935734E+02  0.7546771E-02  0.1605303E+00
          2   -1    0    0  501    0  0.00000000000E+00  0.00000000000E+00  0.51707238943E+01  0.51707238943E+01  0.00000000000E+00 0. -1.
         -2   -1    0    0    0  501 -0.00000000000E+00 -0.00000000000E+00 -0.41669871510E+02  0.41669871510E+02  0.00000000000E+00 0.  1.
        -11    1    1    2    0    0 -0.14002447572E+01  0.14569853346E+02 -0.20013404792E+02  0.24794710792E+02  0.00000000000E+00 0. -1.
         11    1    1    2    0    0  0.14002447572E+01 -0.14569853346E+02 -0.16485742824E+02  0.22045884612E+02  0.00000000000E+00 0.  1.
<mgrwt>
<rscale>  0 0.29357343E+02</rscale>
<asrwt>0</asrwt>
<pdfrwt beam="1">  1        2 0.79549598E-03 0.29357343E+02</pdfrwt>
<pdfrwt beam="2">  1       -2 0.64107495E-02 0.29357343E+02</pdfrwt>
<totfact> 0.14682477E+06</totfact>
</mgrwt>
</event>
<event>
 4    1  0.2165211E+000  0.2618871E+02  0.7546771E-02  0.1644493E+00
          2   -1    0    0  501    0  0.00000000000E+00  0.00000000000E+00  0.16191229412E+02  0.16191229412E+02  0.00000000000E+00 0. -1.
         -2   -1    0    0    0  501 -0.00000000000E+00 -0.00000000000E+00 -0.10589813314E+02  0.10589813314E+02  0.00000000000E+00 0.  1.
        -13    1    1    2    0    0 -0.67370667632E+00  0.10448638148E+02  0.10842034879E+02  0.15072413215E+02  0.00000000000E+00 0. -1.
         13    1    1    2    0    0  0.67370667632E+00 -0.10448638148E+02 -0.52406187802E+01  0.11708629511E+02  0.00000000000E+00 0.  1.
<mgrwt>
<rscale>  0 0.26188707E+02</rscale>
<asrwt>0</asrwt>
<pdfrwt beam="1">  1        2 0.24909584E-02 0.26188707E+02</pdfrwt>
<pdfrwt beam="2">  1       -2 0.16292020E-02 0.26188707E+02</pdfrwt>
<totfact> 0.21890829E+06</totfact>
</mgrwt>
</event>
<event>
 4    1  0.2165211E+000  0.2909934E+02  0.7546771E-02  0.1608263E+00
          4   -1    0    0  501    0  0.00000000000E+00  0.00000000000E+00  0.23300539252E+02  0.23300539252E+02  0.00000000000E+00 0.  1.
         -4   -1    0    0    0  501 -0.00000000000E+00 -0.00000000000E+00 -0.90853230841E+01  0.90853230841E+01  0.00000000000E+00 0. -1.
        -11    1    1    2    0    0 -0.12323923420E+02  0.73235714140E+01  0.98741440960E+01  0.17407254475E+02  0.00000000000E+00 0.  1.
         11    1    1    2    0    0  0.12323923420E+02 -0.73235714140E+01  0.43410720722E+01  0.14978607861E+02  0.00000000000E+00 0. -1.
<mgrwt>
<rscale>  0 0.29099342E+02</rscale>
<asrwt>0</asrwt>
<pdfrwt beam="1">  1        4 0.35846983E-02 0.29099342E+02</pdfrwt>
<pdfrwt beam="2">  1       -4 0.13977420E-02 0.29099342E+02</pdfrwt>
<totfact> 0.55225382E+05</totfact>
</mgrwt>
</event>
<event>
 4    1  0.2165211E+000  0.2521827E+02  0.7546771E-02  0.1657887E+00
          2   -1    0    0  501    0  0.00000000000E+00  0.00000000000E+00  0.37882380933E+02  0.37882380933E+02  0.00000000000E+00 0. -1.
         -2   -1    0    0    0  501 -0.00000000000E+00 -0.00000000000E+00 -0.41969439212E+01  0.41969439212E+01  0.00000000000E+00 0.  1.
        -13    1    1    2    0    0  0.90926911734E+01 -0.86921226241E+01  0.18297565942E+02  0.22204300211E+02  0.00000000000E+00 0. -1.
         13    1    1    2    0    0 -0.90926911734E+01  0.86921226241E+01  0.15387871070E+02  0.19875024643E+02  0.00000000000E+00 0.  1.
<mgrwt>
<rscale>  0 0.25218265E+02</rscale>
<asrwt>0</asrwt>
<pdfrwt beam="1">  1        2 0.58280584E-02 0.25218265E+02</pdfrwt>
<pdfrwt beam="2">  1       -2 0.64568371E-03 0.25218265E+02</pdfrwt>
<totfact> 0.26264445E+06</totfact>
</mgrwt>
</event>
<event>
 4    1  0.2165211E+000  0.2430335E+02  0.7546771E-02  0.1671215E+00
          2   -1    0    0  501    0  0.00000000000E+00  0.00000000000E+00  0.24848474094E+02  0.24848474094E+02  0.00000000000E+00 0. -1.
         -2   -1    0    0    0  501 -0.00000000000E+00 -0.00000000000E+00 -0.59425442294E+01  0.59425442294E+01  0.00000000000E+00 0.  1.
        -11    1    1    2    0    0  0.78975349787E+01  0.92257266566E+01  0.89183420117E+01  0.15067246441E+02  0.00000000000E+00 0.  1.
         11    1    1    2    0    0 -0.78975349787E+01 -0.92257266566E+01  0.99875878526E+01  0.15723771882E+02  0.00000000000E+00 0. -1.
<mgrwt>
<rscale>  0 0.24303346E+02</rscale>
<asrwt>0</asrwt>
<pdfrwt beam="1">  1        2 0.38228421E-02 0.24303346E+02</pdfrwt>
<pdfrwt beam="2">  1       -2 0.91423758E-03 0.24303346E+02</pdfrwt>
<totfact> 0.27228308E+06</totfact>
</mgrwt>
</event>
<event>
 4    1  0.2165211E+000  0.2716951E+02  0.7546771E-02  0.1631663E+00
         -3   -1    0    0    0  501 -0.00000000000E+00  0.00000000000E+00  0.15406365887E+02  0.15406365887E+02  0.00000000000E+00 0.  1.
          3   -1    0    0  501    0  0.00000000000E+00 -0.00000000000E+00 -0.11978526836E+02  0.11978526836E+02  0.00000000000E+00 0. -1.
        -13    1    1    2    0    0 -0.11432344813E+02  0.72635380016E+01  0.27652969648E+01  0.13824050041E+02  0.00000000000E+00 0.  1.
         13    1    1    2    0    0  0.11432344813E+02 -0.72635380016E+01  0.66254208577E+00  0.13560842682E+02  0.00000000000E+00 0. -1.
<mgrwt>
<rscale>  0 0.27169510E+02</rscale>
<asrwt>0</asrwt>
<pdfrwt beam="2">  1        3 0.18428503E-02 0.27169510E+02</pdfrwt>
<pdfrwt beam="1">  1       -3 0.23702101E-02 0.27169510E+02</pdfrwt>
<totfact> 0.88081325E+05</totfact>
</mgrwt>
</event>
<event>
 4    1  0.2165211E+000  0.2590783E+02  0.7546771E-02  0.1648295E+00
          2   -1    0    0  501    0  0.00000000000E+00  0.00000000000E+00  0.14733723663E+01  0.14733723663E+01  0.00000000000E+00 0.  1.
         -2   -1    0    0    0  501 -0.00000000000E+00 -0.00000000000E+00 -0.11389103944E+03  0.11389103944E+03  0.00000000000E+00 0. -1.
        -11    1    1    2    0    0 -0.65024931235E+01  0.10813635190E+02 -0.43160466078E+02  0.44967131939E+02  0.00000000000E+00 0.  1.
         11    1    1    2    0    0  0.65024931235E+01 -0.10813635190E+02 -0.69257200997E+02  0.70397279868E+02  0.00000000000E+00 0. -1.
<mgrwt>
<rscale>  0 0.25907830E+02</rscale>
<asrwt>0</asrwt>
<pdfrwt beam="1">  1        2 0.22667258E-03 0.25907830E+02</pdfrwt>
<pdfrwt beam="2">  1       -2 0.17521706E-01 0.25907830E+02</pdfrwt>
<totfact> 0.16158126E+06</totfact>
</mgrwt>
</event>
<event>
 4    1  0.2165211E+000  0.2578817E+02  0.7546771E-02  0.1649933E+00
         -2   -1    0    0    0  501 -0.00000000000E+00  0.00000000000E+00  0.25675772534E+01  0.25675772534E+01  0.00000000000E+00 0.  1.
          2   -1    0    0  501    0  0.00000000000E+00 -0.00000000000E+00 -0.64752644980E+02  0.64752644980E+02  0.00000000000E+00 0. -1.
        -11    1    1    2    0    0 -0.30005098722E+00 -0.12339466787E+02 -0.40826945357E+02  0.42651986336E+02  0.00000000000E+00 0.  1.
         11    1    1    2    0    0  0.30005098722E+00  0.12339466787E+02 -0.21358122370E+02  0.24668235898E+02  0.00000000000E+00 0. -1.
<mgrwt>
<rscale>  0 0.25788169E+02</rscale>
<asrwt>0</asrwt>
<pdfrwt beam="2">  1        2 0.99619445E-02 0.25788169E+02</pdfrwt>
<pdfrwt beam="1">  1       -2 0.39501192E-03 0.25788169E+02</pdfrwt>
<totfact> 0.27140438E+06</totfact>
</mgrwt>
</event>
<event>
 4    1  0.2165211E+000  0.5076775E+02  0.7546771E-02  0.1441244E+00
          2   -1    0    0  501    0  0.00000000000E+00  0.00000000000E+00  0.62090498622E+02  0.62090498622E+02  0.00000000000E+00 0. -1.
         -2   -1    0    0    0  501 -0.00000000000E+00 -0.00000000000E+00 -0.10377450796E+02  0.10377450796E+02  0.00000000000E+00 0.  1.
        -11    1    1    2    0    0 -0.15548969439E+00 -0.13959264723E+02 -0.44057514242E+01  0.14638848802E+02  0.00000000000E+00 0.  1.
         11    1    1    2    0    0  0.15548969439E+00  0.13959264723E+02  0.56118799251E+02  0.57829100615E+02  0.00000000000E+00 0. -1.
<mgrwt>
<rscale>  0 0.50767749E+02</rscale>
<asrwt>0</asrwt>
<pdfrwt beam="1">  1        2 0.95523842E-02 0.50767749E+02</pdfrwt>
<pdfrwt beam="2">  1       -2 0.15965309E-02 0.50767749E+02</pdfrwt>
<totfact> 0.51511763E+05</totfact>
</mgrwt>
</event>
<event>
 4    1  0.2165211E+000  0.3547234E+02  0.7546771E-02  0.1544446E+00
          2   -1    0    0  501    0  0.00000000000E+00  0.00000000000E+00  0.79962477273E+01  0.79962477273E+01  0.00000000000E+00 0. -1.
         -2   -1    0    0    0  501 -0.00000000000E+00 -0.00000000000E+00 -0.39339928433E+02  0.39339928433E+02  0.00000000000E+00 0.  1.
        -13    1    1    2    0    0  0.10191113035E+02 -0.30200460273E+01 -0.34618833505E+02  0.36213852268E+02  0.00000000000E+00 0.  1.
         13    1    1    2    0    0 -0.10191113035E+02  0.30200460273E+01  0.32751527991E+01  0.11122323892E+02  0.00000000000E+00 0. -1.
<mgrwt>
<rscale>  0 0.35472345E+02</rscale>
<asrwt>0</asrwt>
<pdfrwt beam="1">  1        2 0.12301920E-02 0.35472345E+02</pdfrwt>
<pdfrwt beam="2">  1       -2 0.60522966E-02 0.35472345E+02</pdfrwt>
<totfact> 0.95451213E+05</totfact>
</mgrwt>
</event>
<event>
 4    1  0.2165211E+000  0.2296073E+02  0.7546771E-02  0.1692147E+00
         -2   -1    0    0    0  501 -0.00000000000E+00  0.00000000000E+00  0.10720096919E+02  0.10720096919E+02  0.00000000000E+00 0.  1.
          2   -1    0    0  501    0  0.00000000000E+00 -0.00000000000E+00 -0.12294551779E+02  0.12294551779E+02  0.00000000000E+00 0. -1.
        -11    1    1    2    0    0 -0.33076347862E+01  0.10419290997E+02  0.27276742593E+01  0.11266866451E+02  0.00000000000E+00 0. -1.
         11    1    1    2    0    0  0.33076347862E+01 -0.10419290997E+02 -0.43021291190E+01  0.11747782247E+02  0.00000000000E+00 0.  1.
<mgrwt>
<rscale>  0 0.22960731E+02</rscale>
<asrwt>0</asrwt>
<pdfrwt beam="2">  1        2 0.18914695E-02 0.22960731E+02</pdfrwt>
<pdfrwt beam="1">  1       -2 0.16492457E-02 0.22960731E+02</pdfrwt>
<totfact> 0.29140482E+06</totfact>
</mgrwt>
</event>
<event>
 4    1  0.2165211E+000  0.2159278E+02  0.7546771E-02  0.1715391E+00
          2   -1    0    0  501    0  0.00000000000E+00  0.00000000000E+00  0.34799876059E+02  0.34799876059E+02  0.00000000000E+00 0.  1.
         -2   -1    0    0    0  501 -0.00000000000E+00 -0.00000000000E+00 -0.33494946014E+01  0.33494946014E+01  0.00000000000E+00 0. -1.
        -13    1    1    2    0    0  0.75620238885E+01 -0.67652547214E+01  0.22242884001E+02  0.24447878547E+02  0.00000000000E+00 0.  1.
         13    1    1    2    0    0 -0.75620238885E+01  0.67652547214E+01  0.92074974565E+01  0.13701492114E+02  0.00000000000E+00 0. -1.
<mgrwt>
<rscale>  0 0.21592776E+02</rscale>
<asrwt>0</asrwt>
<pdfrwt beam="1">  1        2 0.53538268E-02 0.21592776E+02</pdfrwt>
<pdfrwt beam="2">  1       -2 0.51530688E-03 0.21592776E+02</pdfrwt>
<totfact> 0.37117053E+06</totfact>
</mgrwt>
</event>
<event>
 4    1  0.2165211E+000  0.4514870E+02  0.7546771E-02  0.1473415E+00
          2   -1    0    0  501    0  0.00000000000E+00  0.00000000000E+00  0.64008274042E+02  0.64008274042E+02  0.00000000000E+00 0.  1.
         -2   -1    0    0    0  501 -0.00000000000E+00 -0.00000000000E+00 -0.79614921382E+01  0.79614921382E+01  0.00000000000E+00 0. -1.
        -13    1    1    2    0    0  0.28253242006E+01  0.16514970814E+02  0.52139300793E+02  0.54765257281E+02  0.00000000000E+00 0.  1.
         13    1    1    2    0    0 -0.28253242006E+01 -0.16514970814E+02  0.39074811107E+01  0.17204508899E+02  0.00000000000E+00 0. -1.
<mgrwt>
<rscale>  0 0.45148704E+02</rscale>
<asrwt>0</asrwt>
<pdfrwt beam="1">  1        2 0.98474264E-02 0.45148704E+02</pdfrwt>
<pdfrwt beam="2">  1       -2 0.12248450E-02 0.45148704E+02</pdfrwt>
<totfact> 0.69844073E+05</totfact>
</mgrwt>
</event>
<event>
 4    1  0.2165211E+000  0.2845280E+02  0.7546771E-02  0.1615849E+00
          4   -1    0    0  501    0  0.00000000000E+00  0.00000000000E+00  0.36339806195E+02  0.36339806195E+02  0.00000000000E+00 0. -1.
         -4   -1    0    0    0  501 -0.00000000000E+00 -0.00000000000E+00 -0.55693861129E+01  0.55693861129E+01  0.00000000000E+00 0.  1.
        -11    1    1    2    0    0  0.89406065900E+01  0.93132393749E+01  0.24188342677E+02  0.27418001300E+02  0.00000000000E+00 0. -1.
         11    1    1    2    0    0 -0.89406065900E+01 -0.93132393749E+01  0.65820774054E+01  0.14491191008E+02  0.00000000000E+00 0.  1.
<mgrwt>
<rscale>  0 0.28452797E+02</rscale>
<asrwt>0</asrwt>
<pdfrwt beam="1">  1        4 0.55907393E-02 0.28452797E+02</pdfrwt>
<pdfrwt beam="2">  1       -4 0.85682865E-03 0.28452797E+02</pdfrwt>
<totfact> 0.56049292E+05</totfact>
</mgrwt>
</event>
<event>
 4    1  0.2165211E+000  0.3898242E+02  0.7546771E-02  0.1515836E+00
          2   -1    0    0  501    0  0.00000000000E+00  0.00000000000E+00  0.92686617961E+01  0.92686617961E+01  0.00000000000E+00 0.  1.
         -2   -1    0    0    0  501 -0.00000000000E+00 -0.00000000000E+00 -0.40988364560E+02  0.40988364560E+02  0.00000000000E+00 0. -1.
        -11    1    1    2    0    0 -0.14461052615E+02  0.59570040935E+01 -0.30855865202E+02  0.34593241506E+02  0.00000000000E+00 0.  1.
         11    1    1    2    0    0  0.14461052615E+02 -0.59570040935E+01 -0.86383756163E+00  0.15663784850E+02  0.00000000000E+00 0. -1.
<mgrwt>
<rscale>  0 0.38982421E+02</rscale>
<asrwt>0</asrwt>
<pdfrwt beam="1">  1        2 0.14259480E-02 0.38982421E+02</pdfrwt>
<pdfrwt beam="2">  1       -2 0.63059022E-02 0.38982421E+02</pdfrwt>
<totfact> 0.76052970E+05</totfact>
</mgrwt>
</event>
<event>
 4    1  0.2165211E+000  0.2093392E+02  0.7546771E-02  0.1727369E+00
         -2   -1    0    0    0  501 -0.00000000000E+00  0.00000000000E+00  0.10793316315E+02  0.10793316315E+02  0.00000000000E+00 0. -1.
          2   -1    0    0  501    0  0.00000000000E+00 -0.00000000000E+00 -0.10150467367E+02  0.10150467367E+02  0.00000000000E+00 0.  1.
        -11    1    1    2    0    0 -0.10145182978E+02 -0.21973605056E+01  0.16652159190E+01  0.10513138205E+02  0.00000000000E+00 0. -1.
         11    1    1    2    0    0  0.10145182978E+02  0.21973605056E+01 -0.10223669712E+01  0.10430645477E+02  0.00000000000E+00 0.  1.
<mgrwt>
<rscale>  0 0.20933916E+02</rscale>
<asrwt>0</asrwt>
<pdfrwt beam="2">  1        2 0.15616104E-02 0.20933916E+02</pdfrwt>
<pdfrwt beam="1">  1       -2 0.16605102E-02 0.20933916E+02</pdfrwt>
<totfact> 0.35574034E+06</totfact>
</mgrwt>
</event>
<event>
 4    1  0.2165211E+000  0.4814939E+02  0.7546771E-02  0.1455587E+00
          4   -1    0    0  501    0  0.00000000000E+00  0.00000000000E+00  0.36261650012E+01  0.36261650012E+01  0.00000000000E+00 0.  1.
         -4   -1    0    0    0  501 -0.00000000000E+00 -0.00000000000E+00 -0.15983575780E+03  0.15983575780E+03  0.00000000000E+00 0. -1.
        -13    1    1    2    0    0 -0.20653754557E+01 -0.23787212061E+02 -0.88565027034E+02  0.91727102031E+02  0.00000000000E+00 0.  1.
         13    1    1    2    0    0  0.20653754557E+01  0.23787212061E+02 -0.67644565760E+02  0.71734820766E+02  0.00000000000E+00 0. -1.
<mgrwt>
<rscale>  0 0.48149385E+02</rscale>
<asrwt>0</asrwt>
<pdfrwt beam="1">  1        4 0.55787162E-03 0.48149385E+02</pdfrwt>
<pdfrwt beam="2">  1       -4 0.24590113E-01 0.48149385E+02</pdfrwt>
<totfact> 0.11794513E+05</totfact>
</mgrwt>
</event>
<event>
 4    1  0.2165211E+000  0.4123893E+02  0.7546771E-02  0.1499287E+00
         -2   -1    0    0    0  501 -0.00000000000E+00  0.00000000000E+00  0.10445549238E+03  0.10445549238E+03  0.00000000000E+00 0.  1.
          2   -1    0    0  501    0  0.00000000000E+00 -0.00000000000E+00 -0.40702723874E+01  0.40702723874E+01  0.00000000000E+00 0. -1.
        -13    1    1    2    0    0 -0.19744068051E+02  0.58480796539E+01  0.52995080884E+02  0.56855139229E+02  0.00000000000E+00 0. -1.
         13    1    1    2    0    0  0.19744068051E+02 -0.58480796539E+01  0.47390139109E+02  0.51670625539E+02  0.00000000000E+00 0.  1.
<mgrwt>
<rscale>  0 0.41238929E+02</rscale>
<asrwt>0</asrwt>
<pdfrwt beam="2">  1        2 0.62619583E-03 0.41238929E+02</pdfrwt>
<pdfrwt beam="1">  1       -2 0.16070074E-01 0.41238929E+02</pdfrwt>
<totfact> 0.55660928E+05</totfact>
</mgrwt>
</event>
<event>
 4    1  0.2165211E+000  0.3512763E+02  0.7546771E-02  0.1547470E+00
          2   -1    0    0  501    0  0.00000000000E+00  0.00000000000E+00  0.32517459431E+02  0.32517459431E+02  0.00000000000E+00 0.  1.
         -2   -1    0    0    0  501 -0.00000000000E+00 -0.00000000000E+00 -0.94868314816E+01  0.94868314816E+01  0.00000000000E+00 0. -1.
        -13    1    1    2    0    0 -0.57167886520E+01  0.11337569563E+02 -0.29956169936E+01  0.13045914198E+02  0.00000000000E+00 0. -1.
         13    1    1    2    0    0  0.57167886520E+01 -0.11337569563E+02  0.26026244943E+02  0.28958376715E+02  0.00000000000E+00 0.  1.
<mgrwt>
<rscale>  0 0.35127633E+02</rscale>
<asrwt>0</asrwt>
<pdfrwt beam="1">  1        2 0.50026860E-02 0.35127633E+02</pdfrwt>
<pdfrwt beam="2">  1       -2 0.14595125E-02 0.35127633E+02</pdfrwt>
<totfact> 0.11638028E+06</totfact>
</mgrwt>
</event>
<event>
 4    1  0.2165211E+000  0.2478629E+02  0.7546771E-02  0.1664091E+00
          1   -1    0    0  501    0  0.00000000000E+00  0.00000000000E+00  0.39282072761E+02  0.39282072761E+02  0.00000000000E+00 0. -1.
         -1   -1    0    0    0  501 -0.00000000000E+00 -0.00000000000E+00 -0.39099261647E+01  0.39099261647E+01  0.00000000000E+00 0.  1.
        -13    1    1    2    0    0 -0.38239520120E+01 -0.94938655957E+01  0.29863417627E+02  0.31568652257E+02  0.00000000000E+00 0. -1.
         13    1    1    2    0    0  0.38239520120E+01  0.94938655957E+01  0.55087289699E+01  0.11623346670E+02  0.00000000000E+00 0.  1.
<mgrwt>
<rscale>  0 0.24786287E+02</rscale>
<asrwt>0</asrwt>
<pdfrwt beam="1">  1        1 0.60433956E-02 0.24786287E+02</pdfrwt>
<pdfrwt beam="2">  1       -1 0.60152713E-03 0.24786287E+02</pdfrwt>
<totfact> 0.25229936E+06</totfact>
</mgrwt>
</event>
<event>
 4    1  0.2165211E+000  0.2515451E+02  0.7546771E-02  0.1658792E+00
          3   -1    0    0  501    0  0.00000000000E+00  0.00000000000E+00  0.30120263465E+01  0.30120263465E+01  0.00000000000E+00 0.  1.
         -3   -1    0    0    0  501 -0.00000000000E+00 -0.00000000000E+00 -0.52518592131E+02  0.52518592131E+02  0.00000000000E+00 0. -1.
        -13    1    1    2    0    0  0.10339665006E+02 -0.13270175441E+01 -0.92187935888E+01  0.13916026848E+02  0.00000000000E+00 0.  1.
         13    1    1    2    0    0 -0.10339665006E+02  0.13270175441E+01 -0.40287772196E+02  0.41614591629E+02  0.00000000000E+00 0. -1.
<mgrwt>
<rscale>  0 0.25154513E+02</rscale>
<asrwt>0</asrwt>
<pdfrwt beam="1">  1        3 0.46338871E-03 0.25154513E+02</pdfrwt>
<pdfrwt beam="2">  1       -3 0.80797827E-02 0.25154513E+02</pdfrwt>
<totfact> 0.96265975E+05</totfact>
</mgrwt>
</event>
<event>
 4    1  0.2165211E+000  0.3407571E+02  0.7546771E-02  0.1556965E+00
          4   -1    0    0  501    0  0.00000000000E+00  0.00000000000E+00  0.39419028205E+02  0.39419028205E+02  0.00000000000E+00 0. -1.
         -4   -1    0    0    0  501 -0.00000000000E+00 -0.00000000000E+00 -0.73641719319E+01  0.73641719319E+01  0.00000000000E+00 0.  1.
        -13    1    1    2    0    0  0.10014838477E+02  0.63790765072E+01 -0.74798827377E+00  0.11897440618E+02  0.00000000000E+00 0.  1.
         13    1    1    2    0    0 -0.10014838477E+02 -0.63790765072E+01  0.32802844547E+02  0.34885759518E+02  0.00000000000E+00 0. -1.
<mgrwt>
<rscale>  0 0.34075710E+02</rscale>
<asrwt>0</asrwt>
<pdfrwt beam="1">  1        4 0.60644658E-02 0.34075710E+02</pdfrwt>
<pdfrwt beam="2">  1       -4 0.11329495E-02 0.34075710E+02</pdfrwt>
<totfact> 0.36589972E+05</totfact>
</mgrwt>
</event>
<event>
 4    1  0.2165211E+000  0.2784399E+02  0.7546771E-02  0.1623221E+00
         -2   -1    0    0    0  501 -0.00000000000E+00  0.00000000000E+00  0.30335946047E+02  0.30335946047E+02  0.00000000000E+00 0. -1.
          2   -1    0    0  501    0  0.00000000000E+00 -0.00000000000E+00 -0.63891825338E+01  0.63891825338E+01  0.00000000000E+00 0.  1.
        -13    1    1    2    0    0  0.29420366102E+01 -0.13423090398E+02  0.90279435708E+01  0.16441979819E+02  0.00000000000E+00 0.  1.
         13    1    1    2    0    0 -0.29420366102E+01  0.13423090398E+02  0.14918819943E+02  0.20283148763E+02  0.00000000000E+00 0. -1.
<mgrwt>
<rscale>  0 0.27843987E+02</rscale>
<asrwt>0</asrwt>
<pdfrwt beam="2">  1        2 0.98295117E-03 0.27843987E+02</pdfrwt>
<pdfrwt beam="1">  1       -2 0.46670686E-02 0.27843987E+02</pdfrwt>
<totfact> 0.17223890E+06</totfact>
</mgrwt>
</event>
<event>
 4    1  0.2165211E+000  0.2445649E+02  0.7546771E-02  0.1668933E+00
         -2   -1    0    0    0  501 -0.00000000000E+00  0.00000000000E+00  0.30711693716E+01  0.30711693716E+01  0.00000000000E+00 0. -1.
          2   -1    0    0  501    0  0.00000000000E+00 -0.00000000000E+00 -0.48688299584E+02  0.48688299584E+02  0.00000000000E+00 0.  1.
        -11    1    1    2    0    0 -0.12119060821E+02 -0.10431152157E+01 -0.25460638551E+02  0.28217084186E+02  0.00000000000E+00 0.  1.
         11    1    1    2    0    0  0.12119060821E+02  0.10431152157E+01 -0.20156491661E+02  0.23542384770E+02  0.00000000000E+00 0. -1.
<mgrwt>
<rscale>  0 0.24456493E+02</rscale>
<asrwt>0</asrwt>
<pdfrwt beam="2">  1        2 0.74905068E-02 0.24456493E+02</pdfrwt>
<pdfrwt beam="1">  1       -2 0.47248765E-03 0.24456493E+02</pdfrwt>
<totfact> 0.29236705E+06</totfact>
</mgrwt>
</event>
<event>
 4    1  0.2165211E+000  0.4880216E+02  0.7546771E-02  0.1451912E+00
         -2   -1    0    0    0  501 -0.00000000000E+00  0.00000000000E+00  0.92613492258E+01  0.92613492258E+01  0.00000000000E+00 0.  1.
          2   -1    0    0  501    0  0.00000000000E+00 -0.00000000000E+00 -0.64290058332E+02  0.64290058332E+02  0.00000000000E+00 0. -1.
        -13    1    1    2    0    0 -0.23949640472E+02 -0.36441657297E+00 -0.20494504856E+02  0.31523686451E+02  0.00000000000E+00 0.  1.
         13    1    1    2    0    0  0.23949640472E+02  0.36441657297E+00 -0.34534204250E+02  0.42027721106E+02  0.00000000000E+00 0. -1.
<mgrwt>
<rscale>  0 0.48802159E+02</rscale>
<asrwt>0</asrwt>
<pdfrwt beam="2">  1        2 0.98907783E-02 0.48802159E+02</pdfrwt>
<pdfrwt beam="1">  1       -2 0.14248229E-02 0.48802159E+02</pdfrwt>
<totfact> 0.57397931E+05</totfact>
</mgrwt>
</event>
<event>
 4    1  0.2165211E+000  0.2507271E+02  0.7546771E-02  0.1659960E+00
          2   -1    0    0  501    0  0.00000000000E+00  0.00000000000E+00  0.22234513902E+01  0.22234513902E+01  0.00000000000E+00 0.  1.
         -2   -1    0    0    0  501 -0.00000000000E+00 -0.00000000000E+00 -0.70683018905E+02  0.70683018905E+02  0.00000000000E+00 0. -1.
        -13    1    1    2    0    0  0.10766244445E+02 -0.66406067755E-01 -0.52904077804E+02  0.53988497641E+02  0.00000000000E+00 0. -1.
         13    1    1    2    0    0 -0.10766244445E+02  0.66406067755E-01 -0.15555489711E+02  0.18917972654E+02  0.00000000000E+00 0.  1.
<mgrwt>
<rscale>  0 0.25072715E+02</rscale>
<asrwt>0</asrwt>
<pdfrwt beam="1">  1        2 0.34206952E-03 0.25072715E+02</pdfrwt>
<pdfrwt beam="2">  1       -2 0.10874308E-01 0.25072715E+02</pdfrwt>
<totfact> 0.19369695E+06</totfact>
</mgrwt>
</event>
<event>
 4    1  0.2165211E+000  0.2675805E+02  0.7546771E-02  0.1636963E+00
          2   -1    0    0  501    0  0.00000000000E+00  0.00000000000E+00  0.29648011685E+01  0.29648011685E+01  0.00000000000E+00 0.  1.
         -2   -1    0    0    0  501 -0.00000000000E+00 -0.00000000000E+00 -0.60374459875E+02  0.60374459875E+02  0.00000000000E+00 0. -1.
        -11    1    1    2    0    0  0.10224995695E+02  0.24096767949E+01 -0.90933216546E+01  0.13894084279E+02  0.00000000000E+00 0.  1.
         11    1    1    2    0    0 -0.10224995695E+02 -0.24096767949E+01 -0.48316337052E+02  0.49445176765E+02  0.00000000000E+00 0. -1.
<mgrwt>
<rscale>  0 0.26758047E+02</rscale>
<asrwt>0</asrwt>
<pdfrwt beam="1">  1        2 0.45612332E-03 0.26758047E+02</pdfrwt>
<pdfrwt beam="2">  1       -2 0.92883772E-02 0.26758047E+02</pdfrwt>
<totfact> 0.17178645E+06</totfact>
</mgrwt>
</event>
<event>
 4    1  0.2165211E+000  0.2962637E+02  0.7546771E-02  0.1602256E+00
          2   -1    0    0  501    0  0.00000000000E+00  0.00000000000E+00  0.21641104200E+02  0.21641104200E+02  0.00000000000E+00 0. -1.
         -2   -1    0    0    0  501 -0.00000000000E+00 -0.00000000000E+00 -0.10139524212E+02  0.10139524212E+02  0.00000000000E+00 0.  1.
        -13    1    1    2    0    0  0.14632571967E+02 -0.12902670962E+01  0.78012033635E+01  0.16632369809E+02  0.00000000000E+00 0. -1.
         13    1    1    2    0    0 -0.14632571967E+02  0.12902670962E+01  0.37003766244E+01  0.15148258603E+02  0.00000000000E+00 0.  1.
<mgrwt>
<rscale>  0 0.29626373E+02</rscale>
<asrwt>0</asrwt>
<pdfrwt beam="1">  1        2 0.33294006E-02 0.29626373E+02</pdfrwt>
<pdfrwt beam="2">  1       -2 0.15599268E-02 0.29626373E+02</pdfrwt>
<totfact> 0.16774181E+06</totfact>
</mgrwt>
</event>
<event>
 4    1  0.2165211E+000  0.2364652E+02  0.7546771E-02  0.1681240E+00
          2   -1    0    0  501    0  0.00000000000E+00  0.00000000000E+00  0.94617631959E+01  0.94617631959E+01  0.00000000000E+00 0.  1.
         -2   -1    0    0    0  501 -0.00000000000E+00 -0.00000000000E+00 -0.14774147140E+02  0.14774147140E+02  0.00000000000E+00 0. -1.
        -13    1    1    2    0    0 -0.51513895556E+01  0.99729132483E+01  0.11503619728E+01  0.11283578585E+02  0.00000000000E+00 0.  1.
         13    1    1    2    0    0  0.51513895556E+01 -0.99729132483E+01 -0.64627459174E+01  0.12952331752E+02  0.00000000000E+00 0. -1.
<mgrwt>
<rscale>  0 0.23646520E+02</rscale>
<asrwt>0</asrwt>
<pdfrwt beam="1">  1        2 0.14556559E-02 0.23646520E+02</pdfrwt>
<pdfrwt beam="2">  1       -2 0.22729457E-02 0.23646520E+02</pdfrwt>
<totfact> 0.26606539E+06</totfact>
</mgrwt>
</event>
<event>
 4    1  0.2165211E+000  0.2748361E+02  0.7546771E-02  0.1627695E+00
          2   -1    0    0  501    0  0.00000000000E+00  0.00000000000E+00  0.25747412187E+02  0.25747412187E+02  0.00000000000E+00 0.  1.
         -2   -1    0    0    0  501 -0.00000000000E+00 -0.00000000000E+00 -0.73342208061E+01  0.73342208061E+01  0.00000000000E+00 0. -1.
        -13    1    1    2    0    0 -0.62574145304E+01 -0.10646641990E+02  0.19513564123E+01  0.12502560303E+02  0.00000000000E+00 0. -1.
         13    1    1    2    0    0  0.62574145304E+01  0.10646641990E+02  0.16461834969E+02  0.20579072691E+02  0.00000000000E+00 0.  1.
<mgrwt>
<rscale>  0 0.27483610E+02</rscale>
<asrwt>0</asrwt>
<pdfrwt beam="1">  1        2 0.39611403E-02 0.27483610E+02</pdfrwt>
<pdfrwt beam="2">  1       -2 0.11283417E-02 0.27483610E+02</pdfrwt>
<totfact> 0.20466093E+06</totfact>
</mgrwt>
</event>
<event>
 4    1  0.2165211E+000  0.2827854E+02  0.7546771E-02  0.1617936E+00
          2   -1    0    0  501    0  0.00000000000E+00  0.00000000000E+00  0.93687629484E+01  0.93687629484E+01  0.00000000000E+00 0.  1.
         -2   -1    0    0    0  501 -0.00000000000E+00 -0.00000000000E+00 -0.21338891664E+02  0.21338891664E+02  0.00000000000E+00 0. -1.
        -11    1    1    2    0    0  0.59122100793E+01 -0.11805028254E+02 -0.49014536453E+00  0.13211856893E+02  0.00000000000E+00 0. -1.
         11    1    1    2    0    0 -0.59122100793E+01  0.11805028254E+02 -0.11479983351E+02  0.17495797719E+02  0.00000000000E+00 0.  1.
<mgrwt>
<rscale>  0 0.28278544E+02</rscale>
<asrwt>0</asrwt>
<pdfrwt beam="1">  1        2 0.14413481E-02 0.28278544E+02</pdfrwt>
<pdfrwt beam="2">  1       -2 0.32829064E-02 0.28278544E+02</pdfrwt>
<totfact> 0.17259890E+06</totfact>
</mgrwt>
</event>
<event>
 4    1  0.2165211E+000  0.3010039E+02  0.7546771E-02  0.1596982E+00
          2   -1    0    0  501    0  0.00000000000E+00  0.00000000000E+00  0.24171520601E+02  0.24171520601E+02  0.00000000000E+00 0.  1.
         -2   -1    0    0    0  501 -0.00000000000E+00 -0.00000000000E+00 -0.93708773144E+01  0.93708773144E+01  0.00000000000E+00 0. -1.
        -13    1    1    2    0    0 -0.34303598581E+01  0.14634583329E+02  0.65590375095E+01  0.16399980824E+02  0.00000000000E+00 0. -1.
         13    1    1    2    0    0  0.34303598581E+01 -0.14634583329E+02  0.82416057767E+01  0.17142417092E+02  0.00000000000E+00 0.  1.
<mgrwt>
<rscale>  0 0.30100389E+02</rscale>
<asrwt>0</asrwt>
<pdfrwt beam="1">  1        2 0.37186955E-02 0.30100389E+02</pdfrwt>
<pdfrwt beam="2">  1       -2 0.14416734E-02 0.30100389E+02</pdfrwt>
<totfact> 0.16342850E+06</totfact>
</mgrwt>
</event>
<event>
 4    1  0.2165211E+000  0.5393045E+02  0.7546771E-02  0.1425226E+00
         -2   -1    0    0    0  501 -0.00000000000E+00  0.00000000000E+00  0.26455727789E+02  0.26455727789E+02  0.00000000000E+00 0.  1.
          2   -1    0    0  501    0  0.00000000000E+00 -0.00000000000E+00 -0.27484538713E+02  0.27484538713E+02  0.00000000000E+00 0. -1.
        -13    1    1    2    0    0 -0.86348465881E+01  0.25315474898E+02 -0.39340375669E+01  0.27035356415E+02  0.00000000000E+00 0. -1.
         13    1    1    2    0    0  0.86348465881E+01 -0.25315474898E+02  0.29052266430E+01  0.26904910086E+02  0.00000000000E+00 0.  1.
<mgrwt>
<rscale>  0 0.53930454E+02</rscale>
<asrwt>0</asrwt>
<pdfrwt beam="2">  1        2 0.42283905E-02 0.53930454E+02</pdfrwt>
<pdfrwt beam="1">  1       -2 0.40701120E-02 0.53930454E+02</pdfrwt>
<totfact> 0.37891684E+05</totfact>
</mgrwt>
</event>
<event>
 4    1  0.2165211E+000  0.3974799E+02  0.7546771E-02  0.1510074E+00
          1   -1    0    0  501    0  0.00000000000E+00  0.00000000000E+00  0.76639252327E+01  0.76639252327E+01  0.00000000000E+00 0.  1.
         -1   -1    0    0    0  501 -0.00000000000E+00 -0.00000000000E+00 -0.51536999009E+02  0.51536999009E+02  0.00000000000E+00 0. -1.
        -11    1    1    2    0    0  0.12434932831E+02 -0.12417714480E+02 -0.81124260157E+01  0.19355584292E+02  0.00000000000E+00 0.  1.
         11    1    1    2    0    0 -0.12434932831E+02  0.12417714480E+02 -0.35760647761E+02  0.39845339950E+02  0.00000000000E+00 0. -1.
<mgrwt>
<rscale>  0 0.39747992E+02</rscale>
<asrwt>0</asrwt>
<pdfrwt beam="1">  1        1 0.11790654E-02 0.39747992E+02</pdfrwt>
<pdfrwt beam="2">  1       -1 0.79287689E-02 0.39747992E+02</pdfrwt>
<totfact> 0.71201922E+05</totfact>
</mgrwt>
</event>
<event>
 4    1  0.2165211E+000  0.2466827E+02  0.7546771E-02  0.1665813E+00
         -1   -1    0    0    0  501 -0.00000000000E+00  0.00000000000E+00  0.17053303475E+02  0.17053303475E+02  0.00000000000E+00 0.  1.
          1   -1    0    0  501    0  0.00000000000E+00 -0.00000000000E+00 -0.89209043214E+01  0.89209043214E+01  0.00000000000E+00 0. -1.
        -13    1    1    2    0    0  0.99912758418E+00  0.12195414273E+02  0.56989368809E+01  0.13498306071E+02  0.00000000000E+00 0. -1.
         13    1    1    2    0    0 -0.99912758418E+00 -0.12195414273E+02  0.24334622729E+01  0.12475901725E+02  0.00000000000E+00 0.  1.
<mgrwt>
<rscale>  0 0.24668270E+02</rscale>
<asrwt>0</asrwt>
<pdfrwt beam="2">  1        1 0.13724468E-02 0.24668270E+02</pdfrwt>
<pdfrwt beam="1">  1       -1 0.26235852E-02 0.24668270E+02</pdfrwt>
<totfact> 0.23628474E+06</totfact>
</mgrwt>
</event>
<event>
 4    1  0.2165211E+000  0.2044367E+02  0.7546771E-02  0.1736646E+00
         -2   -1    0    0    0  501 -0.00000000000E+00  0.00000000000E+00  0.17000606106E+02  0.17000606106E+02  0.00000000000E+00 0. -1.
          2   -1    0    0  501    0  0.00000000000E+00 -0.00000000000E+00 -0.61460138579E+01  0.61460138579E+01  0.00000000000E+00 0.  1.
        -13    1    1    2    0    0 -0.98463287955E+01  0.26868458276E+01  0.47902009971E+01  0.11274544640E+02  0.00000000000E+00 0. -1.
         13    1    1    2    0    0  0.98463287955E+01 -0.26868458276E+01  0.60643912512E+01  0.11872075324E+02  0.00000000000E+00 0.  1.
<mgrwt>
<rscale>  0 0.20443675E+02</rscale>
<asrwt>0</asrwt>
<pdfrwt beam="2">  1        2 0.94554060E-03 0.20443675E+02</pdfrwt>
<pdfrwt beam="1">  1       -2 0.26154778E-02 0.20443675E+02</pdfrwt>
<totfact> 0.36166013E+06</totfact>
</mgrwt>
</event>
<event>
 4    1  0.2165211E+000  0.2248907E+02  0.7546771E-02  0.1699928E+00
          2   -1    0    0  501    0  0.00000000000E+00  0.00000000000E+00  0.30486418432E+01  0.30486418432E+01  0.00000000000E+00 0.  1.
         -2   -1    0    0    0  501 -0.00000000000E+00 -0.00000000000E+00 -0.41474076867E+02  0.41474076867E+02  0.00000000000E+00 0. -1.
        -13    1    1    2    0    0  0.86568526470E+01  0.67725637161E+01 -0.23910561609E+02  0.26315844534E+02  0.00000000000E+00 0. -1.
         13    1    1    2    0    0 -0.86568526470E+01 -0.67725637161E+01 -0.14514873414E+02  0.18206874176E+02  0.00000000000E+00 0.  1.
<mgrwt>
<rscale>  0 0.22489073E+02</rscale>
<asrwt>0</asrwt>
<pdfrwt beam="1">  1        2 0.46902180E-03 0.22489073E+02</pdfrwt>
<pdfrwt beam="2">  1       -2 0.63806274E-02 0.22489073E+02</pdfrwt>
<totfact> 0.26839881E+06</totfact>
</mgrwt>
</event>
<event>
 4    1  0.2165211E+000  0.2201321E+02  0.7546771E-02  0.1708024E+00
         -2   -1    0    0    0  501 -0.00000000000E+00  0.00000000000E+00  0.57138918423E+02  0.57138918423E+02  0.00000000000E+00 0.  1.
          2   -1    0    0  501    0  0.00000000000E+00 -0.00000000000E+00 -0.21201891702E+01  0.21201891702E+01  0.00000000000E+00 0. -1.
        -11    1    1    2    0    0 -0.94735581894E+01 -0.54488667439E+01  0.23992375193E+02  0.26364228055E+02  0.00000000000E+00 0.  1.
         11    1    1    2    0    0  0.94735581894E+01  0.54488667439E+01  0.31026354060E+02  0.32894879538E+02  0.00000000000E+00 0. -1.
<mgrwt>
<rscale>  0 0.22013207E+02</rscale>
<asrwt>0</asrwt>
<pdfrwt beam="2">  1        2 0.32618299E-03 0.22013207E+02</pdfrwt>
<pdfrwt beam="1">  1       -2 0.87906016E-02 0.22013207E+02</pdfrwt>
<totfact> 0.26893541E+06</totfact>
</mgrwt>
</event>
<event>
 4    1  0.2165211E+000  0.3842396E+02  0.7546771E-02  0.1520140E+00
          4   -1    0    0  501    0  0.00000000000E+00  0.00000000000E+00  0.38353057798E+02  0.38353057798E+02  0.00000000000E+00 0. -1.
         -4   -1    0    0    0  501 -0.00000000000E+00 -0.00000000000E+00 -0.96237481907E+01  0.96237481907E+01  0.00000000000E+00 0.  1.
        -11    1    1    2    0    0 -0.82932624889E+01  0.17024300879E+02  0.18409701000E+02  0.26410643954E+02  0.00000000000E+00 0. -1.
         11    1    1    2    0    0  0.82932624889E+01 -0.17024300879E+02  0.10319608608E+02  0.21566162036E+02  0.00000000000E+00 0.  1.
<mgrwt>
<rscale>  0 0.38423960E+02</rscale>
<asrwt>0</asrwt>
<pdfrwt beam="1">  1        4 0.59004703E-02 0.38423960E+02</pdfrwt>
<pdfrwt beam="2">  1       -4 0.14805767E-02 0.38423960E+02</pdfrwt>
<totfact> 0.27507942E+05</totfact>
</mgrwt>
</event>
<event>
 4    1  0.2165211E+000  0.4075791E+02  0.7546771E-02  0.1502707E+00
          2   -1    0    0  501    0  0.00000000000E+00  0.00000000000E+00  0.23877025460E+02  0.23877025460E+02  0.00000000000E+00 0.  1.
         -2   -1    0    0    0  501 -0.00000000000E+00 -0.00000000000E+00 -0.17393368415E+02  0.17393368415E+02  0.00000000000E+00 0. -1.
        -13    1    1    2    0    0 -0.60582589069E+01 -0.19216777716E+02  0.15142863877E+00  0.20149689263E+02  0.00000000000E+00 0. -1.
         13    1    1    2    0    0  0.60582589069E+01  0.19216777716E+02  0.63322284062E+01  0.21120704613E+02  0.00000000000E+00 0.  1.
<mgrwt>
<rscale>  0 0.40757915E+02</rscale>
<asrwt>0</asrwt>
<pdfrwt beam="1">  1        2 0.36733885E-02 0.40757915E+02</pdfrwt>
<pdfrwt beam="2">  1       -2 0.26759028E-02 0.40757915E+02</pdfrwt>
<totfact> 0.76933347E+05</totfact>
</mgrwt>
</event>
<event>
 4    1  0.2165211E+000  0.2552913E+02  0.7546771E-02  0.1653516E+00
         -2   -1    0    0    0  501 -0.00000000000E+00  0.00000000000E+00  0.50244018622E+01  0.50244018622E+01  0.00000000000E+00 0. -1.
          2   -1    0    0  501    0  0.00000000000E+00 -0.00000000000E+00 -0.32428573064E+02  0.32428573064E+02  0.00000000000E+00 0.  1.
        -11    1    1    2    0    0  0.86832750354E+01  0.93556092944E+01 -0.13829072011E+02  0.18819402841E+02  0.00000000000E+00 0. -1.
         11    1    1    2    0    0 -0.86832750354E+01 -0.93556092944E+01 -0.13575099191E+02  0.18633572085E+02  0.00000000000E+00 0.  1.
<mgrwt>
<rscale>  0 0.25529135E+02</rscale>
<asrwt>0</asrwt>
<pdfrwt beam="2">  1        2 0.49890113E-02 0.25529135E+02</pdfrwt>
<pdfrwt beam="1">  1       -2 0.77298490E-03 0.25529135E+02</pdfrwt>
<totfact> 0.25020483E+06</totfact>
</mgrwt>
</event>
<event>
 4    1  0.2165211E+000  0.2847802E+02  0.7546771E-02  0.1615548E+00
          1   -1    0    0  501    0  0.00000000000E+00  0.00000000000E+00  0.53936485533E+01  0.53936485533E+01  0.00000000000E+00 0.  1.
         -1   -1    0    0    0  501 -0.00000000000E+00 -0.00000000000E+00 -0.37590409259E+02  0.37590409259E+02  0.00000000000E+00 0. -1.
        -11    1    1    2    0    0 -0.57456810608E+01  0.12891600416E+02 -0.13257204466E+02  0.19363875707E+02  0.00000000000E+00 0.  1.
         11    1    1    2    0    0  0.57456810608E+01 -0.12891600416E+02 -0.18939556240E+02  0.23620182106E+02  0.00000000000E+00 0. -1.
<mgrwt>
<rscale>  0 0.28478024E+02</rscale>
<asrwt>0</asrwt>
<pdfrwt beam="1">  1        1 0.82979209E-03 0.28478024E+02</pdfrwt>
<pdfrwt beam="2">  1       -1 0.57831398E-02 0.28478024E+02</pdfrwt>
<totfact> 0.16132204E+06</totfact>
</mgrwt>
</event>
<event>
 4    1  0.2165211E+000  0.2380774E+02  0.7546771E-02  0.1678742E+00
         -2   -1    0    0    0  501 -0.00000000000E+00  0.00000000000E+00  0.13537562874E+01  0.13537562874E+01  0.00000000000E+00 0.  1.
          2   -1    0    0  501    0  0.00000000000E+00 -0.00000000000E+00 -0.10467331185E+03  0.10467331185E+03  0.00000000000E+00 0. -1.
        -13    1    1    2    0    0  0.63917401851E+01  0.95312947594E+01 -0.37575097756E+02  0.39288521145E+02  0.00000000000E+00 0.  1.
         13    1    1    2    0    0 -0.63917401851E+01 -0.95312947594E+01 -0.65744457809E+02  0.66738546995E+02  0.00000000000E+00 0. -1.
<mgrwt>
<rscale>  0 0.23807743E+02</rscale>
<asrwt>0</asrwt>
<pdfrwt beam="2">  1        2 0.16103593E-01 0.23807743E+02</pdfrwt>
<pdfrwt beam="1">  1       -2 0.20827012E-03 0.23807743E+02</pdfrwt>
<totfact> 0.36088221E+06</totfact>
</mgrwt>
</event>
<event>
 4    1  0.2165211E+000  0.8706094E+02  0.7546771E-02  0.1310129E+00
          4   -1    0    0  501    0  0.00000000000E+00  0.00000000000E+00  0.17861509107E+02  0.17861509107E+02  0.00000000000E+00 0. -1.
         -4   -1    0    0    0  501 -0.00000000000E+00 -0.00000000000E+00 -0.10608856728E+03  0.10608856728E+03  0.00000000000E+00 0.  1.
        -11    1    1    2    0    0 -0.10196783093E+02  0.23846266295E+02  0.56612500169E+01  0.26545593860E+02  0.00000000000E+00 0. -1.
         11    1    1    2    0    0  0.10196783093E+02 -0.23846266295E+02 -0.93888308193E+02  0.97404482530E+02  0.00000000000E+00 0.  1.
<mgrwt>
<rscale>  0 0.87060942E+02</rscale>
<asrwt>0</asrwt>
<pdfrwt beam="1">  1        4 0.27479244E-02 0.87060942E+02</pdfrwt>
<pdfrwt beam="2">  1       -4 0.16321318E-01 0.87060942E+02</pdfrwt>
<totfact> 0.28360742E+04</totfact>
</mgrwt>
</event>
<event>
 4    1  0.2165211E+000  0.2450135E+02  0.7546771E-02  0.1668269E+00
         -2   -1    0    0    0  501 -0.00000000000E+00  0.00000000000E+00  0.20858291516E+02  0.20858291516E+02  0.00000000000E+00 0. -1.
          2   -1    0    0  501    0  0.00000000000E+00 -0.00000000000E+00 -0.71951749499E+01  0.71951749499E+01  0.00000000000E+00 0.  1.
        -11    1    1    2    0    0 -0.30256765477E+01 -0.11710819634E+02  0.46051632903E+01  0.12942393287E+02  0.00000000000E+00 0. -1.
         11    1    1    2    0    0  0.30256765477E+01  0.11710819634E+02  0.90579532758E+01  0.15111073179E+02  0.00000000000E+00 0.  1.
<mgrwt>
<rscale>  0 0.24501352E+02</rscale>
<asrwt>0</asrwt>
<pdfrwt beam="2">  1        2 0.11069500E-02 0.24501352E+02</pdfrwt>
<pdfrwt beam="1">  1       -2 0.32089679E-02 0.24501352E+02</pdfrwt>
<totfact> 0.23861753E+06</totfact>
</mgrwt>
</event>
<event>
 4    1  0.2165211E+000  0.3201044E+02  0.7546771E-02  0.1576873E+00
          2   -1    0    0  501    0  0.00000000000E+00  0.00000000000E+00  0.20770684622E+01  0.20770684622E+01  0.00000000000E+00 0. -1.
         -2   -1    0    0    0  501 -0.00000000000E+00 -0.00000000000E+00 -0.12333108966E+03  0.12333108966E+03  0.00000000000E+00 0.  1.
        -13    1    1    2    0    0 -0.14583405313E+02  0.65321532387E+01 -0.64179808030E+02  0.66139190313E+02  0.00000000000E+00 0. -1.
         13    1    1    2    0    0  0.14583405313E+02 -0.65321532387E+01 -0.57074213172E+02  0.59268967813E+02  0.00000000000E+00 0.  1.
<mgrwt>
<rscale>  0 0.32010443E+02</rscale>
<asrwt>0</asrwt>
<pdfrwt beam="1">  1        2 0.31954891E-03 0.32010443E+02</pdfrwt>
<pdfrwt beam="2">  1       -2 0.18974019E-01 0.32010443E+02</pdfrwt>
<totfact> 0.97069922E+05</totfact>
</mgrwt>
</event>
<event>
 4    1  0.2165211E+000  0.2879194E+02  0.7546771E-02  0.1611839E+00
         -2   -1    0    0    0  501 -0.00000000000E+00  0.00000000000E+00  0.31682991316E+02  0.31682991316E+02  0.00000000000E+00 0. -1.
          2   -1    0    0  501    0  0.00000000000E+00 -0.00000000000E+00 -0.65411752211E+01  0.65411752211E+01  0.00000000000E+00 0.  1.
        -13    1    1    2    0    0  0.19700065095E+00 -0.14101753796E+02  0.87356095459E+01  0.16589428667E+02  0.00000000000E+00 0.  1.
         13    1    1    2    0    0 -0.19700065095E+00  0.14101753796E+02  0.16406206549E+02  0.21634737870E+02  0.00000000000E+00 0. -1.
<mgrwt>
<rscale>  0 0.28791943E+02</rscale>
<asrwt>0</asrwt>
<pdfrwt beam="2">  1        2 0.10063347E-02 0.28791943E+02</pdfrwt>
<pdfrwt beam="1">  1       -2 0.48743063E-02 0.28791943E+02</pdfrwt>
<totfact> 0.15881479E+06</totfact>
</mgrwt>
</event>
<event>
 4    1  0.2165211E+000  0.2198488E+02  0.7546771E-02  0.1708514E+00
          2   -1    0    0  501    0  0.00000000000E+00  0.00000000000E+00  0.15169102780E+01  0.15169102780E+01  0.00000000000E+00 0. -1.
         -2   -1    0    0    0  501 -0.00000000000E+00 -0.00000000000E+00 -0.79657837067E+02  0.79657837067E+02  0.00000000000E+00 0.  1.
        -13    1    1    2    0    0  0.65080450764E+01  0.82834968191E+01 -0.27474753685E+02  0.29425041382E+02  0.00000000000E+00 0. -1.
         13    1    1    2    0    0 -0.65080450764E+01 -0.82834968191E+01 -0.50666173104E+02  0.51749705963E+02  0.00000000000E+00 0.  1.
<mgrwt>
<rscale>  0 0.21984885E+02</rscale>
<asrwt>0</asrwt>
<pdfrwt beam="1">  1        2 0.23337071E-03 0.21984885E+02</pdfrwt>
<pdfrwt beam="2">  1       -2 0.12255057E-01 0.21984885E+02</pdfrwt>
<totfact> 0.25402600E+06</totfact>
</mgrwt>
</event>
<event>
 4    1  0.2165211E+000  0.2266405E+02  0.7546771E-02  0.1697014E+00
          4   -1    0    0  501    0  0.00000000000E+00  0.00000000000E+00  0.11128439917E+02  0.11128439917E+02  0.00000000000E+00 0. -1.
         -4   -1    0    0    0  501 -0.00000000000E+00 -0.00000000000E+00 -0.11539336740E+02  0.11539336740E+02  0.00000000000E+00 0.  1.
        -13    1    1    2    0    0  0.30327166123E+00  0.11320351077E+02 -0.62083989902E+00  0.11341418094E+02  0.00000000000E+00 0. -1.
         13    1    1    2    0    0 -0.30327166123E+00 -0.11320351077E+02  0.20994307661E+00  0.11326358563E+02  0.00000000000E+00 0.  1.
<mgrwt>
<rscale>  0 0.22664052E+02</rscale>
<asrwt>0</asrwt>
<pdfrwt beam="1">  1        4 0.17120677E-02 0.22664052E+02</pdfrwt>
<pdfrwt beam="2">  1       -4 0.17752826E-02 0.22664052E+02</pdfrwt>
<totfact> 0.99099812E+05</totfact>
</mgrwt>
</event>
<event>
 4    1  0.2165211E+000  0.4368166E+02  0.7546771E-02  0.1482744E+00
         -1   -1    0    0    0  501 -0.00000000000E+00  0.00000000000E+00  0.19986785381E+02  0.19986785381E+02  0.00000000000E+00 0. -1.
          1   -1    0    0  501    0  0.00000000000E+00 -0.00000000000E+00 -0.23866863608E+02  0.23866863608E+02  0.00000000000E+00 0.  1.
        -11    1    1    2    0    0 -0.12691002066E+02  0.91864479283E+01 -0.17217363128E+02  0.23278529852E+02  0.00000000000E+00 0.  1.
         11    1    1    2    0    0  0.12691002066E+02 -0.91864479283E+01  0.13337284901E+02  0.20575119137E+02  0.00000000000E+00 0. -1.
<mgrwt>
<rscale>  0 0.43681661E+02</rscale>
<asrwt>0</asrwt>
<pdfrwt beam="2">  1        1 0.36718252E-02 0.43681661E+02</pdfrwt>
<pdfrwt beam="1">  1       -1 0.30748901E-02 0.43681661E+02</pdfrwt>
<totfact> 0.61696408E+05</totfact>
</mgrwt>
</event>
<event>
 4    1  0.2165211E+000  0.9267768E+02  0.7546771E-02  0.1296494E+00
          1   -1    0    0  501    0  0.00000000000E+00  0.00000000000E+00  0.11647222384E+03  0.11647222384E+03  0.00000000000E+00 0. -1.
         -1   -1    0    0    0  501 -0.00000000000E+00 -0.00000000000E+00 -0.18436054169E+02  0.18436054169E+02  0.00000000000E+00 0.  1.
        -13    1    1    2    0    0  0.83329317940E+01 -0.33369037160E+02  0.38134944575E+01  0.34604524751E+02  0.00000000000E+00 0.  1.
         13    1    1    2    0    0 -0.83329317940E+01  0.33369037160E+02  0.94222675210E+02  0.10030375325E+03  0.00000000000E+00 0. -1.
<mgrwt>
<rscale>  0 0.92677683E+02</rscale>
<asrwt>0</asrwt>
<pdfrwt beam="1">  1        1 0.17918803E-01 0.92677683E+02</pdfrwt>
<pdfrwt beam="2">  1       -1 0.28363161E-02 0.92677683E+02</pdfrwt>
<totfact> 0.10252902E+05</totfact>
</mgrwt>
</event>
<event>
 4    1  0.2165211E+000  0.3556973E+02  0.7546771E-02  0.1543599E+00
         -2   -1    0    0    0  501 -0.00000000000E+00  0.00000000000E+00  0.39924966728E+01  0.39924966728E+01  0.00000000000E+00 0. -1.
          2   -1    0    0  501    0  0.00000000000E+00 -0.00000000000E+00 -0.79223953162E+02  0.79223953162E+02  0.00000000000E+00 0.  1.
        -11    1    1    2    0    0 -0.13395644597E+02  0.76037671698E+01 -0.58415296302E+02  0.60411980694E+02  0.00000000000E+00 0.  1.
         11    1    1    2    0    0  0.13395644597E+02 -0.76037671698E+01 -0.16816160187E+02  0.22804469141E+02  0.00000000000E+00 0. -1.
<mgrwt>
<rscale>  0 0.35569727E+02</rscale>
<asrwt>0</asrwt>
<pdfrwt beam="2">  1        2 0.12188301E-01 0.35569727E+02</pdfrwt>
<pdfrwt beam="1">  1       -2 0.61423025E-03 0.35569727E+02</pdfrwt>
<totfact> 0.13178594E+06</totfact>
</mgrwt>
</event>
<event>
 4    1  0.2165211E+000  0.6452895E+02  0.7546771E-02  0.1379752E+00
         -1   -1    0    0    0  501 -0.00000000000E+00  0.00000000000E+00  0.12153416644E+03  0.12153416644E+03  0.00000000000E+00 0.  1.
          1   -1    0    0  501    0  0.00000000000E+00 -0.00000000000E+00 -0.85654618511E+01  0.85654618511E+01  0.00000000000E+00 0. -1.
        -13    1    1    2    0    0 -0.77427899874E+00  0.32129383363E+02  0.50746489969E+02  0.60067487274E+02  0.00000000000E+00 0. -1.
         13    1    1    2    0    0  0.77427899874E+00 -0.32129383363E+02  0.62222214621E+02  0.70032141018E+02  0.00000000000E+00 0.  1.
<mgrwt>
<rscale>  0 0.64528947E+02</rscale>
<asrwt>0</asrwt>
<pdfrwt beam="2">  1        1 0.13177634E-02 0.64528947E+02</pdfrwt>
<pdfrwt beam="1">  1       -1 0.18697563E-01 0.64528947E+02</pdfrwt>
<totfact> 0.18981433E+05</totfact>
</mgrwt>
</event>
<event>
 4    1  0.2165211E+000  0.6406202E+02  0.7546771E-02  0.1381535E+00
          2   -1    0    0  501    0  0.00000000000E+00  0.00000000000E+00  0.11696867873E+03  0.11696867873E+03  0.00000000000E+00 0. -1.
         -2   -1    0    0    0  501 -0.00000000000E+00 -0.00000000000E+00 -0.87714555111E+01  0.87714555111E+01  0.00000000000E+00 0.  1.
        -13    1    1    2    0    0 -0.15612299241E+02  0.14664496898E+02  0.10084404514E+03  0.10309370881E+03  0.00000000000E+00 0. -1.
         13    1    1    2    0    0  0.15612299241E+02 -0.14664496898E+02  0.73531780824E+01  0.22646425430E+02  0.00000000000E+00 0.  1.
<mgrwt>
<rscale>  0 0.64062019E+02</rscale>
<asrwt>0</asrwt>
<pdfrwt beam="1">  1        2 0.17995180E-01 0.64062019E+02</pdfrwt>
<pdfrwt beam="2">  1       -2 0.13494548E-02 0.64062019E+02</pdfrwt>
<totfact> 0.33060982E+05</totfact>
</mgrwt>
</event>
<event>
 4    1  0.2165211E+000  0.2336282E+02  0.7546771E-02  0.1685695E+00
         -2   -1    0    0    0  501 -0.00000000000E+00  0.00000000000E+00  0.15556679195E+02  0.15556679195E+02  0.00000000000E+00 0.  1.
          2   -1    0    0  501    0  0.00000000000E+00 -0.00000000000E+00 -0.87714971417E+01  0.87714971417E+01  0.00000000000E+00 0. -1.
        -13    1    1    2    0    0 -0.85083695998E+01  0.80030998296E+01  0.32720181833E+01  0.12130460136E+02  0.00000000000E+00 0. -1.
         13    1    1    2    0    0  0.85083695998E+01 -0.80030998296E+01  0.35131638701E+01  0.12197716200E+02  0.00000000000E+00 0.  1.
<mgrwt>
<rscale>  0 0.23362822E+02</rscale>
<asrwt>0</asrwt>
<pdfrwt beam="2">  1        2 0.13494611E-02 0.23362822E+02</pdfrwt>
<pdfrwt beam="1">  1       -2 0.23933353E-02 0.23362822E+02</pdfrwt>
<totfact> 0.27203463E+06</totfact>
</mgrwt>
</event>
<event>
 4    1  0.2165211E+000  0.3588244E+02  0.7546771E-02  0.1540901E+00
          4   -1    0    0  501    0  0.00000000000E+00  0.00000000000E+00  0.12824533324E+02  0.12824533324E+02  0.00000000000E+00 0.  1.
         -4   -1    0    0    0  501 -0.00000000000E+00 -0.00000000000E+00 -0.25099339341E+02  0.25099339341E+02  0.00000000000E+00 0. -1.
        -11    1    1    2    0    0 -0.10242701929E+02 -0.14692874650E+02 -0.50320504855E+01  0.18604167285E+02  0.00000000000E+00 0. -1.
         11    1    1    2    0    0  0.10242701929E+02  0.14692874650E+02 -0.72427555317E+01  0.19319705380E+02  0.00000000000E+00 0.  1.
<mgrwt>
<rscale>  0 0.35882437E+02</rscale>
<asrwt>0</asrwt>
<pdfrwt beam="1">  1        4 0.19730052E-02 0.35882437E+02</pdfrwt>
<pdfrwt beam="2">  1       -4 0.38614368E-02 0.35882437E+02</pdfrwt>
<totfact> 0.33457364E+05</totfact>
</mgrwt>
</event>
<event>
 4    1  0.2165211E+000  0.2641086E+02  0.7546771E-02  0.1641527E+00
         -3   -1    0    0    0  501 -0.00000000000E+00  0.00000000000E+00  0.32772293606E+01  0.32772293606E+01  0.00000000000E+00 0. -1.
          3   -1    0    0  501    0  0.00000000000E+00 -0.00000000000E+00 -0.53210628168E+02  0.53210628168E+02  0.00000000000E+00 0.  1.
        -13    1    1    2    0    0 -0.51309284304E+01 -0.89011387853E+01 -0.42710681026E+02  0.43929021978E+02  0.00000000000E+00 0.  1.
         13    1    1    2    0    0  0.51309284304E+01  0.89011387853E+01 -0.72227177806E+01  0.12558835550E+02  0.00000000000E+00 0. -1.
<mgrwt>
<rscale>  0 0.26410864E+02</rscale>
<asrwt>0</asrwt>
<pdfrwt beam="2">  1        3 0.81862489E-02 0.26410864E+02</pdfrwt>
<pdfrwt beam="1">  1       -3 0.50418923E-03 0.26410864E+02</pdfrwt>
<totfact> 0.85963821E+05</totfact>
</mgrwt>
</event>
<event>
 4    1  0.2165211E+000  0.2332644E+02  0.7546771E-02  0.1686273E+00
          2   -1    0    0  501    0  0.00000000000E+00  0.00000000000E+00  0.13300734169E+01  0.13300734169E+01  0.00000000000E+00 0. -1.
         -2   -1    0    0    0  501 -0.00000000000E+00 -0.00000000000E+00 -0.10227306492E+03  0.10227306492E+03  0.00000000000E+00 0.  1.
        -13    1    1    2    0    0 -0.10834632765E+02 -0.41470736705E+01 -0.55807146486E+02  0.57000220053E+02  0.00000000000E+00 0. -1.
         13    1    1    2    0    0  0.10834632765E+02  0.41470736705E+01 -0.45135845019E+02  0.46602918286E+02  0.00000000000E+00 0.  1.
<mgrwt>
<rscale>  0 0.23326439E+02</rscale>
<asrwt>0</asrwt>
<pdfrwt beam="1">  1        2 0.20462671E-03 0.23326439E+02</pdfrwt>
<pdfrwt beam="2">  1       -2 0.15734315E-01 0.23326439E+02</pdfrwt>
<totfact> 0.21046193E+06</totfact>
</mgrwt>
</event>
<event>
 4    1  0.2165211E+000  0.2112916E+02  0.7546771E-02  0.1723763E+00
          2   -1    0    0  501    0  0.00000000000E+00  0.00000000000E+00  0.92906654233E+02  0.92906654233E+02  0.00000000000E+00 0. -1.
         -2   -1    0    0    0  501 -0.00000000000E+00 -0.00000000000E+00 -0.12013171562E+01  0.12013171562E+01  0.00000000000E+00 0.  1.
        -11    1    1    2    0    0  0.10219217538E+02 -0.68929057019E+00  0.57383834929E+02  0.58290754325E+02  0.00000000000E+00 0.  1.
         11    1    1    2    0    0 -0.10219217538E+02  0.68929057019E+00  0.34321502148E+02  0.35817217065E+02  0.00000000000E+00 0. -1.
<mgrwt>
<rscale>  0 0.21129161E+02</rscale>
<asrwt>0</asrwt>
<pdfrwt beam="1">  1        2 0.14293326E-01 0.21129161E+02</pdfrwt>
<pdfrwt beam="2">  1       -2 0.18481810E-03 0.21129161E+02</pdfrwt>
<totfact> 0.45943549E+06</totfact>
</mgrwt>
</event>
<event>
 4    1  0.2165211E+000  0.3474660E+02  0.7546771E-02  0.1550862E+00
          2   -1    0    0  501    0  0.00000000000E+00  0.00000000000E+00  0.74597799562E+02  0.74597799562E+02  0.00000000000E+00 0.  1.
         -2   -1    0    0    0  501 -0.00000000000E+00 -0.00000000000E+00 -0.40461188556E+01  0.40461188556E+01  0.00000000000E+00 0. -1.
        -13    1    1    2    0    0 -0.17166811259E+02 -0.39537543818E+00  0.29297909951E+02  0.33959141009E+02  0.00000000000E+00 0.  1.
         13    1    1    2    0    0  0.17166811259E+02  0.39537543818E+00  0.41253770755E+02  0.44684777409E+02  0.00000000000E+00 0. -1.
<mgrwt>
<rscale>  0 0.34746601E+02</rscale>
<asrwt>0</asrwt>
<pdfrwt beam="1">  1        2 0.11476584E-01 0.34746601E+02</pdfrwt>
<pdfrwt beam="2">  1       -2 0.62247988E-03 0.34746601E+02</pdfrwt>
<totfact> 0.13768275E+06</totfact>
</mgrwt>
</event>
<event>
 4    1  0.2165211E+000  0.2069003E+02  0.7546771E-02  0.1731944E+00
         -2   -1    0    0    0  501 -0.00000000000E+00  0.00000000000E+00  0.20284989192E+02  0.20284989192E+02  0.00000000000E+00 0.  1.
          2   -1    0    0  501    0  0.00000000000E+00 -0.00000000000E+00 -0.52757917825E+01  0.52757917825E+01  0.00000000000E+00 0. -1.
        -13    1    1    2    0    0  0.76832962381E+01  0.68397505789E+01  0.88602663931E+01  0.13576433612E+02  0.00000000000E+00 0.  1.
         13    1    1    2    0    0 -0.76832962381E+01 -0.68397505789E+01  0.61489310164E+01  0.11984347363E+02  0.00000000000E+00 0. -1.
<mgrwt>
<rscale>  0 0.20690034E+02</rscale>
<asrwt>0</asrwt>
<pdfrwt beam="2">  1        2 0.81166028E-03 0.20690034E+02</pdfrwt>
<pdfrwt beam="1">  1       -2 0.31207675E-02 0.20690034E+02</pdfrwt>
<totfact> 0.34726900E+06</totfact>
</mgrwt>
</event>
<event>
 4    1  0.2165211E+000  0.2493591E+02  0.7546771E-02  0.1661924E+00
          2   -1    0    0  501    0  0.00000000000E+00  0.00000000000E+00  0.10399852411E+02  0.10399852411E+02  0.00000000000E+00 0. -1.
         -2   -1    0    0    0  501 -0.00000000000E+00 -0.00000000000E+00 -0.14947317491E+02  0.14947317491E+02  0.00000000000E+00 0.  1.
        -11    1    1    2    0    0  0.10144793871E+02 -0.13076182388E+01  0.49728828681E+01  0.11373489885E+02  0.00000000000E+00 0. -1.
         11    1    1    2    0    0 -0.10144793871E+02  0.13076182388E+01 -0.95203479483E+01  0.13973680017E+02  0.00000000000E+00 0.  1.
<mgrwt>
<rscale>  0 0.24935910E+02</rscale>
<asrwt>0</asrwt>
<pdfrwt beam="1">  1        2 0.15999773E-02 0.24935910E+02</pdfrwt>
<pdfrwt beam="2">  1       -2 0.22995873E-02 0.24935910E+02</pdfrwt>
<totfact> 0.23642386E+06</totfact>
</mgrwt>
</event>
<event>
 4    1  0.2165211E+000  0.2365576E+02  0.7546771E-02  0.1681096E+00
         -2   -1    0    0    0  501 -0.00000000000E+00  0.00000000000E+00  0.27720809599E+01  0.27720809599E+01  0.00000000000E+00 0. -1.
          2   -1    0    0  501    0  0.00000000000E+00 -0.00000000000E+00 -0.50467039192E+02  0.50467039192E+02  0.00000000000E+00 0.  1.
        -11    1    1    2    0    0 -0.10015442411E+02  0.50344415774E+01 -0.32341443626E+02  0.34228988657E+02  0.00000000000E+00 0. -1.
         11    1    1    2    0    0  0.10015442411E+02 -0.50344415774E+01 -0.15353514606E+02  0.19010131495E+02  0.00000000000E+00 0.  1.
<mgrwt>
<rscale>  0 0.23655758E+02</rscale>
<asrwt>0</asrwt>
<pdfrwt beam="2">  1        2 0.77641601E-02 0.23655758E+02</pdfrwt>
<pdfrwt beam="1">  1       -2 0.42647398E-03 0.23655758E+02</pdfrwt>
<totfact> 0.31738791E+06</totfact>
</mgrwt>
</event>
<event>
 4    1  0.2165211E+000  0.4951912E+02  0.7546771E-02  0.1447953E+00
          1   -1    0    0  501    0  0.00000000000E+00  0.00000000000E+00  0.18572055458E+03  0.18572055458E+03  0.00000000000E+00 0. -1.
         -1   -1    0    0    0  501 -0.00000000000E+00 -0.00000000000E+00 -0.33008500162E+01  0.33008500162E+01  0.00000000000E+00 0.  1.
        -11    1    1    2    0    0 -0.20688077597E+02 -0.13386382584E+02  0.10043746969E+03  0.10341603895E+03  0.00000000000E+00 0. -1.
         11    1    1    2    0    0  0.20688077597E+02  0.13386382584E+02  0.81982234868E+02  0.85605365645E+02  0.00000000000E+00 0.  1.
<mgrwt>
<rscale>  0 0.49519115E+02</rscale>
<asrwt>0</asrwt>
<pdfrwt beam="1">  1        1 0.28572385E-01 0.49519115E+02</pdfrwt>
<pdfrwt beam="2">  1       -1 0.50782322E-03 0.49519115E+02</pdfrwt>
<totfact> 0.56855628E+05</totfact>
</mgrwt>
</event>
<event>
 4    1  0.2165211E+000  0.2302671E+02  0.7546771E-02  0.1691078E+00
          3   -1    0    0  501    0  0.00000000000E+00  0.00000000000E+00  0.44923014425E+01  0.44923014425E+01  0.00000000000E+00 0.  1.
         -3   -1    0    0    0  501 -0.00000000000E+00 -0.00000000000E+00 -0.29507672817E+02  0.29507672817E+02  0.00000000000E+00 0. -1.
        -11    1    1    2    0    0  0.10637529743E+02 -0.43465463100E+01 -0.11455439119E+02  0.16225800112E+02  0.00000000000E+00 0.  1.
         11    1    1    2    0    0 -0.10637529743E+02  0.43465463100E+01 -0.13559932255E+02  0.17774174148E+02  0.00000000000E+00 0. -1.
<mgrwt>
<rscale>  0 0.23026712E+02</rscale>
<asrwt>0</asrwt>
<pdfrwt beam="1">  1        3 0.69112328E-03 0.23026712E+02</pdfrwt>
<pdfrwt beam="2">  1       -3 0.45396421E-02 0.23026712E+02</pdfrwt>
<totfact> 0.12519743E+06</totfact>
</mgrwt>
</event>
<event>
 4    1  0.2165211E+000  0.9297564E+02  0.7546771E-02  0.1295802E+00
          2   -1    0    0  501    0  0.00000000000E+00  0.00000000000E+00  0.43137486527E+03  0.43137486527E+03  0.00000000000E+00 0. -1.
         -2   -1    0    0    0  501 -0.00000000000E+00 -0.00000000000E+00 -0.50098362109E+01  0.50098362109E+01  0.00000000000E+00 0.  1.
        -11    1    1    2    0    0  0.18367750757E+02 -0.42690985187E+02  0.21837293183E+03  0.22326359273E+03  0.00000000000E+00 0.  1.
         11    1    1    2    0    0 -0.18367750757E+02  0.42690985187E+02  0.20799209723E+03  0.21312110875E+03  0.00000000000E+00 0. -1.
<mgrwt>
<rscale>  0 0.92975640E+02</rscale>
<asrwt>0</asrwt>
<pdfrwt beam="1">  1        2 0.66365335E-01 0.92975640E+02</pdfrwt>
<pdfrwt beam="2">  1       -2 0.77074437E-03 0.92975640E+02</pdfrwt>
<totfact> 0.19465470E+05</totfact>
</mgrwt>
</event>
<event>
 4    1  0.2165211E+000  0.3160421E+02  0.7546771E-02  0.1581004E+00
         -2   -1    0    0    0  501 -0.00000000000E+00  0.00000000000E+00  0.43043998596E+01  0.43043998596E+01  0.00000000000E+00 0. -1.
          2   -1    0    0  501    0  0.00000000000E+00 -0.00000000000E+00 -0.58011939698E+02  0.58011939698E+02  0.00000000000E+00 0.  1.
        -13    1    1    2    0    0 -0.12104825478E+02 -0.35297176253E+01 -0.80731222274E+01  0.14972007510E+02  0.00000000000E+00 0. -1.
         13    1    1    2    0    0  0.12104825478E+02  0.35297176253E+01 -0.45634417611E+02  0.47344332048E+02  0.00000000000E+00 0.  1.
<mgrwt>
<rscale>  0 0.31604214E+02</rscale>
<asrwt>0</asrwt>
<pdfrwt beam="2">  1        2 0.89249134E-02 0.31604214E+02</pdfrwt>
<pdfrwt beam="1">  1       -2 0.66221540E-03 0.31604214E+02</pdfrwt>
<totfact> 0.16468785E+06</totfact>
</mgrwt>
</event>
<event>
 4    1  0.2165211E+000  0.2950542E+02  0.7546771E-02  0.1603621E+00
          2   -1    0    0  501    0  0.00000000000E+00  0.00000000000E+00  0.78728073870E+01  0.78728073870E+01  0.00000000000E+00 0. -1.
         -2   -1    0    0    0  501 -0.00000000000E+00 -0.00000000000E+00 -0.27644829992E+02  0.27644829992E+02  0.00000000000E+00 0.  1.
        -13    1    1    2    0    0  0.45701103627E+01  0.11729716315E+02 -0.62637204829E+00  0.12604145965E+02  0.00000000000E+00 0. -1.
         13    1    1    2    0    0 -0.45701103627E+01 -0.11729716315E+02 -0.19145650556E+02  0.22913491414E+02  0.00000000000E+00 0.  1.
<mgrwt>
<rscale>  0 0.29505418E+02</rscale>
<asrwt>0</asrwt>
<pdfrwt beam="1">  1        2 0.12112012E-02 0.29505418E+02</pdfrwt>
<pdfrwt beam="2">  1       -2 0.42530507E-02 0.29505418E+02</pdfrwt>
<totfact> 0.15253261E+06</totfact>
</mgrwt>
</event>
<event>
 4    1  0.2165211E+000  0.3559770E+02  0.7546771E-02  0.1543356E+00
         -4   -1    0    0    0  501 -0.00000000000E+00  0.00000000000E+00  0.44279144637E+02  0.44279144637E+02  0.00000000000E+00 0. -1.
          4   -1    0    0  501    0  0.00000000000E+00 -0.00000000000E+00 -0.71545880453E+01  0.71545880453E+01  0.00000000000E+00 0.  1.
        -13    1    1    2    0    0 -0.48772092940E+01 -0.16934022709E+02  0.22174645999E+02  0.28324251461E+02  0.00000000000E+00 0. -1.
         13    1    1    2    0    0  0.48772092940E+01  0.16934022709E+02  0.14949910593E+02  0.23109481222E+02  0.00000000000E+00 0.  1.
<mgrwt>
<rscale>  0 0.35597699E+02</rscale>
<asrwt>0</asrwt>
<pdfrwt beam="2">  1        4 0.11007059E-02 0.35597699E+02</pdfrwt>
<pdfrwt beam="1">  1       -4 0.68121759E-02 0.35597699E+02</pdfrwt>
<totfact> 0.32556532E+05</totfact>
</mgrwt>
</event>
<event>
 4    1  0.2165211E+000  0.2099108E+02  0.7546771E-02  0.1726308E+00
          2   -1    0    0  501    0  0.00000000000E+00  0.00000000000E+00  0.41625190651E+02  0.41625190651E+02  0.00000000000E+00 0. -1.
         -2   -1    0    0    0  501 -0.00000000000E+00 -0.00000000000E+00 -0.26463863992E+01  0.26463863992E+01  0.00000000000E+00 0.  1.
        -11    1    1    2    0    0 -0.71057648994E+01 -0.74099900536E+01  0.14889658871E+02  0.18085955565E+02  0.00000000000E+00 0.  1.
         11    1    1    2    0    0  0.71057648994E+01  0.74099900536E+01  0.24089145380E+02  0.26185621485E+02  0.00000000000E+00 0. -1.
<mgrwt>
<rscale>  0 0.20991078E+02</rscale>
<asrwt>0</asrwt>
<pdfrwt beam="1">  1        2 0.64038750E-02 0.20991078E+02</pdfrwt>
<pdfrwt beam="2">  1       -2 0.40713640E-03 0.20991078E+02</pdfrwt>
<totfact> 0.40491843E+06</totfact>
</mgrwt>
</event>
<event>
 4    1  0.2165211E+000  0.2256606E+02  0.7546771E-02  0.1698642E+00
         -2   -1    0    0    0  501 -0.00000000000E+00  0.00000000000E+00  0.68513491711E+01  0.68513491711E+01  0.00000000000E+00 0.  1.
          2   -1    0    0  501    0  0.00000000000E+00 -0.00000000000E+00 -0.18581263187E+02  0.18581263187E+02  0.00000000000E+00 0. -1.
        -11    1    1    2    0    0  0.93961144743E+01  0.54678096691E+01 -0.24608776278E+01  0.11146292141E+02  0.00000000000E+00 0.  1.
         11    1    1    2    0    0 -0.93961144743E+01 -0.54678096691E+01 -0.92690363885E+01  0.14286320218E+02  0.00000000000E+00 0. -1.
<mgrwt>
<rscale>  0 0.22566056E+02</rscale>
<asrwt>0</asrwt>
<pdfrwt beam="2">  1        2 0.28586558E-02 0.22566056E+02</pdfrwt>
<pdfrwt beam="1">  1       -2 0.10540537E-02 0.22566056E+02</pdfrwt>
<totfact> 0.31429767E+06</totfact>
</mgrwt>
</event>
<event>
 4    1  0.2165211E+000  0.2198883E+02  0.7546771E-02  0.1708445E+00
         -4   -1    0    0    0  501 -0.00000000000E+00  0.00000000000E+00  0.14776946232E+02  0.14776946232E+02  0.00000000000E+00 0. -1.
          4   -1    0    0  501    0  0.00000000000E+00 -0.00000000000E+00 -0.81801191468E+01  0.81801191468E+01  0.00000000000E+00 0.  1.
        -11    1    1    2    0    0 -0.35635310796E+01 -0.10142190734E+02  0.57052195966E+01  0.12170140397E+02  0.00000000000E+00 0. -1.
         11    1    1    2    0    0  0.35635310796E+01  0.10142190734E+02  0.89160748848E+00  0.10786924981E+02  0.00000000000E+00 0.  1.
<mgrwt>
<rscale>  0 0.21988832E+02</rscale>
<asrwt>0</asrwt>
<pdfrwt beam="2">  1        4 0.12584799E-02 0.21988832E+02</pdfrwt>
<pdfrwt beam="1">  1       -4 0.22733763E-02 0.21988832E+02</pdfrwt>
<totfact> 0.10549185E+06</totfact>
</mgrwt>
</event>
<event>
 4    1  0.2165211E+000  0.4195092E+02  0.7546771E-02  0.1494327E+00
         -2   -1    0    0    0  501 -0.00000000000E+00  0.00000000000E+00  0.44144278496E+01  0.44144278496E+01  0.00000000000E+00 0.  1.
          2   -1    0    0  501    0  0.00000000000E+00 -0.00000000000E+00 -0.99666366503E+02  0.99666366503E+02  0.00000000000E+00 0. -1.
        -11    1    1    2    0    0 -0.11877715177E+02 -0.11512368547E+02 -0.79625773181E+02  0.81325755465E+02  0.00000000000E+00 0. -1.
         11    1    1    2    0    0  0.11877715177E+02  0.11512368547E+02 -0.15626165473E+02  0.22755038888E+02  0.00000000000E+00 0.  1.
<mgrwt>
<rscale>  0 0.41950923E+02</rscale>
<asrwt>0</asrwt>
<pdfrwt beam="2">  1        2 0.15333285E-01 0.41950923E+02</pdfrwt>
<pdfrwt beam="1">  1       -2 0.67914284E-03 0.41950923E+02</pdfrwt>
<totfact> 0.92833465E+05</totfact>
</mgrwt>
</event>
<event>
 4    1  0.2165211E+000  0.2932955E+02  0.7546771E-02  0.1605620E+00
          2   -1    0    0  501    0  0.00000000000E+00  0.00000000000E+00  0.68836316966E+02  0.68836316966E+02  0.00000000000E+00 0. -1.
         -2   -1    0    0    0  501 -0.00000000000E+00 -0.00000000000E+00 -0.31241588722E+01  0.31241588722E+01  0.00000000000E+00 0.  1.
        -11    1    1    2    0    0  0.35873281681E-01 -0.10549328356E+02  0.78632080515E+01  0.13157494310E+02  0.00000000000E+00 0.  1.
         11    1    1    2    0    0 -0.35873281681E-01  0.10549328356E+02  0.57848950042E+02  0.58802981529E+02  0.00000000000E+00 0. -1.
<mgrwt>
<rscale>  0 0.29329548E+02</rscale>
<asrwt>0</asrwt>
<pdfrwt beam="1">  1        2 0.10590201E-01 0.29329548E+02</pdfrwt>
<pdfrwt beam="2">  1       -2 0.48063988E-03 0.29329548E+02</pdfrwt>
<totfact> 0.20317919E+06</totfact>
</mgrwt>
</event>
<event>
 4    1  0.2165211E+000  0.3394202E+02  0.7546771E-02  0.1558202E+00
         -2   -1    0    0    0  501 -0.00000000000E+00  0.00000000000E+00  0.27598097076E+01  0.27598097076E+01  0.00000000000E+00 0.  1.
          2   -1    0    0  501    0  0.00000000000E+00 -0.00000000000E+00 -0.10436049299E+03  0.10436049299E+03  0.00000000000E+00 0. -1.
        -11    1    1    2    0    0 -0.13396446122E+02 -0.60791571525E+01 -0.77504139334E+02  0.78887974586E+02  0.00000000000E+00 0. -1.
         11    1    1    2    0    0  0.13396446122E+02  0.60791571525E+01 -0.24096543952E+02  0.28232328115E+02  0.00000000000E+00 0.  1.
<mgrwt>
<rscale>  0 0.33942015E+02</rscale>
<asrwt>0</asrwt>
<pdfrwt beam="2">  1        2 0.16055457E-01 0.33942015E+02</pdfrwt>
<pdfrwt beam="1">  1       -2 0.42458619E-03 0.33942015E+02</pdfrwt>
<totfact> 0.15738297E+06</totfact>
</mgrwt>
</event>
<event>
 4    1  0.2165211E+000  0.2046330E+02  0.7546771E-02  0.1736269E+00
         -1   -1    0    0    0  501 -0.00000000000E+00  0.00000000000E+00  0.98702043783E+02  0.98702043783E+02  0.00000000000E+00 0.  1.
          1   -1    0    0  501    0  0.00000000000E+00 -0.00000000000E+00 -0.10606332958E+01  0.10606332958E+01  0.00000000000E+00 0. -1.
        -13    1    1    2    0    0 -0.86170475731E+01  0.55133858004E+01  0.49742390576E+02  0.50783425959E+02  0.00000000000E+00 0.  1.
         13    1    1    2    0    0  0.86170475731E+01 -0.55133858004E+01  0.47899019911E+02  0.48979251120E+02  0.00000000000E+00 0. -1.
<mgrwt>
<rscale>  0 0.20463301E+02</rscale>
<asrwt>0</asrwt>
<pdfrwt beam="2">  1        1 0.16317443E-03 0.20463301E+02</pdfrwt>
<pdfrwt beam="1">  1       -1 0.15184923E-01 0.20463301E+02</pdfrwt>
<totfact> 0.30371909E+06</totfact>
</mgrwt>
</event>
<event>
 4    1  0.2165211E+000  0.2485145E+02  0.7546771E-02  0.1663145E+00
          2   -1    0    0  501    0  0.00000000000E+00  0.00000000000E+00  0.12783006766E+02  0.12783006766E+02  0.00000000000E+00 0.  1.
         -2   -1    0    0    0  501 -0.00000000000E+00 -0.00000000000E+00 -0.12078427855E+02  0.12078427855E+02  0.00000000000E+00 0. -1.
        -13    1    1    2    0    0  0.80755753457E+01 -0.65188150699E+01  0.71879523365E+01  0.12624441606E+02  0.00000000000E+00 0.  1.
         13    1    1    2    0    0 -0.80755753457E+01  0.65188150699E+01 -0.64833734246E+01  0.12236993015E+02  0.00000000000E+00 0. -1.
<mgrwt>
<rscale>  0 0.24851449E+02</rscale>
<asrwt>0</asrwt>
<pdfrwt beam="1">  1        2 0.19666164E-02 0.24851449E+02</pdfrwt>
<pdfrwt beam="2">  1       -2 0.18582197E-02 0.24851449E+02</pdfrwt>
<totfact> 0.24269317E+06</totfact>
</mgrwt>
</event>
<event>
 4    1  0.2165211E+000  0.4109013E+02  0.7546771E-02  0.1500339E+00
         -1   -1    0    0    0  501 -0.00000000000E+00  0.00000000000E+00  0.25918544371E+02  0.25918544371E+02  0.00000000000E+00 0. -1.
          1   -1    0    0  501    0  0.00000000000E+00 -0.00000000000E+00 -0.16285626616E+02  0.16285626616E+02  0.00000000000E+00 0.  1.
        -13    1    1    2    0    0  0.34623960363E+01 -0.16086767432E+02  0.17451501580E+02  0.23985978823E+02  0.00000000000E+00 0. -1.
         13    1    1    2    0    0 -0.34623960363E+01  0.16086767432E+02 -0.78185838245E+01  0.18218192164E+02  0.00000000000E+00 0.  1.
<mgrwt>
<rscale>  0 0.41090132E+02</rscale>
<asrwt>0</asrwt>
<pdfrwt beam="2">  1        1 0.25054810E-02 0.41090132E+02</pdfrwt>
<pdfrwt beam="1">  1       -1 0.39874684E-02 0.41090132E+02</pdfrwt>
<totfact> 0.69965785E+05</totfact>
</mgrwt>
</event>
<event>
 4    1  0.2165211E+000  0.4235223E+02  0.7546771E-02  0.1491582E+00
         -4   -1    0    0    0  501 -0.00000000000E+00  0.00000000000E+00  0.15557820917E+02  0.15557820917E+02  0.00000000000E+00 0.  1.
          4   -1    0    0  501    0  0.00000000000E+00 -0.00000000000E+00 -0.28823300591E+02  0.28823300591E+02  0.00000000000E+00 0. -1.
        -11    1    1    2    0    0 -0.12323987983E+02 -0.87603522260E+01 -0.22168737226E+02  0.26834257231E+02  0.00000000000E+00 0. -1.
         11    1    1    2    0    0  0.12323987983E+02  0.87603522260E+01  0.89032575516E+01  0.17546864277E+02  0.00000000000E+00 0.  1.
<mgrwt>
<rscale>  0 0.42352225E+02</rscale>
<asrwt>0</asrwt>
<pdfrwt beam="2">  1        4 0.44343539E-02 0.42352225E+02</pdfrwt>
<pdfrwt beam="1">  1       -4 0.23935109E-02 0.42352225E+02</pdfrwt>
<totfact> 0.22055704E+05</totfact>
</mgrwt>
</event>
<event>
 4    1  0.2165211E+000  0.5753445E+02  0.7546771E-02  0.1408480E+00
         -2   -1    0    0    0  501 -0.00000000000E+00  0.00000000000E+00  0.40363078115E+02  0.40363078115E+02  0.00000000000E+00 0.  1.
          2   -1    0    0  501    0  0.00000000000E+00 -0.00000000000E+00 -0.20502730194E+02  0.20502730194E+02  0.00000000000E+00 0. -1.
        -13    1    1    2    0    0  0.23447802780E+02 -0.49833591789E+01 -0.68941250041E+01  0.24943181102E+02  0.00000000000E+00 0. -1.
         13    1    1    2    0    0 -0.23447802780E+02  0.49833591789E+01  0.26754472926E+02  0.35922627207E+02  0.00000000000E+00 0.  1.
<mgrwt>
<rscale>  0 0.57534452E+02</rscale>
<asrwt>0</asrwt>
<pdfrwt beam="2">  1        2 0.31542662E-02 0.57534452E+02</pdfrwt>
<pdfrwt beam="1">  1       -2 0.62097043E-02 0.57534452E+02</pdfrwt>
<totfact> 0.30247901E+05</totfact>
</mgrwt>
</event>
<event>
 4    1  0.2165211E+000  0.2698407E+02  0.7546771E-02  0.1634037E+00
          1   -1    0    0  501    0  0.00000000000E+00  0.00000000000E+00  0.19480207794E+01  0.19480207794E+01  0.00000000000E+00 0. -1.
         -1   -1    0    0    0  501 -0.00000000000E+00 -0.00000000000E+00 -0.93446118594E+02  0.93446118594E+02  0.00000000000E+00 0.  1.
        -13    1    1    2    0    0 -0.37652766764E+01 -0.12754607080E+02 -0.37704874476E+02  0.39981431559E+02  0.00000000000E+00 0. -1.
         13    1    1    2    0    0  0.37652766764E+01  0.12754607080E+02 -0.53793223339E+02  0.55412707815E+02  0.00000000000E+00 0.  1.
<mgrwt>
<rscale>  0 0.26984068E+02</rscale>
<asrwt>0</asrwt>
<pdfrwt beam="1">  1        1 0.29969550E-03 0.26984068E+02</pdfrwt>
<pdfrwt beam="2">  1       -1 0.14376326E-01 0.26984068E+02</pdfrwt>
<totfact> 0.16442251E+06</totfact>
</mgrwt>
</event>
<event>
 4    1  0.2165211E+000  0.2437739E+02  0.7546771E-02  0.1670109E+00
          4   -1    0    0  501    0  0.00000000000E+00  0.00000000000E+00  0.24090003607E+02  0.24090003607E+02  0.00000000000E+00 0.  1.
         -4   -1    0    0    0  501 -0.00000000000E+00 -0.00000000000E+00 -0.61670534835E+01  0.61670534835E+01  0.00000000000E+00 0. -1.
        -13    1    1    2    0    0  0.10894927144E+02 -0.27303100614E+01  0.30857247454E+01  0.11647992433E+02  0.00000000000E+00 0. -1.
         13    1    1    2    0    0 -0.10894927144E+02  0.27303100614E+01  0.14837225379E+02  0.18609064658E+02  0.00000000000E+00 0.  1.
<mgrwt>
<rscale>  0 0.24377395E+02</rscale>
<asrwt>0</asrwt>
<pdfrwt beam="1">  1        4 0.37061543E-02 0.24377395E+02</pdfrwt>
<pdfrwt beam="2">  1       -4 0.94877748E-03 0.24377395E+02</pdfrwt>
<totfact> 0.82196440E+05</totfact>
</mgrwt>
</event>
<event>
 4    1  0.2165211E+000  0.4482980E+02  0.7546771E-02  0.1475407E+00
         -2   -1    0    0    0  501 -0.00000000000E+00  0.00000000000E+00  0.39321125855E+02  0.39321125855E+02  0.00000000000E+00 0. -1.
          2   -1    0    0  501    0  0.00000000000E+00 -0.00000000000E+00 -0.12777553799E+02  0.12777553799E+02  0.00000000000E+00 0.  1.
        -11    1    1    2    0    0 -0.44708062877E+01  0.17468385501E+02 -0.22024201594E+01  0.18165441240E+02  0.00000000000E+00 0.  1.
         11    1    1    2    0    0  0.44708062877E+01 -0.17468385501E+02  0.28745992216E+02  0.33933238415E+02  0.00000000000E+00 0. -1.
<mgrwt>
<rscale>  0 0.44829803E+02</rscale>
<asrwt>0</asrwt>
<pdfrwt beam="2">  1        2 0.19657775E-02 0.44829803E+02</pdfrwt>
<pdfrwt beam="1">  1       -2 0.60494039E-02 0.44829803E+02</pdfrwt>
<totfact> 0.55008674E+05</totfact>
</mgrwt>
</event>
<event>
 4    1  0.2165211E+000  0.2293232E+02  0.7546771E-02  0.1692609E+00
         -1   -1    0    0    0  501 -0.00000000000E+00  0.00000000000E+00  0.43342373447E+02  0.43342373447E+02  0.00000000000E+00 0.  1.
          1   -1    0    0  501    0  0.00000000000E+00 -0.00000000000E+00 -0.30333564557E+01  0.30333564557E+01  0.00000000000E+00 0. -1.
        -11    1    1    2    0    0 -0.95268273194E+01  0.63043138374E+01  0.18164783476E+02  0.21458428891E+02  0.00000000000E+00 0. -1.
         11    1    1    2    0    0  0.95268273194E+01 -0.63043138374E+01  0.22144233516E+02  0.24917301012E+02  0.00000000000E+00 0.  1.
<mgrwt>
<rscale>  0 0.22932324E+02</rscale>
<asrwt>0</asrwt>
<pdfrwt beam="2">  1        1 0.46667025E-03 0.22932324E+02</pdfrwt>
<pdfrwt beam="1">  1       -1 0.66680570E-02 0.22932324E+02</pdfrwt>
<totfact> 0.26121005E+06</totfact>
</mgrwt>
</event>
<event>
 4    1  0.2165211E+000  0.2363746E+02  0.7546771E-02  0.1681381E+00
          2   -1    0    0  501    0  0.00000000000E+00  0.00000000000E+00  0.21826351556E+01  0.21826351556E+01  0.00000000000E+00 0. -1.
         -2   -1    0    0    0  501 -0.00000000000E+00 -0.00000000000E+00 -0.63997130888E+02  0.63997130888E+02  0.00000000000E+00 0.  1.
        -13    1    1    2    0    0  0.10386473887E+02  0.46269696374E+01 -0.39933976451E+02  0.41521201368E+02  0.00000000000E+00 0.  1.
         13    1    1    2    0    0 -0.10386473887E+02 -0.46269696374E+01 -0.21880519281E+02  0.24658564675E+02  0.00000000000E+00 0. -1.
<mgrwt>
<rscale>  0 0.23637461E+02</rscale>
<asrwt>0</asrwt>
<pdfrwt beam="1">  1        2 0.33579003E-03 0.23637461E+02</pdfrwt>
<pdfrwt beam="2">  1       -2 0.98457123E-02 0.23637461E+02</pdfrwt>
<totfact> 0.22517801E+06</totfact>
</mgrwt>
</event>
<event>
 4    1  0.2165211E+000  0.2192859E+02  0.7546771E-02  0.1709490E+00
         -4   -1    0    0    0  501 -0.00000000000E+00  0.00000000000E+00  0.46157886040E+01  0.46157886040E+01  0.00000000000E+00 0. -1.
          4   -1    0    0  501    0  0.00000000000E+00 -0.00000000000E+00 -0.26044471015E+02  0.26044471015E+02  0.00000000000E+00 0.  1.
        -11    1    1    2    0    0 -0.42706747405E+01  0.97765003865E+01 -0.14250716699E+02  0.17801728820E+02  0.00000000000E+00 0. -1.
         11    1    1    2    0    0  0.42706747405E+01 -0.97765003865E+01 -0.71779657119E+01  0.12858530799E+02  0.00000000000E+00 0.  1.
<mgrwt>
<rscale>  0 0.21928591E+02</rscale>
<asrwt>0</asrwt>
<pdfrwt beam="2">  1        4 0.40068417E-02 0.21928591E+02</pdfrwt>
<pdfrwt beam="1">  1       -4 0.71012132E-03 0.21928591E+02</pdfrwt>
<totfact> 0.10270149E+06</totfact>
</mgrwt>
</event>
<event>
 4    1  0.2165211E+000  0.3942735E+02  0.7546771E-02  0.1512468E+00
         -2   -1    0    0    0  501 -0.00000000000E+00  0.00000000000E+00  0.29390465585E+01  0.29390465585E+01  0.00000000000E+00 0. -1.
          2   -1    0    0  501    0  0.00000000000E+00 -0.00000000000E+00 -0.13222963203E+03  0.13222963203E+03  0.00000000000E+00 0.  1.
        -11    1    1    2    0    0  0.81750477950E+01  0.17374727125E+02 -0.79945062993E+02  0.82218766994E+02  0.00000000000E+00 0.  1.
         11    1    1    2    0    0 -0.81750477950E+01 -0.17374727125E+02 -0.49345522474E+02  0.52949911590E+02  0.00000000000E+00 0. -1.
<mgrwt>
<rscale>  0 0.39427353E+02</rscale>
<asrwt>0</asrwt>
<pdfrwt beam="2">  1        2 0.20343020E-01 0.39427353E+02</pdfrwt>
<pdfrwt beam="1">  1       -2 0.45216102E-03 0.39427353E+02</pdfrwt>
<totfact> 0.11661237E+06</totfact>
</mgrwt>
</event>
<event>
 4    1  0.2165211E+000  0.3979080E+02  0.7546771E-02  0.1509757E+00
         -2   -1    0    0    0  501 -0.00000000000E+00  0.00000000000E+00  0.36801904373E+02  0.36801904373E+02  0.00000000000E+00 0. -1.
          2   -1    0    0  501    0  0.00000000000E+00 -0.00000000000E+00 -0.10755610308E+02  0.10755610308E+02  0.00000000000E+00 0.  1.
        -13    1    1    2    0    0 -0.51523163904E+01 -0.10189309695E+02  0.32496235409E+02  0.34443776099E+02  0.00000000000E+00 0. -1.
         13    1    1    2    0    0  0.51523163904E+01  0.10189309695E+02 -0.64499413439E+01  0.13113738582E+02  0.00000000000E+00 0.  1.
<mgrwt>
<rscale>  0 0.39790800E+02</rscale>
<asrwt>0</asrwt>
<pdfrwt beam="2">  1        2 0.16547093E-02 0.39790800E+02</pdfrwt>
<pdfrwt beam="1">  1       -2 0.56618314E-02 0.39790800E+02</pdfrwt>
<totfact> 0.73592711E+05</totfact>
</mgrwt>
</event>
<event>
 4    1  0.2165211E+000  0.3134860E+02  0.7546771E-02  0.1583643E+00
          1   -1    0    0  501    0  0.00000000000E+00  0.00000000000E+00  0.29839186966E+02  0.29839186966E+02  0.00000000000E+00 0. -1.
         -1   -1    0    0    0  501 -0.00000000000E+00 -0.00000000000E+00 -0.82335899113E+01  0.82335899113E+01  0.00000000000E+00 0.  1.
        -11    1    1    2    0    0 -0.15468013922E+02  0.23792403316E+01  0.11863930843E+02  0.19638561411E+02  0.00000000000E+00 0. -1.
         11    1    1    2    0    0  0.15468013922E+02 -0.23792403316E+01  0.97416662116E+01  0.18434215466E+02  0.00000000000E+00 0.  1.
<mgrwt>
<rscale>  0 0.31348597E+02</rscale>
<asrwt>0</asrwt>
<pdfrwt beam="1">  1        1 0.45906441E-02 0.31348597E+02</pdfrwt>
<pdfrwt beam="2">  1       -1 0.12667062E-02 0.31348597E+02</pdfrwt>
<totfact> 0.14246550E+06</totfact>
</mgrwt>
</event>
<event>
 4    1  0.2165211E+000  0.2217124E+02  0.7546771E-02  0.1705307E+00
         -2   -1    0    0    0  501 -0.00000000000E+00  0.00000000000E+00  0.55832537302E+02  0.55832537302E+02  0.00000000000E+00 0. -1.
          2   -1    0    0  501    0  0.00000000000E+00 -0.00000000000E+00 -0.22010641853E+01  0.22010641853E+01  0.00000000000E+00 0.  1.
        -11    1    1    2    0    0 -0.26489321047E+01  0.10671108403E+02  0.30518947029E+02  0.32439104852E+02  0.00000000000E+00 0. -1.
         11    1    1    2    0    0  0.26489321047E+01 -0.10671108403E+02  0.23112526087E+02  0.25594496635E+02  0.00000000000E+00 0.  1.
<mgrwt>
<rscale>  0 0.22171242E+02</rscale>
<asrwt>0</asrwt>
<pdfrwt beam="2">  1        2 0.33862530E-03 0.22171242E+02</pdfrwt>
<pdfrwt beam="1">  1       -2 0.85896201E-02 0.22171242E+02</pdfrwt>
<totfact> 0.26566239E+06</totfact>
</mgrwt>
</event>
<event>
 4    1  0.2165211E+000  0.2106210E+02  0.7546771E-02  0.1724996E+00
         -2   -1    0    0    0  501 -0.00000000000E+00  0.00000000000E+00  0.18149336121E+02  0.18149336121E+02  0.00000000000E+00 0. -1.
          2   -1    0    0  501    0  0.00000000000E+00 -0.00000000000E+00 -0.61105806270E+01  0.61105806270E+01  0.00000000000E+00 0.  1.
        -13    1    1    2    0    0  0.89014328962E+00  0.10356035219E+02  0.79683721684E+01  0.13097128523E+02  0.00000000000E+00 0.  1.
         13    1    1    2    0    0 -0.89014328962E+00 -0.10356035219E+02  0.40703833251E+01  0.11162788225E+02  0.00000000000E+00 0. -1.
<mgrwt>
<rscale>  0 0.21062097E+02</rscale>
<asrwt>0</asrwt>
<pdfrwt beam="2">  1        2 0.94008934E-03 0.21062097E+02</pdfrwt>
<pdfrwt beam="1">  1       -2 0.27922055E-02 0.21062097E+02</pdfrwt>
<totfact> 0.33712675E+06</totfact>
</mgrwt>
</event>
<event>
 4    1  0.2165211E+000  0.3184159E+02  0.7546771E-02  0.1578581E+00
         -2   -1    0    0    0  501 -0.00000000000E+00  0.00000000000E+00  0.36277513165E+01  0.36277513165E+01  0.00000000000E+00 0.  1.
          2   -1    0    0  501    0  0.00000000000E+00 -0.00000000000E+00 -0.69870205857E+02  0.69870205857E+02  0.00000000000E+00 0. -1.
        -11    1    1    2    0    0  0.14365074866E+02  0.52859352351E+01 -0.43228895011E+02  0.45858847032E+02  0.00000000000E+00 0. -1.
         11    1    1    2    0    0 -0.14365074866E+02 -0.52859352351E+01 -0.23013559529E+02  0.27639110141E+02  0.00000000000E+00 0.  1.
<mgrwt>
<rscale>  0 0.31841591E+02</rscale>
<asrwt>0</asrwt>
<pdfrwt beam="2">  1        2 0.10749261E-01 0.31841591E+02</pdfrwt>
<pdfrwt beam="1">  1       -2 0.55811564E-03 0.31841591E+02</pdfrwt>
<totfact> 0.16759245E+06</totfact>
</mgrwt>
</event>
<event>
 4    1  0.2165211E+000  0.3068840E+02  0.7546771E-02  0.1590602E+00
         -2   -1    0    0    0  501 -0.00000000000E+00  0.00000000000E+00  0.55045192420E+01  0.55045192420E+01  0.00000000000E+00 0.  1.
          2   -1    0    0  501    0  0.00000000000E+00 -0.00000000000E+00 -0.42772943373E+02  0.42772943373E+02  0.00000000000E+00 0. -1.
        -13    1    1    2    0    0 -0.14063548703E+02 -0.26360320770E+01 -0.27352419791E+02  0.30868866770E+02  0.00000000000E+00 0.  1.
         13    1    1    2    0    0  0.14063548703E+02  0.26360320770E+01 -0.99160043405E+01  0.17408595846E+02  0.00000000000E+00 0. -1.
<mgrwt>
<rscale>  0 0.30688401E+02</rscale>
<asrwt>0</asrwt>
<pdfrwt beam="2">  1        2 0.65804527E-02 0.30688401E+02</pdfrwt>
<pdfrwt beam="1">  1       -2 0.84684913E-03 0.30688401E+02</pdfrwt>
<totfact> 0.16805130E+06</totfact>
</mgrwt>
</event>
<event>
 4    1  0.2165211E+000  0.3960276E+02  0.7546771E-02  0.1511155E+00
         -2   -1    0    0    0  501 -0.00000000000E+00  0.00000000000E+00  0.59942653752E+01  0.59942653752E+01  0.00000000000E+00 0. -1.
          2   -1    0    0  501    0  0.00000000000E+00 -0.00000000000E+00 -0.65411620933E+02  0.65411620933E+02  0.00000000000E+00 0.  1.
        -13    1    1    2    0    0 -0.19530481798E+02 -0.22322539285E+01 -0.25414556533E+02  0.32129773741E+02  0.00000000000E+00 0. -1.
         13    1    1    2    0    0  0.19530481798E+02  0.22322539285E+01 -0.34002799024E+02  0.39276112567E+02  0.00000000000E+00 0.  1.
<mgrwt>
<rscale>  0 0.39602758E+02</rscale>
<asrwt>0</asrwt>
<pdfrwt beam="2">  1        2 0.10063326E-01 0.39602758E+02</pdfrwt>
<pdfrwt beam="1">  1       -2 0.92219471E-03 0.39602758E+02</pdfrwt>
<totfact> 0.97297414E+05</totfact>
</mgrwt>
</event>
<event>
 4    1  0.2165211E+000  0.4314972E+02  0.7546771E-02  0.1486235E+00
          1   -1    0    0  501    0  0.00000000000E+00  0.00000000000E+00  0.24612989799E+02  0.24612989799E+02  0.00000000000E+00 0.  1.
         -1   -1    0    0    0  501 -0.00000000000E+00 -0.00000000000E+00 -0.18911744268E+02  0.18911744268E+02  0.00000000000E+00 0. -1.
        -11    1    1    2    0    0 -0.63354758204E+01 -0.17569002684E+02  0.13745721264E+02  0.23189501121E+02  0.00000000000E+00 0.  1.
         11    1    1    2    0    0  0.63354758204E+01  0.17569002684E+02 -0.80444757321E+01  0.20335232946E+02  0.00000000000E+00 0. -1.
<mgrwt>
<rscale>  0 0.43149719E+02</rscale>
<asrwt>0</asrwt>
<pdfrwt beam="1">  1        1 0.37866138E-02 0.43149719E+02</pdfrwt>
<pdfrwt beam="2">  1       -1 0.29094991E-02 0.43149719E+02</pdfrwt>
<totfact> 0.63808182E+05</totfact>
</mgrwt>
</event>
<event>
 4    1  0.2165211E+000  0.2169127E+02  0.7546771E-02  0.1713647E+00
          4   -1    0    0  501    0  0.00000000000E+00  0.00000000000E+00  0.26593391827E+01  0.26593391827E+01  0.00000000000E+00 0.  1.
         -4   -1    0    0    0  501 -0.00000000000E+00 -0.00000000000E+00 -0.44231960929E+02  0.44231960929E+02  0.00000000000E+00 0. -1.
        -13    1    1    2    0    0  0.10794976597E+02  0.10332231659E+01 -0.21152644517E+02  0.23770432051E+02  0.00000000000E+00 0.  1.
         13    1    1    2    0    0 -0.10794976597E+02 -0.10332231659E+01 -0.20419977229E+02  0.23120868061E+02  0.00000000000E+00 0. -1.
<mgrwt>
<rscale>  0 0.21691269E+02</rscale>
<asrwt>0</asrwt>
<pdfrwt beam="1">  1        4 0.40912913E-03 0.21691269E+02</pdfrwt>
<pdfrwt beam="2">  1       -4 0.68049167E-02 0.21691269E+02</pdfrwt>
<totfact> 0.98661890E+05</totfact>
</mgrwt>
</event>
<event>
 4    1  0.2165211E+000  0.4310942E+02  0.7546771E-02  0.1486501E+00
          4   -1    0    0  501    0  0.00000000000E+00  0.00000000000E+00  0.12289524622E+03  0.12289524622E+03  0.00000000000E+00 0.  1.
         -4   -1    0    0    0  501 -0.00000000000E+00 -0.00000000000E+00 -0.37805000428E+01  0.37805000428E+01  0.00000000000E+00 0. -1.
        -13    1    1    2    0    0 -0.19806683275E+02  0.53452194682E+01  0.78988953290E+02  0.81609624526E+02  0.00000000000E+00 0.  1.
         13    1    1    2    0    0  0.19806683275E+02 -0.53452194682E+01  0.40125792884E+02  0.45066121734E+02  0.00000000000E+00 0. -1.
<mgrwt>
<rscale>  0 0.43109418E+02</rscale>
<asrwt>0</asrwt>
<pdfrwt beam="1">  1        4 0.18906958E-01 0.43109418E+02</pdfrwt>
<pdfrwt beam="2">  1       -4 0.58161548E-03 0.43109418E+02</pdfrwt>
<totfact> 0.16781811E+05</totfact>
</mgrwt>
</event>
<event>
 4    1  0.2165211E+000  0.3955729E+02  0.7546771E-02  0.1511495E+00
          2   -1    0    0  501    0  0.00000000000E+00  0.00000000000E+00  0.30941229371E+02  0.30941229371E+02  0.00000000000E+00 0. -1.
         -2   -1    0    0    0  501 -0.00000000000E+00 -0.00000000000E+00 -0.12643154978E+02  0.12643154978E+02  0.00000000000E+00 0.  1.
        -13    1    1    2    0    0 -0.14438662436E+01  0.19589825234E+02  0.11697221221E+02  0.22861998747E+02  0.00000000000E+00 0.  1.
         13    1    1    2    0    0  0.14438662436E+01 -0.19589825234E+02  0.66008531715E+01  0.20722385602E+02  0.00000000000E+00 0. -1.
<mgrwt>
<rscale>  0 0.39557288E+02</rscale>
<asrwt>0</asrwt>
<pdfrwt beam="1">  1        2 0.47601891E-02 0.39557288E+02</pdfrwt>
<pdfrwt beam="2">  1       -2 0.19451008E-02 0.39557288E+02</pdfrwt>
<totfact> 0.86003406E+05</totfact>
</mgrwt>
</event>
<event>
 4    1  0.2165211E+000  0.5537802E+02  0.7546771E-02  0.1418320E+00
          2   -1    0    0  501    0  0.00000000000E+00  0.00000000000E+00  0.29389660086E+02  0.29389660086E+02  0.00000000000E+00 0.  1.
         -2   -1    0    0    0  501 -0.00000000000E+00 -0.00000000000E+00 -0.26086773141E+02  0.26086773141E+02  0.00000000000E+00 0. -1.
        -13    1    1    2    0    0 -0.16722561831E+02  0.64104362445E+01  0.22806347264E+02  0.28997710988E+02  0.00000000000E+00 0.  1.
         13    1    1    2    0    0  0.16722561831E+02 -0.64104362445E+01 -0.19503460318E+02  0.26478722239E+02  0.00000000000E+00 0. -1.
<mgrwt>
<rscale>  0 0.55378024E+02</rscale>
<asrwt>0</asrwt>
<pdfrwt beam="1">  1        2 0.45214862E-02 0.55378024E+02</pdfrwt>
<pdfrwt beam="2">  1       -2 0.40133497E-02 0.55378024E+02</pdfrwt>
<totfact> 0.35711182E+05</totfact>
</mgrwt>
</event>
<event>
 4    1  0.2165211E+000  0.2068013E+02  0.7546771E-02  0.1732132E+00
         -4   -1    0    0    0  501 -0.00000000000E+00  0.00000000000E+00  0.10808732266E+02  0.10808732266E+02  0.00000000000E+00 0.  1.
          4   -1    0    0  501    0  0.00000000000E+00 -0.00000000000E+00 -0.98917187598E+01  0.98917187598E+01  0.00000000000E+00 0. -1.
        -11    1    1    2    0    0  0.42589820867E+01 -0.92014392749E+01  0.24881892355E+01  0.10440138831E+02  0.00000000000E+00 0. -1.
         11    1    1    2    0    0 -0.42589820867E+01  0.92014392749E+01 -0.15711757297E+01  0.10260312194E+02  0.00000000000E+00 0.  1.
<mgrwt>
<rscale>  0 0.20680130E+02</rscale>
<asrwt>0</asrwt>
<pdfrwt beam="2">  1        4 0.15218029E-02 0.20680130E+02</pdfrwt>
<pdfrwt beam="1">  1       -4 0.16628819E-02 0.20680130E+02</pdfrwt>
<totfact> 0.12110039E+06</totfact>
</mgrwt>
</event>
<event>
 4    1  0.2165211E+000  0.3037285E+02  0.7546771E-02  0.1594004E+00
         -4   -1    0    0    0  501 -0.00000000000E+00  0.00000000000E+00  0.25755830129E+01  0.25755830129E+01  0.00000000000E+00 0. -1.
          4   -1    0    0  501    0  0.00000000000E+00 -0.00000000000E+00 -0.89543803698E+02  0.89543803698E+02  0.00000000000E+00 0.  1.
        -11    1    1    2    0    0  0.98181385459E+01  0.89268978272E+01 -0.65883264836E+02  0.67206323622E+02  0.00000000000E+00 0.  1.
         11    1    1    2    0    0 -0.98181385459E+01 -0.89268978272E+01 -0.21084955850E+02  0.24913063090E+02  0.00000000000E+00 0. -1.
<mgrwt>
<rscale>  0 0.30372850E+02</rscale>
<asrwt>0</asrwt>
<pdfrwt beam="2">  1        4 0.13775970E-01 0.30372850E+02</pdfrwt>
<pdfrwt beam="1">  1       -4 0.39624353E-03 0.30372850E+02</pdfrwt>
<totfact> 0.41328492E+05</totfact>
</mgrwt>
</event>
<event>
 4    1  0.2165211E+000  0.2392354E+02  0.7546771E-02  0.1676963E+00
         -4   -1    0    0    0  501 -0.00000000000E+00  0.00000000000E+00  0.23740278770E+02  0.23740278770E+02  0.00000000000E+00 0.  1.
          4   -1    0    0  501    0  0.00000000000E+00 -0.00000000000E+00 -0.60270522137E+01  0.60270522137E+01  0.00000000000E+00 0. -1.
        -13    1    1    2    0    0 -0.63927701868E+01  0.86707183000E+01  0.15326221326E+02  0.18733444068E+02  0.00000000000E+00 0.  1.
         13    1    1    2    0    0  0.63927701868E+01 -0.86707183000E+01  0.23870052295E+01  0.11033886915E+02  0.00000000000E+00 0. -1.
<mgrwt>
<rscale>  0 0.23923537E+02</rscale>
<asrwt>0</asrwt>
<pdfrwt beam="2">  1        4 0.92723882E-03 0.23923537E+02</pdfrwt>
<pdfrwt beam="1">  1       -4 0.36523505E-02 0.23923537E+02</pdfrwt>
<totfact> 0.85741013E+05</totfact>
</mgrwt>
</event>
<event>
 4    1  0.2165211E+000  0.2159949E+02  0.7546771E-02  0.1715272E+00
         -2   -1    0    0    0  501 -0.00000000000E+00  0.00000000000E+00  0.69632975173E+01  0.69632975173E+01  0.00000000000E+00 0.  1.
          2   -1    0    0  501    0  0.00000000000E+00 -0.00000000000E+00 -0.16749901138E+02  0.16749901138E+02  0.00000000000E+00 0. -1.
        -13    1    1    2    0    0  0.13750660039E+01  0.10332440656E+02 -0.17911151880E+01  0.10576305122E+02  0.00000000000E+00 0.  1.
         13    1    1    2    0    0 -0.13750660039E+01 -0.10332440656E+02 -0.79954884323E+01  0.13136893533E+02  0.00000000000E+00 0. -1.
<mgrwt>
<rscale>  0 0.21599495E+02</rscale>
<asrwt>0</asrwt>
<pdfrwt beam="2">  1        2 0.25769079E-02 0.21599495E+02</pdfrwt>
<pdfrwt beam="1">  1       -2 0.10712765E-02 0.21599495E+02</pdfrwt>
<totfact> 0.34447566E+06</totfact>
</mgrwt>
</event>
<event>
 4    1  0.2165211E+000  0.2758914E+02  0.7546771E-02  0.1626376E+00
          2   -1    0    0  501    0  0.00000000000E+00  0.00000000000E+00  0.62160327629E+01  0.62160327629E+01  0.00000000000E+00 0.  1.
         -2   -1    0    0    0  501 -0.00000000000E+00 -0.00000000000E+00 -0.30612789340E+02  0.30612789340E+02  0.00000000000E+00 0. -1.
        -11    1    1    2    0    0  0.43134782215E+01  0.10227996014E+02 -0.23130908890E+02  0.25656518527E+02  0.00000000000E+00 0. -1.
         11    1    1    2    0    0 -0.43134782215E+01 -0.10227996014E+02 -0.12658476865E+01  0.11172303576E+02  0.00000000000E+00 0.  1.
<mgrwt>
<rscale>  0 0.27589136E+02</rscale>
<asrwt>0</asrwt>
<pdfrwt beam="1">  1        2 0.95631272E-03 0.27589136E+02</pdfrwt>
<pdfrwt beam="2">  1       -2 0.47096599E-02 0.27589136E+02</pdfrwt>
<totfact> 0.17569397E+06</totfact>
</mgrwt>
</event>
<event>
 4    1  0.2165211E+000  0.2633746E+02  0.7546771E-02  0.1642503E+00
          2   -1    0    0  501    0  0.00000000000E+00  0.00000000000E+00  0.96930015979E+01  0.96930015979E+01  0.00000000000E+00 0. -1.
         -2   -1    0    0    0  501 -0.00000000000E+00 -0.00000000000E+00 -0.17890795223E+02  0.17890795223E+02  0.00000000000E+00 0.  1.
        -11    1    1    2    0    0 -0.11493242550E+02  0.63510596377E+01 -0.30594999291E+01  0.13482993831E+02  0.00000000000E+00 0. -1.
         11    1    1    2    0    0  0.11493242550E+02 -0.63510596377E+01 -0.51382936961E+01  0.14100802990E+02  0.00000000000E+00 0.  1.
<mgrwt>
<rscale>  0 0.26337464E+02</rscale>
<asrwt>0</asrwt>
<pdfrwt beam="1">  1        2 0.14912310E-02 0.26337464E+02</pdfrwt>
<pdfrwt beam="2">  1       -2 0.27524300E-02 0.26337464E+02</pdfrwt>
<totfact> 0.20596897E+06</totfact>
</mgrwt>
</event>
<event>
 4    1  0.2165211E+000  0.2233750E+02  0.7546771E-02  0.1702480E+00
          2   -1    0    0  501    0  0.00000000000E+00  0.00000000000E+00  0.72124713338E+01  0.72124713338E+01  0.00000000000E+00 0. -1.
         -2   -1    0    0    0  501 -0.00000000000E+00 -0.00000000000E+00 -0.17295170605E+02  0.17295170605E+02  0.00000000000E+00 0.  1.
        -11    1    1    2    0    0  0.71814886389E+01  0.81050424832E+01 -0.20415991653E+01  0.11019692368E+02  0.00000000000E+00 0. -1.
         11    1    1    2    0    0 -0.71814886389E+01 -0.81050424832E+01 -0.80411001061E+01  0.13487949571E+02  0.00000000000E+00 0.  1.
<mgrwt>
<rscale>  0 0.22337495E+02</rscale>
<asrwt>0</asrwt>
<pdfrwt beam="1">  1        2 0.11096110E-02 0.22337495E+02</pdfrwt>
<pdfrwt beam="2">  1       -2 0.26607955E-02 0.22337495E+02</pdfrwt>
<totfact> 0.29757793E+06</totfact>
</mgrwt>
</event>
<event>
 4    1  0.2165211E+000  0.4556166E+02  0.7546771E-02  0.1470866E+00
         -4   -1    0    0    0  501 -0.00000000000E+00  0.00000000000E+00  0.42017337660E+01  0.42017337660E+01  0.00000000000E+00 0. -1.
          4   -1    0    0  501    0  0.00000000000E+00 -0.00000000000E+00 -0.12351237469E+03  0.12351237469E+03  0.00000000000E+00 0.  1.
        -11    1    1    2    0    0  0.92830653532E+01 -0.20803184554E+02 -0.60034779503E+02  0.64211545223E+02  0.00000000000E+00 0. -1.
         11    1    1    2    0    0 -0.92830653532E+01  0.20803184554E+02 -0.59275861419E+02  0.63502563231E+02  0.00000000000E+00 0.  1.
<mgrwt>
<rscale>  0 0.45561656E+02</rscale>
<asrwt>0</asrwt>
<pdfrwt beam="2">  1        4 0.19001905E-01 0.45561656E+02</pdfrwt>
<pdfrwt beam="1">  1       -4 0.64642053E-03 0.45561656E+02</pdfrwt>
<totfact> 0.14653175E+05</totfact>
</mgrwt>
</event>
<event>
 4    1  0.2165211E+000  0.2717732E+02  0.7546771E-02  0.1631564E+00
         -2   -1    0    0    0  501 -0.00000000000E+00  0.00000000000E+00  0.29875876288E+01  0.29875876288E+01  0.00000000000E+00 0.  1.
          2   -1    0    0  501    0  0.00000000000E+00 -0.00000000000E+00 -0.61806292233E+02  0.61806292233E+02  0.00000000000E+00 0. -1.
        -13    1    1    2    0    0  0.50199367697E+01 -0.12460786176E+02 -0.24534575125E+02  0.27971705952E+02  0.00000000000E+00 0.  1.
         13    1    1    2    0    0 -0.50199367697E+01  0.12460786176E+02 -0.34284129479E+02  0.36822173910E+02  0.00000000000E+00 0. -1.
<mgrwt>
<rscale>  0 0.27177322E+02</rscale>
<asrwt>0</asrwt>
<pdfrwt beam="2">  1        2 0.95086605E-02 0.27177322E+02</pdfrwt>
<pdfrwt beam="1">  1       -2 0.45962886E-03 0.27177322E+02</pdfrwt>
<totfact> 0.23813853E+06</totfact>
</mgrwt>
</event>
<event>
 4    1  0.2165211E+000  0.2634134E+02  0.7546771E-02  0.1642451E+00
          2   -1    0    0  501    0  0.00000000000E+00  0.00000000000E+00  0.10148685478E+02  0.10148685478E+02  0.00000000000E+00 0.  1.
         -2   -1    0    0    0  501 -0.00000000000E+00 -0.00000000000E+00 -0.17092508981E+02  0.17092508981E+02  0.00000000000E+00 0. -1.
        -11    1    1    2    0    0  0.43836042329E+01  0.10904698233E+02 -0.96195704271E+01  0.15187645138E+02  0.00000000000E+00 0. -1.
         11    1    1    2    0    0 -0.43836042329E+01 -0.10904698233E+02  0.26757469242E+01  0.12053549321E+02  0.00000000000E+00 0.  1.
<mgrwt>
<rscale>  0 0.26341336E+02</rscale>
<asrwt>0</asrwt>
<pdfrwt beam="1">  1        2 0.15613362E-02 0.26341336E+02</pdfrwt>
<pdfrwt beam="2">  1       -2 0.26296167E-02 0.26341336E+02</pdfrwt>
<totfact> 0.20677559E+06</totfact>
</mgrwt>
</event>
<event>
 4    1  0.2165211E+000  0.2183889E+02  0.7546771E-02  0.1711053E+00
         -2   -1    0    0    0  501 -0.00000000000E+00  0.00000000000E+00  0.97137766084E+01  0.97137766084E+01  0.00000000000E+00 0. -1.
          2   -1    0    0  501    0  0.00000000000E+00 -0.00000000000E+00 -0.12274765314E+02  0.12274765314E+02  0.00000000000E+00 0.  1.
        -13    1    1    2    0    0  0.57482301417E+01 -0.92798696153E+01 -0.15584263409E+01  0.11026641488E+02  0.00000000000E+00 0. -1.
         13    1    1    2    0    0 -0.57482301417E+01  0.92798696153E+01 -0.10025623644E+01  0.10961900434E+02  0.00000000000E+00 0.  1.
<mgrwt>
<rscale>  0 0.21838894E+02</rscale>
<asrwt>0</asrwt>
<pdfrwt beam="2">  1        2 0.18884254E-02 0.21838894E+02</pdfrwt>
<pdfrwt beam="1">  1       -2 0.14944272E-02 0.21838894E+02</pdfrwt>
<totfact> 0.32737752E+06</totfact>
</mgrwt>
</event>
<event>
 4    1  0.2165211E+000  0.5671670E+02  0.7546771E-02  0.1412151E+00
          4   -1    0    0  501    0  0.00000000000E+00  0.00000000000E+00  0.84205297865E+01  0.84205297865E+01  0.00000000000E+00 0. -1.
         -4   -1    0    0    0  501 -0.00000000000E+00 -0.00000000000E+00 -0.95504223187E+02  0.95504223187E+02  0.00000000000E+00 0.  1.
        -13    1    1    2    0    0 -0.26267557530E+02 -0.23825128434E+01 -0.24452400283E+02  0.35966384662E+02  0.00000000000E+00 0. -1.
         13    1    1    2    0    0  0.26267557530E+02  0.23825128434E+01 -0.62631293118E+02  0.67958368312E+02  0.00000000000E+00 0.  1.
<mgrwt>
<rscale>  0 0.56716705E+02</rscale>
<asrwt>0</asrwt>
<pdfrwt beam="1">  1        4 0.12954662E-02 0.56716705E+02</pdfrwt>
<pdfrwt beam="2">  1       -4 0.14692956E-01 0.56716705E+02</pdfrwt>
<totfact> 0.90584284E+04</totfact>
</mgrwt>
</event>
<event>
 4    1  0.2165211E+000  0.3889378E+02  0.7546771E-02  0.1516513E+00
         -1   -1    0    0    0  501 -0.00000000000E+00  0.00000000000E+00  0.68835946490E+02  0.68835946490E+02  0.00000000000E+00 0.  1.
          1   -1    0    0  501    0  0.00000000000E+00 -0.00000000000E+00 -0.54939550638E+01  0.54939550638E+01  0.00000000000E+00 0. -1.
        -13    1    1    2    0    0  0.93160042551E+01  0.72167058036E+01  0.21067810160E+01  0.11971102881E+02  0.00000000000E+00 0. -1.
         13    1    1    2    0    0 -0.93160042551E+01 -0.72167058036E+01  0.61235210411E+02  0.62358798673E+02  0.00000000000E+00 0.  1.
<mgrwt>
<rscale>  0 0.38893783E+02</rscale>
<asrwt>0</asrwt>
<pdfrwt beam="2">  1        1 0.84522391E-03 0.38893783E+02</pdfrwt>
<pdfrwt beam="1">  1       -1 0.10590145E-01 0.38893783E+02</pdfrwt>
<totfact> 0.72542171E+05</totfact>
</mgrwt>
</event>
<event>
 4    1  0.2165211E+000  0.2477841E+02  0.7546771E-02  0.1664205E+00
         -1   -1    0    0    0  501 -0.00000000000E+00  0.00000000000E+00  0.19777275314E+02  0.19777275314E+02  0.00000000000E+00 0. -1.
          1   -1    0    0  501    0  0.00000000000E+00 -0.00000000000E+00 -0.77610489229E+01  0.77610489229E+01  0.00000000000E+00 0.  1.
        -11    1    1    2    0    0  0.71003335522E+01  0.75852254362E+01 -0.14920414307E+01  0.10496502708E+02  0.00000000000E+00 0.  1.
         11    1    1    2    0    0 -0.71003335522E+01 -0.75852254362E+01  0.13508267822E+02  0.17041821529E+02  0.00000000000E+00 0. -1.
<mgrwt>
<rscale>  0 0.24778410E+02</rscale>
<asrwt>0</asrwt>
<pdfrwt beam="2">  1        1 0.11940075E-02 0.24778410E+02</pdfrwt>
<pdfrwt beam="1">  1       -1 0.30426577E-02 0.24778410E+02</pdfrwt>
<totfact> 0.23201405E+06</totfact>
</mgrwt>
</event>
<event>
 4    1  0.2165211E+000  0.5594250E+02  0.7546771E-02  0.1415694E+00
          2   -1    0    0  501    0  0.00000000000E+00  0.00000000000E+00  0.35073831170E+01  0.35073831170E+01  0.00000000000E+00 0. -1.
         -2   -1    0    0    0  501 -0.00000000000E+00 -0.00000000000E+00 -0.22306970381E+03  0.22306970381E+03  0.00000000000E+00 0.  1.
        -13    1    1    2    0    0 -0.13345880519E+02  0.24104999676E+02 -0.12930090702E+03  0.13220396398E+03  0.00000000000E+00 0.  1.
         13    1    1    2    0    0  0.13345880519E+02 -0.24104999676E+02 -0.90261413675E+02  0.94373122948E+02  0.00000000000E+00 0. -1.
<mgrwt>
<rscale>  0 0.55942503E+02</rscale>
<asrwt>0</asrwt>
<pdfrwt beam="1">  1        2 0.53959751E-03 0.55942503E+02</pdfrwt>
<pdfrwt beam="2">  1       -2 0.34318409E-01 0.55942503E+02</pdfrwt>
<totfact> 0.20385802E+05</totfact>
</mgrwt>
</event>
<event>
 4    1  0.2165211E+000  0.3097381E+02  0.7546771E-02  0.1587567E+00
         -4   -1    0    0    0  501 -0.00000000000E+00  0.00000000000E+00  0.10562245035E+02  0.10562245035E+02  0.00000000000E+00 0. -1.
          4   -1    0    0  501    0  0.00000000000E+00 -0.00000000000E+00 -0.22707693877E+02  0.22707693877E+02  0.00000000000E+00 0.  1.
        -13    1    1    2    0    0 -0.14317398056E+02 -0.54479925377E+01 -0.85163948809E+01  0.17527050281E+02  0.00000000000E+00 0.  1.
         13    1    1    2    0    0  0.14317398056E+02  0.54479925377E+01 -0.36290539613E+01  0.15742888631E+02  0.00000000000E+00 0. -1.
<mgrwt>
<rscale>  0 0.30973810E+02</rscale>
<asrwt>0</asrwt>
<pdfrwt beam="2">  1        4 0.34934914E-02 0.30973810E+02</pdfrwt>
<pdfrwt beam="1">  1       -4 0.16249608E-02 0.30973810E+02</pdfrwt>
<totfact> 0.47790424E+05</totfact>
</mgrwt>
</event>
<event>
 4    1  0.2165211E+000  0.2170042E+02  0.7546771E-02  0.1713485E+00
         -2   -1    0    0    0  501 -0.00000000000E+00  0.00000000000E+00  0.68874581620E+01  0.68874581620E+01  0.00000000000E+00 0.  1.
          2   -1    0    0  501    0  0.00000000000E+00 -0.00000000000E+00 -0.17092968376E+02  0.17092968376E+02  0.00000000000E+00 0. -1.
        -11    1    1    2    0    0  0.99879758367E+01 -0.35649703496E+01 -0.25686961761E+01  0.10911776893E+02  0.00000000000E+00 0.  1.
         11    1    1    2    0    0 -0.99879758367E+01  0.35649703496E+01 -0.76368140380E+01  0.13068649646E+02  0.00000000000E+00 0. -1.
<mgrwt>
<rscale>  0 0.21700424E+02</rscale>
<asrwt>0</asrwt>
<pdfrwt beam="2">  1        2 0.26296874E-02 0.21700424E+02</pdfrwt>
<pdfrwt beam="1">  1       -2 0.10596090E-02 0.21700424E+02</pdfrwt>
<totfact> 0.34140003E+06</totfact>
</mgrwt>
</event>
<event>
 4    1  0.2165211E+000  0.2123578E+02  0.7546771E-02  0.1721814E+00
          2   -1    0    0  501    0  0.00000000000E+00  0.00000000000E+00  0.21757956085E+02  0.21757956085E+02  0.00000000000E+00 0.  1.
         -2   -1    0    0    0  501 -0.00000000000E+00 -0.00000000000E+00 -0.51815349590E+01  0.51815349590E+01  0.00000000000E+00 0. -1.
        -13    1    1    2    0    0 -0.84960928269E+01  0.61786667612E+01  0.63310873642E+01  0.12265487495E+02  0.00000000000E+00 0. -1.
         13    1    1    2    0    0  0.84960928269E+01 -0.61786667612E+01  0.10245333761E+02  0.14674003549E+02  0.00000000000E+00 0.  1.
<mgrwt>
<rscale>  0 0.21235782E+02</rscale>
<asrwt>0</asrwt>
<pdfrwt beam="1">  1        2 0.33473778E-02 0.21235782E+02</pdfrwt>
<pdfrwt beam="2">  1       -2 0.79715923E-03 0.21235782E+02</pdfrwt>
<totfact> 0.36659488E+06</totfact>
</mgrwt>
</event>
<event>
 4    1  0.2165211E+000  0.2762807E+02  0.7546771E-02  0.1625891E+00
          2   -1    0    0  501    0  0.00000000000E+00  0.00000000000E+00  0.49681124247E+02  0.49681124247E+02  0.00000000000E+00 0. -1.
         -2   -1    0    0    0  501 -0.00000000000E+00 -0.00000000000E+00 -0.38410470903E+01  0.38410470903E+01  0.00000000000E+00 0.  1.
        -13    1    1    2    0    0  0.75586971330E+01 -0.78186269733E+01  0.39422166331E+02  0.40894645473E+02  0.00000000000E+00 0. -1.
         13    1    1    2    0    0 -0.75586971330E+01  0.78186269733E+01  0.64179108254E+01  0.12627525865E+02  0.00000000000E+00 0.  1.
<mgrwt>
<rscale>  0 0.27628068E+02</rscale>
<asrwt>0</asrwt>
<pdfrwt beam="1">  1        2 0.76432494E-02 0.27628068E+02</pdfrwt>
<pdfrwt beam="2">  1       -2 0.59093036E-03 0.27628068E+02</pdfrwt>
<totfact> 0.22073593E+06</totfact>
</mgrwt>
</event>
<event>
 4    1  0.2165211E+000  0.7423295E+02  0.7546771E-02  0.1346263E+00
          2   -1    0    0  501    0  0.00000000000E+00  0.00000000000E+00  0.16348670170E+02  0.16348670170E+02  0.00000000000E+00 0. -1.
         -2   -1    0    0    0  501 -0.00000000000E+00 -0.00000000000E+00 -0.84265744706E+02  0.84265744706E+02  0.00000000000E+00 0.  1.
        -11    1    1    2    0    0  0.18163605339E+02 -0.66333507535E+00  0.99040352395E+01  0.20698948919E+02  0.00000000000E+00 0. -1.
         11    1    1    2    0    0 -0.18163605339E+02  0.66333507535E+00 -0.77821109775E+02  0.79915465956E+02  0.00000000000E+00 0.  1.
<mgrwt>
<rscale>  0 0.74232954E+02</rscale>
<asrwt>0</asrwt>
<pdfrwt beam="1">  1        2 0.25151800E-02 0.74232954E+02</pdfrwt>
<pdfrwt beam="2">  1       -2 0.12963961E-01 0.74232954E+02</pdfrwt>
<totfact> 0.13932344E+05</totfact>
</mgrwt>
</event>
<event>
 4    1  0.2165211E+000  0.2348064E+02  0.7546771E-02  0.1683835E+00
          1   -1    0    0  501    0  0.00000000000E+00  0.00000000000E+00  0.17497333397E+01  0.17497333397E+01  0.00000000000E+00 0.  1.
         -1   -1    0    0    0  501 -0.00000000000E+00 -0.00000000000E+00 -0.78774940794E+02  0.78774940794E+02  0.00000000000E+00 0. -1.
        -13    1    1    2    0    0 -0.10548567676E+02 -0.66418022540E-01 -0.56186013929E+02  0.57167690635E+02  0.00000000000E+00 0. -1.
         13    1    1    2    0    0  0.10548567676E+02  0.66418022540E-01 -0.20839193526E+02  0.23356983499E+02  0.00000000000E+00 0.  1.
<mgrwt>
<rscale>  0 0.23480642E+02</rscale>
<asrwt>0</asrwt>
<pdfrwt beam="1">  1        1 0.26918982E-03 0.23480642E+02</pdfrwt>
<pdfrwt beam="2">  1       -1 0.12119218E-01 0.23480642E+02</pdfrwt>
<totfact> 0.23143282E+06</totfact>
</mgrwt>
</event>
<event>
 4    1  0.2165211E+000  0.2226220E+02  0.7546771E-02  0.1703757E+00
         -1   -1    0    0    0  501 -0.00000000000E+00  0.00000000000E+00  0.30548231763E+02  0.30548231763E+02  0.00000000000E+00 0. -1.
          1   -1    0    0  501    0  0.00000000000E+00 -0.00000000000E+00 -0.40559248716E+01  0.40559248716E+01  0.00000000000E+00 0.  1.
        -13    1    1    2    0    0 -0.79080361131E+01  0.75563398085E+01  0.16456648905E+02  0.19759974687E+02  0.00000000000E+00 0. -1.
         13    1    1    2    0    0  0.79080361131E+01 -0.75563398085E+01  0.10035657987E+02  0.14844181948E+02  0.00000000000E+00 0.  1.
<mgrwt>
<rscale>  0 0.22262195E+02</rscale>
<asrwt>0</asrwt>
<pdfrwt beam="2">  1        1 0.62398846E-03 0.22262195E+02</pdfrwt>
<pdfrwt beam="1">  1       -1 0.46997278E-02 0.22262195E+02</pdfrwt>
<totfact> 0.28722750E+06</totfact>
</mgrwt>
</event>
<event>
 4    1  0.2165211E+000  0.2316333E+02  0.7546771E-02  0.1688876E+00
          2   -1    0    0  501    0  0.00000000000E+00  0.00000000000E+00  0.19896053393E+01  0.19896053393E+01  0.00000000000E+00 0.  1.
         -2   -1    0    0    0  501 -0.00000000000E+00 -0.00000000000E+00 -0.67417865088E+02  0.67417865088E+02  0.00000000000E+00 0. -1.
        -11    1    1    2    0    0 -0.14453742906E+01  0.11145404953E+02 -0.41096546385E+02  0.42605578076E+02  0.00000000000E+00 0. -1.
         11    1    1    2    0    0  0.14453742906E+01 -0.11145404953E+02 -0.24331713363E+02  0.26801892351E+02  0.00000000000E+00 0.  1.
<mgrwt>
<rscale>  0 0.23163328E+02</rscale>
<asrwt>0</asrwt>
<pdfrwt beam="1">  1        2 0.30609316E-03 0.23163328E+02</pdfrwt>
<pdfrwt beam="2">  1       -2 0.10371978E-01 0.23163328E+02</pdfrwt>
<totfact> 0.23347425E+06</totfact>
</mgrwt>
</event>
<event>
 4    1  0.2165211E+000  0.2256496E+02  0.7546771E-02  0.1698661E+00
         -1   -1    0    0    0  501 -0.00000000000E+00  0.00000000000E+00  0.50756945749E+01  0.50756945749E+01  0.00000000000E+00 0.  1.
          1   -1    0    0  501    0  0.00000000000E+00 -0.00000000000E+00 -0.25079197357E+02  0.25079197357E+02  0.00000000000E+00 0. -1.
        -11    1    1    2    0    0 -0.14744635929E+01  0.10948782203E+02 -0.13062122425E+02  0.17107568993E+02  0.00000000000E+00 0. -1.
         11    1    1    2    0    0  0.14744635929E+01 -0.10948782203E+02 -0.69413803570E+01  0.13047322939E+02  0.00000000000E+00 0.  1.
<mgrwt>
<rscale>  0 0.22564959E+02</rscale>
<asrwt>0</asrwt>
<pdfrwt beam="2">  1        1 0.38583381E-02 0.22564959E+02</pdfrwt>
<pdfrwt beam="1">  1       -1 0.78087607E-03 0.22564959E+02</pdfrwt>
<totfact> 0.30518952E+06</totfact>
</mgrwt>
</event>
<event>
 4    1  0.2165211E+000  0.2814135E+02  0.7546771E-02  0.1619592E+00
          3   -1    0    0  501    0  0.00000000000E+00  0.00000000000E+00  0.60139550830E+02  0.60139550830E+02  0.00000000000E+00 0.  1.
         -3   -1    0    0    0  501 -0.00000000000E+00 -0.00000000000E+00 -0.32920739918E+01  0.32920739918E+01  0.00000000000E+00 0. -1.
        -11    1    1    2    0    0 -0.74485017646E+01 -0.87054853327E+01  0.46834981402E+02  0.48215984241E+02  0.00000000000E+00 0.  1.
         11    1    1    2    0    0  0.74485017646E+01  0.87054853327E+01  0.10012495436E+02  0.15215640580E+02  0.00000000000E+00 0. -1.
<mgrwt>
<rscale>  0 0.28141347E+02</rscale>
<asrwt>0</asrwt>
<pdfrwt beam="1">  1        3 0.92522377E-02 0.28141347E+02</pdfrwt>
<pdfrwt beam="2">  1       -3 0.50647297E-03 0.28141347E+02</pdfrwt>
<totfact> 0.72941179E+05</totfact>
</mgrwt>
</event>
<event>
 4    1  0.2165211E+000  0.3113121E+02  0.7546771E-02  0.1585911E+00
         -2   -1    0    0    0  501 -0.00000000000E+00  0.00000000000E+00  0.40195803171E+01  0.40195803171E+01  0.00000000000E+00 0.  1.
          2   -1    0    0  501    0  0.00000000000E+00 -0.00000000000E+00 -0.60276938448E+02  0.60276938448E+02  0.00000000000E+00 0. -1.
        -13    1    1    2    0    0  0.61718185403E+01  0.87762675529E+01 -0.51419795360E+02  0.52527226950E+02  0.00000000000E+00 0. -1.
         13    1    1    2    0    0 -0.61718185403E+01 -0.87762675529E+01 -0.48375627709E+01  0.11769291815E+02  0.00000000000E+00 0.  1.
<mgrwt>
<rscale>  0 0.31131206E+02</rscale>
<asrwt>0</asrwt>
<pdfrwt beam="2">  1        2 0.92733757E-02 0.31131206E+02</pdfrwt>
<pdfrwt beam="1">  1       -2 0.61839694E-03 0.31131206E+02</pdfrwt>
<totfact> 0.17193643E+06</totfact>
</mgrwt>
</event>
<event>
 4    1  0.2165211E+000  0.3415412E+02  0.7546771E-02  0.1556243E+00
          2   -1    0    0  501    0  0.00000000000E+00  0.00000000000E+00  0.11444547907E+02  0.11444547907E+02  0.00000000000E+00 0. -1.
         -2   -1    0    0    0  501 -0.00000000000E+00 -0.00000000000E+00 -0.25481649567E+02  0.25481649567E+02  0.00000000000E+00 0.  1.
        -13    1    1    2    0    0 -0.15212843043E+02 -0.41968344787E+01  0.36566735032E-01  0.15781170749E+02  0.00000000000E+00 0. -1.
         13    1    1    2    0    0  0.15212843043E+02  0.41968344787E+01 -0.14073668395E+02  0.21145026725E+02  0.00000000000E+00 0.  1.
<mgrwt>
<rscale>  0 0.34154119E+02</rscale>
<asrwt>0</asrwt>
<pdfrwt beam="1">  1        2 0.17606997E-02 0.34154119E+02</pdfrwt>
<pdfrwt beam="2">  1       -2 0.39202538E-02 0.34154119E+02</pdfrwt>
<totfact> 0.11006958E+06</totfact>
</mgrwt>
</event>
<event>
 4    1  0.2165211E+000  0.2893584E+02  0.7546771E-02  0.1610158E+00
         -2   -1    0    0    0  501 -0.00000000000E+00  0.00000000000E+00  0.11011709340E+02  0.11011709340E+02  0.00000000000E+00 0.  1.
          2   -1    0    0  501    0  0.00000000000E+00 -0.00000000000E+00 -0.19008916032E+02  0.19008916032E+02  0.00000000000E+00 0. -1.
        -13    1    1    2    0    0  0.93607766300E+01 -0.11010415951E+02 -0.32894129505E+01  0.14821391166E+02  0.00000000000E+00 0.  1.
         13    1    1    2    0    0 -0.93607766300E+01  0.11010415951E+02 -0.47077937419E+01  0.15199234206E+02  0.00000000000E+00 0. -1.
<mgrwt>
<rscale>  0 0.28935836E+02</rscale>
<asrwt>0</asrwt>
<pdfrwt beam="2">  1        2 0.29244486E-02 0.28935836E+02</pdfrwt>
<pdfrwt beam="1">  1       -2 0.16941091E-02 0.28935836E+02</pdfrwt>
<totfact> 0.17513176E+06</totfact>
</mgrwt>
</event>
<event>
 4    1  0.2165211E+000  0.3868810E+02  0.7546771E-02  0.1518094E+00
         -2   -1    0    0    0  501 -0.00000000000E+00  0.00000000000E+00  0.53660824683E+01  0.53660824683E+01  0.00000000000E+00 0. -1.
          2   -1    0    0  501    0  0.00000000000E+00 -0.00000000000E+00 -0.69732863001E+02  0.69732863001E+02  0.00000000000E+00 0.  1.
        -11    1    1    2    0    0  0.18747500631E+02 -0.29853869550E+01 -0.24969514700E+02  0.31366510478E+02  0.00000000000E+00 0. -1.
         11    1    1    2    0    0 -0.18747500631E+02  0.29853869550E+01 -0.39397265832E+02  0.43732434991E+02  0.00000000000E+00 0.  1.
<mgrwt>
<rscale>  0 0.38688101E+02</rscale>
<asrwt>0</asrwt>
<pdfrwt beam="2">  1        2 0.10728132E-01 0.38688101E+02</pdfrwt>
<pdfrwt beam="1">  1       -2 0.82555125E-03 0.38688101E+02</pdfrwt>
<totfact> 0.10442882E+06</totfact>
</mgrwt>
</event>
<event>
 4    1  0.2165211E+000  0.2106239E+02  0.7546771E-02  0.1724991E+00
         -2   -1    0    0    0  501 -0.00000000000E+00  0.00000000000E+00  0.85706422416E+01  0.85706422416E+01  0.00000000000E+00 0. -1.
          2   -1    0    0  501    0  0.00000000000E+00 -0.00000000000E+00 -0.12940222552E+02  0.12940222552E+02  0.00000000000E+00 0.  1.
        -13    1    1    2    0    0  0.76845246543E+01  0.71231336425E+01 -0.32632416060E+01  0.10974502168E+02  0.00000000000E+00 0.  1.
         13    1    1    2    0    0 -0.76845246543E+01 -0.71231336425E+01 -0.11063387041E+01  0.10536362626E+02  0.00000000000E+00 0. -1.
<mgrwt>
<rscale>  0 0.21062385E+02</rscale>
<asrwt>0</asrwt>
<pdfrwt beam="2">  1        2 0.19908035E-02 0.21062385E+02</pdfrwt>
<pdfrwt beam="1">  1       -2 0.13185603E-02 0.21062385E+02</pdfrwt>
<totfact> 0.35738327E+06</totfact>
</mgrwt>
</event>
<event>
 4    1  0.2165211E+000  0.3880459E+02  0.7546771E-02  0.1517197E+00
          2   -1    0    0  501    0  0.00000000000E+00  0.00000000000E+00  0.74616035106E+01  0.74616035106E+01  0.00000000000E+00 0. -1.
         -2   -1    0    0    0  501 -0.00000000000E+00 -0.00000000000E+00 -0.50451507138E+02  0.50451507138E+02  0.00000000000E+00 0.  1.
        -11    1    1    2    0    0 -0.17772517767E+02 -0.68745987256E+01 -0.26943166259E+02  0.33000859133E+02  0.00000000000E+00 0. -1.
         11    1    1    2    0    0  0.17772517767E+02  0.68745987256E+01 -0.16046737369E+02  0.24912251516E+02  0.00000000000E+00 0.  1.
<mgrwt>
<rscale>  0 0.38804595E+02</rscale>
<asrwt>0</asrwt>
<pdfrwt beam="1">  1        2 0.11479390E-02 0.38804595E+02</pdfrwt>
<pdfrwt beam="2">  1       -2 0.77617704E-02 0.38804595E+02</pdfrwt>
<totfact> 0.74487997E+05</totfact>
</mgrwt>
</event>
<event>
 4    1  0.2165211E+000  0.3052810E+02  0.7546771E-02  0.1592324E+00
         -2   -1    0    0    0  501 -0.00000000000E+00  0.00000000000E+00  0.15747709427E+02  0.15747709427E+02  0.00000000000E+00 0.  1.
          2   -1    0    0  501    0  0.00000000000E+00 -0.00000000000E+00 -0.14795240538E+02  0.14795240538E+02  0.00000000000E+00 0. -1.
        -13    1    1    2    0    0 -0.42527278488E+01 -0.14159270409E+02 -0.33230488420E+01  0.15152995951E+02  0.00000000000E+00 0. -1.
         13    1    1    2    0    0  0.42527278488E+01  0.14159270409E+02  0.42755177310E+01  0.15389954014E+02  0.00000000000E+00 0.  1.
<mgrwt>
<rscale>  0 0.30528095E+02</rscale>
<asrwt>0</asrwt>
<pdfrwt beam="2">  1        2 0.22761909E-02 0.30528095E+02</pdfrwt>
<pdfrwt beam="1">  1       -2 0.24227245E-02 0.30528095E+02</pdfrwt>
<totfact> 0.14978812E+06</totfact>
</mgrwt>
</event>
<event>
 4    1  0.2165211E+000  0.2091869E+02  0.7546771E-02  0.1727653E+00
          2   -1    0    0  501    0  0.00000000000E+00  0.00000000000E+00  0.70330071514E+02  0.70330071514E+02  0.00000000000E+00 0. -1.
         -2   -1    0    0    0  501 -0.00000000000E+00 -0.00000000000E+00 -0.15554926763E+01  0.15554926763E+01  0.00000000000E+00 0.  1.
        -11    1    1    2    0    0 -0.59378396655E+01 -0.86022445416E+01  0.33095265302E+02  0.34706672795E+02  0.00000000000E+00 0. -1.
         11    1    1    2    0    0  0.59378396655E+01  0.86022445416E+01  0.35679313535E+02  0.37178891395E+02  0.00000000000E+00 0.  1.
<mgrwt>
<rscale>  0 0.20918691E+02</rscale>
<asrwt>0</asrwt>
<pdfrwt beam="1">  1        2 0.10820009E-01 0.20918691E+02</pdfrwt>
<pdfrwt beam="2">  1       -2 0.23930662E-03 0.20918691E+02</pdfrwt>
<totfact> 0.44392784E+06</totfact>
</mgrwt>
</event>
<event>
 4    1  0.2165211E+000  0.2482119E+02  0.7546771E-02  0.1663584E+00
         -2   -1    0    0    0  501 -0.00000000000E+00  0.00000000000E+00  0.12712479785E+01  0.12712479785E+01  0.00000000000E+00 0. -1.
          2   -1    0    0  501    0  0.00000000000E+00 -0.00000000000E+00 -0.12115881572E+03  0.12115881572E+03  0.00000000000E+00 0.  1.
        -13    1    1    2    0    0  0.97723582841E+01  0.73049282262E+01 -0.48737238043E+02  0.50241211519E+02  0.00000000000E+00 0. -1.
         13    1    1    2    0    0 -0.97723582841E+01 -0.73049282262E+01 -0.71150329700E+02  0.72188852181E+02  0.00000000000E+00 0.  1.
<mgrwt>
<rscale>  0 0.24821193E+02</rscale>
<asrwt>0</asrwt>
<pdfrwt beam="2">  1        2 0.18639821E-01 0.24821193E+02</pdfrwt>
<pdfrwt beam="1">  1       -2 0.19557658E-03 0.24821193E+02</pdfrwt>
<totfact> 0.34026316E+06</totfact>
</mgrwt>
</event>
<event>
 4    1  0.2165211E+000  0.3882074E+02  0.7546771E-02  0.1517073E+00
          2   -1    0    0  501    0  0.00000000000E+00  0.00000000000E+00  0.24227002867E+01  0.24227002867E+01  0.00000000000E+00 0. -1.
         -2   -1    0    0    0  501 -0.00000000000E+00 -0.00000000000E+00 -0.15551341902E+03  0.15551341902E+03  0.00000000000E+00 0.  1.
        -11    1    1    2    0    0  0.10999173361E+02 -0.15829922147E+02 -0.85817396040E+02  0.87955634912E+02  0.00000000000E+00 0.  1.
         11    1    1    2    0    0 -0.10999173361E+02  0.15829922147E+02 -0.67273322695E+02  0.69980484396E+02  0.00000000000E+00 0. -1.
<mgrwt>
<rscale>  0 0.38820737E+02</rscale>
<asrwt>0</asrwt>
<pdfrwt beam="1">  1        2 0.37272294E-03 0.38820737E+02</pdfrwt>
<pdfrwt beam="2">  1       -2 0.23925153E-01 0.38820737E+02</pdfrwt>
<totfact> 0.57227111E+05</totfact>
</mgrwt>
</event>
<event>
 4    1  0.2165211E+000  0.4514187E+02  0.7546771E-02  0.1473458E+00
          2   -1    0    0  501    0  0.00000000000E+00  0.00000000000E+00  0.19450891653E+02  0.19450891653E+02  0.00000000000E+00 0. -1.
         -2   -1    0    0    0  501 -0.00000000000E+00 -0.00000000000E+00 -0.26191453721E+02  0.26191453721E+02  0.00000000000E+00 0.  1.
        -13    1    1    2    0    0  0.14448718197E+02  0.14537460668E+02  0.61867032376E+01  0.21409776206E+02  0.00000000000E+00 0. -1.
         13    1    1    2    0    0 -0.14448718197E+02 -0.14537460668E+02 -0.12927265306E+02  0.24232569169E+02  0.00000000000E+00 0.  1.
<mgrwt>
<rscale>  0 0.45141871E+02</rscale>
<asrwt>0</asrwt>
<pdfrwt beam="1">  1        2 0.29924449E-02 0.45141871E+02</pdfrwt>
<pdfrwt beam="2">  1       -2 0.40294544E-02 0.45141871E+02</pdfrwt>
<totfact> 0.57444950E+05</totfact>
</mgrwt>
</event>
<event>
 4    1  0.2165211E+000  0.3202360E+02  0.7546771E-02  0.1576740E+00
         -2   -1    0    0    0  501 -0.00000000000E+00  0.00000000000E+00  0.11232718899E+02  0.11232718899E+02  0.00000000000E+00 0.  1.
          2   -1    0    0  501    0  0.00000000000E+00 -0.00000000000E+00 -0.22824199268E+02  0.22824199268E+02  0.00000000000E+00 0. -1.
        -13    1    1    2    0    0  0.10566829825E+02  0.12020836743E+02 -0.52975911496E+01  0.16858911013E+02  0.00000000000E+00 0. -1.
         13    1    1    2    0    0 -0.10566829825E+02 -0.12020836743E+02 -0.62938892193E+01  0.17198007154E+02  0.00000000000E+00 0.  1.
<mgrwt>
<rscale>  0 0.32023605E+02</rscale>
<asrwt>0</asrwt>
<pdfrwt beam="2">  1        2 0.35114153E-02 0.32023605E+02</pdfrwt>
<pdfrwt beam="1">  1       -2 0.17281106E-02 0.32023605E+02</pdfrwt>
<totfact> 0.13965112E+06</totfact>
</mgrwt>
</event>
<event>
 4    1  0.2165211E+000  0.3132795E+02  0.7546771E-02  0.1583857E+00
          2   -1    0    0  501    0  0.00000000000E+00  0.00000000000E+00  0.16858965950E+02  0.16858965950E+02  0.00000000000E+00 0. -1.
         -2   -1    0    0    0  501 -0.00000000000E+00 -0.00000000000E+00 -0.14553683744E+02  0.14553683744E+02  0.00000000000E+00 0.  1.
        -13    1    1    2    0    0 -0.44554977913E+01  0.14167447649E+02  0.61452626262E+01  0.16072718694E+02  0.00000000000E+00 0. -1.
         13    1    1    2    0    0  0.44554977913E+01 -0.14167447649E+02 -0.38399804200E+01  0.15339931000E+02  0.00000000000E+00 0.  1.
<mgrwt>
<rscale>  0 0.31327947E+02</rscale>
<asrwt>0</asrwt>
<pdfrwt beam="1">  1        2 0.25936871E-02 0.31327947E+02</pdfrwt>
<pdfrwt beam="2">  1       -2 0.22390283E-02 0.31327947E+02</pdfrwt>
<totfact> 0.14251024E+06</totfact>
</mgrwt>
</event>
<event>
 4    1  0.2165211E+000  0.3696424E+02  0.7546771E-02  0.1531819E+00
         -2   -1    0    0    0  501 -0.00000000000E+00  0.00000000000E+00  0.40858311077E+01  0.40858311077E+01  0.00000000000E+00 0. -1.
          2   -1    0    0  501    0  0.00000000000E+00 -0.00000000000E+00 -0.83603231118E+02  0.83603231118E+02  0.00000000000E+00 0.  1.
        -11    1    1    2    0    0  0.18135683855E+02 -0.30756402101E+00 -0.48176426362E+02  0.51477817373E+02  0.00000000000E+00 0.  1.
         11    1    1    2    0    0 -0.18135683855E+02  0.30756402101E+00 -0.31340973649E+02  0.36211244853E+02  0.00000000000E+00 0. -1.
<mgrwt>
<rscale>  0 0.36964236E+02</rscale>
<asrwt>0</asrwt>
<pdfrwt beam="2">  1        2 0.12862036E-01 0.36964236E+02</pdfrwt>
<pdfrwt beam="1">  1       -2 0.62858937E-03 0.36964236E+02</pdfrwt>
<totfact> 0.12145404E+06</totfact>
</mgrwt>
</event>
<event>
 4    1  0.2165211E+000  0.2582183E+02  0.7546771E-02  0.1649471E+00
          2   -1    0    0  501    0  0.00000000000E+00  0.00000000000E+00  0.26415695350E+02  0.26415695350E+02  0.00000000000E+00 0.  1.
         -2   -1    0    0    0  501 -0.00000000000E+00 -0.00000000000E+00 -0.63103303673E+01  0.63103303673E+01  0.00000000000E+00 0. -1.
        -11    1    1    2    0    0  0.96293851334E+01  0.65639466704E+01  0.17095623673E+02  0.20689871984E+02  0.00000000000E+00 0.  1.
         11    1    1    2    0    0 -0.96293851334E+01 -0.65639466704E+01  0.30097413095E+01  0.12036153733E+02  0.00000000000E+00 0. -1.
<mgrwt>
<rscale>  0 0.25821833E+02</rscale>
<asrwt>0</asrwt>
<pdfrwt beam="1">  1        2 0.40639531E-02 0.25821833E+02</pdfrwt>
<pdfrwt beam="2">  1       -2 0.97082007E-03 0.25821833E+02</pdfrwt>
<totfact> 0.23784263E+06</totfact>
</mgrwt>
</event>
<event>
 4    1  0.2165211E+000  0.3224336E+02  0.7546771E-02  0.1574538E+00
          4   -1    0    0  501    0  0.00000000000E+00  0.00000000000E+00  0.25964556960E+01  0.25964556960E+01  0.00000000000E+00 0. -1.
         -4   -1    0    0    0  501 -0.00000000000E+00 -0.00000000000E+00 -0.10010128974E+03  0.10010128974E+03  0.00000000000E+00 0.  1.
        -11    1    1    2    0    0 -0.68802151515E+01 -0.14578844862E+02 -0.48214846492E+02  0.50838484442E+02  0.00000000000E+00 0.  1.
         11    1    1    2    0    0  0.68802151515E+01  0.14578844862E+02 -0.49289987556E+02  0.51859260999E+02  0.00000000000E+00 0. -1.
<mgrwt>
<rscale>  0 0.32243360E+02</rscale>
<asrwt>0</asrwt>
<pdfrwt beam="1">  1        4 0.39945469E-03 0.32243360E+02</pdfrwt>
<pdfrwt beam="2">  1       -4 0.15400200E-01 0.32243360E+02</pdfrwt>
<totfact> 0.35081837E+05</totfact>
</mgrwt>
</event>
<event>
 4    1  0.2165211E+000  0.7131771E+02  0.7546771E-02  0.1355669E+00
          3   -1    0    0  501    0  0.00000000000E+00  0.00000000000E+00  0.56147415417E+02  0.56147415417E+02  0.00000000000E+00 0. -1.
         -3   -1    0    0    0  501 -0.00000000000E+00 -0.00000000000E+00 -0.22646701770E+02  0.22646701770E+02  0.00000000000E+00 0.  1.
        -13    1    1    2    0    0  0.35583893434E+02  0.20905197309E+01  0.17838506005E+02  0.39859704479E+02  0.00000000000E+00 0. -1.
         13    1    1    2    0    0 -0.35583893434E+02 -0.20905197309E+01  0.15662207642E+02  0.38934412708E+02  0.00000000000E+00 0.  1.
<mgrwt>
<rscale>  0 0.71317705E+02</rscale>
<asrwt>0</asrwt>
<pdfrwt beam="1">  1        3 0.86380638E-02 0.71317705E+02</pdfrwt>
<pdfrwt beam="2">  1       -3 0.34841080E-02 0.71317705E+02</pdfrwt>
<totfact> 0.70245457E+04</totfact>
</mgrwt>
</event>
<event>
 4    1  0.2165211E+000  0.2270010E+02  0.7546771E-02  0.1696418E+00
         -2   -1    0    0    0  501 -0.00000000000E+00  0.00000000000E+00  0.68501067186E+01  0.68501067186E+01  0.00000000000E+00 0. -1.
          2   -1    0    0  501    0  0.00000000000E+00 -0.00000000000E+00 -0.18806076853E+02  0.18806076853E+02  0.00000000000E+00 0.  1.
        -13    1    1    2    0    0 -0.10113861722E+02  0.48315002193E+01 -0.79966412564E+01  0.13768800408E+02  0.00000000000E+00 0.  1.
         13    1    1    2    0    0  0.10113861722E+02 -0.48315002193E+01 -0.39593288777E+01  0.11887383163E+02  0.00000000000E+00 0. -1.
<mgrwt>
<rscale>  0 0.22700100E+02</rscale>
<asrwt>0</asrwt>
<pdfrwt beam="2">  1        2 0.28932425E-02 0.22700100E+02</pdfrwt>
<pdfrwt beam="1">  1       -2 0.10538626E-02 0.22700100E+02</pdfrwt>
<totfact> 0.31036614E+06</totfact>
</mgrwt>
</event>
<event>
 4    1  0.2165211E+000  0.2090497E+02  0.7546771E-02  0.1727908E+00
          3   -1    0    0  501    0  0.00000000000E+00  0.00000000000E+00  0.94118196363E+02  0.94118196363E+02  0.00000000000E+00 0.  1.
         -3   -1    0    0    0  501 -0.00000000000E+00 -0.00000000000E+00 -0.11608216952E+01  0.11608216952E+01  0.00000000000E+00 0. -1.
        -11    1    1    2    0    0  0.96672191197E+01  0.33549255131E+01  0.36763369433E+02  0.38160922195E+02  0.00000000000E+00 0.  1.
         11    1    1    2    0    0 -0.96672191197E+01 -0.33549255131E+01  0.56194005234E+02  0.57118095863E+02  0.00000000000E+00 0. -1.
<mgrwt>
<rscale>  0 0.20904970E+02</rscale>
<asrwt>0</asrwt>
<pdfrwt beam="1">  1        3 0.14479717E-01 0.20904970E+02</pdfrwt>
<pdfrwt beam="2">  1       -3 0.17858803E-03 0.20904970E+02</pdfrwt>
<totfact> 0.13036235E+06</totfact>
</mgrwt>
</event>
<event>
 4    1  0.2165211E+000  0.4287661E+02  0.7546771E-02  0.1488050E+00
         -2   -1    0    0    0  501 -0.00000000000E+00  0.00000000000E+00  0.22431227960E+02  0.22431227960E+02  0.00000000000E+00 0.  1.
          2   -1    0    0  501    0  0.00000000000E+00 -0.00000000000E+00 -0.20489334699E+02  0.20489334699E+02  0.00000000000E+00 0. -1.
        -13    1    1    2    0    0 -0.30210937011E+01 -0.11819219674E+02 -0.16676077228E+02  0.20661861305E+02  0.00000000000E+00 0. -1.
         13    1    1    2    0    0  0.30210937011E+01  0.11819219674E+02  0.18617970489E+02  0.22258701354E+02  0.00000000000E+00 0.  1.
<mgrwt>
<rscale>  0 0.42876611E+02</rscale>
<asrwt>0</asrwt>
<pdfrwt beam="2">  1        2 0.31522053E-02 0.42876611E+02</pdfrwt>
<pdfrwt beam="1">  1       -2 0.34509581E-02 0.42876611E+02</pdfrwt>
<totfact> 0.66167769E+05</totfact>
</mgrwt>
</event>
<event>
 4    1  0.2165211E+000  0.1110804E+03  0.7546771E-02  0.1258582E+00
          1   -1    0    0  501    0  0.00000000000E+00  0.00000000000E+00  0.37622601819E+02  0.37622601819E+02  0.00000000000E+00 0. -1.
         -1   -1    0    0    0  501 -0.00000000000E+00 -0.00000000000E+00 -0.81991028825E+02  0.81991028825E+02  0.00000000000E+00 0.  1.
        -13    1    1    2    0    0 -0.11859559907E+02 -0.16209174801E+02 -0.77943624135E+02  0.80489720165E+02  0.00000000000E+00 0.  1.
         13    1    1    2    0    0  0.11859559907E+02  0.16209174801E+02  0.33575197129E+02  0.39123910479E+02  0.00000000000E+00 0. -1.
<mgrwt>
<rscale>  0 0.11108044E+03</rscale>
<asrwt>0</asrwt>
<pdfrwt beam="1">  1        1 0.57880927E-02 0.11108044E+03</pdfrwt>
<pdfrwt beam="2">  1       -1 0.12614004E-01 0.11108044E+03</pdfrwt>
<totfact> 0.50787260E+04</totfact>
</mgrwt>
</event>
<event>
 4    1  0.2165211E+000  0.3266491E+02  0.7546771E-02  0.1570371E+00
          2   -1    0    0  501    0  0.00000000000E+00  0.00000000000E+00  0.47032378549E+02  0.47032378549E+02  0.00000000000E+00 0. -1.
         -2   -1    0    0    0  501 -0.00000000000E+00 -0.00000000000E+00 -0.56716039534E+01  0.56716039534E+01  0.00000000000E+00 0.  1.
        -13    1    1    2    0    0 -0.14522698859E+02 -0.27209302002E+01  0.94511656607E+01  0.17539577408E+02  0.00000000000E+00 0. -1.
         13    1    1    2    0    0  0.14522698859E+02  0.27209302002E+01  0.31909608935E+02  0.35164405095E+02  0.00000000000E+00 0.  1.
<mgrwt>
<rscale>  0 0.32664906E+02</rscale>
<asrwt>0</asrwt>
<pdfrwt beam="1">  1        2 0.72357503E-02 0.32664906E+02</pdfrwt>
<pdfrwt beam="2">  1       -2 0.87255449E-03 0.32664906E+02</pdfrwt>
<totfact> 0.14676279E+06</totfact>
</mgrwt>
</event>
<event>
 4    1  0.2165211E+000  0.2466850E+02  0.7546771E-02  0.1665810E+00
         -1   -1    0    0    0  501 -0.00000000000E+00  0.00000000000E+00  0.19053431578E+01  0.19053431578E+01  0.00000000000E+00 0.  1.
          1   -1    0    0  501    0  0.00000000000E+00 -0.00000000000E+00 -0.79845837780E+02  0.79845837780E+02  0.00000000000E+00 0. -1.
        -11    1    1    2    0    0  0.96248611119E+01  0.77111064792E+01 -0.38353754756E+02  0.40287834621E+02  0.00000000000E+00 0. -1.
         11    1    1    2    0    0 -0.96248611119E+01 -0.77111064792E+01 -0.39586739867E+02  0.41463346317E+02  0.00000000000E+00 0.  1.
<mgrwt>
<rscale>  0 0.24668500E+02</rscale>
<asrwt>0</asrwt>
<pdfrwt beam="2">  1        1 0.12283971E-01 0.24668500E+02</pdfrwt>
<pdfrwt beam="1">  1       -1 0.29312981E-03 0.24668500E+02</pdfrwt>
<totfact> 0.27025390E+06</totfact>
</mgrwt>
</event>
<event>
 4    1  0.2165211E+000  0.2354555E+02  0.7546771E-02  0.1682816E+00
         -2   -1    0    0    0  501 -0.00000000000E+00  0.00000000000E+00  0.63053749510E+01  0.63053749510E+01  0.00000000000E+00 0. -1.
          2   -1    0    0  501    0  0.00000000000E+00 -0.00000000000E+00 -0.21980970904E+02  0.21980970904E+02  0.00000000000E+00 0.  1.
        -11    1    1    2    0    0 -0.92418033979E+01  0.63997518176E+01 -0.12039161303E+02  0.16471464970E+02  0.00000000000E+00 0.  1.
         11    1    1    2    0    0  0.92418033979E+01 -0.63997518176E+01 -0.36364346504E+01  0.11814880886E+02  0.00000000000E+00 0. -1.
<mgrwt>
<rscale>  0 0.23545553E+02</rscale>
<asrwt>0</asrwt>
<pdfrwt beam="2">  1        2 0.33816879E-02 0.23545553E+02</pdfrwt>
<pdfrwt beam="1">  1       -2 0.97005767E-03 0.23545553E+02</pdfrwt>
<totfact> 0.28942192E+06</totfact>
</mgrwt>
</event>
<event>
 4    1  0.2165211E+000  0.2427712E+02  0.7546771E-02  0.1671607E+00
          2   -1    0    0  501    0  0.00000000000E+00  0.00000000000E+00  0.19536353903E+02  0.19536353903E+02  0.00000000000E+00 0. -1.
         -2   -1    0    0    0  501 -0.00000000000E+00 -0.00000000000E+00 -0.75420757447E+01  0.75420757447E+01  0.00000000000E+00 0.  1.
        -13    1    1    2    0    0  0.96054388185E+00 -0.11817755972E+02  0.30965576710E+01  0.12254414313E+02  0.00000000000E+00 0. -1.
         13    1    1    2    0    0 -0.96054388185E+00  0.11817755972E+02  0.88977204871E+01  0.14824015334E+02  0.00000000000E+00 0.  1.
<mgrwt>
<rscale>  0 0.24277122E+02</rscale>
<asrwt>0</asrwt>
<pdfrwt beam="1">  1        2 0.30055929E-02 0.24277122E+02</pdfrwt>
<pdfrwt beam="2">  1       -2 0.11603194E-02 0.24277122E+02</pdfrwt>
<totfact> 0.26647674E+06</totfact>
</mgrwt>
</event>
<event>
 4    1  0.2165211E+000  0.2621541E+02  0.7546771E-02  0.1644134E+00
         -2   -1    0    0    0  501 -0.00000000000E+00  0.00000000000E+00  0.21165228936E+02  0.21165228936E+02  0.00000000000E+00 0.  1.
          2   -1    0    0  501    0  0.00000000000E+00 -0.00000000000E+00 -0.81176475720E+01  0.81176475720E+01  0.00000000000E+00 0. -1.
        -13    1    1    2    0    0  0.57599221817E+01 -0.11739344004E+02  0.55104659102E+01  0.14189930787E+02  0.00000000000E+00 0. -1.
         13    1    1    2    0    0 -0.57599221817E+01  0.11739344004E+02  0.75371154534E+01  0.15092945721E+02  0.00000000000E+00 0.  1.
<mgrwt>
<rscale>  0 0.26215405E+02</rscale>
<asrwt>0</asrwt>
<pdfrwt beam="2">  1        2 0.12488689E-02 0.26215405E+02</pdfrwt>
<pdfrwt beam="1">  1       -2 0.32561891E-02 0.26215405E+02</pdfrwt>
<totfact> 0.20484180E+06</totfact>
</mgrwt>
</event>
<event>
 4    1  0.2165211E+000  0.3531009E+02  0.7546771E-02  0.1545864E+00
          2   -1    0    0  501    0  0.00000000000E+00  0.00000000000E+00  0.23560613808E+02  0.23560613808E+02  0.00000000000E+00 0. -1.
         -2   -1    0    0    0  501 -0.00000000000E+00 -0.00000000000E+00 -0.13229733792E+02  0.13229733792E+02  0.00000000000E+00 0.  1.
        -13    1    1    2    0    0 -0.95067966195E+01 -0.11285753231E+02  0.15264731907E+02  0.21231096254E+02  0.00000000000E+00 0. -1.
         13    1    1    2    0    0  0.95067966195E+01  0.11285753231E+02 -0.49338518908E+01  0.15559251345E+02  0.00000000000E+00 0.  1.
<mgrwt>
<rscale>  0 0.35310092E+02</rscale>
<asrwt>0</asrwt>
<pdfrwt beam="1">  1        2 0.36247098E-02 0.35310092E+02</pdfrwt>
<pdfrwt beam="2">  1       -2 0.20353437E-02 0.35310092E+02</pdfrwt>
<totfact> 0.11019613E+06</totfact>
</mgrwt>
</event>
<event>
 4    1  0.2165211E+000  0.2277661E+02  0.7546771E-02  0.1695157E+00
         -4   -1    0    0    0  501 -0.00000000000E+00  0.00000000000E+00  0.57344777279E+02  0.57344777279E+02  0.00000000000E+00 0. -1.
          4   -1    0    0  501    0  0.00000000000E+00 -0.00000000000E+00 -0.22616451694E+01  0.22616451694E+01  0.00000000000E+00 0.  1.
        -13    1    1    2    0    0 -0.40019382310E+01 -0.98281192748E+01  0.38359027812E+02  0.39799779556E+02  0.00000000000E+00 0. -1.
         13    1    1    2    0    0  0.40019382310E+01  0.98281192748E+01  0.16724104298E+02  0.19806642892E+02  0.00000000000E+00 0.  1.
<mgrwt>
<rscale>  0 0.22776614E+02</rscale>
<asrwt>0</asrwt>
<pdfrwt beam="2">  1        4 0.34794546E-03 0.22776614E+02</pdfrwt>
<pdfrwt beam="1">  1       -4 0.88222723E-02 0.22776614E+02</pdfrwt>
<totfact> 0.85218571E+05</totfact>
</mgrwt>
</event>
<event>
 4    1  0.2165211E+000  0.2444969E+02  0.7546771E-02  0.1669034E+00
         -2   -1    0    0    0  501 -0.00000000000E+00  0.00000000000E+00  0.19092104126E+01  0.19092104126E+01  0.00000000000E+00 0.  1.
          2   -1    0    0  501    0  0.00000000000E+00 -0.00000000000E+00 -0.78276805375E+02  0.78276805375E+02  0.00000000000E+00 0. -1.
        -13    1    1    2    0    0  0.96237492993E+01 -0.74807905802E+01 -0.41239516924E+02  0.43003215396E+02  0.00000000000E+00 0.  1.
         13    1    1    2    0    0 -0.96237492993E+01  0.74807905802E+01 -0.35128078039E+02  0.37182800392E+02  0.00000000000E+00 0. -1.
<mgrwt>
<rscale>  0 0.24449695E+02</rscale>
<asrwt>0</asrwt>
<pdfrwt beam="2">  1        2 0.12042586E-01 0.24449695E+02</pdfrwt>
<pdfrwt beam="1">  1       -2 0.29372468E-03 0.24449695E+02</pdfrwt>
<totfact> 0.31846351E+06</totfact>
</mgrwt>
</event>
<event>
 4    1  0.2165211E+000  0.2729616E+02  0.7546771E-02  0.1630055E+00
         -2   -1    0    0    0  501 -0.00000000000E+00  0.00000000000E+00  0.21008019272E+01  0.21008019272E+01  0.00000000000E+00 0.  1.
          2   -1    0    0  501    0  0.00000000000E+00 -0.00000000000E+00 -0.88666200045E+02  0.88666200045E+02  0.00000000000E+00 0. -1.
        -13    1    1    2    0    0 -0.51407874647E+01  0.10918248815E+02 -0.22085785450E+02  0.25167792352E+02  0.00000000000E+00 0.  1.
         13    1    1    2    0    0  0.51407874647E+01 -0.10918248815E+02 -0.64479612668E+02  0.65599209620E+02  0.00000000000E+00 0. -1.
<mgrwt>
<rscale>  0 0.27296163E+02</rscale>
<asrwt>0</asrwt>
<pdfrwt beam="2">  1        2 0.13640954E-01 0.27296163E+02</pdfrwt>
<pdfrwt beam="1">  1       -2 0.32320028E-03 0.27296163E+02</pdfrwt>
<totfact> 0.25355636E+06</totfact>
</mgrwt>
</event>
<event>
 4    1  0.2165211E+000  0.2281024E+02  0.7546771E-02  0.1694605E+00
          2   -1    0    0  501    0  0.00000000000E+00  0.00000000000E+00  0.76429737702E+01  0.76429737702E+01  0.00000000000E+00 0. -1.
         -2   -1    0    0    0  501 -0.00000000000E+00 -0.00000000000E+00 -0.17019127916E+02  0.17019127916E+02  0.00000000000E+00 0.  1.
        -13    1    1    2    0    0 -0.48959056287E+01 -0.91601867699E+01  0.40588326093E+00  0.10394404976E+02  0.00000000000E+00 0. -1.
         13    1    1    2    0    0  0.48959056287E+01  0.91601867699E+01 -0.97820374066E+01  0.14267696710E+02  0.00000000000E+00 0.  1.
<mgrwt>
<rscale>  0 0.22810239E+02</rscale>
<asrwt>0</asrwt>
<pdfrwt beam="1">  1        2 0.11758421E-02 0.22810239E+02</pdfrwt>
<pdfrwt beam="2">  1       -2 0.26183273E-02 0.22810239E+02</pdfrwt>
<totfact> 0.28457684E+06</totfact>
</mgrwt>
</event>
<event>
 4    1  0.2165211E+000  0.2202764E+02  0.7546771E-02  0.1707774E+00
         -2   -1    0    0    0  501 -0.00000000000E+00  0.00000000000E+00  0.54129265258E+01  0.54129265258E+01  0.00000000000E+00 0. -1.
          2   -1    0    0  501    0  0.00000000000E+00 -0.00000000000E+00 -0.22410107129E+02  0.22410107129E+02  0.00000000000E+00 0.  1.
        -11    1    1    2    0    0 -0.94789473751E+01  0.42714808875E+01 -0.13089084457E+02  0.16715864448E+02  0.00000000000E+00 0.  1.
         11    1    1    2    0    0  0.94789473751E+01 -0.42714808875E+01 -0.39080961465E+01  0.11107169207E+02  0.00000000000E+00 0. -1.
<mgrwt>
<rscale>  0 0.22027643E+02</rscale>
<asrwt>0</asrwt>
<pdfrwt beam="2">  1        2 0.34477087E-02 0.22027643E+02</pdfrwt>
<pdfrwt beam="1">  1       -2 0.83275794E-03 0.22027643E+02</pdfrwt>
<totfact> 0.33811735E+06</totfact>
</mgrwt>
</event>
<event>
 4    1  0.2165211E+000  0.4013043E+02  0.7546771E-02  0.1507254E+00
          2   -1    0    0  501    0  0.00000000000E+00  0.00000000000E+00  0.10916953822E+02  0.10916953822E+02  0.00000000000E+00 0.  1.
         -2   -1    0    0    0  501 -0.00000000000E+00 -0.00000000000E+00 -0.36879597240E+02  0.36879597240E+02  0.00000000000E+00 0. -1.
        -13    1    1    2    0    0  0.12954978855E+02  0.58627811674E+01  0.38796091685E+01  0.14739574195E+02  0.00000000000E+00 0.  1.
         13    1    1    2    0    0 -0.12954978855E+02 -0.58627811674E+01 -0.29842252586E+02  0.33056976867E+02  0.00000000000E+00 0. -1.
<mgrwt>
<rscale>  0 0.40130430E+02</rscale>
<asrwt>0</asrwt>
<pdfrwt beam="1">  1        2 0.16795314E-02 0.40130430E+02</pdfrwt>
<pdfrwt beam="2">  1       -2 0.56737841E-02 0.40130430E+02</pdfrwt>
<totfact> 0.72116104E+05</totfact>
</mgrwt>
</event>
<event>
 4    1  0.2165211E+000  0.2598684E+02  0.7546771E-02  0.1647219E+00
         -4   -1    0    0    0  501 -0.00000000000E+00  0.00000000000E+00  0.79013124616E+01  0.79013124616E+01  0.00000000000E+00 0.  1.
          4   -1    0    0  501    0  0.00000000000E+00 -0.00000000000E+00 -0.21367201484E+02  0.21367201484E+02  0.00000000000E+00 0. -1.
        -13    1    1    2    0    0 -0.80528789153E+01  0.92956373845E+01 -0.11454096408E+02  0.16806369559E+02  0.00000000000E+00 0. -1.
         13    1    1    2    0    0  0.80528789153E+01 -0.92956373845E+01 -0.20117926145E+01  0.12462144387E+02  0.00000000000E+00 0.  1.
<mgrwt>
<rscale>  0 0.25986838E+02</rscale>
<asrwt>0</asrwt>
<pdfrwt beam="2">  1        4 0.32872618E-02 0.25986838E+02</pdfrwt>
<pdfrwt beam="1">  1       -4 0.12155865E-02 0.25986838E+02</pdfrwt>
<totfact> 0.71816614E+05</totfact>
</mgrwt>
</event>
<event>
 4    1  0.2165211E+000  0.2172528E+02  0.7546771E-02  0.1713047E+00
          1   -1    0    0  501    0  0.00000000000E+00  0.00000000000E+00  0.60710574928E+02  0.60710574928E+02  0.00000000000E+00 0.  1.
         -1   -1    0    0    0  501 -0.00000000000E+00 -0.00000000000E+00 -0.19435971880E+01  0.19435971880E+01  0.00000000000E+00 0. -1.
        -11    1    1    2    0    0 -0.77706340362E+01 -0.75898924435E+01  0.29130719625E+02  0.31089999139E+02  0.00000000000E+00 0. -1.
         11    1    1    2    0    0  0.77706340362E+01  0.75898924435E+01  0.29636258115E+02  0.31564172976E+02  0.00000000000E+00 0.  1.
<mgrwt>
<rscale>  0 0.21725276E+02</rscale>
<asrwt>0</asrwt>
<pdfrwt beam="1">  1        1 0.93400870E-02 0.21725276E+02</pdfrwt>
<pdfrwt beam="2">  1       -1 0.29901500E-03 0.21725276E+02</pdfrwt>
<totfact> 0.35178177E+06</totfact>
</mgrwt>
</event>
<event>
 4    1  0.2165211E+000  0.3933016E+02  0.7546771E-02  0.1513199E+00
          4   -1    0    0  501    0  0.00000000000E+00  0.00000000000E+00  0.35971031121E+02  0.35971031121E+02  0.00000000000E+00 0.  1.
         -4   -1    0    0    0  501 -0.00000000000E+00 -0.00000000000E+00 -0.10750745086E+02  0.10750745086E+02  0.00000000000E+00 0. -1.
        -11    1    1    2    0    0  0.17921089410E+02 -0.66057859664E+00  0.30243201813E+01  0.18186487354E+02  0.00000000000E+00 0. -1.
         11    1    1    2    0    0 -0.17921089410E+02  0.66057859664E+00  0.22195965854E+02  0.28535288853E+02  0.00000000000E+00 0.  1.
<mgrwt>
<rscale>  0 0.39330161E+02</rscale>
<asrwt>0</asrwt>
<pdfrwt beam="1">  1        4 0.55340047E-02 0.39330161E+02</pdfrwt>
<pdfrwt beam="2">  1       -4 0.16539608E-02 0.39330161E+02</pdfrwt>
<totfact> 0.26133588E+05</totfact>
</mgrwt>
</event>
<event>
 4    1  0.2165211E+000  0.2216771E+02  0.7546771E-02  0.1705368E+00
          2   -1    0    0  501    0  0.00000000000E+00  0.00000000000E+00  0.17283230334E+02  0.17283230334E+02  0.00000000000E+00 0. -1.
         -2   -1    0    0    0  501 -0.00000000000E+00 -0.00000000000E+00 -0.71081503197E+01  0.71081503197E+01  0.00000000000E+00 0.  1.
        -11    1    1    2    0    0 -0.61681732160E+00  0.10740648410E+02  0.21536451629E+01  0.10971790162E+02  0.00000000000E+00 0.  1.
         11    1    1    2    0    0  0.61681732160E+00 -0.10740648410E+02  0.80214348509E+01  0.13419590491E+02  0.00000000000E+00 0. -1.
<mgrwt>
<rscale>  0 0.22167706E+02</rscale>
<asrwt>0</asrwt>
<pdfrwt beam="1">  1        2 0.26589585E-02 0.22167706E+02</pdfrwt>
<pdfrwt beam="2">  1       -2 0.10935616E-02 0.22167706E+02</pdfrwt>
<totfact> 0.32537868E+06</totfact>
</mgrwt>
</event>
<event>
 4    1  0.2165211E+000  0.2739418E+02  0.7546771E-02  0.1628818E+00
          4   -1    0    0  501    0  0.00000000000E+00  0.00000000000E+00  0.48764773498E+01  0.48764773498E+01  0.00000000000E+00 0.  1.
         -4   -1    0    0    0  501 -0.00000000000E+00 -0.00000000000E+00 -0.38472489918E+02  0.38472489918E+02  0.00000000000E+00 0. -1.
        -11    1    1    2    0    0  0.22581185027E+01 -0.12278392501E+02 -0.78812387255E+01  0.14763872982E+02  0.00000000000E+00 0.  1.
         11    1    1    2    0    0 -0.22581185027E+01  0.12278392501E+02 -0.25714773843E+02  0.28585094286E+02  0.00000000000E+00 0. -1.
<mgrwt>
<rscale>  0 0.27394176E+02</rscale>
<asrwt>0</asrwt>
<pdfrwt beam="1">  1        4 0.75022727E-03 0.27394176E+02</pdfrwt>
<pdfrwt beam="2">  1       -4 0.59188448E-02 0.27394176E+02</pdfrwt>
<totfact> 0.60640786E+05</totfact>
</mgrwt>
</event>
<event>
 4    1  0.2165211E+000  0.5610182E+02  0.7546771E-02  0.1414959E+00
         -2   -1    0    0    0  501 -0.00000000000E+00  0.00000000000E+00  0.53173144836E+01  0.53173144836E+01  0.00000000000E+00 0. -1.
          2   -1    0    0  501    0  0.00000000000E+00 -0.00000000000E+00 -0.14797950622E+03  0.14797950622E+03  0.00000000000E+00 0.  1.
        -11    1    1    2    0    0  0.13412766161E+02 -0.20116283109E+02 -0.11019438614E+03  0.11281564554E+03  0.00000000000E+00 0.  1.
         11    1    1    2    0    0 -0.13412766161E+02  0.20116283109E+02 -0.32467805592E+02  0.40481175158E+02  0.00000000000E+00 0. -1.
<mgrwt>
<rscale>  0 0.56101821E+02</rscale>
<asrwt>0</asrwt>
<pdfrwt beam="2">  1        2 0.22766079E-01 0.56101821E+02</pdfrwt>
<pdfrwt beam="1">  1       -2 0.81804833E-03 0.56101821E+02</pdfrwt>
<totfact> 0.49955004E+05</totfact>
</mgrwt>
</event>
<event>
 4    1  0.2165211E+000  0.2540240E+02  0.7546771E-02  0.1655288E+00
         -2   -1    0    0    0  501 -0.00000000000E+00  0.00000000000E+00  0.38975459382E+02  0.38975459382E+02  0.00000000000E+00 0. -1.
          2   -1    0    0  501    0  0.00000000000E+00 -0.00000000000E+00 -0.41390285295E+01  0.41390285295E+01  0.00000000000E+00 0.  1.
        -11    1    1    2    0    0 -0.11253027970E+02  0.30602885292E+01  0.88770106141E+01  0.14655965401E+02  0.00000000000E+00 0.  1.
         11    1    1    2    0    0  0.11253027970E+02 -0.30602885292E+01  0.25959420239E+02  0.28458522511E+02  0.00000000000E+00 0. -1.
<mgrwt>
<rscale>  0 0.25402404E+02</rscale>
<asrwt>0</asrwt>
<pdfrwt beam="2">  1        2 0.63677365E-03 0.25402404E+02</pdfrwt>
<pdfrwt beam="1">  1       -2 0.59962243E-02 0.25402404E+02</pdfrwt>
<totfact> 0.20589210E+06</totfact>
</mgrwt>
</event>
<event>
 4    1  0.2165211E+000  0.2548562E+02  0.7546771E-02  0.1654123E+00
          2   -1    0    0  501    0  0.00000000000E+00  0.00000000000E+00  0.70935970318E+01  0.70935970318E+01  0.00000000000E+00 0. -1.
         -2   -1    0    0    0  501 -0.00000000000E+00 -0.00000000000E+00 -0.22890952151E+02  0.22890952151E+02  0.00000000000E+00 0.  1.
        -11    1    1    2    0    0  0.11136561734E+02 -0.49081872911E+00 -0.63507790441E+00  0.11165448232E+02  0.00000000000E+00 0. -1.
         11    1    1    2    0    0 -0.11136561734E+02  0.49081872911E+00 -0.15162277215E+02  0.18819100951E+02  0.00000000000E+00 0.  1.
<mgrwt>
<rscale>  0 0.25485619E+02</rscale>
<asrwt>0</asrwt>
<pdfrwt beam="1">  1        2 0.10913226E-02 0.25485619E+02</pdfrwt>
<pdfrwt beam="2">  1       -2 0.35216850E-02 0.25485619E+02</pdfrwt>
<totfact> 0.21658590E+06</totfact>
</mgrwt>
</event>
<event>
 4    1  0.2165211E+000  0.3518925E+02  0.7546771E-02  0.1546926E+00
         -1   -1    0    0    0  501 -0.00000000000E+00  0.00000000000E+00  0.13983934838E+03  0.13983934838E+03  0.00000000000E+00 0.  1.
          1   -1    0    0  501    0  0.00000000000E+00 -0.00000000000E+00 -0.22137602814E+01  0.22137602814E+01  0.00000000000E+00 0. -1.
        -13    1    1    2    0    0 -0.49022156197E+01  0.16373872710E+02  0.51956723687E+02  0.54695855069E+02  0.00000000000E+00 0.  1.
         13    1    1    2    0    0  0.49022156197E+01 -0.16373872710E+02  0.85668864410E+02  0.87357253590E+02  0.00000000000E+00 0. -1.
<mgrwt>
<rscale>  0 0.35189248E+02</rscale>
<asrwt>0</asrwt>
<pdfrwt beam="2">  1        1 0.34057861E-03 0.35189248E+02</pdfrwt>
<pdfrwt beam="1">  1       -1 0.21513739E-01 0.35189248E+02</pdfrwt>
<totfact> 0.82090686E+05</totfact>
</mgrwt>
</event>
<event>
 4    1  0.2165211E+000  0.2204700E+02  0.7546771E-02  0.1707440E+00
          3   -1    0    0  501    0  0.00000000000E+00  0.00000000000E+00  0.17145578547E+01  0.17145578547E+01  0.00000000000E+00 0.  1.
         -3   -1    0    0    0  501 -0.00000000000E+00 -0.00000000000E+00 -0.70873965805E+02  0.70873965805E+02  0.00000000000E+00 0. -1.
        -13    1    1    2    0    0 -0.16233262984E+01 -0.10669630505E+02 -0.41972186221E+02  0.43337519767E+02  0.00000000000E+00 0.  1.
         13    1    1    2    0    0  0.16233262984E+01  0.10669630505E+02 -0.27187221730E+02  0.29251003893E+02  0.00000000000E+00 0. -1.
<mgrwt>
<rscale>  0 0.22046997E+02</rscale>
<asrwt>0</asrwt>
<pdfrwt beam="1">  1        3 0.26377814E-03 0.22046997E+02</pdfrwt>
<pdfrwt beam="2">  1       -3 0.10903687E-01 0.22046997E+02</pdfrwt>
<totfact> 0.12307409E+06</totfact>
</mgrwt>
</event>
<event>
 4    1  0.2165211E+000  0.6351945E+02  0.7546771E-02  0.1383629E+00
         -2   -1    0    0    0  501 -0.00000000000E+00  0.00000000000E+00  0.31396438862E+02  0.31396438862E+02  0.00000000000E+00 0.  1.
          2   -1    0    0  501    0  0.00000000000E+00 -0.00000000000E+00 -0.32127217756E+02  0.32127217756E+02  0.00000000000E+00 0. -1.
        -13    1    1    2    0    0 -0.15591443891E+02  0.18272300916E+02 -0.21144399676E+02  0.32000870942E+02  0.00000000000E+00 0. -1.
         13    1    1    2    0    0  0.15591443891E+02 -0.18272300916E+02  0.20413620782E+02  0.31522785677E+02  0.00000000000E+00 0.  1.
<mgrwt>
<rscale>  0 0.63519453E+02</rscale>
<asrwt>0</asrwt>
<pdfrwt beam="2">  1        2 0.49426489E-02 0.63519453E+02</pdfrwt>
<pdfrwt beam="1">  1       -2 0.48302213E-02 0.63519453E+02</pdfrwt>
<totfact> 0.25072361E+05</totfact>
</mgrwt>
</event>
<event>
 4    1  0.2165211E+000  0.2058472E+02  0.7546771E-02  0.1733944E+00
         -2   -1    0    0    0  501 -0.00000000000E+00  0.00000000000E+00  0.18282786752E+02  0.18282786752E+02  0.00000000000E+00 0.  1.
          2   -1    0    0  501    0  0.00000000000E+00 -0.00000000000E+00 -0.57941218179E+01  0.57941218179E+01  0.00000000000E+00 0. -1.
        -11    1    1    2    0    0  0.64462555953E+01 -0.79817474834E+01  0.72018672037E+01  0.12535126458E+02  0.00000000000E+00 0.  1.
         11    1    1    2    0    0 -0.64462555953E+01  0.79817474834E+01  0.52867977307E+01  0.11541782113E+02  0.00000000000E+00 0. -1.
<mgrwt>
<rscale>  0 0.20584722E+02</rscale>
<asrwt>0</asrwt>
<pdfrwt beam="2">  1        2 0.89140337E-03 0.20584722E+02</pdfrwt>
<pdfrwt beam="1">  1       -2 0.28127364E-02 0.20584722E+02</pdfrwt>
<totfact> 0.35420741E+06</totfact>
</mgrwt>
</event>
<event>
 4    1  0.2165211E+000  0.2940754E+02  0.7546771E-02  0.1604731E+00
         -4   -1    0    0    0  501 -0.00000000000E+00  0.00000000000E+00  0.31079791410E+01  0.31079791410E+01  0.00000000000E+00 0.  1.
          4   -1    0    0  501    0  0.00000000000E+00 -0.00000000000E+00 -0.69563162899E+02  0.69563162899E+02  0.00000000000E+00 0. -1.
        -13    1    1    2    0    0  0.12709709706E+02  0.14444089787E+01 -0.51146212488E+02  0.52721514488E+02  0.00000000000E+00 0. -1.
         13    1    1    2    0    0 -0.12709709706E+02 -0.14444089787E+01 -0.15308971270E+02  0.19949627552E+02  0.00000000000E+00 0.  1.
<mgrwt>
<rscale>  0 0.29407540E+02</rscale>
<asrwt>0</asrwt>
<pdfrwt beam="2">  1        4 0.10702024E-01 0.29407540E+02</pdfrwt>
<pdfrwt beam="1">  1       -4 0.47815068E-03 0.29407540E+02</pdfrwt>
<totfact> 0.47042457E+05</totfact>
</mgrwt>
</event>
<event>
 4    1  0.2165211E+000  0.2500912E+02  0.7546771E-02  0.1660871E+00
          2   -1    0    0  501    0  0.00000000000E+00  0.00000000000E+00  0.34402604306E+02  0.34402604306E+02  0.00000000000E+00 0. -1.
         -2   -1    0    0    0  501 -0.00000000000E+00 -0.00000000000E+00 -0.45451216517E+01  0.45451216517E+01  0.00000000000E+00 0.  1.
        -11    1    1    2    0    0  0.15997393677E+01 -0.11769633507E+02  0.88410355728E+01  0.14807003374E+02  0.00000000000E+00 0.  1.
         11    1    1    2    0    0 -0.15997393677E+01  0.11769633507E+02  0.21016447082E+02  0.24140722584E+02  0.00000000000E+00 0. -1.
<mgrwt>
<rscale>  0 0.25009120E+02</rscale>
<asrwt>0</asrwt>
<pdfrwt beam="1">  1        2 0.52927082E-02 0.25009120E+02</pdfrwt>
<pdfrwt beam="2">  1       -2 0.69924951E-03 0.25009120E+02</pdfrwt>
<totfact> 0.26445622E+06</totfact>
</mgrwt>
</event>
<event>
 4    1  0.2165211E+000  0.3881979E+02  0.7546771E-02  0.1517081E+00
          2   -1    0    0  501    0  0.00000000000E+00  0.00000000000E+00  0.80259758119E+02  0.80259758119E+02  0.00000000000E+00 0. -1.
         -2   -1    0    0    0  501 -0.00000000000E+00 -0.00000000000E+00 -0.46940592607E+01  0.46940592607E+01  0.00000000000E+00 0.  1.
        -11    1    1    2    0    0  0.12933971921E+02  0.58675012702E+01  0.66735246593E+02  0.68229820010E+02  0.00000000000E+00 0. -1.
         11    1    1    2    0    0 -0.12933971921E+02 -0.58675012702E+01  0.88304522656E+01  0.16723997370E+02  0.00000000000E+00 0.  1.
<mgrwt>
<rscale>  0 0.38819792E+02</rscale>
<asrwt>0</asrwt>
<pdfrwt beam="1">  1        2 0.12347654E-01 0.38819792E+02</pdfrwt>
<pdfrwt beam="2">  1       -2 0.72216302E-03 0.38819792E+02</pdfrwt>
<totfact> 0.10674664E+06</totfact>
</mgrwt>
</event>
<event>
 4    1  0.2165211E+000  0.8924870E+02  0.7546771E-02  0.1304681E+00
          1   -1    0    0  501    0  0.00000000000E+00  0.00000000000E+00  0.11850292436E+03  0.11850292436E+03  0.00000000000E+00 0. -1.
         -1   -1    0    0    0  501 -0.00000000000E+00 -0.00000000000E+00 -0.16804080877E+02  0.16804080877E+02  0.00000000000E+00 0.  1.
        -13    1    1    2    0    0  0.38467516252E+02 -0.22586102257E+02  0.49023266836E+02  0.66280936272E+02  0.00000000000E+00 0. -1.
         13    1    1    2    0    0 -0.38467516252E+02  0.22586102257E+02  0.52675576648E+02  0.69026068967E+02  0.00000000000E+00 0.  1.
<mgrwt>
<rscale>  0 0.89248703E+02</rscale>
<asrwt>0</asrwt>
<pdfrwt beam="1">  1        1 0.18231219E-01 0.89248703E+02</pdfrwt>
<pdfrwt beam="2">  1       -1 0.25852433E-02 0.89248703E+02</pdfrwt>
<totfact> 0.11390884E+05</totfact>
</mgrwt>
</event>
<event>
 4    1  0.2165211E+000  0.3057427E+02  0.7546771E-02  0.1591826E+00
         -3   -1    0    0    0  501 -0.00000000000E+00  0.00000000000E+00  0.30554545961E+01  0.30554545961E+01  0.00000000000E+00 0. -1.
          3   -1    0    0  501    0  0.00000000000E+00 -0.00000000000E+00 -0.76485019123E+02  0.76485019123E+02  0.00000000000E+00 0.  1.
        -13    1    1    2    0    0  0.14912161716E+02  0.33643699578E+01 -0.36531729349E+02  0.39601247474E+02  0.00000000000E+00 0. -1.
         13    1    1    2    0    0 -0.14912161716E+02 -0.33643699578E+01 -0.36897835177E+02  0.39939226244E+02  0.00000000000E+00 0.  1.
<mgrwt>
<rscale>  0 0.30574270E+02</rscale>
<asrwt>0</asrwt>
<pdfrwt beam="2">  1        3 0.11766926E-01 0.30574270E+02</pdfrwt>
<pdfrwt beam="1">  1       -3 0.47006994E-03 0.30574270E+02</pdfrwt>
<totfact> 0.57701131E+05</totfact>
</mgrwt>
</event>
<event>
 4    1  0.2165211E+000  0.4216659E+02  0.7546771E-02  0.1492847E+00
          2   -1    0    0  501    0  0.00000000000E+00  0.00000000000E+00  0.87550885322E+01  0.87550885322E+01  0.00000000000E+00 0.  1.
         -2   -1    0    0    0  501 -0.00000000000E+00 -0.00000000000E+00 -0.50771085501E+02  0.50771085501E+02  0.00000000000E+00 0. -1.
        -11    1    1    2    0    0  0.11551272383E+02  0.10464812480E+02 -0.96591359527E+00  0.15616567580E+02  0.00000000000E+00 0.  1.
         11    1    1    2    0    0 -0.11551272383E+02 -0.10464812480E+02 -0.41050083373E+02  0.43909606453E+02  0.00000000000E+00 0. -1.
<mgrwt>
<rscale>  0 0.42166591E+02</rscale>
<asrwt>0</asrwt>
<pdfrwt beam="1">  1        2 0.13469367E-02 0.42166591E+02</pdfrwt>
<pdfrwt beam="2">  1       -2 0.78109361E-02 0.42166591E+02</pdfrwt>
<totfact> 0.61109442E+05</totfact>
</mgrwt>
</event>
<event>
 4    1  0.2165211E+000  0.2985438E+02  0.7546771E-02  0.1599704E+00
         -1   -1    0    0    0  501 -0.00000000000E+00  0.00000000000E+00  0.51734673863E+02  0.51734673863E+02  0.00000000000E+00 0.  1.
          1   -1    0    0  501    0  0.00000000000E+00 -0.00000000000E+00 -0.43069946869E+01  0.43069946869E+01  0.00000000000E+00 0. -1.
        -13    1    1    2    0    0  0.10746778067E+02 -0.78782653701E+01  0.36342680248E+02  0.38708535385E+02  0.00000000000E+00 0.  1.
         13    1    1    2    0    0 -0.10746778067E+02  0.78782653701E+01  0.11084998928E+02  0.17333133165E+02  0.00000000000E+00 0. -1.
<mgrwt>
<rscale>  0 0.29854378E+02</rscale>
<asrwt>0</asrwt>
<pdfrwt beam="2">  1        1 0.66261460E-03 0.29854378E+02</pdfrwt>
<pdfrwt beam="1">  1       -1 0.79591802E-02 0.29854378E+02</pdfrwt>
<totfact> 0.14032030E+06</totfact>
</mgrwt>
</event>
<event>
 4    1  0.2165211E+000  0.2380240E+02  0.7546771E-02  0.1678824E+00
          4   -1    0    0  501    0  0.00000000000E+00  0.00000000000E+00  0.24907764751E+02  0.24907764751E+02  0.00000000000E+00 0.  1.
         -4   -1    0    0    0  501 -0.00000000000E+00 -0.00000000000E+00 -0.56865231791E+01  0.56865231791E+01  0.00000000000E+00 0. -1.
        -13    1    1    2    0    0 -0.11410062221E+02  0.13236778485E+01  0.56080696064E+01  0.12782491449E+02  0.00000000000E+00 0. -1.
         13    1    1    2    0    0  0.11410062221E+02 -0.13236778485E+01  0.13613171966E+02  0.17811796482E+02  0.00000000000E+00 0.  1.
<mgrwt>
<rscale>  0 0.23802402E+02</rscale>
<asrwt>0</asrwt>
<pdfrwt beam="1">  1        4 0.38319638E-02 0.23802402E+02</pdfrwt>
<pdfrwt beam="2">  1       -4 0.87484973E-03 0.23802402E+02</pdfrwt>
<totfact> 0.86386398E+05</totfact>
</mgrwt>
</event>
<event>
 4    1  0.2165211E+000  0.2273827E+02  0.7546771E-02  0.1695788E+00
          2   -1    0    0  501    0  0.00000000000E+00  0.00000000000E+00  0.29953553312E+01  0.29953553312E+01  0.00000000000E+00 0.  1.
         -2   -1    0    0    0  501 -0.00000000000E+00 -0.00000000000E+00 -0.43152569102E+02  0.43152569102E+02  0.00000000000E+00 0. -1.
        -13    1    1    2    0    0  0.57929249945E+01  0.90280896057E+01 -0.12432679231E+02  0.16420593619E+02  0.00000000000E+00 0.  1.
         13    1    1    2    0    0 -0.57929249945E+01 -0.90280896057E+01 -0.27724534540E+02  0.29727330815E+02  0.00000000000E+00 0. -1.
<mgrwt>
<rscale>  0 0.22738274E+02</rscale>
<asrwt>0</asrwt>
<pdfrwt beam="1">  1        2 0.46082395E-03 0.22738274E+02</pdfrwt>
<pdfrwt beam="2">  1       -2 0.66388560E-02 0.22738274E+02</pdfrwt>
<totfact> 0.26056113E+06</totfact>
</mgrwt>
</event>
<event>
 4    1  0.2165211E+000  0.5231243E+02  0.7546771E-02  0.1433254E+00
         -2   -1    0    0    0  501 -0.00000000000E+00  0.00000000000E+00  0.22748193771E+02  0.22748193771E+02  0.00000000000E+00 0. -1.
          2   -1    0    0  501    0  0.00000000000E+00 -0.00000000000E+00 -0.30074803492E+02  0.30074803492E+02  0.00000000000E+00 0.  1.
        -11    1    1    2    0    0  0.19458264490E+02  0.13406942292E+02 -0.14987812204E+02  0.27982220663E+02  0.00000000000E+00 0.  1.
         11    1    1    2    0    0 -0.19458264490E+02 -0.13406942292E+02  0.76612024839E+01  0.24840776600E+02  0.00000000000E+00 0. -1.
<mgrwt>
<rscale>  0 0.52312425E+02</rscale>
<asrwt>0</asrwt>
<pdfrwt beam="2">  1        2 0.46268929E-02 0.52312425E+02</pdfrwt>
<pdfrwt beam="1">  1       -2 0.34997221E-02 0.52312425E+02</pdfrwt>
<totfact> 0.41704243E+05</totfact>
</mgrwt>
</event>
<event>
 4    1  0.2165211E+000  0.2374688E+02  0.7546771E-02  0.1679682E+00
         -1   -1    0    0    0  501 -0.00000000000E+00  0.00000000000E+00  0.27001352127E+02  0.27001352127E+02  0.00000000000E+00 0.  1.
          1   -1    0    0  501    0  0.00000000000E+00 -0.00000000000E+00 -0.52211690302E+01  0.52211690302E+01  0.00000000000E+00 0. -1.
        -11    1    1    2    0    0 -0.11540113641E+02 -0.15501543709E+01  0.77364890786E+01  0.13979644655E+02  0.00000000000E+00 0. -1.
         11    1    1    2    0    0  0.11540113641E+02  0.15501543709E+01  0.14043694019E+02  0.18242876503E+02  0.00000000000E+00 0.  1.
<mgrwt>
<rscale>  0 0.23746884E+02</rscale>
<asrwt>0</asrwt>
<pdfrwt beam="2">  1        1 0.80325679E-03 0.23746884E+02</pdfrwt>
<pdfrwt beam="1">  1       -1 0.41540541E-02 0.23746884E+02</pdfrwt>
<totfact> 0.25058290E+06</totfact>
</mgrwt>
</event>
<event>
 4    1  0.2165211E+000  0.5701167E+02  0.7546771E-02  0.1410818E+00
          2   -1    0    0  501    0  0.00000000000E+00  0.00000000000E+00  0.11767264246E+03  0.11767264246E+03  0.00000000000E+00 0.  1.
         -2   -1    0    0    0  501 -0.00000000000E+00 -0.00000000000E+00 -0.69054508552E+01  0.69054508552E+01  0.00000000000E+00 0. -1.
        -11    1    1    2    0    0 -0.21597304434E+02 -0.17074451848E+02  0.71530264024E+02  0.76645672651E+02  0.00000000000E+00 0.  1.
         11    1    1    2    0    0  0.21597304434E+02  0.17074451848E+02  0.39236927580E+02  0.47932420663E+02  0.00000000000E+00 0. -1.
<mgrwt>
<rscale>  0 0.57011671E+02</rscale>
<asrwt>0</asrwt>
<pdfrwt beam="1">  1        2 0.18103482E-01 0.57011671E+02</pdfrwt>
<pdfrwt beam="2">  1       -2 0.10623771E-02 0.57011671E+02</pdfrwt>
<totfact> 0.44781289E+05</totfact>
</mgrwt>
</event>
<event>
 4    1  0.2165211E+000  0.1180503E+03  0.7546771E-02  0.1246349E+00
         -1   -1    0    0    0  501 -0.00000000000E+00  0.00000000000E+00  0.51024165753E+02  0.51024165753E+02  0.00000000000E+00 0.  1.
          1   -1    0    0  501    0  0.00000000000E+00 -0.00000000000E+00 -0.68280716145E+02  0.68280716145E+02  0.00000000000E+00 0. -1.
        -11    1    1    2    0    0  0.47282640657E+02  0.15343998485E+02 -0.40792290950E+02  0.64304722983E+02  0.00000000000E+00 0.  1.
         11    1    1    2    0    0 -0.47282640657E+02 -0.15343998485E+02  0.23535740559E+02  0.55000158915E+02  0.00000000000E+00 0. -1.
<mgrwt>
<rscale>  0 0.11805027E+03</rscale>
<asrwt>0</asrwt>
<pdfrwt beam="2">  1        1 0.10504726E-01 0.11805027E+03</pdfrwt>
<pdfrwt beam="1">  1       -1 0.78498717E-02 0.11805027E+03</pdfrwt>
<totfact> 0.47484468E+04</totfact>
</mgrwt>
</event>
<event>
 4    1  0.2165211E+000  0.3484300E+02  0.7546771E-02  0.1549999E+00
         -2   -1    0    0    0  501 -0.00000000000E+00  0.00000000000E+00  0.21366082370E+02  0.21366082370E+02  0.00000000000E+00 0. -1.
          2   -1    0    0  501    0  0.00000000000E+00 -0.00000000000E+00 -0.14205158676E+02  0.14205158676E+02  0.00000000000E+00 0.  1.
        -11    1    1    2    0    0  0.10918128458E+02 -0.12950748926E+02 -0.57664349790E+00  0.16948744629E+02  0.00000000000E+00 0.  1.
         11    1    1    2    0    0 -0.10918128458E+02  0.12950748926E+02  0.77375671924E+01  0.18622496418E+02  0.00000000000E+00 0. -1.
<mgrwt>
<rscale>  0 0.34842996E+02</rscale>
<asrwt>0</asrwt>
<pdfrwt beam="2">  1        2 0.21854090E-02 0.34842996E+02</pdfrwt>
<pdfrwt beam="1">  1       -2 0.32870896E-02 0.34842996E+02</pdfrwt>
<totfact> 0.10731886E+06</totfact>
</mgrwt>
</event>
<event>
 4    1  0.2165211E+000  0.3246034E+02  0.7546771E-02  0.1572384E+00
         -2   -1    0    0    0  501 -0.00000000000E+00  0.00000000000E+00  0.81729823120E+02  0.81729823120E+02  0.00000000000E+00 0.  1.
          2   -1    0    0  501    0  0.00000000000E+00 -0.00000000000E+00 -0.32230397958E+01  0.32230397958E+01  0.00000000000E+00 0. -1.
        -13    1    1    2    0    0 -0.66530159618E+01 -0.13294687016E+02  0.22210454454E+02  0.26726683507E+02  0.00000000000E+00 0. -1.
         13    1    1    2    0    0  0.66530159618E+01  0.13294687016E+02  0.56296328871E+02  0.58226179409E+02  0.00000000000E+00 0.  1.
<mgrwt>
<rscale>  0 0.32460343E+02</rscale>
<asrwt>0</asrwt>
<pdfrwt beam="2">  1        2 0.49585234E-03 0.32460343E+02</pdfrwt>
<pdfrwt beam="1">  1       -2 0.12573817E-01 0.32460343E+02</pdfrwt>
<totfact> 0.10389513E+06</totfact>
</mgrwt>
</event>
<event>
 4    1  0.2165211E+000  0.2353105E+02  0.7546771E-02  0.1683044E+00
          4   -1    0    0  501    0  0.00000000000E+00  0.00000000000E+00  0.79155418815E+02  0.79155418815E+02  0.00000000000E+00 0.  1.
         -4   -1    0    0    0  501 -0.00000000000E+00 -0.00000000000E+00 -0.17488069005E+01  0.17488069005E+01  0.00000000000E+00 0. -1.
        -13    1    1    2    0    0  0.95933300519E+01  0.33792668703E+01  0.18369636970E+02  0.20997499577E+02  0.00000000000E+00 0. -1.
         13    1    1    2    0    0 -0.95933300519E+01 -0.33792668703E+01  0.59036974944E+02  0.59906726139E+02  0.00000000000E+00 0.  1.
<mgrwt>
<rscale>  0 0.23531047E+02</rscale>
<asrwt>0</asrwt>
<pdfrwt beam="1">  1        4 0.12177754E-01 0.23531047E+02</pdfrwt>
<pdfrwt beam="2">  1       -4 0.26904728E-03 0.23531047E+02</pdfrwt>
<totfact> 0.74326185E+05</totfact>
</mgrwt>
</event>
<event>
 4    1  0.2165211E+000  0.2927631E+02  0.7546771E-02  0.1606229E+00
          2   -1    0    0  501    0  0.00000000000E+00  0.00000000000E+00  0.55228996883E+01  0.55228996883E+01  0.00000000000E+00 0.  1.
         -2   -1    0    0    0  501 -0.00000000000E+00 -0.00000000000E+00 -0.38797651490E+02  0.38797651490E+02  0.00000000000E+00 0. -1.
        -11    1    1    2    0    0 -0.71201702222E+01 -0.76274081517E+01 -0.32179556971E+02  0.33828953072E+02  0.00000000000E+00 0. -1.
         11    1    1    2    0    0  0.71201702222E+01  0.76274081517E+01 -0.10951948308E+01  0.10491598106E+02  0.00000000000E+00 0.  1.
<mgrwt>
<rscale>  0 0.29276307E+02</rscale>
<asrwt>0</asrwt>
<pdfrwt beam="1">  1        2 0.84967686E-03 0.29276307E+02</pdfrwt>
<pdfrwt beam="2">  1       -2 0.59688696E-02 0.29276307E+02</pdfrwt>
<totfact> 0.14914718E+06</totfact>
</mgrwt>
</event>
<event>
 4    1  0.2165211E+000  0.3951367E+02  0.7546771E-02  0.1511821E+00
         -2   -1    0    0    0  501 -0.00000000000E+00  0.00000000000E+00  0.56108685132E+01  0.56108685132E+01  0.00000000000E+00 0. -1.
          2   -1    0    0  501    0  0.00000000000E+00 -0.00000000000E+00 -0.69567209777E+02  0.69567209777E+02  0.00000000000E+00 0.  1.
        -13    1    1    2    0    0  0.15448414981E+02 -0.40670433030E+01 -0.98608358947E+01  0.18773131098E+02  0.00000000000E+00 0. -1.
         13    1    1    2    0    0 -0.15448414981E+02  0.40670433030E+01 -0.54095505369E+02  0.56404947193E+02  0.00000000000E+00 0.  1.
<mgrwt>
<rscale>  0 0.39513667E+02</rscale>
<asrwt>0</asrwt>
<pdfrwt beam="2">  1        2 0.10702647E-01 0.39513667E+02</pdfrwt>
<pdfrwt beam="1">  1       -2 0.86321057E-03 0.39513667E+02</pdfrwt>
<totfact> 0.99084259E+05</totfact>
</mgrwt>
</event>
<event>
 4    1  0.2165211E+000  0.3438757E+02  0.7546771E-02  0.1554107E+00
          2   -1    0    0  501    0  0.00000000000E+00  0.00000000000E+00  0.16073903539E+02  0.16073903539E+02  0.00000000000E+00 0. -1.
         -2   -1    0    0    0  501 -0.00000000000E+00 -0.00000000000E+00 -0.18391691161E+02  0.18391691161E+02  0.00000000000E+00 0.  1.
        -13    1    1    2    0    0  0.12560743714E+02 -0.14294928675E+01  0.10521325647E+02  0.16447310597E+02  0.00000000000E+00 0. -1.
         13    1    1    2    0    0 -0.12560743714E+02  0.14294928675E+01 -0.12839113269E+02  0.18018284104E+02  0.00000000000E+00 0.  1.
<mgrwt>
<rscale>  0 0.34387572E+02</rscale>
<asrwt>0</asrwt>
<pdfrwt beam="1">  1        2 0.24729082E-02 0.34387572E+02</pdfrwt>
<pdfrwt beam="2">  1       -2 0.28294909E-02 0.34387572E+02</pdfrwt>
<totfact> 0.11251340E+06</totfact>
</mgrwt>
</event>
<event>
 4    1  0.2165211E+000  0.3299237E+02  0.7546771E-02  0.1567187E+00
         -4   -1    0    0    0  501 -0.00000000000E+00  0.00000000000E+00  0.97401579629E+01  0.97401579629E+01  0.00000000000E+00 0.  1.
          4   -1    0    0  501    0  0.00000000000E+00 -0.00000000000E+00 -0.27938370556E+02  0.27938370556E+02  0.00000000000E+00 0. -1.
        -13    1    1    2    0    0  0.13912906997E+02 -0.87863009195E+01 -0.10429017533E+02  0.19481593150E+02  0.00000000000E+00 0. -1.
         13    1    1    2    0    0 -0.13912906997E+02  0.87863009195E+01 -0.77691950608E+01  0.18196935370E+02  0.00000000000E+00 0.  1.
<mgrwt>
<rscale>  0 0.32992371E+02</rscale>
<asrwt>0</asrwt>
<pdfrwt beam="2">  1        4 0.42982109E-02 0.32992371E+02</pdfrwt>
<pdfrwt beam="1">  1       -4 0.14984858E-02 0.32992371E+02</pdfrwt>
<totfact> 0.40692739E+05</totfact>
</mgrwt>
</event>
<event>
 4    1  0.2165211E+000  0.2894937E+02  0.7546771E-02  0.1610001E+00
         -4   -1    0    0    0  501 -0.00000000000E+00  0.00000000000E+00  0.17729485658E+02  0.17729485658E+02  0.00000000000E+00 0. -1.
          4   -1    0    0  501    0  0.00000000000E+00 -0.00000000000E+00 -0.11817403485E+02  0.11817403485E+02  0.00000000000E+00 0.  1.
        -13    1    1    2    0    0 -0.66286571206E+01 -0.10921041014E+02  0.99015147362E+01  0.16163175001E+02  0.00000000000E+00 0. -1.
         13    1    1    2    0    0  0.66286571206E+01  0.10921041014E+02 -0.39894325630E+01  0.13383714142E+02  0.00000000000E+00 0.  1.
<mgrwt>
<rscale>  0 0.28949369E+02</rscale>
<asrwt>0</asrwt>
<pdfrwt beam="2">  1        4 0.18180621E-02 0.28949369E+02</pdfrwt>
<pdfrwt beam="1">  1       -4 0.27276132E-02 0.28949369E+02</pdfrwt>
<totfact> 0.56483694E+05</totfact>
</mgrwt>
</event>
<event>
 4    1  0.2165211E+000  0.3321403E+02  0.7546771E-02  0.1565057E+00
          1   -1    0    0  501    0  0.00000000000E+00  0.00000000000E+00  0.11861243467E+02  0.11861243467E+02  0.00000000000E+00 0.  1.
         -1   -1    0    0    0  501 -0.00000000000E+00 -0.00000000000E+00 -0.23251601215E+02  0.23251601215E+02  0.00000000000E+00 0. -1.
        -13    1    1    2    0    0  0.54110838290E+01  0.10167913410E+02 -0.18342678397E+02  0.21659181473E+02  0.00000000000E+00 0. -1.
         13    1    1    2    0    0 -0.54110838290E+01 -0.10167913410E+02  0.69523206483E+01  0.13453663208E+02  0.00000000000E+00 0.  1.
<mgrwt>
<rscale>  0 0.33214027E+02</rscale>
<asrwt>0</asrwt>
<pdfrwt beam="1">  1        1 0.18248067E-02 0.33214027E+02</pdfrwt>
<pdfrwt beam="2">  1       -1 0.35771694E-02 0.33214027E+02</pdfrwt>
<totfact> 0.11680847E+06</totfact>
</mgrwt>
</event>
<event>
 4    1  0.2165211E+000  0.3387049E+02  0.7546771E-02  0.1558866E+00
         -4   -1    0    0    0  501 -0.00000000000E+00  0.00000000000E+00  0.32412698178E+01  0.32412698178E+01  0.00000000000E+00 0. -1.
          4   -1    0    0  501    0  0.00000000000E+00 -0.00000000000E+00 -0.88484612411E+02  0.88484612411E+02  0.00000000000E+00 0.  1.
        -13    1    1    2    0    0 -0.12271625854E+02  0.44742644374E+01 -0.13430196112E+02  0.18734513897E+02  0.00000000000E+00 0. -1.
         13    1    1    2    0    0  0.12271625854E+02 -0.44742644374E+01 -0.71813146481E+02  0.72991368331E+02  0.00000000000E+00 0.  1.
<mgrwt>
<rscale>  0 0.33870489E+02</rscale>
<asrwt>0</asrwt>
<pdfrwt beam="2">  1        4 0.13613014E-01 0.33870489E+02</pdfrwt>
<pdfrwt beam="1">  1       -4 0.49865700E-03 0.33870489E+02</pdfrwt>
<totfact> 0.32330119E+05</totfact>
</mgrwt>
</event>
<event>
 4    1  0.2165211E+000  0.4982467E+02  0.7546771E-02  0.1446290E+00
          2   -1    0    0  501    0  0.00000000000E+00  0.00000000000E+00  0.14317103646E+02  0.14317103646E+02  0.00000000000E+00 0.  1.
         -2   -1    0    0    0  501 -0.00000000000E+00 -0.00000000000E+00 -0.43348460552E+02  0.43348460552E+02  0.00000000000E+00 0. -1.
        -13    1    1    2    0    0 -0.13446267764E+02 -0.16751654618E+02 -0.29118930989E+02  0.36184695537E+02  0.00000000000E+00 0. -1.
         13    1    1    2    0    0  0.13446267764E+02  0.16751654618E+02  0.87574082578E-01  0.21480868661E+02  0.00000000000E+00 0.  1.
<mgrwt>
<rscale>  0 0.49824669E+02</rscale>
<asrwt>0</asrwt>
<pdfrwt beam="1">  1        2 0.22026313E-02 0.49824669E+02</pdfrwt>
<pdfrwt beam="2">  1       -2 0.66689940E-02 0.49824669E+02</pdfrwt>
<totfact> 0.42126291E+05</totfact>
</mgrwt>
</event>
<event>
 4    1  0.2165211E+000  0.2164303E+02  0.7546771E-02  0.1714500E+00
         -1   -1    0    0    0  501 -0.00000000000E+00  0.00000000000E+00  0.39267679784E+02  0.39267679784E+02  0.00000000000E+00 0. -1.
          1   -1    0    0  501    0  0.00000000000E+00 -0.00000000000E+00 -0.29822296940E+01  0.29822296940E+01  0.00000000000E+00 0.  1.
        -13    1    1    2    0    0 -0.85828818167E+01 -0.63050289715E+01  0.21890596623E+02  0.24343735768E+02  0.00000000000E+00 0.  1.
         13    1    1    2    0    0  0.85828818167E+01  0.63050289715E+01  0.14394853466E+02  0.17906173710E+02  0.00000000000E+00 0. -1.
<mgrwt>
<rscale>  0 0.21643035E+02</rscale>
<asrwt>0</asrwt>
<pdfrwt beam="2">  1        1 0.45880460E-03 0.21643035E+02</pdfrwt>
<pdfrwt beam="1">  1       -1 0.60411811E-02 0.21643035E+02</pdfrwt>
<totfact> 0.29993846E+06</totfact>
</mgrwt>
</event>
<event>
 4    1  0.2165211E+000  0.3802217E+02  0.7546771E-02  0.1523292E+00
         -4   -1    0    0    0  501 -0.00000000000E+00  0.00000000000E+00  0.82418507969E+01  0.82418507969E+01  0.00000000000E+00 0.  1.
          4   -1    0    0  501    0  0.00000000000E+00 -0.00000000000E+00 -0.43851956447E+02  0.43851956447E+02  0.00000000000E+00 0. -1.
        -11    1    1    2    0    0 -0.18691075851E+02  0.28467632879E+01 -0.20531809763E+02  0.27910850754E+02  0.00000000000E+00 0. -1.
         11    1    1    2    0    0  0.18691075851E+02 -0.28467632879E+01 -0.15078295887E+02  0.24182956489E+02  0.00000000000E+00 0.  1.
<mgrwt>
<rscale>  0 0.38022166E+02</rscale>
<asrwt>0</asrwt>
<pdfrwt beam="2">  1        4 0.67464548E-02 0.38022166E+02</pdfrwt>
<pdfrwt beam="1">  1       -4 0.12679770E-02 0.38022166E+02</pdfrwt>
<totfact> 0.27824582E+05</totfact>
</mgrwt>
</event>
<event>
 4    1  0.2165211E+000  0.2798885E+02  0.7546771E-02  0.1621446E+00
          2   -1    0    0  501    0  0.00000000000E+00  0.00000000000E+00  0.37242457984E+01  0.37242457984E+01  0.00000000000E+00 0. -1.
         -2   -1    0    0    0  501 -0.00000000000E+00 -0.00000000000E+00 -0.52586191819E+02  0.52586191819E+02  0.00000000000E+00 0.  1.
        -13    1    1    2    0    0 -0.69451888162E+01 -0.86364922420E+01 -0.41622821918E+02  0.43073007213E+02  0.00000000000E+00 0.  1.
         13    1    1    2    0    0  0.69451888162E+01  0.86364922420E+01 -0.72391241024E+01  0.13237430404E+02  0.00000000000E+00 0. -1.
<mgrwt>
<rscale>  0 0.27988848E+02</rscale>
<asrwt>0</asrwt>
<pdfrwt beam="1">  1        2 0.57296093E-03 0.27988848E+02</pdfrwt>
<pdfrwt beam="2">  1       -2 0.80901828E-02 0.27988848E+02</pdfrwt>
<totfact> 0.15845863E+06</totfact>
</mgrwt>
</event>
<event>
 4    1  0.2165211E+000  0.2299888E+02  0.7546771E-02  0.1691528E+00
          2   -1    0    0  501    0  0.00000000000E+00  0.00000000000E+00  0.13265557969E+01  0.13265557969E+01  0.00000000000E+00 0.  1.
         -2   -1    0    0    0  501 -0.00000000000E+00 -0.00000000000E+00 -0.99684594630E+02  0.99684594630E+02  0.00000000000E+00 0. -1.
        -13    1    1    2    0    0  0.10935747862E+01 -0.11430835746E+02 -0.46481367448E+02  0.47878778509E+02  0.00000000000E+00 0. -1.
         13    1    1    2    0    0 -0.10935747862E+01  0.11430835746E+02 -0.51876671384E+02  0.53132371918E+02  0.00000000000E+00 0.  1.
<mgrwt>
<rscale>  0 0.22998885E+02</rscale>
<asrwt>0</asrwt>
<pdfrwt beam="1">  1        2 0.20408549E-03 0.22998885E+02</pdfrwt>
<pdfrwt beam="2">  1       -2 0.15336093E-01 0.22998885E+02</pdfrwt>
<totfact> 0.21858421E+06</totfact>
</mgrwt>
</event>
<event>
 4    1  0.2165211E+000  0.3768656E+02  0.7546771E-02  0.1525960E+00
         -1   -1    0    0    0  501 -0.00000000000E+00  0.00000000000E+00  0.59204891727E+02  0.59204891727E+02  0.00000000000E+00 0.  1.
          1   -1    0    0  501    0  0.00000000000E+00 -0.00000000000E+00 -0.59972953031E+01  0.59972953031E+01  0.00000000000E+00 0. -1.
        -13    1    1    2    0    0  0.31138932241E+01 -0.15790411776E+02  0.43558579745E+02  0.46436874404E+02  0.00000000000E+00 0.  1.
         13    1    1    2    0    0 -0.31138932241E+01  0.15790411776E+02  0.96490166792E+01  0.18765312626E+02  0.00000000000E+00 0. -1.
<mgrwt>
<rscale>  0 0.37686561E+02</rscale>
<asrwt>0</asrwt>
<pdfrwt beam="2">  1        1 0.92266086E-03 0.37686561E+02</pdfrwt>
<pdfrwt beam="1">  1       -1 0.91084444E-02 0.37686561E+02</pdfrwt>
<totfact> 0.79691242E+05</totfact>
</mgrwt>
</event>
<event>
 4    1  0.2165211E+000  0.2773903E+02  0.7546771E-02  0.1624515E+00
          2   -1    0    0  501    0  0.00000000000E+00  0.00000000000E+00  0.78985298874E+02  0.78985298874E+02  0.00000000000E+00 0. -1.
         -2   -1    0    0    0  501 -0.00000000000E+00 -0.00000000000E+00 -0.24354327243E+01  0.24354327243E+01  0.00000000000E+00 0.  1.
        -13    1    1    2    0    0  0.92011955097E+01  0.92808227390E+01  0.24643364209E+02  0.27894283806E+02  0.00000000000E+00 0. -1.
         13    1    1    2    0    0 -0.92011955097E+01 -0.92808227390E+01  0.51906501941E+02  0.53526447792E+02  0.00000000000E+00 0.  1.
<mgrwt>
<rscale>  0 0.27739025E+02</rscale>
<asrwt>0</asrwt>
<pdfrwt beam="1">  1        2 0.12151583E-01 0.27739025E+02</pdfrwt>
<pdfrwt beam="2">  1       -2 0.37468202E-03 0.27739025E+02</pdfrwt>
<totfact> 0.23817425E+06</totfact>
</mgrwt>
</event>
<event>
 4    1  0.2165211E+000  0.5450243E+02  0.7546771E-02  0.1422467E+00
         -2   -1    0    0    0  501 -0.00000000000E+00  0.00000000000E+00  0.40489829008E+02  0.40489829008E+02  0.00000000000E+00 0. -1.
          2   -1    0    0  501    0  0.00000000000E+00 -0.00000000000E+00 -0.18341121022E+02  0.18341121022E+02  0.00000000000E+00 0.  1.
        -13    1    1    2    0    0  0.17163042085E+02  0.15692135319E+02 -0.42600698308E+01  0.23642362814E+02  0.00000000000E+00 0.  1.
         13    1    1    2    0    0 -0.17163042085E+02 -0.15692135319E+02  0.26408777818E+02  0.35188587216E+02  0.00000000000E+00 0. -1.
<mgrwt>
<rscale>  0 0.54502435E+02</rscale>
<asrwt>0</asrwt>
<pdfrwt beam="2">  1        2 0.28217109E-02 0.54502435E+02</pdfrwt>
<pdfrwt beam="1">  1       -2 0.62292045E-02 0.54502435E+02</pdfrwt>
<totfact> 0.34399532E+05</totfact>
</mgrwt>
</event>
<event>
 4    1  0.2165211E+000  0.4280634E+02  0.7546771E-02  0.1488520E+00
          2   -1    0    0  501    0  0.00000000000E+00  0.00000000000E+00  0.85863711821E+02  0.85863711821E+02  0.00000000000E+00 0. -1.
         -2   -1    0    0    0  501 -0.00000000000E+00 -0.00000000000E+00 -0.53351495606E+01  0.53351495606E+01  0.00000000000E+00 0.  1.
        -11    1    1    2    0    0 -0.20147819472E+02  0.64241886158E+01  0.47295222676E+02  0.51807749582E+02  0.00000000000E+00 0. -1.
         11    1    1    2    0    0  0.20147819472E+02 -0.64241886158E+01  0.33233339584E+02  0.39391111799E+02  0.00000000000E+00 0.  1.
<mgrwt>
<rscale>  0 0.42806343E+02</rscale>
<asrwt>0</asrwt>
<pdfrwt beam="1">  1        2 0.13209801E-01 0.42806343E+02</pdfrwt>
<pdfrwt beam="2">  1       -2 0.82079230E-03 0.42806343E+02</pdfrwt>
<totfact> 0.85151883E+05</totfact>
</mgrwt>
</event>
<event>
 4    1  0.2165211E+000  0.2362556E+02  0.7546771E-02  0.1681566E+00
          2   -1    0    0  501    0  0.00000000000E+00  0.00000000000E+00  0.61396281821E+02  0.61396281821E+02  0.00000000000E+00 0.  1.
         -2   -1    0    0    0  501 -0.00000000000E+00 -0.00000000000E+00 -0.22728054683E+01  0.22728054683E+01  0.00000000000E+00 0. -1.
        -11    1    1    2    0    0 -0.49894050965E+00  0.11610218142E+02  0.35275801259E+02  0.37140655102E+02  0.00000000000E+00 0.  1.
         11    1    1    2    0    0  0.49894050965E+00 -0.11610218142E+02  0.23847675094E+02  0.26528432187E+02  0.00000000000E+00 0. -1.
<mgrwt>
<rscale>  0 0.23625563E+02</rscale>
<asrwt>0</asrwt>
<pdfrwt beam="1">  1        2 0.94455806E-02 0.23625563E+02</pdfrwt>
<pdfrwt beam="2">  1       -2 0.34966243E-03 0.23625563E+02</pdfrwt>
<totfact> 0.32888404E+06</totfact>
</mgrwt>
</event>
<event>
 4    1  0.2165211E+000  0.6880409E+02  0.7546771E-02  0.1364208E+00
         -1   -1    0    0    0  501 -0.00000000000E+00  0.00000000000E+00  0.47433088640E+02  0.47433088640E+02  0.00000000000E+00 0.  1.
          1   -1    0    0  501    0  0.00000000000E+00 -0.00000000000E+00 -0.24950951902E+02  0.24950951902E+02  0.00000000000E+00 0. -1.
        -11    1    1    2    0    0 -0.15663727265E+02 -0.24283829010E+02 -0.83968326189E+01  0.30092582164E+02  0.00000000000E+00 0. -1.
         11    1    1    2    0    0  0.15663727265E+02  0.24283829010E+02  0.30878969357E+02  0.42291458379E+02  0.00000000000E+00 0.  1.
<mgrwt>
<rscale>  0 0.68804090E+02</rscale>
<asrwt>0</asrwt>
<pdfrwt beam="2">  1        1 0.38386080E-02 0.68804090E+02</pdfrwt>
<pdfrwt beam="1">  1       -1 0.72973982E-02 0.68804090E+02</pdfrwt>
<totfact> 0.18620758E+05</totfact>
</mgrwt>
</event>
<event>
 4    1  0.2165211E+000  0.2908600E+02  0.7546771E-02  0.1608417E+00
         -2   -1    0    0    0  501 -0.00000000000E+00  0.00000000000E+00  0.26350128297E+02  0.26350128297E+02  0.00000000000E+00 0.  1.
          2   -1    0    0  501    0  0.00000000000E+00 -0.00000000000E+00 -0.80264810074E+01  0.80264810074E+01  0.00000000000E+00 0. -1.
        -13    1    1    2    0    0 -0.12778262266E+02  0.48956348018E+01  0.14981693381E+02  0.20290450049E+02  0.00000000000E+00 0.  1.
         13    1    1    2    0    0  0.12778262266E+02 -0.48956348018E+01  0.33419539090E+01  0.14086159256E+02  0.00000000000E+00 0. -1.
<mgrwt>
<rscale>  0 0.29085997E+02</rscale>
<asrwt>0</asrwt>
<pdfrwt beam="2">  1        2 0.12348432E-02 0.29085997E+02</pdfrwt>
<pdfrwt beam="1">  1       -2 0.40538658E-02 0.29085997E+02</pdfrwt>
<totfact> 0.15841466E+06</totfact>
</mgrwt>
</event>
<event>
 4    1  0.2165211E+000  0.2975734E+02  0.7546771E-02  0.1600787E+00
          4   -1    0    0  501    0  0.00000000000E+00  0.00000000000E+00  0.18902013042E+02  0.18902013042E+02  0.00000000000E+00 0. -1.
         -4   -1    0    0    0  501 -0.00000000000E+00 -0.00000000000E+00 -0.11711704766E+02  0.11711704766E+02  0.00000000000E+00 0.  1.
        -13    1    1    2    0    0 -0.11153306089E+02  0.96345630991E+01  0.14984249195E+01  0.14814395704E+02  0.00000000000E+00 0.  1.
         13    1    1    2    0    0  0.11153306089E+02 -0.96345630991E+01  0.56918833558E+01  0.15799322105E+02  0.00000000000E+00 0. -1.
<mgrwt>
<rscale>  0 0.29757338E+02</rscale>
<asrwt>0</asrwt>
<pdfrwt beam="1">  1        4 0.29080020E-02 0.29757338E+02</pdfrwt>
<pdfrwt beam="2">  1       -4 0.18018007E-02 0.29757338E+02</pdfrwt>
<totfact> 0.52874058E+05</totfact>
</mgrwt>
</event>
<event>
 4    1  0.2165211E+000  0.2462733E+02  0.7546771E-02  0.1666413E+00
          2   -1    0    0  501    0  0.00000000000E+00  0.00000000000E+00  0.52089540495E+02  0.52089540495E+02  0.00000000000E+00 0.  1.
         -2   -1    0    0    0  501 -0.00000000000E+00 -0.00000000000E+00 -0.29108797791E+01  0.29108797791E+01  0.00000000000E+00 0. -1.
        -13    1    1    2    0    0 -0.10274925525E+02 -0.27413556259E+01  0.38453346614E+02  0.39896729076E+02  0.00000000000E+00 0. -1.
         13    1    1    2    0    0  0.10274925525E+02  0.27413556259E+01  0.10725314102E+02  0.15103691198E+02  0.00000000000E+00 0.  1.
<mgrwt>
<rscale>  0 0.24627334E+02</rscale>
<asrwt>0</asrwt>
<pdfrwt beam="1">  1        2 0.80137748E-02 0.24627334E+02</pdfrwt>
<pdfrwt beam="2">  1       -2 0.44782770E-03 0.24627334E+02</pdfrwt>
<totfact> 0.29078366E+06</totfact>
</mgrwt>
</event>
<event>
 4    1  0.2165211E+000  0.2783620E+02  0.7546771E-02  0.1623317E+00
         -2   -1    0    0    0  501 -0.00000000000E+00  0.00000000000E+00  0.82900439230E+01  0.82900439230E+01  0.00000000000E+00 0. -1.
          2   -1    0    0  501    0  0.00000000000E+00 -0.00000000000E+00 -0.23367008409E+02  0.23367008409E+02  0.00000000000E+00 0.  1.
        -13    1    1    2    0    0  0.13357852193E+02  0.37715239186E+01 -0.87076617363E+01  0.16385358732E+02  0.00000000000E+00 0. -1.
         13    1    1    2    0    0 -0.13357852193E+02 -0.37715239186E+01 -0.63693027493E+01  0.15271693599E+02  0.00000000000E+00 0.  1.
<mgrwt>
<rscale>  0 0.27836201E+02</rscale>
<asrwt>0</asrwt>
<pdfrwt beam="2">  1        2 0.35949243E-02 0.27836201E+02</pdfrwt>
<pdfrwt beam="1">  1       -2 0.12753914E-02 0.27836201E+02</pdfrwt>
<totfact> 0.19642720E+06</totfact>
</mgrwt>
</event>
<event>
 4    1  0.2165211E+000  0.2961550E+02  0.7546771E-02  0.1602378E+00
         -2   -1    0    0    0  501 -0.00000000000E+00  0.00000000000E+00  0.69951625707E+01  0.69951625707E+01  0.00000000000E+00 0.  1.
          2   -1    0    0  501    0  0.00000000000E+00 -0.00000000000E+00 -0.31345868412E+02  0.31345868412E+02  0.00000000000E+00 0. -1.
        -11    1    1    2    0    0  0.95913236016E+01 -0.11279579161E+02 -0.11894532217E+02  0.18992163940E+02  0.00000000000E+00 0. -1.
         11    1    1    2    0    0 -0.95913236016E+01  0.11279579161E+02 -0.12456173624E+02  0.19348867043E+02  0.00000000000E+00 0.  1.
<mgrwt>
<rscale>  0 0.29615499E+02</rscale>
<asrwt>0</asrwt>
<pdfrwt beam="2">  1        2 0.48224413E-02 0.29615499E+02</pdfrwt>
<pdfrwt beam="1">  1       -2 0.10761788E-02 0.29615499E+02</pdfrwt>
<totfact> 0.17533404E+06</totfact>
</mgrwt>
</event>
<event>
 4    1  0.2165211E+000  0.4981126E+02  0.7546771E-02  0.1446362E+00
          4   -1    0    0  501    0  0.00000000000E+00  0.00000000000E+00  0.32760132281E+02  0.32760132281E+02  0.00000000000E+00 0.  1.
         -4   -1    0    0    0  501 -0.00000000000E+00 -0.00000000000E+00 -0.18934305473E+02  0.18934305473E+02  0.00000000000E+00 0. -1.
        -11    1    1    2    0    0 -0.12544893511E+02  0.19408477497E+02  0.16549826566E+02  0.28424639159E+02  0.00000000000E+00 0.  1.
         11    1    1    2    0    0  0.12544893511E+02 -0.19408477497E+02 -0.27239997574E+01  0.23269798595E+02  0.00000000000E+00 0. -1.
<mgrwt>
<rscale>  0 0.49811258E+02</rscale>
<asrwt>0</asrwt>
<pdfrwt beam="1">  1        4 0.50400203E-02 0.49811258E+02</pdfrwt>
<pdfrwt beam="2">  1       -4 0.29129701E-02 0.49811258E+02</pdfrwt>
<totfact> 0.14477699E+05</totfact>
</mgrwt>
</event>
<event>
 4    1  0.2165211E+000  0.2352903E+02  0.7546771E-02  0.1683076E+00
         -3   -1    0    0    0  501 -0.00000000000E+00  0.00000000000E+00  0.76219925122E+01  0.76219925122E+01  0.00000000000E+00 0. -1.
          3   -1    0    0  501    0  0.00000000000E+00 -0.00000000000E+00 -0.18158477227E+02  0.18158477227E+02  0.00000000000E+00 0.  1.
        -11    1    1    2    0    0  0.97126216325E+00 -0.10992460481E+02 -0.80054362933E+00  0.11064285233E+02  0.00000000000E+00 0.  1.
         11    1    1    2    0    0 -0.97126216325E+00  0.10992460481E+02 -0.97359410853E+01  0.14716184506E+02  0.00000000000E+00 0. -1.
<mgrwt>
<rscale>  0 0.23529027E+02</rscale>
<asrwt>0</asrwt>
<pdfrwt beam="2">  1        3 0.27936118E-02 0.23529027E+02</pdfrwt>
<pdfrwt beam="1">  1       -3 0.11726143E-02 0.23529027E+02</pdfrwt>
<totfact> 0.12263713E+06</totfact>
</mgrwt>
</event>
<event>
 4    1  0.2165211E+000  0.2474536E+02  0.7546771E-02  0.1664687E+00
         -2   -1    0    0    0  501 -0.00000000000E+00  0.00000000000E+00  0.82436940589E+01  0.82436940589E+01  0.00000000000E+00 0.  1.
          2   -1    0    0  501    0  0.00000000000E+00 -0.00000000000E+00 -0.18569735769E+02  0.18569735769E+02  0.00000000000E+00 0. -1.
        -13    1    1    2    0    0 -0.88463022407E+01 -0.86486970053E+01 -0.53384032929E+01  0.13474255933E+02  0.00000000000E+00 0.  1.
         13    1    1    2    0    0  0.88463022407E+01  0.86486970053E+01 -0.49876384172E+01  0.13339173895E+02  0.00000000000E+00 0. -1.
<mgrwt>
<rscale>  0 0.24745361E+02</rscale>
<asrwt>0</asrwt>
<pdfrwt beam="2">  1        2 0.28568824E-02 0.24745361E+02</pdfrwt>
<pdfrwt beam="1">  1       -2 0.12682607E-02 0.24745361E+02</pdfrwt>
<totfact> 0.25358297E+06</totfact>
</mgrwt>
</event>
<event>
 4    1  0.2165211E+000  0.3137240E+02  0.7546771E-02  0.1583396E+00
          2   -1    0    0  501    0  0.00000000000E+00  0.00000000000E+00  0.27444685778E+02  0.27444685778E+02  0.00000000000E+00 0. -1.
         -2   -1    0    0    0  501 -0.00000000000E+00 -0.00000000000E+00 -0.89655551134E+01  0.89655551134E+01  0.00000000000E+00 0.  1.
        -11    1    1    2    0    0 -0.81020958198E+01 -0.11791114351E+02  0.16705500939E+02  0.21994274163E+02  0.00000000000E+00 0. -1.
         11    1    1    2    0    0  0.81020958198E+01  0.11791114351E+02  0.17736297258E+01  0.14415966729E+02  0.00000000000E+00 0.  1.
<mgrwt>
<rscale>  0 0.31372398E+02</rscale>
<asrwt>0</asrwt>
<pdfrwt beam="1">  1        2 0.42222593E-02 0.31372398E+02</pdfrwt>
<pdfrwt beam="2">  1       -2 0.13793162E-02 0.31372398E+02</pdfrwt>
<totfact> 0.15006951E+06</totfact>
</mgrwt>
</event>
<event>
 4    1  0.2165211E+000  0.2325866E+02  0.7546771E-02  0.1687351E+00
         -4   -1    0    0    0  501 -0.00000000000E+00  0.00000000000E+00  0.48436755075E+02  0.48436755075E+02  0.00000000000E+00 0. -1.
          4   -1    0    0  501    0  0.00000000000E+00 -0.00000000000E+00 -0.27921206707E+01  0.27921206707E+01  0.00000000000E+00 0.  1.
        -13    1    1    2    0    0 -0.10937509293E+02 -0.39173359797E+01  0.23959651854E+02  0.26627796523E+02  0.00000000000E+00 0. -1.
         13    1    1    2    0    0  0.10937509293E+02  0.39173359797E+01  0.21684982550E+02  0.24601079223E+02  0.00000000000E+00 0.  1.
<mgrwt>
<rscale>  0 0.23258656E+02</rscale>
<asrwt>0</asrwt>
<pdfrwt beam="2">  1        4 0.42955706E-03 0.23258656E+02</pdfrwt>
<pdfrwt beam="1">  1       -4 0.74518078E-02 0.23258656E+02</pdfrwt>
<totfact> 0.83947143E+05</totfact>
</mgrwt>
</event>
<event>
 4    1  0.2165211E+000  0.6675904E+02  0.7546771E-02  0.1371474E+00
          1   -1    0    0  501    0  0.00000000000E+00  0.00000000000E+00  0.79439781691E+01  0.79439781691E+01  0.00000000000E+00 0. -1.
         -1   -1    0    0    0  501 -0.00000000000E+00 -0.00000000000E+00 -0.14025620451E+03  0.14025620451E+03  0.00000000000E+00 0.  1.
        -13    1    1    2    0    0 -0.17932744514E+01 -0.24470461749E+02 -0.15916420171E+02  0.29246397428E+02  0.00000000000E+00 0. -1.
         13    1    1    2    0    0  0.17932744514E+01  0.24470461749E+02 -0.11639580617E+03  0.11895378525E+03  0.00000000000E+00 0.  1.
<mgrwt>
<rscale>  0 0.66759036E+02</rscale>
<asrwt>0</asrwt>
<pdfrwt beam="1">  1        1 0.12221506E-02 0.66759036E+02</pdfrwt>
<pdfrwt beam="2">  1       -1 0.21577876E-01 0.66759036E+02</pdfrwt>
<totfact> 0.16911215E+05</totfact>
</mgrwt>
</event>
<event>
 4    1  0.2165211E+000  0.3873929E+02  0.7546771E-02  0.1517699E+00
          1   -1    0    0  501    0  0.00000000000E+00  0.00000000000E+00  0.59272780447E+01  0.59272780447E+01  0.00000000000E+00 0.  1.
         -1   -1    0    0    0  501 -0.00000000000E+00 -0.00000000000E+00 -0.63297719126E+02  0.63297719126E+02  0.00000000000E+00 0. -1.
        -11    1    1    2    0    0  0.53903463533E+00  0.18938639422E+02 -0.35882099257E+02  0.40576935180E+02  0.00000000000E+00 0.  1.
         11    1    1    2    0    0 -0.53903463533E+00 -0.18938639422E+02 -0.21488341824E+02  0.28648061990E+02  0.00000000000E+00 0. -1.
<mgrwt>
<rscale>  0 0.38739292E+02</rscale>
<asrwt>0</asrwt>
<pdfrwt beam="1">  1        1 0.91188886E-03 0.38739292E+02</pdfrwt>
<pdfrwt beam="2">  1       -1 0.97381113E-02 0.38739292E+02</pdfrwt>
<totfact> 0.74004031E+05</totfact>
</mgrwt>
</event>
<event>
 4    1  0.2165211E+000  0.2373128E+02  0.7546771E-02  0.1679923E+00
         -2   -1    0    0    0  501 -0.00000000000E+00  0.00000000000E+00  0.19400623065E+02  0.19400623065E+02  0.00000000000E+00 0.  1.
          2   -1    0    0  501    0  0.00000000000E+00 -0.00000000000E+00 -0.72571570530E+01  0.72571570530E+01  0.00000000000E+00 0. -1.
        -11    1    1    2    0    0  0.34254983825E+01 -0.99313756000E+01 -0.12457823379E+00  0.10506273374E+02  0.00000000000E+00 0. -1.
         11    1    1    2    0    0 -0.34254983825E+01  0.99313756000E+01  0.12268044246E+02  0.16151506744E+02  0.00000000000E+00 0.  1.
<mgrwt>
<rscale>  0 0.23731276E+02</rscale>
<asrwt>0</asrwt>
<pdfrwt beam="2">  1        2 0.11164857E-02 0.23731276E+02</pdfrwt>
<pdfrwt beam="1">  1       -2 0.29847112E-02 0.23731276E+02</pdfrwt>
<totfact> 0.25783283E+06</totfact>
</mgrwt>
</event>
<event>
 4    1  0.2165211E+000  0.2581094E+02  0.7546771E-02  0.1649620E+00
         -4   -1    0    0    0  501 -0.00000000000E+00  0.00000000000E+00  0.20048965633E+02  0.20048965633E+02  0.00000000000E+00 0.  1.
          4   -1    0    0  501    0  0.00000000000E+00 -0.00000000000E+00 -0.83072212604E+01  0.83072212604E+01  0.00000000000E+00 0. -1.
        -11    1    1    2    0    0  0.55862758775E+01  0.11113404962E+02  0.96506283530E+01  0.15743216814E+02  0.00000000000E+00 0.  1.
         11    1    1    2    0    0 -0.55862758775E+01 -0.11113404962E+02  0.20911160201E+01  0.12612970080E+02  0.00000000000E+00 0. -1.
<mgrwt>
<rscale>  0 0.25810943E+02</rscale>
<asrwt>0</asrwt>
<pdfrwt beam="2">  1        4 0.12780340E-02 0.25810943E+02</pdfrwt>
<pdfrwt beam="1">  1       -4 0.30844562E-02 0.25810943E+02</pdfrwt>
<totfact> 0.73159911E+05</totfact>
</mgrwt>
</event>
<event>
 4    1  0.2165211E+000  0.1655525E+03  0.7546771E-02  0.1182567E+00
          2   -1    0    0  501    0  0.00000000000E+00  0.00000000000E+00  0.52251732551E+03  0.52251732551E+03  0.00000000000E+00 0.  1.
         -2   -1    0    0    0  501 -0.00000000000E+00 -0.00000000000E+00 -0.13113270617E+02  0.13113270617E+02  0.00000000000E+00 0. -1.
        -13    1    1    2    0    0  0.68276124763E+02 -0.25519554204E+01  0.10350860087E+03  0.12402488518E+03  0.00000000000E+00 0. -1.
         13    1    1    2    0    0 -0.68276124763E+02  0.25519554204E+01  0.40589545402E+03  0.41160571095E+03  0.00000000000E+00 0.  1.
<mgrwt>
<rscale>  0 0.16555254E+03</rscale>
<asrwt>0</asrwt>
<pdfrwt beam="1">  1        2 0.80387265E-01 0.16555254E+03</pdfrwt>
<pdfrwt beam="2">  1       -2 0.20174267E-02 0.16555254E+03</pdfrwt>
<totfact> 0.42886933E+04</totfact>
</mgrwt>
</event>
<event>
 4    1  0.2165211E+000  0.2590323E+02  0.7546771E-02  0.1648357E+00
         -2   -1    0    0    0  501 -0.00000000000E+00  0.00000000000E+00  0.79877734408E+02  0.79877734408E+02  0.00000000000E+00 0.  1.
          2   -1    0    0  501    0  0.00000000000E+00 -0.00000000000E+00 -0.21000129978E+01  0.21000129978E+01  0.00000000000E+00 0. -1.
        -13    1    1    2    0    0 -0.10727695374E+02  0.32936581946E+01  0.59353116767E+02  0.60404669540E+02  0.00000000000E+00 0.  1.
         13    1    1    2    0    0  0.10727695374E+02 -0.32936581946E+01  0.18424604644E+02  0.21573077866E+02  0.00000000000E+00 0. -1.
<mgrwt>
<rscale>  0 0.25903226E+02</rscale>
<asrwt>0</asrwt>
<pdfrwt beam="2">  1        2 0.32307898E-03 0.25903226E+02</pdfrwt>
<pdfrwt beam="1">  1       -2 0.12288880E-01 0.25903226E+02</pdfrwt>
<totfact> 0.17565914E+06</totfact>
</mgrwt>
</event>
<event>
 4    1  0.2165211E+000  0.3958832E+02  0.7546771E-02  0.1511263E+00
         -2   -1    0    0    0  501 -0.00000000000E+00  0.00000000000E+00  0.11214212175E+02  0.11214212175E+02  0.00000000000E+00 0.  1.
          2   -1    0    0  501    0  0.00000000000E+00 -0.00000000000E+00 -0.34938589728E+02  0.34938589728E+02  0.00000000000E+00 0. -1.
        -13    1    1    2    0    0 -0.13280184073E+02 -0.13738453795E+02 -0.58381253306E+01  0.19979792518E+02  0.00000000000E+00 0. -1.
         13    1    1    2    0    0  0.13280184073E+02  0.13738453795E+02 -0.17886252222E+02  0.26173009385E+02  0.00000000000E+00 0.  1.
<mgrwt>
<rscale>  0 0.39588319E+02</rscale>
<asrwt>0</asrwt>
<pdfrwt beam="2">  1        2 0.53751676E-02 0.39588319E+02</pdfrwt>
<pdfrwt beam="1">  1       -2 0.17252634E-02 0.39588319E+02</pdfrwt>
<totfact> 0.87366853E+05</totfact>
</mgrwt>
</event>
<event>
 4    1  0.2165211E+000  0.2695687E+02  0.7546771E-02  0.1634388E+00
         -2   -1    0    0    0  501 -0.00000000000E+00  0.00000000000E+00  0.35877455526E+02  0.35877455526E+02  0.00000000000E+00 0. -1.
          2   -1    0    0  501    0  0.00000000000E+00 -0.00000000000E+00 -0.50635754878E+01  0.50635754878E+01  0.00000000000E+00 0.  1.
        -11    1    1    2    0    0  0.99769999498E+01 -0.10814337644E+01  0.29072256021E+02  0.30755586438E+02  0.00000000000E+00 0. -1.
         11    1    1    2    0    0 -0.99769999498E+01  0.10814337644E+01  0.17416240167E+01  0.10185444576E+02  0.00000000000E+00 0.  1.
<mgrwt>
<rscale>  0 0.26956870E+02</rscale>
<asrwt>0</asrwt>
<pdfrwt beam="2">  1        2 0.77901164E-03 0.26956870E+02</pdfrwt>
<pdfrwt beam="1">  1       -2 0.55196084E-02 0.26956870E+02</pdfrwt>
<totfact> 0.18180652E+06</totfact>
</mgrwt>
</event>
<event>
 4    1  0.2165211E+000  0.3319378E+02  0.7546771E-02  0.1565251E+00
         -2   -1    0    0    0  501 -0.00000000000E+00  0.00000000000E+00  0.35753933482E+01  0.35753933482E+01  0.00000000000E+00 0. -1.
          2   -1    0    0  501    0  0.00000000000E+00 -0.00000000000E+00 -0.77042369898E+02  0.77042369898E+02  0.00000000000E+00 0.  1.
        -11    1    1    2    0    0 -0.99999749486E+01 -0.11454709589E+02 -0.20578171711E+02  0.25586539854E+02  0.00000000000E+00 0. -1.
         11    1    1    2    0    0  0.99999749486E+01  0.11454709589E+02 -0.52888804838E+02  0.55031223392E+02  0.00000000000E+00 0.  1.
<mgrwt>
<rscale>  0 0.33193781E+02</rscale>
<asrwt>0</asrwt>
<pdfrwt beam="2">  1        2 0.11852672E-01 0.33193781E+02</pdfrwt>
<pdfrwt beam="1">  1       -2 0.55006051E-03 0.33193781E+02</pdfrwt>
<totfact> 0.15478070E+06</totfact>
</mgrwt>
</event>
<event>
 4    1  0.2165211E+000  0.2510881E+02  0.7546771E-02  0.1659444E+00
         -4   -1    0    0    0  501 -0.00000000000E+00  0.00000000000E+00  0.52328357186E+02  0.52328357186E+02  0.00000000000E+00 0. -1.
          4   -1    0    0  501    0  0.00000000000E+00 -0.00000000000E+00 -0.30120004551E+01  0.30120004551E+01  0.00000000000E+00 0.  1.
        -13    1    1    2    0    0 -0.10163928620E+02  0.91951878882E+00  0.85428630346E+01  0.13309074672E+02  0.00000000000E+00 0.  1.
         13    1    1    2    0    0  0.10163928620E+02 -0.91951878882E+00  0.40773493696E+02  0.42031282969E+02  0.00000000000E+00 0. -1.
<mgrwt>
<rscale>  0 0.25108806E+02</rscale>
<asrwt>0</asrwt>
<pdfrwt beam="2">  1        4 0.46338472E-03 0.25108806E+02</pdfrwt>
<pdfrwt beam="1">  1       -4 0.80505158E-02 0.25108806E+02</pdfrwt>
<totfact> 0.70307477E+05</totfact>
</mgrwt>
</event>
<event>
 4    1  0.2165211E+000  0.2671546E+02  0.7546771E-02  0.1637518E+00
          2   -1    0    0  501    0  0.00000000000E+00  0.00000000000E+00  0.20943086639E+02  0.20943086639E+02  0.00000000000E+00 0. -1.
         -2   -1    0    0    0  501 -0.00000000000E+00 -0.00000000000E+00 -0.85197059579E+01  0.85197059579E+01  0.00000000000E+00 0.  1.
        -13    1    1    2    0    0 -0.38768954320E+01 -0.12654423876E+02  0.82041897158E+01  0.15571560318E+02  0.00000000000E+00 0. -1.
         13    1    1    2    0    0  0.38768954320E+01  0.12654423876E+02  0.42191909649E+01  0.13891232279E+02  0.00000000000E+00 0.  1.
<mgrwt>
<rscale>  0 0.26715459E+02</rscale>
<asrwt>0</asrwt>
<pdfrwt beam="1">  1        2 0.32220133E-02 0.26715459E+02</pdfrwt>
<pdfrwt beam="2">  1       -2 0.13107240E-02 0.26715459E+02</pdfrwt>
<totfact> 0.21411801E+06</totfact>
</mgrwt>
</event>
<event>
 4    1  0.2165211E+000  0.2476889E+02  0.7546771E-02  0.1664344E+00
         -4   -1    0    0    0  501 -0.00000000000E+00  0.00000000000E+00  0.80634861711E+01  0.80634861711E+01  0.00000000000E+00 0. -1.
          4   -1    0    0  501    0  0.00000000000E+00 -0.00000000000E+00 -0.19020856870E+02  0.19020856870E+02  0.00000000000E+00 0.  1.
        -13    1    1    2    0    0  0.63170411763E+01 -0.79950243407E+01 -0.13175823199E+02  0.16656162235E+02  0.00000000000E+00 0.  1.
         13    1    1    2    0    0 -0.63170411763E+01  0.79950243407E+01  0.22184524999E+01  0.10428180806E+02  0.00000000000E+00 0. -1.
<mgrwt>
<rscale>  0 0.24768885E+02</rscale>
<asrwt>0</asrwt>
<pdfrwt beam="2">  1        4 0.29262856E-02 0.24768885E+02</pdfrwt>
<pdfrwt beam="1">  1       -4 0.12405363E-02 0.24768885E+02</pdfrwt>
<totfact> 0.80445212E+05</totfact>
</mgrwt>
</event>
<event>
 4    1  0.2165211E+000  0.5180604E+02  0.7546771E-02  0.1435837E+00
         -2   -1    0    0    0  501 -0.00000000000E+00  0.00000000000E+00  0.10407775036E+02  0.10407775036E+02  0.00000000000E+00 0. -1.
          2   -1    0    0  501    0  0.00000000000E+00 -0.00000000000E+00 -0.64467803468E+02  0.64467803468E+02  0.00000000000E+00 0.  1.
        -13    1    1    2    0    0 -0.23676199746E+02 -0.62331760404E+01 -0.39255584134E+02  0.46264627997E+02  0.00000000000E+00 0.  1.
         13    1    1    2    0    0  0.23676199746E+02  0.62331760404E+01 -0.14804444298E+02  0.28610950508E+02  0.00000000000E+00 0. -1.
<mgrwt>
<rscale>  0 0.51806038E+02</rscale>
<asrwt>0</asrwt>
<pdfrwt beam="2">  1        2 0.99181235E-02 0.51806038E+02</pdfrwt>
<pdfrwt beam="1">  1       -2 0.16011962E-02 0.51806038E+02</pdfrwt>
<totfact> 0.49297554E+05</totfact>
</mgrwt>
</event>
<event>
 4    1  0.2165211E+000  0.3635869E+02  0.7546771E-02  0.1536856E+00
         -4   -1    0    0    0  501 -0.00000000000E+00  0.00000000000E+00  0.18910845890E+01  0.18910845890E+01  0.00000000000E+00 0.  1.
          4   -1    0    0  501    0  0.00000000000E+00 -0.00000000000E+00 -0.17476140618E+03  0.17476140618E+03  0.00000000000E+00 0. -1.
        -11    1    1    2    0    0  0.44359413287E+01 -0.17619734269E+02 -0.89334045224E+02  0.91163064052E+02  0.00000000000E+00 0.  1.
         11    1    1    2    0    0 -0.44359413287E+01  0.17619734269E+02 -0.83536276366E+02  0.85489426716E+02  0.00000000000E+00 0. -1.
<mgrwt>
<rscale>  0 0.36358691E+02</rscale>
<asrwt>0</asrwt>
<pdfrwt beam="2">  1        4 0.26886371E-01 0.36358691E+02</pdfrwt>
<pdfrwt beam="1">  1       -4 0.29093608E-03 0.36358691E+02</pdfrwt>
<totfact> 0.22260156E+05</totfact>
</mgrwt>
</event>
<event>
 4    1  0.2165211E+000  0.2397827E+02  0.7546771E-02  0.1676126E+00
         -2   -1    0    0    0  501 -0.00000000000E+00  0.00000000000E+00  0.41385158527E+01  0.41385158527E+01  0.00000000000E+00 0. -1.
          2   -1    0    0  501    0  0.00000000000E+00 -0.00000000000E+00 -0.34732102132E+02  0.34732102132E+02  0.00000000000E+00 0.  1.
        -13    1    1    2    0    0  0.11392683375E+02  0.36221490939E+01 -0.13823345100E+02  0.18275614033E+02  0.00000000000E+00 0. -1.
         13    1    1    2    0    0 -0.11392683375E+02 -0.36221490939E+01 -0.16770241179E+02  0.20595003951E+02  0.00000000000E+00 0.  1.
<mgrwt>
<rscale>  0 0.23978270E+02</rscale>
<asrwt>0</asrwt>
<pdfrwt beam="2">  1        2 0.53434006E-02 0.23978270E+02</pdfrwt>
<pdfrwt beam="1">  1       -2 0.63669472E-03 0.23978270E+02</pdfrwt>
<totfact> 0.29192584E+06</totfact>
</mgrwt>
</event>
<event>
 4    1  0.2165211E+000  0.2694979E+02  0.7546771E-02  0.1634479E+00
          2   -1    0    0  501    0  0.00000000000E+00  0.00000000000E+00  0.39229048202E+02  0.39229048202E+02  0.00000000000E+00 0.  1.
         -2   -1    0    0    0  501 -0.00000000000E+00 -0.00000000000E+00 -0.46285295380E+01  0.46285295380E+01  0.00000000000E+00 0. -1.
        -11    1    1    2    0    0  0.28950373918E+01 -0.11581933821E+02  0.71307066661E+01  0.13905732993E+02  0.00000000000E+00 0. -1.
         11    1    1    2    0    0 -0.28950373918E+01  0.11581933821E+02  0.27469811998E+02  0.29951844746E+02  0.00000000000E+00 0.  1.
<mgrwt>
<rscale>  0 0.26949791E+02</rscale>
<asrwt>0</asrwt>
<pdfrwt beam="1">  1        2 0.60352379E-02 0.26949791E+02</pdfrwt>
<pdfrwt beam="2">  1       -2 0.71208150E-03 0.26949791E+02</pdfrwt>
<totfact> 0.22591487E+06</totfact>
</mgrwt>
</event>
<event>
 4    1  0.2165211E+000  0.2107416E+02  0.7546771E-02  0.1724774E+00
          2   -1    0    0  501    0  0.00000000000E+00  0.00000000000E+00  0.28846228236E+01  0.28846228236E+01  0.00000000000E+00 0.  1.
         -2   -1    0    0    0  501 -0.00000000000E+00 -0.00000000000E+00 -0.38490317189E+02  0.38490317189E+02  0.00000000000E+00 0. -1.
        -11    1    1    2    0    0 -0.41089158180E+01 -0.94865945597E+01 -0.21803063371E+02  0.24129903396E+02  0.00000000000E+00 0. -1.
         11    1    1    2    0    0  0.41089158180E+01  0.94865945597E+01 -0.13802630994E+02  0.17245036617E+02  0.00000000000E+00 0.  1.
<mgrwt>
<rscale>  0 0.21074159E+02</rscale>
<asrwt>0</asrwt>
<pdfrwt beam="1">  1        2 0.44378814E-03 0.21074159E+02</pdfrwt>
<pdfrwt beam="2">  1       -2 0.59215870E-02 0.21074159E+02</pdfrwt>
<totfact> 0.31278871E+06</totfact>
</mgrwt>
</event>
<event>
 4    1  0.2165211E+000  0.2214003E+02  0.7546771E-02  0.1705841E+00
          2   -1    0    0  501    0  0.00000000000E+00  0.00000000000E+00  0.19156203944E+02  0.19156203944E+02  0.00000000000E+00 0.  1.
         -2   -1    0    0    0  501 -0.00000000000E+00 -0.00000000000E+00 -0.63971549868E+01  0.63971549868E+01  0.00000000000E+00 0. -1.
        -11    1    1    2    0    0  0.10825201742E+02  0.15869151748E+01  0.44338273816E+01  0.11805173348E+02  0.00000000000E+00 0. -1.
         11    1    1    2    0    0 -0.10825201742E+02 -0.15869151748E+01  0.83252215759E+01  0.13748185583E+02  0.00000000000E+00 0.  1.
<mgrwt>
<rscale>  0 0.22140028E+02</rscale>
<asrwt>0</asrwt>
<pdfrwt beam="1">  1        2 0.29471083E-02 0.22140028E+02</pdfrwt>
<pdfrwt beam="2">  1       -2 0.98417770E-03 0.22140028E+02</pdfrwt>
<totfact> 0.32931865E+06</totfact>
</mgrwt>
</event>
<event>
 4    1  0.2165211E+000  0.2374140E+02  0.7546771E-02  0.1679767E+00
         -2   -1    0    0    0  501 -0.00000000000E+00  0.00000000000E+00  0.21785194208E+01  0.21785194208E+01  0.00000000000E+00 0.  1.
          2   -1    0    0  501    0  0.00000000000E+00 -0.00000000000E+00 -0.64683180418E+02  0.64683180418E+02  0.00000000000E+00 0. -1.
        -11    1    1    2    0    0  0.82772477639E+01  0.59600792393E+01 -0.48354681436E+02  0.49418727137E+02  0.00000000000E+00 0. -1.
         11    1    1    2    0    0 -0.82772477639E+01 -0.59600792393E+01 -0.14149979561E+02  0.17442972702E+02  0.00000000000E+00 0.  1.
<mgrwt>
<rscale>  0 0.23741404E+02</rscale>
<asrwt>0</asrwt>
<pdfrwt beam="2">  1        2 0.99512566E-02 0.23741404E+02</pdfrwt>
<pdfrwt beam="1">  1       -2 0.33515690E-03 0.23741404E+02</pdfrwt>
<totfact> 0.32828799E+06</totfact>
</mgrwt>
</event>
<event>
 4    1  0.2165211E+000  0.3525623E+02  0.7546771E-02  0.1546337E+00
          2   -1    0    0  501    0  0.00000000000E+00  0.00000000000E+00  0.77971213577E+02  0.77971213577E+02  0.00000000000E+00 0. -1.
         -2   -1    0    0    0  501 -0.00000000000E+00 -0.00000000000E+00 -0.39854517516E+01  0.39854517516E+01  0.00000000000E+00 0.  1.
        -13    1    1    2    0    0  0.98968093208E+01  0.13957239263E+02  0.27130669172E+02  0.32075295358E+02  0.00000000000E+00 0. -1.
         13    1    1    2    0    0 -0.98968093208E+01 -0.13957239263E+02  0.46855092653E+02  0.49881369970E+02  0.00000000000E+00 0.  1.
<mgrwt>
<rscale>  0 0.35256234E+02</rscale>
<asrwt>0</asrwt>
<pdfrwt beam="1">  1        2 0.11995570E-01 0.35256234E+02</pdfrwt>
<pdfrwt beam="2">  1       -2 0.61314648E-03 0.35256234E+02</pdfrwt>
<totfact> 0.13417728E+06</totfact>
</mgrwt>
</event>
<event>
 4    1  0.2165211E+000  0.3656199E+02  0.7546771E-02  0.1535152E+00
          1   -1    0    0  501    0  0.00000000000E+00  0.00000000000E+00  0.51482490664E+02  0.51482490664E+02  0.00000000000E+00 0. -1.
         -1   -1    0    0    0  501 -0.00000000000E+00 -0.00000000000E+00 -0.64914257641E+01  0.64914257641E+01  0.00000000000E+00 0.  1.
        -13    1    1    2    0    0 -0.16410437758E+02 -0.31656643585E+01  0.34241092719E+02  0.38102182731E+02  0.00000000000E+00 0. -1.
         13    1    1    2    0    0  0.16410437758E+02  0.31656643585E+01  0.10749972181E+02  0.19871733698E+02  0.00000000000E+00 0.  1.
<mgrwt>
<rscale>  0 0.36561989E+02</rscale>
<asrwt>0</asrwt>
<pdfrwt beam="1">  1        1 0.79203829E-02 0.36561989E+02</pdfrwt>
<pdfrwt beam="2">  1       -1 0.99868092E-03 0.36561989E+02</pdfrwt>
<totfact> 0.10218449E+06</totfact>
</mgrwt>
</event>
<event>
 4    1  0.2165211E+000  0.4807169E+02  0.7546771E-02  0.1456029E+00
          2   -1    0    0  501    0  0.00000000000E+00  0.00000000000E+00  0.83594878425E+02  0.83594878425E+02  0.00000000000E+00 0. -1.
         -2   -1    0    0    0  501 -0.00000000000E+00 -0.00000000000E+00 -0.69109708251E+01  0.69109708251E+01  0.00000000000E+00 0.  1.
        -11    1    1    2    0    0 -0.22842097725E+02  0.67987639788E+01  0.44216889584E+02  0.50230647464E+02  0.00000000000E+00 0. -1.
         11    1    1    2    0    0  0.22842097725E+02 -0.67987639788E+01  0.32467018016E+02  0.40275201787E+02  0.00000000000E+00 0.  1.
<mgrwt>
<rscale>  0 0.48071687E+02</rscale>
<asrwt>0</asrwt>
<pdfrwt beam="1">  1        2 0.12860750E-01 0.48071687E+02</pdfrwt>
<pdfrwt beam="2">  1       -2 0.10632263E-02 0.48071687E+02</pdfrwt>
<totfact> 0.63249614E+05</totfact>
</mgrwt>
</event>
<event>
 4    1  0.2165211E+000  0.5694668E+02  0.7546771E-02  0.1411111E+00
          2   -1    0    0  501    0  0.00000000000E+00  0.00000000000E+00  0.17564941415E+02  0.17564941415E+02  0.00000000000E+00 0.  1.
         -2   -1    0    0    0  501 -0.00000000000E+00 -0.00000000000E+00 -0.46156203765E+02  0.46156203765E+02  0.00000000000E+00 0. -1.
        -13    1    1    2    0    0 -0.73131205705E+01  0.24747697574E+02 -0.83081016862E+00  0.25818995201E+02  0.00000000000E+00 0.  1.
         13    1    1    2    0    0  0.73131205705E+01 -0.24747697574E+02 -0.27760452181E+02  0.37902149978E+02  0.00000000000E+00 0. -1.
<mgrwt>
<rscale>  0 0.56946677E+02</rscale>
<asrwt>0</asrwt>
<pdfrwt beam="1">  1        2 0.27022987E-02 0.56946677E+02</pdfrwt>
<pdfrwt beam="2">  1       -2 0.71009543E-02 0.56946677E+02</pdfrwt>
<totfact> 0.30258234E+05</totfact>
</mgrwt>
</event>
<event>
 4    1  0.2165211E+000  0.7359440E+02  0.7546771E-02  0.1348280E+00
         -2   -1    0    0    0  501 -0.00000000000E+00  0.00000000000E+00  0.30869864483E+02  0.30869864483E+02  0.00000000000E+00 0. -1.
          2   -1    0    0  501    0  0.00000000000E+00 -0.00000000000E+00 -0.43862649431E+02  0.43862649431E+02  0.00000000000E+00 0.  1.
        -13    1    1    2    0    0  0.66021653806E+01 -0.36199823902E+02 -0.63593779281E+01  0.37342435993E+02  0.00000000000E+00 0.  1.
         13    1    1    2    0    0 -0.66021653806E+01  0.36199823902E+02 -0.66334070195E+01  0.37390077921E+02  0.00000000000E+00 0. -1.
<mgrwt>
<rscale>  0 0.73594403E+02</rscale>
<asrwt>0</asrwt>
<pdfrwt beam="2">  1        2 0.67480999E-02 0.73594403E+02</pdfrwt>
<pdfrwt beam="1">  1       -2 0.47492099E-02 0.73594403E+02</pdfrwt>
<totfact> 0.17857019E+05</totfact>
</mgrwt>
</event>
<event>
 4    1  0.2165211E+000  0.6636772E+02  0.7546771E-02  0.1372899E+00
          2   -1    0    0  501    0  0.00000000000E+00  0.00000000000E+00  0.65546682472E+02  0.65546682472E+02  0.00000000000E+00 0. -1.
         -2   -1    0    0    0  501 -0.00000000000E+00 -0.00000000000E+00 -0.16799762560E+02  0.16799762560E+02  0.00000000000E+00 0.  1.
        -11    1    1    2    0    0 -0.30653247410E+02 -0.35795533782E+01  0.92415779439E+01  0.32215548141E+02  0.00000000000E+00 0. -1.
         11    1    1    2    0    0  0.30653247410E+02  0.35795533782E+01  0.39505341968E+02  0.50130896891E+02  0.00000000000E+00 0.  1.
<mgrwt>
<rscale>  0 0.66367724E+02</rscale>
<asrwt>0</asrwt>
<pdfrwt beam="1">  1        2 0.10084105E-01 0.66367724E+02</pdfrwt>
<pdfrwt beam="2">  1       -2 0.25845789E-02 0.66367724E+02</pdfrwt>
<totfact> 0.25877847E+05</totfact>
</mgrwt>
</event>
<event>
 4    1  0.2165211E+000  0.4039100E+02  0.7546771E-02  0.1505354E+00
          2   -1    0    0  501    0  0.00000000000E+00  0.00000000000E+00  0.11040199504E+02  0.11040199504E+02  0.00000000000E+00 0. -1.
         -2   -1    0    0    0  501 -0.00000000000E+00 -0.00000000000E+00 -0.36943012536E+02  0.36943012536E+02  0.00000000000E+00 0.  1.
        -13    1    1    2    0    0  0.36902574117E+01 -0.10514513882E+02 -0.32960299738E+02  0.34793021725E+02  0.00000000000E+00 0.  1.
         13    1    1    2    0    0 -0.36902574117E+01  0.10514513882E+02  0.70574867059E+01  0.13190190315E+02  0.00000000000E+00 0. -1.
<mgrwt>
<rscale>  0 0.40391000E+02</rscale>
<asrwt>0</asrwt>
<pdfrwt beam="1">  1        2 0.16984923E-02 0.40391000E+02</pdfrwt>
<pdfrwt beam="2">  1       -2 0.56835403E-02 0.40391000E+02</pdfrwt>
<totfact> 0.71009979E+05</totfact>
</mgrwt>
</event>
<event>
 4    1  0.2165211E+000  0.2131223E+02  0.7546771E-02  0.1720425E+00
          1   -1    0    0  501    0  0.00000000000E+00  0.00000000000E+00  0.62120927985E+02  0.62120927985E+02  0.00000000000E+00 0.  1.
         -1   -1    0    0    0  501 -0.00000000000E+00 -0.00000000000E+00 -0.18279314390E+01  0.18279314390E+01  0.00000000000E+00 0. -1.
        -11    1    1    2    0    0 -0.87639192727E+01 -0.58447212995E+01  0.25321500826E+02  0.27425270321E+02  0.00000000000E+00 0.  1.
         11    1    1    2    0    0  0.87639192727E+01  0.58447212995E+01  0.34971495720E+02  0.36523589104E+02  0.00000000000E+00 0. -1.
<mgrwt>
<rscale>  0 0.21312231E+02</rscale>
<asrwt>0</asrwt>
<pdfrwt beam="1">  1        1 0.95570642E-02 0.21312231E+02</pdfrwt>
<pdfrwt beam="2">  1       -1 0.28122027E-03 0.21312231E+02</pdfrwt>
<totfact> 0.36798698E+06</totfact>
</mgrwt>
</event>
<event>
 4    1  0.2165211E+000  0.8147644E+02  0.7546771E-02  0.1324913E+00
          2   -1    0    0  501    0  0.00000000000E+00  0.00000000000E+00  0.24416418108E+02  0.24416418108E+02  0.00000000000E+00 0. -1.
         -2   -1    0    0    0  501 -0.00000000000E+00 -0.00000000000E+00 -0.67970765464E+02  0.67970765464E+02  0.00000000000E+00 0.  1.
        -13    1    1    2    0    0  0.33724326424E+02  0.16935911705E+02 -0.39176264722E+02  0.54396093754E+02  0.00000000000E+00 0. -1.
         13    1    1    2    0    0 -0.33724326424E+02 -0.16935911705E+02 -0.43780826343E+01  0.37991089818E+02  0.00000000000E+00 0.  1.
<mgrwt>
<rscale>  0 0.81476441E+02</rscale>
<asrwt>0</asrwt>
<pdfrwt beam="1">  1        2 0.37563721E-02 0.81476441E+02</pdfrwt>
<pdfrwt beam="2">  1       -2 0.10457041E-01 0.81476441E+02</pdfrwt>
<totfact> 0.11694159E+05</totfact>
</mgrwt>
</event>
<event>
 4    1  0.2165211E+000  0.2099390E+02  0.7546771E-02  0.1726256E+00
          1   -1    0    0  501    0  0.00000000000E+00  0.00000000000E+00  0.91424693183E+02  0.91424693183E+02  0.00000000000E+00 0. -1.
         -1   -1    0    0    0  501 -0.00000000000E+00 -0.00000000000E+00 -0.12052101433E+01  0.12052101433E+01  0.00000000000E+00 0.  1.
        -11    1    1    2    0    0  0.94652940418E+01 -0.38736551031E+01  0.34678786960E+02  0.36155431959E+02  0.00000000000E+00 0.  1.
         11    1    1    2    0    0 -0.94652940418E+01  0.38736551031E+01  0.55540696080E+02  0.56474471367E+02  0.00000000000E+00 0. -1.
<mgrwt>
<rscale>  0 0.20993901E+02</rscale>
<asrwt>0</asrwt>
<pdfrwt beam="1">  1        1 0.14065332E-01 0.20993901E+02</pdfrwt>
<pdfrwt beam="2">  1       -1 0.18541702E-03 0.20993901E+02</pdfrwt>
<totfact> 0.39457721E+06</totfact>
</mgrwt>
</event>
<event>
 4    1  0.2165211E+000  0.2758547E+02  0.7546771E-02  0.1626422E+00
          2   -1    0    0  501    0  0.00000000000E+00  0.00000000000E+00  0.49075367618E+01  0.49075367618E+01  0.00000000000E+00 0. -1.
         -2   -1    0    0    0  501 -0.00000000000E+00 -0.00000000000E+00 -0.38764771282E+02  0.38764771282E+02  0.00000000000E+00 0.  1.
        -11    1    1    2    0    0 -0.38737801697E+01 -0.13237221145E+02 -0.16775584308E+02  0.21717514253E+02  0.00000000000E+00 0.  1.
         11    1    1    2    0    0  0.38737801697E+01  0.13237221145E+02 -0.17081650212E+02  0.21954793791E+02  0.00000000000E+00 0. -1.
<mgrwt>
<rscale>  0 0.27585470E+02</rscale>
<asrwt>0</asrwt>
<pdfrwt beam="1">  1        2 0.75500567E-03 0.27585470E+02</pdfrwt>
<pdfrwt beam="2">  1       -2 0.59638108E-02 0.27585470E+02</pdfrwt>
<totfact> 0.17087992E+06</totfact>
</mgrwt>
</event>
<event>
 4    1  0.2165211E+000  0.2243271E+02  0.7546771E-02  0.1700874E+00
          3   -1    0    0  501    0  0.00000000000E+00  0.00000000000E+00  0.56015987295E+02  0.56015987295E+02  0.00000000000E+00 0.  1.
         -3   -1    0    0    0  501 -0.00000000000E+00 -0.00000000000E+00 -0.22459046703E+01  0.22459046703E+01  0.00000000000E+00 0. -1.
        -11    1    1    2    0    0 -0.11115284127E+02  0.28248492179E+00  0.30717301064E+02  0.32667750513E+02  0.00000000000E+00 0. -1.
         11    1    1    2    0    0  0.11115284127E+02 -0.28248492179E+00  0.23052781561E+02  0.25594141452E+02  0.00000000000E+00 0.  1.
<mgrwt>
<rscale>  0 0.22432705E+02</rscale>
<asrwt>0</asrwt>
<pdfrwt beam="1">  1        3 0.86178432E-02 0.22432705E+02</pdfrwt>
<pdfrwt beam="2">  1       -3 0.34552384E-03 0.22432705E+02</pdfrwt>
<totfact> 0.12322746E+06</totfact>
</mgrwt>
</event>
<event>
 4    1  0.2165211E+000  0.2236519E+02  0.7546771E-02  0.1702012E+00
         -2   -1    0    0    0  501 -0.00000000000E+00  0.00000000000E+00  0.18205781263E+02  0.18205781263E+02  0.00000000000E+00 0. -1.
          2   -1    0    0  501    0  0.00000000000E+00 -0.00000000000E+00 -0.68687200293E+01  0.68687200293E+01  0.00000000000E+00 0.  1.
        -13    1    1    2    0    0  0.78713931104E+01 -0.74211812516E+01  0.24939717191E+01  0.11101921257E+02  0.00000000000E+00 0.  1.
         13    1    1    2    0    0 -0.78713931104E+01  0.74211812516E+01  0.88430895147E+01  0.13972580035E+02  0.00000000000E+00 0. -1.
<mgrwt>
<rscale>  0 0.22365189E+02</rscale>
<asrwt>0</asrwt>
<pdfrwt beam="2">  1        2 0.10567262E-02 0.22365189E+02</pdfrwt>
<pdfrwt beam="1">  1       -2 0.28008894E-02 0.22365189E+02</pdfrwt>
<totfact> 0.29548968E+06</totfact>
</mgrwt>
</event>
<event>
 4    1  0.2165211E+000  0.2551882E+02  0.7546771E-02  0.1653660E+00
         -2   -1    0    0    0  501 -0.00000000000E+00  0.00000000000E+00  0.21678452004E+02  0.21678452004E+02  0.00000000000E+00 0.  1.
          2   -1    0    0  501    0  0.00000000000E+00 -0.00000000000E+00 -0.75098800287E+01  0.75098800287E+01  0.00000000000E+00 0. -1.
        -13    1    1    2    0    0 -0.12539957495E+02  0.22972205088E+01  0.64846730367E+01  0.14303102476E+02  0.00000000000E+00 0. -1.
         13    1    1    2    0    0  0.12539957495E+02 -0.22972205088E+01  0.76838989382E+01  0.14885229556E+02  0.00000000000E+00 0.  1.
<mgrwt>
<rscale>  0 0.25518822E+02</rscale>
<asrwt>0</asrwt>
<pdfrwt beam="2">  1        2 0.11553662E-02 0.25518822E+02</pdfrwt>
<pdfrwt beam="1">  1       -2 0.33351464E-02 0.25518822E+02</pdfrwt>
<totfact> 0.21708930E+06</totfact>
</mgrwt>
</event>
<event>
 4    1  0.2165211E+000  0.2679419E+02  0.7546771E-02  0.1636493E+00
          2   -1    0    0  501    0  0.00000000000E+00  0.00000000000E+00  0.40417147621E+02  0.40417147621E+02  0.00000000000E+00 0.  1.
         -2   -1    0    0    0  501 -0.00000000000E+00 -0.00000000000E+00 -0.44407410851E+01  0.44407410851E+01  0.00000000000E+00 0. -1.
        -13    1    1    2    0    0 -0.78654047932E+01 -0.73047215752E+01  0.31408548792E+02  0.33192175088E+02  0.00000000000E+00 0.  1.
         13    1    1    2    0    0  0.78654047932E+01  0.73047215752E+01  0.45678577440E+01  0.11665713618E+02  0.00000000000E+00 0. -1.
<mgrwt>
<rscale>  0 0.26794185E+02</rscale>
<asrwt>0</asrwt>
<pdfrwt beam="1">  1        2 0.62180225E-02 0.26794185E+02</pdfrwt>
<pdfrwt beam="2">  1       -2 0.68319096E-03 0.26794185E+02</pdfrwt>
<totfact> 0.22996799E+06</totfact>
</mgrwt>
</event>
<event>
 4    1  0.2165211E+000  0.9034027E+02  0.7546771E-02  0.1302030E+00
          3   -1    0    0  501    0  0.00000000000E+00  0.00000000000E+00  0.23773831872E+02  0.23773831872E+02  0.00000000000E+00 0. -1.
         -3   -1    0    0    0  501 -0.00000000000E+00 -0.00000000000E+00 -0.85822977271E+02  0.85822977271E+02  0.00000000000E+00 0.  1.
        -13    1    1    2    0    0 -0.20380842826E+02  0.56739225199E+01 -0.79441019445E+02  0.82209778746E+02  0.00000000000E+00 0.  1.
         13    1    1    2    0    0  0.20380842826E+02 -0.56739225199E+01  0.17391874046E+02  0.27387030396E+02  0.00000000000E+00 0. -1.
<mgrwt>
<rscale>  0 0.90340269E+02</rscale>
<asrwt>0</asrwt>
<pdfrwt beam="1">  1        3 0.36575126E-02 0.90340269E+02</pdfrwt>
<pdfrwt beam="2">  1       -3 0.13203535E-01 0.90340269E+02</pdfrwt>
<totfact> 0.34835801E+04</totfact>
</mgrwt>
</event>
<event>
 4    1  0.2165211E+000  0.6770609E+02  0.7546771E-02  0.1368072E+00
         -2   -1    0    0    0  501 -0.00000000000E+00  0.00000000000E+00  0.17898521947E+02  0.17898521947E+02  0.00000000000E+00 0.  1.
          2   -1    0    0  501    0  0.00000000000E+00 -0.00000000000E+00 -0.64029243270E+02  0.64029243270E+02  0.00000000000E+00 0. -1.
        -11    1    1    2    0    0 -0.16580956832E+02 -0.29513059796E+02 -0.23407588755E+02  0.41156579538E+02  0.00000000000E+00 0. -1.
         11    1    1    2    0    0  0.16580956832E+02  0.29513059796E+02 -0.22723132568E+02  0.40771185679E+02  0.00000000000E+00 0.  1.
<mgrwt>
<rscale>  0 0.67706095E+02</rscale>
<asrwt>0</asrwt>
<pdfrwt beam="2">  1        2 0.98506527E-02 0.67706095E+02</pdfrwt>
<pdfrwt beam="1">  1       -2 0.27536188E-02 0.67706095E+02</pdfrwt>
<totfact> 0.24399396E+05</totfact>
</mgrwt>
</event>
<event>
 4    1  0.2165211E+000  0.2148378E+02  0.7546771E-02  0.1717336E+00
         -2   -1    0    0    0  501 -0.00000000000E+00  0.00000000000E+00  0.61607456222E+02  0.61607456222E+02  0.00000000000E+00 0.  1.
          2   -1    0    0  501    0  0.00000000000E+00 -0.00000000000E+00 -0.18729591994E+01  0.18729591994E+01  0.00000000000E+00 0. -1.
        -11    1    1    2    0    0 -0.12846652670E+01 -0.10623416270E+02  0.32640540988E+02  0.34349850859E+02  0.00000000000E+00 0.  1.
         11    1    1    2    0    0  0.12846652670E+01  0.10623416270E+02  0.27093956035E+02  0.29130564562E+02  0.00000000000E+00 0. -1.
<mgrwt>
<rscale>  0 0.21483785E+02</rscale>
<asrwt>0</asrwt>
<pdfrwt beam="2">  1        2 0.28814762E-03 0.21483785E+02</pdfrwt>
<pdfrwt beam="1">  1       -2 0.94780686E-02 0.21483785E+02</pdfrwt>
<totfact> 0.28036754E+06</totfact>
</mgrwt>
</event>
<event>
 4    1  0.2165211E+000  0.2519422E+02  0.7546771E-02  0.1658228E+00
         -2   -1    0    0    0  501 -0.00000000000E+00  0.00000000000E+00  0.32965635275E+02  0.32965635275E+02  0.00000000000E+00 0.  1.
          2   -1    0    0  501    0  0.00000000000E+00 -0.00000000000E+00 -0.48137153485E+01  0.48137153485E+01  0.00000000000E+00 0. -1.
        -13    1    1    2    0    0 -0.14789690977E+01 -0.11062891737E+02  0.53178817227E+01  0.12363445684E+02  0.00000000000E+00 0. -1.
         13    1    1    2    0    0  0.14789690977E+01  0.11062891737E+02  0.22834038204E+02  0.25415904939E+02  0.00000000000E+00 0.  1.
<mgrwt>
<rscale>  0 0.25194220E+02</rscale>
<asrwt>0</asrwt>
<pdfrwt beam="2">  1        2 0.74057161E-03 0.25194220E+02</pdfrwt>
<pdfrwt beam="1">  1       -2 0.50716361E-02 0.25194220E+02</pdfrwt>
<totfact> 0.21396108E+06</totfact>
</mgrwt>
</event>
<event>
 4    1  0.2165211E+000  0.2668638E+02  0.7546771E-02  0.1637898E+00
          2   -1    0    0  501    0  0.00000000000E+00  0.00000000000E+00  0.31031260780E+01  0.31031260780E+01  0.00000000000E+00 0.  1.
         -2   -1    0    0    0  501 -0.00000000000E+00 -0.00000000000E+00 -0.57374632504E+02  0.57374632504E+02  0.00000000000E+00 0. -1.
        -11    1    1    2    0    0 -0.74798654917E+01  0.99810149562E+01 -0.37878706974E+02  0.39879386773E+02  0.00000000000E+00 0. -1.
         11    1    1    2    0    0  0.74798654917E+01 -0.99810149562E+01 -0.16392799452E+02  0.20598371810E+02  0.00000000000E+00 0.  1.
<mgrwt>
<rscale>  0 0.26686380E+02</rscale>
<asrwt>0</asrwt>
<pdfrwt beam="1">  1        2 0.47740402E-03 0.26686380E+02</pdfrwt>
<pdfrwt beam="2">  1       -2 0.88268664E-02 0.26686380E+02</pdfrwt>
<totfact> 0.17428935E+06</totfact>
</mgrwt>
</event>
<event>
 4    1  0.2165211E+000  0.2124330E+02  0.7546771E-02  0.1721677E+00
         -2   -1    0    0    0  501 -0.00000000000E+00  0.00000000000E+00  0.24206453863E+01  0.24206453863E+01  0.00000000000E+00 0.  1.
          2   -1    0    0  501    0  0.00000000000E+00 -0.00000000000E+00 -0.46607198359E+02  0.46607198359E+02  0.00000000000E+00 0. -1.
        -11    1    1    2    0    0 -0.71601229649E+01  0.75278886835E+01 -0.27193220911E+02  0.29110268505E+02  0.00000000000E+00 0. -1.
         11    1    1    2    0    0  0.71601229649E+01 -0.75278886835E+01 -0.16993332061E+02  0.19917575240E+02  0.00000000000E+00 0.  1.
<mgrwt>
<rscale>  0 0.21243305E+02</rscale>
<asrwt>0</asrwt>
<pdfrwt beam="2">  1        2 0.71703377E-02 0.21243305E+02</pdfrwt>
<pdfrwt beam="1">  1       -2 0.37240701E-03 0.21243305E+02</pdfrwt>
<totfact> 0.40048752E+06</totfact>
</mgrwt>
</event>
<event>
 4    1  0.2165211E+000  0.2208385E+02  0.7546771E-02  0.1706806E+00
          4   -1    0    0  501    0  0.00000000000E+00  0.00000000000E+00  0.11437020693E+02  0.11437020693E+02  0.00000000000E+00 0.  1.
         -4   -1    0    0    0  501 -0.00000000000E+00 -0.00000000000E+00 -0.10660480026E+02  0.10660480026E+02  0.00000000000E+00 0. -1.
        -13    1    1    2    0    0  0.10538963572E+02 -0.27768868790E+01 -0.13857542631E+01  0.10986408366E+02  0.00000000000E+00 0. -1.
         13    1    1    2    0    0 -0.10538963572E+02  0.27768868790E+01  0.21622949309E+01  0.11111092353E+02  0.00000000000E+00 0.  1.
<mgrwt>
<rscale>  0 0.22083852E+02</rscale>
<asrwt>0</asrwt>
<pdfrwt beam="1">  1        4 0.17595417E-02 0.22083852E+02</pdfrwt>
<pdfrwt beam="2">  1       -4 0.16400738E-02 0.22083852E+02</pdfrwt>
<totfact> 0.10493449E+06</totfact>
</mgrwt>
</event>
<event>
 4    1  0.2165211E+000  0.3437839E+02  0.7546771E-02  0.1554191E+00
         -2   -1    0    0    0  501 -0.00000000000E+00  0.00000000000E+00  0.29006350938E+01  0.29006350938E+01  0.00000000000E+00 0.  1.
          2   -1    0    0  501    0  0.00000000000E+00 -0.00000000000E+00 -0.10186335645E+03  0.10186335645E+03  0.00000000000E+00 0. -1.
        -13    1    1    2    0    0 -0.40510791990E+01  0.16687323067E+02 -0.51822955158E+02  0.54593925258E+02  0.00000000000E+00 0.  1.
         13    1    1    2    0    0  0.40510791990E+01 -0.16687323067E+02 -0.47139766194E+02  0.50170066281E+02  0.00000000000E+00 0. -1.
<mgrwt>
<rscale>  0 0.34378390E+02</rscale>
<asrwt>0</asrwt>
<pdfrwt beam="2">  1        2 0.15671284E-01 0.34378390E+02</pdfrwt>
<pdfrwt beam="1">  1       -2 0.44625160E-03 0.34378390E+02</pdfrwt>
<totfact> 0.15171135E+06</totfact>
</mgrwt>
</event>
<event>
 4    1  0.2165211E+000  0.2670274E+02  0.7546771E-02  0.1637684E+00
          3   -1    0    0  501    0  0.00000000000E+00  0.00000000000E+00  0.38480277431E+01  0.38480277431E+01  0.00000000000E+00 0.  1.
         -3   -1    0    0    0  501 -0.00000000000E+00 -0.00000000000E+00 -0.46324781581E+02  0.46324781581E+02  0.00000000000E+00 0. -1.
        -11    1    1    2    0    0  0.92375750861E+01 -0.96386810183E+01 -0.21517571493E+02  0.25322773311E+02  0.00000000000E+00 0. -1.
         11    1    1    2    0    0 -0.92375750861E+01  0.96386810183E+01 -0.20959182345E+02  0.24850036013E+02  0.00000000000E+00 0.  1.
<mgrwt>
<rscale>  0 0.26702737E+02</rscale>
<asrwt>0</asrwt>
<pdfrwt beam="1">  1        3 0.59200430E-03 0.26702737E+02</pdfrwt>
<pdfrwt beam="2">  1       -3 0.71268891E-02 0.26702737E+02</pdfrwt>
<totfact> 0.85389500E+05</totfact>
</mgrwt>
</event>
<event>
 4    1  0.2165211E+000  0.6355646E+02  0.7546771E-02  0.1383485E+00
          2   -1    0    0  501    0  0.00000000000E+00  0.00000000000E+00  0.20223335744E+02  0.20223335744E+02  0.00000000000E+00 0.  1.
         -2   -1    0    0    0  501 -0.00000000000E+00 -0.00000000000E+00 -0.49935178467E+02  0.49935178467E+02  0.00000000000E+00 0. -1.
        -11    1    1    2    0    0  0.10762174054E+02 -0.80416758921E+01  0.16934259616E+02  0.21616245980E+02  0.00000000000E+00 0.  1.
         11    1    1    2    0    0 -0.10762174054E+02  0.80416758921E+01 -0.46646102339E+02  0.48542268230E+02  0.00000000000E+00 0. -1.
<mgrwt>
<rscale>  0 0.63556459E+02</rscale>
<asrwt>0</asrwt>
<pdfrwt beam="1">  1        2 0.31112825E-02 0.63556459E+02</pdfrwt>
<pdfrwt beam="2">  1       -2 0.76823350E-02 0.63556459E+02</pdfrwt>
<totfact> 0.22889412E+05</totfact>
</mgrwt>
</event>
<event>
 4    1  0.2165211E+000  0.3893644E+02  0.7546771E-02  0.1516187E+00
         -1   -1    0    0    0  501 -0.00000000000E+00  0.00000000000E+00  0.23585867549E+02  0.23585867549E+02  0.00000000000E+00 0. -1.
          1   -1    0    0  501    0  0.00000000000E+00 -0.00000000000E+00 -0.16069438349E+02  0.16069438349E+02  0.00000000000E+00 0.  1.
        -11    1    1    2    0    0 -0.12348613577E+02  0.84449475006E+00 -0.11546203621E+02  0.16926790797E+02  0.00000000000E+00 0.  1.
         11    1    1    2    0    0  0.12348613577E+02 -0.84449475006E+00  0.19062632820E+02  0.22728515101E+02  0.00000000000E+00 0. -1.
<mgrwt>
<rscale>  0 0.38936443E+02</rscale>
<asrwt>0</asrwt>
<pdfrwt beam="2">  1        1 0.24722213E-02 0.38936443E+02</pdfrwt>
<pdfrwt beam="1">  1       -1 0.36285950E-02 0.38936443E+02</pdfrwt>
<totfact> 0.80138471E+05</totfact>
</mgrwt>
</event>
<event>
 4    1  0.2165211E+000  0.2037332E+02  0.7546771E-02  0.1738004E+00
          2   -1    0    0  501    0  0.00000000000E+00  0.00000000000E+00  0.33004073394E+02  0.33004073394E+02  0.00000000000E+00 0.  1.
         -2   -1    0    0    0  501 -0.00000000000E+00 -0.00000000000E+00 -0.31440975875E+01  0.31440975875E+01  0.00000000000E+00 0. -1.
        -11    1    1    2    0    0 -0.10064856736E+02  0.15140444227E+01  0.15670859379E+02  0.18686077847E+02  0.00000000000E+00 0. -1.
         11    1    1    2    0    0  0.10064856736E+02 -0.15140444227E+01  0.14189116428E+02  0.17462093134E+02  0.00000000000E+00 0.  1.
<mgrwt>
<rscale>  0 0.20373319E+02</rscale>
<asrwt>0</asrwt>
<pdfrwt beam="1">  1        2 0.50775495E-02 0.20373319E+02</pdfrwt>
<pdfrwt beam="2">  1       -2 0.48370734E-03 0.20373319E+02</pdfrwt>
<totfact> 0.42061231E+06</totfact>
</mgrwt>
</event>
<event>
 4    1  0.2165211E+000  0.3164867E+02  0.7546771E-02  0.1580549E+00
          2   -1    0    0  501    0  0.00000000000E+00  0.00000000000E+00  0.22922430181E+02  0.22922430181E+02  0.00000000000E+00 0. -1.
         -2   -1    0    0    0  501 -0.00000000000E+00 -0.00000000000E+00 -0.10924213479E+02  0.10924213479E+02  0.00000000000E+00 0.  1.
        -13    1    1    2    0    0  0.66253116364E+01 -0.13968185896E+02  0.96107051343E+01  0.18203588236E+02  0.00000000000E+00 0. -1.
         13    1    1    2    0    0 -0.66253116364E+01  0.13968185896E+02  0.23875115669E+01  0.15643055424E+02  0.00000000000E+00 0.  1.
<mgrwt>
<rscale>  0 0.31648666E+02</rscale>
<asrwt>0</asrwt>
<pdfrwt beam="1">  1        2 0.35265277E-02 0.31648666E+02</pdfrwt>
<pdfrwt beam="2">  1       -2 0.16806482E-02 0.31648666E+02</pdfrwt>
<totfact> 0.14379930E+06</totfact>
</mgrwt>
</event>
<event>
 4    1  0.2165211E+000  0.3697739E+02  0.7546771E-02  0.1531711E+00
          1   -1    0    0  501    0  0.00000000000E+00  0.00000000000E+00  0.38507913731E+02  0.38507913731E+02  0.00000000000E+00 0.  1.
         -1   -1    0    0    0  501 -0.00000000000E+00 -0.00000000000E+00 -0.88769243120E+01  0.88769243120E+01  0.00000000000E+00 0. -1.
        -13    1    1    2    0    0  0.24666683225E+01 -0.11479009101E+02  0.33117415056E+02  0.35137092688E+02  0.00000000000E+00 0.  1.
         13    1    1    2    0    0 -0.24666683225E+01  0.11479009101E+02 -0.34864256373E+01  0.12247745355E+02  0.00000000000E+00 0. -1.
<mgrwt>
<rscale>  0 0.36977390E+02</rscale>
<asrwt>0</asrwt>
<pdfrwt beam="1">  1        1 0.59242944E-02 0.36977390E+02</pdfrwt>
<pdfrwt beam="2">  1       -1 0.13656807E-02 0.36977390E+02</pdfrwt>
<totfact> 0.97065815E+05</totfact>
</mgrwt>
</event>
<event>
 4    1  0.2165211E+000  0.5913566E+02  0.7546771E-02  0.1401495E+00
         -4   -1    0    0    0  501 -0.00000000000E+00  0.00000000000E+00  0.50635803656E+01  0.50635803656E+01  0.00000000000E+00 0. -1.
          4   -1    0    0  501    0  0.00000000000E+00 -0.00000000000E+00 -0.17265583625E+03  0.17265583625E+03  0.00000000000E+00 0.  1.
        -11    1    1    2    0    0 -0.14164017968E+02  0.25925772360E+02 -0.80125712549E+02  0.85398447814E+02  0.00000000000E+00 0.  1.
         11    1    1    2    0    0  0.14164017968E+02 -0.25925772360E+02 -0.87466543331E+02  0.92320968797E+02  0.00000000000E+00 0. -1.
<mgrwt>
<rscale>  0 0.59135664E+02</rscale>
<asrwt>0</asrwt>
<pdfrwt beam="2">  1        4 0.26562434E-01 0.59135664E+02</pdfrwt>
<pdfrwt beam="1">  1       -4 0.77901244E-03 0.59135664E+02</pdfrwt>
<totfact> 0.68817223E+04</totfact>
</mgrwt>
</event>
<event>
 4    1  0.2165211E+000  0.6401086E+02  0.7546771E-02  0.1381731E+00
          4   -1    0    0  501    0  0.00000000000E+00  0.00000000000E+00  0.19201092403E+02  0.19201092403E+02  0.00000000000E+00 0. -1.
         -4   -1    0    0    0  501 -0.00000000000E+00 -0.00000000000E+00 -0.53348401743E+02  0.53348401743E+02  0.00000000000E+00 0.  1.
        -13    1    1    2    0    0 -0.20451563266E+02  0.18042086886E+02  0.19107457375E+01  0.27339244476E+02  0.00000000000E+00 0. -1.
         13    1    1    2    0    0  0.20451563266E+02 -0.18042086886E+02 -0.36058055078E+02  0.45210249670E+02  0.00000000000E+00 0.  1.
<mgrwt>
<rscale>  0 0.64010861E+02</rscale>
<asrwt>0</asrwt>
<pdfrwt beam="1">  1        4 0.29540143E-02 0.64010861E+02</pdfrwt>
<pdfrwt beam="2">  1       -4 0.82074463E-02 0.64010861E+02</pdfrwt>
<totfact> 0.72249004E+04</totfact>
</mgrwt>
</event>
<event>
 4    1  0.2165211E+000  0.4433667E+02  0.7546771E-02  0.1478526E+00
          2   -1    0    0  501    0  0.00000000000E+00  0.00000000000E+00  0.13350164593E+02  0.13350164593E+02  0.00000000000E+00 0. -1.
         -2   -1    0    0    0  501 -0.00000000000E+00 -0.00000000000E+00 -0.36811170635E+02  0.36811170635E+02  0.00000000000E+00 0.  1.
        -13    1    1    2    0    0  0.22073138170E+02 -0.17149179178E+01 -0.10455101054E+02  0.24484148141E+02  0.00000000000E+00 0. -1.
         13    1    1    2    0    0 -0.22073138170E+02  0.17149179178E+01 -0.13005904988E+02  0.25677187087E+02  0.00000000000E+00 0.  1.
<mgrwt>
<rscale>  0 0.44336675E+02</rscale>
<asrwt>0</asrwt>
<pdfrwt beam="1">  1        2 0.20538715E-02 0.44336675E+02</pdfrwt>
<pdfrwt beam="2">  1       -2 0.56632570E-02 0.44336675E+02</pdfrwt>
<totfact> 0.57033219E+05</totfact>
</mgrwt>
</event>
<event>
 4    1  0.2165211E+000  0.2598951E+02  0.7546771E-02  0.1647183E+00
         -3   -1    0    0    0  501 -0.00000000000E+00  0.00000000000E+00  0.88658518414E+02  0.88658518414E+02  0.00000000000E+00 0. -1.
          3   -1    0    0  501    0  0.00000000000E+00 -0.00000000000E+00 -0.19046528452E+01  0.19046528452E+01  0.00000000000E+00 0.  1.
        -13    1    1    2    0    0 -0.38944254366E+01  0.12365346061E+02  0.40269246529E+02  0.42304616163E+02  0.00000000000E+00 0. -1.
         13    1    1    2    0    0  0.38944254366E+01 -0.12365346061E+02  0.46484619040E+02  0.48258555096E+02  0.00000000000E+00 0.  1.
<mgrwt>
<rscale>  0 0.25989513E+02</rscale>
<asrwt>0</asrwt>
<pdfrwt beam="2">  1        3 0.29302358E-03 0.25989513E+02</pdfrwt>
<pdfrwt beam="1">  1       -3 0.13639769E-01 0.25989513E+02</pdfrwt>
<totfact> 0.81457604E+05</totfact>
</mgrwt>
</event>
<event>
 4    1  0.2165211E+000  0.2133761E+02  0.7546771E-02  0.1719966E+00
         -2   -1    0    0    0  501 -0.00000000000E+00  0.00000000000E+00  0.40674106651E+01  0.40674106651E+01  0.00000000000E+00 0.  1.
          2   -1    0    0  501    0  0.00000000000E+00 -0.00000000000E+00 -0.27984233671E+02  0.27984233671E+02  0.00000000000E+00 0. -1.
        -11    1    1    2    0    0  0.64267012124E+01  0.83398769600E+01 -0.14545956062E+02  0.17956638715E+02  0.00000000000E+00 0.  1.
         11    1    1    2    0    0 -0.64267012124E+01 -0.83398769600E+01 -0.93708669443E+01  0.14095005621E+02  0.00000000000E+00 0. -1.
<mgrwt>
<rscale>  0 0.21337607E+02</rscale>
<asrwt>0</asrwt>
<pdfrwt beam="2">  1        2 0.43052668E-02 0.21337607E+02</pdfrwt>
<pdfrwt beam="1">  1       -2 0.62575547E-03 0.21337607E+02</pdfrwt>
<totfact> 0.37191694E+06</totfact>
</mgrwt>
</event>
<event>
 4    1  0.2165211E+000  0.2166999E+02  0.7546771E-02  0.1714023E+00
          2   -1    0    0  501    0  0.00000000000E+00  0.00000000000E+00  0.90631187590E+01  0.90631187590E+01  0.00000000000E+00 0.  1.
         -2   -1    0    0    0  501 -0.00000000000E+00 -0.00000000000E+00 -0.12953283177E+02  0.12953283177E+02  0.00000000000E+00 0. -1.
        -11    1    1    2    0    0  0.10529626830E+02 -0.24174922121E+01 -0.11073812469E+01  0.10860184299E+02  0.00000000000E+00 0.  1.
         11    1    1    2    0    0 -0.10529626830E+02  0.24174922121E+01 -0.27827831707E+01  0.11156217637E+02  0.00000000000E+00 0. -1.
<mgrwt>
<rscale>  0 0.21669993E+02</rscale>
<asrwt>0</asrwt>
<pdfrwt beam="1">  1        2 0.13943260E-02 0.21669993E+02</pdfrwt>
<pdfrwt beam="2">  1       -2 0.19928128E-02 0.21669993E+02</pdfrwt>
<totfact> 0.32548183E+06</totfact>
</mgrwt>
</event>
<event>
 4    1  0.2165211E+000  0.3853107E+02  0.7546771E-02  0.1519308E+00
          2   -1    0    0  501    0  0.00000000000E+00  0.00000000000E+00  0.54335473642E+01  0.54335473642E+01  0.00000000000E+00 0. -1.
         -2   -1    0    0    0  501 -0.00000000000E+00 -0.00000000000E+00 -0.68309116066E+02  0.68309116066E+02  0.00000000000E+00 0.  1.
        -11    1    1    2    0    0 -0.18133779808E+02 -0.13906361589E+00 -0.43886269019E+02  0.47485344236E+02  0.00000000000E+00 0. -1.
         11    1    1    2    0    0  0.18133779808E+02  0.13906361589E+00 -0.18989299683E+02  0.26257319194E+02  0.00000000000E+00 0.  1.
<mgrwt>
<rscale>  0 0.38531069E+02</rscale>
<asrwt>0</asrwt>
<pdfrwt beam="1">  1        2 0.83593030E-03 0.38531069E+02</pdfrwt>
<pdfrwt beam="2">  1       -2 0.10509096E-01 0.38531069E+02</pdfrwt>
<totfact> 0.71866387E+05</totfact>
</mgrwt>
</event>
<event>
 4    1  0.2165211E+000  0.3184539E+02  0.7546771E-02  0.1578543E+00
         -4   -1    0    0    0  501 -0.00000000000E+00  0.00000000000E+00  0.39743766450E+01  0.39743766450E+01  0.00000000000E+00 0.  1.
          4   -1    0    0  501    0  0.00000000000E+00 -0.00000000000E+00 -0.63791689642E+02  0.63791689642E+02  0.00000000000E+00 0. -1.
        -13    1    1    2    0    0 -0.14251536107E+02  0.30432724048E+00 -0.45005753339E+02  0.47209286481E+02  0.00000000000E+00 0. -1.
         13    1    1    2    0    0  0.14251536107E+02 -0.30432724048E+00 -0.14811559658E+02  0.20556779806E+02  0.00000000000E+00 0.  1.
<mgrwt>
<rscale>  0 0.31845389E+02</rscale>
<asrwt>0</asrwt>
<pdfrwt beam="2">  1        4 0.98141060E-02 0.31845389E+02</pdfrwt>
<pdfrwt beam="1">  1       -4 0.61144257E-03 0.31845389E+02</pdfrwt>
<totfact> 0.39920651E+05</totfact>
</mgrwt>
</event>
<event>
 4    1  0.2165211E+000  0.2348684E+02  0.7546771E-02  0.1683738E+00
          4   -1    0    0  501    0  0.00000000000E+00  0.00000000000E+00  0.23454170489E+02  0.23454170489E+02  0.00000000000E+00 0.  1.
         -4   -1    0    0    0  501 -0.00000000000E+00 -0.00000000000E+00 -0.58798863815E+01  0.58798863815E+01  0.00000000000E+00 0. -1.
        -11    1    1    2    0    0 -0.95785596109E+01 -0.67119414304E+01  0.74719385113E+01  0.13879078756E+02  0.00000000000E+00 0. -1.
         11    1    1    2    0    0  0.95785596109E+01  0.67119414304E+01  0.10102345596E+02  0.15454978115E+02  0.00000000000E+00 0.  1.
<mgrwt>
<rscale>  0 0.23486835E+02</rscale>
<asrwt>0</asrwt>
<pdfrwt beam="1">  1        4 0.36083339E-02 0.23486835E+02</pdfrwt>
<pdfrwt beam="2">  1       -4 0.90459792E-03 0.23486835E+02</pdfrwt>
<totfact> 0.89333806E+05</totfact>
</mgrwt>
</event>
<event>
 4    1  0.2165211E+000  0.2815156E+02  0.7546771E-02  0.1619468E+00
          3   -1    0    0  501    0  0.00000000000E+00  0.00000000000E+00  0.24758990719E+02  0.24758990719E+02  0.00000000000E+00 0.  1.
         -3   -1    0    0    0  501 -0.00000000000E+00 -0.00000000000E+00 -0.80022493584E+01  0.80022493584E+01  0.00000000000E+00 0. -1.
        -11    1    1    2    0    0  0.43448620308E+01 -0.12047154071E+02  0.15810766679E+01  0.12903935473E+02  0.00000000000E+00 0. -1.
         11    1    1    2    0    0 -0.43448620308E+01  0.12047154071E+02  0.15175664693E+02  0.19857304604E+02  0.00000000000E+00 0.  1.
<mgrwt>
<rscale>  0 0.28151562E+02</rscale>
<asrwt>0</asrwt>
<pdfrwt beam="1">  1        3 0.38090755E-02 0.28151562E+02</pdfrwt>
<pdfrwt beam="2">  1       -3 0.12311153E-02 0.28151562E+02</pdfrwt>
<totfact> 0.79767815E+05</totfact>
</mgrwt>
</event>
<event>
 4    1  0.2165211E+000  0.3335871E+02  0.7546771E-02  0.1563678E+00
         -2   -1    0    0    0  501 -0.00000000000E+00  0.00000000000E+00  0.25575345652E+02  0.25575345652E+02  0.00000000000E+00 0. -1.
          2   -1    0    0  501    0  0.00000000000E+00 -0.00000000000E+00 -0.10877696949E+02  0.10877696949E+02  0.00000000000E+00 0.  1.
        -13    1    1    2    0    0 -0.65364199053E+01  0.11313936032E+02  0.18677262782E+02  0.22794079906E+02  0.00000000000E+00 0. -1.
         13    1    1    2    0    0  0.65364199053E+01 -0.11313936032E+02 -0.39796140785E+01  0.13658962696E+02  0.00000000000E+00 0.  1.
<mgrwt>
<rscale>  0 0.33358709E+02</rscale>
<asrwt>0</asrwt>
<pdfrwt beam="2">  1        2 0.16734918E-02 0.33358709E+02</pdfrwt>
<pdfrwt beam="1">  1       -2 0.39346685E-02 0.33358709E+02</pdfrwt>
<totfact> 0.11614703E+06</totfact>
</mgrwt>
</event>
<event>
 4    1  0.2165211E+000  0.2942024E+02  0.7546771E-02  0.1604587E+00
         -2   -1    0    0    0  501 -0.00000000000E+00  0.00000000000E+00  0.33722041574E+02  0.33722041574E+02  0.00000000000E+00 0.  1.
          2   -1    0    0  501    0  0.00000000000E+00 -0.00000000000E+00 -0.64168023546E+01  0.64168023546E+01  0.00000000000E+00 0. -1.
        -13    1    1    2    0    0 -0.73085833767E+01 -0.12486054693E+02  0.17280479579E+02  0.22537345169E+02  0.00000000000E+00 0. -1.
         13    1    1    2    0    0  0.73085833767E+01  0.12486054693E+02  0.10024759641E+02  0.17601498760E+02  0.00000000000E+00 0.  1.
<mgrwt>
<rscale>  0 0.29420243E+02</rscale>
<asrwt>0</asrwt>
<pdfrwt beam="2">  1        2 0.98720039E-03 0.29420243E+02</pdfrwt>
<pdfrwt beam="1">  1       -2 0.51880063E-02 0.29420243E+02</pdfrwt>
<totfact> 0.15006940E+06</totfact>
</mgrwt>
</event>
<event>
 4    1  0.2165211E+000  0.2388068E+02  0.7546771E-02  0.1677620E+00
         -2   -1    0    0    0  501 -0.00000000000E+00  0.00000000000E+00  0.10841534870E+02  0.10841534870E+02  0.00000000000E+00 0.  1.
          2   -1    0    0  501    0  0.00000000000E+00 -0.00000000000E+00 -0.13150515312E+02  0.13150515312E+02  0.00000000000E+00 0. -1.
        -11    1    1    2    0    0  0.47677103940E+01 -0.94033991363E+01 -0.67856975415E+01  0.12537969088E+02  0.00000000000E+00 0.  1.
         11    1    1    2    0    0 -0.47677103940E+01  0.94033991363E+01  0.44767171001E+01  0.11454081094E+02  0.00000000000E+00 0. -1.
<mgrwt>
<rscale>  0 0.23880684E+02</rscale>
<asrwt>0</asrwt>
<pdfrwt beam="2">  1        2 0.20231562E-02 0.23880684E+02</pdfrwt>
<pdfrwt beam="1">  1       -2 0.16679284E-02 0.23880684E+02</pdfrwt>
<totfact> 0.26728989E+06</totfact>
</mgrwt>
</event>
<event>
 4    1  0.2165211E+000  0.2324927E+02  0.7546771E-02  0.1687501E+00
         -4   -1    0    0    0  501 -0.00000000000E+00  0.00000000000E+00  0.25533958056E+02  0.25533958056E+02  0.00000000000E+00 0.  1.
          4   -1    0    0  501    0  0.00000000000E+00 -0.00000000000E+00 -0.52922500175E+01  0.52922500175E+01  0.00000000000E+00 0. -1.
        -11    1    1    2    0    0 -0.70259439380E+01 -0.90308796325E+01  0.73998770037E+01  0.13626402857E+02  0.00000000000E+00 0. -1.
         11    1    1    2    0    0  0.70259439380E+01  0.90308796325E+01  0.12841831035E+02  0.17199805217E+02  0.00000000000E+00 0.  1.
<mgrwt>
<rscale>  0 0.23249266E+02</rscale>
<asrwt>0</asrwt>
<pdfrwt beam="2">  1        4 0.81419233E-03 0.23249266E+02</pdfrwt>
<pdfrwt beam="1">  1       -4 0.39283012E-02 0.23249266E+02</pdfrwt>
<totfact> 0.90733524E+05</totfact>
</mgrwt>
</event>
<event>
 4    1  0.2165211E+000  0.2467535E+02  0.7546771E-02  0.1665709E+00
          1   -1    0    0  501    0  0.00000000000E+00  0.00000000000E+00  0.74189134947E+02  0.74189134947E+02  0.00000000000E+00 0. -1.
         -1   -1    0    0    0  501 -0.00000000000E+00 -0.00000000000E+00 -0.20517593261E+01  0.20517593261E+01  0.00000000000E+00 0.  1.
        -13    1    1    2    0    0  0.11068161737E+01 -0.10661647434E+02  0.54944683954E+02  0.55980479302E+02  0.00000000000E+00 0. -1.
         13    1    1    2    0    0 -0.11068161737E+01  0.10661647434E+02  0.17192691667E+02  0.20260414972E+02  0.00000000000E+00 0.  1.
<mgrwt>
<rscale>  0 0.24675352E+02</rscale>
<asrwt>0</asrwt>
<pdfrwt beam="1">  1        1 0.11413711E-01 0.24675352E+02</pdfrwt>
<pdfrwt beam="2">  1       -1 0.31565534E-03 0.24675352E+02</pdfrwt>
<totfact> 0.26813734E+06</totfact>
</mgrwt>
</event>
<event>
 4    1  0.2165211E+000  0.4336522E+02  0.7546771E-02  0.1484813E+00
          1   -1    0    0  501    0  0.00000000000E+00  0.00000000000E+00  0.12931277228E+02  0.12931277228E+02  0.00000000000E+00 0. -1.
         -1   -1    0    0    0  501 -0.00000000000E+00 -0.00000000000E+00 -0.36356475182E+02  0.36356475182E+02  0.00000000000E+00 0.  1.
        -13    1    1    2    0    0  0.90924246282E+01 -0.89989282567E+01  0.81849897386E+01  0.15187065299E+02  0.00000000000E+00 0. -1.
         13    1    1    2    0    0 -0.90924246282E+01  0.89989282567E+01 -0.31610187693E+02  0.34100687110E+02  0.00000000000E+00 0.  1.
<mgrwt>
<rscale>  0 0.43365224E+02</rscale>
<asrwt>0</asrwt>
<pdfrwt beam="1">  1        1 0.19894273E-02 0.43365224E+02</pdfrwt>
<pdfrwt beam="2">  1       -1 0.55933038E-02 0.43365224E+02</pdfrwt>
<totfact> 0.59718137E+05</totfact>
</mgrwt>
</event>
<event>
 4    1  0.2165211E+000  0.2969680E+02  0.7546771E-02  0.1601464E+00
          2   -1    0    0  501    0  0.00000000000E+00  0.00000000000E+00  0.43353117048E+01  0.43353117048E+01  0.00000000000E+00 0.  1.
         -2   -1    0    0    0  501 -0.00000000000E+00 -0.00000000000E+00 -0.50855632826E+02  0.50855632826E+02  0.00000000000E+00 0. -1.
        -13    1    1    2    0    0  0.14438804534E+02  0.33688162957E+01 -0.24755077991E+02  0.28855534754E+02  0.00000000000E+00 0. -1.
         13    1    1    2    0    0 -0.14438804534E+02 -0.33688162957E+01 -0.21765243131E+02  0.26335409777E+02  0.00000000000E+00 0.  1.
<mgrwt>
<rscale>  0 0.29696803E+02</rscale>
<asrwt>0</asrwt>
<pdfrwt beam="1">  1        2 0.66697107E-03 0.29696803E+02</pdfrwt>
<pdfrwt beam="2">  1       -2 0.78239430E-02 0.29696803E+02</pdfrwt>
<totfact> 0.13900607E+06</totfact>
</mgrwt>
</event>
<event>
 4    1  0.2165211E+000  0.2182336E+02  0.7546771E-02  0.1711325E+00
          4   -1    0    0  501    0  0.00000000000E+00  0.00000000000E+00  0.48136747477E+01  0.48136747477E+01  0.00000000000E+00 0. -1.
         -4   -1    0    0    0  501 -0.00000000000E+00 -0.00000000000E+00 -0.24734696799E+02  0.24734696799E+02  0.00000000000E+00 0.  1.
        -11    1    1    2    0    0  0.11114345247E+01  0.10533683636E+02 -0.13509642663E+02  0.17166951463E+02  0.00000000000E+00 0. -1.
         11    1    1    2    0    0 -0.11114345247E+01 -0.10533683636E+02 -0.64113793879E+01  0.12381420084E+02  0.00000000000E+00 0.  1.
<mgrwt>
<rscale>  0 0.21823362E+02</rscale>
<asrwt>0</asrwt>
<pdfrwt beam="1">  1        4 0.74056534E-03 0.21823362E+02</pdfrwt>
<pdfrwt beam="2">  1       -4 0.38053380E-02 0.21823362E+02</pdfrwt>
<totfact> 0.10421512E+06</totfact>
</mgrwt>
</event>
<event>
 4    1  0.2165211E+000  0.5079989E+02  0.7546771E-02  0.1441074E+00
         -2   -1    0    0    0  501 -0.00000000000E+00  0.00000000000E+00  0.38168018764E+02  0.38168018764E+02  0.00000000000E+00 0. -1.
          2   -1    0    0  501    0  0.00000000000E+00 -0.00000000000E+00 -0.16903085900E+02  0.16903085900E+02  0.00000000000E+00 0.  1.
        -13    1    1    2    0    0  0.14945720715E+02  0.16936044620E+02  0.23226140721E+02  0.32398422614E+02  0.00000000000E+00 0. -1.
         13    1    1    2    0    0 -0.14945720715E+02 -0.16936044620E+02 -0.19612078572E+01  0.22672682050E+02  0.00000000000E+00 0.  1.
<mgrwt>
<rscale>  0 0.50799894E+02</rscale>
<asrwt>0</asrwt>
<pdfrwt beam="2">  1        2 0.26004748E-02 0.50799894E+02</pdfrwt>
<pdfrwt beam="1">  1       -2 0.58720028E-02 0.50799894E+02</pdfrwt>
<totfact> 0.41079141E+05</totfact>
</mgrwt>
</event>
<event>
 4    1  0.2165211E+000  0.3788605E+02  0.7546771E-02  0.1524370E+00
          4   -1    0    0  501    0  0.00000000000E+00  0.00000000000E+00  0.69263688090E+01  0.69263688090E+01  0.00000000000E+00 0. -1.
         -4   -1    0    0    0  501 -0.00000000000E+00 -0.00000000000E+00 -0.51807547088E+02  0.51807547088E+02  0.00000000000E+00 0.  1.
        -13    1    1    2    0    0 -0.16012895218E+01 -0.18849278329E+02 -0.23974312324E+02  0.30538943549E+02  0.00000000000E+00 0. -1.
         13    1    1    2    0    0  0.16012895218E+01  0.18849278329E+02 -0.20906865955E+02  0.28194972348E+02  0.00000000000E+00 0.  1.
<mgrwt>
<rscale>  0 0.37886049E+02</rscale>
<asrwt>0</asrwt>
<pdfrwt beam="1">  1        4 0.10655952E-02 0.37886049E+02</pdfrwt>
<pdfrwt beam="2">  1       -4 0.79703919E-02 0.37886049E+02</pdfrwt>
<totfact> 0.27474250E+05</totfact>
</mgrwt>
</event>
<event>
 4    1  0.2165211E+000  0.4871354E+02  0.7546771E-02  0.1452406E+00
          4   -1    0    0  501    0  0.00000000000E+00  0.00000000000E+00  0.32904127446E+02  0.32904127446E+02  0.00000000000E+00 0. -1.
         -4   -1    0    0    0  501 -0.00000000000E+00 -0.00000000000E+00 -0.18029718636E+02  0.18029718636E+02  0.00000000000E+00 0.  1.
        -13    1    1    2    0    0 -0.22776356146E+02  0.61961610981E+01  0.11552546124E+01  0.23632380855E+02  0.00000000000E+00 0. -1.
         13    1    1    2    0    0  0.22776356146E+02 -0.61961610981E+01  0.13719154198E+02  0.27301465227E+02  0.00000000000E+00 0.  1.
<mgrwt>
<rscale>  0 0.48713537E+02</rscale>
<asrwt>0</asrwt>
<pdfrwt beam="1">  1        4 0.50621735E-02 0.48713537E+02</pdfrwt>
<pdfrwt beam="2">  1       -4 0.27738029E-02 0.48713537E+02</pdfrwt>
<totfact> 0.15335091E+05</totfact>
</mgrwt>
</event>
<event>
 4    1  0.2165211E+000  0.2697485E+02  0.7546771E-02  0.1634156E+00
          2   -1    0    0  501    0  0.00000000000E+00  0.00000000000E+00  0.74521265668E+01  0.74521265668E+01  0.00000000000E+00 0.  1.
         -2   -1    0    0    0  501 -0.00000000000E+00 -0.00000000000E+00 -0.24410574184E+02  0.24410574184E+02  0.00000000000E+00 0. -1.
        -11    1    1    2    0    0 -0.51711009415E+01  0.11608910784E+02 -0.31437030312E+01  0.13091598958E+02  0.00000000000E+00 0.  1.
         11    1    1    2    0    0  0.51711009415E+01 -0.11608910784E+02 -0.13814744586E+02  0.18771101793E+02  0.00000000000E+00 0. -1.
<mgrwt>
<rscale>  0 0.26974854E+02</rscale>
<asrwt>0</asrwt>
<pdfrwt beam="1">  1        2 0.11464810E-02 0.26974854E+02</pdfrwt>
<pdfrwt beam="2">  1       -2 0.37554730E-02 0.26974854E+02</pdfrwt>
<totfact> 0.18940291E+06</totfact>
</mgrwt>
</event>
<event>
 4    1  0.2165211E+000  0.2401175E+02  0.7546771E-02  0.1675616E+00
          2   -1    0    0  501    0  0.00000000000E+00  0.00000000000E+00  0.84962951642E+01  0.84962951642E+01  0.00000000000E+00 0. -1.
         -2   -1    0    0    0  501 -0.00000000000E+00 -0.00000000000E+00 -0.16965163224E+02  0.16965163224E+02  0.00000000000E+00 0.  1.
        -11    1    1    2    0    0  0.99977330997E+01 -0.64014803839E+01 -0.61334871375E+01  0.13362383122E+02  0.00000000000E+00 0. -1.
         11    1    1    2    0    0 -0.99977330997E+01  0.64014803839E+01 -0.23353809222E+01  0.12099075266E+02  0.00000000000E+00 0.  1.
<mgrwt>
<rscale>  0 0.24011750E+02</rscale>
<asrwt>0</asrwt>
<pdfrwt beam="1">  1        2 0.13071224E-02 0.24011750E+02</pdfrwt>
<pdfrwt beam="2">  1       -2 0.26100251E-02 0.24011750E+02</pdfrwt>
<totfact> 0.25419998E+06</totfact>
</mgrwt>
</event>
<event>
 4    1  0.2165211E+000  0.2711996E+02  0.7546771E-02  0.1632295E+00
         -2   -1    0    0    0  501 -0.00000000000E+00  0.00000000000E+00  0.34426807569E+02  0.34426807569E+02  0.00000000000E+00 0. -1.
          2   -1    0    0  501    0  0.00000000000E+00 -0.00000000000E+00 -0.53409856686E+01  0.53409856686E+01  0.00000000000E+00 0.  1.
        -11    1    1    2    0    0 -0.68196315082E+01  0.10767195793E+02  0.77542207514E+01  0.14918707002E+02  0.00000000000E+00 0.  1.
         11    1    1    2    0    0  0.68196315082E+01 -0.10767195793E+02  0.21331601149E+02  0.24849086236E+02  0.00000000000E+00 0. -1.
<mgrwt>
<rscale>  0 0.27119962E+02</rscale>
<asrwt>0</asrwt>
<pdfrwt beam="2">  1        2 0.82169012E-03 0.27119962E+02</pdfrwt>
<pdfrwt beam="1">  1       -2 0.52964318E-02 0.27119962E+02</pdfrwt>
<totfact> 0.18021826E+06</totfact>
</mgrwt>
</event>
<event>
 4    1  0.2165211E+000  0.2060978E+02  0.7546771E-02  0.1733467E+00
          2   -1    0    0  501    0  0.00000000000E+00  0.00000000000E+00  0.17914287163E+02  0.17914287163E+02  0.00000000000E+00 0. -1.
         -2   -1    0    0    0  501 -0.00000000000E+00 -0.00000000000E+00 -0.59277114645E+01  0.59277114645E+01  0.00000000000E+00 0.  1.
        -11    1    1    2    0    0  0.60834457446E+01 -0.82931194264E+01  0.67309274376E+01  0.12291847954E+02  0.00000000000E+00 0. -1.
         11    1    1    2    0    0 -0.60834457446E+01  0.82931194264E+01  0.52556482613E+01  0.11550150674E+02  0.00000000000E+00 0.  1.
<mgrwt>
<rscale>  0 0.20609777E+02</rscale>
<asrwt>0</asrwt>
<pdfrwt beam="1">  1        2 0.27560442E-02 0.20609777E+02</pdfrwt>
<pdfrwt beam="2">  1       -2 0.91195561E-03 0.20609777E+02</pdfrwt>
<totfact> 0.38566338E+06</totfact>
</mgrwt>
</event>
<event>
 4    1  0.2165211E+000  0.2404529E+02  0.7546771E-02  0.1675106E+00
          2   -1    0    0  501    0  0.00000000000E+00  0.00000000000E+00  0.23402546593E+01  0.23402546593E+01  0.00000000000E+00 0.  1.
         -2   -1    0    0    0  501 -0.00000000000E+00 -0.00000000000E+00 -0.61764219330E+02  0.61764219330E+02  0.00000000000E+00 0. -1.
        -13    1    1    2    0    0  0.10348570904E+02 -0.33084327875E+01 -0.15986578896E+02  0.19328977004E+02  0.00000000000E+00 0.  1.
         13    1    1    2    0    0 -0.10348570904E+02  0.33084327875E+01 -0.43437385775E+02  0.44775496985E+02  0.00000000000E+00 0. -1.
<mgrwt>
<rscale>  0 0.24045291E+02</rscale>
<asrwt>0</asrwt>
<pdfrwt beam="1">  1        2 0.36003922E-03 0.24045291E+02</pdfrwt>
<pdfrwt beam="2">  1       -2 0.95021865E-02 0.24045291E+02</pdfrwt>
<totfact> 0.21801634E+06</totfact>
</mgrwt>
</event>
<event>
 4    1  0.2165211E+000  0.3158495E+02  0.7546771E-02  0.1581202E+00
         -2   -1    0    0    0  501 -0.00000000000E+00  0.00000000000E+00  0.17864513710E+02  0.17864513710E+02  0.00000000000E+00 0. -1.
          2   -1    0    0  501    0  0.00000000000E+00 -0.00000000000E+00 -0.13960762807E+02  0.13960762807E+02  0.00000000000E+00 0.  1.
        -13    1    1    2    0    0 -0.68746611933E-01  0.15763187631E+02  0.98571129212E+00  0.15794126666E+02  0.00000000000E+00 0.  1.
         13    1    1    2    0    0  0.68746611933E-01 -0.15763187631E+02  0.29180396114E+01  0.16031149851E+02  0.00000000000E+00 0. -1.
<mgrwt>
<rscale>  0 0.31584948E+02</rscale>
<asrwt>0</asrwt>
<pdfrwt beam="2">  1        2 0.21478097E-02 0.31584948E+02</pdfrwt>
<pdfrwt beam="1">  1       -2 0.27483867E-02 0.31584948E+02</pdfrwt>
<totfact> 0.13688643E+06</totfact>
</mgrwt>
</event>
<event>
 4    1  0.2165211E+000  0.2064744E+02  0.7546771E-02  0.1732751E+00
         -2   -1    0    0    0  501 -0.00000000000E+00  0.00000000000E+00  0.30062784766E+02  0.30062784766E+02  0.00000000000E+00 0. -1.
          2   -1    0    0  501    0  0.00000000000E+00 -0.00000000000E+00 -0.35452188123E+01  0.35452188123E+01  0.00000000000E+00 0.  1.
        -11    1    1    2    0    0 -0.30948020527E+01  0.96409997266E+01  0.99820824942E+01  0.14218602125E+02  0.00000000000E+00 0. -1.
         11    1    1    2    0    0  0.30948020527E+01 -0.96409997266E+01  0.16535483459E+02  0.19389401453E+02  0.00000000000E+00 0.  1.
<mgrwt>
<rscale>  0 0.20647436E+02</rscale>
<asrwt>0</asrwt>
<pdfrwt beam="2">  1        2 0.54541830E-03 0.20647436E+02</pdfrwt>
<pdfrwt beam="1">  1       -2 0.46250436E-02 0.20647436E+02</pdfrwt>
<totfact> 0.33629594E+06</totfact>
</mgrwt>
</event>
<event>
 4    1  0.2165211E+000  0.4602462E+02  0.7546771E-02  0.1468045E+00
          4   -1    0    0  501    0  0.00000000000E+00  0.00000000000E+00  0.34662447436E+02  0.34662447436E+02  0.00000000000E+00 0.  1.
         -4   -1    0    0    0  501 -0.00000000000E+00 -0.00000000000E+00 -0.15277815007E+02  0.15277815007E+02  0.00000000000E+00 0. -1.
        -13    1    1    2    0    0 -0.12948880353E+02  0.10070616486E+02 -0.78200224254E+01  0.18172604919E+02  0.00000000000E+00 0. -1.
         13    1    1    2    0    0  0.12948880353E+02 -0.10070616486E+02  0.27204654855E+02  0.31767657524E+02  0.00000000000E+00 0.  1.
<mgrwt>
<rscale>  0 0.46024622E+02</rscale>
<asrwt>0</asrwt>
<pdfrwt beam="1">  1        4 0.53326842E-02 0.46024622E+02</pdfrwt>
<pdfrwt beam="2">  1       -4 0.23504331E-02 0.46024622E+02</pdfrwt>
<totfact> 0.17691248E+05</totfact>
</mgrwt>
</event>
<event>
 4    1  0.2165211E+000  0.2613241E+02  0.7546771E-02  0.1645250E+00
          4   -1    0    0  501    0  0.00000000000E+00  0.00000000000E+00  0.38762726214E+01  0.38762726214E+01  0.00000000000E+00 0.  1.
         -4   -1    0    0    0  501 -0.00000000000E+00 -0.00000000000E+00 -0.44043797252E+02  0.44043797252E+02  0.00000000000E+00 0. -1.
        -13    1    1    2    0    0 -0.44232009933E+00  0.11484794001E+02 -0.31480962054E+02  0.33513387059E+02  0.00000000000E+00 0. -1.
         13    1    1    2    0    0  0.44232009933E+00 -0.11484794001E+02 -0.86865625765E+01  0.14406682814E+02  0.00000000000E+00 0.  1.
<mgrwt>
<rscale>  0 0.26132414E+02</rscale>
<asrwt>0</asrwt>
<pdfrwt beam="1">  1        4 0.59634962E-03 0.26132414E+02</pdfrwt>
<pdfrwt beam="2">  1       -4 0.67759689E-02 0.26132414E+02</pdfrwt>
<totfact> 0.66156351E+05</totfact>
</mgrwt>
</event>
<event>
 4    1  0.2165211E+000  0.2605776E+02  0.7546771E-02  0.1646258E+00
         -2   -1    0    0    0  501 -0.00000000000E+00  0.00000000000E+00  0.95846987641E+01  0.95846987641E+01  0.00000000000E+00 0.  1.
          2   -1    0    0  501    0  0.00000000000E+00 -0.00000000000E+00 -0.17710698550E+02  0.17710698550E+02  0.00000000000E+00 0. -1.
        -13    1    1    2    0    0  0.34854663085E+01 -0.10692396968E+02  0.28278899912E+01  0.11596240344E+02  0.00000000000E+00 0. -1.
         13    1    1    2    0    0 -0.34854663085E+01  0.10692396968E+02 -0.10953889777E+02  0.15699156970E+02  0.00000000000E+00 0.  1.
<mgrwt>
<rscale>  0 0.26057760E+02</rscale>
<asrwt>0</asrwt>
<pdfrwt beam="2">  1        2 0.27247228E-02 0.26057760E+02</pdfrwt>
<pdfrwt beam="1">  1       -2 0.14745691E-02 0.26057760E+02</pdfrwt>
<totfact> 0.22343059E+06</totfact>
</mgrwt>
</event>
<event>
 4    1  0.2165211E+000  0.5891641E+02  0.7546771E-02  0.1402436E+00
         -3   -1    0    0    0  501 -0.00000000000E+00  0.00000000000E+00  0.10358156863E+03  0.10358156863E+03  0.00000000000E+00 0. -1.
          3   -1    0    0  501    0  0.00000000000E+00 -0.00000000000E+00 -0.83778009394E+01  0.83778009394E+01  0.00000000000E+00 0.  1.
        -11    1    1    2    0    0 -0.23594437096E+02  0.17628537288E+02  0.46521922727E+02  0.55061348358E+02  0.00000000000E+00 0. -1.
         11    1    1    2    0    0  0.23594437096E+02 -0.17628537288E+02  0.48681844967E+02  0.56898021215E+02  0.00000000000E+00 0.  1.
<mgrwt>
<rscale>  0 0.58916407E+02</rscale>
<asrwt>0</asrwt>
<pdfrwt beam="2">  1        3 0.12888925E-02 0.58916407E+02</pdfrwt>
<pdfrwt beam="1">  1       -3 0.15935625E-01 0.58916407E+02</pdfrwt>
<totfact> 0.10715687E+05</totfact>
</mgrwt>
</event>
<event>
 4    1  0.2165211E+000  0.3526139E+02  0.7546771E-02  0.1546292E+00
          4   -1    0    0  501    0  0.00000000000E+00  0.00000000000E+00  0.62812801822E+01  0.62812801822E+01  0.00000000000E+00 0.  1.
         -4   -1    0    0    0  501 -0.00000000000E+00 -0.00000000000E+00 -0.49486939288E+02  0.49486939288E+02  0.00000000000E+00 0. -1.
        -11    1    1    2    0    0  0.20668352886E+01 -0.98394280858E+01  0.13028799396E+01  0.10138227128E+02  0.00000000000E+00 0.  1.
         11    1    1    2    0    0 -0.20668352886E+01  0.98394280858E+01 -0.44508539046E+02  0.45629992342E+02  0.00000000000E+00 0. -1.
<mgrwt>
<rscale>  0 0.35261386E+02</rscale>
<asrwt>0</asrwt>
<pdfrwt beam="1">  1        4 0.96635083E-03 0.35261386E+02</pdfrwt>
<pdfrwt beam="2">  1       -4 0.76133750E-02 0.35261386E+02</pdfrwt>
<totfact> 0.32816940E+05</totfact>
</mgrwt>
</event>
<event>
 4    1  0.2165211E+000  0.2292942E+02  0.7546771E-02  0.1692657E+00
          3   -1    0    0  501    0  0.00000000000E+00  0.00000000000E+00  0.26046420914E+02  0.26046420914E+02  0.00000000000E+00 0. -1.
         -3   -1    0    0    0  501 -0.00000000000E+00 -0.00000000000E+00 -0.50463574004E+01  0.50463574004E+01  0.00000000000E+00 0.  1.
        -13    1    1    2    0    0  0.69434917219E+01 -0.80247844288E+01  0.16384337083E+02  0.19520649172E+02  0.00000000000E+00 0. -1.
         13    1    1    2    0    0 -0.69434917219E+01  0.80247844288E+01  0.46157264304E+01  0.11572129143E+02  0.00000000000E+00 0.  1.
<mgrwt>
<rscale>  0 0.22929418E+02</rscale>
<asrwt>0</asrwt>
<pdfrwt beam="1">  1        3 0.40071416E-02 0.22929418E+02</pdfrwt>
<pdfrwt beam="2">  1       -3 0.77636269E-03 0.22929418E+02</pdfrwt>
<totfact> 0.12757376E+06</totfact>
</mgrwt>
</event>
<event>
 4    1  0.2165211E+000  0.2212280E+02  0.7546771E-02  0.1706137E+00
         -4   -1    0    0    0  501 -0.00000000000E+00  0.00000000000E+00  0.18926403264E+02  0.18926403264E+02  0.00000000000E+00 0.  1.
          4   -1    0    0  501    0  0.00000000000E+00 -0.00000000000E+00 -0.64647534060E+01  0.64647534060E+01  0.00000000000E+00 0. -1.
        -13    1    1    2    0    0  0.15275477640E+00 -0.11058730803E+02  0.64475892033E+01  0.12801963425E+02  0.00000000000E+00 0.  1.
         13    1    1    2    0    0 -0.15275477640E+00  0.11058730803E+02  0.60140606552E+01  0.12589193245E+02  0.00000000000E+00 0. -1.
<mgrwt>
<rscale>  0 0.22122796E+02</rscale>
<asrwt>0</asrwt>
<pdfrwt beam="2">  1        4 0.99457745E-03 0.22122796E+02</pdfrwt>
<pdfrwt beam="1">  1       -4 0.29117543E-02 0.22122796E+02</pdfrwt>
<totfact> 0.10306640E+06</totfact>
</mgrwt>
</event>
<event>
 4    1  0.2165211E+000  0.3827597E+02  0.7546771E-02  0.1521296E+00
          4   -1    0    0  501    0  0.00000000000E+00  0.00000000000E+00  0.11417685424E+03  0.11417685424E+03  0.00000000000E+00 0.  1.
         -4   -1    0    0    0  501 -0.00000000000E+00 -0.00000000000E+00 -0.32078514750E+01  0.32078514750E+01  0.00000000000E+00 0. -1.
        -11    1    1    2    0    0 -0.77389253225E+00 -0.17183603976E+02  0.29754944318E+02  0.34369053909E+02  0.00000000000E+00 0.  1.
         11    1    1    2    0    0  0.77389253225E+00  0.17183603976E+02  0.81214058444E+02  0.83015651802E+02  0.00000000000E+00 0. -1.
<mgrwt>
<rscale>  0 0.38275966E+02</rscale>
<asrwt>0</asrwt>
<pdfrwt beam="1">  1        4 0.17565667E-01 0.38275966E+02</pdfrwt>
<pdfrwt beam="2">  1       -4 0.49351570E-03 0.38275966E+02</pdfrwt>
<totfact> 0.22748138E+05</totfact>
</mgrwt>
</event>
<event>
 4    1  0.2165211E+000  0.3085460E+02  0.7546771E-02  0.1588830E+00
          1   -1    0    0  501    0  0.00000000000E+00  0.00000000000E+00  0.30145538038E+02  0.30145538038E+02  0.00000000000E+00 0. -1.
         -1   -1    0    0    0  501 -0.00000000000E+00 -0.00000000000E+00 -0.78950867421E+01  0.78950867421E+01  0.00000000000E+00 0.  1.
        -13    1    1    2    0    0  0.14118056036E+02  0.58000249560E+01  0.13893583877E+02  0.20639560767E+02  0.00000000000E+00 0. -1.
         13    1    1    2    0    0 -0.14118056036E+02 -0.58000249560E+01  0.83568674190E+01  0.17401064013E+02  0.00000000000E+00 0.  1.
<mgrwt>
<rscale>  0 0.30854603E+02</rscale>
<asrwt>0</asrwt>
<pdfrwt beam="1">  1        1 0.46377750E-02 0.30854603E+02</pdfrwt>
<pdfrwt beam="2">  1       -1 0.12146287E-02 0.30854603E+02</pdfrwt>
<totfact> 0.14810787E+06</totfact>
</mgrwt>
</event>
<event>
 4    1  0.2165211E+000  0.2883572E+02  0.7546771E-02  0.1611327E+00
         -4   -1    0    0    0  501 -0.00000000000E+00  0.00000000000E+00  0.40229704662E+01  0.40229704662E+01  0.00000000000E+00 0. -1.
          4   -1    0    0  501    0  0.00000000000E+00 -0.00000000000E+00 -0.51671944005E+02  0.51671944005E+02  0.00000000000E+00 0.  1.
        -13    1    1    2    0    0 -0.46975948276E+01 -0.11624797270E+02 -0.10075643622E+02  0.16084834570E+02  0.00000000000E+00 0. -1.
         13    1    1    2    0    0  0.46975948276E+01  0.11624797270E+02 -0.37573329918E+02  0.39610079902E+02  0.00000000000E+00 0.  1.
<mgrwt>
<rscale>  0 0.28835721E+02</rscale>
<asrwt>0</asrwt>
<pdfrwt beam="2">  1        4 0.79495289E-02 0.28835721E+02</pdfrwt>
<pdfrwt beam="1">  1       -4 0.61891860E-03 0.28835721E+02</pdfrwt>
<totfact> 0.51875679E+05</totfact>
</mgrwt>
</event>
<event>
 4    1  0.2165211E+000  0.4661265E+02  0.7546771E-02  0.1464518E+00
         -2   -1    0    0    0  501 -0.00000000000E+00  0.00000000000E+00  0.36965954080E+02  0.36965954080E+02  0.00000000000E+00 0. -1.
          2   -1    0    0  501    0  0.00000000000E+00 -0.00000000000E+00 -0.14694189229E+02  0.14694189229E+02  0.00000000000E+00 0.  1.
        -13    1    1    2    0    0 -0.16006992099E+02  0.11324847337E+02  0.25098032044E+02  0.31849445454E+02  0.00000000000E+00 0.  1.
         13    1    1    2    0    0  0.16006992099E+02 -0.11324847337E+02 -0.28262671920E+01  0.19810697855E+02  0.00000000000E+00 0. -1.
<mgrwt>
<rscale>  0 0.46612647E+02</rscale>
<asrwt>0</asrwt>
<pdfrwt beam="2">  1        2 0.22606445E-02 0.46612647E+02</pdfrwt>
<pdfrwt beam="1">  1       -2 0.56870698E-02 0.46612647E+02</pdfrwt>
<totfact> 0.50628706E+05</totfact>
</mgrwt>
</event>
<event>
 4    1  0.2165211E+000  0.2087940E+02  0.7546771E-02  0.1728385E+00
          1   -1    0    0  501    0  0.00000000000E+00  0.00000000000E+00  0.17923911199E+01  0.17923911199E+01  0.00000000000E+00 0.  1.
         -1   -1    0    0    0  501 -0.00000000000E+00 -0.00000000000E+00 -0.60805579712E+02  0.60805579712E+02  0.00000000000E+00 0. -1.
        -13    1    1    2    0    0  0.30271205433E+01 -0.98827620527E+01 -0.25105512970E+02  0.27149939707E+02  0.00000000000E+00 0. -1.
         13    1    1    2    0    0 -0.30271205433E+01  0.98827620527E+01 -0.33907675622E+02  0.35448031125E+02  0.00000000000E+00 0.  1.
<mgrwt>
<rscale>  0 0.20879404E+02</rscale>
<asrwt>0</asrwt>
<pdfrwt beam="1">  1        1 0.27575246E-03 0.20879404E+02</pdfrwt>
<pdfrwt beam="2">  1       -1 0.93547051E-02 0.20879404E+02</pdfrwt>
<totfact> 0.31093894E+06</totfact>
</mgrwt>
</event>
<event>
 4    1  0.4137417E+000  0.1635188E+03  0.7546771E-02  0.1184780E+00
          2   -1    0    0  501    0  0.00000000000E+00  0.00000000000E+00  0.77089977609E+03  0.77089977609E+03  0.00000000000E+00 0. -1.
         -2   -1    0    0    0  501 -0.00000000000E+00 -0.00000000000E+00 -0.86711631873E+01  0.86711631873E+01  0.00000000000E+00 0.  1.
        -13    1    1    2    0    0 -0.64267857106E+02  0.50463622415E+02  0.39431177664E+03  0.40268934905E+03  0.00000000000E+00 0.  1.
         13    1    1    2    0    0  0.64267857106E+02 -0.50463622415E+02  0.36791683627E+03  0.37688159023E+03  0.00000000000E+00 0. -1.
<mgrwt>
<rscale>  0 0.16351878E+03</rscale>
<asrwt>0</asrwt>
<pdfrwt beam="1">  1        2 0.11859991E+00 0.16351878E+03</pdfrwt>
<pdfrwt beam="2">  1       -2 0.13340257E-02 0.16351878E+03</pdfrwt>
<totfact> 0.49602072E+04</totfact>
</mgrwt>
</event>
<event>
 4    1  0.2165211E+000  0.2084623E+02  0.7546771E-02  0.1729005E+00
         -2   -1    0    0    0  501 -0.00000000000E+00  0.00000000000E+00  0.26666022288E+01  0.26666022288E+01  0.00000000000E+00 0. -1.
          2   -1    0    0  501    0  0.00000000000E+00 -0.00000000000E+00 -0.40741476963E+02  0.40741476963E+02  0.00000000000E+00 0.  1.
        -13    1    1    2    0    0  0.10088175171E+02 -0.20054250419E+01 -0.15523157493E+02  0.18621531259E+02  0.00000000000E+00 0. -1.
         13    1    1    2    0    0 -0.10088175171E+02  0.20054250419E+01 -0.22551717242E+02  0.24786547933E+02  0.00000000000E+00 0.  1.
<mgrwt>
<rscale>  0 0.20846229E+02</rscale>
<asrwt>0</asrwt>
<pdfrwt beam="2">  1        2 0.62679198E-02 0.20846229E+02</pdfrwt>
<pdfrwt beam="1">  1       -2 0.41024648E-03 0.20846229E+02</pdfrwt>
<totfact> 0.41009777E+06</totfact>
</mgrwt>
</event>
<event>
 4    1  0.2165211E+000  0.4763618E+02  0.7546771E-02  0.1458525E+00
          2   -1    0    0  501    0  0.00000000000E+00  0.00000000000E+00  0.15999957551E+03  0.15999957551E+03  0.00000000000E+00 0. -1.
         -2   -1    0    0    0  501 -0.00000000000E+00 -0.00000000000E+00 -0.35456438568E+01  0.35456438568E+01  0.00000000000E+00 0.  1.
        -11    1    1    2    0    0 -0.11829200687E+01 -0.20133944064E+02  0.12172546446E+03  0.12338502220E+03  0.00000000000E+00 0. -1.
         11    1    1    2    0    0  0.11829200687E+01  0.20133944064E+02  0.34728467191E+02  0.40160197172E+02  0.00000000000E+00 0.  1.
<mgrwt>
<rscale>  0 0.47636184E+02</rscale>
<asrwt>0</asrwt>
<pdfrwt beam="1">  1        2 0.24615314E-01 0.47636184E+02</pdfrwt>
<pdfrwt beam="2">  1       -2 0.54548380E-03 0.47636184E+02</pdfrwt>
<totfact> 0.77340089E+05</totfact>
</mgrwt>
</event>
<event>
 4    1  0.2165211E+000  0.1729342E+03  0.7546771E-02  0.1174822E+00
         -2   -1    0    0    0  501 -0.00000000000E+00  0.00000000000E+00  0.16673118495E+03  0.16673118495E+03  0.00000000000E+00 0.  1.
          2   -1    0    0  501    0  0.00000000000E+00 -0.00000000000E+00 -0.44841995317E+02  0.44841995317E+02  0.00000000000E+00 0. -1.
        -13    1    1    2    0    0 -0.83641366334E+01  0.81708540292E+02  0.94007023288E+02  0.12483414904E+03  0.00000000000E+00 0.  1.
         13    1    1    2    0    0  0.83641366334E+01 -0.81708540292E+02  0.27882166343E+02  0.86739031227E+02  0.00000000000E+00 0. -1.
<mgrwt>
<rscale>  0 0.17293420E+03</rscale>
<asrwt>0</asrwt>
<pdfrwt beam="2">  1        2 0.68987686E-02 0.17293420E+03</pdfrwt>
<pdfrwt beam="1">  1       -2 0.25650951E-01 0.17293420E+03</pdfrwt>
<totfact> 0.13326467E+04</totfact>
</mgrwt>
</event>
<event>
 4    1  0.2165211E+000  0.3324056E+02  0.7546771E-02  0.1564804E+00
          1   -1    0    0  501    0  0.00000000000E+00  0.00000000000E+00  0.74738069597E+01  0.74738069597E+01  0.00000000000E+00 0. -1.
         -1   -1    0    0    0  501 -0.00000000000E+00 -0.00000000000E+00 -0.36960248269E+02  0.36960248269E+02  0.00000000000E+00 0.  1.
        -13    1    1    2    0    0  0.45144750870E+01  0.12479513169E+02 -0.13681153462E+01  0.13341307052E+02  0.00000000000E+00 0. -1.
         13    1    1    2    0    0 -0.45144750870E+01 -0.12479513169E+02 -0.28118325963E+02  0.31092748177E+02  0.00000000000E+00 0.  1.
<mgrwt>
<rscale>  0 0.33240563E+02</rscale>
<asrwt>0</asrwt>
<pdfrwt beam="1">  1        1 0.11498164E-02 0.33240563E+02</pdfrwt>
<pdfrwt beam="2">  1       -1 0.56861922E-02 0.33240563E+02</pdfrwt>
<totfact> 0.11255058E+06</totfact>
</mgrwt>
</event>
<event>
 4    1  0.2165211E+000  0.2267379E+02  0.7546771E-02  0.1696853E+00
         -2   -1    0    0    0  501 -0.00000000000E+00  0.00000000000E+00  0.14957735598E+02  0.14957735598E+02  0.00000000000E+00 0.  1.
          2   -1    0    0  501    0  0.00000000000E+00 -0.00000000000E+00 -0.85925596400E+01  0.85925596400E+01  0.00000000000E+00 0. -1.
        -11    1    1    2    0    0  0.74373177467E+01 -0.83065668001E+01  0.10508123563E+01  0.11198971108E+02  0.00000000000E+00 0. -1.
         11    1    1    2    0    0 -0.74373177467E+01  0.83065668001E+01  0.53143636017E+01  0.12351324130E+02  0.00000000000E+00 0.  1.
<mgrwt>
<rscale>  0 0.22673794E+02</rscale>
<asrwt>0</asrwt>
<pdfrwt beam="2">  1        2 0.13219323E-02 0.22673794E+02</pdfrwt>
<pdfrwt beam="1">  1       -2 0.23011901E-02 0.22673794E+02</pdfrwt>
<totfact> 0.29146352E+06</totfact>
</mgrwt>
</event>
<event>
 4    1  0.2165211E+000  0.2665824E+02  0.7546771E-02  0.1638266E+00
          1   -1    0    0  501    0  0.00000000000E+00  0.00000000000E+00  0.14935311990E+02  0.14935311990E+02  0.00000000000E+00 0.  1.
         -1   -1    0    0    0  501 -0.00000000000E+00 -0.00000000000E+00 -0.11895662453E+02  0.11895662453E+02  0.00000000000E+00 0. -1.
        -11    1    1    2    0    0 -0.34447162208E+01  0.12875992644E+02  0.14288308148E+01  0.13405178623E+02  0.00000000000E+00 0. -1.
         11    1    1    2    0    0  0.34447162208E+01 -0.12875992644E+02  0.16108187222E+01  0.13425795819E+02  0.00000000000E+00 0.  1.
<mgrwt>
<rscale>  0 0.26658239E+02</rscale>
<asrwt>0</asrwt>
<pdfrwt beam="1">  1        1 0.22977403E-02 0.26658239E+02</pdfrwt>
<pdfrwt beam="2">  1       -1 0.18301019E-02 0.26658239E+02</pdfrwt>
<totfact> 0.20185330E+06</totfact>
</mgrwt>
</event>
<event>
 4    1  0.2165211E+000  0.3648249E+02  0.7546771E-02  0.1535816E+00
          2   -1    0    0  501    0  0.00000000000E+00  0.00000000000E+00  0.18906727722E+02  0.18906727722E+02  0.00000000000E+00 0. -1.
         -2   -1    0    0    0  501 -0.00000000000E+00 -0.00000000000E+00 -0.17599181651E+02  0.17599181651E+02  0.00000000000E+00 0.  1.
        -13    1    1    2    0    0 -0.13758500850E+02  0.11058542530E+02 -0.39486612823E+01  0.18088107542E+02  0.00000000000E+00 0. -1.
         13    1    1    2    0    0  0.13758500850E+02 -0.11058542530E+02  0.52562073535E+01  0.18417801831E+02  0.00000000000E+00 0.  1.
<mgrwt>
<rscale>  0 0.36482485E+02</rscale>
<asrwt>0</asrwt>
<pdfrwt beam="1">  1        2 0.29087274E-02 0.36482485E+02</pdfrwt>
<pdfrwt beam="2">  1       -2 0.27075664E-02 0.36482485E+02</pdfrwt>
<totfact> 0.98863039E+05</totfact>
</mgrwt>
</event>
<event>
 4    1  0.2165211E+000  0.4887157E+02  0.7546771E-02  0.1451525E+00
          2   -1    0    0  501    0  0.00000000000E+00  0.00000000000E+00  0.22853613376E+03  0.22853613376E+03  0.00000000000E+00 0. -1.
         -2   -1    0    0    0  501 -0.00000000000E+00 -0.00000000000E+00 -0.26127489222E+01  0.26127489222E+01  0.00000000000E+00 0.  1.
        -13    1    1    2    0    0  0.18443231781E+02 -0.15273551573E+02  0.13597428170E+03  0.13806679348E+03  0.00000000000E+00 0. -1.
         13    1    1    2    0    0 -0.18443231781E+02  0.15273551573E+02  0.89949103135E+02  0.93082089206E+02  0.00000000000E+00 0.  1.
<mgrwt>
<rscale>  0 0.48871568E+02</rscale>
<asrwt>0</asrwt>
<pdfrwt beam="1">  1        2 0.35159389E-01 0.48871568E+02</pdfrwt>
<pdfrwt beam="2">  1       -2 0.40196155E-03 0.48871568E+02</pdfrwt>
<totfact> 0.81506359E+05</totfact>
</mgrwt>
</event>
<event>
 4    1  0.2165211E+000  0.2567845E+02  0.7546771E-02  0.1651444E+00
         -1   -1    0    0    0  501 -0.00000000000E+00  0.00000000000E+00  0.26031854797E+02  0.26031854797E+02  0.00000000000E+00 0. -1.
          1   -1    0    0  501    0  0.00000000000E+00 -0.00000000000E+00 -0.63324619538E+01  0.63324619538E+01  0.00000000000E+00 0.  1.
        -11    1    1    2    0    0 -0.77707254689E+01 -0.10219905011E+02  0.96948333527E+01  0.16087896894E+02  0.00000000000E+00 0. -1.
         11    1    1    2    0    0  0.77707254689E+01  0.10219905011E+02  0.10004559490E+02  0.16276419856E+02  0.00000000000E+00 0.  1.
<mgrwt>
<rscale>  0 0.25678452E+02</rscale>
<asrwt>0</asrwt>
<pdfrwt beam="2">  1        1 0.97422493E-03 0.25678452E+02</pdfrwt>
<pdfrwt beam="1">  1       -1 0.40049007E-02 0.25678452E+02</pdfrwt>
<totfact> 0.21033947E+06</totfact>
</mgrwt>
</event>
<event>
 4    1  0.2165211E+000  0.3327037E+02  0.7546771E-02  0.1564519E+00
         -1   -1    0    0    0  501 -0.00000000000E+00  0.00000000000E+00  0.19726684826E+02  0.19726684826E+02  0.00000000000E+00 0.  1.
          1   -1    0    0  501    0  0.00000000000E+00 -0.00000000000E+00 -0.14028172743E+02  0.14028172743E+02  0.00000000000E+00 0. -1.
        -13    1    1    2    0    0 -0.12010968125E+02 -0.91817924316E+01  0.98901039069E+01  0.18066068273E+02  0.00000000000E+00 0.  1.
         13    1    1    2    0    0  0.12010968125E+02  0.91817924316E+01 -0.41915918240E+01  0.15688789296E+02  0.00000000000E+00 0. -1.
<mgrwt>
<rscale>  0 0.33270368E+02</rscale>
<asrwt>0</asrwt>
<pdfrwt beam="2">  1        1 0.21581804E-02 0.33270368E+02</pdfrwt>
<pdfrwt beam="1">  1       -1 0.30348746E-02 0.33270368E+02</pdfrwt>
<totfact> 0.11762877E+06</totfact>
</mgrwt>
</event>
<event>
 4    1  0.2165211E+000  0.3001533E+02  0.7546771E-02  0.1597919E+00
          3   -1    0    0  501    0  0.00000000000E+00  0.00000000000E+00  0.33269093297E+01  0.33269093297E+01  0.00000000000E+00 0.  1.
         -3   -1    0    0    0  501 -0.00000000000E+00 -0.00000000000E+00 -0.67699484950E+02  0.67699484950E+02  0.00000000000E+00 0. -1.
        -13    1    1    2    0    0 -0.88530922782E+01 -0.63808292015E+01 -0.78075230307E+01  0.13418257713E+02  0.00000000000E+00 0.  1.
         13    1    1    2    0    0  0.88530922782E+01  0.63808292015E+01 -0.56565052589E+02  0.57608136566E+02  0.00000000000E+00 0. -1.
<mgrwt>
<rscale>  0 0.30015333E+02</rscale>
<asrwt>0</asrwt>
<pdfrwt beam="1">  1        3 0.51183220E-03 0.30015333E+02</pdfrwt>
<pdfrwt beam="2">  1       -3 0.10415305E-01 0.30015333E+02</pdfrwt>
<totfact> 0.61593572E+05</totfact>
</mgrwt>
</event>
<event>
 4    1  0.2165211E+000  0.5031233E+02  0.7546771E-02  0.1443664E+00
         -1   -1    0    0    0  501 -0.00000000000E+00  0.00000000000E+00  0.61869851650E+02  0.61869851650E+02  0.00000000000E+00 0.  1.
          1   -1    0    0  501    0  0.00000000000E+00 -0.00000000000E+00 -0.10228448976E+02  0.10228448976E+02  0.00000000000E+00 0. -1.
        -13    1    1    2    0    0  0.18729425783E+02  0.15317666007E+02  0.15953655796E+02  0.28981742793E+02  0.00000000000E+00 0. -1.
         13    1    1    2    0    0 -0.18729425783E+02 -0.15317666007E+02  0.35687746878E+02  0.43116557833E+02  0.00000000000E+00 0.  1.
<mgrwt>
<rscale>  0 0.50312329E+02</rscale>
<asrwt>0</asrwt>
<pdfrwt beam="2">  1        1 0.15736076E-02 0.50312329E+02</pdfrwt>
<pdfrwt beam="1">  1       -1 0.95184385E-02 0.50312329E+02</pdfrwt>
<totfact> 0.39258576E+05</totfact>
</mgrwt>
</event>
<event>
 4    1  0.2165211E+000  0.2880719E+02  0.7546771E-02  0.1611661E+00
          4   -1    0    0  501    0  0.00000000000E+00  0.00000000000E+00  0.74182055192E+01  0.74182055192E+01  0.00000000000E+00 0.  1.
         -4   -1    0    0    0  501 -0.00000000000E+00 -0.00000000000E+00 -0.27966803727E+02  0.27966803727E+02  0.00000000000E+00 0. -1.
        -11    1    1    2    0    0  0.61257659225E+01 -0.12924773176E+02 -0.81865813038E+01  0.16480136020E+02  0.00000000000E+00 0. -1.
         11    1    1    2    0    0 -0.61257659225E+01  0.12924773176E+02 -0.12362016904E+02  0.18904873227E+02  0.00000000000E+00 0.  1.
<mgrwt>
<rscale>  0 0.28807186E+02</rscale>
<asrwt>0</asrwt>
<pdfrwt beam="1">  1        4 0.11412624E-02 0.28807186E+02</pdfrwt>
<pdfrwt beam="2">  1       -4 0.43025853E-02 0.28807186E+02</pdfrwt>
<totfact> 0.55848272E+05</totfact>
</mgrwt>
</event>
<event>
 4    1  0.2165211E+000  0.2504230E+02  0.7546771E-02  0.1660395E+00
         -2   -1    0    0    0  501 -0.00000000000E+00  0.00000000000E+00  0.15759004026E+02  0.15759004026E+02  0.00000000000E+00 0. -1.
          2   -1    0    0  501    0  0.00000000000E+00 -0.00000000000E+00 -0.99485501888E+01  0.99485501888E+01  0.00000000000E+00 0.  1.
        -11    1    1    2    0    0 -0.29446783091E+01 -0.10738859990E+02 -0.29726984317E+01  0.11525241004E+02  0.00000000000E+00 0.  1.
         11    1    1    2    0    0  0.29446783091E+01  0.10738859990E+02  0.87831522689E+01  0.14182313211E+02  0.00000000000E+00 0. -1.
<mgrwt>
<rscale>  0 0.25042304E+02</rscale>
<asrwt>0</asrwt>
<pdfrwt beam="2">  1        2 0.15305462E-02 0.25042304E+02</pdfrwt>
<pdfrwt beam="1">  1       -2 0.24244622E-02 0.25042304E+02</pdfrwt>
<totfact> 0.23311319E+06</totfact>
</mgrwt>
</event>
<event>
 4    1  0.2165211E+000  0.3361677E+02  0.7546771E-02  0.1561239E+00
         -4   -1    0    0    0  501 -0.00000000000E+00  0.00000000000E+00  0.71276077125E+02  0.71276077125E+02  0.00000000000E+00 0. -1.
          4   -1    0    0  501    0  0.00000000000E+00 -0.00000000000E+00 -0.39637676680E+01  0.39637676680E+01  0.00000000000E+00 0.  1.
        -11    1    1    2    0    0 -0.18116308778E+01 -0.12761802804E+02  0.95113344001E+01  0.16019085470E+02  0.00000000000E+00 0.  1.
         11    1    1    2    0    0  0.18116308778E+01  0.12761802804E+02  0.57800975057E+02  0.59220759323E+02  0.00000000000E+00 0. -1.
<mgrwt>
<rscale>  0 0.33616770E+02</rscale>
<asrwt>0</asrwt>
<pdfrwt beam="2">  1        4 0.60981046E-03 0.33616770E+02</pdfrwt>
<pdfrwt beam="1">  1       -4 0.10965549E-01 0.33616770E+02</pdfrwt>
<totfact> 0.34493741E+05</totfact>
</mgrwt>
</event>
<event>
 4    1  0.2165211E+000  0.4091654E+02  0.7546771E-02  0.1501573E+00
          2   -1    0    0  501    0  0.00000000000E+00  0.00000000000E+00  0.13046244772E+03  0.13046244772E+03  0.00000000000E+00 0. -1.
         -2   -1    0    0    0  501 -0.00000000000E+00 -0.00000000000E+00 -0.32081317458E+01  0.32081317458E+01  0.00000000000E+00 0.  1.
        -13    1    1    2    0    0 -0.88250287783E+01 -0.15354834980E+02  0.97085250894E+02  0.98687375238E+02  0.00000000000E+00 0. -1.
         13    1    1    2    0    0  0.88250287783E+01  0.15354834980E+02  0.30169065077E+02  0.34983204224E+02  0.00000000000E+00 0.  1.
<mgrwt>
<rscale>  0 0.40916536E+02</rscale>
<asrwt>0</asrwt>
<pdfrwt beam="1">  1        2 0.20071142E-01 0.40916536E+02</pdfrwt>
<pdfrwt beam="2">  1       -2 0.49355883E-03 0.40916536E+02</pdfrwt>
<totfact> 0.10608818E+06</totfact>
</mgrwt>
</event>
<event>
 4    1  0.2165211E+000  0.2335007E+02  0.7546771E-02  0.1685898E+00
         -2   -1    0    0    0  501 -0.00000000000E+00  0.00000000000E+00  0.12005297267E+01  0.12005297267E+01  0.00000000000E+00 0.  1.
          2   -1    0    0  501    0  0.00000000000E+00 -0.00000000000E+00 -0.11353856709E+03  0.11353856709E+03  0.00000000000E+00 0. -1.
        -11    1    1    2    0    0  0.89289852613E+01 -0.74515724402E+01 -0.61213132854E+02  0.62308108167E+02  0.00000000000E+00 0. -1.
         11    1    1    2    0    0 -0.89289852613E+01  0.74515724402E+01 -0.51124904507E+02  0.52430988647E+02  0.00000000000E+00 0.  1.
<mgrwt>
<rscale>  0 0.23350069E+02</rscale>
<asrwt>0</asrwt>
<pdfrwt beam="2">  1        2 0.17467471E-01 0.23350069E+02</pdfrwt>
<pdfrwt beam="1">  1       -2 0.18469689E-03 0.23350069E+02</pdfrwt>
<totfact> 0.38462165E+06</totfact>
</mgrwt>
</event>
<event>
 4    1  0.2165211E+000  0.2787002E+02  0.7546771E-02  0.1622901E+00
         -3   -1    0    0    0  501 -0.00000000000E+00  0.00000000000E+00  0.38192927800E+02  0.38192927800E+02  0.00000000000E+00 0. -1.
          3   -1    0    0  501    0  0.00000000000E+00 -0.00000000000E+00 -0.50843037578E+01  0.50843037578E+01  0.00000000000E+00 0.  1.
        -11    1    1    2    0    0  0.46161706881E+01  0.13104713195E+02  0.14894963756E+02  0.20369155236E+02  0.00000000000E+00 0.  1.
         11    1    1    2    0    0 -0.46161706881E+01 -0.13104713195E+02  0.18213660286E+02  0.22908076322E+02  0.00000000000E+00 0. -1.
<mgrwt>
<rscale>  0 0.27870016E+02</rscale>
<asrwt>0</asrwt>
<pdfrwt beam="2">  1        3 0.78220060E-03 0.27870016E+02</pdfrwt>
<pdfrwt beam="1">  1       -3 0.58758349E-02 0.27870016E+02</pdfrwt>
<totfact> 0.79026955E+05</totfact>
</mgrwt>
</event>
<event>
 4    1  0.2165211E+000  0.2642453E+02  0.7546771E-02  0.1641345E+00
         -4   -1    0    0    0  501 -0.00000000000E+00  0.00000000000E+00  0.29889527087E+02  0.29889527087E+02  0.00000000000E+00 0.  1.
          4   -1    0    0  501    0  0.00000000000E+00 -0.00000000000E+00 -0.58403056691E+01  0.58403056691E+01  0.00000000000E+00 0. -1.
        -13    1    1    2    0    0  0.10706190142E+02 -0.70674234372E+01  0.77502470297E+01  0.14987905471E+02  0.00000000000E+00 0. -1.
         13    1    1    2    0    0 -0.10706190142E+02  0.70674234372E+01  0.16298974389E+02  0.20741927285E+02  0.00000000000E+00 0.  1.
<mgrwt>
<rscale>  0 0.26424532E+02</rscale>
<asrwt>0</asrwt>
<pdfrwt beam="2">  1        4 0.89850858E-03 0.26424532E+02</pdfrwt>
<pdfrwt beam="1">  1       -4 0.45983887E-02 0.26424532E+02</pdfrwt>
<totfact> 0.67514338E+05</totfact>
</mgrwt>
</event>
<event>
 4    1  0.2165211E+000  0.2517352E+02  0.7546771E-02  0.1658522E+00
          2   -1    0    0  501    0  0.00000000000E+00  0.00000000000E+00  0.41026043964E+02  0.41026043964E+02  0.00000000000E+00 0.  1.
         -2   -1    0    0    0  501 -0.00000000000E+00 -0.00000000000E+00 -0.38616081983E+01  0.38616081983E+01  0.00000000000E+00 0. -1.
        -11    1    1    2    0    0 -0.98091879189E+01 -0.78789662234E+01  0.19220746050E+02  0.22972491269E+02  0.00000000000E+00 0. -1.
         11    1    1    2    0    0  0.98091879189E+01  0.78789662234E+01  0.17943689715E+02  0.21915160893E+02  0.00000000000E+00 0.  1.
<mgrwt>
<rscale>  0 0.25173518E+02</rscale>
<asrwt>0</asrwt>
<pdfrwt beam="1">  1        2 0.63116988E-02 0.25173518E+02</pdfrwt>
<pdfrwt beam="2">  1       -2 0.59409360E-03 0.25173518E+02</pdfrwt>
<totfact> 0.26662680E+06</totfact>
</mgrwt>
</event>
<event>
 4    1  0.2165211E+000  0.4990765E+02  0.7546771E-02  0.1445840E+00
         -2   -1    0    0    0  501 -0.00000000000E+00  0.00000000000E+00  0.88834120964E+02  0.88834120964E+02  0.00000000000E+00 0.  1.
          2   -1    0    0  501    0  0.00000000000E+00 -0.00000000000E+00 -0.70096192536E+01  0.70096192536E+01  0.00000000000E+00 0. -1.
        -13    1    1    2    0    0 -0.13521817347E+02 -0.20713420682E+02  0.34598756620E+02  0.42531862179E+02  0.00000000000E+00 0. -1.
         13    1    1    2    0    0  0.13521817347E+02  0.20713420682E+02  0.47225745091E+02  0.53311878039E+02  0.00000000000E+00 0.  1.
<mgrwt>
<rscale>  0 0.49907649E+02</rscale>
<asrwt>0</asrwt>
<pdfrwt beam="2">  1        2 0.10784030E-02 0.49907649E+02</pdfrwt>
<pdfrwt beam="1">  1       -2 0.13666787E-01 0.49907649E+02</pdfrwt>
<totfact> 0.36493170E+05</totfact>
</mgrwt>
</event>
<event>
 4    1  0.2165211E+000  0.2397482E+02  0.7546771E-02  0.1676179E+00
         -1   -1    0    0    0  501 -0.00000000000E+00  0.00000000000E+00  0.54668595170E+02  0.54668595170E+02  0.00000000000E+00 0.  1.
          1   -1    0    0  501    0  0.00000000000E+00 -0.00000000000E+00 -0.26285300282E+01  0.26285300282E+01  0.00000000000E+00 0. -1.
        -11    1    1    2    0    0 -0.10845865944E+02 -0.13768791682E+01  0.14270767561E+02  0.17977302665E+02  0.00000000000E+00 0. -1.
         11    1    1    2    0    0  0.10845865944E+02  0.13768791682E+01  0.37769297581E+02  0.39319822534E+02  0.00000000000E+00 0.  1.
<mgrwt>
<rscale>  0 0.23974824E+02</rscale>
<asrwt>0</asrwt>
<pdfrwt beam="2">  1        1 0.40438928E-03 0.23974824E+02</pdfrwt>
<pdfrwt beam="1">  1       -1 0.84105522E-02 0.23974824E+02</pdfrwt>
<totfact> 0.23092478E+06</totfact>
</mgrwt>
</event>
<event>
 4    1  0.2165211E+000  0.2337398E+02  0.7546771E-02  0.1685519E+00
         -2   -1    0    0    0  501 -0.00000000000E+00  0.00000000000E+00  0.94318417921E+01  0.94318417921E+01  0.00000000000E+00 0.  1.
          2   -1    0    0  501    0  0.00000000000E+00 -0.00000000000E+00 -0.14481341480E+02  0.14481341480E+02  0.00000000000E+00 0. -1.
        -11    1    1    2    0    0 -0.53092961870E+01 -0.10341553086E+02 -0.12930774382E+01  0.11696512108E+02  0.00000000000E+00 0.  1.
         11    1    1    2    0    0  0.53092961870E+01  0.10341553086E+02 -0.37564222498E+01  0.12216671165E+02  0.00000000000E+00 0. -1.
<mgrwt>
<rscale>  0 0.23373979E+02</rscale>
<asrwt>0</asrwt>
<pdfrwt beam="2">  1        2 0.22278987E-02 0.23373979E+02</pdfrwt>
<pdfrwt beam="1">  1       -2 0.14510526E-02 0.23373979E+02</pdfrwt>
<totfact> 0.28338513E+06</totfact>
</mgrwt>
</event>
<event>
 4    1  0.2165211E+000  0.3489566E+02  0.7546771E-02  0.1549529E+00
         -2   -1    0    0    0  501 -0.00000000000E+00  0.00000000000E+00  0.11934577647E+02  0.11934577647E+02  0.00000000000E+00 0.  1.
          2   -1    0    0  501    0  0.00000000000E+00 -0.00000000000E+00 -0.25507964079E+02  0.25507964079E+02  0.00000000000E+00 0. -1.
        -13    1    1    2    0    0  0.15013826343E+02  0.24262067116E+01 -0.15962151889E+02  0.22047488596E+02  0.00000000000E+00 0. -1.
         13    1    1    2    0    0 -0.15013826343E+02 -0.24262067116E+01  0.23887654572E+01  0.15395053130E+02  0.00000000000E+00 0.  1.
<mgrwt>
<rscale>  0 0.34895660E+02</rscale>
<asrwt>0</asrwt>
<pdfrwt beam="2">  1        2 0.39243022E-02 0.34895660E+02</pdfrwt>
<pdfrwt beam="1">  1       -2 0.18360889E-02 0.34895660E+02</pdfrwt>
<totfact> 0.11459101E+06</totfact>
</mgrwt>
</event>
<event>
 4    1  0.2165211E+000  0.2285357E+02  0.7546771E-02  0.1693895E+00
         -2   -1    0    0    0  501 -0.00000000000E+00  0.00000000000E+00  0.49803405278E+02  0.49803405278E+02  0.00000000000E+00 0.  1.
          2   -1    0    0  501    0  0.00000000000E+00 -0.00000000000E+00 -0.26217363169E+01  0.26217363169E+01  0.00000000000E+00 0. -1.
        -11    1    1    2    0    0 -0.21421130147E+01  0.11220784916E+02  0.24226281868E+02  0.26784461828E+02  0.00000000000E+00 0. -1.
         11    1    1    2    0    0  0.21421130147E+01 -0.11220784916E+02  0.22955387094E+02  0.25640679767E+02  0.00000000000E+00 0.  1.
<mgrwt>
<rscale>  0 0.22853568E+02</rscale>
<asrwt>0</asrwt>
<pdfrwt beam="2">  1        2 0.40334408E-03 0.22853568E+02</pdfrwt>
<pdfrwt beam="1">  1       -2 0.76620617E-02 0.22853568E+02</pdfrwt>
<totfact> 0.25262144E+06</totfact>
</mgrwt>
</event>
<event>
 4    1  0.2165211E+000  0.3048170E+02  0.7546771E-02  0.1592824E+00
          2   -1    0    0  501    0  0.00000000000E+00  0.00000000000E+00  0.17382521989E+02  0.17382521989E+02  0.00000000000E+00 0.  1.
         -2   -1    0    0    0  501 -0.00000000000E+00 -0.00000000000E+00 -0.13363046488E+02  0.13363046488E+02  0.00000000000E+00 0. -1.
        -11    1    1    2    0    0 -0.13508932937E+02  0.28441799845E+01  0.85234131609E+01  0.16224339764E+02  0.00000000000E+00 0. -1.
         11    1    1    2    0    0  0.13508932937E+02 -0.28441799845E+01 -0.45039376592E+01  0.14521228712E+02  0.00000000000E+00 0.  1.
<mgrwt>
<rscale>  0 0.30481696E+02</rscale>
<asrwt>0</asrwt>
<pdfrwt beam="1">  1        2 0.26742341E-02 0.30481696E+02</pdfrwt>
<pdfrwt beam="2">  1       -2 0.20558533E-02 0.30481696E+02</pdfrwt>
<totfact> 0.15290128E+06</totfact>
</mgrwt>
</event>
<event>
 4    1  0.2165211E+000  0.3760616E+02  0.7546771E-02  0.1526605E+00
          4   -1    0    0  501    0  0.00000000000E+00  0.00000000000E+00  0.33867759272E+02  0.33867759272E+02  0.00000000000E+00 0. -1.
         -4   -1    0    0    0  501 -0.00000000000E+00 -0.00000000000E+00 -0.10439302841E+02  0.10439302841E+02  0.00000000000E+00 0.  1.
        -13    1    1    2    0    0  0.14957557531E+02 -0.11389846513E+02  0.11344148795E+02  0.21957842398E+02  0.00000000000E+00 0.  1.
         13    1    1    2    0    0 -0.14957557531E+02  0.11389846513E+02  0.12084307636E+02  0.22349219716E+02  0.00000000000E+00 0. -1.
<mgrwt>
<rscale>  0 0.37606159E+02</rscale>
<asrwt>0</asrwt>
<pdfrwt beam="1">  1        4 0.52104245E-02 0.37606159E+02</pdfrwt>
<pdfrwt beam="2">  1       -4 0.16060466E-02 0.37606159E+02</pdfrwt>
<totfact> 0.29301302E+05</totfact>
</mgrwt>
</event>
<event>
 4    1  0.2165211E+000  0.5173173E+02  0.7546771E-02  0.1436219E+00
         -3   -1    0    0    0  501 -0.00000000000E+00  0.00000000000E+00  0.36605025289E+02  0.36605025289E+02  0.00000000000E+00 0. -1.
          3   -1    0    0  501    0  0.00000000000E+00 -0.00000000000E+00 -0.18277350518E+02  0.18277350518E+02  0.00000000000E+00 0.  1.
        -11    1    1    2    0    0 -0.75720632278E+01  0.15155231355E+02 -0.11572030692E+02  0.20516556077E+02  0.00000000000E+00 0.  1.
         11    1    1    2    0    0  0.75720632278E+01 -0.15155231355E+02  0.29899705463E+02  0.34365819730E+02  0.00000000000E+00 0. -1.
<mgrwt>
<rscale>  0 0.51731726E+02</rscale>
<asrwt>0</asrwt>
<pdfrwt beam="2">  1        3 0.28119001E-02 0.51731726E+02</pdfrwt>
<pdfrwt beam="1">  1       -3 0.56315423E-02 0.51731726E+02</pdfrwt>
<totfact> 0.17122435E+05</totfact>
</mgrwt>
</event>
<event>
 4    1  0.2165211E+000  0.2341325E+02  0.7546771E-02  0.1684898E+00
         -1   -1    0    0    0  501 -0.00000000000E+00  0.00000000000E+00  0.77821657571E+02  0.77821657571E+02  0.00000000000E+00 0. -1.
          1   -1    0    0  501    0  0.00000000000E+00 -0.00000000000E+00 -0.17610140419E+01  0.17610140419E+01  0.00000000000E+00 0.  1.
        -11    1    1    2    0    0  0.14607649694E+01  0.11263857737E+02  0.28394341086E+02  0.30581807191E+02  0.00000000000E+00 0.  1.
         11    1    1    2    0    0 -0.14607649694E+01 -0.11263857737E+02  0.47666302444E+02  0.49000864422E+02  0.00000000000E+00 0. -1.
<mgrwt>
<rscale>  0 0.23413247E+02</rscale>
<asrwt>0</asrwt>
<pdfrwt beam="2">  1        1 0.27092530E-03 0.23413247E+02</pdfrwt>
<pdfrwt beam="1">  1       -1 0.11972560E-01 0.23413247E+02</pdfrwt>
<totfact> 0.23332987E+06</totfact>
</mgrwt>
</event>
<event>
 4    1  0.2165211E+000  0.2672703E+02  0.7546771E-02  0.1637367E+00
         -2   -1    0    0    0  501 -0.00000000000E+00  0.00000000000E+00  0.19970539160E+01  0.19970539160E+01  0.00000000000E+00 0.  1.
          2   -1    0    0  501    0  0.00000000000E+00 -0.00000000000E+00 -0.89423482557E+02  0.89423482557E+02  0.00000000000E+00 0. -1.
        -13    1    1    2    0    0  0.48898725980E+01 -0.10586283638E+02 -0.66039398605E+02  0.67061035061E+02  0.00000000000E+00 0. -1.
         13    1    1    2    0    0 -0.48898725980E+01  0.10586283638E+02 -0.21387030036E+02  0.24359501412E+02  0.00000000000E+00 0.  1.
<mgrwt>
<rscale>  0 0.26727029E+02</rscale>
<asrwt>0</asrwt>
<pdfrwt beam="2">  1        2 0.13757459E-01 0.26727029E+02</pdfrwt>
<pdfrwt beam="1">  1       -2 0.30723907E-03 0.26727029E+02</pdfrwt>
<totfact> 0.26679451E+06</totfact>
</mgrwt>
</event>
<event>
 4    1  0.2165211E+000  0.8233820E+02  0.7546771E-02  0.1322544E+00
         -2   -1    0    0    0  501 -0.00000000000E+00  0.00000000000E+00  0.30324720504E+02  0.30324720504E+02  0.00000000000E+00 0.  1.
          2   -1    0    0  501    0  0.00000000000E+00 -0.00000000000E+00 -0.55891528147E+02  0.55891528147E+02  0.00000000000E+00 0. -1.
        -13    1    1    2    0    0  0.34219591430E+02 -0.16532567166E+02 -0.29358975678E+02  0.48023490789E+02  0.00000000000E+00 0. -1.
         13    1    1    2    0    0 -0.34219591430E+02  0.16532567166E+02  0.37921680342E+01  0.38192757862E+02  0.00000000000E+00 0.  1.
<mgrwt>
<rscale>  0 0.82338204E+02</rscale>
<asrwt>0</asrwt>
<pdfrwt beam="2">  1        2 0.85986965E-02 0.82338204E+02</pdfrwt>
<pdfrwt beam="1">  1       -2 0.46653417E-02 0.82338204E+02</pdfrwt>
<totfact> 0.13853447E+05</totfact>
</mgrwt>
</event>
<event>
 4    1  0.2165211E+000  0.3408277E+02  0.7546771E-02  0.1556900E+00
          2   -1    0    0  501    0  0.00000000000E+00  0.00000000000E+00  0.62649416691E+02  0.62649416691E+02  0.00000000000E+00 0. -1.
         -2   -1    0    0    0  501 -0.00000000000E+00 -0.00000000000E+00 -0.46354601107E+01  0.46354601107E+01  0.00000000000E+00 0.  1.
        -11    1    1    2    0    0  0.10029053084E+02 -0.13030010521E+02  0.20168161401E+02  0.26021487548E+02  0.00000000000E+00 0. -1.
         11    1    1    2    0    0 -0.10029053084E+02  0.13030010521E+02  0.37845795180E+02  0.41263389254E+02  0.00000000000E+00 0.  1.
<mgrwt>
<rscale>  0 0.34082774E+02</rscale>
<asrwt>0</asrwt>
<pdfrwt beam="1">  1        2 0.96383712E-02 0.34082774E+02</pdfrwt>
<pdfrwt beam="2">  1       -2 0.71314775E-03 0.34082774E+02</pdfrwt>
<totfact> 0.13928603E+06</totfact>
</mgrwt>
</event>
<event>
 4    1  0.2165211E+000  0.3164441E+02  0.7546771E-02  0.1580592E+00
          2   -1    0    0  501    0  0.00000000000E+00  0.00000000000E+00  0.30475439164E+02  0.30475439164E+02  0.00000000000E+00 0. -1.
         -2   -1    0    0    0  501 -0.00000000000E+00 -0.00000000000E+00 -0.82145530289E+01  0.82145530289E+01  0.00000000000E+00 0.  1.
        -13    1    1    2    0    0 -0.13754739044E+02  0.21632460861E+01  0.20318193023E+02  0.24631310309E+02  0.00000000000E+00 0. -1.
         13    1    1    2    0    0  0.13754739044E+02 -0.21632460861E+01  0.19426931124E+01  0.14058681885E+02  0.00000000000E+00 0.  1.
<mgrwt>
<rscale>  0 0.31644406E+02</rscale>
<asrwt>0</asrwt>
<pdfrwt beam="1">  1        2 0.46885291E-02 0.31644406E+02</pdfrwt>
<pdfrwt beam="2">  1       -2 0.12637774E-02 0.31644406E+02</pdfrwt>
<totfact> 0.14889788E+06</totfact>
</mgrwt>
</event>
<event>
 4    1  0.2165211E+000  0.2891730E+02  0.7546771E-02  0.1610374E+00
         -1   -1    0    0    0  501 -0.00000000000E+00  0.00000000000E+00  0.14690413472E+02  0.14690413472E+02  0.00000000000E+00 0.  1.
          1   -1    0    0  501    0  0.00000000000E+00 -0.00000000000E+00 -0.14230541385E+02  0.14230541385E+02  0.00000000000E+00 0. -1.
        -11    1    1    2    0    0 -0.14522560158E+01  0.11532069822E+02  0.88307242954E+01  0.14597238558E+02  0.00000000000E+00 0.  1.
         11    1    1    2    0    0  0.14522560158E+01 -0.11532069822E+02 -0.83708522084E+01  0.14323716299E+02  0.00000000000E+00 0. -1.
<mgrwt>
<rscale>  0 0.28917298E+02</rscale>
<asrwt>0</asrwt>
<pdfrwt beam="2">  1        1 0.21893140E-02 0.28917298E+02</pdfrwt>
<pdfrwt beam="1">  1       -1 0.22600636E-02 0.28917298E+02</pdfrwt>
<totfact> 0.16577270E+06</totfact>
</mgrwt>
</event>
<event>
 4    1  0.2165211E+000  0.2355982E+02  0.7546771E-02  0.1682593E+00
          2   -1    0    0  501    0  0.00000000000E+00  0.00000000000E+00  0.30419580847E+02  0.30419580847E+02  0.00000000000E+00 0.  1.
         -2   -1    0    0    0  501 -0.00000000000E+00 -0.00000000000E+00 -0.45617420288E+01  0.45617420288E+01  0.00000000000E+00 0. -1.
        -11    1    1    2    0    0 -0.10675732732E+02  0.10651992122E+01  0.57066289644E+01  0.12152017646E+02  0.00000000000E+00 0. -1.
         11    1    1    2    0    0  0.10675732732E+02 -0.10651992122E+01  0.20151209854E+02  0.22829305230E+02  0.00000000000E+00 0.  1.
<mgrwt>
<rscale>  0 0.23559820E+02</rscale>
<asrwt>0</asrwt>
<pdfrwt beam="1">  1        2 0.46799354E-02 0.23559820E+02</pdfrwt>
<pdfrwt beam="2">  1       -2 0.70180648E-03 0.23559820E+02</pdfrwt>
<totfact> 0.29920722E+06</totfact>
</mgrwt>
</event>
<event>
 4    1  0.2165211E+000  0.2917046E+02  0.7546771E-02  0.1607443E+00
          2   -1    0    0  501    0  0.00000000000E+00  0.00000000000E+00  0.68609587527E+02  0.68609587527E+02  0.00000000000E+00 0.  1.
         -2   -1    0    0    0  501 -0.00000000000E+00 -0.00000000000E+00 -0.31005713003E+01  0.31005713003E+01  0.00000000000E+00 0. -1.
        -11    1    1    2    0    0  0.10472652116E+02 -0.78486338976E+01  0.16927197049E+02  0.21396436534E+02  0.00000000000E+00 0. -1.
         11    1    1    2    0    0 -0.10472652116E+02  0.78486338976E+01  0.48581819178E+02  0.50313722294E+02  0.00000000000E+00 0.  1.
<mgrwt>
<rscale>  0 0.29170459E+02</rscale>
<asrwt>0</asrwt>
<pdfrwt beam="1">  1        2 0.10555320E-01 0.29170459E+02</pdfrwt>
<pdfrwt beam="2">  1       -2 0.47701102E-03 0.29170459E+02</pdfrwt>
<totfact> 0.20567162E+06</totfact>
</mgrwt>
</event>
<event>
 4    1  0.2165211E+000  0.3653199E+02  0.7546771E-02  0.1535402E+00
          2   -1    0    0  501    0  0.00000000000E+00  0.00000000000E+00  0.45872650778E+02  0.45872650778E+02  0.00000000000E+00 0.  1.
         -2   -1    0    0    0  501 -0.00000000000E+00 -0.00000000000E+00 -0.72733229074E+01  0.72733229074E+01  0.00000000000E+00 0. -1.
        -11    1    1    2    0    0  0.87033481793E+01 -0.10934041818E+02  0.36410800219E+02  0.39000614259E+02  0.00000000000E+00 0.  1.
         11    1    1    2    0    0 -0.87033481793E+01  0.10934041818E+02  0.21885276517E+01  0.14145359426E+02  0.00000000000E+00 0. -1.
<mgrwt>
<rscale>  0 0.36531992E+02</rscale>
<asrwt>0</asrwt>
<pdfrwt beam="1">  1        2 0.70573307E-02 0.36531992E+02</pdfrwt>
<pdfrwt beam="2">  1       -2 0.11189728E-02 0.36531992E+02</pdfrwt>
<totfact> 0.11128272E+06</totfact>
</mgrwt>
</event>
<event>
 4    1  0.2165211E+000  0.4007147E+02  0.7546771E-02  0.1507686E+00
         -4   -1    0    0    0  501 -0.00000000000E+00  0.00000000000E+00  0.27504120440E+02  0.27504120440E+02  0.00000000000E+00 0.  1.
          4   -1    0    0  501    0  0.00000000000E+00 -0.00000000000E+00 -0.14595294816E+02  0.14595294816E+02  0.00000000000E+00 0. -1.
        -11    1    1    2    0    0  0.11103311630E+02 -0.61156079733E+01 -0.98468328916E+01  0.16051302378E+02  0.00000000000E+00 0. -1.
         11    1    1    2    0    0 -0.11103311630E+02  0.61156079733E+01  0.22755658516E+02  0.26048112878E+02  0.00000000000E+00 0.  1.
<mgrwt>
<rscale>  0 0.40071473E+02</rscale>
<asrwt>0</asrwt>
<pdfrwt beam="2">  1        4 0.22454300E-02 0.40071473E+02</pdfrwt>
<pdfrwt beam="1">  1       -4 0.42314032E-02 0.40071473E+02</pdfrwt>
<totfact> 0.25383556E+05</totfact>
</mgrwt>
</event>
<event>
 4    1  0.2165211E+000  0.5533739E+02  0.7546771E-02  0.1418510E+00
          2   -1    0    0  501    0  0.00000000000E+00  0.00000000000E+00  0.68154925740E+02  0.68154925740E+02  0.00000000000E+00 0. -1.
         -2   -1    0    0    0  501 -0.00000000000E+00 -0.00000000000E+00 -0.11232594894E+02  0.11232594894E+02  0.00000000000E+00 0.  1.
        -13    1    1    2    0    0  0.53921391823E+01 -0.26506773081E+02  0.36810600866E+02  0.45680461033E+02  0.00000000000E+00 0. -1.
         13    1    1    2    0    0 -0.53921391823E+01  0.26506773081E+02  0.20111729980E+02  0.33707059601E+02  0.00000000000E+00 0.  1.
<mgrwt>
<rscale>  0 0.55337390E+02</rscale>
<asrwt>0</asrwt>
<pdfrwt beam="1">  1        2 0.10485373E-01 0.55337390E+02</pdfrwt>
<pdfrwt beam="2">  1       -2 0.17280916E-02 0.55337390E+02</pdfrwt>
<totfact> 0.42090611E+05</totfact>
</mgrwt>
</event>
<event>
 4    1  0.2165211E+000  0.2383295E+02  0.7546771E-02  0.1678354E+00
         -2   -1    0    0    0  501 -0.00000000000E+00  0.00000000000E+00  0.68827948508E+02  0.68827948508E+02  0.00000000000E+00 0. -1.
          2   -1    0    0  501    0  0.00000000000E+00 -0.00000000000E+00 -0.20631491254E+01  0.20631491254E+01  0.00000000000E+00 0.  1.
        -11    1    1    2    0    0  0.31792368619E+01 -0.10232841395E+02  0.48890854191E+02  0.50051315803E+02  0.00000000000E+00 0. -1.
         11    1    1    2    0    0 -0.31792368619E+01  0.10232841395E+02  0.17873945191E+02  0.20839781831E+02  0.00000000000E+00 0.  1.
<mgrwt>
<rscale>  0 0.23832945E+02</rscale>
<asrwt>0</asrwt>
<pdfrwt beam="2">  1        2 0.31740761E-03 0.23832945E+02</pdfrwt>
<pdfrwt beam="1">  1       -2 0.10588913E-01 0.23832945E+02</pdfrwt>
<totfact> 0.21821747E+06</totfact>
</mgrwt>
</event>
<event>
 4    1  0.2165211E+000  0.4935709E+02  0.7546771E-02  0.1448840E+00
          1   -1    0    0  501    0  0.00000000000E+00  0.00000000000E+00  0.20258081617E+02  0.20258081617E+02  0.00000000000E+00 0. -1.
         -1   -1    0    0    0  501 -0.00000000000E+00 -0.00000000000E+00 -0.30063588279E+02  0.30063588279E+02  0.00000000000E+00 0.  1.
        -13    1    1    2    0    0 -0.19587021315E+02  0.48066925248E+01  0.95975307468E+01  0.22335359712E+02  0.00000000000E+00 0. -1.
         13    1    1    2    0    0  0.19587021315E+02 -0.48066925248E+01 -0.19403037408E+02  0.27986310184E+02  0.00000000000E+00 0.  1.
<mgrwt>
<rscale>  0 0.49357092E+02</rscale>
<asrwt>0</asrwt>
<pdfrwt beam="1">  1        1 0.31166280E-02 0.49357092E+02</pdfrwt>
<pdfrwt beam="2">  1       -1 0.46251674E-02 0.49357092E+02</pdfrwt>
<totfact> 0.44382710E+05</totfact>
</mgrwt>
</event>
<event>
 4    1  0.2165211E+000  0.3804698E+02  0.7546771E-02  0.1523096E+00
         -2   -1    0    0    0  501 -0.00000000000E+00  0.00000000000E+00  0.15836466413E+02  0.15836466413E+02  0.00000000000E+00 0. -1.
          2   -1    0    0  501    0  0.00000000000E+00 -0.00000000000E+00 -0.22851885981E+02  0.22851885981E+02  0.00000000000E+00 0.  1.
        -13    1    1    2    0    0 -0.13779240153E+02 -0.12804854603E+02 -0.63948265248E+01  0.19867701600E+02  0.00000000000E+00 0.  1.
         13    1    1    2    0    0  0.13779240153E+02  0.12804854603E+02 -0.62059304285E+00  0.18820650794E+02  0.00000000000E+00 0. -1.
<mgrwt>
<rscale>  0 0.38046978E+02</rscale>
<asrwt>0</asrwt>
<pdfrwt beam="2">  1        2 0.35156748E-02 0.38046978E+02</pdfrwt>
<pdfrwt beam="1">  1       -2 0.24363794E-02 0.38046978E+02</pdfrwt>
<totfact> 0.91058071E+05</totfact>
</mgrwt>
</event>
<event>
 4    1  0.2165211E+000  0.2639748E+02  0.7546771E-02  0.1641704E+00
         -4   -1    0    0    0  501 -0.00000000000E+00  0.00000000000E+00  0.16532861642E+01  0.16532861642E+01  0.00000000000E+00 0.  1.
          4   -1    0    0  501    0  0.00000000000E+00 -0.00000000000E+00 -0.10536996884E+03  0.10536996884E+03  0.00000000000E+00 0. -1.
        -11    1    1    2    0    0 -0.96587816519E+01  0.85304340220E+01 -0.40286643334E+02  0.42297446717E+02  0.00000000000E+00 0.  1.
         11    1    1    2    0    0  0.96587816519E+01 -0.85304340220E+01 -0.63430039341E+02  0.64725808287E+02  0.00000000000E+00 0. -1.
<mgrwt>
<rscale>  0 0.26397478E+02</rscale>
<asrwt>0</asrwt>
<pdfrwt beam="2">  1        4 0.16210763E-01 0.26397478E+02</pdfrwt>
<pdfrwt beam="1">  1       -4 0.25435174E-03 0.26397478E+02</pdfrwt>
<totfact> 0.53945480E+05</totfact>
</mgrwt>
</event>
<event>
 4    1  0.2165211E+000  0.2410302E+02  0.7546771E-02  0.1674230E+00
         -4   -1    0    0    0  501 -0.00000000000E+00  0.00000000000E+00  0.36678460723E+01  0.36678460723E+01  0.00000000000E+00 0. -1.
          4   -1    0    0  501    0  0.00000000000E+00 -0.00000000000E+00 -0.39597877598E+02  0.39597877598E+02  0.00000000000E+00 0.  1.
        -13    1    1    2    0    0 -0.12010786377E+02 -0.60853782220E+00 -0.16563495821E+02  0.20468969233E+02  0.00000000000E+00 0.  1.
         13    1    1    2    0    0  0.12010786377E+02  0.60853782220E+00 -0.19366535705E+02  0.22796754437E+02  0.00000000000E+00 0. -1.
<mgrwt>
<rscale>  0 0.24103022E+02</rscale>
<asrwt>0</asrwt>
<pdfrwt beam="2">  1        4 0.60919815E-02 0.24103022E+02</pdfrwt>
<pdfrwt beam="1">  1       -4 0.56428398E-03 0.24103022E+02</pdfrwt>
<totfact> 0.80104047E+05</totfact>
</mgrwt>
</event>
<event>
 4    1  0.2165211E+000  0.2315645E+02  0.7546771E-02  0.1688987E+00
         -2   -1    0    0    0  501 -0.00000000000E+00  0.00000000000E+00  0.45574098448E+02  0.45574098448E+02  0.00000000000E+00 0. -1.
          2   -1    0    0  501    0  0.00000000000E+00 -0.00000000000E+00 -0.29414790901E+01  0.29414790901E+01  0.00000000000E+00 0.  1.
        -13    1    1    2    0    0  0.58611447484E+00 -0.10676051597E+02  0.12009239427E+02  0.16079286038E+02  0.00000000000E+00 0.  1.
         13    1    1    2    0    0 -0.58611447484E+00  0.10676051597E+02  0.30623379930E+02  0.32436291499E+02  0.00000000000E+00 0. -1.
<mgrwt>
<rscale>  0 0.23156447E+02</rscale>
<asrwt>0</asrwt>
<pdfrwt beam="2">  1        2 0.45253528E-03 0.23156447E+02</pdfrwt>
<pdfrwt beam="1">  1       -2 0.70113992E-02 0.23156447E+02</pdfrwt>
<totfact> 0.24837229E+06</totfact>
</mgrwt>
</event>
<event>
 4    1  0.2165211E+000  0.4286973E+02  0.7546771E-02  0.1488096E+00
          4   -1    0    0  501    0  0.00000000000E+00  0.00000000000E+00  0.75859230486E+01  0.75859230486E+01  0.00000000000E+00 0.  1.
         -4   -1    0    0    0  501 -0.00000000000E+00 -0.00000000000E+00 -0.60566570416E+02  0.60566570416E+02  0.00000000000E+00 0. -1.
        -11    1    1    2    0    0 -0.14867885188E+02 -0.15001940988E+02 -0.32296989762E+02  0.38590255131E+02  0.00000000000E+00 0. -1.
         11    1    1    2    0    0  0.14867885188E+02  0.15001940988E+02 -0.20683657606E+02  0.29562238334E+02  0.00000000000E+00 0.  1.
<mgrwt>
<rscale>  0 0.42869726E+02</rscale>
<asrwt>0</asrwt>
<pdfrwt beam="1">  1        4 0.11670651E-02 0.42869726E+02</pdfrwt>
<pdfrwt beam="2">  1       -4 0.93179337E-02 0.42869726E+02</pdfrwt>
<totfact> 0.19893080E+05</totfact>
</mgrwt>
</event>
<event>
 4    1  0.2165211E+000  0.2169313E+02  0.7546771E-02  0.1713614E+00
          2   -1    0    0  501    0  0.00000000000E+00  0.00000000000E+00  0.50877642342E+01  0.50877642342E+01  0.00000000000E+00 0. -1.
         -2   -1    0    0    0  501 -0.00000000000E+00 -0.00000000000E+00 -0.23123704663E+02  0.23123704663E+02  0.00000000000E+00 0.  1.
        -11    1    1    2    0    0  0.95266336288E+01 -0.37378697898E+01 -0.43435579694E+01  0.11117324979E+02  0.00000000000E+00 0. -1.
         11    1    1    2    0    0 -0.95266336288E+01  0.37378697898E+01 -0.13692382459E+02  0.17094143917E+02  0.00000000000E+00 0.  1.
<mgrwt>
<rscale>  0 0.21693129E+02</rscale>
<asrwt>0</asrwt>
<pdfrwt beam="1">  1        2 0.78273297E-03 0.21693129E+02</pdfrwt>
<pdfrwt beam="2">  1       -2 0.35574930E-02 0.21693129E+02</pdfrwt>
<totfact> 0.30944458E+06</totfact>
</mgrwt>
</event>
<event>
 4    1  0.2165211E+000  0.5062126E+02  0.7546771E-02  0.1442019E+00
          1   -1    0    0  501    0  0.00000000000E+00  0.00000000000E+00  0.21755603872E+03  0.21755603872E+03  0.00000000000E+00 0.  1.
         -1   -1    0    0    0  501 -0.00000000000E+00 -0.00000000000E+00 -0.29446571060E+01  0.29446571060E+01  0.00000000000E+00 0. -1.
        -11    1    1    2    0    0 -0.55092142689E+01  0.24256156567E+02  0.86914088259E+02  0.90403381083E+02  0.00000000000E+00 0.  1.
         11    1    1    2    0    0  0.55092142689E+01 -0.24256156567E+02  0.12769729336E+03  0.13009731475E+03  0.00000000000E+00 0. -1.
<mgrwt>
<rscale>  0 0.50621258E+02</rscale>
<asrwt>0</asrwt>
<pdfrwt beam="1">  1        1 0.33470147E-01 0.50621258E+02</pdfrwt>
<pdfrwt beam="2">  1       -1 0.45302434E-03 0.50621258E+02</pdfrwt>
<totfact> 0.55299866E+05</totfact>
</mgrwt>
</event>
<event>
 4    1  0.2165211E+000  0.4700552E+02  0.7546771E-02  0.1462196E+00
         -2   -1    0    0    0  501 -0.00000000000E+00  0.00000000000E+00  0.21953680301E+03  0.21953680301E+03  0.00000000000E+00 0.  1.
          2   -1    0    0  501    0  0.00000000000E+00 -0.00000000000E+00 -0.25161140537E+01  0.25161140537E+01  0.00000000000E+00 0. -1.
        -11    1    1    2    0    0 -0.15562298413E+02  0.17160332463E+02  0.89782003909E+02  0.92722545090E+02  0.00000000000E+00 0. -1.
         11    1    1    2    0    0  0.15562298413E+02 -0.17160332463E+02  0.12723868504E+03  0.12933037197E+03  0.00000000000E+00 0.  1.
<mgrwt>
<rscale>  0 0.47005516E+02</rscale>
<asrwt>0</asrwt>
<pdfrwt beam="2">  1        2 0.38709464E-03 0.47005516E+02</pdfrwt>
<pdfrwt beam="1">  1       -2 0.33774878E-01 0.47005516E+02</pdfrwt>
<totfact> 0.31523317E+05</totfact>
</mgrwt>
</event>
<event>
 4    1  0.2165211E+000  0.8277541E+02  0.7546771E-02  0.1321355E+00
         -2   -1    0    0    0  501 -0.00000000000E+00  0.00000000000E+00  0.25194677453E+02  0.25194677453E+02  0.00000000000E+00 0.  1.
          2   -1    0    0  501    0  0.00000000000E+00 -0.00000000000E+00 -0.67988249181E+02  0.67988249181E+02  0.00000000000E+00 0. -1.
        -11    1    1    2    0    0  0.24608730594E+01 -0.20895735839E+02 -0.61518581702E+02  0.65017102112E+02  0.00000000000E+00 0. -1.
         11    1    1    2    0    0 -0.24608730594E+01  0.20895735839E+02  0.18725009974E+02  0.28165824522E+02  0.00000000000E+00 0.  1.
<mgrwt>
<rscale>  0 0.82775407E+02</rscale>
<asrwt>0</asrwt>
<pdfrwt beam="2">  1        2 0.10459731E-01 0.82775407E+02</pdfrwt>
<pdfrwt beam="1">  1       -2 0.38761043E-02 0.82775407E+02</pdfrwt>
<totfact> 0.14352485E+05</totfact>
</mgrwt>
</event>
<event>
 4    1  0.2165211E+000  0.2539959E+02  0.7546771E-02  0.1655328E+00
         -2   -1    0    0    0  501 -0.00000000000E+00  0.00000000000E+00  0.96994994362E+02  0.96994994362E+02  0.00000000000E+00 0.  1.
          2   -1    0    0  501    0  0.00000000000E+00 -0.00000000000E+00 -0.16628161857E+01  0.16628161857E+01  0.00000000000E+00 0. -1.
        -11    1    1    2    0    0  0.68428111429E+01  0.10653550078E+02  0.43855083633E+02  0.45646364083E+02  0.00000000000E+00 0. -1.
         11    1    1    2    0    0 -0.68428111429E+01 -0.10653550078E+02  0.51477094543E+02  0.53011446464E+02  0.00000000000E+00 0.  1.
<mgrwt>
<rscale>  0 0.25399594E+02</rscale>
<asrwt>0</asrwt>
<pdfrwt beam="2">  1        2 0.25581795E-03 0.25399594E+02</pdfrwt>
<pdfrwt beam="1">  1       -2 0.14922302E-01 0.25399594E+02</pdfrwt>
<totfact> 0.17598659E+06</totfact>
</mgrwt>
</event>
<event>
 4    1  0.2165211E+000  0.3086605E+02  0.7546771E-02  0.1588708E+00
         -2   -1    0    0    0  501 -0.00000000000E+00  0.00000000000E+00  0.15141095892E+02  0.15141095892E+02  0.00000000000E+00 0. -1.
          2   -1    0    0  501    0  0.00000000000E+00 -0.00000000000E+00 -0.15730582115E+02  0.15730582115E+02  0.00000000000E+00 0.  1.
        -11    1    1    2    0    0 -0.13214301617E+02 -0.73842384570E+01  0.27113843496E+01  0.15378437824E+02  0.00000000000E+00 0.  1.
         11    1    1    2    0    0  0.13214301617E+02  0.73842384570E+01 -0.33008705721E+01  0.15493240183E+02  0.00000000000E+00 0. -1.
<mgrwt>
<rscale>  0 0.30866049E+02</rscale>
<asrwt>0</asrwt>
<pdfrwt beam="2">  1        2 0.24200895E-02 0.30866049E+02</pdfrwt>
<pdfrwt beam="1">  1       -2 0.23293994E-02 0.30866049E+02</pdfrwt>
<totfact> 0.14672646E+06</totfact>
</mgrwt>
</event>
<event>
 4    1  0.2165211E+000  0.6564993E+02  0.7546771E-02  0.1375543E+00
         -3   -1    0    0    0  501 -0.00000000000E+00  0.00000000000E+00  0.48413965800E+02  0.48413965800E+02  0.00000000000E+00 0.  1.
          3   -1    0    0  501    0  0.00000000000E+00 -0.00000000000E+00 -0.22255526835E+02  0.22255526835E+02  0.00000000000E+00 0. -1.
        -13    1    1    2    0    0 -0.30188096834E+02 -0.11566344713E+02  0.69540990316E+01  0.33067522039E+02  0.00000000000E+00 0. -1.
         13    1    1    2    0    0  0.30188096834E+02  0.11566344713E+02  0.19204339934E+02  0.37601970596E+02  0.00000000000E+00 0.  1.
<mgrwt>
<rscale>  0 0.65649930E+02</rscale>
<asrwt>0</asrwt>
<pdfrwt beam="2">  1        3 0.34239272E-02 0.65649930E+02</pdfrwt>
<pdfrwt beam="1">  1       -3 0.74483024E-02 0.65649930E+02</pdfrwt>
<totfact> 0.89039103E+04</totfact>
</mgrwt>
</event>
<event>
 4    1  0.2165211E+000  0.4729547E+02  0.7546771E-02  0.1460500E+00
          1   -1    0    0  501    0  0.00000000000E+00  0.00000000000E+00  0.85399502220E+02  0.85399502220E+02  0.00000000000E+00 0. -1.
         -1   -1    0    0    0  501 -0.00000000000E+00 -0.00000000000E+00 -0.65482273344E+01  0.65482273344E+01  0.00000000000E+00 0.  1.
        -11    1    1    2    0    0  0.15515778731E+02 -0.17792870970E+02  0.36753130774E+02  0.43682013103E+02  0.00000000000E+00 0. -1.
         11    1    1    2    0    0 -0.15515778731E+02  0.17792870970E+02  0.42098144112E+02  0.48265716452E+02  0.00000000000E+00 0.  1.
<mgrwt>
<rscale>  0 0.47295469E+02</rscale>
<asrwt>0</asrwt>
<pdfrwt beam="1">  1        1 0.13138384E-01 0.47295469E+02</pdfrwt>
<pdfrwt beam="2">  1       -1 0.10074197E-02 0.47295469E+02</pdfrwt>
<totfact> 0.56915244E+05</totfact>
</mgrwt>
</event>
<event>
 4    1  0.2165211E+000  0.3094152E+02  0.7546771E-02  0.1587909E+00
         -2   -1    0    0    0  501 -0.00000000000E+00  0.00000000000E+00  0.33526040479E+02  0.33526040479E+02  0.00000000000E+00 0.  1.
          2   -1    0    0  501    0  0.00000000000E+00 -0.00000000000E+00 -0.71390603048E+01  0.71390603048E+01  0.00000000000E+00 0. -1.
        -11    1    1    2    0    0 -0.12120319554E+02  0.90210163879E+01  0.88220221835E+01  0.17495969769E+02  0.00000000000E+00 0. -1.
         11    1    1    2    0    0  0.12120319554E+02 -0.90210163879E+01  0.17564957990E+02  0.23169131014E+02  0.00000000000E+00 0.  1.
<mgrwt>
<rscale>  0 0.30941521E+02</rscale>
<asrwt>0</asrwt>
<pdfrwt beam="2">  1        2 0.10983170E-02 0.30941521E+02</pdfrwt>
<pdfrwt beam="1">  1       -2 0.51578523E-02 0.30941521E+02</pdfrwt>
<totfact> 0.13375045E+06</totfact>
</mgrwt>
</event>
<event>
 4    1  0.2165211E+000  0.4401036E+02  0.7546771E-02  0.1480616E+00
         -2   -1    0    0    0  501 -0.00000000000E+00  0.00000000000E+00  0.22776584208E+02  0.22776584208E+02  0.00000000000E+00 0.  1.
          2   -1    0    0  501    0  0.00000000000E+00 -0.00000000000E+00 -0.21259905553E+02  0.21259905553E+02  0.00000000000E+00 0. -1.
        -13    1    1    2    0    0 -0.16239051766E+02 -0.39873340426E+01 -0.13554780793E+02  0.21525280889E+02  0.00000000000E+00 0. -1.
         13    1    1    2    0    0  0.16239051766E+02  0.39873340426E+01  0.15071459447E+02  0.22511208872E+02  0.00000000000E+00 0.  1.
<mgrwt>
<rscale>  0 0.44010364E+02</rscale>
<asrwt>0</asrwt>
<pdfrwt beam="2">  1        2 0.32707547E-02 0.44010364E+02</pdfrwt>
<pdfrwt beam="1">  1       -2 0.35040899E-02 0.44010364E+02</pdfrwt>
<totfact> 0.62157386E+05</totfact>
</mgrwt>
</event>
<event>
 4    1  0.2165211E+000  0.2363366E+02  0.7546771E-02  0.1681440E+00
         -2   -1    0    0    0  501 -0.00000000000E+00  0.00000000000E+00  0.31109300275E+01  0.31109300275E+01  0.00000000000E+00 0.  1.
          2   -1    0    0  501    0  0.00000000000E+00 -0.00000000000E+00 -0.44886086273E+02  0.44886086273E+02  0.00000000000E+00 0. -1.
        -13    1    1    2    0    0 -0.37170024968E+01 -0.93530798401E+01 -0.33462823386E+02  0.34943622580E+02  0.00000000000E+00 0. -1.
         13    1    1    2    0    0  0.37170024968E+01  0.93530798401E+01 -0.83123328595E+01  0.13053393721E+02  0.00000000000E+00 0.  1.
<mgrwt>
<rscale>  0 0.23633660E+02</rscale>
<asrwt>0</asrwt>
<pdfrwt beam="2">  1        2 0.69055515E-02 0.23633660E+02</pdfrwt>
<pdfrwt beam="1">  1       -2 0.47860464E-03 0.23633660E+02</pdfrwt>
<totfact> 0.31247951E+06</totfact>
</mgrwt>
</event>
<event>
 4    1  0.2165211E+000  0.4943741E+02  0.7546771E-02  0.1448400E+00
          2   -1    0    0  501    0  0.00000000000E+00  0.00000000000E+00  0.95577374756E+02  0.95577374756E+02  0.00000000000E+00 0.  1.
         -2   -1    0    0    0  501 -0.00000000000E+00 -0.00000000000E+00 -0.63928760580E+01  0.63928760580E+01  0.00000000000E+00 0. -1.
        -13    1    1    2    0    0 -0.25055535824E+01 -0.19579243491E+02  0.75282224890E+02  0.77826974494E+02  0.00000000000E+00 0.  1.
         13    1    1    2    0    0  0.25055535824E+01  0.19579243491E+02  0.13902273808E+02  0.24143276321E+02  0.00000000000E+00 0. -1.
<mgrwt>
<rscale>  0 0.49437407E+02</rscale>
<asrwt>0</asrwt>
<pdfrwt beam="1">  1        2 0.14704210E-01 0.49437407E+02</pdfrwt>
<pdfrwt beam="2">  1       -2 0.98351946E-03 0.49437407E+02</pdfrwt>
<totfact> 0.60900487E+05</totfact>
</mgrwt>
</event>
<event>
 4    1  0.2165211E+000  0.2016285E+02  0.7546771E-02  0.1742109E+00
          2   -1    0    0  501    0  0.00000000000E+00  0.00000000000E+00  0.37293100138E+02  0.37293100138E+02  0.00000000000E+00 0. -1.
         -2   -1    0    0    0  501 -0.00000000000E+00 -0.00000000000E+00 -0.27253078105E+01  0.27253078105E+01  0.00000000000E+00 0.  1.
        -11    1    1    2    0    0  0.37249227064E+00  0.10042054587E+02  0.18888443741E+02  0.21395207822E+02  0.00000000000E+00 0. -1.
         11    1    1    2    0    0 -0.37249227064E+00 -0.10042054587E+02  0.15679348587E+02  0.18623200126E+02  0.00000000000E+00 0.  1.
<mgrwt>
<rscale>  0 0.20162855E+02</rscale>
<asrwt>0</asrwt>
<pdfrwt beam="1">  1        2 0.57373996E-02 0.20162855E+02</pdfrwt>
<pdfrwt beam="2">  1       -2 0.41927815E-03 0.20162855E+02</pdfrwt>
<totfact> 0.43694977E+06</totfact>
</mgrwt>
</event>
<event>
 4    1  0.2165211E+000  0.2676443E+02  0.7546771E-02  0.1636880E+00
         -4   -1    0    0    0  501 -0.00000000000E+00  0.00000000000E+00  0.62373167372E+02  0.62373167372E+02  0.00000000000E+00 0.  1.
          4   -1    0    0  501    0  0.00000000000E+00 -0.00000000000E+00 -0.28711660000E+01  0.28711660000E+01  0.00000000000E+00 0. -1.
        -11    1    1    2    0    0 -0.35036707270E+01  0.12490313835E+02  0.37762208936E+02  0.39928286615E+02  0.00000000000E+00 0.  1.
         11    1    1    2    0    0  0.35036707270E+01 -0.12490313835E+02  0.21739792436E+02  0.25316046757E+02  0.00000000000E+00 0. -1.
<mgrwt>
<rscale>  0 0.26764433E+02</rscale>
<asrwt>0</asrwt>
<pdfrwt beam="2">  1        4 0.44171789E-03 0.26764433E+02</pdfrwt>
<pdfrwt beam="1">  1       -4 0.95958709E-02 0.26764433E+02</pdfrwt>
<totfact> 0.59244018E+05</totfact>
</mgrwt>
</event>
<event>
 4    1  0.2165211E+000  0.2116735E+02  0.7546771E-02  0.1723063E+00
         -2   -1    0    0    0  501 -0.00000000000E+00  0.00000000000E+00  0.19239569456E+01  0.19239569456E+01  0.00000000000E+00 0. -1.
          2   -1    0    0  501    0  0.00000000000E+00 -0.00000000000E+00 -0.58220750568E+02  0.58220750568E+02  0.00000000000E+00 0.  1.
        -13    1    1    2    0    0 -0.99816918678E+01  0.28481577342E+01 -0.34018492898E+02  0.35566895198E+02  0.00000000000E+00 0. -1.
         13    1    1    2    0    0  0.99816918678E+01 -0.28481577342E+01 -0.22278300725E+02  0.24577812316E+02  0.00000000000E+00 0.  1.
<mgrwt>
<rscale>  0 0.21167354E+02</rscale>
<asrwt>0</asrwt>
<pdfrwt beam="2">  1        2 0.89570388E-02 0.21167354E+02</pdfrwt>
<pdfrwt beam="1">  1       -2 0.29599337E-03 0.21167354E+02</pdfrwt>
<totfact> 0.41805090E+06</totfact>
</mgrwt>
</event>
<event>
 4    1  0.2165211E+000  0.2867610E+02  0.7546771E-02  0.1613201E+00
          4   -1    0    0  501    0  0.00000000000E+00  0.00000000000E+00  0.18472615108E+02  0.18472615108E+02  0.00000000000E+00 0. -1.
         -4   -1    0    0    0  501 -0.00000000000E+00 -0.00000000000E+00 -0.11128892379E+02  0.11128892379E+02  0.00000000000E+00 0.  1.
        -11    1    1    2    0    0  0.11661462813E+02  0.31507299441E+01  0.11645305661E+02  0.16778854492E+02  0.00000000000E+00 0. -1.
         11    1    1    2    0    0 -0.11661462813E+02 -0.31507299441E+01 -0.43015829316E+01  0.12822652995E+02  0.00000000000E+00 0.  1.
<mgrwt>
<rscale>  0 0.28676105E+02</rscale>
<asrwt>0</asrwt>
<pdfrwt beam="1">  1        4 0.28419408E-02 0.28676105E+02</pdfrwt>
<pdfrwt beam="2">  1       -4 0.17121373E-02 0.28676105E+02</pdfrwt>
<totfact> 0.57682493E+05</totfact>
</mgrwt>
</event>
<event>
 4    1  0.2165211E+000  0.4746691E+02  0.7546771E-02  0.1459504E+00
         -2   -1    0    0    0  501 -0.00000000000E+00  0.00000000000E+00  0.17849344833E+02  0.17849344833E+02  0.00000000000E+00 0.  1.
          2   -1    0    0  501    0  0.00000000000E+00 -0.00000000000E+00 -0.31557280235E+02  0.31557280235E+02  0.00000000000E+00 0. -1.
        -13    1    1    2    0    0 -0.74073585691E+01 -0.17518200816E+02  0.79219287345E+01  0.20603719947E+02  0.00000000000E+00 0.  1.
         13    1    1    2    0    0  0.74073585691E+01  0.17518200816E+02 -0.21629864136E+02  0.28802905120E+02  0.00000000000E+00 0. -1.
<mgrwt>
<rscale>  0 0.47466905E+02</rscale>
<asrwt>0</asrwt>
<pdfrwt beam="2">  1        2 0.48549661E-02 0.47466905E+02</pdfrwt>
<pdfrwt beam="1">  1       -2 0.27460531E-02 0.47466905E+02</pdfrwt>
<totfact> 0.54181303E+05</totfact>
</mgrwt>
</event>
<event>
 4    1  0.2165211E+000  0.8642914E+02  0.7546771E-02  0.1311737E+00
         -4   -1    0    0    0  501 -0.00000000000E+00  0.00000000000E+00  0.13101082035E+03  0.13101082035E+03  0.00000000000E+00 0.  1.
          4   -1    0    0  501    0  0.00000000000E+00 -0.00000000000E+00 -0.14254540764E+02  0.14254540764E+02  0.00000000000E+00 0. -1.
        -13    1    1    2    0    0 -0.14169956499E+02  0.23668313947E+02  0.24691088414E+01  0.27696087283E+02  0.00000000000E+00 0. -1.
         13    1    1    2    0    0  0.14169956499E+02 -0.23668313947E+02  0.11428717075E+03  0.11756927383E+03  0.00000000000E+00 0.  1.
<mgrwt>
<rscale>  0 0.86429140E+02</rscale>
<asrwt>0</asrwt>
<pdfrwt beam="2">  1        4 0.21930064E-02 0.86429140E+02</pdfrwt>
<pdfrwt beam="1">  1       -4 0.20155510E-01 0.86429140E+02</pdfrwt>
<totfact> 0.27594877E+04</totfact>
</mgrwt>
</event>
<event>
 4    1  0.2165211E+000  0.2489948E+02  0.7546771E-02  0.1662450E+00
         -2   -1    0    0    0  501 -0.00000000000E+00  0.00000000000E+00  0.13202128129E+02  0.13202128129E+02  0.00000000000E+00 0.  1.
          2   -1    0    0  501    0  0.00000000000E+00 -0.00000000000E+00 -0.11740227713E+02  0.11740227713E+02  0.00000000000E+00 0. -1.
        -11    1    1    2    0    0 -0.80170941693E+01  0.88327039723E+01  0.43015705355E+01  0.12680456122E+02  0.00000000000E+00 0.  1.
         11    1    1    2    0    0  0.80170941693E+01 -0.88327039723E+01 -0.28396701197E+01  0.12261899721E+02  0.00000000000E+00 0. -1.
<mgrwt>
<rscale>  0 0.24899477E+02</rscale>
<asrwt>0</asrwt>
<pdfrwt beam="2">  1        2 0.18061889E-02 0.24899477E+02</pdfrwt>
<pdfrwt beam="1">  1       -2 0.20310966E-02 0.24899477E+02</pdfrwt>
<totfact> 0.23978599E+06</totfact>
</mgrwt>
</event>
<event>
 4    1  0.2165211E+000  0.3495037E+02  0.7546771E-02  0.1549042E+00
          3   -1    0    0  501    0  0.00000000000E+00  0.00000000000E+00  0.10915700616E+02  0.10915700616E+02  0.00000000000E+00 0.  1.
         -3   -1    0    0    0  501 -0.00000000000E+00 -0.00000000000E+00 -0.27976407048E+02  0.27976407048E+02  0.00000000000E+00 0. -1.
        -11    1    1    2    0    0 -0.17375371341E+02  0.16912572733E+01 -0.94052873203E+01  0.19829859051E+02  0.00000000000E+00 0.  1.
         11    1    1    2    0    0  0.17375371341E+02 -0.16912572733E+01 -0.76554191115E+01  0.19062248613E+02  0.00000000000E+00 0. -1.
<mgrwt>
<rscale>  0 0.34950370E+02</rscale>
<asrwt>0</asrwt>
<pdfrwt beam="1">  1        3 0.16793386E-02 0.34950370E+02</pdfrwt>
<pdfrwt beam="2">  1       -3 0.43040626E-02 0.34950370E+02</pdfrwt>
<totfact> 0.47086917E+05</totfact>
</mgrwt>
</event>
<event>
 4    1  0.2165211E+000  0.2642362E+02  0.7546771E-02  0.1641357E+00
         -4   -1    0    0    0  501 -0.00000000000E+00  0.00000000000E+00  0.69098222075E+01  0.69098222075E+01  0.00000000000E+00 0. -1.
          4   -1    0    0  501    0  0.00000000000E+00 -0.00000000000E+00 -0.25261426977E+02  0.25261426977E+02  0.00000000000E+00 0.  1.
        -13    1    1    2    0    0 -0.25712189973E+01 -0.12941130193E+02 -0.10008669825E+02  0.16560721285E+02  0.00000000000E+00 0. -1.
         13    1    1    2    0    0  0.25712189973E+01  0.12941130193E+02 -0.83429349441E+01  0.15610527899E+02  0.00000000000E+00 0.  1.
<mgrwt>
<rscale>  0 0.26423623E+02</rscale>
<asrwt>0</asrwt>
<pdfrwt beam="2">  1        4 0.38863735E-02 0.26423623E+02</pdfrwt>
<pdfrwt beam="1">  1       -4 0.10630495E-02 0.26423623E+02</pdfrwt>
<totfact> 0.68450757E+05</totfact>
</mgrwt>
</event>
<event>
 4    1  0.2165211E+000  0.2133313E+02  0.7546771E-02  0.1720047E+00
          2   -1    0    0  501    0  0.00000000000E+00  0.00000000000E+00  0.10732960440E+03  0.10732960440E+03  0.00000000000E+00 0. -1.
         -2   -1    0    0    0  501 -0.00000000000E+00 -0.00000000000E+00 -0.10600583320E+01  0.10600583320E+01  0.00000000000E+00 0.  1.
        -13    1    1    2    0    0  0.10031953132E+02 -0.31618864837E+01  0.62135174498E+02  0.63019183743E+02  0.00000000000E+00 0. -1.
         13    1    1    2    0    0 -0.10031953132E+02  0.31618864837E+01  0.44134371572E+02  0.45370478991E+02  0.00000000000E+00 0.  1.
<mgrwt>
<rscale>  0 0.21333133E+02</rscale>
<asrwt>0</asrwt>
<pdfrwt beam="1">  1        2 0.16512238E-01 0.21333133E+02</pdfrwt>
<pdfrwt beam="2">  1       -2 0.16308598E-03 0.21333133E+02</pdfrwt>
<totfact> 0.46478621E+06</totfact>
</mgrwt>
</event>
<event>
 4    1  0.2165211E+000  0.2420364E+02  0.7546771E-02  0.1672711E+00
         -2   -1    0    0    0  501 -0.00000000000E+00  0.00000000000E+00  0.18844185945E+01  0.18844185945E+01  0.00000000000E+00 0. -1.
          2   -1    0    0  501    0  0.00000000000E+00 -0.00000000000E+00 -0.77718414107E+02  0.77718414107E+02  0.00000000000E+00 0.  1.
        -11    1    1    2    0    0 -0.48054349478E+01 -0.11061543446E+02 -0.34621422629E+02  0.36661871929E+02  0.00000000000E+00 0. -1.
         11    1    1    2    0    0  0.48054349478E+01  0.11061543446E+02 -0.41212572884E+02  0.42940960773E+02  0.00000000000E+00 0.  1.
<mgrwt>
<rscale>  0 0.24203638E+02</rscale>
<asrwt>0</asrwt>
<pdfrwt beam="2">  1        2 0.11956678E-01 0.24203638E+02</pdfrwt>
<pdfrwt beam="1">  1       -2 0.28991059E-03 0.24203638E+02</pdfrwt>
<totfact> 0.32544925E+06</totfact>
</mgrwt>
</event>
<event>
 4    1  0.2165211E+000  0.1155390E+03  0.7546771E-02  0.1250643E+00
         -2   -1    0    0    0  501 -0.00000000000E+00  0.00000000000E+00  0.53455426134E+02  0.53455426134E+02  0.00000000000E+00 0.  1.
          2   -1    0    0  501    0  0.00000000000E+00 -0.00000000000E+00 -0.62431726986E+02  0.62431726986E+02  0.00000000000E+00 0. -1.
        -13    1    1    2    0    0  0.37976516364E+02  0.21034247693E+02  0.33740467343E+02  0.54982492738E+02  0.00000000000E+00 0.  1.
         13    1    1    2    0    0 -0.37976516364E+02 -0.21034247693E+02 -0.42716768195E+02  0.60904660382E+02  0.00000000000E+00 0. -1.
<mgrwt>
<rscale>  0 0.11553899E+03</rscale>
<asrwt>0</asrwt>
<pdfrwt beam="2">  1        2 0.96048811E-02 0.11553899E+03</pdfrwt>
<pdfrwt beam="1">  1       -2 0.82239117E-02 0.11553899E+03</pdfrwt>
<totfact> 0.54203016E+04</totfact>
</mgrwt>
</event>
<event>
 4    1  0.2165211E+000  0.6955009E+02  0.7546771E-02  0.1361630E+00
         -2   -1    0    0    0  501 -0.00000000000E+00  0.00000000000E+00  0.73250381192E+01  0.73250381192E+01  0.00000000000E+00 0. -1.
          2   -1    0    0  501    0  0.00000000000E+00 -0.00000000000E+00 -0.16509181388E+03  0.16509181388E+03  0.00000000000E+00 0.  1.
        -13    1    1    2    0    0  0.23190610663E+02 -0.25875883280E+02 -0.75432213643E+02  0.83050494361E+02  0.00000000000E+00 0.  1.
         13    1    1    2    0    0 -0.23190610663E+02  0.25875883280E+02 -0.82334562116E+02  0.89366357636E+02  0.00000000000E+00 0. -1.
<mgrwt>
<rscale>  0 0.69550092E+02</rscale>
<asrwt>0</asrwt>
<pdfrwt beam="2">  1        2 0.25398739E-01 0.69550092E+02</pdfrwt>
<pdfrwt beam="1">  1       -2 0.11269290E-02 0.69550092E+02</pdfrwt>
<totfact> 0.29690892E+05</totfact>
</mgrwt>
</event>
<event>
 4    1  0.2165211E+000  0.7173998E+02  0.7546771E-02  0.1354274E+00
          2   -1    0    0  501    0  0.00000000000E+00  0.00000000000E+00  0.21279166771E+03  0.21279166771E+03  0.00000000000E+00 0. -1.
         -2   -1    0    0    0  501 -0.00000000000E+00 -0.00000000000E+00 -0.60465532748E+01  0.60465532748E+01  0.00000000000E+00 0.  1.
        -11    1    1    2    0    0 -0.27906120289E+02 -0.17623521343E+02  0.14622180395E+03  0.14990048701E+03  0.00000000000E+00 0. -1.
         11    1    1    2    0    0  0.27906120289E+02  0.17623521343E+02  0.60523310482E+02  0.68937733976E+02  0.00000000000E+00 0.  1.
<mgrwt>
<rscale>  0 0.71739979E+02</rscale>
<asrwt>0</asrwt>
<pdfrwt beam="1">  1        2 0.32737174E-01 0.71739979E+02</pdfrwt>
<pdfrwt beam="2">  1       -2 0.93023913E-03 0.71739979E+02</pdfrwt>
<totfact> 0.29859834E+05</totfact>
</mgrwt>
</event>
<event>
 4    1  0.2165211E+000  0.2073065E+02  0.7546771E-02  0.1731177E+00
          1   -1    0    0  501    0  0.00000000000E+00  0.00000000000E+00  0.26976471943E+01  0.26976471943E+01  0.00000000000E+00 0. -1.
         -1   -1    0    0    0  501 -0.00000000000E+00 -0.00000000000E+00 -0.39827292988E+02  0.39827292988E+02  0.00000000000E+00 0.  1.
        -13    1    1    2    0    0 -0.91057349491E+01 -0.46250737115E+01 -0.22196430412E+02  0.24433322305E+02  0.00000000000E+00 0.  1.
         13    1    1    2    0    0  0.91057349491E+01  0.46250737115E+01 -0.14933215381E+02  0.18091617877E+02  0.00000000000E+00 0. -1.
<mgrwt>
<rscale>  0 0.20730652E+02</rscale>
<asrwt>0</asrwt>
<pdfrwt beam="1">  1        1 0.41502266E-03 0.20730652E+02</pdfrwt>
<pdfrwt beam="2">  1       -1 0.61272756E-02 0.20730652E+02</pdfrwt>
<totfact> 0.32966603E+06</totfact>
</mgrwt>
</event>
<event>
 4    1  0.2165211E+000  0.3264565E+02  0.7546771E-02  0.1570560E+00
          2   -1    0    0  501    0  0.00000000000E+00  0.00000000000E+00  0.21343548887E+01  0.21343548887E+01  0.00000000000E+00 0. -1.
         -2   -1    0    0    0  501 -0.00000000000E+00 -0.00000000000E+00 -0.12483148392E+03  0.12483148392E+03  0.00000000000E+00 0.  1.
        -11    1    1    2    0    0  0.14779862029E+02 -0.21732198218E+01 -0.86931025363E+02  0.88205274086E+02  0.00000000000E+00 0.  1.
         11    1    1    2    0    0 -0.14779862029E+02  0.21732198218E+01 -0.35766103667E+02  0.38760564721E+02  0.00000000000E+00 0. -1.
<mgrwt>
<rscale>  0 0.32645654E+02</rscale>
<asrwt>0</asrwt>
<pdfrwt beam="1">  1        2 0.32836222E-03 0.32645654E+02</pdfrwt>
<pdfrwt beam="2">  1       -2 0.19204848E-01 0.32645654E+02</pdfrwt>
<totfact> 0.92386729E+05</totfact>
</mgrwt>
</event>
<event>
 4    1  0.2165211E+000  0.2362521E+02  0.7546771E-02  0.1681572E+00
          1   -1    0    0  501    0  0.00000000000E+00  0.00000000000E+00  0.31095518680E+02  0.31095518680E+02  0.00000000000E+00 0. -1.
         -1   -1    0    0    0  501 -0.00000000000E+00 -0.00000000000E+00 -0.44873858854E+01  0.44873858854E+01  0.00000000000E+00 0.  1.
        -11    1    1    2    0    0 -0.86779336170E+01 -0.71405713017E+01  0.18785118340E+02  0.21890065359E+02  0.00000000000E+00 0. -1.
         11    1    1    2    0    0  0.86779336170E+01  0.71405713017E+01  0.78230144544E+01  0.13692839206E+02  0.00000000000E+00 0.  1.
<mgrwt>
<rscale>  0 0.23625206E+02</rscale>
<asrwt>0</asrwt>
<pdfrwt beam="1">  1        1 0.47839258E-02 0.23625206E+02</pdfrwt>
<pdfrwt beam="2">  1       -1 0.69036708E-03 0.23625206E+02</pdfrwt>
<totfact> 0.27783871E+06</totfact>
</mgrwt>
</event>
<event>
 4    1  0.2165211E+000  0.6194643E+02  0.7546771E-02  0.1389840E+00
          2   -1    0    0  501    0  0.00000000000E+00  0.00000000000E+00  0.13380206261E+02  0.13380206261E+02  0.00000000000E+00 0. -1.
         -2   -1    0    0    0  501 -0.00000000000E+00 -0.00000000000E+00 -0.71698446442E+02  0.71698446442E+02  0.00000000000E+00 0.  1.
        -13    1    1    2    0    0  0.12007147017E+02  0.28130415644E+02 -0.22452069675E+02  0.37941893686E+02  0.00000000000E+00 0. -1.
         13    1    1    2    0    0 -0.12007147017E+02 -0.28130415644E+02 -0.35866170506E+02  0.47136759017E+02  0.00000000000E+00 0.  1.
<mgrwt>
<rscale>  0 0.61946429E+02</rscale>
<asrwt>0</asrwt>
<pdfrwt beam="1">  1        2 0.20584932E-02 0.61946429E+02</pdfrwt>
<pdfrwt beam="2">  1       -2 0.11030530E-01 0.61946429E+02</pdfrwt>
<totfact> 0.22593644E+05</totfact>
</mgrwt>
</event>
<event>
 4    1  0.2165211E+000  0.2828996E+02  0.7546771E-02  0.1617798E+00
         -2   -1    0    0    0  501 -0.00000000000E+00  0.00000000000E+00  0.33380959219E+02  0.33380959219E+02  0.00000000000E+00 0. -1.
          2   -1    0    0  501    0  0.00000000000E+00 -0.00000000000E+00 -0.59938505696E+01  0.59938505696E+01  0.00000000000E+00 0.  1.
        -11    1    1    2    0    0 -0.42962117742E+01  0.10497777508E+02  0.19311755035E+01  0.11506094344E+02  0.00000000000E+00 0.  1.
         11    1    1    2    0    0  0.42962117742E+01 -0.10497777508E+02  0.25455933146E+02  0.27868715445E+02  0.00000000000E+00 0. -1.
<mgrwt>
<rscale>  0 0.28289962E+02</rscale>
<asrwt>0</asrwt>
<pdfrwt beam="2">  1        2 0.92213088E-03 0.28289962E+02</pdfrwt>
<pdfrwt beam="1">  1       -2 0.51355321E-02 0.28289962E+02</pdfrwt>
<totfact> 0.16430582E+06</totfact>
</mgrwt>
</event>
<event>
 4    1  0.2165211E+000  0.2120669E+02  0.7546771E-02  0.1722344E+00
         -3   -1    0    0    0  501 -0.00000000000E+00  0.00000000000E+00  0.15334483121E+02  0.15334483121E+02  0.00000000000E+00 0. -1.
          3   -1    0    0  501    0  0.00000000000E+00 -0.00000000000E+00 -0.73318987863E+01  0.73318987863E+01  0.00000000000E+00 0.  1.
        -13    1    1    2    0    0 -0.70269220390E+01  0.75884874934E+01  0.15019384439E+01  0.10450770061E+02  0.00000000000E+00 0.  1.
         13    1    1    2    0    0  0.70269220390E+01 -0.75884874934E+01  0.65006458907E+01  0.12215611846E+02  0.00000000000E+00 0. -1.
<mgrwt>
<rscale>  0 0.21206686E+02</rscale>
<asrwt>0</asrwt>
<pdfrwt beam="2">  1        3 0.11279844E-02 0.21206686E+02</pdfrwt>
<pdfrwt beam="1">  1       -3 0.23591512E-02 0.21206686E+02</pdfrwt>
<totfact> 0.15595975E+06</totfact>
</mgrwt>
</event>
<event>
 4    1  0.2165211E+000  0.4068751E+02  0.7546771E-02  0.1503212E+00
         -4   -1    0    0    0  501 -0.00000000000E+00  0.00000000000E+00  0.33653446321E+01  0.33653446321E+01  0.00000000000E+00 0. -1.
          4   -1    0    0  501    0  0.00000000000E+00 -0.00000000000E+00 -0.12297946599E+03  0.12297946599E+03  0.00000000000E+00 0.  1.
        -11    1    1    2    0    0  0.72470760184E+01  0.16944860257E+02 -0.33055046876E+02  0.37845535059E+02  0.00000000000E+00 0.  1.
         11    1    1    2    0    0 -0.72470760184E+01 -0.16944860257E+02 -0.86559074479E+02  0.88499275560E+02  0.00000000000E+00 0. -1.
<mgrwt>
<rscale>  0 0.40687506E+02</rscale>
<asrwt>0</asrwt>
<pdfrwt beam="2">  1        4 0.18919922E-01 0.40687506E+02</pdfrwt>
<pdfrwt beam="1">  1       -4 0.51774522E-03 0.40687506E+02</pdfrwt>
<totfact> 0.19266252E+05</totfact>
</mgrwt>
</event>
<event>
 4    1  0.2165211E+000  0.5724660E+02  0.7546771E-02  0.1409764E+00
          2   -1    0    0  501    0  0.00000000000E+00  0.00000000000E+00  0.60629806359E+01  0.60629806359E+01  0.00000000000E+00 0. -1.
         -2   -1    0    0    0  501 -0.00000000000E+00 -0.00000000000E+00 -0.13513045067E+03  0.13513045067E+03  0.00000000000E+00 0.  1.
        -13    1    1    2    0    0 -0.28097049970E+02 -0.52480712264E+01 -0.60787687706E+02  0.67172386032E+02  0.00000000000E+00 0. -1.
         13    1    1    2    0    0  0.28097049970E+02  0.52480712264E+01 -0.68279782324E+02  0.74021045270E+02  0.00000000000E+00 0.  1.
<mgrwt>
<rscale>  0 0.57246600E+02</rscale>
<asrwt>0</asrwt>
<pdfrwt beam="1">  1        2 0.93276626E-03 0.57246600E+02</pdfrwt>
<pdfrwt beam="2">  1       -2 0.20789300E-01 0.57246600E+02</pdfrwt>
<totfact> 0.23248107E+05</totfact>
</mgrwt>
</event>
<event>
 4    1  0.2165211E+000  0.2473592E+02  0.7546771E-02  0.1664824E+00
         -4   -1    0    0    0  501 -0.00000000000E+00  0.00000000000E+00  0.26727900862E+02  0.26727900862E+02  0.00000000000E+00 0.  1.
          4   -1    0    0  501    0  0.00000000000E+00 -0.00000000000E+00 -0.57230971530E+01  0.57230971530E+01  0.00000000000E+00 0. -1.
        -11    1    1    2    0    0  0.99671406546E+01  0.23717721091E+01  0.19591230738E+02  0.22108494241E+02  0.00000000000E+00 0.  1.
         11    1    1    2    0    0 -0.99671406546E+01 -0.23717721091E+01  0.14135729705E+01  0.10342503774E+02  0.00000000000E+00 0. -1.
<mgrwt>
<rscale>  0 0.24735915E+02</rscale>
<asrwt>0</asrwt>
<pdfrwt beam="2">  1        4 0.88047650E-03 0.24735915E+02</pdfrwt>
<pdfrwt beam="1">  1       -4 0.41119847E-02 0.24735915E+02</pdfrwt>
<totfact> 0.78953559E+05</totfact>
</mgrwt>
</event>
<event>
 4    1  0.2165211E+000  0.2807057E+02  0.7546771E-02  0.1620450E+00
         -1   -1    0    0    0  501 -0.00000000000E+00  0.00000000000E+00  0.19865330617E+01  0.19865330617E+01  0.00000000000E+00 0.  1.
          1   -1    0    0  501    0  0.00000000000E+00 -0.00000000000E+00 -0.99162342818E+02  0.99162342818E+02  0.00000000000E+00 0. -1.
        -11    1    1    2    0    0  0.12786127858E+02 -0.41327442492E+01 -0.63191426523E+02  0.64604342165E+02  0.00000000000E+00 0.  1.
         11    1    1    2    0    0 -0.12786127858E+02  0.41327442492E+01 -0.33984383234E+02  0.36544533715E+02  0.00000000000E+00 0. -1.
<mgrwt>
<rscale>  0 0.28070573E+02</rscale>
<asrwt>0</asrwt>
<pdfrwt beam="2">  1        1 0.15255741E-01 0.28070573E+02</pdfrwt>
<pdfrwt beam="1">  1       -1 0.30562055E-03 0.28070573E+02</pdfrwt>
<totfact> 0.20522160E+06</totfact>
</mgrwt>
</event>
<event>
 4    1  0.2165211E+000  0.2435956E+02  0.7546771E-02  0.1670375E+00
          1   -1    0    0  501    0  0.00000000000E+00  0.00000000000E+00  0.90139645429E+01  0.90139645429E+01  0.00000000000E+00 0. -1.
         -1   -1    0    0    0  501 -0.00000000000E+00 -0.00000000000E+00 -0.16457468472E+02  0.16457468472E+02  0.00000000000E+00 0.  1.
        -13    1    1    2    0    0 -0.10483566415E+02 -0.81545111660E-01  0.27608394033E+01  0.10841312125E+02  0.00000000000E+00 0. -1.
         13    1    1    2    0    0  0.10483566415E+02  0.81545111660E-01 -0.10204343332E+02  0.14630120889E+02  0.00000000000E+00 0.  1.
<mgrwt>
<rscale>  0 0.24359560E+02</rscale>
<asrwt>0</asrwt>
<pdfrwt beam="1">  1        1 0.13867638E-02 0.24359560E+02</pdfrwt>
<pdfrwt beam="2">  1       -1 0.25319182E-02 0.24359560E+02</pdfrwt>
<totfact> 0.24356554E+06</totfact>
</mgrwt>
</event>
<event>
 4    1  0.2165211E+000  0.5987726E+02  0.7546771E-02  0.1398348E+00
          2   -1    0    0  501    0  0.00000000000E+00  0.00000000000E+00  0.83500980470E+02  0.83500980470E+02  0.00000000000E+00 0. -1.
         -2   -1    0    0    0  501 -0.00000000000E+00 -0.00000000000E+00 -0.10734265079E+02  0.10734265079E+02  0.00000000000E+00 0.  1.
        -13    1    1    2    0    0  0.11876528745E+02  0.12340913658E+02  0.75028939032E+02  0.76959026613E+02  0.00000000000E+00 0. -1.
         13    1    1    2    0    0 -0.11876528745E+02 -0.12340913658E+02 -0.22622236410E+01  0.17276218936E+02  0.00000000000E+00 0.  1.
<mgrwt>
<rscale>  0 0.59877263E+02</rscale>
<asrwt>0</asrwt>
<pdfrwt beam="1">  1        2 0.12846304E-01 0.59877263E+02</pdfrwt>
<pdfrwt beam="2">  1       -2 0.16514255E-02 0.59877263E+02</pdfrwt>
<totfact> 0.35988133E+05</totfact>
</mgrwt>
</event>
<event>
 4    1  0.2165211E+000  0.6479158E+02  0.7546771E-02  0.1378757E+00
         -2   -1    0    0    0  501 -0.00000000000E+00  0.00000000000E+00  0.17342588110E+03  0.17342588110E+03  0.00000000000E+00 0. -1.
          2   -1    0    0  501    0  0.00000000000E+00 -0.00000000000E+00 -0.60515035850E+01  0.60515035850E+01  0.00000000000E+00 0.  1.
        -13    1    1    2    0    0  0.17995595281E+02  0.23449511783E+02  0.46962432165E+02  0.55490459425E+02  0.00000000000E+00 0.  1.
         13    1    1    2    0    0 -0.17995595281E+02 -0.23449511783E+02  0.12041194535E+03  0.12398692526E+03  0.00000000000E+00 0. -1.
<mgrwt>
<rscale>  0 0.64791584E+02</rscale>
<asrwt>0</asrwt>
<pdfrwt beam="2">  1        2 0.93100068E-03 0.64791584E+02</pdfrwt>
<pdfrwt beam="1">  1       -2 0.26680901E-01 0.64791584E+02</pdfrwt>
<totfact> 0.15673224E+05</totfact>
</mgrwt>
</event>
<event>
 4    1  0.2165211E+000  0.4698240E+02  0.7546771E-02  0.1462332E+00
          1   -1    0    0  501    0  0.00000000000E+00  0.00000000000E+00  0.37715152662E+01  0.37715152662E+01  0.00000000000E+00 0.  1.
         -1   -1    0    0    0  501 -0.00000000000E+00 -0.00000000000E+00 -0.14631689034E+03  0.14631689034E+03  0.00000000000E+00 0. -1.
        -13    1    1    2    0    0 -0.19933866238E+02 -0.37002782404E+01 -0.33368198844E+02  0.39044689477E+02  0.00000000000E+00 0.  1.
         13    1    1    2    0    0  0.19933866238E+02  0.37002782404E+01 -0.10917717623E+03  0.11104371613E+03  0.00000000000E+00 0. -1.
<mgrwt>
<rscale>  0 0.46982396E+02</rscale>
<asrwt>0</asrwt>
<pdfrwt beam="1">  1        1 0.58023316E-03 0.46982396E+02</pdfrwt>
<pdfrwt beam="2">  1       -1 0.22510289E-01 0.46982396E+02</pdfrwt>
<totfact> 0.40369534E+05</totfact>
</mgrwt>
</event>
<event>
 4    1  0.2165211E+000  0.2955649E+02  0.7546771E-02  0.1603043E+00
          1   -1    0    0  501    0  0.00000000000E+00  0.00000000000E+00  0.52494953613E+02  0.52494953613E+02  0.00000000000E+00 0.  1.
         -1   -1    0    0    0  501 -0.00000000000E+00 -0.00000000000E+00 -0.41603334569E+01  0.41603334569E+01  0.00000000000E+00 0. -1.
        -13    1    1    2    0    0  0.11573331665E+02 -0.11069410787E+01  0.66799026984E+01  0.13408520591E+02  0.00000000000E+00 0. -1.
         13    1    1    2    0    0 -0.11573331665E+02  0.11069410787E+01  0.41654717458E+02  0.43246766479E+02  0.00000000000E+00 0.  1.
<mgrwt>
<rscale>  0 0.29556489E+02</rscale>
<asrwt>0</asrwt>
<pdfrwt beam="1">  1        1 0.80761463E-02 0.29556489E+02</pdfrwt>
<pdfrwt beam="2">  1       -1 0.64005134E-03 0.29556489E+02</pdfrwt>
<totfact> 0.17072849E+06</totfact>
</mgrwt>
</event>
<event>
 4    1  0.2165211E+000  0.2490143E+02  0.7546771E-02  0.1662422E+00
          4   -1    0    0  501    0  0.00000000000E+00  0.00000000000E+00  0.67024029045E+01  0.67024029045E+01  0.00000000000E+00 0. -1.
         -4   -1    0    0    0  501 -0.00000000000E+00 -0.00000000000E+00 -0.23129056137E+02  0.23129056137E+02  0.00000000000E+00 0.  1.
        -13    1    1    2    0    0  0.52383302022E+01  0.10254562844E+02 -0.25403930425E+01  0.11791936196E+02  0.00000000000E+00 0. -1.
         13    1    1    2    0    0 -0.52383302022E+01 -0.10254562844E+02 -0.13886260190E+02  0.18039522846E+02  0.00000000000E+00 0.  1.
<mgrwt>
<rscale>  0 0.24901426E+02</rscale>
<asrwt>0</asrwt>
<pdfrwt beam="1">  1        4 0.10311389E-02 0.24901426E+02</pdfrwt>
<pdfrwt beam="2">  1       -4 0.35583164E-02 0.24901426E+02</pdfrwt>
<totfact> 0.78636176E+05</totfact>
</mgrwt>
</event>
<event>
 4    1  0.2165211E+000  0.2544971E+02  0.7546771E-02  0.1654625E+00
         -4   -1    0    0    0  501 -0.00000000000E+00  0.00000000000E+00  0.36490543566E+02  0.36490543566E+02  0.00000000000E+00 0. -1.
          4   -1    0    0  501    0  0.00000000000E+00 -0.00000000000E+00 -0.44373673801E+01  0.44373673801E+01  0.00000000000E+00 0.  1.
        -13    1    1    2    0    0 -0.82173597878E+01  0.91286631019E+01  0.10677229010E+02  0.16274541813E+02  0.00000000000E+00 0.  1.
         13    1    1    2    0    0  0.82173597878E+01 -0.91286631019E+01  0.21375947176E+02  0.24653369132E+02  0.00000000000E+00 0. -1.
<mgrwt>
<rscale>  0 0.25449711E+02</rscale>
<asrwt>0</asrwt>
<pdfrwt beam="2">  1        4 0.68267193E-03 0.25449711E+02</pdfrwt>
<pdfrwt beam="1">  1       -4 0.56139296E-02 0.25449711E+02</pdfrwt>
<totfact> 0.71869287E+05</totfact>
</mgrwt>
</event>
<event>
 4    1  0.2165211E+000  0.2575890E+02  0.7546771E-02  0.1650335E+00
          2   -1    0    0  501    0  0.00000000000E+00  0.00000000000E+00  0.95246635436E+02  0.95246635436E+02  0.00000000000E+00 0. -1.
         -2   -1    0    0    0  501 -0.00000000000E+00 -0.00000000000E+00 -0.17415860928E+01  0.17415860928E+01  0.00000000000E+00 0.  1.
        -13    1    1    2    0    0  0.11439257564E+02  0.50529867203E+01  0.58352205156E+02  0.59677207835E+02  0.00000000000E+00 0. -1.
         13    1    1    2    0    0 -0.11439257564E+02 -0.50529867203E+01  0.35152844187E+02  0.37311013694E+02  0.00000000000E+00 0.  1.
<mgrwt>
<rscale>  0 0.25758899E+02</rscale>
<asrwt>0</asrwt>
<pdfrwt beam="1">  1        2 0.14653324E-01 0.25758899E+02</pdfrwt>
<pdfrwt beam="2">  1       -2 0.26793640E-03 0.25758899E+02</pdfrwt>
<totfact> 0.29475357E+06</totfact>
</mgrwt>
</event>
<event>
 4    1  0.2165211E+000  0.4641133E+02  0.7546771E-02  0.1465719E+00
          4   -1    0    0  501    0  0.00000000000E+00  0.00000000000E+00  0.14381223774E+03  0.14381223774E+03  0.00000000000E+00 0. -1.
         -4   -1    0    0    0  501 -0.00000000000E+00 -0.00000000000E+00 -0.37444858189E+01  0.37444858189E+01  0.00000000000E+00 0.  1.
        -11    1    1    2    0    0  0.21023895212E+02  0.97961436670E+01  0.72357795883E+02  0.75984335396E+02  0.00000000000E+00 0.  1.
         11    1    1    2    0    0 -0.21023895212E+02 -0.97961436670E+01  0.67709956043E+02  0.71572388168E+02  0.00000000000E+00 0. -1.
<mgrwt>
<rscale>  0 0.46411330E+02</rscale>
<asrwt>0</asrwt>
<pdfrwt beam="1">  1        4 0.22124955E-01 0.46411330E+02</pdfrwt>
<pdfrwt beam="2">  1       -4 0.57607485E-03 0.46411330E+02</pdfrwt>
<totfact> 0.13368109E+05</totfact>
</mgrwt>
</event>
<event>
 4    1  0.2165211E+000  0.4469807E+02  0.7546771E-02  0.1476235E+00
          4   -1    0    0  501    0  0.00000000000E+00  0.00000000000E+00  0.49574779110E+02  0.49574779110E+02  0.00000000000E+00 0. -1.
         -4   -1    0    0    0  501 -0.00000000000E+00 -0.00000000000E+00 -0.10075269535E+02  0.10075269535E+02  0.00000000000E+00 0.  1.
        -13    1    1    2    0    0  0.10018680108E+02 -0.12507554642E+01  0.46357801599E+02  0.47444537192E+02  0.00000000000E+00 0. -1.
         13    1    1    2    0    0 -0.10018680108E+02  0.12507554642E+01 -0.68582920237E+01  0.12205511452E+02  0.00000000000E+00 0.  1.
<mgrwt>
<rscale>  0 0.44698065E+02</rscale>
<asrwt>0</asrwt>
<pdfrwt beam="1">  1        4 0.76268890E-02 0.44698065E+02</pdfrwt>
<pdfrwt beam="2">  1       -4 0.15500415E-02 0.44698065E+02</pdfrwt>
<totfact> 0.18440076E+05</totfact>
</mgrwt>
</event>
<event>
 4    1  0.2165211E+000  0.2157447E+02  0.7546771E-02  0.1715717E+00
         -2   -1    0    0    0  501 -0.00000000000E+00  0.00000000000E+00  0.27339528509E+01  0.27339528509E+01  0.00000000000E+00 0. -1.
          2   -1    0    0  501    0  0.00000000000E+00 -0.00000000000E+00 -0.42562692438E+02  0.42562692438E+02  0.00000000000E+00 0.  1.
        -11    1    1    2    0    0 -0.86202474376E+01  0.61059052916E+01 -0.15327132263E+02  0.18614825508E+02  0.00000000000E+00 0.  1.
         11    1    1    2    0    0  0.86202474376E+01 -0.61059052916E+01 -0.24501607325E+02  0.26681819781E+02  0.00000000000E+00 0. -1.
<mgrwt>
<rscale>  0 0.21574466E+02</rscale>
<asrwt>0</asrwt>
<pdfrwt beam="2">  1        2 0.65481061E-02 0.21574466E+02</pdfrwt>
<pdfrwt beam="1">  1       -2 0.42060816E-03 0.21574466E+02</pdfrwt>
<totfact> 0.38176789E+06</totfact>
</mgrwt>
</event>
<event>
 4    1  0.2165211E+000  0.3483882E+02  0.7546771E-02  0.1550037E+00
         -4   -1    0    0    0  501 -0.00000000000E+00  0.00000000000E+00  0.12741250705E+02  0.12741250705E+02  0.00000000000E+00 0.  1.
          4   -1    0    0  501    0  0.00000000000E+00 -0.00000000000E+00 -0.23815230632E+02  0.23815230632E+02  0.00000000000E+00 0. -1.
        -13    1    1    2    0    0  0.98020676015E+01 -0.52496918265E+01 -0.19606890087E+02  0.22540406660E+02  0.00000000000E+00 0. -1.
         13    1    1    2    0    0 -0.98020676015E+01  0.52496918265E+01  0.85329101595E+01  0.14016074676E+02  0.00000000000E+00 0.  1.
<mgrwt>
<rscale>  0 0.34838819E+02</rscale>
<asrwt>0</asrwt>
<pdfrwt beam="2">  1        4 0.36638816E-02 0.34838819E+02</pdfrwt>
<pdfrwt beam="1">  1       -4 0.19601924E-02 0.34838819E+02</pdfrwt>
<totfact> 0.36019398E+05</totfact>
</mgrwt>
</event>
<event>
 4    1  0.2165211E+000  0.2102961E+02  0.7546771E-02  0.1725596E+00
          4   -1    0    0  501    0  0.00000000000E+00  0.00000000000E+00  0.14331487765E+01  0.14331487765E+01  0.00000000000E+00 0.  1.
         -4   -1    0    0    0  501 -0.00000000000E+00 -0.00000000000E+00 -0.77145610318E+02  0.77145610318E+02  0.00000000000E+00 0. -1.
        -13    1    1    2    0    0  0.76993292097E+01 -0.66448834083E+01 -0.27880906209E+02  0.29677922380E+02  0.00000000000E+00 0.  1.
         13    1    1    2    0    0 -0.76993292097E+01  0.66448834083E+01 -0.47831555333E+02  0.48900836714E+02  0.00000000000E+00 0. -1.
<mgrwt>
<rscale>  0 0.21029611E+02</rscale>
<asrwt>0</asrwt>
<pdfrwt beam="1">  1        4 0.22048439E-03 0.21029611E+02</pdfrwt>
<pdfrwt beam="2">  1       -4 0.11868557E-01 0.21029611E+02</pdfrwt>
<totfact> 0.94476395E+05</totfact>
</mgrwt>
</event>
<event>
 4    1  0.2165211E+000  0.3554558E+02  0.7546771E-02  0.1543808E+00
          2   -1    0    0  501    0  0.00000000000E+00  0.00000000000E+00  0.36463571952E+02  0.36463571952E+02  0.00000000000E+00 0.  1.
         -2   -1    0    0    0  501 -0.00000000000E+00 -0.00000000000E+00 -0.86626758868E+01  0.86626758868E+01  0.00000000000E+00 0. -1.
        -11    1    1    2    0    0  0.16891057691E+02 -0.17229735033E+01  0.72314005487E+01  0.18454528482E+02  0.00000000000E+00 0.  1.
         11    1    1    2    0    0 -0.16891057691E+02  0.17229735033E+01  0.20569495516E+02  0.26671719356E+02  0.00000000000E+00 0. -1.
<mgrwt>
<rscale>  0 0.35545582E+02</rscale>
<asrwt>0</asrwt>
<pdfrwt beam="1">  1        2 0.56097802E-02 0.35545582E+02</pdfrwt>
<pdfrwt beam="2">  1       -2 0.13327194E-02 0.35545582E+02</pdfrwt>
<totfact> 0.11489184E+06</totfact>
</mgrwt>
</event>
<event>
 4    1  0.2165211E+000  0.4663255E+02  0.7546771E-02  0.1464400E+00
          3   -1    0    0  501    0  0.00000000000E+00  0.00000000000E+00  0.81444169594E+01  0.81444169594E+01  0.00000000000E+00 0.  1.
         -3   -1    0    0    0  501 -0.00000000000E+00 -0.00000000000E+00 -0.66751092409E+02  0.66751092409E+02  0.00000000000E+00 0. -1.
        -11    1    1    2    0    0  0.52832255609E+01 -0.21692172037E+02 -0.40099470144E+02  0.45895863711E+02  0.00000000000E+00 0. -1.
         11    1    1    2    0    0 -0.52832255609E+01  0.21692172037E+02 -0.18507205306E+02  0.28999645657E+02  0.00000000000E+00 0.  1.
<mgrwt>
<rscale>  0 0.46632552E+02</rscale>
<asrwt>0</asrwt>
<pdfrwt beam="1">  1        3 0.12529873E-02 0.46632552E+02</pdfrwt>
<pdfrwt beam="2">  1       -3 0.10269398E-01 0.46632552E+02</pdfrwt>
<totfact> 0.21109837E+05</totfact>
</mgrwt>
</event>
<event>
 4    1  0.2165211E+000  0.2698718E+02  0.7546771E-02  0.1633997E+00
         -3   -1    0    0    0  501 -0.00000000000E+00  0.00000000000E+00  0.23045584259E+02  0.23045584259E+02  0.00000000000E+00 0. -1.
          3   -1    0    0  501    0  0.00000000000E+00 -0.00000000000E+00 -0.79007301121E+01  0.79007301121E+01  0.00000000000E+00 0.  1.
        -13    1    1    2    0    0  0.11830898685E+02 -0.46293911980E+01  0.12786530364E+02  0.18024893489E+02  0.00000000000E+00 0.  1.
         13    1    1    2    0    0 -0.11830898685E+02  0.46293911980E+01  0.23583237833E+01  0.12921420882E+02  0.00000000000E+00 0. -1.
<mgrwt>
<rscale>  0 0.26987178E+02</rscale>
<asrwt>0</asrwt>
<pdfrwt beam="2">  1        3 0.12154970E-02 0.26987178E+02</pdfrwt>
<pdfrwt beam="1">  1       -3 0.35454745E-02 0.26987178E+02</pdfrwt>
<totfact> 0.88412268E+05</totfact>
</mgrwt>
</event>
<event>
 4    1  0.2165211E+000  0.2682627E+02  0.7546771E-02  0.1636076E+00
          4   -1    0    0  501    0  0.00000000000E+00  0.00000000000E+00  0.15720439356E+01  0.15720439356E+01  0.00000000000E+00 0.  1.
         -4   -1    0    0    0  501 -0.00000000000E+00 -0.00000000000E+00 -0.11444474308E+03  0.11444474308E+03  0.00000000000E+00 0. -1.
        -13    1    1    2    0    0  0.10784812491E+02  0.78700675866E+01 -0.62011783877E+02  0.63432731960E+02  0.00000000000E+00 0.  1.
         13    1    1    2    0    0 -0.10784812491E+02 -0.78700675866E+01 -0.50860915273E+02  0.52584055061E+02  0.00000000000E+00 0. -1.
<mgrwt>
<rscale>  0 0.26826268E+02</rscale>
<asrwt>0</asrwt>
<pdfrwt beam="1">  1        4 0.24185296E-03 0.26826268E+02</pdfrwt>
<pdfrwt beam="2">  1       -4 0.17606880E-01 0.26826268E+02</pdfrwt>
<totfact> 0.50848326E+05</totfact>
</mgrwt>
</event>
<event>
 4    1  0.2165211E+000  0.3442013E+02  0.7546771E-02  0.1553811E+00
          2   -1    0    0  501    0  0.00000000000E+00  0.00000000000E+00  0.91898617107E+02  0.91898617107E+02  0.00000000000E+00 0.  1.
         -2   -1    0    0    0  501 -0.00000000000E+00 -0.00000000000E+00 -0.32229682222E+01  0.32229682222E+01  0.00000000000E+00 0. -1.
        -11    1    1    2    0    0 -0.13737296882E+02 -0.44031320516E+01  0.18400891954E+02  0.23381482463E+02  0.00000000000E+00 0.  1.
         11    1    1    2    0    0  0.13737296882E+02  0.44031320516E+01  0.70274756931E+02  0.71740102866E+02  0.00000000000E+00 0. -1.
<mgrwt>
<rscale>  0 0.34420129E+02</rscale>
<asrwt>0</asrwt>
<pdfrwt beam="1">  1        2 0.14138247E-01 0.34420129E+02</pdfrwt>
<pdfrwt beam="2">  1       -2 0.49584134E-03 0.34420129E+02</pdfrwt>
<totfact> 0.14755965E+06</totfact>
</mgrwt>
</event>
<event>
 4    1  0.2165211E+000  0.3616730E+02  0.7546771E-02  0.1538472E+00
         -2   -1    0    0    0  501 -0.00000000000E+00  0.00000000000E+00  0.45242928916E+01  0.45242928916E+01  0.00000000000E+00 0. -1.
          2   -1    0    0  501    0  0.00000000000E+00 -0.00000000000E+00 -0.72280544545E+02  0.72280544545E+02  0.00000000000E+00 0.  1.
        -13    1    1    2    0    0 -0.47890227032E+01 -0.10690438773E+02 -0.63134364076E+02  0.64211900353E+02  0.00000000000E+00 0.  1.
         13    1    1    2    0    0  0.47890227032E+01  0.10690438773E+02 -0.46218875767E+01  0.12592937083E+02  0.00000000000E+00 0. -1.
<mgrwt>
<rscale>  0 0.36167298E+02</rscale>
<asrwt>0</asrwt>
<pdfrwt beam="2">  1        2 0.11120084E-01 0.36167298E+02</pdfrwt>
<pdfrwt beam="1">  1       -2 0.69604503E-03 0.36167298E+02</pdfrwt>
<totfact> 0.12409294E+06</totfact>
</mgrwt>
</event>
<event>
 4    1  0.2165211E+000  0.2765788E+02  0.7546771E-02  0.1625521E+00
         -4   -1    0    0    0  501 -0.00000000000E+00  0.00000000000E+00  0.78170558226E+01  0.78170558226E+01  0.00000000000E+00 0. -1.
          4   -1    0    0  501    0  0.00000000000E+00 -0.00000000000E+00 -0.24464401895E+02  0.24464401895E+02  0.00000000000E+00 0.  1.
        -11    1    1    2    0    0  0.13264277497E+02 -0.48979970375E-01 -0.37588374387E+01  0.13786671659E+02  0.00000000000E+00 0. -1.
         11    1    1    2    0    0 -0.13264277497E+02  0.48979970375E-01 -0.12888508633E+02  0.18494786058E+02  0.00000000000E+00 0.  1.
<mgrwt>
<rscale>  0 0.27657881E+02</rscale>
<asrwt>0</asrwt>
<pdfrwt beam="2">  1        4 0.37637541E-02 0.27657881E+02</pdfrwt>
<pdfrwt beam="1">  1       -4 0.12026240E-02 0.27657881E+02</pdfrwt>
<totfact> 0.61867261E+05</totfact>
</mgrwt>
</event>
<event>
 4    1  0.2165211E+000  0.2803275E+02  0.7546771E-02  0.1620911E+00
         -2   -1    0    0    0  501 -0.00000000000E+00  0.00000000000E+00  0.63751392338E+01  0.63751392338E+01  0.00000000000E+00 0. -1.
          2   -1    0    0  501    0  0.00000000000E+00 -0.00000000000E+00 -0.30816392633E+02  0.30816392633E+02  0.00000000000E+00 0.  1.
        -13    1    1    2    0    0  0.53802195196E+01 -0.10183351845E+02 -0.16225418498E+01  0.11630995612E+02  0.00000000000E+00 0. -1.
         13    1    1    2    0    0 -0.53802195196E+01  0.10183351845E+02 -0.22818711549E+02  0.25560536255E+02  0.00000000000E+00 0.  1.
<mgrwt>
<rscale>  0 0.28032752E+02</rscale>
<asrwt>0</asrwt>
<pdfrwt beam="2">  1        2 0.47409834E-02 0.28032752E+02</pdfrwt>
<pdfrwt beam="1">  1       -2 0.98079066E-03 0.28032752E+02</pdfrwt>
<totfact> 0.19944352E+06</totfact>
</mgrwt>
</event>
<event>
 4    1  0.2165211E+000  0.6343496E+02  0.7546771E-02  0.1383957E+00
          2   -1    0    0  501    0  0.00000000000E+00  0.00000000000E+00  0.13816777592E+03  0.13816777592E+03  0.00000000000E+00 0.  1.
         -2   -1    0    0    0  501 -0.00000000000E+00 -0.00000000000E+00 -0.72809915350E+01  0.72809915350E+01  0.00000000000E+00 0. -1.
        -11    1    1    2    0    0 -0.12249827766E+02  0.25167726928E+02  0.99646962369E+02  0.10350357418E+03  0.00000000000E+00 0.  1.
         11    1    1    2    0    0  0.12249827766E+02 -0.25167726928E+02  0.31239822011E+02  0.41945193268E+02  0.00000000000E+00 0. -1.
<mgrwt>
<rscale>  0 0.63434956E+02</rscale>
<asrwt>0</asrwt>
<pdfrwt beam="1">  1        2 0.21256579E-01 0.63434956E+02</pdfrwt>
<pdfrwt beam="2">  1       -2 0.11201526E-02 0.63434956E+02</pdfrwt>
<totfact> 0.35654663E+05</totfact>
</mgrwt>
</event>
<event>
 4    1  0.2165211E+000  0.3138355E+02  0.7546771E-02  0.1583280E+00
         -2   -1    0    0    0  501 -0.00000000000E+00  0.00000000000E+00  0.81104775997E+02  0.81104775997E+02  0.00000000000E+00 0. -1.
          2   -1    0    0  501    0  0.00000000000E+00 -0.00000000000E+00 -0.30359713845E+01  0.30359713845E+01  0.00000000000E+00 0.  1.
        -11    1    1    2    0    0  0.19441357427E+01  0.14470432147E+02  0.54449534785E+02  0.56373086740E+02  0.00000000000E+00 0. -1.
         11    1    1    2    0    0 -0.19441357427E+01 -0.14470432147E+02  0.23619269828E+02  0.27767660642E+02  0.00000000000E+00 0.  1.
<mgrwt>
<rscale>  0 0.31383548E+02</rscale>
<asrwt>0</asrwt>
<pdfrwt beam="2">  1        2 0.46707258E-03 0.31383548E+02</pdfrwt>
<pdfrwt beam="1">  1       -2 0.12477656E-01 0.31383548E+02</pdfrwt>
<totfact> 0.11258634E+06</totfact>
</mgrwt>
</event>
<event>
 4    1  0.2165211E+000  0.4660317E+02  0.7546771E-02  0.1464575E+00
          4   -1    0    0  501    0  0.00000000000E+00  0.00000000000E+00  0.79270383396E+01  0.79270383396E+01  0.00000000000E+00 0. -1.
         -4   -1    0    0    0  501 -0.00000000000E+00 -0.00000000000E+00 -0.68495162008E+02  0.68495162008E+02  0.00000000000E+00 0.  1.
        -13    1    1    2    0    0 -0.20549567625E+02  0.86990011597E+01 -0.19282828643E+02  0.29492114730E+02  0.00000000000E+00 0. -1.
         13    1    1    2    0    0  0.20549567625E+02 -0.86990011597E+01 -0.41285295026E+02  0.46930085618E+02  0.00000000000E+00 0.  1.
<mgrwt>
<rscale>  0 0.46603166E+02</rscale>
<asrwt>0</asrwt>
<pdfrwt beam="1">  1        4 0.12195444E-02 0.46603166E+02</pdfrwt>
<pdfrwt beam="2">  1       -4 0.10537717E-01 0.46603166E+02</pdfrwt>
<totfact> 0.15858061E+05</totfact>
</mgrwt>
</event>
<event>
 4    1  0.2165211E+000  0.2262181E+02  0.7546771E-02  0.1697715E+00
         -4   -1    0    0    0  501 -0.00000000000E+00  0.00000000000E+00  0.35620772113E+02  0.35620772113E+02  0.00000000000E+00 0. -1.
          4   -1    0    0  501    0  0.00000000000E+00 -0.00000000000E+00 -0.35916297241E+01  0.35916297241E+01  0.00000000000E+00 0.  1.
        -13    1    1    2    0    0  0.84582416173E+01 -0.62003912054E+01  0.23358480136E+02  0.25604790501E+02  0.00000000000E+00 0. -1.
         13    1    1    2    0    0 -0.84582416173E+01  0.62003912054E+01  0.86706622528E+01  0.13607611336E+02  0.00000000000E+00 0.  1.
<mgrwt>
<rscale>  0 0.22621815E+02</rscale>
<asrwt>0</asrwt>
<pdfrwt beam="2">  1        4 0.55255844E-03 0.22621815E+02</pdfrwt>
<pdfrwt beam="1">  1       -4 0.54801185E-02 0.22621815E+02</pdfrwt>
<totfact> 0.93013332E+05</totfact>
</mgrwt>
</event>
<event>
 4    1  0.2165211E+000  0.2306800E+02  0.7546771E-02  0.1690410E+00
          2   -1    0    0  501    0  0.00000000000E+00  0.00000000000E+00  0.60835137016E+02  0.60835137016E+02  0.00000000000E+00 0.  1.
         -2   -1    0    0    0  501 -0.00000000000E+00 -0.00000000000E+00 -0.21867823977E+01  0.21867823977E+01  0.00000000000E+00 0. -1.
        -11    1    1    2    0    0 -0.50187933975E+01 -0.10381348311E+02  0.28588425944E+02  0.30826267661E+02  0.00000000000E+00 0. -1.
         11    1    1    2    0    0  0.50187933975E+01  0.10381348311E+02  0.30059928674E+02  0.32195651753E+02  0.00000000000E+00 0.  1.
<mgrwt>
<rscale>  0 0.23068004E+02</rscale>
<asrwt>0</asrwt>
<pdfrwt beam="1">  1        2 0.93592506E-02 0.23068004E+02</pdfrwt>
<pdfrwt beam="2">  1       -2 0.33642811E-03 0.23068004E+02</pdfrwt>
<totfact> 0.34674471E+06</totfact>
</mgrwt>
</event>
<event>
 4    1  0.2165211E+000  0.5404184E+02  0.7546771E-02  0.1424685E+00
          2   -1    0    0  501    0  0.00000000000E+00  0.00000000000E+00  0.70275623853E+02  0.70275623853E+02  0.00000000000E+00 0.  1.
         -2   -1    0    0    0  501 -0.00000000000E+00 -0.00000000000E+00 -0.10389522666E+02  0.10389522666E+02  0.00000000000E+00 0. -1.
        -11    1    1    2    0    0  0.16626153672E+02  0.14861716596E+02  0.52718963309E+02  0.57241494552E+02  0.00000000000E+00 0.  1.
         11    1    1    2    0    0 -0.16626153672E+02 -0.14861716596E+02  0.71671378783E+01  0.23423651967E+02  0.00000000000E+00 0. -1.
<mgrwt>
<rscale>  0 0.54041843E+02</rscale>
<asrwt>0</asrwt>
<pdfrwt beam="1">  1        2 0.10811634E-01 0.54041843E+02</pdfrwt>
<pdfrwt beam="2">  1       -2 0.15983881E-02 0.54041843E+02</pdfrwt>
<totfact> 0.45060396E+05</totfact>
</mgrwt>
</event>
<event>
 4    1  0.2165211E+000  0.2398708E+02  0.7546771E-02  0.1675992E+00
          2   -1    0    0  501    0  0.00000000000E+00  0.00000000000E+00  0.72949197122E+01  0.72949197122E+01  0.00000000000E+00 0. -1.
         -2   -1    0    0    0  501 -0.00000000000E+00 -0.00000000000E+00 -0.19718511413E+02  0.19718511413E+02  0.00000000000E+00 0.  1.
        -13    1    1    2    0    0 -0.10144331281E+02 -0.12181219919E+00 -0.13415972819E+02  0.16819947147E+02  0.00000000000E+00 0.  1.
         13    1    1    2    0    0  0.10144331281E+02  0.12181219919E+00  0.99238111759E+00  0.10193483979E+02  0.00000000000E+00 0. -1.
<mgrwt>
<rscale>  0 0.23987076E+02</rscale>
<asrwt>0</asrwt>
<pdfrwt beam="1">  1        2 0.11222954E-02 0.23987076E+02</pdfrwt>
<pdfrwt beam="2">  1       -2 0.30336171E-02 0.23987076E+02</pdfrwt>
<totfact> 0.25141522E+06</totfact>
</mgrwt>
</event>
<event>
 4    1  0.2165211E+000  0.3634951E+02  0.7546771E-02  0.1536933E+00
         -2   -1    0    0    0  501 -0.00000000000E+00  0.00000000000E+00  0.70476154663E+01  0.70476154663E+01  0.00000000000E+00 0.  1.
          2   -1    0    0  501    0  0.00000000000E+00 -0.00000000000E+00 -0.46870006585E+02  0.46870006585E+02  0.00000000000E+00 0. -1.
        -11    1    1    2    0    0 -0.11786063121E+02  0.11283880059E+02 -0.31785516901E+02  0.35728928303E+02  0.00000000000E+00 0. -1.
         11    1    1    2    0    0  0.11786063121E+02 -0.11283880059E+02 -0.80368742184E+01  0.18188693748E+02  0.00000000000E+00 0.  1.
<mgrwt>
<rscale>  0 0.36349514E+02</rscale>
<asrwt>0</asrwt>
<pdfrwt beam="2">  1        2 0.72107705E-02 0.36349514E+02</pdfrwt>
<pdfrwt beam="1">  1       -2 0.10842485E-02 0.36349514E+02</pdfrwt>
<totfact> 0.11306278E+06</totfact>
</mgrwt>
</event>
<event>
 4    1  0.2165211E+000  0.3983753E+02  0.7546771E-02  0.1509410E+00
         -3   -1    0    0    0  501 -0.00000000000E+00  0.00000000000E+00  0.77387945994E+02  0.77387945994E+02  0.00000000000E+00 0.  1.
          3   -1    0    0  501    0  0.00000000000E+00 -0.00000000000E+00 -0.51268615801E+01  0.51268615801E+01  0.00000000000E+00 0. -1.
        -11    1    1    2    0    0 -0.10734562619E+02 -0.10575607373E+02  0.91495086304E+01  0.17629175083E+02  0.00000000000E+00 0. -1.
         11    1    1    2    0    0  0.10734562619E+02  0.10575607373E+02  0.63111575784E+02  0.64885632492E+02  0.00000000000E+00 0.  1.
<mgrwt>
<rscale>  0 0.39837534E+02</rscale>
<asrwt>0</asrwt>
<pdfrwt beam="2">  1        3 0.78874799E-03 0.39837534E+02</pdfrwt>
<pdfrwt beam="1">  1       -3 0.11905837E-01 0.39837534E+02</pdfrwt>
<totfact> 0.30516494E+05</totfact>
</mgrwt>
</event>
<event>
 4    1  0.2165211E+000  0.1494358E+03  0.7546771E-02  0.1201168E+00
         -1   -1    0    0    0  501 -0.00000000000E+00  0.00000000000E+00  0.70849826559E+02  0.70849826559E+02  0.00000000000E+00 0. -1.
          1   -1    0    0  501    0  0.00000000000E+00 -0.00000000000E+00 -0.78797136103E+02  0.78797136103E+02  0.00000000000E+00 0.  1.
        -13    1    1    2    0    0  0.30350715848E+02 -0.61388350615E+02  0.25952818103E+02  0.73234174477E+02  0.00000000000E+00 0. -1.
         13    1    1    2    0    0 -0.30350715848E+02  0.61388350615E+02 -0.33900127648E+02  0.76412788186E+02  0.00000000000E+00 0.  1.
<mgrwt>
<rscale>  0 0.14943578E+03</rscale>
<asrwt>0</asrwt>
<pdfrwt beam="2">  1        1 0.12122636E-01 0.14943578E+03</pdfrwt>
<pdfrwt beam="1">  1       -1 0.10899973E-01 0.14943578E+03</pdfrwt>
<totfact> 0.24543056E+04</totfact>
</mgrwt>
</event>
<event>
 4    1  0.2165211E+000  0.2237617E+02  0.7546771E-02  0.1701826E+00
          2   -1    0    0  501    0  0.00000000000E+00  0.00000000000E+00  0.27231579698E+02  0.27231579698E+02  0.00000000000E+00 0. -1.
         -2   -1    0    0    0  501 -0.00000000000E+00 -0.00000000000E+00 -0.45966206204E+01  0.45966206204E+01  0.00000000000E+00 0.  1.
        -11    1    1    2    0    0 -0.47568076289E+00 -0.10211730116E+02  0.17784000606E+02  0.20512834560E+02  0.00000000000E+00 0. -1.
         11    1    1    2    0    0  0.47568076289E+00  0.10211730116E+02  0.48509584714E+01  0.11315365758E+02  0.00000000000E+00 0.  1.
<mgrwt>
<rscale>  0 0.22376170E+02</rscale>
<asrwt>0</asrwt>
<pdfrwt beam="1">  1        2 0.41894737E-02 0.22376170E+02</pdfrwt>
<pdfrwt beam="2">  1       -2 0.70717242E-03 0.22376170E+02</pdfrwt>
<totfact> 0.33271581E+06</totfact>
</mgrwt>
</event>
<event>
 4    1  0.2165211E+000  0.2304210E+02  0.7546771E-02  0.1690829E+00
         -2   -1    0    0    0  501 -0.00000000000E+00  0.00000000000E+00  0.13352720368E+01  0.13352720368E+01  0.00000000000E+00 0. -1.
          2   -1    0    0  501    0  0.00000000000E+00 -0.00000000000E+00 -0.99406412930E+02  0.99406412930E+02  0.00000000000E+00 0.  1.
        -13    1    1    2    0    0 -0.89112244015E+01 -0.70422746968E+01 -0.40590511527E+02  0.42149652184E+02  0.00000000000E+00 0. -1.
         13    1    1    2    0    0  0.89112244015E+01  0.70422746968E+01 -0.57480629367E+02  0.58592032783E+02  0.00000000000E+00 0.  1.
<mgrwt>
<rscale>  0 0.23042101E+02</rscale>
<asrwt>0</asrwt>
<pdfrwt beam="2">  1        2 0.15293296E-01 0.23042101E+02</pdfrwt>
<pdfrwt beam="1">  1       -2 0.20542644E-03 0.23042101E+02</pdfrwt>
<totfact> 0.38396619E+06</totfact>
</mgrwt>
</event>
<event>
 4    1  0.2165211E+000  0.3092129E+02  0.7546771E-02  0.1588123E+00
          2   -1    0    0  501    0  0.00000000000E+00  0.00000000000E+00  0.15022185475E+02  0.15022185475E+02  0.00000000000E+00 0. -1.
         -2   -1    0    0    0  501 -0.00000000000E+00 -0.00000000000E+00 -0.15911897330E+02  0.15911897330E+02  0.00000000000E+00 0.  1.
        -11    1    1    2    0    0  0.32541713079E+01 -0.11745837415E+02 -0.99607401467E+01  0.15740732885E+02  0.00000000000E+00 0.  1.
         11    1    1    2    0    0 -0.32541713079E+01  0.11745837415E+02  0.90710282918E+01  0.15193349919E+02  0.00000000000E+00 0. -1.
<mgrwt>
<rscale>  0 0.30921285E+02</rscale>
<asrwt>0</asrwt>
<pdfrwt beam="1">  1        2 0.23111055E-02 0.30921285E+02</pdfrwt>
<pdfrwt beam="2">  1       -2 0.24479842E-02 0.30921285E+02</pdfrwt>
<totfact> 0.14537750E+06</totfact>
</mgrwt>
</event>
<event>
 4    1  0.2165211E+000  0.3003554E+02  0.7546771E-02  0.1597696E+00
          2   -1    0    0  501    0  0.00000000000E+00  0.00000000000E+00  0.10413080554E+03  0.10413080554E+03  0.00000000000E+00 0.  1.
         -2   -1    0    0    0  501 -0.00000000000E+00 -0.00000000000E+00 -0.21658669274E+01  0.21658669274E+01  0.00000000000E+00 0. -1.
        -11    1    1    2    0    0 -0.14601921502E+02  0.34527333831E+01  0.53209496143E+02  0.55284608700E+02  0.00000000000E+00 0. -1.
         11    1    1    2    0    0  0.14601921502E+02 -0.34527333831E+01  0.48755442473E+02  0.51012063770E+02  0.00000000000E+00 0.  1.
<mgrwt>
<rscale>  0 0.30035543E+02</rscale>
<asrwt>0</asrwt>
<pdfrwt beam="1">  1        2 0.16020120E-01 0.30035543E+02</pdfrwt>
<pdfrwt beam="2">  1       -2 0.33321038E-03 0.30035543E+02</pdfrwt>
<totfact> 0.21042393E+06</totfact>
</mgrwt>
</event>
<event>
 4    1  0.2165211E+000  0.5201790E+02  0.7546771E-02  0.1434752E+00
          2   -1    0    0  501    0  0.00000000000E+00  0.00000000000E+00  0.21893951649E+02  0.21893951649E+02  0.00000000000E+00 0. -1.
         -2   -1    0    0    0  501 -0.00000000000E+00 -0.00000000000E+00 -0.30897368964E+02  0.30897368964E+02  0.00000000000E+00 0.  1.
        -11    1    1    2    0    0 -0.16069304677E+02 -0.66329205707E+01  0.15131399085E+02  0.23047286746E+02  0.00000000000E+00 0. -1.
         11    1    1    2    0    0  0.16069304677E+02  0.66329205707E+01 -0.24134816400E+02  0.29744033868E+02  0.00000000000E+00 0.  1.
<mgrwt>
<rscale>  0 0.52017901E+02</rscale>
<asrwt>0</asrwt>
<pdfrwt beam="1">  1        2 0.33683002E-02 0.52017901E+02</pdfrwt>
<pdfrwt beam="2">  1       -2 0.47534414E-02 0.52017901E+02</pdfrwt>
<totfact> 0.40196217E+05</totfact>
</mgrwt>
</event>
<event>
 4    1  0.2165211E+000  0.3017501E+02  0.7546771E-02  0.1596162E+00
         -2   -1    0    0    0  501 -0.00000000000E+00  0.00000000000E+00  0.63424008927E+02  0.63424008927E+02  0.00000000000E+00 0. -1.
          2   -1    0    0  501    0  0.00000000000E+00 -0.00000000000E+00 -0.35890640326E+01  0.35890640326E+01  0.00000000000E+00 0.  1.
        -11    1    1    2    0    0 -0.13368591717E+02  0.69231494092E+01  0.27714959445E+02  0.31539946405E+02  0.00000000000E+00 0.  1.
         11    1    1    2    0    0  0.13368591717E+02 -0.69231494092E+01  0.32119985449E+02  0.35473126554E+02  0.00000000000E+00 0. -1.
<mgrwt>
<rscale>  0 0.30175011E+02</rscale>
<asrwt>0</asrwt>
<pdfrwt beam="2">  1        2 0.55216374E-03 0.30175011E+02</pdfrwt>
<pdfrwt beam="1">  1       -2 0.97575390E-02 0.30175011E+02</pdfrwt>
<totfact> 0.12925458E+06</totfact>
</mgrwt>
</event>
<event>
 4    1  0.2165211E+000  0.3935935E+02  0.7546771E-02  0.1512980E+00
          2   -1    0    0  501    0  0.00000000000E+00  0.00000000000E+00  0.17679081073E+02  0.17679081073E+02  0.00000000000E+00 0. -1.
         -2   -1    0    0    0  501 -0.00000000000E+00 -0.00000000000E+00 -0.21906664640E+02  0.21906664640E+02  0.00000000000E+00 0.  1.
        -11    1    1    2    0    0 -0.43879049096E+01 -0.18209596891E+02  0.39580326203E+01  0.19144428710E+02  0.00000000000E+00 0. -1.
         11    1    1    2    0    0  0.43879049096E+01  0.18209596891E+02 -0.81856161873E+01  0.20441317002E+02  0.00000000000E+00 0.  1.
<mgrwt>
<rscale>  0 0.39359355E+02</rscale>
<asrwt>0</asrwt>
<pdfrwt beam="1">  1        2 0.27198586E-02 0.39359355E+02</pdfrwt>
<pdfrwt beam="2">  1       -2 0.33702561E-02 0.39359355E+02</pdfrwt>
<totfact> 0.80853417E+05</totfact>
</mgrwt>
</event>
<event>
 4    1  0.2165211E+000  0.2435330E+02  0.7546771E-02  0.1670468E+00
          2   -1    0    0  501    0  0.00000000000E+00  0.00000000000E+00  0.86145616499E+01  0.86145616499E+01  0.00000000000E+00 0.  1.
         -2   -1    0    0    0  501 -0.00000000000E+00 -0.00000000000E+00 -0.17211653733E+02  0.17211653733E+02  0.00000000000E+00 0. -1.
        -13    1    1    2    0    0 -0.10746532726E+02 -0.56580998057E+01 -0.33687073206E+01  0.12603580764E+02  0.00000000000E+00 0. -1.
         13    1    1    2    0    0  0.10746532726E+02  0.56580998057E+01 -0.52283847624E+01  0.13222634619E+02  0.00000000000E+00 0.  1.
<mgrwt>
<rscale>  0 0.24353304E+02</rscale>
<asrwt>0</asrwt>
<pdfrwt beam="1">  1        2 0.13253172E-02 0.24353304E+02</pdfrwt>
<pdfrwt beam="2">  1       -2 0.26479467E-02 0.24353304E+02</pdfrwt>
<totfact> 0.24607450E+06</totfact>
</mgrwt>
</event>
<event>
 4    1  0.2165211E+000  0.2065486E+02  0.7546771E-02  0.1732610E+00
          4   -1    0    0  501    0  0.00000000000E+00  0.00000000000E+00  0.31570042689E+01  0.31570042689E+01  0.00000000000E+00 0.  1.
         -4   -1    0    0    0  501 -0.00000000000E+00 -0.00000000000E+00 -0.33783853794E+02  0.33783853794E+02  0.00000000000E+00 0. -1.
        -11    1    1    2    0    0  0.71552996934E+01  0.74093245700E+01 -0.16651045450E+02  0.19579420800E+02  0.00000000000E+00 0.  1.
         11    1    1    2    0    0 -0.71552996934E+01 -0.74093245700E+01 -0.13975804075E+02  0.17361437263E+02  0.00000000000E+00 0. -1.
<mgrwt>
<rscale>  0 0.20654856E+02</rscale>
<asrwt>0</asrwt>
<pdfrwt beam="1">  1        4 0.48569298E-03 0.20654856E+02</pdfrwt>
<pdfrwt beam="2">  1       -4 0.51975158E-02 0.20654856E+02</pdfrwt>
<totfact> 0.11336615E+06</totfact>
</mgrwt>
</event>
<event>
 4    1  0.2165211E+000  0.2037584E+02  0.7546771E-02  0.1737956E+00
         -4   -1    0    0    0  501 -0.00000000000E+00  0.00000000000E+00  0.20579349867E+01  0.20579349867E+01  0.00000000000E+00 0.  1.
          4   -1    0    0  501    0  0.00000000000E+00 -0.00000000000E+00 -0.50435869603E+02  0.50435869603E+02  0.00000000000E+00 0. -1.
        -13    1    1    2    0    0 -0.43677642277E+01 -0.90777771108E+01 -0.28104855914E+02  0.29855758700E+02  0.00000000000E+00 0.  1.
         13    1    1    2    0    0  0.43677642277E+01  0.90777771108E+01 -0.20273078702E+02  0.22638045889E+02  0.00000000000E+00 0. -1.
<mgrwt>
<rscale>  0 0.20375843E+02</rscale>
<asrwt>0</asrwt>
<pdfrwt beam="2">  1        4 0.77593649E-02 0.20375843E+02</pdfrwt>
<pdfrwt beam="1">  1       -4 0.31660537E-03 0.20375843E+02</pdfrwt>
<totfact> 0.10994247E+06</totfact>
</mgrwt>
</event>
<event>
 4    1  0.2165211E+000  0.3668371E+02  0.7546771E-02  0.1534138E+00
          1   -1    0    0  501    0  0.00000000000E+00  0.00000000000E+00  0.72608247812E+01  0.72608247812E+01  0.00000000000E+00 0.  1.
         -1   -1    0    0    0  501 -0.00000000000E+00 -0.00000000000E+00 -0.46334086669E+02  0.46334086669E+02  0.00000000000E+00 0. -1.
        -13    1    1    2    0    0  0.15135211452E+02  0.21379919795E+01 -0.47250824164E+01  0.15999126202E+02  0.00000000000E+00 0.  1.
         13    1    1    2    0    0 -0.15135211452E+02 -0.21379919795E+01 -0.34348179472E+02  0.37595785248E+02  0.00000000000E+00 0. -1.
<mgrwt>
<rscale>  0 0.36683712E+02</rscale>
<asrwt>0</asrwt>
<pdfrwt beam="1">  1        1 0.11170499E-02 0.36683712E+02</pdfrwt>
<pdfrwt beam="2">  1       -1 0.71283214E-02 0.36683712E+02</pdfrwt>
<totfact> 0.87257188E+05</totfact>
</mgrwt>
</event>
<event>
 4    1  0.2165211E+000  0.2557272E+02  0.7546771E-02  0.1652909E+00
          1   -1    0    0  501    0  0.00000000000E+00  0.00000000000E+00  0.28825095351E+01  0.28825095351E+01  0.00000000000E+00 0.  1.
         -1   -1    0    0    0  501 -0.00000000000E+00 -0.00000000000E+00 -0.56718291257E+02  0.56718291257E+02  0.00000000000E+00 0. -1.
        -11    1    1    2    0    0  0.33436553725E+01 -0.12341412425E+02 -0.26971215006E+02  0.29848566645E+02  0.00000000000E+00 0. -1.
         11    1    1    2    0    0 -0.33436553725E+01  0.12341412425E+02 -0.26864566716E+02  0.29752234147E+02  0.00000000000E+00 0.  1.
<mgrwt>
<rscale>  0 0.25572721E+02</rscale>
<asrwt>0</asrwt>
<pdfrwt beam="1">  1        1 0.44346300E-03 0.25572721E+02</pdfrwt>
<pdfrwt beam="2">  1       -1 0.87258911E-02 0.25572721E+02</pdfrwt>
<totfact> 0.19861643E+06</totfact>
</mgrwt>
</event>
<event>
 4    1  0.2165211E+000  0.2814958E+02  0.7546771E-02  0.1619492E+00
         -1   -1    0    0    0  501 -0.00000000000E+00  0.00000000000E+00  0.34416023247E+01  0.34416023247E+01  0.00000000000E+00 0. -1.
          1   -1    0    0  501    0  0.00000000000E+00 -0.00000000000E+00 -0.57560297773E+02  0.57560297773E+02  0.00000000000E+00 0.  1.
        -11    1    1    2    0    0 -0.12063016683E+02  0.51863410018E+01 -0.38042134756E+02  0.40244484359E+02  0.00000000000E+00 0. -1.
         11    1    1    2    0    0  0.12063016683E+02 -0.51863410018E+01 -0.16076560692E+02  0.20757415739E+02  0.00000000000E+00 0.  1.
<mgrwt>
<rscale>  0 0.28149576E+02</rscale>
<asrwt>0</asrwt>
<pdfrwt beam="2">  1        1 0.88554303E-02 0.28149576E+02</pdfrwt>
<pdfrwt beam="1">  1       -1 0.52947729E-03 0.28149576E+02</pdfrwt>
<totfact> 0.19299700E+06</totfact>
</mgrwt>
</event>
<event>
 4    1  0.2165211E+000  0.2586415E+02  0.7546771E-02  0.1648891E+00
          4   -1    0    0  501    0  0.00000000000E+00  0.00000000000E+00  0.24011607368E+02  0.24011607368E+02  0.00000000000E+00 0. -1.
         -4   -1    0    0    0  501 -0.00000000000E+00 -0.00000000000E+00 -0.69649053320E+01  0.69649053320E+01  0.00000000000E+00 0.  1.
        -11    1    1    2    0    0 -0.96427140868E+01 -0.53814050632E+01  0.46270996072E+00  0.11052400460E+02  0.00000000000E+00 0.  1.
         11    1    1    2    0    0  0.96427140868E+01  0.53814050632E+01  0.16583992075E+02  0.19924112241E+02  0.00000000000E+00 0. -1.
<mgrwt>
<rscale>  0 0.25864151E+02</rscale>
<asrwt>0</asrwt>
<pdfrwt beam="1">  1        4 0.36940934E-02 0.25864151E+02</pdfrwt>
<pdfrwt beam="2">  1       -4 0.10715239E-02 0.25864151E+02</pdfrwt>
<totfact> 0.72072981E+05</totfact>
</mgrwt>
</event>
<event>
 4    1  0.2165211E+000  0.6053109E+02  0.7546771E-02  0.1395616E+00
          2   -1    0    0  501    0  0.00000000000E+00  0.00000000000E+00  0.26202700168E+02  0.26202700168E+02  0.00000000000E+00 0.  1.
         -2   -1    0    0    0  501 -0.00000000000E+00 -0.00000000000E+00 -0.34958350238E+02  0.34958350238E+02  0.00000000000E+00 0. -1.
        -11    1    1    2    0    0  0.17023972074E+02  0.24553996594E+02  0.49824537132E+00  0.29882480191E+02  0.00000000000E+00 0.  1.
         11    1    1    2    0    0 -0.17023972074E+02 -0.24553996594E+02 -0.92538954408E+01  0.31278570215E+02  0.00000000000E+00 0. -1.
<mgrwt>
<rscale>  0 0.60531089E+02</rscale>
<asrwt>0</asrwt>
<pdfrwt beam="1">  1        2 0.40311846E-02 0.60531089E+02</pdfrwt>
<pdfrwt beam="2">  1       -2 0.53782077E-02 0.60531089E+02</pdfrwt>
<totfact> 0.27520313E+05</totfact>
</mgrwt>
</event>
<event>
 4    1  0.2165211E+000  0.2214330E+02  0.7546771E-02  0.1705785E+00
         -2   -1    0    0    0  501 -0.00000000000E+00  0.00000000000E+00  0.69539543075E+01  0.69539543075E+01  0.00000000000E+00 0. -1.
          2   -1    0    0  501    0  0.00000000000E+00 -0.00000000000E+00 -0.17627586336E+02  0.17627586336E+02  0.00000000000E+00 0.  1.
        -13    1    1    2    0    0  0.91852799469E+01 -0.60891418664E+01 -0.41544485611E+01  0.11777370641E+02  0.00000000000E+00 0.  1.
         13    1    1    2    0    0 -0.91852799469E+01  0.60891418664E+01 -0.65191834674E+01  0.12804170003E+02  0.00000000000E+00 0. -1.
<mgrwt>
<rscale>  0 0.22143300E+02</rscale>
<asrwt>0</asrwt>
<pdfrwt beam="2">  1        2 0.27119363E-02 0.22143300E+02</pdfrwt>
<pdfrwt beam="1">  1       -2 0.10698391E-02 0.22143300E+02</pdfrwt>
<totfact> 0.32677051E+06</totfact>
</mgrwt>
</event>
<event>
 4    1  0.2165211E+000  0.8843417E+02  0.7546771E-02  0.1306688E+00
          2   -1    0    0  501    0  0.00000000000E+00  0.00000000000E+00  0.12252544309E+02  0.12252544309E+02  0.00000000000E+00 0.  1.
         -2   -1    0    0    0  501 -0.00000000000E+00 -0.00000000000E+00 -0.15957097634E+03  0.15957097634E+03  0.00000000000E+00 0. -1.
        -13    1    1    2    0    0 -0.43825864315E+02  0.57738719554E+01 -0.71615437250E+02  0.84159460745E+02  0.00000000000E+00 0.  1.
         13    1    1    2    0    0  0.43825864315E+02 -0.57738719554E+01 -0.75702994785E+02  0.87664059909E+02  0.00000000000E+00 0. -1.
<mgrwt>
<rscale>  0 0.88434167E+02</rscale>
<asrwt>0</asrwt>
<pdfrwt beam="1">  1        2 0.18850069E-02 0.88434167E+02</pdfrwt>
<pdfrwt beam="2">  1       -2 0.24549380E-01 0.88434167E+02</pdfrwt>
<totfact> 0.73767885E+04</totfact>
</mgrwt>
</event>
<event>
 4    1  0.2165211E+000  0.2818783E+02  0.7546771E-02  0.1619029E+00
          2   -1    0    0  501    0  0.00000000000E+00  0.00000000000E+00  0.46835934747E+02  0.46835934747E+02  0.00000000000E+00 0. -1.
         -2   -1    0    0    0  501 -0.00000000000E+00 -0.00000000000E+00 -0.42411556575E+01  0.42411556575E+01  0.00000000000E+00 0.  1.
        -11    1    1    2    0    0  0.96318435252E+01 -0.76312251540E+01  0.87917201638E+01  0.15109677378E+02  0.00000000000E+00 0.  1.
         11    1    1    2    0    0 -0.96318435252E+01  0.76312251540E+01  0.33803058926E+02  0.35967413026E+02  0.00000000000E+00 0. -1.
<mgrwt>
<rscale>  0 0.28187834E+02</rscale>
<asrwt>0</asrwt>
<pdfrwt beam="1">  1        2 0.72055281E-02 0.28187834E+02</pdfrwt>
<pdfrwt beam="2">  1       -2 0.65248552E-03 0.28187834E+02</pdfrwt>
<totfact> 0.20859537E+06</totfact>
</mgrwt>
</event>
<event>
 4    1  0.2165211E+000  0.2120576E+02  0.7546771E-02  0.1722361E+00
         -3   -1    0    0    0  501 -0.00000000000E+00  0.00000000000E+00  0.22946581703E+02  0.22946581703E+02  0.00000000000E+00 0.  1.
          3   -1    0    0  501    0  0.00000000000E+00 -0.00000000000E+00 -0.48992531838E+01  0.48992531838E+01  0.00000000000E+00 0. -1.
        -13    1    1    2    0    0 -0.10054141108E+02 -0.83894985149E+00  0.13305244153E+02  0.16697877477E+02  0.00000000000E+00 0.  1.
         13    1    1    2    0    0  0.10054141108E+02  0.83894985149E+00  0.47420843663E+01  0.11147957410E+02  0.00000000000E+00 0. -1.
<mgrwt>
<rscale>  0 0.21205765E+02</rscale>
<asrwt>0</asrwt>
<pdfrwt beam="2">  1        3 0.75373127E-03 0.21205765E+02</pdfrwt>
<pdfrwt beam="1">  1       -3 0.35302433E-02 0.21205765E+02</pdfrwt>
<totfact> 0.15318713E+06</totfact>
</mgrwt>
</event>
<event>
 4    1  0.2165211E+000  0.2385482E+02  0.7546771E-02  0.1678017E+00
         -2   -1    0    0    0  501 -0.00000000000E+00  0.00000000000E+00  0.80005002418E+02  0.80005002418E+02  0.00000000000E+00 0.  1.
          2   -1    0    0  501    0  0.00000000000E+00 -0.00000000000E+00 -0.17781780035E+01  0.17781780035E+01  0.00000000000E+00 0. -1.
        -11    1    1    2    0    0  0.11677500768E+02 -0.83598744842E-02  0.47440219870E+02  0.48856305175E+02  0.00000000000E+00 0. -1.
         11    1    1    2    0    0 -0.11677500768E+02  0.83598744842E-02  0.30786604544E+02  0.32926875246E+02  0.00000000000E+00 0.  1.
<mgrwt>
<rscale>  0 0.23854822E+02</rscale>
<asrwt>0</asrwt>
<pdfrwt beam="2">  1        2 0.27356591E-03 0.23854822E+02</pdfrwt>
<pdfrwt beam="1">  1       -2 0.12308459E-01 0.23854822E+02</pdfrwt>
<totfact> 0.21153313E+06</totfact>
</mgrwt>
</event>
<event>
 4    1  0.2165211E+000  0.2309586E+02  0.7546771E-02  0.1689961E+00
          2   -1    0    0  501    0  0.00000000000E+00  0.00000000000E+00  0.49781318126E+01  0.49781318126E+01  0.00000000000E+00 0.  1.
         -2   -1    0    0    0  501 -0.00000000000E+00 -0.00000000000E+00 -0.26788103414E+02  0.26788103414E+02  0.00000000000E+00 0. -1.
        -11    1    1    2    0    0 -0.55275059119E+00 -0.11138666417E+02 -0.67835124156E+01  0.13053408117E+02  0.00000000000E+00 0.  1.
         11    1    1    2    0    0  0.55275059119E+00  0.11138666417E+02 -0.15026459186E+02  0.18712827109E+02  0.00000000000E+00 0. -1.
<mgrwt>
<rscale>  0 0.23095862E+02</rscale>
<asrwt>0</asrwt>
<pdfrwt beam="1">  1        2 0.76586643E-03 0.23095862E+02</pdfrwt>
<pdfrwt beam="2">  1       -2 0.41212467E-02 0.23095862E+02</pdfrwt>
<totfact> 0.26567388E+06</totfact>
</mgrwt>
</event>
<event>
 4    1  0.2165211E+000  0.4419876E+02  0.7546771E-02  0.1479406E+00
         -4   -1    0    0    0  501 -0.00000000000E+00  0.00000000000E+00  0.87757104022E+02  0.87757104022E+02  0.00000000000E+00 0. -1.
          4   -1    0    0  501    0  0.00000000000E+00 -0.00000000000E+00 -0.55651638238E+01  0.55651638238E+01  0.00000000000E+00 0.  1.
        -11    1    1    2    0    0 -0.21446954119E+02  0.45546234460E+01  0.46942066155E+02  0.51809979836E+02  0.00000000000E+00 0.  1.
         11    1    1    2    0    0  0.21446954119E+02 -0.45546234460E+01  0.35249874043E+02  0.41512288009E+02  0.00000000000E+00 0. -1.
<mgrwt>
<rscale>  0 0.44198763E+02</rscale>
<asrwt>0</asrwt>
<pdfrwt beam="2">  1        4 0.85617911E-03 0.44198763E+02</pdfrwt>
<pdfrwt beam="1">  1       -4 0.13501092E-01 0.44198763E+02</pdfrwt>
<totfact> 0.17216023E+05</totfact>
</mgrwt>
</event>
<event>
 4    1  0.2165211E+000  0.4448655E+02  0.7546771E-02  0.1477573E+00
         -2   -1    0    0    0  501 -0.00000000000E+00  0.00000000000E+00  0.14702748819E+02  0.14702748819E+02  0.00000000000E+00 0. -1.
          2   -1    0    0  501    0  0.00000000000E+00 -0.00000000000E+00 -0.33651078924E+02  0.33651078924E+02  0.00000000000E+00 0.  1.
        -11    1    1    2    0    0 -0.51084149238E+01  0.13836217419E+02  0.86233732480E+01  0.17085063116E+02  0.00000000000E+00 0. -1.
         11    1    1    2    0    0  0.51084149238E+01 -0.13836217419E+02 -0.27571703354E+02  0.31268764627E+02  0.00000000000E+00 0.  1.
<mgrwt>
<rscale>  0 0.44486554E+02</rscale>
<asrwt>0</asrwt>
<pdfrwt beam="2">  1        2 0.51770890E-02 0.44486554E+02</pdfrwt>
<pdfrwt beam="1">  1       -2 0.22619614E-02 0.44486554E+02</pdfrwt>
<totfact> 0.64668682E+05</totfact>
</mgrwt>
</event>
<event>
 4    1  0.2165211E+000  0.8327795E+02  0.7546771E-02  0.1319998E+00
          1   -1    0    0  501    0  0.00000000000E+00  0.00000000000E+00  0.86609398755E+02  0.86609398755E+02  0.00000000000E+00 0. -1.
         -1   -1    0    0    0  501 -0.00000000000E+00 -0.00000000000E+00 -0.20018663217E+02  0.20018663217E+02  0.00000000000E+00 0.  1.
        -11    1    1    2    0    0  0.22922218171E+01 -0.27659131338E+02  0.73039444710E+02  0.78134770178E+02  0.00000000000E+00 0. -1.
         11    1    1    2    0    0 -0.22922218171E+01  0.27659131338E+02 -0.64487091719E+01  0.28493291794E+02  0.00000000000E+00 0.  1.
<mgrwt>
<rscale>  0 0.83277954E+02</rscale>
<asrwt>0</asrwt>
<pdfrwt beam="1">  1        1 0.13324523E-01 0.83277954E+02</pdfrwt>
<pdfrwt beam="2">  1       -1 0.30797944E-02 0.83277954E+02</pdfrwt>
<totfact> 0.13053682E+05</totfact>
</mgrwt>
</event>
<event>
 4    1  0.2165211E+000  0.2658570E+02  0.7546771E-02  0.1639218E+00
          2   -1    0    0  501    0  0.00000000000E+00  0.00000000000E+00  0.30278455454E+02  0.30278455454E+02  0.00000000000E+00 0.  1.
         -2   -1    0    0    0  501 -0.00000000000E+00 -0.00000000000E+00 -0.58358267429E+01  0.58358267429E+01  0.00000000000E+00 0. -1.
        -13    1    1    2    0    0 -0.72730942544E+01  0.10559520979E+02  0.74574883217E+01  0.14832919990E+02  0.00000000000E+00 0. -1.
         13    1    1    2    0    0  0.72730942544E+01 -0.10559520979E+02  0.16985140389E+02  0.21281362207E+02  0.00000000000E+00 0.  1.
<mgrwt>
<rscale>  0 0.26585697E+02</rscale>
<asrwt>0</asrwt>
<pdfrwt beam="1">  1        2 0.46582238E-02 0.26585697E+02</pdfrwt>
<pdfrwt beam="2">  1       -2 0.89781952E-03 0.26585697E+02</pdfrwt>
<totfact> 0.22559741E+06</totfact>
</mgrwt>
</event>
<event>
 4    1  0.2165211E+000  0.3055029E+02  0.7546771E-02  0.1592084E+00
         -2   -1    0    0    0  501 -0.00000000000E+00  0.00000000000E+00  0.81700956913E+02  0.81700956913E+02  0.00000000000E+00 0.  1.
          2   -1    0    0  501    0  0.00000000000E+00 -0.00000000000E+00 -0.28559035415E+01  0.28559035415E+01  0.00000000000E+00 0. -1.
        -11    1    1    2    0    0 -0.58661224635E+01 -0.14099580945E+02  0.40383220253E+02  0.43174229044E+02  0.00000000000E+00 0.  1.
         11    1    1    2    0    0  0.58661224635E+01  0.14099580945E+02  0.38461833119E+02  0.41382631410E+02  0.00000000000E+00 0. -1.
<mgrwt>
<rscale>  0 0.30550290E+02</rscale>
<asrwt>0</asrwt>
<pdfrwt beam="2">  1        2 0.43936984E-03 0.30550290E+02</pdfrwt>
<pdfrwt beam="1">  1       -2 0.12569376E-01 0.30550290E+02</pdfrwt>
<totfact> 0.11967771E+06</totfact>
</mgrwt>
</event>
<event>
 4    1  0.2165211E+000  0.2167624E+02  0.7546771E-02  0.1713912E+00
         -3   -1    0    0    0  501 -0.00000000000E+00  0.00000000000E+00  0.31519997307E+02  0.31519997307E+02  0.00000000000E+00 0.  1.
          3   -1    0    0  501    0  0.00000000000E+00 -0.00000000000E+00 -0.37266758160E+01  0.37266758160E+01  0.00000000000E+00 0. -1.
        -13    1    1    2    0    0 -0.97577354493E+01  0.30043060225E+01  0.19810114566E+02  0.22286316315E+02  0.00000000000E+00 0. -1.
         13    1    1    2    0    0  0.97577354493E+01 -0.30043060225E+01  0.79832069246E+01  0.12960356807E+02  0.00000000000E+00 0.  1.
<mgrwt>
<rscale>  0 0.21676237E+02</rscale>
<asrwt>0</asrwt>
<pdfrwt beam="2">  1        3 0.57333476E-03 0.21676237E+02</pdfrwt>
<pdfrwt beam="1">  1       -3 0.48492302E-02 0.21676237E+02</pdfrwt>
<totfact> 0.14246277E+06</totfact>
</mgrwt>
</event>
<event>
 4    1  0.2165211E+000  0.3895952E+02  0.7546771E-02  0.1516011E+00
         -4   -1    0    0    0  501 -0.00000000000E+00  0.00000000000E+00  0.52482171278E+02  0.52482171278E+02  0.00000000000E+00 0.  1.
          4   -1    0    0  501    0  0.00000000000E+00 -0.00000000000E+00 -0.72302843262E+01  0.72302843262E+01  0.00000000000E+00 0. -1.
        -13    1    1    2    0    0 -0.19100673975E+02 -0.28370373650E+01  0.18695436829E+02  0.26877572165E+02  0.00000000000E+00 0. -1.
         13    1    1    2    0    0  0.19100673975E+02  0.28370373650E+01  0.26556450123E+02  0.32834883439E+02  0.00000000000E+00 0.  1.
<mgrwt>
<rscale>  0 0.38959518E+02</rscale>
<asrwt>0</asrwt>
<pdfrwt beam="2">  1        4 0.11123515E-02 0.38959518E+02</pdfrwt>
<pdfrwt beam="1">  1       -4 0.80741799E-02 0.38959518E+02</pdfrwt>
<totfact> 0.25639510E+05</totfact>
</mgrwt>
</event>
<event>
 4    1  0.2165211E+000  0.6301991E+02  0.7546771E-02  0.1385578E+00
         -1   -1    0    0    0  501 -0.00000000000E+00  0.00000000000E+00  0.77009667981E+01  0.77009667981E+01  0.00000000000E+00 0.  1.
          1   -1    0    0  501    0  0.00000000000E+00 -0.00000000000E+00 -0.12892889422E+03  0.12892889422E+03  0.00000000000E+00 0. -1.
        -11    1    1    2    0    0  0.18747867442E+02  0.20755409869E+02 -0.92077306078E+02  0.96231491036E+02  0.00000000000E+00 0. -1.
         11    1    1    2    0    0 -0.18747867442E+02 -0.20755409869E+02 -0.29150621343E+02  0.40398369981E+02  0.00000000000E+00 0.  1.
<mgrwt>
<rscale>  0 0.63019906E+02</rscale>
<asrwt>0</asrwt>
<pdfrwt beam="2">  1        1 0.19835215E-01 0.63019906E+02</pdfrwt>
<pdfrwt beam="1">  1       -1 0.11847641E-02 0.63019906E+02</pdfrwt>
<totfact> 0.28999761E+05</totfact>
</mgrwt>
</event>
<event>
 4    1  0.2165211E+000  0.2362154E+02  0.7546771E-02  0.1681629E+00
          2   -1    0    0  501    0  0.00000000000E+00  0.00000000000E+00  0.60713312354E+02  0.60713312354E+02  0.00000000000E+00 0.  1.
         -2   -1    0    0    0  501 -0.00000000000E+00 -0.00000000000E+00 -0.22975907395E+01  0.22975907395E+01  0.00000000000E+00 0. -1.
        -13    1    1    2    0    0 -0.20336944464E+01 -0.10796442092E+02  0.40772489274E+02  0.42226709042E+02  0.00000000000E+00 0.  1.
         13    1    1    2    0    0  0.20336944464E+01  0.10796442092E+02  0.17643232341E+02  0.20784194051E+02  0.00000000000E+00 0. -1.
<mgrwt>
<rscale>  0 0.23621545E+02</rscale>
<asrwt>0</asrwt>
<pdfrwt beam="1">  1        2 0.93405084E-02 0.23621545E+02</pdfrwt>
<pdfrwt beam="2">  1       -2 0.35347554E-03 0.23621545E+02</pdfrwt>
<totfact> 0.32836413E+06</totfact>
</mgrwt>
</event>
<event>
 4    1  0.2165211E+000  0.2891154E+02  0.7546771E-02  0.1610441E+00
          1   -1    0    0  501    0  0.00000000000E+00  0.00000000000E+00  0.18834632425E+02  0.18834632425E+02  0.00000000000E+00 0. -1.
         -1   -1    0    0    0  501 -0.00000000000E+00 -0.00000000000E+00 -0.11094947451E+02  0.11094947451E+02  0.00000000000E+00 0.  1.
        -13    1    1    2    0    0 -0.13400835334E+02  0.10214825760E+01  0.93811637291E+01  0.16389998390E+02  0.00000000000E+00 0. -1.
         13    1    1    2    0    0  0.13400835334E+02 -0.10214825760E+01 -0.16414787544E+01  0.13539581486E+02  0.00000000000E+00 0.  1.
<mgrwt>
<rscale>  0 0.28911538E+02</rscale>
<asrwt>0</asrwt>
<pdfrwt beam="1">  1        1 0.28976357E-02 0.28911538E+02</pdfrwt>
<pdfrwt beam="2">  1       -1 0.17069150E-02 0.28911538E+02</pdfrwt>
<totfact> 0.16842284E+06</totfact>
</mgrwt>
</event>
<event>
 4    1  0.2165211E+000  0.5250080E+02  0.7546771E-02  0.1432301E+00
          2   -1    0    0  501    0  0.00000000000E+00  0.00000000000E+00  0.54941430187E+01  0.54941430187E+01  0.00000000000E+00 0.  1.
         -2   -1    0    0    0  501 -0.00000000000E+00 -0.00000000000E+00 -0.12542147536E+03  0.12542147536E+03  0.00000000000E+00 0. -1.
        -11    1    1    2    0    0  0.16779274802E+02  0.19743237878E+02 -0.70467589027E+02  0.75080094619E+02  0.00000000000E+00 0.  1.
         11    1    1    2    0    0 -0.16779274802E+02 -0.19743237878E+02 -0.49459743315E+02  0.55835523760E+02  0.00000000000E+00 0. -1.
<mgrwt>
<rscale>  0 0.52500801E+02</rscale>
<asrwt>0</asrwt>
<pdfrwt beam="1">  1        2 0.84525277E-03 0.52500801E+02</pdfrwt>
<pdfrwt beam="2">  1       -2 0.19295612E-01 0.52500801E+02</pdfrwt>
<totfact> 0.29443326E+05</totfact>
</mgrwt>
</event>
<event>
 4    1  0.2165211E+000  0.2394960E+02  0.7546771E-02  0.1676564E+00
          2   -1    0    0  501    0  0.00000000000E+00  0.00000000000E+00  0.17797558188E+02  0.17797558188E+02  0.00000000000E+00 0. -1.
         -2   -1    0    0    0  501 -0.00000000000E+00 -0.00000000000E+00 -0.80570482570E+01  0.80570482570E+01  0.00000000000E+00 0.  1.
        -13    1    1    2    0    0  0.64190665787E+01  0.10078446182E+02  0.57177418888E+01  0.13246586937E+02  0.00000000000E+00 0. -1.
         13    1    1    2    0    0 -0.64190665787E+01 -0.10078446182E+02  0.40227680423E+01  0.12608019508E+02  0.00000000000E+00 0.  1.
<mgrwt>
<rscale>  0 0.23949596E+02</rscale>
<asrwt>0</asrwt>
<pdfrwt beam="1">  1        2 0.27380858E-02 0.23949596E+02</pdfrwt>
<pdfrwt beam="2">  1       -2 0.12395459E-02 0.23949596E+02</pdfrwt>
<totfact> 0.27267439E+06</totfact>
</mgrwt>
</event>
<event>
 4    1  0.2165211E+000  0.3710755E+02  0.7546771E-02  0.1530644E+00
         -2   -1    0    0    0  501 -0.00000000000E+00  0.00000000000E+00  0.22018035460E+02  0.22018035460E+02  0.00000000000E+00 0. -1.
          2   -1    0    0  501    0  0.00000000000E+00 -0.00000000000E+00 -0.15634569076E+02  0.15634569076E+02  0.00000000000E+00 0.  1.
        -11    1    1    2    0    0 -0.26924269294E+01 -0.17191540840E+02  0.97240158021E+01  0.19933758365E+02  0.00000000000E+00 0. -1.
         11    1    1    2    0    0  0.26924269294E+01  0.17191540840E+02 -0.33405494181E+01  0.17718846171E+02  0.00000000000E+00 0.  1.
<mgrwt>
<rscale>  0 0.37107546E+02</rscale>
<asrwt>0</asrwt>
<pdfrwt beam="2">  1        2 0.24053183E-02 0.37107546E+02</pdfrwt>
<pdfrwt beam="1">  1       -2 0.33873901E-02 0.37107546E+02</pdfrwt>
<totfact> 0.92540937E+05</totfact>
</mgrwt>
</event>
<event>
 4    1  0.2165211E+000  0.4555693E+02  0.7546771E-02  0.1470894E+00
          2   -1    0    0  501    0  0.00000000000E+00  0.00000000000E+00  0.57153720095E+02  0.57153720095E+02  0.00000000000E+00 0.  1.
         -2   -1    0    0    0  501 -0.00000000000E+00 -0.00000000000E+00 -0.90782986143E+01  0.90782986143E+01  0.00000000000E+00 0. -1.
        -13    1    1    2    0    0 -0.12401352832E+02  0.16146935608E+01 -0.36407674545E+01  0.13025205373E+02  0.00000000000E+00 0. -1.
         13    1    1    2    0    0  0.12401352832E+02 -0.16146935608E+01  0.51716188935E+02  0.53206813335E+02  0.00000000000E+00 0.  1.
<mgrwt>
<rscale>  0 0.45556933E+02</rscale>
<asrwt>0</asrwt>
<pdfrwt beam="1">  1        2 0.87928798E-02 0.45556933E+02</pdfrwt>
<pdfrwt beam="2">  1       -2 0.13966614E-02 0.45556933E+02</pdfrwt>
<totfact> 0.66738737E+05</totfact>
</mgrwt>
</event>
<event>
 4    1  0.2165211E+000  0.3226037E+02  0.7546771E-02  0.1574368E+00
         -2   -1    0    0    0  501 -0.00000000000E+00  0.00000000000E+00  0.14812729132E+02  0.14812729132E+02  0.00000000000E+00 0. -1.
          2   -1    0    0  501    0  0.00000000000E+00 -0.00000000000E+00 -0.17564813076E+02  0.17564813076E+02  0.00000000000E+00 0.  1.
        -11    1    1    2    0    0  0.14830282529E+02  0.33902725009E+00 -0.77339229949E+01  0.16729189588E+02  0.00000000000E+00 0.  1.
         11    1    1    2    0    0 -0.14830282529E+02 -0.33902725009E+00  0.49818390510E+01  0.15648352620E+02  0.00000000000E+00 0. -1.
<mgrwt>
<rscale>  0 0.32260367E+02</rscale>
<asrwt>0</asrwt>
<pdfrwt beam="2">  1        2 0.27022789E-02 0.32260367E+02</pdfrwt>
<pdfrwt beam="1">  1       -2 0.22788814E-02 0.32260367E+02</pdfrwt>
<totfact> 0.13317152E+06</totfact>
</mgrwt>
</event>
<event>
 4    1  0.2165211E+000  0.3396280E+02  0.7546771E-02  0.1558009E+00
         -2   -1    0    0    0  501 -0.00000000000E+00  0.00000000000E+00  0.27357963289E+02  0.27357963289E+02  0.00000000000E+00 0. -1.
          2   -1    0    0  501    0  0.00000000000E+00 -0.00000000000E+00 -0.10540546109E+02  0.10540546109E+02  0.00000000000E+00 0.  1.
        -13    1    1    2    0    0 -0.16779217830E+01  0.14763704498E+02  0.17582426929E+02  0.23020080989E+02  0.00000000000E+00 0. -1.
         13    1    1    2    0    0  0.16779217830E+01 -0.14763704498E+02 -0.76500974873E+00  0.14878428409E+02  0.00000000000E+00 0.  1.
<mgrwt>
<rscale>  0 0.33962796E+02</rscale>
<asrwt>0</asrwt>
<pdfrwt beam="2">  1        2 0.16216225E-02 0.33962796E+02</pdfrwt>
<pdfrwt beam="1">  1       -2 0.42089174E-02 0.33962796E+02</pdfrwt>
<totfact> 0.11057236E+06</totfact>
</mgrwt>
</event>
<event>
 4    1  0.2165211E+000  0.2484196E+02  0.7546771E-02  0.1663282E+00
          2   -1    0    0  501    0  0.00000000000E+00  0.00000000000E+00  0.37149853448E+01  0.37149853448E+01  0.00000000000E+00 0.  1.
         -2   -1    0    0    0  501 -0.00000000000E+00 -0.00000000000E+00 -0.41529284306E+02  0.41529284306E+02  0.00000000000E+00 0. -1.
        -11    1    1    2    0    0  0.39279715160E+01 -0.94908504647E+01 -0.61873991837E+01  0.11991209757E+02  0.00000000000E+00 0.  1.
         11    1    1    2    0    0 -0.39279715160E+01  0.94908504647E+01 -0.31626899777E+02  0.33253059894E+02  0.00000000000E+00 0. -1.
<mgrwt>
<rscale>  0 0.24841955E+02</rscale>
<asrwt>0</asrwt>
<pdfrwt beam="1">  1        2 0.57153626E-03 0.24841955E+02</pdfrwt>
<pdfrwt beam="2">  1       -2 0.63891201E-02 0.24841955E+02</pdfrwt>
<totfact> 0.21479029E+06</totfact>
</mgrwt>
</event>
<event>
 4    1  0.2165211E+000  0.2090529E+02  0.7546771E-02  0.1727902E+00
         -2   -1    0    0    0  501 -0.00000000000E+00  0.00000000000E+00  0.13795911480E+01  0.13795911480E+01  0.00000000000E+00 0.  1.
          2   -1    0    0  501    0  0.00000000000E+00 -0.00000000000E+00 -0.79195746683E+02  0.79195746683E+02  0.00000000000E+00 0. -1.
        -11    1    1    2    0    0 -0.67784461346E+01  0.76073244498E+01 -0.29919170716E+02  0.31606573583E+02  0.00000000000E+00 0.  1.
         11    1    1    2    0    0  0.67784461346E+01 -0.76073244498E+01 -0.47896984819E+02  0.48968764249E+02  0.00000000000E+00 0. -1.
<mgrwt>
<rscale>  0 0.20905287E+02</rscale>
<asrwt>0</asrwt>
<pdfrwt beam="2">  1        2 0.12183960E-01 0.20905287E+02</pdfrwt>
<pdfrwt beam="1">  1       -2 0.21224481E-03 0.20905287E+02</pdfrwt>
<totfact> 0.45493592E+06</totfact>
</mgrwt>
</event>
<event>
 4    1  0.2165211E+000  0.2284557E+02  0.7546771E-02  0.1694026E+00
         -4   -1    0    0    0  501 -0.00000000000E+00  0.00000000000E+00  0.53865873839E+01  0.53865873839E+01  0.00000000000E+00 0. -1.
          4   -1    0    0  501    0  0.00000000000E+00 -0.00000000000E+00 -0.24223129083E+02  0.24223129083E+02  0.00000000000E+00 0.  1.
        -13    1    1    2    0    0  0.11880083616E+01  0.10329708008E+02 -0.15547758931E+02  0.18704198437E+02  0.00000000000E+00 0. -1.
         13    1    1    2    0    0 -0.11880083616E+01 -0.10329708008E+02 -0.32887827677E+01  0.10905518030E+02  0.00000000000E+00 0.  1.
<mgrwt>
<rscale>  0 0.22845569E+02</rscale>
<asrwt>0</asrwt>
<pdfrwt beam="2">  1        4 0.37266352E-02 0.22845569E+02</pdfrwt>
<pdfrwt beam="1">  1       -4 0.82870577E-03 0.22845569E+02</pdfrwt>
<totfact> 0.94629695E+05</totfact>
</mgrwt>
</event>
<event>
 4    1  0.2165211E+000  0.4153758E+02  0.7546771E-02  0.1497192E+00
         -2   -1    0    0    0  501 -0.00000000000E+00  0.00000000000E+00  0.50792370428E+01  0.50792370428E+01  0.00000000000E+00 0.  1.
          2   -1    0    0  501    0  0.00000000000E+00 -0.00000000000E+00 -0.84922710611E+02  0.84922710611E+02  0.00000000000E+00 0. -1.
        -13    1    1    2    0    0 -0.15444638642E+02 -0.13441274650E+02 -0.47470601458E+02  0.51697801982E+02  0.00000000000E+00 0. -1.
         13    1    1    2    0    0  0.15444638642E+02  0.13441274650E+02 -0.32372872111E+02  0.38304145672E+02  0.00000000000E+00 0.  1.
<mgrwt>
<rscale>  0 0.41537577E+02</rscale>
<asrwt>0</asrwt>
<pdfrwt beam="2">  1        2 0.13065031E-01 0.41537577E+02</pdfrwt>
<pdfrwt beam="1">  1       -2 0.78142115E-03 0.41537577E+02</pdfrwt>
<totfact> 0.91512022E+05</totfact>
</mgrwt>
</event>
<event>
 4    1  0.2165211E+000  0.2519704E+02  0.7546771E-02  0.1658188E+00
         -4   -1    0    0    0  501 -0.00000000000E+00  0.00000000000E+00  0.12420777287E+03  0.12420777287E+03  0.00000000000E+00 0. -1.
          4   -1    0    0  501    0  0.00000000000E+00 -0.00000000000E+00 -0.12778810549E+01  0.12778810549E+01  0.00000000000E+00 0.  1.
        -11    1    1    2    0    0  0.61303385069E+01 -0.11005524050E+02  0.62171884725E+02  0.63435367581E+02  0.00000000000E+00 0.  1.
         11    1    1    2    0    0 -0.61303385069E+01  0.11005524050E+02  0.60758007086E+02  0.62050286341E+02  0.00000000000E+00 0. -1.
<mgrwt>
<rscale>  0 0.25197044E+02</rscale>
<asrwt>0</asrwt>
<pdfrwt beam="2">  1        4 0.19659718E-03 0.25197044E+02</pdfrwt>
<pdfrwt beam="1">  1       -4 0.19108879E-01 0.25197044E+02</pdfrwt>
<totfact> 0.56731737E+05</totfact>
</mgrwt>
</event>
<event>
 4    1  0.2165211E+000  0.3209428E+02  0.7546771E-02  0.1576030E+00
         -2   -1    0    0    0  501 -0.00000000000E+00  0.00000000000E+00  0.47358991616E+02  0.47358991616E+02  0.00000000000E+00 0. -1.
          2   -1    0    0  501    0  0.00000000000E+00 -0.00000000000E+00 -0.54374205451E+01  0.54374205451E+01  0.00000000000E+00 0.  1.
        -13    1    1    2    0    0  0.10265519159E+02 -0.12165310341E+02  0.17615605774E+02  0.23742056063E+02  0.00000000000E+00 0.  1.
         13    1    1    2    0    0 -0.10265519159E+02  0.12165310341E+02  0.24305965297E+02  0.29054356099E+02  0.00000000000E+00 0. -1.
<mgrwt>
<rscale>  0 0.32094283E+02</rscale>
<asrwt>0</asrwt>
<pdfrwt beam="2">  1        2 0.83652627E-03 0.32094283E+02</pdfrwt>
<pdfrwt beam="1">  1       -2 0.72859984E-02 0.32094283E+02</pdfrwt>
<totfact> 0.11736796E+06</totfact>
</mgrwt>
</event>
<event>
 4    1  0.2165211E+000  0.2457051E+02  0.7546771E-02  0.1667249E+00
         -4   -1    0    0    0  501 -0.00000000000E+00  0.00000000000E+00  0.53654471674E+01  0.53654471674E+01  0.00000000000E+00 0. -1.
          4   -1    0    0  501    0  0.00000000000E+00 -0.00000000000E+00 -0.28129526702E+02  0.28129526702E+02  0.00000000000E+00 0.  1.
        -13    1    1    2    0    0 -0.12269074736E+02  0.42988398811E+00 -0.10753635585E+02  0.16320406656E+02  0.00000000000E+00 0. -1.
         13    1    1    2    0    0  0.12269074736E+02 -0.42988398811E+00 -0.12010443949E+02  0.17174567213E+02  0.00000000000E+00 0.  1.
<mgrwt>
<rscale>  0 0.24570510E+02</rscale>
<asrwt>0</asrwt>
<pdfrwt beam="2">  1        4 0.43276195E-02 0.24570510E+02</pdfrwt>
<pdfrwt beam="1">  1       -4 0.82545341E-03 0.24570510E+02</pdfrwt>
<totfact> 0.79778601E+05</totfact>
</mgrwt>
</event>
<event>
 4    1  0.2165211E+000  0.3052147E+02  0.7546771E-02  0.1592395E+00
          2   -1    0    0  501    0  0.00000000000E+00  0.00000000000E+00  0.43721508796E+01  0.43721508796E+01  0.00000000000E+00 0. -1.
         -2   -1    0    0    0  501 -0.00000000000E+00 -0.00000000000E+00 -0.53266684233E+02  0.53266684233E+02  0.00000000000E+00 0.  1.
        -11    1    1    2    0    0 -0.84737245159E+01  0.66886058980E+01 -0.40773038258E+01  0.11539751406E+02  0.00000000000E+00 0. -1.
         11    1    1    2    0    0  0.84737245159E+01 -0.66886058980E+01 -0.44817229527E+02  0.46099083706E+02  0.00000000000E+00 0.  1.
<mgrwt>
<rscale>  0 0.30521467E+02</rscale>
<asrwt>0</asrwt>
<pdfrwt beam="1">  1        2 0.67263857E-03 0.30521467E+02</pdfrwt>
<pdfrwt beam="2">  1       -2 0.81948748E-02 0.30521467E+02</pdfrwt>
<totfact> 0.12955477E+06</totfact>
</mgrwt>
</event>
<event>
 4    1  0.2165211E+000  0.2163398E+02  0.7546771E-02  0.1714660E+00
         -1   -1    0    0    0  501 -0.00000000000E+00  0.00000000000E+00  0.59303788027E+02  0.59303788027E+02  0.00000000000E+00 0. -1.
          1   -1    0    0  501    0  0.00000000000E+00 -0.00000000000E+00 -0.19730148860E+01  0.19730148860E+01  0.00000000000E+00 0.  1.
        -11    1    1    2    0    0  0.82452503466E+01 -0.62018504401E+01  0.19461000248E+02  0.22026748122E+02  0.00000000000E+00 0.  1.
         11    1    1    2    0    0 -0.82452503466E+01  0.62018504401E+01  0.37869772893E+02  0.39250054791E+02  0.00000000000E+00 0. -1.
<mgrwt>
<rscale>  0 0.21633979E+02</rscale>
<asrwt>0</asrwt>
<pdfrwt beam="2">  1        1 0.30354080E-03 0.21633979E+02</pdfrwt>
<pdfrwt beam="1">  1       -1 0.91236583E-02 0.21633979E+02</pdfrwt>
<totfact> 0.28819901E+06</totfact>
</mgrwt>
</event>
<event>
 4    1  0.2165211E+000  0.3941869E+02  0.7546771E-02  0.1512533E+00
         -2   -1    0    0    0  501 -0.00000000000E+00  0.00000000000E+00  0.78575629286E+01  0.78575629286E+01  0.00000000000E+00 0. -1.
          2   -1    0    0  501    0  0.00000000000E+00 -0.00000000000E+00 -0.49437491992E+02  0.49437491992E+02  0.00000000000E+00 0.  1.
        -11    1    1    2    0    0  0.11455971298E+02  0.62541556942E+01  0.67584497579E+00  0.13069449425E+02  0.00000000000E+00 0. -1.
         11    1    1    2    0    0 -0.11455971298E+02 -0.62541556942E+01 -0.42255774039E+02  0.44225605496E+02  0.00000000000E+00 0.  1.
<mgrwt>
<rscale>  0 0.39418686E+02</rscale>
<asrwt>0</asrwt>
<pdfrwt beam="2">  1        2 0.76057681E-02 0.39418686E+02</pdfrwt>
<pdfrwt beam="1">  1       -2 0.12088558E-02 0.39418686E+02</pdfrwt>
<totfact> 0.93384092E+05</totfact>
</mgrwt>
</event>
<event>
 4    1  0.2165211E+000  0.2422652E+02  0.7546771E-02  0.1672367E+00
         -4   -1    0    0    0  501 -0.00000000000E+00  0.00000000000E+00  0.97270864904E+02  0.97270864904E+02  0.00000000000E+00 0. -1.
          4   -1    0    0  501    0  0.00000000000E+00 -0.00000000000E+00 -0.15084795657E+01  0.15084795657E+01  0.00000000000E+00 0.  1.
        -13    1    1    2    0    0  0.22981306582E+01 -0.11255650854E+02  0.63545769962E+02  0.64575815603E+02  0.00000000000E+00 0. -1.
         13    1    1    2    0    0 -0.22981306582E+01  0.11255650854E+02  0.32216615376E+02  0.34203528866E+02  0.00000000000E+00 0.  1.
<mgrwt>
<rscale>  0 0.24226524E+02</rscale>
<asrwt>0</asrwt>
<pdfrwt beam="2">  1        4 0.23207386E-03 0.24226524E+02</pdfrwt>
<pdfrwt beam="1">  1       -4 0.14964743E-01 0.24226524E+02</pdfrwt>
<totfact> 0.66315967E+05</totfact>
</mgrwt>
</event>
<event>
 4    1  0.2165211E+000  0.2387010E+02  0.7546771E-02  0.1677782E+00
          1   -1    0    0  501    0  0.00000000000E+00  0.00000000000E+00  0.82376693039E+02  0.82376693039E+02  0.00000000000E+00 0. -1.
         -1   -1    0    0    0  501 -0.00000000000E+00 -0.00000000000E+00 -0.17291959726E+01  0.17291959726E+01  0.00000000000E+00 0.  1.
        -11    1    1    2    0    0 -0.64513469337E+01 -0.89056281142E+01  0.23980198434E+02  0.26381432984E+02  0.00000000000E+00 0.  1.
         11    1    1    2    0    0  0.64513469337E+01  0.89056281142E+01  0.56667298632E+02  0.57724456027E+02  0.00000000000E+00 0. -1.
<mgrwt>
<rscale>  0 0.23870102E+02</rscale>
<asrwt>0</asrwt>
<pdfrwt beam="1">  1        1 0.12673334E-01 0.23870102E+02</pdfrwt>
<pdfrwt beam="2">  1       -1 0.26603021E-03 0.23870102E+02</pdfrwt>
<totfact> 0.29227883E+06</totfact>
</mgrwt>
</event>
<event>
 4    1  0.2165211E+000  0.2284386E+02  0.7546771E-02  0.1694054E+00
         -1   -1    0    0    0  501 -0.00000000000E+00  0.00000000000E+00  0.40176871553E+01  0.40176871553E+01  0.00000000000E+00 0.  1.
          1   -1    0    0  501    0  0.00000000000E+00 -0.00000000000E+00 -0.32471543234E+02  0.32471543234E+02  0.00000000000E+00 0. -1.
        -13    1    1    2    0    0 -0.51431381129E+01  0.99927144772E+01 -0.17482622080E+02  0.20783365634E+02  0.00000000000E+00 0.  1.
         13    1    1    2    0    0  0.51431381129E+01 -0.99927144772E+01 -0.10971233999E+02  0.15705864756E+02  0.00000000000E+00 0. -1.
<mgrwt>
<rscale>  0 0.22843862E+02</rscale>
<asrwt>0</asrwt>
<pdfrwt beam="2">  1        1 0.49956222E-02 0.22843862E+02</pdfrwt>
<pdfrwt beam="1">  1       -1 0.61810570E-03 0.22843862E+02</pdfrwt>
<totfact> 0.30082099E+06</totfact>
</mgrwt>
</event>
<event>
 4    1  0.2165211E+000  0.4651979E+02  0.7546771E-02  0.1465071E+00
         -3   -1    0    0    0  501 -0.00000000000E+00  0.00000000000E+00  0.18671424756E+03  0.18671424756E+03  0.00000000000E+00 0.  1.
          3   -1    0    0  501    0  0.00000000000E+00 -0.00000000000E+00 -0.28975971667E+01  0.28975971667E+01  0.00000000000E+00 0. -1.
        -13    1    1    2    0    0  0.13047515062E+02  0.18011427540E+02  0.64151953944E+02  0.67897881897E+02  0.00000000000E+00 0. -1.
         13    1    1    2    0    0 -0.13047515062E+02 -0.18011427540E+02  0.11966469645E+03  0.12171396283E+03  0.00000000000E+00 0.  1.
<mgrwt>
<rscale>  0 0.46519788E+02</rscale>
<asrwt>0</asrwt>
<pdfrwt beam="2">  1        3 0.44578433E-03 0.46519788E+02</pdfrwt>
<pdfrwt beam="1">  1       -3 0.28725259E-01 0.46519788E+02</pdfrwt>
<totfact> 0.16541740E+05</totfact>
</mgrwt>
</event>
<event>
 4    1  0.2165211E+000  0.2688973E+02  0.7546771E-02  0.1635254E+00
         -2   -1    0    0    0  501 -0.00000000000E+00  0.00000000000E+00  0.26326982064E+02  0.26326982064E+02  0.00000000000E+00 0. -1.
          2   -1    0    0  501    0  0.00000000000E+00 -0.00000000000E+00 -0.68661275227E+01  0.68661275227E+01  0.00000000000E+00 0.  1.
        -11    1    1    2    0    0  0.34007832473E+01  0.12690259403E+02  0.13255847428E+02  0.18663480421E+02  0.00000000000E+00 0. -1.
         11    1    1    2    0    0 -0.34007832473E+01 -0.12690259403E+02  0.62050071131E+01  0.14529629165E+02  0.00000000000E+00 0.  1.
<mgrwt>
<rscale>  0 0.26889732E+02</rscale>
<asrwt>0</asrwt>
<pdfrwt beam="2">  1        2 0.10563273E-02 0.26889732E+02</pdfrwt>
<pdfrwt beam="1">  1       -2 0.40503049E-02 0.26889732E+02</pdfrwt>
<totfact> 0.18927877E+06</totfact>
</mgrwt>
</event>
<event>
 4    1  0.2165211E+000  0.2106145E+02  0.7546771E-02  0.1725008E+00
         -4   -1    0    0    0  501 -0.00000000000E+00  0.00000000000E+00  0.31707305769E+02  0.31707305769E+02  0.00000000000E+00 0.  1.
          4   -1    0    0  501    0  0.00000000000E+00 -0.00000000000E+00 -0.34974955426E+01  0.34974955426E+01  0.00000000000E+00 0. -1.
        -11    1    1    2    0    0  0.41852522302E+01 -0.93129665746E+01  0.18414880230E+02  0.21056008562E+02  0.00000000000E+00 0. -1.
         11    1    1    2    0    0 -0.41852522302E+01  0.93129665746E+01  0.97949299957E+01  0.14148792750E+02  0.00000000000E+00 0.  1.
<mgrwt>
<rscale>  0 0.21061449E+02</rscale>
<asrwt>0</asrwt>
<pdfrwt beam="2">  1        4 0.53807626E-03 0.21061449E+02</pdfrwt>
<pdfrwt beam="1">  1       -4 0.48780469E-02 0.21061449E+02</pdfrwt>
<totfact> 0.10965614E+06</totfact>
</mgrwt>
</event>
<event>
 4    1  0.2165211E+000  0.3998383E+02  0.7546771E-02  0.1508330E+00
          1   -1    0    0  501    0  0.00000000000E+00  0.00000000000E+00  0.13828813398E+03  0.13828813398E+03  0.00000000000E+00 0.  1.
         -1   -1    0    0    0  501 -0.00000000000E+00 -0.00000000000E+00 -0.28901738005E+01  0.28901738005E+01  0.00000000000E+00 0. -1.
        -11    1    1    2    0    0  0.11848013619E+01 -0.19933129992E+02  0.64269627137E+02  0.67300210979E+02  0.00000000000E+00 0. -1.
         11    1    1    2    0    0 -0.11848013619E+01  0.19933129992E+02  0.71128333043E+02  0.73878096801E+02  0.00000000000E+00 0.  1.
<mgrwt>
<rscale>  0 0.39983834E+02</rscale>
<asrwt>0</asrwt>
<pdfrwt beam="1">  1        1 0.21275092E-01 0.39983834E+02</pdfrwt>
<pdfrwt beam="2">  1       -1 0.44464223E-03 0.39983834E+02</pdfrwt>
<totfact> 0.92086056E+05</totfact>
</mgrwt>
</event>
<event>
 4    1  0.2165211E+000  0.3343536E+02  0.7546771E-02  0.1562951E+00
         -3   -1    0    0    0  501 -0.00000000000E+00  0.00000000000E+00  0.15860741739E+02  0.15860741739E+02  0.00000000000E+00 0. -1.
          3   -1    0    0  501    0  0.00000000000E+00 -0.00000000000E+00 -0.17620914701E+02  0.17620914701E+02  0.00000000000E+00 0.  1.
        -13    1    1    2    0    0  0.15157696188E+02 -0.46201466616E+01  0.44545099046E+01  0.16460381751E+02  0.00000000000E+00 0. -1.
         13    1    1    2    0    0 -0.15157696188E+02  0.46201466616E+01 -0.62146828658E+01  0.17021274689E+02  0.00000000000E+00 0.  1.
<mgrwt>
<rscale>  0 0.33435357E+02</rscale>
<asrwt>0</asrwt>
<pdfrwt beam="2">  1        3 0.27109100E-02 0.33435357E+02</pdfrwt>
<pdfrwt beam="1">  1       -3 0.24401141E-02 0.33435357E+02</pdfrwt>
<totfact> 0.53195262E+05</totfact>
</mgrwt>
</event>
<event>
 4    1  0.2165211E+000  0.5257752E+02  0.7546771E-02  0.1431915E+00
          2   -1    0    0  501    0  0.00000000000E+00  0.00000000000E+00  0.50470628594E+02  0.50470628594E+02  0.00000000000E+00 0. -1.
         -2   -1    0    0    0  501 -0.00000000000E+00 -0.00000000000E+00 -0.13693092190E+02  0.13693092190E+02  0.00000000000E+00 0.  1.
        -13    1    1    2    0    0  0.84427386839E+01  0.20998099132E+02  0.34711518526E+02  0.41437778923E+02  0.00000000000E+00 0. -1.
         13    1    1    2    0    0 -0.84427386839E+01 -0.20998099132E+02  0.20660178780E+01  0.22725941862E+02  0.00000000000E+00 0.  1.
<mgrwt>
<rscale>  0 0.52577523E+02</rscale>
<asrwt>0</asrwt>
<pdfrwt beam="1">  1        2 0.77647120E-02 0.52577523E+02</pdfrwt>
<pdfrwt beam="2">  1       -2 0.21066296E-02 0.52577523E+02</pdfrwt>
<totfact> 0.45135936E+05</totfact>
</mgrwt>
</event>
<event>
 4    1  0.2165211E+000  0.2836488E+02  0.7546771E-02  0.1616899E+00
          4   -1    0    0  501    0  0.00000000000E+00  0.00000000000E+00  0.70603834719E+01  0.70603834719E+01  0.00000000000E+00 0. -1.
         -4   -1    0    0    0  501 -0.00000000000E+00 -0.00000000000E+00 -0.28488773452E+02  0.28488773452E+02  0.00000000000E+00 0.  1.
        -13    1    1    2    0    0 -0.69814592937E+01 -0.10949219237E+02 -0.17860695633E+02  0.22082360025E+02  0.00000000000E+00 0.  1.
         13    1    1    2    0    0  0.69814592937E+01  0.10949219237E+02 -0.35676943463E+01  0.13466796899E+02  0.00000000000E+00 0. -1.
<mgrwt>
<rscale>  0 0.28364884E+02</rscale>
<asrwt>0</asrwt>
<pdfrwt beam="1">  1        4 0.10862128E-02 0.28364884E+02</pdfrwt>
<pdfrwt beam="2">  1       -4 0.43828882E-02 0.28364884E+02</pdfrwt>
<totfact> 0.57772057E+05</totfact>
</mgrwt>
</event>
<event>
 4    1  0.2165211E+000  0.2863833E+02  0.7546771E-02  0.1613647E+00
         -4   -1    0    0    0  501 -0.00000000000E+00  0.00000000000E+00  0.67097566099E+02  0.67097566099E+02  0.00000000000E+00 0. -1.
          4   -1    0    0  501    0  0.00000000000E+00 -0.00000000000E+00 -0.30558267599E+01  0.30558267599E+01  0.00000000000E+00 0.  1.
        -13    1    1    2    0    0 -0.72018360670E+01  0.87810152322E+01  0.10656216590E+02  0.15573298406E+02  0.00000000000E+00 0.  1.
         13    1    1    2    0    0  0.72018360670E+01 -0.87810152322E+01  0.53385522749E+02  0.54580094452E+02  0.00000000000E+00 0. -1.
<mgrwt>
<rscale>  0 0.28638334E+02</rscale>
<asrwt>0</asrwt>
<pdfrwt beam="2">  1        4 0.47012724E-03 0.28638334E+02</pdfrwt>
<pdfrwt beam="1">  1       -4 0.10322701E-01 0.28638334E+02</pdfrwt>
<totfact> 0.50277303E+05</totfact>
</mgrwt>
</event>
<event>
 4    1  0.2165211E+000  0.4304997E+02  0.7546771E-02  0.1486896E+00
         -2   -1    0    0    0  501 -0.00000000000E+00  0.00000000000E+00  0.27533563768E+02  0.27533563768E+02  0.00000000000E+00 0.  1.
          2   -1    0    0  501    0  0.00000000000E+00 -0.00000000000E+00 -0.16827645680E+02  0.16827645680E+02  0.00000000000E+00 0. -1.
        -11    1    1    2    0    0  0.18201460940E+02 -0.61631304127E+01 -0.46402408674E+01  0.19768894560E+02  0.00000000000E+00 0. -1.
         11    1    1    2    0    0 -0.18201460940E+02  0.61631304127E+01  0.15346158955E+02  0.24592314887E+02  0.00000000000E+00 0.  1.
<mgrwt>
<rscale>  0 0.43049974E+02</rscale>
<asrwt>0</asrwt>
<pdfrwt beam="2">  1        2 0.25888686E-02 0.43049974E+02</pdfrwt>
<pdfrwt beam="1">  1       -2 0.42359329E-02 0.43049974E+02</pdfrwt>
<totfact> 0.63721729E+05</totfact>
</mgrwt>
</event>
<event>
 4    1  0.2165211E+000  0.3593725E+02  0.7546771E-02  0.1540432E+00
         -2   -1    0    0    0  501 -0.00000000000E+00  0.00000000000E+00  0.97304177936E+01  0.97304177936E+01  0.00000000000E+00 0. -1.
          2   -1    0    0  501    0  0.00000000000E+00 -0.00000000000E+00 -0.33181666769E+02  0.33181666769E+02  0.00000000000E+00 0.  1.
        -13    1    1    2    0    0  0.41816969982E+01 -0.11226303138E+02  0.42659611603E+01  0.12716717209E+02  0.00000000000E+00 0. -1.
         13    1    1    2    0    0 -0.41816969982E+01  0.11226303138E+02 -0.27717210136E+02  0.30195367354E+02  0.00000000000E+00 0.  1.
<mgrwt>
<rscale>  0 0.35937250E+02</rscale>
<asrwt>0</asrwt>
<pdfrwt beam="2">  1        2 0.51048718E-02 0.35937250E+02</pdfrwt>
<pdfrwt beam="1">  1       -2 0.14969873E-02 0.35937250E+02</pdfrwt>
<totfact> 0.11033106E+06</totfact>
</mgrwt>
</event>
<event>
 4    1  0.2165211E+000  0.1143327E+03  0.7546771E-02  0.1252750E+00
          2   -1    0    0  501    0  0.00000000000E+00  0.00000000000E+00  0.20642379682E+02  0.20642379682E+02  0.00000000000E+00 0. -1.
         -2   -1    0    0    0  501 -0.00000000000E+00 -0.00000000000E+00 -0.15831463216E+03  0.15831463216E+03  0.00000000000E+00 0.  1.
        -11    1    1    2    0    0  0.55590472508E+02 -0.13072316809E+02 -0.72919142221E+02  0.92619584336E+02  0.00000000000E+00 0.  1.
         11    1    1    2    0    0 -0.55590472508E+02  0.13072316809E+02 -0.64753110258E+02  0.86337427506E+02  0.00000000000E+00 0. -1.
<mgrwt>
<rscale>  0 0.11433269E+03</rscale>
<asrwt>0</asrwt>
<pdfrwt beam="1">  1        2 0.31757509E-02 0.11433269E+03</pdfrwt>
<pdfrwt beam="2">  1       -2 0.24356096E-01 0.11433269E+03</pdfrwt>
<totfact> 0.38556390E+04</totfact>
</mgrwt>
</event>
<event>
 4    1  0.2165211E+000  0.4138746E+02  0.7546771E-02  0.1498243E+00
          2   -1    0    0  501    0  0.00000000000E+00  0.00000000000E+00  0.85620421909E+01  0.85620421909E+01  0.00000000000E+00 0.  1.
         -2   -1    0    0    0  501 -0.00000000000E+00 -0.00000000000E+00 -0.50015001479E+02  0.50015001479E+02  0.00000000000E+00 0. -1.
        -13    1    1    2    0    0  0.16079341876E+02 -0.11353641397E+02 -0.29764701768E+02  0.35684560800E+02  0.00000000000E+00 0.  1.
         13    1    1    2    0    0 -0.16079341876E+02  0.11353641397E+02 -0.11688257520E+02  0.22892482871E+02  0.00000000000E+00 0. -1.
<mgrwt>
<rscale>  0 0.41387464E+02</rscale>
<asrwt>0</asrwt>
<pdfrwt beam="1">  1        2 0.13172373E-02 0.41387464E+02</pdfrwt>
<pdfrwt beam="2">  1       -2 0.76946156E-02 0.41387464E+02</pdfrwt>
<totfact> 0.64032947E+05</totfact>
</mgrwt>
</event>
<event>
 4    1  0.2165211E+000  0.3258013E+02  0.7546771E-02  0.1571203E+00
         -2   -1    0    0    0  501 -0.00000000000E+00  0.00000000000E+00  0.10168958148E+02  0.10168958148E+02  0.00000000000E+00 0.  1.
          2   -1    0    0  501    0  0.00000000000E+00 -0.00000000000E+00 -0.26095713534E+02  0.26095713534E+02  0.00000000000E+00 0. -1.
        -13    1    1    2    0    0  0.15886276821E+02  0.87324172415E-02 -0.11975506001E+02  0.19894386432E+02  0.00000000000E+00 0. -1.
         13    1    1    2    0    0 -0.15886276821E+02 -0.87324172415E-02 -0.39512493848E+01  0.16370285251E+02  0.00000000000E+00 0.  1.
<mgrwt>
<rscale>  0 0.32580130E+02</rscale>
<asrwt>0</asrwt>
<pdfrwt beam="2">  1        2 0.40147251E-02 0.32580130E+02</pdfrwt>
<pdfrwt beam="1">  1       -2 0.15644551E-02 0.32580130E+02</pdfrwt>
<totfact> 0.13603804E+06</totfact>
</mgrwt>
</event>
<event>
 4    1  0.2165211E+000  0.4336301E+02  0.7546771E-02  0.1484828E+00
          2   -1    0    0  501    0  0.00000000000E+00  0.00000000000E+00  0.22383894085E+02  0.22383894085E+02  0.00000000000E+00 0. -1.
         -2   -1    0    0    0  501 -0.00000000000E+00 -0.00000000000E+00 -0.21001152916E+02  0.21001152916E+02  0.00000000000E+00 0.  1.
        -13    1    1    2    0    0  0.72756205702E+01  0.83154271575E+01 -0.17973046317E+02  0.21097662842E+02  0.00000000000E+00 0.  1.
         13    1    1    2    0    0 -0.72756205702E+01 -0.83154271575E+01  0.19355787485E+02  0.22287384159E+02  0.00000000000E+00 0. -1.
<mgrwt>
<rscale>  0 0.43363006E+02</rscale>
<asrwt>0</asrwt>
<pdfrwt beam="1">  1        2 0.34436760E-02 0.43363006E+02</pdfrwt>
<pdfrwt beam="2">  1       -2 0.32309466E-02 0.43363006E+02</pdfrwt>
<totfact> 0.65059261E+05</totfact>
</mgrwt>
</event>
<event>
 4    1  0.2165211E+000  0.2135212E+02  0.7546771E-02  0.1719704E+00
          2   -1    0    0  501    0  0.00000000000E+00  0.00000000000E+00  0.10218379040E+01  0.10218379040E+01  0.00000000000E+00 0. -1.
         -2   -1    0    0    0  501 -0.00000000000E+00 -0.00000000000E+00 -0.11154242082E+03  0.11154242082E+03  0.00000000000E+00 0.  1.
        -13    1    1    2    0    0  0.50843066580E+01 -0.93529602222E+01 -0.51009258720E+02  0.52108276831E+02  0.00000000000E+00 0.  1.
         13    1    1    2    0    0 -0.50843066580E+01  0.93529602222E+01 -0.59511324200E+02  0.60455981898E+02  0.00000000000E+00 0. -1.
<mgrwt>
<rscale>  0 0.21352122E+02</rscale>
<asrwt>0</asrwt>
<pdfrwt beam="1">  1        2 0.15720579E-03 0.21352122E+02</pdfrwt>
<pdfrwt beam="2">  1       -2 0.17160377E-01 0.21352122E+02</pdfrwt>
<totfact> 0.25050585E+06</totfact>
</mgrwt>
</event>
<event>
 4    1  0.2165211E+000  0.3328735E+02  0.7546771E-02  0.1564357E+00
          4   -1    0    0  501    0  0.00000000000E+00  0.00000000000E+00  0.51918738716E+01  0.51918738716E+01  0.00000000000E+00 0. -1.
         -4   -1    0    0    0  501 -0.00000000000E+00 -0.00000000000E+00 -0.53354892739E+02  0.53354892739E+02  0.00000000000E+00 0.  1.
        -11    1    1    2    0    0 -0.16494527054E+02 -0.13503137243E+01 -0.27187775337E+02  0.31828727554E+02  0.00000000000E+00 0.  1.
         11    1    1    2    0    0  0.16494527054E+02  0.13503137243E+01 -0.20975243530E+02  0.26718039057E+02  0.00000000000E+00 0. -1.
<mgrwt>
<rscale>  0 0.33287347E+02</rscale>
<asrwt>0</asrwt>
<pdfrwt beam="1">  1        4 0.79874988E-03 0.33287347E+02</pdfrwt>
<pdfrwt beam="2">  1       -4 0.82084445E-02 0.33287347E+02</pdfrwt>
<totfact> 0.37147068E+05</totfact>
</mgrwt>
</event>
<event>
 4    1  0.2165211E+000  0.5981802E+02  0.7546771E-02  0.1398597E+00
          1   -1    0    0  501    0  0.00000000000E+00  0.00000000000E+00  0.28040945700E+02  0.28040945700E+02  0.00000000000E+00 0. -1.
         -1   -1    0    0    0  501 -0.00000000000E+00 -0.00000000000E+00 -0.31901522447E+02  0.31901522447E+02  0.00000000000E+00 0.  1.
        -13    1    1    2    0    0  0.28426837925E+02  0.51263881042E+01 -0.97042558156E+01  0.30471914123E+02  0.00000000000E+00 0. -1.
         13    1    1    2    0    0 -0.28426837925E+02 -0.51263881042E+01  0.58436790681E+01  0.29470554023E+02  0.00000000000E+00 0.  1.
<mgrwt>
<rscale>  0 0.59818019E+02</rscale>
<asrwt>0</asrwt>
<pdfrwt beam="1">  1        1 0.43139917E-02 0.59818019E+02</pdfrwt>
<pdfrwt beam="2">  1       -1 0.49079265E-02 0.59818019E+02</pdfrwt>
<totfact> 0.27573132E+05</totfact>
</mgrwt>
</event>
<event>
 4    1  0.2165211E+000  0.3416124E+02  0.7546771E-02  0.1556178E+00
          2   -1    0    0  501    0  0.00000000000E+00  0.00000000000E+00  0.62631202481E+02  0.62631202481E+02  0.00000000000E+00 0. -1.
         -2   -1    0    0    0  501 -0.00000000000E+00 -0.00000000000E+00 -0.46581835984E+01  0.46581835984E+01  0.00000000000E+00 0.  1.
        -11    1    1    2    0    0 -0.50826307523E+01 -0.15206126529E+02  0.40587735960E+02  0.43639703593E+02  0.00000000000E+00 0. -1.
         11    1    1    2    0    0  0.50826307523E+01  0.15206126529E+02  0.17385282923E+02  0.23649682487E+02  0.00000000000E+00 0.  1.
<mgrwt>
<rscale>  0 0.34161244E+02</rscale>
<asrwt>0</asrwt>
<pdfrwt beam="1">  1        2 0.96355690E-02 0.34161244E+02</pdfrwt>
<pdfrwt beam="2">  1       -2 0.71664368E-03 0.34161244E+02</pdfrwt>
<totfact> 0.13850552E+06</totfact>
</mgrwt>
</event>
<event>
 4    1  0.2165211E+000  0.4208477E+02  0.7546771E-02  0.1493407E+00
         -2   -1    0    0    0  501 -0.00000000000E+00  0.00000000000E+00  0.72089620892E+02  0.72089620892E+02  0.00000000000E+00 0.  1.
          2   -1    0    0  501    0  0.00000000000E+00 -0.00000000000E+00 -0.61421056620E+01  0.61421056620E+01  0.00000000000E+00 0. -1.
        -13    1    1    2    0    0  0.14847546059E+02 -0.33671297391E+01  0.59975629196E+02  0.61877809303E+02  0.00000000000E+00 0.  1.
         13    1    1    2    0    0 -0.14847546059E+02  0.33671297391E+01  0.59718860334E+01  0.16353917251E+02  0.00000000000E+00 0. -1.
<mgrwt>
<rscale>  0 0.42084775E+02</rscale>
<asrwt>0</asrwt>
<pdfrwt beam="2">  1        2 0.94493938E-03 0.42084775E+02</pdfrwt>
<pdfrwt beam="1">  1       -2 0.11090710E-01 0.42084775E+02</pdfrwt>
<totfact> 0.57628725E+05</totfact>
</mgrwt>
</event>
<event>
 4    1  0.2165211E+000  0.3601820E+02  0.7546771E-02  0.1539740E+00
          2   -1    0    0  501    0  0.00000000000E+00  0.00000000000E+00  0.19647070146E+03  0.19647070146E+03  0.00000000000E+00 0. -1.
         -2   -1    0    0    0  501 -0.00000000000E+00 -0.00000000000E+00 -0.16507688615E+01  0.16507688615E+01  0.00000000000E+00 0.  1.
        -13    1    1    2    0    0  0.23450015791E+01  0.17804821144E+02  0.89995322358E+02  0.91769650401E+02  0.00000000000E+00 0.  1.
         13    1    1    2    0    0 -0.23450015791E+01 -0.17804821144E+02  0.10482461024E+03  0.10635181992E+03  0.00000000000E+00 0. -1.
<mgrwt>
<rscale>  0 0.36018202E+02</rscale>
<asrwt>0</asrwt>
<pdfrwt beam="1">  1        2 0.30226243E-01 0.36018202E+02</pdfrwt>
<pdfrwt beam="2">  1       -2 0.25396459E-03 0.36018202E+02</pdfrwt>
<totfact> 0.16358781E+06</totfact>
</mgrwt>
</event>
<event>
 4    1  0.2165211E+000  0.4637730E+02  0.7546771E-02  0.1465922E+00
          2   -1    0    0  501    0  0.00000000000E+00  0.00000000000E+00  0.57741880270E+02  0.57741880270E+02  0.00000000000E+00 0.  1.
         -2   -1    0    0    0  501 -0.00000000000E+00 -0.00000000000E+00 -0.93123660546E+01  0.93123660546E+01  0.00000000000E+00 0. -1.
        -13    1    1    2    0    0  0.63251364816E+01  0.11992274463E+02  0.51413942172E+02  0.53171566161E+02  0.00000000000E+00 0.  1.
         13    1    1    2    0    0 -0.63251364816E+01 -0.11992274463E+02 -0.29844279571E+01  0.13882680164E+02  0.00000000000E+00 0. -1.
<mgrwt>
<rscale>  0 0.46377302E+02</rscale>
<asrwt>0</asrwt>
<pdfrwt beam="1">  1        2 0.88833660E-02 0.46377302E+02</pdfrwt>
<pdfrwt beam="2">  1       -2 0.14326717E-02 0.46377302E+02</pdfrwt>
<totfact> 0.63916898E+05</totfact>
</mgrwt>
</event>
<event>
 4    1  0.2165211E+000  0.2922111E+02  0.7546771E-02  0.1606861E+00
         -2   -1    0    0    0  501 -0.00000000000E+00  0.00000000000E+00  0.20957721146E+01  0.20957721146E+01  0.00000000000E+00 0. -1.
          2   -1    0    0  501    0  0.00000000000E+00 -0.00000000000E+00 -0.10185662311E+03  0.10185662311E+03  0.00000000000E+00 0.  1.
        -11    1    1    2    0    0  0.11187402355E+02 -0.92322337849E+01 -0.43641034827E+02  0.45988390197E+02  0.00000000000E+00 0.  1.
         11    1    1    2    0    0 -0.11187402355E+02  0.92322337849E+01 -0.56119816171E+02  0.57964005031E+02  0.00000000000E+00 0. -1.
<mgrwt>
<rscale>  0 0.29221107E+02</rscale>
<asrwt>0</asrwt>
<pdfrwt beam="2">  1        2 0.15670248E-01 0.29221107E+02</pdfrwt>
<pdfrwt beam="1">  1       -2 0.32242652E-03 0.29221107E+02</pdfrwt>
<totfact> 0.22328921E+06</totfact>
</mgrwt>
</event>
<event>
 4    1  0.2165211E+000  0.3071565E+02  0.7546771E-02  0.1590310E+00
         -4   -1    0    0    0  501 -0.00000000000E+00  0.00000000000E+00  0.55610207152E+01  0.55610207152E+01  0.00000000000E+00 0.  1.
          4   -1    0    0  501    0  0.00000000000E+00 -0.00000000000E+00 -0.42413574987E+02  0.42413574987E+02  0.00000000000E+00 0. -1.
        -11    1    1    2    0    0  0.12390834739E+02  0.69284305661E+01 -0.92752782404E+01  0.16957792370E+02  0.00000000000E+00 0.  1.
         11    1    1    2    0    0 -0.12390834739E+02 -0.69284305661E+01 -0.27577276031E+02  0.31016803332E+02  0.00000000000E+00 0. -1.
<mgrwt>
<rscale>  0 0.30715649E+02</rscale>
<asrwt>0</asrwt>
<pdfrwt beam="2">  1        4 0.65251653E-02 0.30715649E+02</pdfrwt>
<pdfrwt beam="1">  1       -4 0.85554166E-03 0.30715649E+02</pdfrwt>
<totfact> 0.46209552E+05</totfact>
</mgrwt>
</event>
<event>
 4    1  0.2165211E+000  0.4094137E+02  0.7546771E-02  0.1501396E+00
         -3   -1    0    0    0  501 -0.00000000000E+00  0.00000000000E+00  0.22078566572E+02  0.22078566572E+02  0.00000000000E+00 0. -1.
          3   -1    0    0  501    0  0.00000000000E+00 -0.00000000000E+00 -0.18979901343E+02  0.18979901343E+02  0.00000000000E+00 0.  1.
        -11    1    1    2    0    0 -0.24048926645E+01  0.18039021817E+02 -0.78507993457E+01  0.19819809969E+02  0.00000000000E+00 0.  1.
         11    1    1    2    0    0  0.24048926645E+01 -0.18039021817E+02  0.10949464575E+02  0.21238657946E+02  0.00000000000E+00 0. -1.
<mgrwt>
<rscale>  0 0.40941373E+02</rscale>
<asrwt>0</asrwt>
<pdfrwt beam="2">  1        3 0.29199848E-02 0.40941373E+02</pdfrwt>
<pdfrwt beam="1">  1       -3 0.33967025E-02 0.40941373E+02</pdfrwt>
<totfact> 0.31881822E+05</totfact>
</mgrwt>
</event>
<event>
 4    1  0.2165211E+000  0.3570307E+02  0.7546771E-02  0.1542444E+00
         -3   -1    0    0    0  501 -0.00000000000E+00  0.00000000000E+00  0.96766080953E+02  0.96766080953E+02  0.00000000000E+00 0.  1.
          3   -1    0    0  501    0  0.00000000000E+00 -0.00000000000E+00 -0.32932745099E+01  0.32932745099E+01  0.00000000000E+00 0. -1.
        -11    1    1    2    0    0 -0.16743131944E+02 -0.55271413354E+01  0.54561224135E+02  0.57339418708E+02  0.00000000000E+00 0.  1.
         11    1    1    2    0    0  0.16743131944E+02  0.55271413354E+01  0.38911582308E+02  0.42719936755E+02  0.00000000000E+00 0. -1.
<mgrwt>
<rscale>  0 0.35703068E+02</rscale>
<asrwt>0</asrwt>
<pdfrwt beam="2">  1        3 0.50665769E-03 0.35703068E+02</pdfrwt>
<pdfrwt beam="1">  1       -3 0.14887087E-01 0.35703068E+02</pdfrwt>
<totfact> 0.38073827E+05</totfact>
</mgrwt>
</event>
<event>
 4    1  0.2165211E+000  0.8078986E+02  0.7546771E-02  0.1326825E+00
          1   -1    0    0  501    0  0.00000000000E+00  0.00000000000E+00  0.36707315969E+03  0.36707315969E+03  0.00000000000E+00 0. -1.
         -1   -1    0    0    0  501 -0.00000000000E+00 -0.00000000000E+00 -0.44453000679E+01  0.44453000679E+01  0.00000000000E+00 0.  1.
        -13    1    1    2    0    0 -0.22421644703E+02  0.32934216437E+02  0.15068671821E+03  0.15586494092E+03  0.00000000000E+00 0.  1.
         13    1    1    2    0    0  0.22421644703E+02 -0.32934216437E+02  0.21194114142E+03  0.21565351884E+03  0.00000000000E+00 0. -1.
<mgrwt>
<rscale>  0 0.80789859E+02</rscale>
<asrwt>0</asrwt>
<pdfrwt beam="1">  1        1 0.56472770E-01 0.80789859E+02</pdfrwt>
<pdfrwt beam="2">  1       -1 0.68389260E-03 0.80789859E+02</pdfrwt>
<totfact> 0.18296883E+05</totfact>
</mgrwt>
</event>
<event>
 4    1  0.2165211E+000  0.3794624E+02  0.7546771E-02  0.1523893E+00
         -4   -1    0    0    0  501 -0.00000000000E+00  0.00000000000E+00  0.17128611558E+02  0.17128611558E+02  0.00000000000E+00 0. -1.
          4   -1    0    0  501    0  0.00000000000E+00 -0.00000000000E+00 -0.21016251132E+02  0.21016251132E+02  0.00000000000E+00 0.  1.
        -11    1    1    2    0    0  0.65855185617E+01  0.10369902689E+02  0.12591302294E+02  0.17591044027E+02  0.00000000000E+00 0. -1.
         11    1    1    2    0    0 -0.65855185617E+01 -0.10369902689E+02 -0.16478941869E+02  0.20553818663E+02  0.00000000000E+00 0.  1.
<mgrwt>
<rscale>  0 0.37946236E+02</rscale>
<asrwt>0</asrwt>
<pdfrwt beam="2">  1        4 0.32332694E-02 0.37946236E+02</pdfrwt>
<pdfrwt beam="1">  1       -4 0.26351710E-02 0.37946236E+02</pdfrwt>
<totfact> 0.29295806E+05</totfact>
</mgrwt>
</event>
<event>
 4    1  0.2165211E+000  0.2527363E+02  0.7546771E-02  0.1657102E+00
          4   -1    0    0  501    0  0.00000000000E+00  0.00000000000E+00  0.58013108483E+02  0.58013108483E+02  0.00000000000E+00 0. -1.
         -4   -1    0    0    0  501 -0.00000000000E+00 -0.00000000000E+00 -0.27526380502E+01  0.27526380502E+01  0.00000000000E+00 0.  1.
        -11    1    1    2    0    0  0.10295685922E+02 -0.72591914212E+01  0.25235459687E+02  0.28205060438E+02  0.00000000000E+00 0. -1.
         11    1    1    2    0    0 -0.10295685922E+02  0.72591914212E+01  0.30025010746E+02  0.32560686095E+02  0.00000000000E+00 0.  1.
<mgrwt>
<rscale>  0 0.25273630E+02</rscale>
<asrwt>0</asrwt>
<pdfrwt beam="1">  1        4 0.89250927E-02 0.25273630E+02</pdfrwt>
<pdfrwt beam="2">  1       -4 0.42348282E-03 0.25273630E+02</pdfrwt>
<totfact> 0.68071156E+05</totfact>
</mgrwt>
</event>
<event>
 4    1  0.2165211E+000  0.2018515E+02  0.7546771E-02  0.1741671E+00
          2   -1    0    0  501    0  0.00000000000E+00  0.00000000000E+00  0.31512026342E+01  0.31512026342E+01  0.00000000000E+00 0. -1.
         -2   -1    0    0    0  501 -0.00000000000E+00 -0.00000000000E+00 -0.32324182623E+02  0.32324182623E+02  0.00000000000E+00 0.  1.
        -13    1    1    2    0    0  0.53969157756E+01  0.84937094158E+01 -0.15936736761E+02  0.18848060328E+02  0.00000000000E+00 0. -1.
         13    1    1    2    0    0 -0.53969157756E+01 -0.84937094158E+01 -0.13236243228E+02  0.16627324930E+02  0.00000000000E+00 0.  1.
<mgrwt>
<rscale>  0 0.20185148E+02</rscale>
<asrwt>0</asrwt>
<pdfrwt beam="1">  1        2 0.48480040E-03 0.20185148E+02</pdfrwt>
<pdfrwt beam="2">  1       -2 0.49729512E-02 0.20185148E+02</pdfrwt>
<totfact> 0.35071402E+06</totfact>
</mgrwt>
</event>
<event>
 4    1  0.2165211E+000  0.2532797E+02  0.7546771E-02  0.1656335E+00
         -2   -1    0    0    0  501 -0.00000000000E+00  0.00000000000E+00  0.12565580760E+02  0.12565580760E+02  0.00000000000E+00 0.  1.
          2   -1    0    0  501    0  0.00000000000E+00 -0.00000000000E+00 -0.12763156881E+02  0.12763156881E+02  0.00000000000E+00 0. -1.
        -13    1    1    2    0    0  0.12368789636E+02  0.25987251755E+01 -0.89640177951E+00  0.12670590584E+02  0.00000000000E+00 0. -1.
         13    1    1    2    0    0 -0.12368789636E+02 -0.25987251755E+01  0.69882565897E+00  0.12658147057E+02  0.00000000000E+00 0.  1.
<mgrwt>
<rscale>  0 0.25327967E+02</rscale>
<asrwt>0</asrwt>
<pdfrwt beam="2">  1        2 0.19635626E-02 0.25327967E+02</pdfrwt>
<pdfrwt beam="1">  1       -2 0.19331663E-02 0.25327967E+02</pdfrwt>
<totfact> 0.23194374E+06</totfact>
</mgrwt>
</event>
<event>
 4    1  0.2165211E+000  0.3713524E+02  0.7546771E-02  0.1530417E+00
         -2   -1    0    0    0  501 -0.00000000000E+00  0.00000000000E+00  0.17330735814E+01  0.17330735814E+01  0.00000000000E+00 0. -1.
          2   -1    0    0  501    0  0.00000000000E+00 -0.00000000000E+00 -0.19892779067E+03  0.19892779067E+03  0.00000000000E+00 0.  1.
        -11    1    1    2    0    0 -0.28843209707E+01 -0.18320611679E+02 -0.10340733439E+03  0.10505732209E+03  0.00000000000E+00 0.  1.
         11    1    1    2    0    0  0.28843209707E+01  0.18320611679E+02 -0.93787382708E+02  0.95603542168E+02  0.00000000000E+00 0. -1.
<mgrwt>
<rscale>  0 0.37135239E+02</rscale>
<asrwt>0</asrwt>
<pdfrwt beam="2">  1        2 0.30604264E-01 0.37135239E+02</pdfrwt>
<pdfrwt beam="1">  1       -2 0.26662681E-03 0.37135239E+02</pdfrwt>
<totfact> 0.15261047E+06</totfact>
</mgrwt>
</event>
<event>
 4    1  0.2165211E+000  0.2261408E+02  0.7546771E-02  0.1697843E+00
          4   -1    0    0  501    0  0.00000000000E+00  0.00000000000E+00  0.56239452077E+02  0.56239452077E+02  0.00000000000E+00 0. -1.
         -4   -1    0    0    0  501 -0.00000000000E+00 -0.00000000000E+00 -0.22733003277E+01  0.22733003277E+01  0.00000000000E+00 0.  1.
        -13    1    1    2    0    0 -0.85637609228E+01  0.71954876523E+01  0.22703120461E+02  0.25308985012E+02  0.00000000000E+00 0. -1.
         13    1    1    2    0    0  0.85637609228E+01 -0.71954876523E+01  0.31263031289E+02  0.33203767393E+02  0.00000000000E+00 0.  1.
<mgrwt>
<rscale>  0 0.22614081E+02</rscale>
<asrwt>0</asrwt>
<pdfrwt beam="1">  1        4 0.86522224E-02 0.22614081E+02</pdfrwt>
<pdfrwt beam="2">  1       -4 0.34973855E-03 0.22614081E+02</pdfrwt>
<totfact> 0.86826201E+05</totfact>
</mgrwt>
</event>
<event>
 4    1  0.2165211E+000  0.2088466E+02  0.7546771E-02  0.1728287E+00
          2   -1    0    0  501    0  0.00000000000E+00  0.00000000000E+00  0.18131437783E+02  0.18131437783E+02  0.00000000000E+00 0. -1.
         -2   -1    0    0    0  501 -0.00000000000E+00 -0.00000000000E+00 -0.60139876156E+01  0.60139876156E+01  0.00000000000E+00 0.  1.
        -11    1    1    2    0    0 -0.32703147971E+01  0.99130718605E+01  0.57352358899E+01  0.11910368730E+02  0.00000000000E+00 0. -1.
         11    1    1    2    0    0  0.32703147971E+01 -0.99130718605E+01  0.63822142773E+01  0.12235056668E+02  0.00000000000E+00 0.  1.
<mgrwt>
<rscale>  0 0.20884659E+02</rscale>
<asrwt>0</asrwt>
<pdfrwt beam="1">  1        2 0.27894519E-02 0.20884659E+02</pdfrwt>
<pdfrwt beam="2">  1       -2 0.92522887E-03 0.20884659E+02</pdfrwt>
<totfact> 0.37458895E+06</totfact>
</mgrwt>
</event>
<event>
 4    1  0.2165211E+000  0.2306812E+02  0.7546771E-02  0.1690408E+00
         -1   -1    0    0    0  501 -0.00000000000E+00  0.00000000000E+00  0.14046192600E+01  0.14046192600E+01  0.00000000000E+00 0.  1.
          1   -1    0    0  501    0  0.00000000000E+00 -0.00000000000E+00 -0.94712153130E+02  0.94712153130E+02  0.00000000000E+00 0. -1.
        -11    1    1    2    0    0 -0.10832576176E+02  0.11461483053E+01 -0.62451993763E+02  0.63394872723E+02  0.00000000000E+00 0. -1.
         11    1    1    2    0    0  0.10832576176E+02 -0.11461483053E+01 -0.30855540107E+02  0.32721899668E+02  0.00000000000E+00 0.  1.
<mgrwt>
<rscale>  0 0.23068118E+02</rscale>
<asrwt>0</asrwt>
<pdfrwt beam="2">  1        1 0.14571099E-01 0.23068118E+02</pdfrwt>
<pdfrwt beam="1">  1       -1 0.21609529E-03 0.23068118E+02</pdfrwt>
<totfact> 0.32055754E+06</totfact>
</mgrwt>
</event>
<event>
 4    1  0.2165211E+000  0.4501100E+02  0.7546771E-02  0.1474273E+00
          2   -1    0    0  501    0  0.00000000000E+00  0.00000000000E+00  0.32185371443E+02  0.32185371443E+02  0.00000000000E+00 0. -1.
         -2   -1    0    0    0  501 -0.00000000000E+00 -0.00000000000E+00 -0.15736887216E+02  0.15736887216E+02  0.00000000000E+00 0.  1.
        -11    1    1    2    0    0  0.12079898470E+02 -0.20517795455E+01  0.28322823441E+02  0.30859618825E+02  0.00000000000E+00 0. -1.
         11    1    1    2    0    0 -0.12079898470E+02  0.20517795455E+01 -0.11874339214E+02  0.17062639835E+02  0.00000000000E+00 0.  1.
<mgrwt>
<rscale>  0 0.45011001E+02</rscale>
<asrwt>0</asrwt>
<pdfrwt beam="1">  1        2 0.49515956E-02 0.45011001E+02</pdfrwt>
<pdfrwt beam="2">  1       -2 0.24210596E-02 0.45011001E+02</pdfrwt>
<totfact> 0.62324365E+05</totfact>
</mgrwt>
</event>
<event>
 4    1  0.2165211E+000  0.2053848E+02  0.7546771E-02  0.1734827E+00
          2   -1    0    0  501    0  0.00000000000E+00  0.00000000000E+00  0.47076143072E+01  0.47076143072E+01  0.00000000000E+00 0.  1.
         -2   -1    0    0    0  501 -0.00000000000E+00 -0.00000000000E+00 -0.22401428823E+02  0.22401428823E+02  0.00000000000E+00 0. -1.
        -13    1    1    2    0    0 -0.89023261080E+01  0.46064477924E+01 -0.11794343910E+02  0.15478285424E+02  0.00000000000E+00 0.  1.
         13    1    1    2    0    0  0.89023261080E+01 -0.46064477924E+01 -0.58994706061E+01  0.11630757707E+02  0.00000000000E+00 0. -1.
<mgrwt>
<rscale>  0 0.20538480E+02</rscale>
<asrwt>0</asrwt>
<pdfrwt beam="1">  1        2 0.72424835E-03 0.20538480E+02</pdfrwt>
<pdfrwt beam="2">  1       -2 0.34463737E-02 0.20538480E+02</pdfrwt>
<totfact> 0.34987262E+06</totfact>
</mgrwt>
</event>
<event>
 4    1  0.2165211E+000  0.2055689E+02  0.7546771E-02  0.1734475E+00
         -2   -1    0    0    0  501 -0.00000000000E+00  0.00000000000E+00  0.27283577093E+02  0.27283577093E+02  0.00000000000E+00 0. -1.
          2   -1    0    0  501    0  0.00000000000E+00 -0.00000000000E+00 -0.38721606259E+01  0.38721606259E+01  0.00000000000E+00 0.  1.
        -11    1    1    2    0    0 -0.10024656478E+02  0.52702547431E+00  0.15051997995E+02  0.18092377870E+02  0.00000000000E+00 0. -1.
         11    1    1    2    0    0  0.10024656478E+02 -0.52702547431E+00  0.83594184714E+01  0.13063359848E+02  0.00000000000E+00 0.  1.
<mgrwt>
<rscale>  0 0.20556886E+02</rscale>
<asrwt>0</asrwt>
<pdfrwt beam="2">  1        2 0.59571704E-03 0.20556886E+02</pdfrwt>
<pdfrwt beam="1">  1       -2 0.41974733E-02 0.20556886E+02</pdfrwt>
<totfact> 0.34286793E+06</totfact>
</mgrwt>
</event>
<event>
 4    1  0.2165211E+000  0.6391854E+02  0.7546771E-02  0.1382086E+00
          3   -1    0    0  501    0  0.00000000000E+00  0.00000000000E+00  0.19325206667E+02  0.19325206667E+02  0.00000000000E+00 0. -1.
         -3   -1    0    0    0  501 -0.00000000000E+00 -0.00000000000E+00 -0.52852984669E+02  0.52852984669E+02  0.00000000000E+00 0.  1.
        -13    1    1    2    0    0  0.27368392671E+02 -0.14030149142E+02 -0.69506449370E+01  0.31530706737E+02  0.00000000000E+00 0. -1.
         13    1    1    2    0    0 -0.27368392671E+02  0.14030149142E+02 -0.26577133065E+02  0.40647484599E+02  0.00000000000E+00 0.  1.
<mgrwt>
<rscale>  0 0.63918537E+02</rscale>
<asrwt>0</asrwt>
<pdfrwt beam="1">  1        3 0.29731088E-02 0.63918537E+02</pdfrwt>
<pdfrwt beam="2">  1       -3 0.81312282E-02 0.63918537E+02</pdfrwt>
<totfact> 0.95140229E+04</totfact>
</mgrwt>
</event>
<event>
 4    1  0.2165211E+000  0.5227529E+02  0.7546771E-02  0.1433442E+00
          2   -1    0    0  501    0  0.00000000000E+00  0.00000000000E+00  0.39554901093E+02  0.39554901093E+02  0.00000000000E+00 0. -1.
         -2   -1    0    0    0  501 -0.00000000000E+00 -0.00000000000E+00 -0.17271601961E+02  0.17271601961E+02  0.00000000000E+00 0.  1.
        -13    1    1    2    0    0  0.22988711071E+02 -0.12606117625E+01  0.24592549100E+02  0.33687734415E+02  0.00000000000E+00 0. -1.
         13    1    1    2    0    0 -0.22988711071E+02  0.12606117625E+01 -0.23092499682E+01  0.23138768639E+02  0.00000000000E+00 0.  1.
<mgrwt>
<rscale>  0 0.52275291E+02</rscale>
<asrwt>0</asrwt>
<pdfrwt beam="1">  1        2 0.60853694E-02 0.52275291E+02</pdfrwt>
<pdfrwt beam="2">  1       -2 0.26571695E-02 0.52275291E+02</pdfrwt>
<totfact> 0.43791265E+05</totfact>
</mgrwt>
</event>
<event>
 4    1  0.2165211E+000  0.6883454E+02  0.7546771E-02  0.1364102E+00
          1   -1    0    0  501    0  0.00000000000E+00  0.00000000000E+00  0.10131886111E+03  0.10131886111E+03  0.00000000000E+00 0. -1.
         -1   -1    0    0    0  501 -0.00000000000E+00 -0.00000000000E+00 -0.11691292158E+02  0.11691292158E+02  0.00000000000E+00 0.  1.
        -11    1    1    2    0    0 -0.22600597751E+02  0.62806387726E+01  0.86162644474E+02  0.89298570789E+02  0.00000000000E+00 0. -1.
         11    1    1    2    0    0  0.22600597751E+02 -0.62806387726E+01  0.34649244808E+01  0.23711582481E+02  0.00000000000E+00 0.  1.
<mgrwt>
<rscale>  0 0.68834538E+02</rscale>
<asrwt>0</asrwt>
<pdfrwt beam="1">  1        1 0.15587516E-01 0.68834538E+02</pdfrwt>
<pdfrwt beam="2">  1       -1 0.17986604E-02 0.68834538E+02</pdfrwt>
<totfact> 0.22203048E+05</totfact>
</mgrwt>
</event>
<event>
 4    1  0.2165211E+000  0.4685002E+02  0.7546771E-02  0.1463112E+00
         -1   -1    0    0    0  501 -0.00000000000E+00  0.00000000000E+00  0.15714799970E+02  0.15714799970E+02  0.00000000000E+00 0. -1.
          1   -1    0    0  501    0  0.00000000000E+00 -0.00000000000E+00 -0.34918102830E+02  0.34918102830E+02  0.00000000000E+00 0.  1.
        -13    1    1    2    0    0  0.13132070500E+02  0.18968738962E+02 -0.52160824603E+01  0.23653157287E+02  0.00000000000E+00 0.  1.
         13    1    1    2    0    0 -0.13132070500E+02 -0.18968738962E+02 -0.13987220400E+02  0.26979745513E+02  0.00000000000E+00 0. -1.
<mgrwt>
<rscale>  0 0.46850016E+02</rscale>
<asrwt>0</asrwt>
<pdfrwt beam="2">  1        1 0.53720157E-02 0.46850016E+02</pdfrwt>
<pdfrwt beam="1">  1       -1 0.24176616E-02 0.46850016E+02</pdfrwt>
<totfact> 0.53249141E+05</totfact>
</mgrwt>
</event>
<event>
 4    1  0.2165211E+000  0.5398560E+02  0.7546771E-02  0.1424958E+00
          2   -1    0    0  501    0  0.00000000000E+00  0.00000000000E+00  0.22976703191E+02  0.22976703191E+02  0.00000000000E+00 0.  1.
         -2   -1    0    0    0  501 -0.00000000000E+00 -0.00000000000E+00 -0.31710869003E+02  0.31710869003E+02  0.00000000000E+00 0. -1.
        -13    1    1    2    0    0 -0.20789895475E+02  0.12282821937E+02 -0.16587264720E+02  0.29295474386E+02  0.00000000000E+00 0. -1.
         13    1    1    2    0    0  0.20789895475E+02 -0.12282821937E+02  0.78530989073E+01  0.25392097808E+02  0.00000000000E+00 0.  1.
<mgrwt>
<rscale>  0 0.53985599E+02</rscale>
<asrwt>0</asrwt>
<pdfrwt beam="1">  1        2 0.35348774E-02 0.53985599E+02</pdfrwt>
<pdfrwt beam="2">  1       -2 0.48785952E-02 0.53985599E+02</pdfrwt>
<totfact> 0.36672257E+05</totfact>
</mgrwt>
</event>
<event>
 4    1  0.2165211E+000  0.1180753E+03  0.7546771E-02  0.1246306E+00
         -2   -1    0    0    0  501 -0.00000000000E+00  0.00000000000E+00  0.21087797503E+02  0.21087797503E+02  0.00000000000E+00 0. -1.
          2   -1    0    0  501    0  0.00000000000E+00 -0.00000000000E+00 -0.16528264547E+03  0.16528264547E+03  0.00000000000E+00 0.  1.
        -13    1    1    2    0    0  0.30679363988E+02 -0.14376176958E+02  0.42155143081E+01  0.34141886292E+02  0.00000000000E+00 0. -1.
         13    1    1    2    0    0 -0.30679363988E+02  0.14376176958E+02 -0.14841036227E+03  0.15222855668E+03  0.00000000000E+00 0.  1.
<mgrwt>
<rscale>  0 0.11807535E+03</rscale>
<asrwt>0</asrwt>
<pdfrwt beam="2">  1        2 0.25428098E-01 0.11807535E+03</pdfrwt>
<pdfrwt beam="1">  1       -2 0.32442767E-02 0.11807535E+03</pdfrwt>
<totfact> 0.70926601E+04</totfact>
</mgrwt>
</event>
<event>
 4    1  0.2165211E+000  0.2682940E+02  0.7546771E-02  0.1636036E+00
          2   -1    0    0  501    0  0.00000000000E+00  0.00000000000E+00  0.56752019647E+01  0.56752019647E+01  0.00000000000E+00 0.  1.
         -2   -1    0    0    0  501 -0.00000000000E+00 -0.00000000000E+00 -0.31708866458E+02  0.31708866458E+02  0.00000000000E+00 0. -1.
        -13    1    1    2    0    0  0.46993076585E+00 -0.12046365823E+02 -0.48184266565E+01  0.12982796306E+02  0.00000000000E+00 0.  1.
         13    1    1    2    0    0 -0.46993076585E+00  0.12046365823E+02 -0.21215237837E+02  0.24401272117E+02  0.00000000000E+00 0. -1.
<mgrwt>
<rscale>  0 0.26829403E+02</rscale>
<asrwt>0</asrwt>
<pdfrwt beam="1">  1        2 0.87310800E-03 0.26829403E+02</pdfrwt>
<pdfrwt beam="2">  1       -2 0.48782871E-02 0.26829403E+02</pdfrwt>
<totfact> 0.18643963E+06</totfact>
</mgrwt>
</event>
<event>
 4    1  0.2165211E+000  0.6669537E+02  0.7546771E-02  0.1371705E+00
          1   -1    0    0  501    0  0.00000000000E+00  0.00000000000E+00  0.27721497975E+03  0.27721497975E+03  0.00000000000E+00 0. -1.
         -1   -1    0    0    0  501 -0.00000000000E+00 -0.00000000000E+00 -0.40115725259E+01  0.40115725259E+01  0.00000000000E+00 0.  1.
        -13    1    1    2    0    0  0.40472488143E+01 -0.32438059796E+02  0.16439920544E+03  0.16761773980E+03  0.00000000000E+00 0. -1.
         13    1    1    2    0    0 -0.40472488143E+01  0.32438059796E+02  0.10880420178E+03  0.11360881247E+03  0.00000000000E+00 0.  1.
<mgrwt>
<rscale>  0 0.66695367E+02</rscale>
<asrwt>0</asrwt>
<pdfrwt beam="1">  1        1 0.42648443E-01 0.66695367E+02</pdfrwt>
<pdfrwt beam="2">  1       -1 0.61716522E-03 0.66695367E+02</pdfrwt>
<totfact> 0.28653749E+05</totfact>
</mgrwt>
</event>
<event>
 4    1  0.2165211E+000  0.2820995E+02  0.7546771E-02  0.1618762E+00
          2   -1    0    0  501    0  0.00000000000E+00  0.00000000000E+00  0.58005259287E+01  0.58005259287E+01  0.00000000000E+00 0.  1.
         -2   -1    0    0    0  501 -0.00000000000E+00 -0.00000000000E+00 -0.34298671154E+02  0.34298671154E+02  0.00000000000E+00 0. -1.
        -13    1    1    2    0    0 -0.13542976028E+00 -0.13720644466E+02 -0.96046074537E+01  0.16748818171E+02  0.00000000000E+00 0.  1.
         13    1    1    2    0    0  0.13542976028E+00  0.13720644466E+02 -0.18893537772E+02  0.23350378912E+02  0.00000000000E+00 0. -1.
<mgrwt>
<rscale>  0 0.28209951E+02</rscale>
<asrwt>0</asrwt>
<pdfrwt beam="1">  1        2 0.89238856E-03 0.28209951E+02</pdfrwt>
<pdfrwt beam="2">  1       -2 0.52767189E-02 0.28209951E+02</pdfrwt>
<totfact> 0.16483861E+06</totfact>
</mgrwt>
</event>
<event>
 4    1  0.2165211E+000  0.2597069E+02  0.7546771E-02  0.1647439E+00
         -1   -1    0    0    0  501 -0.00000000000E+00  0.00000000000E+00  0.30178008113E+01  0.30178008113E+01  0.00000000000E+00 0.  1.
          1   -1    0    0  501    0  0.00000000000E+00 -0.00000000000E+00 -0.55874855063E+02  0.55874855063E+02  0.00000000000E+00 0. -1.
        -13    1    1    2    0    0  0.35684616784E+01 -0.10595231919E+02 -0.41406463045E+02  0.42889253200E+02  0.00000000000E+00 0. -1.
         13    1    1    2    0    0 -0.35684616784E+01  0.10595231919E+02 -0.11450591207E+02  0.16003402674E+02  0.00000000000E+00 0.  1.
<mgrwt>
<rscale>  0 0.25970690E+02</rscale>
<asrwt>0</asrwt>
<pdfrwt beam="2">  1        1 0.85961307E-02 0.25970690E+02</pdfrwt>
<pdfrwt beam="1">  1       -1 0.46427709E-03 0.25970690E+02</pdfrwt>
<totfact> 0.23234146E+06</totfact>
</mgrwt>
</event>
<event>
 4    1  0.2165211E+000  0.2611763E+02  0.7546771E-02  0.1645449E+00
          4   -1    0    0  501    0  0.00000000000E+00  0.00000000000E+00  0.11299104456E+02  0.11299104456E+02  0.00000000000E+00 0. -1.
         -4   -1    0    0    0  501 -0.00000000000E+00 -0.00000000000E+00 -0.15092582501E+02  0.15092582501E+02  0.00000000000E+00 0.  1.
        -13    1    1    2    0    0 -0.12443991993E+02  0.38078217130E+01 -0.29945193733E+01  0.13353635804E+02  0.00000000000E+00 0. -1.
         13    1    1    2    0    0  0.12443991993E+02 -0.38078217130E+01 -0.79895867172E+00  0.13038051153E+02  0.00000000000E+00 0.  1.
<mgrwt>
<rscale>  0 0.26117631E+02</rscale>
<asrwt>0</asrwt>
<pdfrwt beam="1">  1        4 0.17383238E-02 0.26117631E+02</pdfrwt>
<pdfrwt beam="2">  1       -4 0.23219358E-02 0.26117631E+02</pdfrwt>
<totfact> 0.71861230E+05</totfact>
</mgrwt>
</event>
<event>
 4    1  0.2165211E+000  0.9179521E+02  0.7546771E-02  0.1298562E+00
          1   -1    0    0  501    0  0.00000000000E+00  0.00000000000E+00  0.22989131670E+02  0.22989131670E+02  0.00000000000E+00 0. -1.
         -1   -1    0    0    0  501 -0.00000000000E+00 -0.00000000000E+00 -0.91634173319E+02  0.91634173319E+02  0.00000000000E+00 0.  1.
        -11    1    1    2    0    0 -0.35103978394E+02  0.12560430513E+02 -0.89747347449E+00  0.37294224384E+02  0.00000000000E+00 0. -1.
         11    1    1    2    0    0  0.35103978394E+02 -0.12560430513E+02 -0.67747568174E+02  0.77329080606E+02  0.00000000000E+00 0.  1.
<mgrwt>
<rscale>  0 0.91795209E+02</rscale>
<asrwt>0</asrwt>
<pdfrwt beam="1">  1        1 0.35367895E-02 0.91795209E+02</pdfrwt>
<pdfrwt beam="2">  1       -1 0.14097565E-01 0.91795209E+02</pdfrwt>
<totfact> 0.81251637E+04</totfact>
</mgrwt>
</event>
<event>
 4    1  0.2165211E+000  0.5475911E+02  0.7546771E-02  0.1421242E+00
          3   -1    0    0  501    0  0.00000000000E+00  0.00000000000E+00  0.18235190017E+02  0.18235190017E+02  0.00000000000E+00 0. -1.
         -3   -1    0    0    0  501 -0.00000000000E+00 -0.00000000000E+00 -0.41109528398E+02  0.41109528398E+02  0.00000000000E+00 0.  1.
        -11    1    1    2    0    0  0.10283424438E+02 -0.16708342896E+02  0.92598105555E+01  0.21694737427E+02  0.00000000000E+00 0. -1.
         11    1    1    2    0    0 -0.10283424438E+02  0.16708342896E+02 -0.32134148936E+02  0.37649980988E+02  0.00000000000E+00 0.  1.
<mgrwt>
<rscale>  0 0.54759111E+02</rscale>
<asrwt>0</asrwt>
<pdfrwt beam="1">  1        3 0.28054139E-02 0.54759111E+02</pdfrwt>
<pdfrwt beam="2">  1       -3 0.63245428E-02 0.54759111E+02</pdfrwt>
<totfact> 0.14640621E+05</totfact>
</mgrwt>
</event>
<event>
 4    1  0.2165211E+000  0.2279661E+02  0.7546771E-02  0.1694828E+00
         -4   -1    0    0    0  501 -0.00000000000E+00  0.00000000000E+00  0.23296691812E+02  0.23296691812E+02  0.00000000000E+00 0. -1.
          4   -1    0    0  501    0  0.00000000000E+00 -0.00000000000E+00 -0.55768136854E+01  0.55768136854E+01  0.00000000000E+00 0.  1.
        -13    1    1    2    0    0  0.10139374524E+02  0.51822562299E+01  0.82158355981E+01  0.14041461817E+02  0.00000000000E+00 0.  1.
         13    1    1    2    0    0 -0.10139374524E+02 -0.51822562299E+01  0.95040425285E+01  0.14832043681E+02  0.00000000000E+00 0. -1.
<mgrwt>
<rscale>  0 0.22796606E+02</rscale>
<asrwt>0</asrwt>
<pdfrwt beam="2">  1        4 0.85797135E-03 0.22796606E+02</pdfrwt>
<pdfrwt beam="1">  1       -4 0.35841064E-02 0.22796606E+02</pdfrwt>
<totfact> 0.95347681E+05</totfact>
</mgrwt>
</event>
<event>
 4    1  0.2165211E+000  0.2278093E+02  0.7546771E-02  0.1695086E+00
          2   -1    0    0  501    0  0.00000000000E+00  0.00000000000E+00  0.20030670679E+02  0.20030670679E+02  0.00000000000E+00 0.  1.
         -2   -1    0    0    0  501 -0.00000000000E+00 -0.00000000000E+00 -0.64772005680E+01  0.64772005680E+01  0.00000000000E+00 0. -1.
        -11    1    1    2    0    0 -0.88313058619E+01 -0.50857162453E+01  0.12696951402E+02  0.16280941246E+02  0.00000000000E+00 0.  1.
         11    1    1    2    0    0  0.88313058619E+01  0.50857162453E+01  0.85651870950E+00  0.10226930001E+02  0.00000000000E+00 0. -1.
<mgrwt>
<rscale>  0 0.22780928E+02</rscale>
<asrwt>0</asrwt>
<pdfrwt beam="1">  1        2 0.30816416E-02 0.22780928E+02</pdfrwt>
<pdfrwt beam="2">  1       -2 0.99649241E-03 0.22780928E+02</pdfrwt>
<totfact> 0.30962412E+06</totfact>
</mgrwt>
</event>
<event>
 4    1  0.2165211E+000  0.2394358E+02  0.7546771E-02  0.1676656E+00
         -3   -1    0    0    0  501 -0.00000000000E+00  0.00000000000E+00  0.29248847790E+02  0.29248847790E+02  0.00000000000E+00 0. -1.
          3   -1    0    0  501    0  0.00000000000E+00 -0.00000000000E+00 -0.49001514511E+01  0.49001514511E+01  0.00000000000E+00 0.  1.
        -13    1    1    2    0    0  0.10718365747E+02 -0.52406381452E+01  0.10765244283E+02  0.16069789573E+02  0.00000000000E+00 0.  1.
         13    1    1    2    0    0 -0.10718365747E+02  0.52406381452E+01  0.13583452057E+02  0.18079209668E+02  0.00000000000E+00 0. -1.
<mgrwt>
<rscale>  0 0.23943582E+02</rscale>
<asrwt>0</asrwt>
<pdfrwt beam="2">  1        3 0.75386947E-03 0.23943582E+02</pdfrwt>
<pdfrwt beam="1">  1       -3 0.44998226E-02 0.23943582E+02</pdfrwt>
<totfact> 0.11472698E+06</totfact>
</mgrwt>
</event>
<event>
 4    1  0.2165211E+000  0.3484417E+02  0.7546771E-02  0.1549989E+00
         -4   -1    0    0    0  501 -0.00000000000E+00  0.00000000000E+00  0.14171685238E+02  0.14171685238E+02  0.00000000000E+00 0.  1.
          4   -1    0    0  501    0  0.00000000000E+00 -0.00000000000E+00 -0.21417987675E+02  0.21417987675E+02  0.00000000000E+00 0. -1.
        -13    1    1    2    0    0 -0.14884430179E+02  0.79507840067E+01  0.80171397775E+00  0.16893903438E+02  0.00000000000E+00 0. -1.
         13    1    1    2    0    0  0.14884430179E+02 -0.79507840067E+01 -0.80480164146E+01  0.18695769476E+02  0.00000000000E+00 0.  1.
<mgrwt>
<rscale>  0 0.34844166E+02</rscale>
<asrwt>0</asrwt>
<pdfrwt beam="2">  1        4 0.32950750E-02 0.34844166E+02</pdfrwt>
<pdfrwt beam="1">  1       -4 0.21802593E-02 0.34844166E+02</pdfrwt>
<totfact> 0.36131748E+05</totfact>
</mgrwt>
</event>
<event>
 4    1  0.2165211E+000  0.3654235E+02  0.7546771E-02  0.1535316E+00
         -4   -1    0    0    0  501 -0.00000000000E+00  0.00000000000E+00  0.25020175693E+02  0.25020175693E+02  0.00000000000E+00 0.  1.
          4   -1    0    0  501    0  0.00000000000E+00 -0.00000000000E+00 -0.13342666489E+02  0.13342666489E+02  0.00000000000E+00 0. -1.
        -11    1    1    2    0    0 -0.15596128759E+02 -0.46031826059E+01 -0.29073965556E+01  0.16519124587E+02  0.00000000000E+00 0. -1.
         11    1    1    2    0    0  0.15596128759E+02  0.46031826059E+01  0.14584905760E+02  0.21843717596E+02  0.00000000000E+00 0.  1.
<mgrwt>
<rscale>  0 0.36542351E+02</rscale>
<asrwt>0</asrwt>
<pdfrwt beam="2">  1        4 0.20527179E-02 0.36542351E+02</pdfrwt>
<pdfrwt beam="1">  1       -4 0.38492578E-02 0.36542351E+02</pdfrwt>
<totfact> 0.32003184E+05</totfact>
</mgrwt>
</event>
<event>
 4    1  0.2165211E+000  0.2892829E+02  0.7546771E-02  0.1610246E+00
          2   -1    0    0  501    0  0.00000000000E+00  0.00000000000E+00  0.89100048331E+02  0.89100048331E+02  0.00000000000E+00 0.  1.
         -2   -1    0    0    0  501 -0.00000000000E+00 -0.00000000000E+00 -0.23480518485E+01  0.23480518485E+01  0.00000000000E+00 0. -1.
        -13    1    1    2    0    0 -0.13398642270E+02 -0.21071844953E+01  0.59260102270E+02  0.60792463038E+02  0.00000000000E+00 0.  1.
         13    1    1    2    0    0  0.13398642270E+02  0.21071844953E+01  0.27491894212E+02  0.30655637142E+02  0.00000000000E+00 0. -1.
<mgrwt>
<rscale>  0 0.28928293E+02</rscale>
<asrwt>0</asrwt>
<pdfrwt beam="1">  1        2 0.13707697E-01 0.28928293E+02</pdfrwt>
<pdfrwt beam="2">  1       -2 0.36123881E-03 0.28928293E+02</pdfrwt>
<totfact> 0.22159601E+06</totfact>
</mgrwt>
</event>
<event>
 4    1  0.2165211E+000  0.2100818E+02  0.7546771E-02  0.1725992E+00
         -4   -1    0    0    0  501 -0.00000000000E+00  0.00000000000E+00  0.16131061099E+02  0.16131061099E+02  0.00000000000E+00 0. -1.
          4   -1    0    0  501    0  0.00000000000E+00 -0.00000000000E+00 -0.68399650160E+01  0.68399650160E+01  0.00000000000E+00 0.  1.
        -11    1    1    2    0    0 -0.10201120712E+02 -0.16255303045E+01  0.67290122296E+01  0.12328212285E+02  0.00000000000E+00 0. -1.
         11    1    1    2    0    0  0.10201120712E+02  0.16255303045E+01  0.25620838530E+01  0.10642813830E+02  0.00000000000E+00 0.  1.
<mgrwt>
<rscale>  0 0.21008179E+02</rscale>
<asrwt>0</asrwt>
<pdfrwt beam="2">  1        4 0.10523023E-02 0.21008179E+02</pdfrwt>
<pdfrwt beam="1">  1       -4 0.24817017E-02 0.21008179E+02</pdfrwt>
<totfact> 0.11602977E+06</totfact>
</mgrwt>
</event>
<event>
 4    1  0.2165211E+000  0.9753696E+02  0.7546771E-02  0.1285562E+00
          2   -1    0    0  501    0  0.00000000000E+00  0.00000000000E+00  0.16364642514E+03  0.16364642514E+03  0.00000000000E+00 0. -1.
         -2   -1    0    0    0  501 -0.00000000000E+00 -0.00000000000E+00 -0.14533556041E+02  0.14533556041E+02  0.00000000000E+00 0.  1.
        -11    1    1    2    0    0  0.51076088589E+01  0.47156360349E+02  0.53843895004E+02  0.71756358734E+02  0.00000000000E+00 0.  1.
         11    1    1    2    0    0 -0.51076088589E+01 -0.47156360349E+02  0.95268974099E+02  0.10642362245E+03  0.00000000000E+00 0. -1.
<mgrwt>
<rscale>  0 0.97536957E+02</rscale>
<asrwt>0</asrwt>
<pdfrwt beam="1">  1        2 0.25176372E-01 0.97536957E+02</pdfrwt>
<pdfrwt beam="2">  1       -2 0.22359318E-02 0.97536957E+02</pdfrwt>
<totfact> 0.11991037E+05</totfact>
</mgrwt>
</event>
<event>
 4    1  0.2165211E+000  0.2292990E+02  0.7546771E-02  0.1692649E+00
          4   -1    0    0  501    0  0.00000000000E+00  0.00000000000E+00  0.80364462544E+01  0.80364462544E+01  0.00000000000E+00 0. -1.
         -4   -1    0    0    0  501 -0.00000000000E+00 -0.00000000000E+00 -0.16356113186E+02  0.16356113186E+02  0.00000000000E+00 0.  1.
        -13    1    1    2    0    0 -0.24306278262E+01  0.10887949295E+02 -0.13473984975E+01  0.11237031378E+02  0.00000000000E+00 0.  1.
         13    1    1    2    0    0  0.24306278262E+01 -0.10887949295E+02 -0.69722684337E+01  0.13155528062E+02  0.00000000000E+00 0. -1.
<mgrwt>
<rscale>  0 0.22929895E+02</rscale>
<asrwt>0</asrwt>
<pdfrwt beam="1">  1        4 0.12363764E-02 0.22929895E+02</pdfrwt>
<pdfrwt beam="2">  1       -4 0.25163251E-02 0.22929895E+02</pdfrwt>
<totfact> 0.95965549E+05</totfact>
</mgrwt>
</event>
<event>
 4    1  0.2165211E+000  0.2639603E+02  0.7546771E-02  0.1641724E+00
          2   -1    0    0  501    0  0.00000000000E+00  0.00000000000E+00  0.60517054365E+01  0.60517054365E+01  0.00000000000E+00 0.  1.
         -2   -1    0    0    0  501 -0.00000000000E+00 -0.00000000000E+00 -0.28783221659E+02  0.28783221659E+02  0.00000000000E+00 0. -1.
        -13    1    1    2    0    0  0.37041780384E+01  0.12547328968E+02 -0.90681171280E+01  0.15918138943E+02  0.00000000000E+00 0. -1.
         13    1    1    2    0    0 -0.37041780384E+01 -0.12547328968E+02 -0.13663399094E+02  0.18916788152E+02  0.00000000000E+00 0.  1.
<mgrwt>
<rscale>  0 0.26396028E+02</rscale>
<asrwt>0</asrwt>
<pdfrwt beam="1">  1        2 0.93103162E-03 0.26396028E+02</pdfrwt>
<pdfrwt beam="2">  1       -2 0.44281879E-02 0.26396028E+02</pdfrwt>
<totfact> 0.19551328E+06</totfact>
</mgrwt>
</event>
<event>
 4    1  0.2165211E+000  0.2301813E+02  0.7546771E-02  0.1691216E+00
          1   -1    0    0  501    0  0.00000000000E+00  0.00000000000E+00  0.32175004694E+02  0.32175004694E+02  0.00000000000E+00 0.  1.
         -1   -1    0    0    0  501 -0.00000000000E+00 -0.00000000000E+00 -0.41168151348E+01  0.41168151348E+01  0.00000000000E+00 0. -1.
        -11    1    1    2    0    0  0.10577792296E+02  0.15844595640E+01  0.20729139832E+02  0.23325896342E+02  0.00000000000E+00 0.  1.
         11    1    1    2    0    0 -0.10577792296E+02 -0.15844595640E+01  0.73290497269E+01  0.12965923487E+02  0.00000000000E+00 0. -1.
<mgrwt>
<rscale>  0 0.23018127E+02</rscale>
<asrwt>0</asrwt>
<pdfrwt beam="1">  1        1 0.49500006E-02 0.23018127E+02</pdfrwt>
<pdfrwt beam="2">  1       -1 0.63335620E-03 0.23018127E+02</pdfrwt>
<totfact> 0.29548766E+06</totfact>
</mgrwt>
</event>
<event>
 4    1  0.2165211E+000  0.3180973E+02  0.7546771E-02  0.1578905E+00
          2   -1    0    0  501    0  0.00000000000E+00  0.00000000000E+00  0.71135841154E+01  0.71135841154E+01  0.00000000000E+00 0.  1.
         -2   -1    0    0    0  501 -0.00000000000E+00 -0.00000000000E+00 -0.35560796897E+02  0.35560796897E+02  0.00000000000E+00 0. -1.
        -13    1    1    2    0    0 -0.11571346578E+02 -0.60403829912E+01 -0.20322763076E+01  0.13210315488E+02  0.00000000000E+00 0.  1.
         13    1    1    2    0    0  0.11571346578E+02  0.60403829912E+01 -0.26414936474E+02  0.29464065525E+02  0.00000000000E+00 0. -1.
<mgrwt>
<rscale>  0 0.31809729E+02</rscale>
<asrwt>0</asrwt>
<pdfrwt beam="1">  1        2 0.10943975E-02 0.31809729E+02</pdfrwt>
<pdfrwt beam="2">  1       -2 0.54708919E-02 0.31809729E+02</pdfrwt>
<totfact> 0.12456872E+06</totfact>
</mgrwt>
</event>
<event>
 4    1  0.2165211E+000  0.3770810E+02  0.7546771E-02  0.1525788E+00
          2   -1    0    0  501    0  0.00000000000E+00  0.00000000000E+00  0.54640420459E+01  0.54640420459E+01  0.00000000000E+00 0.  1.
         -2   -1    0    0    0  501 -0.00000000000E+00 -0.00000000000E+00 -0.65057180654E+02  0.65057180654E+02  0.00000000000E+00 0. -1.
        -11    1    1    2    0    0 -0.44520712534E+01  0.10744812517E+02 -0.57548745919E+02  0.58712265255E+02  0.00000000000E+00 0. -1.
         11    1    1    2    0    0  0.44520712534E+01 -0.10744812517E+02 -0.20443926885E+01  0.11808957445E+02  0.00000000000E+00 0.  1.
<mgrwt>
<rscale>  0 0.37708098E+02</rscale>
<asrwt>0</asrwt>
<pdfrwt beam="1">  1        2 0.84062182E-03 0.37708098E+02</pdfrwt>
<pdfrwt beam="2">  1       -2 0.10008797E-01 0.37708098E+02</pdfrwt>
<totfact> 0.76334403E+05</totfact>
</mgrwt>
</event>
<event>
 4    1  0.2165211E+000  0.2623148E+02  0.7546771E-02  0.1643919E+00
         -2   -1    0    0    0  501 -0.00000000000E+00  0.00000000000E+00  0.22403712823E+02  0.22403712823E+02  0.00000000000E+00 0. -1.
          2   -1    0    0  501    0  0.00000000000E+00 -0.00000000000E+00 -0.76783104627E+01  0.76783104627E+01  0.00000000000E+00 0.  1.
        -13    1    1    2    0    0 -0.20061751274E+01  0.12370153783E+02  0.29245733259E+01  0.12868510885E+02  0.00000000000E+00 0.  1.
         13    1    1    2    0    0  0.20061751274E+01 -0.12370153783E+02  0.11800829035E+02  0.17213512401E+02  0.00000000000E+00 0. -1.
<mgrwt>
<rscale>  0 0.26231482E+02</rscale>
<asrwt>0</asrwt>
<pdfrwt beam="2">  1        2 0.11812785E-02 0.26231482E+02</pdfrwt>
<pdfrwt beam="1">  1       -2 0.34467250E-02 0.26231482E+02</pdfrwt>
<totfact> 0.20343473E+06</totfact>
</mgrwt>
</event>
<event>
 4    1  0.2165211E+000  0.3312084E+02  0.7546771E-02  0.1565950E+00
          2   -1    0    0  501    0  0.00000000000E+00  0.00000000000E+00  0.35275788506E+02  0.35275788506E+02  0.00000000000E+00 0. -1.
         -2   -1    0    0    0  501 -0.00000000000E+00 -0.00000000000E+00 -0.77743813674E+01  0.77743813674E+01  0.00000000000E+00 0.  1.
        -11    1    1    2    0    0  0.62840296950E+01  0.10992820643E+02 -0.12217292111E+00  0.12662782519E+02  0.00000000000E+00 0.  1.
         11    1    1    2    0    0 -0.62840296950E+01 -0.10992820643E+02  0.27623580060E+02  0.30387387354E+02  0.00000000000E+00 0. -1.
<mgrwt>
<rscale>  0 0.33120835E+02</rscale>
<asrwt>0</asrwt>
<pdfrwt beam="1">  1        2 0.54270443E-02 0.33120835E+02</pdfrwt>
<pdfrwt beam="2">  1       -2 0.11960587E-02 0.33120835E+02</pdfrwt>
<totfact> 0.13591784E+06</totfact>
</mgrwt>
</event>
<event>
 4    1  0.2165211E+000  0.2418909E+02  0.7546771E-02  0.1672930E+00
         -1   -1    0    0    0  501 -0.00000000000E+00  0.00000000000E+00  0.13741347266E+01  0.13741347266E+01  0.00000000000E+00 0.  1.
          1   -1    0    0  501    0  0.00000000000E+00 -0.00000000000E+00 -0.10645096552E+03  0.10645096552E+03  0.00000000000E+00 0. -1.
        -11    1    1    2    0    0  0.78577702797E+01 -0.90037982625E+01 -0.44240786498E+02  0.45826412983E+02  0.00000000000E+00 0.  1.
         11    1    1    2    0    0 -0.78577702797E+01  0.90037982625E+01 -0.60836044295E+02  0.61998687264E+02  0.00000000000E+00 0. -1.
<mgrwt>
<rscale>  0 0.24189086E+02</rscale>
<asrwt>0</asrwt>
<pdfrwt beam="2">  1        1 0.16377072E-01 0.24189086E+02</pdfrwt>
<pdfrwt beam="1">  1       -1 0.21140534E-03 0.24189086E+02</pdfrwt>
<totfact> 0.29168115E+06</totfact>
</mgrwt>
</event>
<event>
 4    1  0.2165211E+000  0.2043626E+02  0.7546771E-02  0.1736789E+00
          2   -1    0    0  501    0  0.00000000000E+00  0.00000000000E+00  0.11389567133E+01  0.11389567133E+01  0.00000000000E+00 0.  1.
         -2   -1    0    0    0  501 -0.00000000000E+00 -0.00000000000E+00 -0.91671746634E+02  0.91671746634E+02  0.00000000000E+00 0. -1.
        -11    1    1    2    0    0  0.23421839315E+01  0.97827894518E+01 -0.37115297578E+02  0.38454311973E+02  0.00000000000E+00 0.  1.
         11    1    1    2    0    0 -0.23421839315E+01 -0.97827894518E+01 -0.53417492343E+02  0.54356391375E+02  0.00000000000E+00 0. -1.
<mgrwt>
<rscale>  0 0.20436257E+02</rscale>
<asrwt>0</asrwt>
<pdfrwt beam="1">  1        2 0.17522410E-03 0.20436257E+02</pdfrwt>
<pdfrwt beam="2">  1       -2 0.14103347E-01 0.20436257E+02</pdfrwt>
<totfact> 0.28949729E+06</totfact>
</mgrwt>
</event>
<event>
 4    1  0.2165211E+000  0.2802832E+02  0.7546771E-02  0.1620965E+00
         -2   -1    0    0    0  501 -0.00000000000E+00  0.00000000000E+00  0.18975268627E+01  0.18975268627E+01  0.00000000000E+00 0.  1.
          2   -1    0    0  501    0  0.00000000000E+00 -0.00000000000E+00 -0.10350140948E+03  0.10350140948E+03  0.00000000000E+00 0. -1.
        -13    1    1    2    0    0 -0.12298606265E+02  0.22753892641E+01 -0.74574251843E+02  0.75615819445E+02  0.00000000000E+00 0. -1.
         13    1    1    2    0    0  0.12298606265E+02 -0.22753892641E+01 -0.27029630775E+02  0.29783116899E+02  0.00000000000E+00 0.  1.
<mgrwt>
<rscale>  0 0.28028322E+02</rscale>
<asrwt>0</asrwt>
<pdfrwt beam="2">  1        2 0.15923290E-01 0.28028322E+02</pdfrwt>
<pdfrwt beam="1">  1       -2 0.29192728E-03 0.28028322E+02</pdfrwt>
<totfact> 0.24712165E+06</totfact>
</mgrwt>
</event>
<event>
 4    1  0.2165211E+000  0.4530967E+02  0.7546771E-02  0.1472418E+00
          2   -1    0    0  501    0  0.00000000000E+00  0.00000000000E+00  0.16060336036E+02  0.16060336036E+02  0.00000000000E+00 0. -1.
         -2   -1    0    0    0  501 -0.00000000000E+00 -0.00000000000E+00 -0.31957089880E+02  0.31957089880E+02  0.00000000000E+00 0.  1.
        -13    1    1    2    0    0  0.71807681008E+01  0.14393393963E+02  0.89583289881E+01  0.18411541993E+02  0.00000000000E+00 0. -1.
         13    1    1    2    0    0 -0.71807681008E+01 -0.14393393963E+02 -0.24855082832E+02  0.29605883923E+02  0.00000000000E+00 0.  1.
<mgrwt>
<rscale>  0 0.45309672E+02</rscale>
<asrwt>0</asrwt>
<pdfrwt beam="1">  1        2 0.24708209E-02 0.45309672E+02</pdfrwt>
<pdfrwt beam="2">  1       -2 0.49164754E-02 0.45309672E+02</pdfrwt>
<totfact> 0.55328603E+05</totfact>
</mgrwt>
</event>
<event>
 4    1  0.2165211E+000  0.3039851E+02  0.7546771E-02  0.1593725E+00
         -1   -1    0    0    0  501 -0.00000000000E+00  0.00000000000E+00  0.29978862309E+01  0.29978862309E+01  0.00000000000E+00 0. -1.
          1   -1    0    0  501    0  0.00000000000E+00 -0.00000000000E+00 -0.77060082512E+02  0.77060082512E+02  0.00000000000E+00 0.  1.
        -11    1    1    2    0    0  0.87152170949E+01  0.11588296200E+02 -0.49034646165E+02  0.51133552021E+02  0.00000000000E+00 0.  1.
         11    1    1    2    0    0 -0.87152170949E+01 -0.11588296200E+02 -0.25027550116E+02  0.28924416721E+02  0.00000000000E+00 0. -1.
<mgrwt>
<rscale>  0 0.30398511E+02</rscale>
<asrwt>0</asrwt>
<pdfrwt beam="2">  1        1 0.11855398E-01 0.30398511E+02</pdfrwt>
<pdfrwt beam="1">  1       -1 0.46121325E-03 0.30398511E+02</pdfrwt>
<totfact> 0.16549422E+06</totfact>
</mgrwt>
</event>
<event>
 4    1  0.2165211E+000  0.2925831E+02  0.7546771E-02  0.1606435E+00
         -2   -1    0    0    0  501 -0.00000000000E+00  0.00000000000E+00  0.17083624127E+01  0.17083624127E+01  0.00000000000E+00 0. -1.
          2   -1    0    0  501    0  0.00000000000E+00 -0.00000000000E+00 -0.12527329470E+03  0.12527329470E+03  0.00000000000E+00 0.  1.
        -13    1    1    2    0    0  0.14548604457E+02  0.15019974981E+01 -0.63115211620E+02  0.64787713542E+02  0.00000000000E+00 0.  1.
         13    1    1    2    0    0 -0.14548604457E+02 -0.15019974981E+01 -0.60449720670E+02  0.62193943574E+02  0.00000000000E+00 0. -1.
<mgrwt>
<rscale>  0 0.29258311E+02</rscale>
<asrwt>0</asrwt>
<pdfrwt beam="2">  1        2 0.19272816E-01 0.29258311E+02</pdfrwt>
<pdfrwt beam="1">  1       -2 0.26282496E-03 0.29258311E+02</pdfrwt>
<totfact> 0.23462899E+06</totfact>
</mgrwt>
</event>
<event>
 4    1  0.2165211E+000  0.3007743E+02  0.7546771E-02  0.1597234E+00
         -1   -1    0    0    0  501 -0.00000000000E+00  0.00000000000E+00  0.92358107425E+01  0.92358107425E+01  0.00000000000E+00 0.  1.
          1   -1    0    0  501    0  0.00000000000E+00 -0.00000000000E+00 -0.24487611122E+02  0.24487611122E+02  0.00000000000E+00 0. -1.
        -13    1    1    2    0    0 -0.10409640852E+02 -0.62101980078E+01  0.23545821625E+01  0.12347924486E+02  0.00000000000E+00 0.  1.
         13    1    1    2    0    0  0.10409640852E+02  0.62101980078E+01 -0.17606382542E+02  0.21375497378E+02  0.00000000000E+00 0. -1.
<mgrwt>
<rscale>  0 0.30077430E+02</rscale>
<asrwt>0</asrwt>
<pdfrwt beam="2">  1        1 0.37673247E-02 0.30077430E+02</pdfrwt>
<pdfrwt beam="1">  1       -1 0.14208940E-02 0.30077430E+02</pdfrwt>
<totfact> 0.15548550E+06</totfact>
</mgrwt>
</event>
<event>
 4    1  0.2165211E+000  0.4125762E+02  0.7546771E-02  0.1499155E+00
         -4   -1    0    0    0  501 -0.00000000000E+00  0.00000000000E+00  0.28568289648E+01  0.28568289648E+01  0.00000000000E+00 0.  1.
          4   -1    0    0  501    0  0.00000000000E+00 -0.00000000000E+00 -0.14895810300E+03  0.14895810300E+03  0.00000000000E+00 0. -1.
        -13    1    1    2    0    0  0.40835226774E+01  0.18919649217E+02 -0.46793187476E+02  0.50638233363E+02  0.00000000000E+00 0.  1.
         13    1    1    2    0    0 -0.40835226774E+01 -0.18919649217E+02 -0.99308086555E+02  0.10117669860E+03  0.00000000000E+00 0. -1.
<mgrwt>
<rscale>  0 0.41257621E+02</rscale>
<asrwt>0</asrwt>
<pdfrwt beam="2">  1        4 0.22916635E-01 0.41257621E+02</pdfrwt>
<pdfrwt beam="1">  1       -4 0.43951207E-03 0.41257621E+02</pdfrwt>
<totfact> 0.17539428E+05</totfact>
</mgrwt>
</event>
<event>
 4    1  0.2165211E+000  0.2504131E+02  0.7546771E-02  0.1660409E+00
         -2   -1    0    0    0  501 -0.00000000000E+00  0.00000000000E+00  0.49708241997E+02  0.49708241997E+02  0.00000000000E+00 0.  1.
          2   -1    0    0  501    0  0.00000000000E+00 -0.00000000000E+00 -0.31537385671E+01  0.31537385671E+01  0.00000000000E+00 0. -1.
        -13    1    1    2    0    0  0.12404703171E+00 -0.10016012834E+02  0.39135122456E+02  0.40396704202E+02  0.00000000000E+00 0.  1.
         13    1    1    2    0    0 -0.12404703171E+00  0.10016012834E+02  0.74193809745E+01  0.12465276363E+02  0.00000000000E+00 0. -1.
<mgrwt>
<rscale>  0 0.25041310E+02</rscale>
<asrwt>0</asrwt>
<pdfrwt beam="2">  1        2 0.48519059E-03 0.25041310E+02</pdfrwt>
<pdfrwt beam="1">  1       -2 0.76474213E-02 0.25041310E+02</pdfrwt>
<totfact> 0.20582419E+06</totfact>
</mgrwt>
</event>
<event>
 4    1  0.2165211E+000  0.4327310E+02  0.7546771E-02  0.1485419E+00
         -2   -1    0    0    0  501 -0.00000000000E+00  0.00000000000E+00  0.11147711024E+03  0.11147711024E+03  0.00000000000E+00 0.  1.
          2   -1    0    0  501    0  0.00000000000E+00 -0.00000000000E+00 -0.41994304313E+01  0.41994304313E+01  0.00000000000E+00 0. -1.
        -13    1    1    2    0    0  0.16662032002E+02 -0.44888567348E+01  0.88530390780E+02  0.90196470202E+02  0.00000000000E+00 0. -1.
         13    1    1    2    0    0 -0.16662032002E+02  0.44888567348E+01  0.18747289031E+02  0.25480070472E+02  0.00000000000E+00 0.  1.
<mgrwt>
<rscale>  0 0.43273103E+02</rscale>
<asrwt>0</asrwt>
<pdfrwt beam="2">  1        2 0.64606630E-03 0.43273103E+02</pdfrwt>
<pdfrwt beam="1">  1       -2 0.17150322E-01 0.43273103E+02</pdfrwt>
<totfact> 0.48737775E+05</totfact>
</mgrwt>
</event>
<event>
 4    1  0.2165211E+000  0.3366328E+03  0.7546771E-02  0.1068239E+00
          3   -1    0    0  501    0  0.00000000000E+00  0.00000000000E+00  0.47657138859E+02  0.47657138859E+02  0.00000000000E+00 0.  1.
         -3   -1    0    0    0  501 -0.00000000000E+00 -0.00000000000E+00 -0.59446307716E+03  0.59446307716E+03  0.00000000000E+00 0. -1.
        -11    1    1    2    0    0  0.93441009514E+02 -0.73335383323E+02 -0.50087429041E+03  0.51476631155E+03  0.00000000000E+00 0. -1.
         11    1    1    2    0    0 -0.93441009514E+02  0.73335383323E+02 -0.45931647885E+02  0.12735390447E+03  0.00000000000E+00 0.  1.
<mgrwt>
<rscale>  0 0.33663279E+03</rscale>
<asrwt>0</asrwt>
<pdfrwt beam="1">  1        3 0.73318673E-02 0.33663279E+03</pdfrwt>
<pdfrwt beam="2">  1       -3 0.91455861E-01 0.33663279E+03</pdfrwt>
<totfact> 0.35132284E+02</totfact>
</mgrwt>
</event>
<event>
 4    1  0.2165211E+000  0.2376902E+02  0.7546771E-02  0.1679339E+00
         -4   -1    0    0    0  501 -0.00000000000E+00  0.00000000000E+00  0.32027730186E+01  0.32027730186E+01  0.00000000000E+00 0. -1.
          4   -1    0    0  501    0  0.00000000000E+00 -0.00000000000E+00 -0.44099768792E+02  0.44099768792E+02  0.00000000000E+00 0.  1.
        -13    1    1    2    0    0 -0.15955759136E+01  0.11381343829E+02 -0.14425155219E+02  0.18443588397E+02  0.00000000000E+00 0.  1.
         13    1    1    2    0    0  0.15955759136E+01 -0.11381343829E+02 -0.26471840554E+02  0.28858953414E+02  0.00000000000E+00 0. -1.
<mgrwt>
<rscale>  0 0.23769018E+02</rscale>
<asrwt>0</asrwt>
<pdfrwt beam="2">  1        4 0.67845799E-02 0.23769018E+02</pdfrwt>
<pdfrwt beam="1">  1       -4 0.49273430E-03 0.23769018E+02</pdfrwt>
<totfact> 0.81311688E+05</totfact>
</mgrwt>
</event>
<event>
 4    1  0.2165211E+000  0.2346058E+02  0.7546771E-02  0.1684151E+00
          2   -1    0    0  501    0  0.00000000000E+00  0.00000000000E+00  0.23126067625E+02  0.23126067625E+02  0.00000000000E+00 0.  1.
         -2   -1    0    0    0  501 -0.00000000000E+00 -0.00000000000E+00 -0.59499813164E+01  0.59499813164E+01  0.00000000000E+00 0. -1.
        -11    1    1    2    0    0  0.88752144461E+01 -0.49161106650E+01  0.12913832983E+01  0.10227670622E+02  0.00000000000E+00 0.  1.
         11    1    1    2    0    0 -0.88752144461E+01  0.49161106650E+01  0.15884703010E+02  0.18848378319E+02  0.00000000000E+00 0. -1.
<mgrwt>
<rscale>  0 0.23460577E+02</rscale>
<asrwt>0</asrwt>
<pdfrwt beam="1">  1        2 0.35578565E-02 0.23460577E+02</pdfrwt>
<pdfrwt beam="2">  1       -2 0.91538176E-03 0.23460577E+02</pdfrwt>
<totfact> 0.29333587E+06</totfact>
</mgrwt>
</event>
<event>
 4    1  0.2165211E+000  0.2886898E+02  0.7546771E-02  0.1610938E+00
         -2   -1    0    0    0  501 -0.00000000000E+00  0.00000000000E+00  0.58891547521E+02  0.58891547521E+02  0.00000000000E+00 0.  1.
          2   -1    0    0  501    0  0.00000000000E+00 -0.00000000000E+00 -0.35379357995E+01  0.35379357995E+01  0.00000000000E+00 0. -1.
        -11    1    1    2    0    0  0.10277948436E+02  0.10091141483E+02  0.29713649745E+02  0.33020725941E+02  0.00000000000E+00 0. -1.
         11    1    1    2    0    0 -0.10277948436E+02 -0.10091141483E+02  0.25639961976E+02  0.29408757380E+02  0.00000000000E+00 0.  1.
<mgrwt>
<rscale>  0 0.28868981E+02</rscale>
<asrwt>0</asrwt>
<pdfrwt beam="2">  1        2 0.54429786E-03 0.28868981E+02</pdfrwt>
<pdfrwt beam="1">  1       -2 0.90602374E-02 0.28868981E+02</pdfrwt>
<totfact> 0.14496583E+06</totfact>
</mgrwt>
</event>
<event>
 4    1  0.2165211E+000  0.5091994E+02  0.7546771E-02  0.1440442E+00
         -2   -1    0    0    0  501 -0.00000000000E+00  0.00000000000E+00  0.32785865965E+02  0.32785865965E+02  0.00000000000E+00 0.  1.
          2   -1    0    0  501    0  0.00000000000E+00 -0.00000000000E+00 -0.19771019700E+02  0.19771019700E+02  0.00000000000E+00 0. -1.
        -13    1    1    2    0    0  0.14259228016E+02  0.20479615560E+02  0.11716421600E+02  0.27568365425E+02  0.00000000000E+00 0.  1.
         13    1    1    2    0    0 -0.14259228016E+02 -0.20479615560E+02  0.12984246644E+01  0.24988520239E+02  0.00000000000E+00 0. -1.
<mgrwt>
<rscale>  0 0.50919937E+02</rscale>
<asrwt>0</asrwt>
<pdfrwt beam="2">  1        2 0.30416953E-02 0.50919937E+02</pdfrwt>
<pdfrwt beam="1">  1       -2 0.50439794E-02 0.50919937E+02</pdfrwt>
<totfact> 0.41864689E+05</totfact>
</mgrwt>
</event>
<event>
 4    1  0.2165211E+000  0.2541004E+02  0.7546771E-02  0.1655181E+00
          2   -1    0    0  501    0  0.00000000000E+00  0.00000000000E+00  0.31762253162E+02  0.31762253162E+02  0.00000000000E+00 0.  1.
         -2   -1    0    0    0  501 -0.00000000000E+00 -0.00000000000E+00 -0.50820555913E+01  0.50820555913E+01  0.00000000000E+00 0. -1.
        -13    1    1    2    0    0  0.74107608504E+01 -0.87826887902E+01  0.21197191040E+02  0.24111737945E+02  0.00000000000E+00 0.  1.
         13    1    1    2    0    0 -0.74107608504E+01  0.87826887902E+01  0.54830065311E+01  0.12732570808E+02  0.00000000000E+00 0. -1.
<mgrwt>
<rscale>  0 0.25410040E+02</rscale>
<asrwt>0</asrwt>
<pdfrwt beam="1">  1        2 0.48865004E-02 0.25410040E+02</pdfrwt>
<pdfrwt beam="2">  1       -2 0.78185473E-03 0.25410040E+02</pdfrwt>
<totfact> 0.25231519E+06</totfact>
</mgrwt>
</event>
<event>
 4    1  0.2165211E+000  0.2840180E+02  0.7546771E-02  0.1616458E+00
          2   -1    0    0  501    0  0.00000000000E+00  0.00000000000E+00  0.70402730615E+02  0.70402730615E+02  0.00000000000E+00 0.  1.
         -2   -1    0    0    0  501 -0.00000000000E+00 -0.00000000000E+00 -0.28644567918E+01  0.28644567918E+01  0.00000000000E+00 0. -1.
        -13    1    1    2    0    0 -0.37709788087E+01 -0.12688320672E+02  0.47036707018E+02  0.48863744942E+02  0.00000000000E+00 0.  1.
         13    1    1    2    0    0  0.37709788087E+01  0.12688320672E+02  0.20501566805E+02  0.24403442465E+02  0.00000000000E+00 0. -1.
<mgrwt>
<rscale>  0 0.28401801E+02</rscale>
<asrwt>0</asrwt>
<pdfrwt beam="1">  1        2 0.10831188E-01 0.28401801E+02</pdfrwt>
<pdfrwt beam="2">  1       -2 0.44068571E-03 0.28401801E+02</pdfrwt>
<totfact> 0.22013289E+06</totfact>
</mgrwt>
</event>
<event>
 4    1  0.2165211E+000  0.5108227E+02  0.7546771E-02  0.1439590E+00
         -2   -1    0    0    0  501 -0.00000000000E+00  0.00000000000E+00  0.28002232119E+02  0.28002232119E+02  0.00000000000E+00 0. -1.
          2   -1    0    0  501    0  0.00000000000E+00 -0.00000000000E+00 -0.23296346458E+02  0.23296346458E+02  0.00000000000E+00 0.  1.
        -11    1    1    2    0    0 -0.62054380378E+01 -0.20926304504E+02  0.15673044694E+02  0.26871211573E+02  0.00000000000E+00 0. -1.
         11    1    1    2    0    0  0.62054380378E+01  0.20926304504E+02 -0.10967159033E+02  0.24427367003E+02  0.00000000000E+00 0.  1.
<mgrwt>
<rscale>  0 0.51082275E+02</rscale>
<asrwt>0</asrwt>
<pdfrwt beam="2">  1        2 0.35840533E-02 0.51082275E+02</pdfrwt>
<pdfrwt beam="1">  1       -2 0.43080357E-02 0.51082275E+02</pdfrwt>
<totfact> 0.42611754E+05</totfact>
</mgrwt>
</event>
<event>
 4    1  0.2165211E+000  0.2352798E+02  0.7546771E-02  0.1683092E+00
          1   -1    0    0  501    0  0.00000000000E+00  0.00000000000E+00  0.83410562671E+01  0.83410562671E+01  0.00000000000E+00 0. -1.
         -1   -1    0    0    0  501 -0.00000000000E+00 -0.00000000000E+00 -0.16591603725E+02  0.16591603725E+02  0.00000000000E+00 0.  1.
        -13    1    1    2    0    0  0.11269953598E+02  0.28144621789E+01 -0.60959921828E+01  0.13118466837E+02  0.00000000000E+00 0. -1.
         13    1    1    2    0    0 -0.11269953598E+02 -0.28144621789E+01 -0.21545552750E+01  0.11814193155E+02  0.00000000000E+00 0.  1.
<mgrwt>
<rscale>  0 0.23527983E+02</rscale>
<asrwt>0</asrwt>
<pdfrwt beam="1">  1        1 0.12832394E-02 0.23527983E+02</pdfrwt>
<pdfrwt beam="2">  1       -1 0.25525544E-02 0.23527983E+02</pdfrwt>
<totfact> 0.26325254E+06</totfact>
</mgrwt>
</event>
<event>
 4    1  0.2165211E+000  0.3696910E+02  0.7546771E-02  0.1531779E+00
          2   -1    0    0  501    0  0.00000000000E+00  0.00000000000E+00  0.11029557214E+03  0.11029557214E+03  0.00000000000E+00 0.  1.
         -2   -1    0    0    0  501 -0.00000000000E+00 -0.00000000000E+00 -0.30978445793E+01  0.30978445793E+01  0.00000000000E+00 0. -1.
        -13    1    1    2    0    0 -0.13939908302E+02 -0.10062791979E+02  0.74424040275E+02  0.76384020558E+02  0.00000000000E+00 0.  1.
         13    1    1    2    0    0  0.13939908302E+02  0.10062791979E+02  0.32773687287E+02  0.37009396162E+02  0.00000000000E+00 0. -1.
<mgrwt>
<rscale>  0 0.36969097E+02</rscale>
<asrwt>0</asrwt>
<pdfrwt beam="1">  1        2 0.16968547E-01 0.36969097E+02</pdfrwt>
<pdfrwt beam="2">  1       -2 0.47659156E-03 0.36969097E+02</pdfrwt>
<totfact> 0.12986626E+06</totfact>
</mgrwt>
</event>
<event>
 4    1  0.2165211E+000  0.2280391E+02  0.7546771E-02  0.1694709E+00
          3   -1    0    0  501    0  0.00000000000E+00  0.00000000000E+00  0.15832300787E+01  0.15832300787E+01  0.00000000000E+00 0. -1.
         -3   -1    0    0    0  501 -0.00000000000E+00 -0.00000000000E+00 -0.82113485452E+02  0.82113485452E+02  0.00000000000E+00 0.  1.
        -11    1    1    2    0    0 -0.11278531217E+02 -0.16346589970E+01 -0.38956305821E+02  0.40589051968E+02  0.00000000000E+00 0. -1.
         11    1    1    2    0    0  0.11278531217E+02  0.16346589970E+01 -0.41573949552E+02  0.43107663562E+02  0.00000000000E+00 0.  1.
<mgrwt>
<rscale>  0 0.22803907E+02</rscale>
<asrwt>0</asrwt>
<pdfrwt beam="1">  1        3 0.24357377E-03 0.22803907E+02</pdfrwt>
<pdfrwt beam="2">  1       -3 0.12632849E-01 0.22803907E+02</pdfrwt>
<totfact> 0.11099363E+06</totfact>
</mgrwt>
</event>
<event>
 4    1  0.2165211E+000  0.2263678E+02  0.7546771E-02  0.1697466E+00
          1   -1    0    0  501    0  0.00000000000E+00  0.00000000000E+00  0.25029797767E+02  0.25029797767E+02  0.00000000000E+00 0.  1.
         -1   -1    0    0    0  501 -0.00000000000E+00 -0.00000000000E+00 -0.51181366448E+01  0.51181366448E+01  0.00000000000E+00 0. -1.
        -11    1    1    2    0    0  0.63068751876E+01 -0.93678982264E+01  0.89488067940E+01  0.14408863066E+02  0.00000000000E+00 0.  1.
         11    1    1    2    0    0 -0.63068751876E+01  0.93678982264E+01  0.10962854328E+02  0.15739071346E+02  0.00000000000E+00 0. -1.
<mgrwt>
<rscale>  0 0.22636778E+02</rscale>
<asrwt>0</asrwt>
<pdfrwt beam="1">  1        1 0.38507381E-02 0.22636778E+02</pdfrwt>
<pdfrwt beam="2">  1       -1 0.78740565E-03 0.22636778E+02</pdfrwt>
<totfact> 0.30295022E+06</totfact>
</mgrwt>
</event>
<event>
 4    1  0.2165211E+000  0.2719800E+02  0.7546771E-02  0.1631301E+00
          2   -1    0    0  501    0  0.00000000000E+00  0.00000000000E+00  0.19937449769E+01  0.19937449769E+01  0.00000000000E+00 0. -1.
         -2   -1    0    0    0  501 -0.00000000000E+00 -0.00000000000E+00 -0.92756489501E+02  0.92756489501E+02  0.00000000000E+00 0.  1.
        -13    1    1    2    0    0 -0.12512560666E+02  0.50046213789E+01 -0.51731284125E+02  0.53457797998E+02  0.00000000000E+00 0. -1.
         13    1    1    2    0    0  0.12512560666E+02 -0.50046213789E+01 -0.39031460399E+02  0.41292436480E+02  0.00000000000E+00 0.  1.
<mgrwt>
<rscale>  0 0.27197999E+02</rscale>
<asrwt>0</asrwt>
<pdfrwt beam="1">  1        2 0.30673004E-03 0.27197999E+02</pdfrwt>
<pdfrwt beam="2">  1       -2 0.14270227E-01 0.27197999E+02</pdfrwt>
<totfact> 0.15217010E+06</totfact>
</mgrwt>
</event>
<event>
 4    1  0.2165211E+000  0.2446761E+02  0.7546771E-02  0.1668769E+00
         -4   -1    0    0    0  501 -0.00000000000E+00  0.00000000000E+00  0.16671999295E+02  0.16671999295E+02  0.00000000000E+00 0. -1.
          4   -1    0    0  501    0  0.00000000000E+00 -0.00000000000E+00 -0.89770887014E+01  0.89770887014E+01  0.00000000000E+00 0.  1.
        -13    1    1    2    0    0 -0.32123089472E+01 -0.10192627740E+02  0.10089601604E+02  0.14697232718E+02  0.00000000000E+00 0.  1.
         13    1    1    2    0    0  0.32123089472E+01  0.10192627740E+02 -0.23946910104E+01  0.10951855279E+02  0.00000000000E+00 0. -1.
<mgrwt>
<rscale>  0 0.24467613E+02</rscale>
<asrwt>0</asrwt>
<pdfrwt beam="2">  1        4 0.13810906E-02 0.24467613E+02</pdfrwt>
<pdfrwt beam="1">  1       -4 0.25649230E-02 0.24467613E+02</pdfrwt>
<totfact> 0.83097947E+05</totfact>
</mgrwt>
</event>
<event>
 4    1  0.2165211E+000  0.2209401E+02  0.7546771E-02  0.1706631E+00
          2   -1    0    0  501    0  0.00000000000E+00  0.00000000000E+00  0.15078231365E+01  0.15078231365E+01  0.00000000000E+00 0. -1.
         -2   -1    0    0    0  501 -0.00000000000E+00 -0.00000000000E+00 -0.80935413334E+02  0.80935413334E+02  0.00000000000E+00 0.  1.
        -13    1    1    2    0    0  0.10532859850E+02  0.12729517882E+01 -0.28227913718E+02  0.30155872658E+02  0.00000000000E+00 0. -1.
         13    1    1    2    0    0 -0.10532859850E+02 -0.12729517882E+01 -0.51199676479E+02  0.52287363813E+02  0.00000000000E+00 0.  1.
<mgrwt>
<rscale>  0 0.22094007E+02</rscale>
<asrwt>0</asrwt>
<pdfrwt beam="1">  1        2 0.23197277E-03 0.22094007E+02</pdfrwt>
<pdfrwt beam="2">  1       -2 0.12451603E-01 0.22094007E+02</pdfrwt>
<totfact> 0.25043230E+06</totfact>
</mgrwt>
</event>
<event>
 4    1  0.2165211E+000  0.2788217E+02  0.7546771E-02  0.1622752E+00
          2   -1    0    0  501    0  0.00000000000E+00  0.00000000000E+00  0.45616604347E+02  0.45616604347E+02  0.00000000000E+00 0. -1.
         -2   -1    0    0    0  501 -0.00000000000E+00 -0.00000000000E+00 -0.42605954907E+01  0.42605954907E+01  0.00000000000E+00 0.  1.
        -13    1    1    2    0    0 -0.33071238624E+01  0.10846167973E+02  0.35186220831E+02  0.36968183135E+02  0.00000000000E+00 0. -1.
         13    1    1    2    0    0  0.33071238624E+01 -0.10846167973E+02  0.61697880254E+01  0.12909016703E+02  0.00000000000E+00 0.  1.
<mgrwt>
<rscale>  0 0.27882173E+02</rscale>
<asrwt>0</asrwt>
<pdfrwt beam="1">  1        2 0.70179388E-02 0.27882173E+02</pdfrwt>
<pdfrwt beam="2">  1       -2 0.65547626E-03 0.27882173E+02</pdfrwt>
<totfact> 0.21316214E+06</totfact>
</mgrwt>
</event>
<event>
 4    1  0.2165211E+000  0.2921824E+02  0.7546771E-02  0.1606894E+00
         -1   -1    0    0    0  501 -0.00000000000E+00  0.00000000000E+00  0.87461304864E+01  0.87461304864E+01  0.00000000000E+00 0. -1.
          1   -1    0    0  501    0  0.00000000000E+00 -0.00000000000E+00 -0.24402382746E+02  0.24402382746E+02  0.00000000000E+00 0.  1.
        -13    1    1    2    0    0  0.64888156724E+01  0.90140601472E+01  0.29389113305E+01  0.11488916789E+02  0.00000000000E+00 0. -1.
         13    1    1    2    0    0 -0.64888156724E+01 -0.90140601472E+01 -0.18595163590E+02  0.21659596444E+02  0.00000000000E+00 0.  1.
<mgrwt>
<rscale>  0 0.29218242E+02</rscale>
<asrwt>0</asrwt>
<pdfrwt beam="2">  1        1 0.37542127E-02 0.29218242E+02</pdfrwt>
<pdfrwt beam="1">  1       -1 0.13455585E-02 0.29218242E+02</pdfrwt>
<totfact> 0.16662253E+06</totfact>
</mgrwt>
</event>
<event>
 4    1  0.2165211E+000  0.2886662E+02  0.7546771E-02  0.1610965E+00
         -1   -1    0    0    0  501 -0.00000000000E+00  0.00000000000E+00  0.40439711368E+02  0.40439711368E+02  0.00000000000E+00 0.  1.
          1   -1    0    0  501    0  0.00000000000E+00 -0.00000000000E+00 -0.51513819710E+01  0.51513819710E+01  0.00000000000E+00 0. -1.
        -13    1    1    2    0    0 -0.38863617088E+00  0.11633752662E+02  0.41661837591E+01  0.12363346076E+02  0.00000000000E+00 0. -1.
         13    1    1    2    0    0  0.38863617088E+00 -0.11633752662E+02  0.31122145638E+02  0.33227747263E+02  0.00000000000E+00 0.  1.
<mgrwt>
<rscale>  0 0.28866617E+02</rscale>
<asrwt>0</asrwt>
<pdfrwt beam="2">  1        1 0.79252033E-03 0.28866617E+02</pdfrwt>
<pdfrwt beam="1">  1       -1 0.62214939E-02 0.28866617E+02</pdfrwt>
<totfact> 0.15535732E+06</totfact>
</mgrwt>
</event>
<event>
 4    1  0.2165211E+000  0.2914390E+02  0.7546771E-02  0.1607749E+00
          2   -1    0    0  501    0  0.00000000000E+00  0.00000000000E+00  0.26217209012E+02  0.26217209012E+02  0.00000000000E+00 0. -1.
         -2   -1    0    0    0  501 -0.00000000000E+00 -0.00000000000E+00 -0.80993278994E+01  0.80993278994E+01  0.00000000000E+00 0.  1.
        -13    1    1    2    0    0 -0.13346380317E+02 -0.58491638777E+01  0.91254114050E+01  0.17193362642E+02  0.00000000000E+00 0.  1.
         13    1    1    2    0    0  0.13346380317E+02  0.58491638777E+01  0.89924697074E+01  0.17123174269E+02  0.00000000000E+00 0. -1.
<mgrwt>
<rscale>  0 0.29143903E+02</rscale>
<asrwt>0</asrwt>
<pdfrwt beam="1">  1        2 0.40334167E-02 0.29143903E+02</pdfrwt>
<pdfrwt beam="2">  1       -2 0.12460505E-02 0.29143903E+02</pdfrwt>
<totfact> 0.17830543E+06</totfact>
</mgrwt>
</event>
<event>
 4    1  0.2165211E+000  0.2593389E+02  0.7546771E-02  0.1647939E+00
          4   -1    0    0  501    0  0.00000000000E+00  0.00000000000E+00  0.44759625583E+02  0.44759625583E+02  0.00000000000E+00 0. -1.
         -4   -1    0    0    0  501 -0.00000000000E+00 -0.00000000000E+00 -0.37565473216E+01  0.37565473216E+01  0.00000000000E+00 0.  1.
        -13    1    1    2    0    0  0.12372696037E+02 -0.34075066011E+01  0.23974788331E+02  0.27193476865E+02  0.00000000000E+00 0. -1.
         13    1    1    2    0    0 -0.12372696037E+02  0.34075066011E+01  0.17028289930E+02  0.21322696040E+02  0.00000000000E+00 0.  1.
<mgrwt>
<rscale>  0 0.25933889E+02</rscale>
<asrwt>0</asrwt>
<pdfrwt beam="1">  1        4 0.68860959E-02 0.25933889E+02</pdfrwt>
<pdfrwt beam="2">  1       -4 0.57793039E-03 0.25933889E+02</pdfrwt>
<totfact> 0.67122504E+05</totfact>
</mgrwt>
</event>
<event>
 4    1  0.2165211E+000  0.3099674E+02  0.7546771E-02  0.1587325E+00
         -1   -1    0    0    0  501 -0.00000000000E+00  0.00000000000E+00  0.97307643540E+02  0.97307643540E+02  0.00000000000E+00 0.  1.
          1   -1    0    0  501    0  0.00000000000E+00 -0.00000000000E+00 -0.24684536890E+01  0.24684536890E+01  0.00000000000E+00 0. -1.
        -13    1    1    2    0    0  0.15109398944E+02 -0.34504109194E+01  0.47457642327E+02  0.49924213436E+02  0.00000000000E+00 0. -1.
         13    1    1    2    0    0 -0.15109398944E+02  0.34504109194E+01  0.47381547524E+02  0.49851883793E+02  0.00000000000E+00 0.  1.
<mgrwt>
<rscale>  0 0.30996736E+02</rscale>
<asrwt>0</asrwt>
<pdfrwt beam="2">  1        1 0.37976218E-03 0.30996736E+02</pdfrwt>
<pdfrwt beam="1">  1       -1 0.14970404E-01 0.30996736E+02</pdfrwt>
<totfact> 0.11841392E+06</totfact>
</mgrwt>
</event>
<event>
 4    1  0.2165211E+000  0.4587768E+02  0.7546771E-02  0.1468936E+00
         -2   -1    0    0    0  501 -0.00000000000E+00  0.00000000000E+00  0.25523687764E+02  0.25523687764E+02  0.00000000000E+00 0.  1.
          2   -1    0    0  501    0  0.00000000000E+00 -0.00000000000E+00 -0.20615763485E+02  0.20615763485E+02  0.00000000000E+00 0. -1.
        -11    1    1    2    0    0  0.46322156443E+01 -0.21365543068E+02 -0.45316380061E+01  0.22326656610E+02  0.00000000000E+00 0. -1.
         11    1    1    2    0    0 -0.46322156443E+01  0.21365543068E+02  0.94395622849E+01  0.23812794639E+02  0.00000000000E+00 0.  1.
<mgrwt>
<rscale>  0 0.45877677E+02</rscale>
<asrwt>0</asrwt>
<pdfrwt beam="2">  1        2 0.31716559E-02 0.45877677E+02</pdfrwt>
<pdfrwt beam="1">  1       -2 0.39267212E-02 0.45877677E+02</pdfrwt>
<totfact> 0.55528023E+05</totfact>
</mgrwt>
</event>
<event>
 4    1  0.2165211E+000  0.3680388E+02  0.7546771E-02  0.1533141E+00
         -2   -1    0    0    0  501 -0.00000000000E+00  0.00000000000E+00  0.70776988305E+02  0.70776988305E+02  0.00000000000E+00 0. -1.
          2   -1    0    0  501    0  0.00000000000E+00 -0.00000000000E+00 -0.47844850244E+01  0.47844850244E+01  0.00000000000E+00 0.  1.
        -11    1    1    2    0    0 -0.12827310163E+02  0.49085157520E+00  0.59258372643E+01  0.14138471224E+02  0.00000000000E+00 0.  1.
         11    1    1    2    0    0  0.12827310163E+02 -0.49085157520E+00  0.60066666017E+02  0.61423002105E+02  0.00000000000E+00 0. -1.
<mgrwt>
<rscale>  0 0.36803882E+02</rscale>
<asrwt>0</asrwt>
<pdfrwt beam="2">  1        2 0.73607467E-03 0.36803882E+02</pdfrwt>
<pdfrwt beam="1">  1       -2 0.10888767E-01 0.36803882E+02</pdfrwt>
<totfact> 0.79583340E+05</totfact>
</mgrwt>
</event>
<event>
 4    1  0.2165211E+000  0.2835061E+02  0.7546771E-02  0.1617070E+00
          3   -1    0    0  501    0  0.00000000000E+00  0.00000000000E+00  0.85690571432E+01  0.85690571432E+01  0.00000000000E+00 0. -1.
         -3   -1    0    0    0  501 -0.00000000000E+00 -0.00000000000E+00 -0.23449406535E+02  0.23449406535E+02  0.00000000000E+00 0.  1.
        -13    1    1    2    0    0 -0.45676575784E+01  0.12357754798E+02 -0.13347754894E+02  0.18754737004E+02  0.00000000000E+00 0.  1.
         13    1    1    2    0    0  0.45676575784E+01 -0.12357754798E+02 -0.15325944984E+01  0.13263726674E+02  0.00000000000E+00 0. -1.
<mgrwt>
<rscale>  0 0.28350612E+02</rscale>
<asrwt>0</asrwt>
<pdfrwt beam="1">  1        3 0.13183165E-02 0.28350612E+02</pdfrwt>
<pdfrwt beam="2">  1       -3 0.36076009E-02 0.28350612E+02</pdfrwt>
<totfact> 0.78673916E+05</totfact>
</mgrwt>
</event>
<event>
 4    1  0.2165211E+000  0.2928908E+02  0.7546771E-02  0.1606082E+00
          2   -1    0    0  501    0  0.00000000000E+00  0.00000000000E+00  0.32768415236E+02  0.32768415236E+02  0.00000000000E+00 0.  1.
         -2   -1    0    0    0  501 -0.00000000000E+00 -0.00000000000E+00 -0.65447952042E+01  0.65447952042E+01  0.00000000000E+00 0. -1.
        -13    1    1    2    0    0  0.13729546145E+02  0.39711393124E+01  0.88266568192E+01  0.16798221792E+02  0.00000000000E+00 0.  1.
         13    1    1    2    0    0 -0.13729546145E+02 -0.39711393124E+01  0.17396963213E+02  0.22514988648E+02  0.00000000000E+00 0. -1.
<mgrwt>
<rscale>  0 0.29289081E+02</rscale>
<asrwt>0</asrwt>
<pdfrwt beam="1">  1        2 0.50412946E-02 0.29289081E+02</pdfrwt>
<pdfrwt beam="2">  1       -2 0.10068916E-02 0.29289081E+02</pdfrwt>
<totfact> 0.18107146E+06</totfact>
</mgrwt>
</event>
<event>
 4    1  0.2165211E+000  0.3270647E+02  0.7546771E-02  0.1569965E+00
         -1   -1    0    0    0  501 -0.00000000000E+00  0.00000000000E+00  0.20163738166E+01  0.20163738166E+01  0.00000000000E+00 0. -1.
          1   -1    0    0  501    0  0.00000000000E+00 -0.00000000000E+00 -0.13262832770E+03  0.13262832770E+03  0.00000000000E+00 0.  1.
        -11    1    1    2    0    0 -0.14910574541E+02 -0.66537767867E+01 -0.61554732399E+02  0.63683459857E+02  0.00000000000E+00 0. -1.
         11    1    1    2    0    0  0.14910574541E+02  0.66537767867E+01 -0.69057221482E+02  0.70961241657E+02  0.00000000000E+00 0.  1.
<mgrwt>
<rscale>  0 0.32706470E+02</rscale>
<asrwt>0</asrwt>
<pdfrwt beam="2">  1        1 0.20404365E-01 0.32706470E+02</pdfrwt>
<pdfrwt beam="1">  1       -1 0.31021125E-03 0.32706470E+02</pdfrwt>
<totfact> 0.14860653E+06</totfact>
</mgrwt>
</event>
<event>
 4    1  0.2165211E+000  0.3437815E+02  0.7546771E-02  0.1554193E+00
         -2   -1    0    0    0  501 -0.00000000000E+00  0.00000000000E+00  0.15339167910E+01  0.15339167910E+01  0.00000000000E+00 0.  1.
          2   -1    0    0  501    0  0.00000000000E+00 -0.00000000000E+00 -0.19262085548E+03  0.19262085548E+03  0.00000000000E+00 0. -1.
        -11    1    1    2    0    0 -0.16383633757E+02  0.51641439087E+01 -0.98990494541E+02  0.10046994499E+03  0.00000000000E+00 0.  1.
         11    1    1    2    0    0  0.16383633757E+02 -0.51641439087E+01 -0.92096444144E+02  0.93684827274E+02  0.00000000000E+00 0. -1.
<mgrwt>
<rscale>  0 0.34378154E+02</rscale>
<asrwt>0</asrwt>
<pdfrwt beam="2">  1        2 0.29633976E-01 0.34378154E+02</pdfrwt>
<pdfrwt beam="1">  1       -2 0.23598721E-03 0.34378154E+02</pdfrwt>
<totfact> 0.18172556E+06</totfact>
</mgrwt>
</event>
<event>
 4    1  0.2165211E+000  0.4784777E+02  0.7546771E-02  0.1457308E+00
          2   -1    0    0  501    0  0.00000000000E+00  0.00000000000E+00  0.10131302487E+03  0.10131302487E+03  0.00000000000E+00 0. -1.
         -2   -1    0    0    0  501 -0.00000000000E+00 -0.00000000000E+00 -0.56493461925E+01  0.56493461925E+01  0.00000000000E+00 0.  1.
        -13    1    1    2    0    0  0.33508081580E+01 -0.16919296978E+02  0.84893638958E+02  0.86628058163E+02  0.00000000000E+00 0. -1.
         13    1    1    2    0    0 -0.33508081580E+01  0.16919296978E+02  0.10770039719E+02  0.20334312899E+02  0.00000000000E+00 0.  1.
<mgrwt>
<rscale>  0 0.47847773E+02</rscale>
<asrwt>0</asrwt>
<pdfrwt beam="1">  1        2 0.15586618E-01 0.47847773E+02</pdfrwt>
<pdfrwt beam="2">  1       -2 0.86913026E-03 0.47847773E+02</pdfrwt>
<totfact> 0.67133761E+05</totfact>
</mgrwt>
</event>
<event>
 4    1  0.2165211E+000  0.3511097E+02  0.7546771E-02  0.1547617E+00
         -2   -1    0    0    0  501 -0.00000000000E+00  0.00000000000E+00  0.99870487700E+01  0.99870487700E+01  0.00000000000E+00 0.  1.
          2   -1    0    0  501    0  0.00000000000E+00 -0.00000000000E+00 -0.30859477925E+02  0.30859477925E+02  0.00000000000E+00 0. -1.
        -13    1    1    2    0    0  0.56207728083E+01 -0.16622926810E+02 -0.11052165018E+02  0.20738011821E+02  0.00000000000E+00 0. -1.
         13    1    1    2    0    0 -0.56207728083E+01  0.16622926810E+02 -0.98202641370E+01  0.20108514874E+02  0.00000000000E+00 0.  1.
<mgrwt>
<rscale>  0 0.35110973E+02</rscale>
<asrwt>0</asrwt>
<pdfrwt beam="2">  1        2 0.47476120E-02 0.35110973E+02</pdfrwt>
<pdfrwt beam="1">  1       -2 0.15364690E-02 0.35110973E+02</pdfrwt>
<totfact> 0.11568923E+06</totfact>
</mgrwt>
</event>
<event>
 4    1  0.2165211E+000  0.3340575E+02  0.7546771E-02  0.1563231E+00
         -3   -1    0    0    0  501 -0.00000000000E+00  0.00000000000E+00  0.33281904169E+02  0.33281904169E+02  0.00000000000E+00 0. -1.
          3   -1    0    0  501    0  0.00000000000E+00 -0.00000000000E+00 -0.83825157100E+01  0.83825157100E+01  0.00000000000E+00 0.  1.
        -11    1    1    2    0    0  0.14265392942E+02 -0.86394713697E+01  0.13595635683E+02  0.21517044662E+02  0.00000000000E+00 0.  1.
         11    1    1    2    0    0 -0.14265392942E+02  0.86394713697E+01  0.11303752776E+02  0.20147375218E+02  0.00000000000E+00 0. -1.
<mgrwt>
<rscale>  0 0.33405753E+02</rscale>
<asrwt>0</asrwt>
<pdfrwt beam="2">  1        3 0.12896178E-02 0.33405753E+02</pdfrwt>
<pdfrwt beam="1">  1       -3 0.51202929E-02 0.33405753E+02</pdfrwt>
<totfact> 0.52004408E+05</totfact>
</mgrwt>
</event>
<event>
 4    1  0.2165211E+000  0.2354103E+02  0.7546771E-02  0.1682887E+00
         -2   -1    0    0    0  501 -0.00000000000E+00  0.00000000000E+00  0.59183265155E+01  0.59183265155E+01  0.00000000000E+00 0.  1.
          2   -1    0    0  501    0  0.00000000000E+00 -0.00000000000E+00 -0.23409492911E+02  0.23409492911E+02  0.00000000000E+00 0. -1.
        -11    1    1    2    0    0 -0.10945746513E+02 -0.42063499102E+01 -0.74737043441E+01  0.13905358785E+02  0.00000000000E+00 0.  1.
         11    1    1    2    0    0  0.10945746513E+02  0.42063499102E+01 -0.10017462051E+02  0.15422460642E+02  0.00000000000E+00 0. -1.
<mgrwt>
<rscale>  0 0.23541030E+02</rscale>
<asrwt>0</asrwt>
<pdfrwt beam="2">  1        2 0.36014604E-02 0.23541030E+02</pdfrwt>
<pdfrwt beam="1">  1       -2 0.91051180E-03 0.23541030E+02</pdfrwt>
<totfact> 0.29137837E+06</totfact>
</mgrwt>
</event>
<event>
 4    1  0.2165211E+000  0.2107550E+02  0.7546771E-02  0.1724749E+00
         -2   -1    0    0    0  501 -0.00000000000E+00  0.00000000000E+00  0.10388763804E+01  0.10388763804E+01  0.00000000000E+00 0.  1.
          2   -1    0    0  501    0  0.00000000000E+00 -0.00000000000E+00 -0.10688870654E+03  0.10688870654E+03  0.00000000000E+00 0. -1.
        -13    1    1    2    0    0  0.66609020539E+01  0.80138284403E+01 -0.60948867173E+02  0.61833271563E+02  0.00000000000E+00 0.  1.
         13    1    1    2    0    0 -0.66609020539E+01 -0.80138284403E+01 -0.44900962989E+02  0.46094311361E+02  0.00000000000E+00 0. -1.
<mgrwt>
<rscale>  0 0.21075498E+02</rscale>
<asrwt>0</asrwt>
<pdfrwt beam="2">  1        2 0.16444423E-01 0.21075498E+02</pdfrwt>
<pdfrwt beam="1">  1       -2 0.15982707E-03 0.21075498E+02</pdfrwt>
<totfact> 0.47707221E+06</totfact>
</mgrwt>
</event>
<event>
 4    1  0.2165211E+000  0.3081307E+02  0.7546771E-02  0.1589271E+00
         -4   -1    0    0    0  501 -0.00000000000E+00  0.00000000000E+00  0.12770725871E+01  0.12770725871E+01  0.00000000000E+00 0.  1.
          4   -1    0    0  501    0  0.00000000000E+00 -0.00000000000E+00 -0.18586365064E+03  0.18586365064E+03  0.00000000000E+00 0. -1.
        -11    1    1    2    0    0 -0.95239559489E+01 -0.12110141556E+02 -0.92356332701E+02  0.93632544852E+02  0.00000000000E+00 0.  1.
         11    1    1    2    0    0  0.95239559489E+01  0.12110141556E+02 -0.92230245347E+02  0.93508178371E+02  0.00000000000E+00 0. -1.
<mgrwt>
<rscale>  0 0.30813073E+02</rscale>
<asrwt>0</asrwt>
<pdfrwt beam="2">  1        4 0.28594417E-01 0.30813073E+02</pdfrwt>
<pdfrwt beam="1">  1       -4 0.19647264E-03 0.30813073E+02</pdfrwt>
<totfact> 0.31606677E+05</totfact>
</mgrwt>
</event>
<event>
 4    1  0.2165211E+000  0.8543957E+02  0.7546771E-02  0.1314287E+00
         -2   -1    0    0    0  501 -0.00000000000E+00  0.00000000000E+00  0.19387181874E+03  0.19387181874E+03  0.00000000000E+00 0.  1.
          2   -1    0    0  501    0  0.00000000000E+00 -0.00000000000E+00 -0.94133331915E+01  0.94133331915E+01  0.00000000000E+00 0. -1.
        -11    1    1    2    0    0 -0.15744746345E+02 -0.39274596327E+02  0.78236074346E+02  0.88945344359E+02  0.00000000000E+00 0. -1.
         11    1    1    2    0    0  0.15744746345E+02  0.39274596327E+02  0.10622241121E+03  0.11433980758E+03  0.00000000000E+00 0.  1.
<mgrwt>
<rscale>  0 0.85439570E+02</rscale>
<asrwt>0</asrwt>
<pdfrwt beam="2">  1        2 0.14482052E-02 0.85439570E+02</pdfrwt>
<pdfrwt beam="1">  1       -2 0.29826431E-01 0.85439570E+02</pdfrwt>
<totfact> 0.74527803E+04</totfact>
</mgrwt>
</event>
<event>
 4    1  0.2165211E+000  0.4475578E+02  0.7546771E-02  0.1475872E+00
          4   -1    0    0  501    0  0.00000000000E+00  0.00000000000E+00  0.10960552307E+02  0.10960552307E+02  0.00000000000E+00 0.  1.
         -4   -1    0    0    0  501 -0.00000000000E+00 -0.00000000000E+00 -0.45688388285E+02  0.45688388285E+02  0.00000000000E+00 0. -1.
        -13    1    1    2    0    0  0.18935405626E+02 -0.10539624280E+02 -0.10301084409E+02  0.23994699544E+02  0.00000000000E+00 0.  1.
         13    1    1    2    0    0 -0.18935405626E+02  0.10539624280E+02 -0.24426751570E+02  0.32654241048E+02  0.00000000000E+00 0. -1.
<mgrwt>
<rscale>  0 0.44755780E+02</rscale>
<asrwt>0</asrwt>
<pdfrwt beam="1">  1        4 0.16862388E-02 0.44755780E+02</pdfrwt>
<pdfrwt beam="2">  1       -4 0.70289827E-02 0.44755780E+02</pdfrwt>
<totfact> 0.18551416E+05</totfact>
</mgrwt>
</event>
<event>
 4    1  0.2165211E+000  0.2854349E+02  0.7546771E-02  0.1614770E+00
          1   -1    0    0  501    0  0.00000000000E+00  0.00000000000E+00  0.34154585027E+02  0.34154585027E+02  0.00000000000E+00 0.  1.
         -1   -1    0    0    0  501 -0.00000000000E+00 -0.00000000000E+00 -0.59635527972E+01  0.59635527972E+01  0.00000000000E+00 0. -1.
        -11    1    1    2    0    0  0.89531628072E+01  0.61539565045E+01  0.10877292586E+01  0.10918491647E+02  0.00000000000E+00 0. -1.
         11    1    1    2    0    0 -0.89531628072E+01 -0.61539565045E+01  0.27103302971E+02  0.29199646177E+02  0.00000000000E+00 0.  1.
<mgrwt>
<rscale>  0 0.28543488E+02</rscale>
<asrwt>0</asrwt>
<pdfrwt beam="1">  1        1 0.52545514E-02 0.28543488E+02</pdfrwt>
<pdfrwt beam="2">  1       -1 0.91746968E-03 0.28543488E+02</pdfrwt>
<totfact> 0.17973234E+06</totfact>
</mgrwt>
</event>
<event>
 4    1  0.2165211E+000  0.3773152E+02  0.7546771E-02  0.1525601E+00
          2   -1    0    0  501    0  0.00000000000E+00  0.00000000000E+00  0.40274316742E+02  0.40274316742E+02  0.00000000000E+00 0. -1.
         -2   -1    0    0    0  501 -0.00000000000E+00 -0.00000000000E+00 -0.88373149969E+01  0.88373149969E+01  0.00000000000E+00 0.  1.
        -13    1    1    2    0    0 -0.41061491294E+01  0.16154871477E+02  0.27219623950E+02  0.31917836097E+02  0.00000000000E+00 0. -1.
         13    1    1    2    0    0  0.41061491294E+01 -0.16154871477E+02  0.42173777953E+01  0.17193795642E+02  0.00000000000E+00 0.  1.
<mgrwt>
<rscale>  0 0.37731516E+02</rscale>
<asrwt>0</asrwt>
<pdfrwt beam="1">  1        2 0.61960486E-02 0.37731516E+02</pdfrwt>
<pdfrwt beam="2">  1       -2 0.13595869E-02 0.37731516E+02</pdfrwt>
<totfact> 0.10063126E+06</totfact>
</mgrwt>
</event>
<event>
 4    1  0.2165211E+000  0.3654810E+02  0.7546771E-02  0.1535268E+00
         -2   -1    0    0    0  501 -0.00000000000E+00  0.00000000000E+00  0.38401234814E+01  0.38401234814E+01  0.00000000000E+00 0. -1.
          2   -1    0    0  501    0  0.00000000000E+00 -0.00000000000E+00 -0.86961001442E+02  0.86961001442E+02  0.00000000000E+00 0.  1.
        -13    1    1    2    0    0 -0.58367859417E+01  0.15879711973E+02 -0.24400314451E+02  0.29691895658E+02  0.00000000000E+00 0. -1.
         13    1    1    2    0    0  0.58367859417E+01 -0.15879711973E+02 -0.58720563509E+02  0.61109229265E+02  0.00000000000E+00 0.  1.
<mgrwt>
<rscale>  0 0.36548104E+02</rscale>
<asrwt>0</asrwt>
<pdfrwt beam="2">  1        2 0.13378616E-01 0.36548104E+02</pdfrwt>
<pdfrwt beam="1">  1       -2 0.59078822E-03 0.36548104E+02</pdfrwt>
<totfact> 0.12598091E+06</totfact>
</mgrwt>
</event>
<event>
 4    1  0.2165211E+000  0.2193090E+02  0.7546771E-02  0.1709450E+00
          2   -1    0    0  501    0  0.00000000000E+00  0.00000000000E+00  0.59583379043E+01  0.59583379043E+01  0.00000000000E+00 0. -1.
         -2   -1    0    0    0  501 -0.00000000000E+00 -0.00000000000E+00 -0.20180311257E+02  0.20180311257E+02  0.00000000000E+00 0.  1.
        -13    1    1    2    0    0 -0.19446955475E+01 -0.10722772482E+02 -0.85616485312E+01  0.13858626052E+02  0.00000000000E+00 0.  1.
         13    1    1    2    0    0  0.19446955475E+01  0.10722772482E+02 -0.56603248216E+01  0.12280023109E+02  0.00000000000E+00 0. -1.
<mgrwt>
<rscale>  0 0.21930902E+02</rscale>
<asrwt>0</asrwt>
<pdfrwt beam="1">  1        2 0.91666736E-03 0.21930902E+02</pdfrwt>
<pdfrwt beam="2">  1       -2 0.31046633E-02 0.21930902E+02</pdfrwt>
<totfact> 0.30579420E+06</totfact>
</mgrwt>
</event>
<event>
 4    1  0.2165211E+000  0.4191130E+02  0.7546771E-02  0.1494600E+00
          2   -1    0    0  501    0  0.00000000000E+00  0.00000000000E+00  0.60074686974E+02  0.60074686974E+02  0.00000000000E+00 0.  1.
         -2   -1    0    0    0  501 -0.00000000000E+00 -0.00000000000E+00 -0.73098890042E+01  0.73098890042E+01  0.00000000000E+00 0. -1.
        -11    1    1    2    0    0  0.69087688494E+01 -0.19404524814E+02  0.32582848078E+02  0.38547485769E+02  0.00000000000E+00 0.  1.
         11    1    1    2    0    0 -0.69087688494E+01  0.19404524814E+02  0.20181949892E+02  0.28837090209E+02  0.00000000000E+00 0. -1.
<mgrwt>
<rscale>  0 0.41911301E+02</rscale>
<asrwt>0</asrwt>
<pdfrwt beam="1">  1        2 0.92422592E-02 0.41911301E+02</pdfrwt>
<pdfrwt beam="2">  1       -2 0.11245983E-02 0.41911301E+02</pdfrwt>
<totfact> 0.83111088E+05</totfact>
</mgrwt>
</event>
<event>
 4    1  0.2165211E+000  0.2933742E+02  0.7546771E-02  0.1605530E+00
         -2   -1    0    0    0  501 -0.00000000000E+00  0.00000000000E+00  0.22127491322E+02  0.22127491322E+02  0.00000000000E+00 0. -1.
          2   -1    0    0  501    0  0.00000000000E+00 -0.00000000000E+00 -0.97241494775E+01  0.97241494775E+01  0.00000000000E+00 0.  1.
        -13    1    1    2    0    0 -0.17521884620E+01 -0.11518834268E+02 -0.34736981614E+01  0.12158136626E+02  0.00000000000E+00 0.  1.
         13    1    1    2    0    0  0.17521884620E+01  0.11518834268E+02  0.15877040006E+02  0.19693504174E+02  0.00000000000E+00 0. -1.
<mgrwt>
<rscale>  0 0.29337419E+02</rscale>
<asrwt>0</asrwt>
<pdfrwt beam="2">  1        2 0.14960230E-02 0.29337419E+02</pdfrwt>
<pdfrwt beam="1">  1       -2 0.34042294E-02 0.29337419E+02</pdfrwt>
<totfact> 0.15824821E+06</totfact>
</mgrwt>
</event>
<event>
 4    1  0.2165211E+000  0.2892783E+02  0.7546771E-02  0.1610252E+00
          1   -1    0    0  501    0  0.00000000000E+00  0.00000000000E+00  0.89381031316E+02  0.89381031316E+02  0.00000000000E+00 0. -1.
         -1   -1    0    0    0  501 -0.00000000000E+00 -0.00000000000E+00 -0.23405953985E+01  0.23405953985E+01  0.00000000000E+00 0.  1.
        -11    1    1    2    0    0 -0.15529269593E+01 -0.12648576713E+02  0.21827689881E+02  0.25275405448E+02  0.00000000000E+00 0. -1.
         11    1    1    2    0    0  0.15529269593E+01  0.12648576713E+02  0.65212746036E+02  0.66446221267E+02  0.00000000000E+00 0.  1.
<mgrwt>
<rscale>  0 0.28927830E+02</rscale>
<asrwt>0</asrwt>
<pdfrwt beam="1">  1        1 0.13750925E-01 0.28927830E+02</pdfrwt>
<pdfrwt beam="2">  1       -1 0.36009167E-03 0.28927830E+02</pdfrwt>
<totfact> 0.18901276E+06</totfact>
</mgrwt>
</event>
<event>
 4    1  0.2165211E+000  0.3403297E+02  0.7546771E-02  0.1557360E+00
          4   -1    0    0  501    0  0.00000000000E+00  0.00000000000E+00  0.89357113063E+02  0.89357113063E+02  0.00000000000E+00 0. -1.
         -4   -1    0    0    0  501 -0.00000000000E+00 -0.00000000000E+00 -0.32404891810E+01  0.32404891810E+01  0.00000000000E+00 0.  1.
        -11    1    1    2    0    0 -0.90827698164E+01  0.13054773844E+02  0.59527016290E+02  0.61614848016E+02  0.00000000000E+00 0. -1.
         11    1    1    2    0    0  0.90827698164E+01 -0.13054773844E+02  0.26589607592E+02  0.30982754228E+02  0.00000000000E+00 0.  1.
<mgrwt>
<rscale>  0 0.34032970E+02</rscale>
<asrwt>0</asrwt>
<pdfrwt beam="1">  1        4 0.13747246E-01 0.34032970E+02</pdfrwt>
<pdfrwt beam="2">  1       -4 0.49853687E-03 0.34032970E+02</pdfrwt>
<totfact> 0.31900264E+05</totfact>
</mgrwt>
</event>
<event>
 4    1  0.2165211E+000  0.2194896E+02  0.7546771E-02  0.1709136E+00
         -4   -1    0    0    0  501 -0.00000000000E+00  0.00000000000E+00  0.36713779040E+01  0.36713779040E+01  0.00000000000E+00 0.  1.
          4   -1    0    0  501    0  0.00000000000E+00 -0.00000000000E+00 -0.32804906151E+02  0.32804906151E+02  0.00000000000E+00 0. -1.
        -11    1    1    2    0    0  0.97898565466E+01  0.49594656040E+01 -0.14633597349E+02  0.18291521579E+02  0.00000000000E+00 0. -1.
         11    1    1    2    0    0 -0.97898565466E+01 -0.49594656040E+01 -0.14499930898E+02  0.18184762476E+02  0.00000000000E+00 0.  1.
<mgrwt>
<rscale>  0 0.21948960E+02</rscale>
<asrwt>0</asrwt>
<pdfrwt beam="2">  1        4 0.50469089E-02 0.21948960E+02</pdfrwt>
<pdfrwt beam="1">  1       -4 0.56482735E-03 0.21948960E+02</pdfrwt>
<totfact> 0.10014130E+06</totfact>
</mgrwt>
</event>
<event>
 4    1  0.2165211E+000  0.3425792E+02  0.7546771E-02  0.1555291E+00
         -2   -1    0    0    0  501 -0.00000000000E+00  0.00000000000E+00  0.46437364860E+02  0.46437364860E+02  0.00000000000E+00 0. -1.
          2   -1    0    0  501    0  0.00000000000E+00 -0.00000000000E+00 -0.63182149681E+01  0.63182149681E+01  0.00000000000E+00 0.  1.
        -13    1    1    2    0    0  0.10913992567E+02 -0.50032158594E+00  0.40375031764E+02  0.41827129299E+02  0.00000000000E+00 0. -1.
         13    1    1    2    0    0 -0.10913992567E+02  0.50032158594E+00 -0.25588187181E+00  0.10928450529E+02  0.00000000000E+00 0.  1.
<mgrwt>
<rscale>  0 0.34257919E+02</rscale>
<asrwt>0</asrwt>
<pdfrwt beam="2">  1        2 0.97203310E-03 0.34257919E+02</pdfrwt>
<pdfrwt beam="1">  1       -2 0.71442098E-02 0.34257919E+02</pdfrwt>
<totfact> 0.10111936E+06</totfact>
</mgrwt>
</event>
<event>
 4    1  0.2165211E+000  0.2450799E+02  0.7546771E-02  0.1668171E+00
          2   -1    0    0  501    0  0.00000000000E+00  0.00000000000E+00  0.59031301040E+01  0.59031301040E+01  0.00000000000E+00 0.  1.
         -2   -1    0    0    0  501 -0.00000000000E+00 -0.00000000000E+00 -0.25437410167E+02  0.25437410167E+02  0.00000000000E+00 0. -1.
        -13    1    1    2    0    0  0.62958674668E+01 -0.83097080894E+01 -0.15319831353E+01  0.10537370071E+02  0.00000000000E+00 0.  1.
         13    1    1    2    0    0 -0.62958674668E+01  0.83097080894E+01 -0.18002296928E+02  0.20803170200E+02  0.00000000000E+00 0. -1.
<mgrwt>
<rscale>  0 0.24507986E+02</rscale>
<asrwt>0</asrwt>
<pdfrwt beam="1">  1        2 0.90817386E-03 0.24507986E+02</pdfrwt>
<pdfrwt beam="2">  1       -2 0.39134477E-02 0.24507986E+02</pdfrwt>
<totfact> 0.23398798E+06</totfact>
</mgrwt>
</event>
<event>
 4    1  0.2165211E+000  0.2518299E+02  0.7546771E-02  0.1658387E+00
         -2   -1    0    0    0  501 -0.00000000000E+00  0.00000000000E+00  0.25072109113E+01  0.25072109113E+01  0.00000000000E+00 0. -1.
          2   -1    0    0  501    0  0.00000000000E+00 -0.00000000000E+00 -0.63235905969E+02  0.63235905969E+02  0.00000000000E+00 0.  1.
        -13    1    1    2    0    0 -0.11713533382E+02  0.45621028659E+01 -0.28470784125E+02  0.31122422714E+02  0.00000000000E+00 0.  1.
         13    1    1    2    0    0  0.11713533382E+02 -0.45621028659E+01 -0.32257910932E+02  0.34620694167E+02  0.00000000000E+00 0. -1.
<mgrwt>
<rscale>  0 0.25182991E+02</rscale>
<asrwt>0</asrwt>
<pdfrwt beam="2">  1        2 0.97286004E-02 0.25182991E+02</pdfrwt>
<pdfrwt beam="1">  1       -2 0.38572478E-03 0.25182991E+02</pdfrwt>
<totfact> 0.28550081E+06</totfact>
</mgrwt>
</event>
<event>
 4    1  0.2165211E+000  0.3542859E+02  0.7546771E-02  0.1544827E+00
          2   -1    0    0  501    0  0.00000000000E+00  0.00000000000E+00  0.80177719657E+02  0.80177719657E+02  0.00000000000E+00 0. -1.
         -2   -1    0    0    0  501 -0.00000000000E+00 -0.00000000000E+00 -0.39137595865E+01  0.39137595865E+01  0.00000000000E+00 0.  1.
        -11    1    1    2    0    0  0.11757122489E+01 -0.13172759415E+02  0.66104871532E+02  0.67414819811E+02  0.00000000000E+00 0. -1.
         11    1    1    2    0    0 -0.11757122489E+01  0.13172759415E+02  0.10159088538E+02  0.16676659432E+02  0.00000000000E+00 0.  1.
<mgrwt>
<rscale>  0 0.35428594E+02</rscale>
<asrwt>0</asrwt>
<pdfrwt beam="1">  1        2 0.12335033E-01 0.35428594E+02</pdfrwt>
<pdfrwt beam="2">  1       -2 0.60211692E-03 0.35428594E+02</pdfrwt>
<totfact> 0.13341130E+06</totfact>
</mgrwt>
</event>
<event>
 4    1  0.2165211E+000  0.2855813E+02  0.7546771E-02  0.1614596E+00
         -2   -1    0    0    0  501 -0.00000000000E+00  0.00000000000E+00  0.25018521051E+01  0.25018521051E+01  0.00000000000E+00 0.  1.
          2   -1    0    0  501    0  0.00000000000E+00 -0.00000000000E+00 -0.81496292505E+02  0.81496292505E+02  0.00000000000E+00 0. -1.
        -13    1    1    2    0    0  0.13691722640E+02 -0.40472538413E+01 -0.40142556421E+02  0.42605966349E+02  0.00000000000E+00 0. -1.
         13    1    1    2    0    0 -0.13691722640E+02  0.40472538413E+01 -0.38851883979E+02  0.41392178262E+02  0.00000000000E+00 0.  1.
<mgrwt>
<rscale>  0 0.28558128E+02</rscale>
<asrwt>0</asrwt>
<pdfrwt beam="2">  1        2 0.12537891E-01 0.28558128E+02</pdfrwt>
<pdfrwt beam="1">  1       -2 0.38490033E-03 0.28558128E+02</pdfrwt>
<totfact> 0.22395933E+06</totfact>
</mgrwt>
</event>
<event>
 4    1  0.2165211E+000  0.5033223E+02  0.7546771E-02  0.1443558E+00
         -2   -1    0    0    0  501 -0.00000000000E+00  0.00000000000E+00  0.32754176189E+01  0.32754176189E+01  0.00000000000E+00 0.  1.
          2   -1    0    0  501    0  0.00000000000E+00 -0.00000000000E+00 -0.19335957956E+03  0.19335957956E+03  0.00000000000E+00 0. -1.
        -13    1    1    2    0    0  0.24209591809E+02 -0.66024657900E+01 -0.10249206686E+03  0.10551929046E+03  0.00000000000E+00 0.  1.
         13    1    1    2    0    0 -0.24209591809E+02  0.66024657900E+01 -0.87592095085E+02  0.91115706722E+02  0.00000000000E+00 0. -1.
<mgrwt>
<rscale>  0 0.50332231E+02</rscale>
<asrwt>0</asrwt>
<pdfrwt beam="2">  1        2 0.29747636E-01 0.50332231E+02</pdfrwt>
<pdfrwt beam="1">  1       -2 0.50391026E-03 0.50332231E+02</pdfrwt>
<totfact> 0.71602448E+05</totfact>
</mgrwt>
</event>
<event>
 4    1  0.2165211E+000  0.3089296E+02  0.7546771E-02  0.1588423E+00
         -2   -1    0    0    0  501 -0.00000000000E+00  0.00000000000E+00  0.57354810869E+01  0.57354810869E+01  0.00000000000E+00 0. -1.
          2   -1    0    0  501    0  0.00000000000E+00 -0.00000000000E+00 -0.41599601762E+02  0.41599601762E+02  0.00000000000E+00 0.  1.
        -13    1    1    2    0    0  0.53595811109E+01 -0.10620793340E+02 -0.33028003809E+02  0.35105204692E+02  0.00000000000E+00 0.  1.
         13    1    1    2    0    0 -0.53595811109E+01  0.10620793340E+02 -0.28361168661E+01  0.12229878157E+02  0.00000000000E+00 0. -1.
<mgrwt>
<rscale>  0 0.30892959E+02</rscale>
<asrwt>0</asrwt>
<pdfrwt beam="2">  1        2 0.63999389E-02 0.30892959E+02</pdfrwt>
<pdfrwt beam="1">  1       -2 0.88238169E-03 0.30892959E+02</pdfrwt>
<totfact> 0.16470509E+06</totfact>
</mgrwt>
</event>
<event>
 4    1  0.2165211E+000  0.2401362E+02  0.7546771E-02  0.1675588E+00
         -4   -1    0    0    0  501 -0.00000000000E+00  0.00000000000E+00  0.15704811886E+01  0.15704811886E+01  0.00000000000E+00 0.  1.
          4   -1    0    0  501    0  0.00000000000E+00 -0.00000000000E+00 -0.91795710584E+02  0.91795710584E+02  0.00000000000E+00 0. -1.
        -11    1    1    2    0    0 -0.82615116799E+01  0.87097869928E+01 -0.45986103216E+02  0.47527199094E+02  0.00000000000E+00 0. -1.
         11    1    1    2    0    0  0.82615116799E+01 -0.87097869928E+01 -0.44239126179E+02  0.45838992678E+02  0.00000000000E+00 0.  1.
<mgrwt>
<rscale>  0 0.24013616E+02</rscale>
<asrwt>0</asrwt>
<pdfrwt beam="2">  1        4 0.14122418E-01 0.24013616E+02</pdfrwt>
<pdfrwt beam="1">  1       -4 0.24161248E-03 0.24013616E+02</pdfrwt>
<totfact> 0.68622339E+05</totfact>
</mgrwt>
</event>
<event>
 4    1  0.2165211E+000  0.2585763E+02  0.7546771E-02  0.1648981E+00
         -2   -1    0    0    0  501 -0.00000000000E+00  0.00000000000E+00  0.86972634873E+01  0.86972634873E+01  0.00000000000E+00 0. -1.
          2   -1    0    0  501    0  0.00000000000E+00 -0.00000000000E+00 -0.19219172638E+02  0.19219172638E+02  0.00000000000E+00 0.  1.
        -11    1    1    2    0    0 -0.50697012461E+01 -0.11692163818E+02 -0.76128545751E+01  0.14844666391E+02  0.00000000000E+00 0.  1.
         11    1    1    2    0    0  0.50697012461E+01  0.11692163818E+02 -0.29090545759E+01  0.13071769735E+02  0.00000000000E+00 0. -1.
<mgrwt>
<rscale>  0 0.25857626E+02</rscale>
<asrwt>0</asrwt>
<pdfrwt beam="2">  1        2 0.29567958E-02 0.25857626E+02</pdfrwt>
<pdfrwt beam="1">  1       -2 0.13380405E-02 0.25857626E+02</pdfrwt>
<totfact> 0.22936093E+06</totfact>
</mgrwt>
</event>
<event>
 4    1  0.2165211E+000  0.2082514E+02  0.7546771E-02  0.1729400E+00
          3   -1    0    0  501    0  0.00000000000E+00  0.00000000000E+00  0.45173861888E+02  0.45173861888E+02  0.00000000000E+00 0.  1.
         -3   -1    0    0    0  501 -0.00000000000E+00 -0.00000000000E+00 -0.24000952626E+01  0.24000952626E+01  0.00000000000E+00 0. -1.
        -11    1    1    2    0    0  0.76271295649E+00 -0.10085038848E+02  0.15730008532E+02  0.18700879874E+02  0.00000000000E+00 0. -1.
         11    1    1    2    0    0 -0.76271295649E+00  0.10085038848E+02  0.27043758093E+02  0.28873077276E+02  0.00000000000E+00 0.  1.
<mgrwt>
<rscale>  0 0.20825136E+02</rscale>
<asrwt>0</asrwt>
<pdfrwt beam="1">  1        3 0.69498243E-02 0.20825136E+02</pdfrwt>
<pdfrwt beam="2">  1       -3 0.36924546E-03 0.20825136E+02</pdfrwt>
<totfact> 0.14959175E+06</totfact>
</mgrwt>
</event>
<event>
 4    1  0.2165211E+000  0.2683844E+02  0.7546771E-02  0.1635918E+00
         -2   -1    0    0    0  501 -0.00000000000E+00  0.00000000000E+00  0.43218914134E+02  0.43218914134E+02  0.00000000000E+00 0.  1.
          2   -1    0    0  501    0  0.00000000000E+00 -0.00000000000E+00 -0.41665901694E+01  0.41665901694E+01  0.00000000000E+00 0. -1.
        -13    1    1    2    0    0  0.11848891857E+02  0.17367965827E+01  0.88355880584E+01  0.14882214786E+02  0.00000000000E+00 0. -1.
         13    1    1    2    0    0 -0.11848891857E+02 -0.17367965827E+01  0.30216735906E+02  0.32503289517E+02  0.00000000000E+00 0.  1.
<mgrwt>
<rscale>  0 0.26838443E+02</rscale>
<asrwt>0</asrwt>
<pdfrwt beam="2">  1        2 0.64101390E-03 0.26838443E+02</pdfrwt>
<pdfrwt beam="1">  1       -2 0.66490634E-02 0.26838443E+02</pdfrwt>
<totfact> 0.17934660E+06</totfact>
</mgrwt>
</event>
<event>
 4    1  0.2165211E+000  0.2114693E+02  0.7546771E-02  0.1723437E+00
         -2   -1    0    0    0  501 -0.00000000000E+00  0.00000000000E+00  0.61818788885E+02  0.61818788885E+02  0.00000000000E+00 0.  1.
          2   -1    0    0  501    0  0.00000000000E+00 -0.00000000000E+00 -0.18084826541E+01  0.18084826541E+01  0.00000000000E+00 0. -1.
        -13    1    1    2    0    0 -0.10202080192E+02  0.93096571659E+00  0.22130858014E+02  0.24386964015E+02  0.00000000000E+00 0. -1.
         13    1    1    2    0    0  0.10202080192E+02 -0.93096571659E+00  0.37879448217E+02  0.39240307524E+02  0.00000000000E+00 0.  1.
<mgrwt>
<rscale>  0 0.21146934E+02</rscale>
<asrwt>0</asrwt>
<pdfrwt beam="2">  1        2 0.27822815E-03 0.21146934E+02</pdfrwt>
<pdfrwt beam="1">  1       -2 0.95105813E-02 0.21146934E+02</pdfrwt>
<totfact> 0.29016001E+06</totfact>
</mgrwt>
</event>
<event>
 4    1  0.2165211E+000  0.5319931E+02  0.7546771E-02  0.1428812E+00
          2   -1    0    0  501    0  0.00000000000E+00  0.00000000000E+00  0.73069982569E+01  0.73069982569E+01  0.00000000000E+00 0. -1.
         -2   -1    0    0    0  501 -0.00000000000E+00 -0.00000000000E+00 -0.96830674821E+02  0.96830674821E+02  0.00000000000E+00 0.  1.
        -13    1    1    2    0    0  0.17063850350E+02  0.74483766214E+01 -0.75750839142E+01  0.20100626840E+02  0.00000000000E+00 0. -1.
         13    1    1    2    0    0 -0.17063850350E+02 -0.74483766214E+01 -0.81948592650E+02  0.84037046238E+02  0.00000000000E+00 0.  1.
<mgrwt>
<rscale>  0 0.53199307E+02</rscale>
<asrwt>0</asrwt>
<pdfrwt beam="1">  1        2 0.11241537E-02 0.53199307E+02</pdfrwt>
<pdfrwt beam="2">  1       -2 0.14897025E-01 0.53199307E+02</pdfrwt>
<totfact> 0.30579307E+05</totfact>
</mgrwt>
</event>
<event>
 4    1  0.2165211E+000  0.5655376E+02  0.7546771E-02  0.1412891E+00
          2   -1    0    0  501    0  0.00000000000E+00  0.00000000000E+00  0.18284864765E+02  0.18284864765E+02  0.00000000000E+00 0. -1.
         -2   -1    0    0    0  501 -0.00000000000E+00 -0.00000000000E+00 -0.43729163625E+02  0.43729163625E+02  0.00000000000E+00 0.  1.
        -13    1    1    2    0    0  0.13173798038E+02  0.16232158664E+02  0.81569801308E+01  0.22440326524E+02  0.00000000000E+00 0. -1.
         13    1    1    2    0    0 -0.13173798038E+02 -0.16232158664E+02 -0.33601278991E+02  0.39573701867E+02  0.00000000000E+00 0.  1.
<mgrwt>
<rscale>  0 0.56553756E+02</rscale>
<asrwt>0</asrwt>
<pdfrwt beam="1">  1        2 0.28130561E-02 0.56553756E+02</pdfrwt>
<pdfrwt beam="2">  1       -2 0.67275636E-02 0.56553756E+02</pdfrwt>
<totfact> 0.31067246E+05</totfact>
</mgrwt>
</event>
<event>
 4    1  0.2165211E+000  0.2462059E+02  0.7546771E-02  0.1666512E+00
         -4   -1    0    0    0  501 -0.00000000000E+00  0.00000000000E+00  0.51153819821E+01  0.51153819821E+01  0.00000000000E+00 0.  1.
          4   -1    0    0  501    0  0.00000000000E+00 -0.00000000000E+00 -0.29625037450E+02  0.29625037450E+02  0.00000000000E+00 0. -1.
        -13    1    1    2    0    0  0.16434531407E+01  0.10438625543E+02 -0.33443547025E+01  0.11083796724E+02  0.00000000000E+00 0.  1.
         13    1    1    2    0    0 -0.16434531407E+01 -0.10438625543E+02 -0.21165300766E+02  0.23656622708E+02  0.00000000000E+00 0. -1.
<mgrwt>
<rscale>  0 0.24620592E+02</rscale>
<asrwt>0</asrwt>
<pdfrwt beam="2">  1        4 0.45576980E-02 0.24620592E+02</pdfrwt>
<pdfrwt beam="1">  1       -4 0.78698185E-03 0.24620592E+02</pdfrwt>
<totfact> 0.79043304E+05</totfact>
</mgrwt>
</event>
<event>
 4    1  0.2165211E+000  0.2578741E+02  0.7546771E-02  0.1649943E+00
         -4   -1    0    0    0  501 -0.00000000000E+00  0.00000000000E+00  0.34789164700E+02  0.34789164700E+02  0.00000000000E+00 0.  1.
          4   -1    0    0  501    0  0.00000000000E+00 -0.00000000000E+00 -0.47787199952E+01  0.47787199952E+01  0.00000000000E+00 0. -1.
        -11    1    1    2    0    0  0.10067176397E+02 -0.79931940760E+01  0.16546105585E+02  0.20952632345E+02  0.00000000000E+00 0. -1.
         11    1    1    2    0    0 -0.10067176397E+02  0.79931940760E+01  0.13464339120E+02  0.18615252350E+02  0.00000000000E+00 0.  1.
<mgrwt>
<rscale>  0 0.25787414E+02</rscale>
<asrwt>0</asrwt>
<pdfrwt beam="2">  1        4 0.73518771E-03 0.25787414E+02</pdfrwt>
<pdfrwt beam="1">  1       -4 0.53521790E-02 0.25787414E+02</pdfrwt>
<totfact> 0.70191640E+05</totfact>
</mgrwt>
</event>
<event>
 4    1  0.2165211E+000  0.3070232E+02  0.7546771E-02  0.1590453E+00
          2   -1    0    0  501    0  0.00000000000E+00  0.00000000000E+00  0.57387177473E+01  0.57387177473E+01  0.00000000000E+00 0.  1.
         -2   -1    0    0    0  501 -0.00000000000E+00 -0.00000000000E+00 -0.41064594768E+02  0.41064594768E+02  0.00000000000E+00 0. -1.
        -11    1    1    2    0    0  0.92742677745E+01  0.53427112585E+01 -0.88725685581E+00  0.10739824536E+02  0.00000000000E+00 0.  1.
         11    1    1    2    0    0 -0.92742677745E+01 -0.53427112585E+01 -0.34438620165E+02  0.36063487979E+02  0.00000000000E+00 0. -1.
<mgrwt>
<rscale>  0 0.30702320E+02</rscale>
<asrwt>0</asrwt>
<pdfrwt beam="1">  1        2 0.88287963E-03 0.30702320E+02</pdfrwt>
<pdfrwt beam="2">  1       -2 0.63176301E-02 0.30702320E+02</pdfrwt>
<totfact> 0.13268685E+06</totfact>
</mgrwt>
</event>
<event>
 4    1  0.2165211E+000  0.3260994E+02  0.7546771E-02  0.1570910E+00
          3   -1    0    0  501    0  0.00000000000E+00  0.00000000000E+00  0.72395486037E+01  0.72395486037E+01  0.00000000000E+00 0.  1.
         -3   -1    0    0    0  501 -0.00000000000E+00 -0.00000000000E+00 -0.36722179318E+02  0.36722179318E+02  0.00000000000E+00 0. -1.
        -11    1    1    2    0    0  0.13920423955E+02  0.83737495135E+01 -0.12856797820E+02  0.20717025225E+02  0.00000000000E+00 0. -1.
         11    1    1    2    0    0 -0.13920423955E+02 -0.83737495135E+01 -0.16625832895E+02  0.23244702697E+02  0.00000000000E+00 0.  1.
<mgrwt>
<rscale>  0 0.32609937E+02</rscale>
<asrwt>0</asrwt>
<pdfrwt beam="1">  1        3 0.11137767E-02 0.32609937E+02</pdfrwt>
<pdfrwt beam="2">  1       -3 0.56495661E-02 0.32609937E+02</pdfrwt>
<totfact> 0.54686996E+05</totfact>
</mgrwt>
</event>
<event>
 4    1  0.2165211E+000  0.9114540E+02  0.7546771E-02  0.1300101E+00
         -2   -1    0    0    0  501 -0.00000000000E+00  0.00000000000E+00  0.80698054548E+01  0.80698054548E+01  0.00000000000E+00 0.  1.
          2   -1    0    0  501    0  0.00000000000E+00 -0.00000000000E+00 -0.25736319079E+03  0.25736319079E+03  0.00000000000E+00 0. -1.
        -11    1    1    2    0    0  0.13705812302E+02  0.43263942179E+02 -0.11255043072E+03  0.12135574745E+03  0.00000000000E+00 0. -1.
         11    1    1    2    0    0 -0.13705812302E+02 -0.43263942179E+02 -0.13674295462E+03  0.14407724880E+03  0.00000000000E+00 0.  1.
<mgrwt>
<rscale>  0 0.91145398E+02</rscale>
<asrwt>0</asrwt>
<pdfrwt beam="2">  1        2 0.39594338E-01 0.91145398E+02</pdfrwt>
<pdfrwt beam="1">  1       -2 0.12415085E-02 0.91145398E+02</pdfrwt>
<totfact> 0.16983289E+05</totfact>
</mgrwt>
</event>
<event>
 4    1  0.2165211E+000  0.2691077E+02  0.7546771E-02  0.1634982E+00
          3   -1    0    0  501    0  0.00000000000E+00  0.00000000000E+00  0.38893028716E+02  0.38893028716E+02  0.00000000000E+00 0.  1.
         -3   -1    0    0    0  501 -0.00000000000E+00 -0.00000000000E+00 -0.46550072655E+01  0.46550072655E+01  0.00000000000E+00 0. -1.
        -11    1    1    2    0    0 -0.12217722221E+02  0.16540745254E+00  0.26236924260E+02  0.28942637933E+02  0.00000000000E+00 0.  1.
         11    1    1    2    0    0  0.12217722221E+02 -0.16540745254E+00  0.80010971904E+01  0.14605398048E+02  0.00000000000E+00 0. -1.
<mgrwt>
<rscale>  0 0.26910766E+02</rscale>
<asrwt>0</asrwt>
<pdfrwt beam="1">  1        3 0.59835427E-02 0.26910766E+02</pdfrwt>
<pdfrwt beam="2">  1       -3 0.71615499E-03 0.26910766E+02</pdfrwt>
<totfact> 0.85546670E+05</totfact>
</mgrwt>
</event>
<event>
 4    1  0.2165211E+000  0.2510352E+02  0.7546771E-02  0.1659520E+00
         -1   -1    0    0    0  501 -0.00000000000E+00  0.00000000000E+00  0.12438637656E+02  0.12438637656E+02  0.00000000000E+00 0.  1.
          1   -1    0    0  501    0  0.00000000000E+00 -0.00000000000E+00 -0.12665907276E+02  0.12665907276E+02  0.00000000000E+00 0. -1.
        -13    1    1    2    0    0 -0.88959948511E+01 -0.50368035219E+01 -0.73966880321E+01  0.12618205417E+02  0.00000000000E+00 0. -1.
         13    1    1    2    0    0  0.88959948511E+01  0.50368035219E+01  0.71694184126E+01  0.12486339515E+02  0.00000000000E+00 0.  1.
<mgrwt>
<rscale>  0 0.25103516E+02</rscale>
<asrwt>0</asrwt>
<pdfrwt beam="2">  1        1 0.19486011E-02 0.25103516E+02</pdfrwt>
<pdfrwt beam="1">  1       -1 0.19136366E-02 0.25103516E+02</pdfrwt>
<totfact> 0.23077578E+06</totfact>
</mgrwt>
</event>
<event>
 4    1  0.2165211E+000  0.5367283E+02  0.7546771E-02  0.1426481E+00
          2   -1    0    0  501    0  0.00000000000E+00  0.00000000000E+00  0.98943607878E+02  0.98943607878E+02  0.00000000000E+00 0. -1.
         -2   -1    0    0    0  501 -0.00000000000E+00 -0.00000000000E+00 -0.72788248611E+01  0.72788248611E+01  0.00000000000E+00 0.  1.
        -13    1    1    2    0    0  0.21377926958E+02 -0.98120165325E+01  0.71400123452E+02  0.75174923069E+02  0.00000000000E+00 0. -1.
         13    1    1    2    0    0 -0.21377926958E+02  0.98120165325E+01  0.20264659565E+02  0.31047509671E+02  0.00000000000E+00 0.  1.
<mgrwt>
<rscale>  0 0.53672831E+02</rscale>
<asrwt>0</asrwt>
<pdfrwt beam="1">  1        2 0.15222093E-01 0.53672831E+02</pdfrwt>
<pdfrwt beam="2">  1       -2 0.11198193E-02 0.53672831E+02</pdfrwt>
<totfact> 0.49852443E+05</totfact>
</mgrwt>
</event>
<event>
 4    1  0.2165211E+000  0.3905366E+02  0.7546771E-02  0.1515293E+00
         -4   -1    0    0    0  501 -0.00000000000E+00  0.00000000000E+00  0.39709734599E+01  0.39709734599E+01  0.00000000000E+00 0. -1.
          4   -1    0    0  501    0  0.00000000000E+00 -0.00000000000E+00 -0.96021040113E+02  0.96021040113E+02  0.00000000000E+00 0.  1.
        -13    1    1    2    0    0 -0.15552325757E+02 -0.10766159830E+02 -0.58440073047E+02  0.61424971890E+02  0.00000000000E+00 0. -1.
         13    1    1    2    0    0  0.15552325757E+02  0.10766159830E+02 -0.33609993607E+02  0.38567041683E+02  0.00000000000E+00 0.  1.
<mgrwt>
<rscale>  0 0.39053655E+02</rscale>
<asrwt>0</asrwt>
<pdfrwt beam="2">  1        4 0.14772468E-01 0.39053655E+02</pdfrwt>
<pdfrwt beam="1">  1       -4 0.61091899E-03 0.39053655E+02</pdfrwt>
<totfact> 0.22707620E+05</totfact>
</mgrwt>
</event>
<event>
 4    1  0.2165211E+000  0.4104704E+02  0.7546771E-02  0.1500645E+00
          2   -1    0    0  501    0  0.00000000000E+00  0.00000000000E+00  0.14122261971E+02  0.14122261971E+02  0.00000000000E+00 0. -1.
         -2   -1    0    0    0  501 -0.00000000000E+00 -0.00000000000E+00 -0.29826297676E+02  0.29826297676E+02  0.00000000000E+00 0.  1.
        -11    1    1    2    0    0  0.19769244494E+02  0.80737056616E+00 -0.13690940225E+02  0.24060688255E+02  0.00000000000E+00 0.  1.
         11    1    1    2    0    0 -0.19769244494E+02 -0.80737056616E+00 -0.20130954801E+01  0.19887871392E+02  0.00000000000E+00 0. -1.
<mgrwt>
<rscale>  0 0.41047036E+02</rscale>
<asrwt>0</asrwt>
<pdfrwt beam="1">  1        2 0.21726557E-02 0.41047036E+02</pdfrwt>
<pdfrwt beam="2">  1       -2 0.45886611E-02 0.41047036E+02</pdfrwt>
<totfact> 0.70435790E+05</totfact>
</mgrwt>
</event>
<event>
 4    1  0.2165211E+000  0.2991966E+02  0.7546771E-02  0.1598978E+00
          2   -1    0    0  501    0  0.00000000000E+00  0.00000000000E+00  0.10358809366E+02  0.10358809366E+02  0.00000000000E+00 0. -1.
         -2   -1    0    0    0  501 -0.00000000000E+00 -0.00000000000E+00 -0.21604463640E+02  0.21604463640E+02  0.00000000000E+00 0.  1.
        -13    1    1    2    0    0 -0.89617910909E+00  0.11877146893E+02 -0.15292404378E+02  0.19383688683E+02  0.00000000000E+00 0.  1.
         13    1    1    2    0    0  0.89617910909E+00 -0.11877146893E+02  0.40467501033E+01  0.12579584322E+02  0.00000000000E+00 0. -1.
<mgrwt>
<rscale>  0 0.29919660E+02</rscale>
<asrwt>0</asrwt>
<pdfrwt beam="1">  1        2 0.15936630E-02 0.29919660E+02</pdfrwt>
<pdfrwt beam="2">  1       -2 0.33237636E-02 0.29919660E+02</pdfrwt>
<totfact> 0.15172043E+06</totfact>
</mgrwt>
</event>
<event>
 4    1  0.2165211E+000  0.4778873E+02  0.7546771E-02  0.1457647E+00
          2   -1    0    0  501    0  0.00000000000E+00  0.00000000000E+00  0.20424624735E+02  0.20424624735E+02  0.00000000000E+00 0. -1.
         -2   -1    0    0    0  501 -0.00000000000E+00 -0.00000000000E+00 -0.27953541526E+02  0.27953541526E+02  0.00000000000E+00 0.  1.
        -13    1    1    2    0    0 -0.20464551576E+02 -0.27658806931E+01 -0.15933231428E+02  0.26082864700E+02  0.00000000000E+00 0.  1.
         13    1    1    2    0    0  0.20464551576E+02  0.27658806931E+01  0.84043146363E+01  0.22295301562E+02  0.00000000000E+00 0. -1.
<mgrwt>
<rscale>  0 0.47788727E+02</rscale>
<asrwt>0</asrwt>
<pdfrwt beam="1">  1        2 0.31422500E-02 0.47788727E+02</pdfrwt>
<pdfrwt beam="2">  1       -2 0.43005448E-02 0.47788727E+02</pdfrwt>
<totfact> 0.49808613E+05</totfact>
</mgrwt>
</event>
<event>
 4    1  0.2165211E+000  0.4026853E+02  0.7546771E-02  0.1506245E+00
         -4   -1    0    0    0  501 -0.00000000000E+00  0.00000000000E+00  0.61312715510E+01  0.61312715510E+01  0.00000000000E+00 0.  1.
          4   -1    0    0  501    0  0.00000000000E+00 -0.00000000000E+00 -0.66118210804E+02  0.66118210804E+02  0.00000000000E+00 0. -1.
        -13    1    1    2    0    0 -0.32586466473E+00  0.20110558282E+02 -0.28341289843E+02  0.34752977601E+02  0.00000000000E+00 0.  1.
         13    1    1    2    0    0  0.32586466473E+00 -0.20110558282E+02 -0.31645649410E+02  0.37496504754E+02  0.00000000000E+00 0. -1.
<mgrwt>
<rscale>  0 0.40268534E+02</rscale>
<asrwt>0</asrwt>
<pdfrwt beam="2">  1        4 0.10172033E-01 0.40268534E+02</pdfrwt>
<pdfrwt beam="1">  1       -4 0.94327251E-03 0.40268534E+02</pdfrwt>
<totfact> 0.22825714E+05</totfact>
</mgrwt>
</event>
<event>
 4    1  0.2165211E+000  0.3086652E+02  0.7546771E-02  0.1588703E+00
          2   -1    0    0  501    0  0.00000000000E+00  0.00000000000E+00  0.67679055205E+02  0.67679055205E+02  0.00000000000E+00 0.  1.
         -2   -1    0    0    0  501 -0.00000000000E+00 -0.00000000000E+00 -0.35193390166E+01  0.35193390166E+01  0.00000000000E+00 0. -1.
        -11    1    1    2    0    0  0.65403092880E+00  0.13232798127E+02  0.13822163185E+02  0.19146459146E+02  0.00000000000E+00 0. -1.
         11    1    1    2    0    0 -0.65403092880E+00 -0.13232798127E+02  0.50337553003E+02  0.52051935075E+02  0.00000000000E+00 0.  1.
<mgrwt>
<rscale>  0 0.30866522E+02</rscale>
<asrwt>0</asrwt>
<pdfrwt beam="1">  1        2 0.10412161E-01 0.30866522E+02</pdfrwt>
<pdfrwt beam="2">  1       -2 0.54143682E-03 0.30866522E+02</pdfrwt>
<totfact> 0.17937789E+06</totfact>
</mgrwt>
</event>
<event>
 4    1  0.2165211E+000  0.4469983E+02  0.7546771E-02  0.1476224E+00
         -2   -1    0    0    0  501 -0.00000000000E+00  0.00000000000E+00  0.58909651157E+01  0.58909651157E+01  0.00000000000E+00 0.  1.
          2   -1    0    0  501    0  0.00000000000E+00 -0.00000000000E+00 -0.84794042613E+02  0.84794042613E+02  0.00000000000E+00 0. -1.
        -13    1    1    2    0    0  0.60226333169E+01  0.15796156006E+02 -0.69110805186E+02  0.71148394571E+02  0.00000000000E+00 0. -1.
         13    1    1    2    0    0 -0.60226333169E+01 -0.15796156006E+02 -0.97922723119E+01  0.19536613158E+02  0.00000000000E+00 0.  1.
<mgrwt>
<rscale>  0 0.44699832E+02</rscale>
<asrwt>0</asrwt>
<pdfrwt beam="2">  1        2 0.13045237E-01 0.44699832E+02</pdfrwt>
<pdfrwt beam="1">  1       -2 0.90630236E-03 0.44699832E+02</pdfrwt>
<totfact> 0.76204633E+05</totfact>
</mgrwt>
</event>
<event>
 4    1  0.2165211E+000  0.2104769E+02  0.7546771E-02  0.1725262E+00
          2   -1    0    0  501    0  0.00000000000E+00  0.00000000000E+00  0.69364067878E+01  0.69364067878E+01  0.00000000000E+00 0.  1.
         -2   -1    0    0    0  501 -0.00000000000E+00 -0.00000000000E+00 -0.15966674640E+02  0.15966674640E+02  0.00000000000E+00 0. -1.
        -13    1    1    2    0    0 -0.72090405862E+01  0.72376373655E+01 -0.72674669883E+01  0.12536735509E+02  0.00000000000E+00 0. -1.
         13    1    1    2    0    0  0.72090405862E+01 -0.72376373655E+01 -0.17628008635E+01  0.10366345918E+02  0.00000000000E+00 0.  1.
<mgrwt>
<rscale>  0 0.21047693E+02</rscale>
<asrwt>0</asrwt>
<pdfrwt beam="1">  1        2 0.10671395E-02 0.21047693E+02</pdfrwt>
<pdfrwt beam="2">  1       -2 0.24564115E-02 0.21047693E+02</pdfrwt>
<totfact> 0.34113989E+06</totfact>
</mgrwt>
</event>
<event>
 4    1  0.2165211E+000  0.2059180E+02  0.7546771E-02  0.1733809E+00
          2   -1    0    0  501    0  0.00000000000E+00  0.00000000000E+00  0.68997592621E+01  0.68997592621E+01  0.00000000000E+00 0.  1.
         -2   -1    0    0    0  501 -0.00000000000E+00 -0.00000000000E+00 -0.15363666334E+02  0.15363666334E+02  0.00000000000E+00 0. -1.
        -13    1    1    2    0    0  0.77856901647E+01 -0.65811928973E+01 -0.57899499902E+01  0.11724017749E+02  0.00000000000E+00 0. -1.
         13    1    1    2    0    0 -0.77856901647E+01  0.65811928973E+01 -0.26739570817E+01  0.10539407847E+02  0.00000000000E+00 0.  1.
<mgrwt>
<rscale>  0 0.20591804E+02</rscale>
<asrwt>0</asrwt>
<pdfrwt beam="1">  1        2 0.10615014E-02 0.20591804E+02</pdfrwt>
<pdfrwt beam="2">  1       -2 0.23636410E-02 0.20591804E+02</pdfrwt>
<totfact> 0.35887038E+06</totfact>
</mgrwt>
</event>
<event>
 4    1  0.2165211E+000  0.4505883E+02  0.7546771E-02  0.1473975E+00
          1   -1    0    0  501    0  0.00000000000E+00  0.00000000000E+00  0.54608345215E+02  0.54608345215E+02  0.00000000000E+00 0. -1.
         -1   -1    0    0    0  501 -0.00000000000E+00 -0.00000000000E+00 -0.92948169186E+01  0.92948169186E+01  0.00000000000E+00 0.  1.
        -13    1    1    2    0    0  0.20123311335E+02 -0.81897639170E+00  0.36976968757E+02  0.42105992446E+02  0.00000000000E+00 0. -1.
         13    1    1    2    0    0 -0.20123311335E+02  0.81897639170E+00  0.83365595396E+01  0.21797169688E+02  0.00000000000E+00 0.  1.
<mgrwt>
<rscale>  0 0.45058831E+02</rscale>
<asrwt>0</asrwt>
<pdfrwt beam="1">  1        1 0.84012837E-02 0.45058831E+02</pdfrwt>
<pdfrwt beam="2">  1       -1 0.14299719E-02 0.45058831E+02</pdfrwt>
<totfact> 0.61215393E+05</totfact>
</mgrwt>
</event>
<event>
 4    1  0.2165211E+000  0.3736630E+02  0.7546771E-02  0.1528538E+00
         -2   -1    0    0    0  501 -0.00000000000E+00  0.00000000000E+00  0.76766437521E+01  0.76766437521E+01  0.00000000000E+00 0. -1.
          2   -1    0    0  501    0  0.00000000000E+00 -0.00000000000E+00 -0.45470406644E+02  0.45470406644E+02  0.00000000000E+00 0.  1.
        -11    1    1    2    0    0 -0.15721007895E+02  0.83557961353E+01 -0.10839598434E+02  0.20843855509E+02  0.00000000000E+00 0. -1.
         11    1    1    2    0    0  0.15721007895E+02 -0.83557961353E+01 -0.26954164458E+02  0.32303194887E+02  0.00000000000E+00 0.  1.
<mgrwt>
<rscale>  0 0.37366301E+02</rscale>
<asrwt>0</asrwt>
<pdfrwt beam="2">  1        2 0.69954471E-02 0.37366301E+02</pdfrwt>
<pdfrwt beam="1">  1       -2 0.11810221E-02 0.37366301E+02</pdfrwt>
<totfact> 0.10510446E+06</totfact>
</mgrwt>
</event>
<event>
 4    1  0.2165211E+000  0.2260320E+02  0.7546771E-02  0.1698024E+00
         -2   -1    0    0    0  501 -0.00000000000E+00  0.00000000000E+00  0.54597100472E+01  0.54597100472E+01  0.00000000000E+00 0. -1.
          2   -1    0    0  501    0  0.00000000000E+00 -0.00000000000E+00 -0.23394306567E+02  0.23394306567E+02  0.00000000000E+00 0.  1.
        -13    1    1    2    0    0  0.71547387326E+01  0.70032820504E+01 -0.15660329682E+02  0.18587150712E+02  0.00000000000E+00 0.  1.
         13    1    1    2    0    0 -0.71547387326E+01 -0.70032820504E+01 -0.22742668371E+01  0.10266865902E+02  0.00000000000E+00 0. -1.
<mgrwt>
<rscale>  0 0.22603197E+02</rscale>
<asrwt>0</asrwt>
<pdfrwt beam="2">  1        2 0.35991241E-02 0.22603197E+02</pdfrwt>
<pdfrwt beam="1">  1       -2 0.83995539E-03 0.22603197E+02</pdfrwt>
<totfact> 0.32002145E+06</totfact>
</mgrwt>
</event>
<event>
 4    1  0.2165211E+000  0.5718127E+02  0.7546771E-02  0.1410056E+00
         -4   -1    0    0    0  501 -0.00000000000E+00  0.00000000000E+00  0.15811799950E+03  0.15811799950E+03  0.00000000000E+00 0.  1.
          4   -1    0    0  501    0  0.00000000000E+00 -0.00000000000E+00 -0.51697117750E+01  0.51697117750E+01  0.00000000000E+00 0. -1.
        -11    1    1    2    0    0 -0.11073995137E+02  0.26035765978E+02  0.88223883276E+02  0.92649598265E+02  0.00000000000E+00 0. -1.
         11    1    1    2    0    0  0.11073995137E+02 -0.26035765978E+02  0.64724404453E+02  0.70638113014E+02  0.00000000000E+00 0.  1.
<mgrwt>
<rscale>  0 0.57181273E+02</rscale>
<asrwt>0</asrwt>
<pdfrwt beam="2">  1        4 0.79534039E-03 0.57181273E+02</pdfrwt>
<pdfrwt beam="1">  1       -4 0.24325842E-01 0.57181273E+02</pdfrwt>
<totfact> 0.77229794E+04</totfact>
</mgrwt>
</event>
<event>
 4    1  0.2165211E+000  0.2810517E+02  0.7546771E-02  0.1620030E+00
         -2   -1    0    0    0  501 -0.00000000000E+00  0.00000000000E+00  0.36820005183E+02  0.36820005183E+02  0.00000000000E+00 0. -1.
          2   -1    0    0  501    0  0.00000000000E+00 -0.00000000000E+00 -0.53632564820E+01  0.53632564820E+01  0.00000000000E+00 0.  1.
        -11    1    1    2    0    0 -0.90883239885E+01  0.10716381383E+02  0.16015783882E+02  0.21305956825E+02  0.00000000000E+00 0. -1.
         11    1    1    2    0    0  0.90883239885E+01 -0.10716381383E+02  0.15440964819E+02  0.20877304840E+02  0.00000000000E+00 0.  1.
<mgrwt>
<rscale>  0 0.28105169E+02</rscale>
<asrwt>0</asrwt>
<pdfrwt beam="2">  1        2 0.82511640E-03 0.28105169E+02</pdfrwt>
<pdfrwt beam="1">  1       -2 0.56646160E-02 0.28105169E+02</pdfrwt>
<totfact> 0.16481797E+06</totfact>
</mgrwt>
</event>
<event>
 4    1  0.2165211E+000  0.6755614E+02  0.7546771E-02  0.1368606E+00
          2   -1    0    0  501    0  0.00000000000E+00  0.00000000000E+00  0.33708467895E+02  0.33708467895E+02  0.00000000000E+00 0. -1.
         -2   -1    0    0    0  501 -0.00000000000E+00 -0.00000000000E+00 -0.33847816741E+02  0.33847816741E+02  0.00000000000E+00 0.  1.
        -13    1    1    2    0    0  0.21509268855E+02 -0.22681264888E+02  0.12731509804E+02  0.33751737221E+02  0.00000000000E+00 0. -1.
         13    1    1    2    0    0 -0.21509268855E+02  0.22681264888E+02 -0.12870858649E+02  0.33804547415E+02  0.00000000000E+00 0.  1.
<mgrwt>
<rscale>  0 0.67556141E+02</rscale>
<asrwt>0</asrwt>
<pdfrwt beam="1">  1        2 0.51859181E-02 0.67556141E+02</pdfrwt>
<pdfrwt beam="2">  1       -2 0.52073564E-02 0.67556141E+02</pdfrwt>
<totfact> 0.21378099E+05</totfact>
</mgrwt>
</event>
<event>
 4    1  0.2165211E+000  0.2614035E+02  0.7546771E-02  0.1645143E+00
         -3   -1    0    0    0  501 -0.00000000000E+00  0.00000000000E+00  0.15262212329E+01  0.15262212329E+01  0.00000000000E+00 0. -1.
          3   -1    0    0  501    0  0.00000000000E+00 -0.00000000000E+00 -0.11192973422E+03  0.11192973422E+03  0.00000000000E+00 0.  1.
        -13    1    1    2    0    0 -0.12599073073E+02 -0.34716073366E+01 -0.54324667696E+02  0.55874486308E+02  0.00000000000E+00 0.  1.
         13    1    1    2    0    0  0.12599073073E+02  0.34716073366E+01 -0.56078845294E+02  0.57581469148E+02  0.00000000000E+00 0. -1.
<mgrwt>
<rscale>  0 0.26140355E+02</rscale>
<asrwt>0</asrwt>
<pdfrwt beam="2">  1        3 0.17219963E-01 0.26140355E+02</pdfrwt>
<pdfrwt beam="1">  1       -3 0.23480322E-03 0.26140355E+02</pdfrwt>
<totfact> 0.76067517E+05</totfact>
</mgrwt>
</event>
<event>
 4    1  0.2165211E+000  0.3281742E+02  0.7546771E-02  0.1568883E+00
          2   -1    0    0  501    0  0.00000000000E+00  0.00000000000E+00  0.58281584524E+02  0.58281584524E+02  0.00000000000E+00 0. -1.
         -2   -1    0    0    0  501 -0.00000000000E+00 -0.00000000000E+00 -0.46197406034E+01  0.46197406034E+01  0.00000000000E+00 0.  1.
        -13    1    1    2    0    0 -0.11287103220E+02 -0.42711639804E+01  0.48140362638E+02  0.49629991495E+02  0.00000000000E+00 0. -1.
         13    1    1    2    0    0  0.11287103220E+02  0.42711639804E+01  0.55214812826E+01  0.13271333633E+02  0.00000000000E+00 0.  1.
<mgrwt>
<rscale>  0 0.32817422E+02</rscale>
<asrwt>0</asrwt>
<pdfrwt beam="1">  1        2 0.89663971E-02 0.32817422E+02</pdfrwt>
<pdfrwt beam="2">  1       -2 0.71072936E-03 0.32817422E+02</pdfrwt>
<totfact> 0.15056093E+06</totfact>
</mgrwt>
</event>
<event>
 4    1  0.2165211E+000  0.2399173E+02  0.7546771E-02  0.1675921E+00
          2   -1    0    0  501    0  0.00000000000E+00  0.00000000000E+00  0.10967342849E+02  0.10967342849E+02  0.00000000000E+00 0.  1.
         -2   -1    0    0    0  501 -0.00000000000E+00 -0.00000000000E+00 -0.13120843479E+02  0.13120843479E+02  0.00000000000E+00 0. -1.
        -13    1    1    2    0    0 -0.10982448428E+02 -0.33305693598E+01  0.24292685296E+01  0.11730652638E+02  0.00000000000E+00 0.  1.
         13    1    1    2    0    0  0.10982448428E+02  0.33305693598E+01 -0.45827691601E+01  0.12357533690E+02  0.00000000000E+00 0. -1.
<mgrwt>
<rscale>  0 0.23991731E+02</rscale>
<asrwt>0</asrwt>
<pdfrwt beam="1">  1        2 0.16872835E-02 0.23991731E+02</pdfrwt>
<pdfrwt beam="2">  1       -2 0.20185913E-02 0.23991731E+02</pdfrwt>
<totfact> 0.26033224E+06</totfact>
</mgrwt>
</event>
<event>
 4    1  0.2165211E+000  0.2545990E+02  0.7546771E-02  0.1654483E+00
          2   -1    0    0  501    0  0.00000000000E+00  0.00000000000E+00  0.39363793525E+02  0.39363793525E+02  0.00000000000E+00 0. -1.
         -2   -1    0    0    0  501 -0.00000000000E+00 -0.00000000000E+00 -0.41167684801E+01  0.41167684801E+01  0.00000000000E+00 0.  1.
        -11    1    1    2    0    0  0.12665614243E+02 -0.19331155284E+00  0.19781351160E+02  0.23489508450E+02  0.00000000000E+00 0. -1.
         11    1    1    2    0    0 -0.12665614243E+02  0.19331155284E+00  0.15465673885E+02  0.19991053555E+02  0.00000000000E+00 0.  1.
<mgrwt>
<rscale>  0 0.25459900E+02</rscale>
<asrwt>0</asrwt>
<pdfrwt beam="1">  1        2 0.60559680E-02 0.25459900E+02</pdfrwt>
<pdfrwt beam="2">  1       -2 0.63334902E-03 0.25459900E+02</pdfrwt>
<totfact> 0.25821112E+06</totfact>
</mgrwt>
</event>
<event>
 4    1  0.2165211E+000  0.2639879E+02  0.7546771E-02  0.1641687E+00
          1   -1    0    0  501    0  0.00000000000E+00  0.00000000000E+00  0.32840936387E+02  0.32840936387E+02  0.00000000000E+00 0.  1.
         -1   -1    0    0    0  501 -0.00000000000E+00 -0.00000000000E+00 -0.53050877544E+01  0.53050877544E+01  0.00000000000E+00 0. -1.
        -11    1    1    2    0    0  0.92326202637E+01 -0.45942794963E+01  0.25672703157E+02  0.27666520714E+02  0.00000000000E+00 0.  1.
         11    1    1    2    0    0 -0.92326202637E+01  0.45942794963E+01  0.18631454756E+01  0.10479503428E+02  0.00000000000E+00 0. -1.
<mgrwt>
<rscale>  0 0.26398792E+02</rscale>
<asrwt>0</asrwt>
<pdfrwt beam="1">  1        1 0.50524517E-02 0.26398792E+02</pdfrwt>
<pdfrwt beam="2">  1       -1 0.81616736E-03 0.26398792E+02</pdfrwt>
<totfact> 0.21545644E+06</totfact>
</mgrwt>
</event>
<event>
 4    1  0.2165211E+000  0.2578167E+02  0.7546771E-02  0.1650022E+00
          2   -1    0    0  501    0  0.00000000000E+00  0.00000000000E+00  0.31432391496E+01  0.31432391496E+01  0.00000000000E+00 0. -1.
         -2   -1    0    0    0  501 -0.00000000000E+00 -0.00000000000E+00 -0.52867010002E+02  0.52867010002E+02  0.00000000000E+00 0.  1.
        -11    1    1    2    0    0  0.10039884327E+02  0.72234002508E+01 -0.32753972045E+02  0.35011419183E+02  0.00000000000E+00 0.  1.
         11    1    1    2    0    0 -0.10039884327E+02 -0.72234002508E+01 -0.16969798808E+02  0.20998829969E+02  0.00000000000E+00 0. -1.
<mgrwt>
<rscale>  0 0.25781672E+02</rscale>
<asrwt>0</asrwt>
<pdfrwt beam="1">  1        2 0.48357526E-03 0.25781672E+02</pdfrwt>
<pdfrwt beam="2">  1       -2 0.81333861E-02 0.25781672E+02</pdfrwt>
<totfact> 0.19093075E+06</totfact>
</mgrwt>
</event>
<event>
 4    1  0.2165211E+000  0.6238047E+02  0.7546771E-02  0.1388105E+00
          4   -1    0    0  501    0  0.00000000000E+00  0.00000000000E+00  0.38479382343E+02  0.38479382343E+02  0.00000000000E+00 0.  1.
         -4   -1    0    0    0  501 -0.00000000000E+00 -0.00000000000E+00 -0.25281874186E+02  0.25281874186E+02  0.00000000000E+00 0. -1.
        -13    1    1    2    0    0  0.16728156900E+02  0.91826103681E+01 -0.18618771597E+02  0.26661024403E+02  0.00000000000E+00 0. -1.
         13    1    1    2    0    0 -0.16728156900E+02 -0.91826103681E+01  0.31816279754E+02  0.37100232126E+02  0.00000000000E+00 0.  1.
<mgrwt>
<rscale>  0 0.62380475E+02</rscale>
<asrwt>0</asrwt>
<pdfrwt beam="1">  1        4 0.59199050E-02 0.62380475E+02</pdfrwt>
<pdfrwt beam="2">  1       -4 0.38895191E-02 0.62380475E+02</pdfrwt>
<totfact> 0.79113410E+04</totfact>
</mgrwt>
</event>
<event>
 4    1  0.2165211E+000  0.9160832E+02  0.7546771E-02  0.1299003E+00
         -2   -1    0    0    0  501 -0.00000000000E+00  0.00000000000E+00  0.21226132738E+02  0.21226132738E+02  0.00000000000E+00 0.  1.
          2   -1    0    0  501    0  0.00000000000E+00 -0.00000000000E+00 -0.98841413300E+02  0.98841413300E+02  0.00000000000E+00 0. -1.
        -13    1    1    2    0    0  0.30015094845E+02 -0.31544319943E+02 -0.57438917871E+02  0.72077592395E+02  0.00000000000E+00 0. -1.
         13    1    1    2    0    0 -0.30015094845E+02  0.31544319943E+02 -0.20176362690E+02  0.47989953643E+02  0.00000000000E+00 0.  1.
<mgrwt>
<rscale>  0 0.91608317E+02</rscale>
<asrwt>0</asrwt>
<pdfrwt beam="2">  1        2 0.15206371E-01 0.91608317E+02</pdfrwt>
<pdfrwt beam="1">  1       -2 0.32655589E-02 0.91608317E+02</pdfrwt>
<totfact> 0.12066106E+05</totfact>
</mgrwt>
</event>
<event>
 4    1  0.2165211E+000  0.2030903E+02  0.7546771E-02  0.1739252E+00
          1   -1    0    0  501    0  0.00000000000E+00  0.00000000000E+00  0.51835409891E+01  0.51835409891E+01  0.00000000000E+00 0.  1.
         -1   -1    0    0    0  501 -0.00000000000E+00 -0.00000000000E+00 -0.19892612310E+02  0.19892612310E+02  0.00000000000E+00 0. -1.
        -13    1    1    2    0    0 -0.15357554836E+01 -0.10026831107E+02 -0.79314123955E+01  0.12876458735E+02  0.00000000000E+00 0.  1.
         13    1    1    2    0    0  0.15357554836E+01  0.10026831107E+02 -0.67776589258E+01  0.12199694565E+02  0.00000000000E+00 0. -1.
<mgrwt>
<rscale>  0 0.20309030E+02</rscale>
<asrwt>0</asrwt>
<pdfrwt beam="1">  1        1 0.79746783E-03 0.20309030E+02</pdfrwt>
<pdfrwt beam="2">  1       -1 0.30604019E-02 0.20309030E+02</pdfrwt>
<totfact> 0.36185783E+06</totfact>
</mgrwt>
</event>
<event>
 4    1  0.2165211E+000  0.2016956E+02  0.7546771E-02  0.1741977E+00
          3   -1    0    0  501    0  0.00000000000E+00  0.00000000000E+00  0.40326466734E+02  0.40326466734E+02  0.00000000000E+00 0. -1.
         -3   -1    0    0    0  501 -0.00000000000E+00 -0.00000000000E+00 -0.25219854102E+01  0.25219854102E+01  0.00000000000E+00 0.  1.
        -11    1    1    2    0    0 -0.10048276137E+02 -0.76157627947E+00  0.19738376951E+02  0.22161935304E+02  0.00000000000E+00 0. -1.
         11    1    1    2    0    0  0.10048276137E+02  0.76157627947E+00  0.18066104372E+02  0.20686516839E+02  0.00000000000E+00 0.  1.
<mgrwt>
<rscale>  0 0.20169557E+02</rscale>
<asrwt>0</asrwt>
<pdfrwt beam="1">  1        3 0.62040713E-02 0.20169557E+02</pdfrwt>
<pdfrwt beam="2">  1       -3 0.38799778E-03 0.20169557E+02</pdfrwt>
<totfact> 0.16265545E+06</totfact>
</mgrwt>
</event>
<event>
 4    1  0.2165211E+000  0.3088753E+02  0.7546771E-02  0.1588480E+00
          1   -1    0    0  501    0  0.00000000000E+00  0.00000000000E+00  0.13821422620E+02  0.13821422620E+02  0.00000000000E+00 0.  1.
         -1   -1    0    0    0  501 -0.00000000000E+00 -0.00000000000E+00 -0.17256532301E+02  0.17256532301E+02  0.00000000000E+00 0. -1.
        -11    1    1    2    0    0 -0.13809540390E+02  0.40516168525E+01 -0.73548482052E+01  0.16162078982E+02  0.00000000000E+00 0.  1.
         11    1    1    2    0    0  0.13809540390E+02 -0.40516168525E+01  0.39197385248E+01  0.14915875938E+02  0.00000000000E+00 0. -1.
<mgrwt>
<rscale>  0 0.30887527E+02</rscale>
<asrwt>0</asrwt>
<pdfrwt beam="1">  1        1 0.21263727E-02 0.30887527E+02</pdfrwt>
<pdfrwt beam="2">  1       -1 0.26548511E-02 0.30887527E+02</pdfrwt>
<totfact> 0.14104562E+06</totfact>
</mgrwt>
</event>
<event>
 4    1  0.2165211E+000  0.2444459E+02  0.7546771E-02  0.1669110E+00
         -4   -1    0    0    0  501 -0.00000000000E+00  0.00000000000E+00  0.47036991617E+01  0.47036991617E+01  0.00000000000E+00 0. -1.
          4   -1    0    0  501    0  0.00000000000E+00 -0.00000000000E+00 -0.31758939725E+02  0.31758939725E+02  0.00000000000E+00 0.  1.
        -11    1    1    2    0    0  0.10596686769E+02 -0.32986088733E+01 -0.58904721721E+01  0.12564563398E+02  0.00000000000E+00 0. -1.
         11    1    1    2    0    0 -0.10596686769E+02  0.32986088733E+01 -0.21164768391E+02  0.23898075488E+02  0.00000000000E+00 0.  1.
<mgrwt>
<rscale>  0 0.24444590E+02</rscale>
<asrwt>0</asrwt>
<pdfrwt beam="2">  1        4 0.48859909E-02 0.24444590E+02</pdfrwt>
<pdfrwt beam="1">  1       -4 0.72364599E-03 0.24444590E+02</pdfrwt>
<totfact> 0.79743374E+05</totfact>
</mgrwt>
</event>
<event>
 4    1  0.2165211E+000  0.3785610E+02  0.7546771E-02  0.1524608E+00
          4   -1    0    0  501    0  0.00000000000E+00  0.00000000000E+00  0.10796992259E+03  0.10796992259E+03  0.00000000000E+00 0.  1.
         -4   -1    0    0    0  501 -0.00000000000E+00 -0.00000000000E+00 -0.33182493312E+01  0.33182493312E+01  0.00000000000E+00 0. -1.
        -11    1    1    2    0    0 -0.88112531905E+01  0.12172176604E+02  0.18490257717E+02  0.23826239664E+02  0.00000000000E+00 0. -1.
         11    1    1    2    0    0  0.88112531905E+01 -0.12172176604E+02  0.86161415540E+02  0.87461932256E+02  0.00000000000E+00 0.  1.
<mgrwt>
<rscale>  0 0.37856102E+02</rscale>
<asrwt>0</asrwt>
<pdfrwt beam="1">  1        4 0.16610755E-01 0.37856102E+02</pdfrwt>
<pdfrwt beam="2">  1       -4 0.51049998E-03 0.37856102E+02</pdfrwt>
<totfact> 0.23711629E+05</totfact>
</mgrwt>
</event>
<event>
 4    1  0.2165211E+000  0.2643255E+02  0.7546771E-02  0.1641239E+00
          2   -1    0    0  501    0  0.00000000000E+00  0.00000000000E+00  0.48687027247E+01  0.48687027247E+01  0.00000000000E+00 0. -1.
         -2   -1    0    0    0  501 -0.00000000000E+00 -0.00000000000E+00 -0.35876083962E+02  0.35876083962E+02  0.00000000000E+00 0.  1.
        -13    1    1    2    0    0  0.22339197544E+01 -0.99599242316E+01 -0.25627956078E+01  0.10524182130E+02  0.00000000000E+00 0. -1.
         13    1    1    2    0    0 -0.22339197544E+01  0.99599242316E+01 -0.28444585629E+02  0.30220604557E+02  0.00000000000E+00 0.  1.
<mgrwt>
<rscale>  0 0.26432555E+02</rscale>
<asrwt>0</asrwt>
<pdfrwt beam="1">  1        2 0.74903121E-03 0.26432555E+02</pdfrwt>
<pdfrwt beam="2">  1       -2 0.55193974E-02 0.26432555E+02</pdfrwt>
<totfact> 0.19009224E+06</totfact>
</mgrwt>
</event>
<event>
 4    1  0.2165211E+000  0.2446368E+02  0.7546771E-02  0.1668827E+00
          2   -1    0    0  501    0  0.00000000000E+00  0.00000000000E+00  0.70417117598E+02  0.70417117598E+02  0.00000000000E+00 0.  1.
         -2   -1    0    0    0  501 -0.00000000000E+00 -0.00000000000E+00 -0.21247376266E+01  0.21247376266E+01  0.00000000000E+00 0. -1.
        -11    1    1    2    0    0 -0.12127494380E+02 -0.11698744187E+01  0.37357986003E+02  0.39294577797E+02  0.00000000000E+00 0.  1.
         11    1    1    2    0    0  0.12127494380E+02  0.11698744187E+01  0.30934393969E+02  0.33247277428E+02  0.00000000000E+00 0. -1.
<mgrwt>
<rscale>  0 0.24463679E+02</rscale>
<asrwt>0</asrwt>
<pdfrwt beam="1">  1        2 0.10833401E-01 0.24463679E+02</pdfrwt>
<pdfrwt beam="2">  1       -2 0.32688277E-03 0.24463679E+02</pdfrwt>
<totfact> 0.31143094E+06</totfact>
</mgrwt>
</event>
<event>
 4    1  0.2165211E+000  0.3261209E+02  0.7546771E-02  0.1570889E+00
          2   -1    0    0  501    0  0.00000000000E+00  0.00000000000E+00  0.34287916405E+01  0.34287916405E+01  0.00000000000E+00 0.  1.
         -2   -1    0    0    0  501 -0.00000000000E+00 -0.00000000000E+00 -0.77545404840E+02  0.77545404840E+02  0.00000000000E+00 0. -1.
        -13    1    1    2    0    0  0.71821091371E+01  0.10224498623E+02 -0.11044855171E+02  0.16676687006E+02  0.00000000000E+00 0.  1.
         13    1    1    2    0    0 -0.71821091371E+01 -0.10224498623E+02 -0.63071758029E+02  0.64297509475E+02  0.00000000000E+00 0. -1.
<mgrwt>
<rscale>  0 0.32612086E+02</rscale>
<asrwt>0</asrwt>
<pdfrwt beam="1">  1        2 0.52750642E-03 0.32612086E+02</pdfrwt>
<pdfrwt beam="2">  1       -2 0.11930062E-01 0.32612086E+02</pdfrwt>
<totfact> 0.10388380E+06</totfact>
</mgrwt>
</event>
<event>
 4    1  0.2165211E+000  0.2314835E+02  0.7546771E-02  0.1689117E+00
          2   -1    0    0  501    0  0.00000000000E+00  0.00000000000E+00  0.30088337741E+01  0.30088337741E+01  0.00000000000E+00 0.  1.
         -2   -1    0    0    0  501 -0.00000000000E+00 -0.00000000000E+00 -0.44522750789E+02  0.44522750789E+02  0.00000000000E+00 0. -1.
        -13    1    1    2    0    0  0.90434803736E+01  0.70968970593E+01 -0.23520270749E+02  0.26179259372E+02  0.00000000000E+00 0.  1.
         13    1    1    2    0    0 -0.90434803736E+01 -0.70968970593E+01 -0.17993646265E+02  0.21352325191E+02  0.00000000000E+00 0. -1.
<mgrwt>
<rscale>  0 0.23148353E+02</rscale>
<asrwt>0</asrwt>
<pdfrwt beam="1">  1        2 0.46289750E-03 0.23148353E+02</pdfrwt>
<pdfrwt beam="2">  1       -2 0.68496540E-02 0.23148353E+02</pdfrwt>
<totfact> 0.24934932E+06</totfact>
</mgrwt>
</event>
<event>
 4    1  0.2165211E+000  0.2253631E+02  0.7546771E-02  0.1699139E+00
         -2   -1    0    0    0  501 -0.00000000000E+00  0.00000000000E+00  0.27160177686E+01  0.27160177686E+01  0.00000000000E+00 0. -1.
          2   -1    0    0  501    0  0.00000000000E+00 -0.00000000000E+00 -0.46749067341E+02  0.46749067341E+02  0.00000000000E+00 0.  1.
        -13    1    1    2    0    0  0.98681944488E+01 -0.45308562553E+01 -0.15409391053E+02  0.18850974848E+02  0.00000000000E+00 0. -1.
         13    1    1    2    0    0 -0.98681944488E+01  0.45308562553E+01 -0.28623658519E+02  0.30614110262E+02  0.00000000000E+00 0.  1.
<mgrwt>
<rscale>  0 0.22536308E+02</rscale>
<asrwt>0</asrwt>
<pdfrwt beam="2">  1        2 0.71921630E-02 0.22536308E+02</pdfrwt>
<pdfrwt beam="1">  1       -2 0.41784896E-03 0.22536308E+02</pdfrwt>
<totfact> 0.35045168E+06</totfact>
</mgrwt>
</event>
<event>
 4    1  0.2165211E+000  0.3561327E+02  0.7546771E-02  0.1543221E+00
          4   -1    0    0  501    0  0.00000000000E+00  0.00000000000E+00  0.17856631431E+02  0.17856631431E+02  0.00000000000E+00 0.  1.
         -4   -1    0    0    0  501 -0.00000000000E+00 -0.00000000000E+00 -0.17756782433E+02  0.17756782433E+02  0.00000000000E+00 0. -1.
        -11    1    1    2    0    0  0.76854113942E+01  0.10365978249E+02  0.12320150635E+02  0.17841108851E+02  0.00000000000E+00 0.  1.
         11    1    1    2    0    0 -0.76854113942E+01 -0.10365978249E+02 -0.12220301637E+02  0.17772305013E+02  0.00000000000E+00 0. -1.
<mgrwt>
<rscale>  0 0.35613274E+02</rscale>
<asrwt>0</asrwt>
<pdfrwt beam="1">  1        4 0.27471741E-02 0.35613274E+02</pdfrwt>
<pdfrwt beam="2">  1       -4 0.27318127E-02 0.35613274E+02</pdfrwt>
<totfact> 0.34335686E+05</totfact>
</mgrwt>
</event>
<event>
 4    1  0.2165211E+000  0.2711739E+02  0.7546771E-02  0.1632328E+00
          2   -1    0    0  501    0  0.00000000000E+00  0.00000000000E+00  0.77334984956E+02  0.77334984956E+02  0.00000000000E+00 0.  1.
         -2   -1    0    0    0  501 -0.00000000000E+00 -0.00000000000E+00 -0.23771678134E+01  0.23771678134E+01  0.00000000000E+00 0. -1.
        -13    1    1    2    0    0  0.82710963325E+01 -0.66573917895E+01  0.62266297028E+02  0.63165050823E+02  0.00000000000E+00 0.  1.
         13    1    1    2    0    0 -0.82710963325E+01  0.66573917895E+01  0.12691520115E+02  0.16547101946E+02  0.00000000000E+00 0. -1.
<mgrwt>
<rscale>  0 0.27117392E+02</rscale>
<asrwt>0</asrwt>
<pdfrwt beam="1">  1        2 0.11897688E-01 0.27117392E+02</pdfrwt>
<pdfrwt beam="2">  1       -2 0.36571818E-03 0.27117392E+02</pdfrwt>
<totfact> 0.25001517E+06</totfact>
</mgrwt>
</event>
<event>
 4    1  0.2165211E+000  0.2808389E+02  0.7546771E-02  0.1620289E+00
          2   -1    0    0  501    0  0.00000000000E+00  0.00000000000E+00  0.26308197978E+02  0.26308197978E+02  0.00000000000E+00 0. -1.
         -2   -1    0    0    0  501 -0.00000000000E+00 -0.00000000000E+00 -0.74948583025E+01  0.74948583025E+01  0.00000000000E+00 0.  1.
        -11    1    1    2    0    0 -0.31229038063E-01  0.13319326978E+02  0.14758600728E+02  0.19880184653E+02  0.00000000000E+00 0. -1.
         11    1    1    2    0    0  0.31229038063E-01 -0.13319326978E+02  0.40547389476E+01  0.13922871627E+02  0.00000000000E+00 0.  1.
<mgrwt>
<rscale>  0 0.28083890E+02</rscale>
<asrwt>0</asrwt>
<pdfrwt beam="1">  1        2 0.40474150E-02 0.28083890E+02</pdfrwt>
<pdfrwt beam="2">  1       -2 0.11530551E-02 0.28083890E+02</pdfrwt>
<totfact> 0.19488475E+06</totfact>
</mgrwt>
</event>
<event>
 4    1  0.2165211E+000  0.1196169E+03  0.7546771E-02  0.1243730E+00
          1   -1    0    0  501    0  0.00000000000E+00  0.00000000000E+00  0.72447137559E+02  0.72447137559E+02  0.00000000000E+00 0. -1.
         -1   -1    0    0    0  501 -0.00000000000E+00 -0.00000000000E+00 -0.49374658663E+02  0.49374658663E+02  0.00000000000E+00 0.  1.
        -13    1    1    2    0    0 -0.36257071926E+02 -0.30021289664E+02  0.49110741974E+02  0.68027333293E+02  0.00000000000E+00 0.  1.
         13    1    1    2    0    0  0.36257071926E+02  0.30021289664E+02 -0.26038263078E+02  0.53794462929E+02  0.00000000000E+00 0. -1.
<mgrwt>
<rscale>  0 0.11961693E+03</rscale>
<asrwt>0</asrwt>
<pdfrwt beam="1">  1        1 0.11145713E-01 0.11961693E+03</pdfrwt>
<pdfrwt beam="2">  1       -1 0.75961013E-02 0.11961693E+03</pdfrwt>
<totfact> 0.46225092E+04</totfact>
</mgrwt>
</event>
<event>
 4    1  0.2165211E+000  0.3387904E+02  0.7546771E-02  0.1558786E+00
         -4   -1    0    0    0  501 -0.00000000000E+00  0.00000000000E+00  0.28354815626E+01  0.28354815626E+01  0.00000000000E+00 0. -1.
          4   -1    0    0  501    0  0.00000000000E+00 -0.00000000000E+00 -0.10119881955E+03  0.10119881955E+03  0.00000000000E+00 0.  1.
        -11    1    1    2    0    0  0.10571255344E+02  0.12542050226E+02 -0.36192359206E+02  0.39735894709E+02  0.00000000000E+00 0. -1.
         11    1    1    2    0    0 -0.10571255344E+02 -0.12542050226E+02 -0.62170978779E+02  0.64298406401E+02  0.00000000000E+00 0.  1.
<mgrwt>
<rscale>  0 0.33879043E+02</rscale>
<asrwt>0</asrwt>
<pdfrwt beam="2">  1        4 0.15569047E-01 0.33879043E+02</pdfrwt>
<pdfrwt beam="1">  1       -4 0.43622799E-03 0.33879043E+02</pdfrwt>
<totfact> 0.31237931E+05</totfact>
</mgrwt>
</event>
<event>
 4    1  0.2165211E+000  0.4799352E+02  0.7546771E-02  0.1456474E+00
          2   -1    0    0  501    0  0.00000000000E+00  0.00000000000E+00  0.40614606320E+02  0.40614606320E+02  0.00000000000E+00 0. -1.
         -2   -1    0    0    0  501 -0.00000000000E+00 -0.00000000000E+00 -0.14178259401E+02  0.14178259401E+02  0.00000000000E+00 0.  1.
        -11    1    1    2    0    0 -0.33377639040E+00 -0.21274120580E+02  0.25887382276E+02  0.33509046155E+02  0.00000000000E+00 0. -1.
         11    1    1    2    0    0  0.33377639040E+00  0.21274120580E+02  0.54896464388E+00  0.21283819566E+02  0.00000000000E+00 0.  1.
<mgrwt>
<rscale>  0 0.47993517E+02</rscale>
<asrwt>0</asrwt>
<pdfrwt beam="1">  1        2 0.62484009E-02 0.47993517E+02</pdfrwt>
<pdfrwt beam="2">  1       -2 0.21812707E-02 0.47993517E+02</pdfrwt>
<totfact> 0.54894167E+05</totfact>
</mgrwt>
</event>
<event>
 4    1  0.2165211E+000  0.5893853E+02  0.7546771E-02  0.1402341E+00
         -2   -1    0    0    0  501 -0.00000000000E+00  0.00000000000E+00  0.10124126866E+02  0.10124126866E+02  0.00000000000E+00 0. -1.
          2   -1    0    0  501    0  0.00000000000E+00 -0.00000000000E+00 -0.85779019584E+02  0.85779019584E+02  0.00000000000E+00 0.  1.
        -13    1    1    2    0    0  0.11740577067E+01  0.14350482610E+02 -0.79665804847E+02  0.80956502052E+02  0.00000000000E+00 0.  1.
         13    1    1    2    0    0 -0.11740577067E+01 -0.14350482610E+02  0.40109121285E+01  0.14946644398E+02  0.00000000000E+00 0. -1.
<mgrwt>
<rscale>  0 0.58938533E+02</rscale>
<asrwt>0</asrwt>
<pdfrwt beam="2">  1        2 0.13196772E-01 0.58938533E+02</pdfrwt>
<pdfrwt beam="1">  1       -2 0.15575580E-02 0.58938533E+02</pdfrwt>
<totfact> 0.37752776E+05</totfact>
</mgrwt>
</event>
<event>
 4    1  0.2165211E+000  0.2184731E+02  0.7546771E-02  0.1710906E+00
         -4   -1    0    0    0  501 -0.00000000000E+00  0.00000000000E+00  0.23986728440E+02  0.23986728440E+02  0.00000000000E+00 0. -1.
          4   -1    0    0  501    0  0.00000000000E+00 -0.00000000000E+00 -0.49746775830E+01  0.49746775830E+01  0.00000000000E+00 0.  1.
        -13    1    1    2    0    0  0.21691832806E+01 -0.10705871740E+02  0.94104840645E+01  0.14417983775E+02  0.00000000000E+00 0.  1.
         13    1    1    2    0    0 -0.21691832806E+01  0.10705871740E+02  0.96015667923E+01  0.14543422248E+02  0.00000000000E+00 0. -1.
<mgrwt>
<rscale>  0 0.21847310E+02</rscale>
<asrwt>0</asrwt>
<pdfrwt beam="2">  1        4 0.76533503E-03 0.21847310E+02</pdfrwt>
<pdfrwt beam="1">  1       -4 0.36902658E-02 0.21847310E+02</pdfrwt>
<totfact> 0.10422954E+06</totfact>
</mgrwt>
</event>
<event>
 4    1  0.2165211E+000  0.3129364E+02  0.7546771E-02  0.1584214E+00
         -1   -1    0    0    0  501 -0.00000000000E+00  0.00000000000E+00  0.90766290318E+02  0.90766290318E+02  0.00000000000E+00 0.  1.
          1   -1    0    0  501    0  0.00000000000E+00 -0.00000000000E+00 -0.26972896277E+01  0.26972896277E+01  0.00000000000E+00 0. -1.
        -11    1    1    2    0    0  0.13928199863E+02 -0.43752347634E+01  0.60846404580E+02  0.62573336023E+02  0.00000000000E+00 0. -1.
         11    1    1    2    0    0 -0.13928199863E+02  0.43752347634E+01  0.27222596110E+02  0.30890243923E+02  0.00000000000E+00 0.  1.
<mgrwt>
<rscale>  0 0.31293640E+02</rscale>
<asrwt>0</asrwt>
<pdfrwt beam="2">  1        1 0.41496770E-03 0.31293640E+02</pdfrwt>
<pdfrwt beam="1">  1       -1 0.13964042E-01 0.31293640E+02</pdfrwt>
<totfact> 0.11706493E+06</totfact>
</mgrwt>
</event>
<event>
 4    1  0.2165211E+000  0.2217984E+02  0.7546771E-02  0.1705160E+00
          2   -1    0    0  501    0  0.00000000000E+00  0.00000000000E+00  0.65942213002E+02  0.65942213002E+02  0.00000000000E+00 0. -1.
         -2   -1    0    0    0  501 -0.00000000000E+00 -0.00000000000E+00 -0.18650626872E+01  0.18650626872E+01  0.00000000000E+00 0.  1.
        -13    1    1    2    0    0  0.99041114422E+01  0.23941196606E+01  0.45421499763E+02  0.46550358464E+02  0.00000000000E+00 0. -1.
         13    1    1    2    0    0 -0.99041114422E+01 -0.23941196606E+01  0.18655650552E+02  0.21256917225E+02  0.00000000000E+00 0.  1.
<mgrwt>
<rscale>  0 0.22179843E+02</rscale>
<asrwt>0</asrwt>
<pdfrwt beam="1">  1        2 0.10144954E-01 0.22179843E+02</pdfrwt>
<pdfrwt beam="2">  1       -2 0.28693277E-03 0.22179843E+02</pdfrwt>
<totfact> 0.38456008E+06</totfact>
</mgrwt>
</event>
<event>
 4    1  0.2165211E+000  0.6338203E+02  0.7546771E-02  0.1384163E+00
         -2   -1    0    0    0  501 -0.00000000000E+00  0.00000000000E+00  0.14365472534E+02  0.14365472534E+02  0.00000000000E+00 0.  1.
          2   -1    0    0  501    0  0.00000000000E+00 -0.00000000000E+00 -0.69912099437E+02  0.69912099437E+02  0.00000000000E+00 0. -1.
        -11    1    1    2    0    0  0.29008249462E+02  0.14346424938E+01 -0.44633670789E+02  0.53251303309E+02  0.00000000000E+00 0. -1.
         11    1    1    2    0    0 -0.29008249462E+02 -0.14346424938E+01 -0.10912956114E+02  0.31026268662E+02  0.00000000000E+00 0.  1.
<mgrwt>
<rscale>  0 0.63382027E+02</rscale>
<asrwt>0</asrwt>
<pdfrwt beam="2">  1        2 0.10755708E-01 0.63382027E+02</pdfrwt>
<pdfrwt beam="1">  1       -2 0.22100727E-02 0.63382027E+02</pdfrwt>
<totfact> 0.29689658E+05</totfact>
</mgrwt>
</event>
<event>
 4    1  0.2165211E+000  0.2330038E+02  0.7546771E-02  0.1686687E+00
         -2   -1    0    0    0  501 -0.00000000000E+00  0.00000000000E+00  0.41691638385E+02  0.41691638385E+02  0.00000000000E+00 0. -1.
          2   -1    0    0  501    0  0.00000000000E+00 -0.00000000000E+00 -0.32554959933E+01  0.32554959933E+01  0.00000000000E+00 0.  1.
        -11    1    1    2    0    0 -0.90959523267E+01  0.68297946004E+01  0.24076974876E+02  0.26628615476E+02  0.00000000000E+00 0.  1.
         11    1    1    2    0    0  0.90959523267E+01 -0.68297946004E+01  0.14359167516E+02  0.18318518902E+02  0.00000000000E+00 0. -1.
<mgrwt>
<rscale>  0 0.23300383E+02</rscale>
<asrwt>0</asrwt>
<pdfrwt beam="2">  1        2 0.50084557E-03 0.23300383E+02</pdfrwt>
<pdfrwt beam="1">  1       -2 0.64140978E-02 0.23300383E+02</pdfrwt>
<totfact> 0.24785494E+06</totfact>
</mgrwt>
</event>
<event>
 4    1  0.2165211E+000  0.3006517E+02  0.7546771E-02  0.1597369E+00
         -3   -1    0    0    0  501 -0.00000000000E+00  0.00000000000E+00  0.30118967251E+02  0.30118967251E+02  0.00000000000E+00 0. -1.
          3   -1    0    0  501    0  0.00000000000E+00 -0.00000000000E+00 -0.75028658102E+01  0.75028658102E+01  0.00000000000E+00 0.  1.
        -11    1    1    2    0    0  0.42504048524E+01  0.93729565308E+01 -0.24031682373E+01  0.10568513288E+02  0.00000000000E+00 0.  1.
         11    1    1    2    0    0 -0.42504048524E+01 -0.93729565308E+01  0.25019269678E+02  0.27053319773E+02  0.00000000000E+00 0. -1.
<mgrwt>
<rscale>  0 0.30065167E+02</rscale>
<asrwt>0</asrwt>
<pdfrwt beam="2">  1        3 0.11542871E-02 0.30065167E+02</pdfrwt>
<pdfrwt beam="1">  1       -3 0.46336872E-02 0.30065167E+02</pdfrwt>
<totfact> 0.67460815E+05</totfact>
</mgrwt>
</event>
<event>
 4    1  0.2165211E+000  0.2463266E+02  0.7546771E-02  0.1666335E+00
          2   -1    0    0  501    0  0.00000000000E+00  0.00000000000E+00  0.42943769829E+01  0.42943769829E+01  0.00000000000E+00 0.  1.
         -2   -1    0    0    0  501 -0.00000000000E+00 -0.00000000000E+00 -0.35323386714E+02  0.35323386714E+02  0.00000000000E+00 0. -1.
        -13    1    1    2    0    0 -0.10294914442E+02 -0.44389002504E+01 -0.73130839252E+01  0.13385450882E+02  0.00000000000E+00 0.  1.
         13    1    1    2    0    0  0.10294914442E+02  0.44389002504E+01 -0.23715925806E+02  0.26232312816E+02  0.00000000000E+00 0. -1.
<mgrwt>
<rscale>  0 0.24632656E+02</rscale>
<asrwt>0</asrwt>
<pdfrwt beam="1">  1        2 0.66067339E-03 0.24632656E+02</pdfrwt>
<pdfrwt beam="2">  1       -2 0.54343671E-02 0.24632656E+02</pdfrwt>
<totfact> 0.22331678E+06</totfact>
</mgrwt>
</event>
<event>
 4    1  0.2165211E+000  0.1525951E+03  0.7546771E-02  0.1197320E+00
          2   -1    0    0  501    0  0.00000000000E+00  0.00000000000E+00  0.16900784777E+03  0.16900784777E+03  0.00000000000E+00 0.  1.
         -2   -1    0    0    0  501 -0.00000000000E+00 -0.00000000000E+00 -0.34444069477E+02  0.34444069477E+02  0.00000000000E+00 0. -1.
        -13    1    1    2    0    0 -0.41118595619E+02 -0.59876548747E+02  0.98418400909E+02  0.12231975161E+03  0.00000000000E+00 0. -1.
         13    1    1    2    0    0  0.41118595619E+02  0.59876548747E+02  0.36145377385E+02  0.81132165642E+02  0.00000000000E+00 0.  1.
<mgrwt>
<rscale>  0 0.15259513E+03</rscale>
<asrwt>0</asrwt>
<pdfrwt beam="1">  1        2 0.26001207E-01 0.15259513E+03</pdfrwt>
<pdfrwt beam="2">  1       -2 0.52990877E-02 0.15259513E+03</pdfrwt>
<totfact> 0.34379959E+04</totfact>
</mgrwt>
</event>
<event>
 4    1  0.2165211E+000  0.5068030E+02  0.7546771E-02  0.1441706E+00
         -2   -1    0    0    0  501 -0.00000000000E+00  0.00000000000E+00  0.59193198802E+02  0.59193198802E+02  0.00000000000E+00 0. -1.
          2   -1    0    0  501    0  0.00000000000E+00 -0.00000000000E+00 -0.10847923333E+02  0.10847923333E+02  0.00000000000E+00 0.  1.
        -13    1    1    2    0    0  0.53703863837E+01 -0.17660609741E+02  0.18017785877E+00  0.18459974279E+02  0.00000000000E+00 0.  1.
         13    1    1    2    0    0 -0.53703863837E+01  0.17660609741E+02  0.48165097610E+02  0.51581147856E+02  0.00000000000E+00 0. -1.
<mgrwt>
<rscale>  0 0.50680303E+02</rscale>
<asrwt>0</asrwt>
<pdfrwt beam="2">  1        2 0.16689113E-02 0.50680303E+02</pdfrwt>
<pdfrwt beam="1">  1       -2 0.91066458E-02 0.50680303E+02</pdfrwt>
<totfact> 0.38277103E+05</totfact>
</mgrwt>
</event>
<event>
 4    1  0.2165211E+000  0.8950685E+02  0.7546771E-02  0.1304050E+00
          1   -1    0    0  501    0  0.00000000000E+00  0.00000000000E+00  0.90718393373E+02  0.90718393373E+02  0.00000000000E+00 0. -1.
         -1   -1    0    0    0  501 -0.00000000000E+00 -0.00000000000E+00 -0.22077871712E+02  0.22077871712E+02  0.00000000000E+00 0.  1.
        -11    1    1    2    0    0 -0.28574999609E+02  0.19685935524E+02 -0.12968037696E+01  0.34723887457E+02  0.00000000000E+00 0.  1.
         11    1    1    2    0    0  0.28574999609E+02 -0.19685935524E+02  0.69937325431E+02  0.78072377628E+02  0.00000000000E+00 0. -1.
<mgrwt>
<rscale>  0 0.89506850E+02</rscale>
<asrwt>0</asrwt>
<pdfrwt beam="1">  1        1 0.13956676E-01 0.89506850E+02</pdfrwt>
<pdfrwt beam="2">  1       -1 0.33965957E-02 0.89506850E+02</pdfrwt>
<totfact> 0.10811046E+05</totfact>
</mgrwt>
</event>
<event>
 4    1  0.2165211E+000  0.2374603E+02  0.7546771E-02  0.1679695E+00
         -2   -1    0    0    0  501 -0.00000000000E+00  0.00000000000E+00  0.13070425331E+01  0.13070425331E+01  0.00000000000E+00 0.  1.
          2   -1    0    0  501    0  0.00000000000E+00 -0.00000000000E+00 -0.10785299781E+03  0.10785299781E+03  0.00000000000E+00 0. -1.
        -13    1    1    2    0    0 -0.11623627241E+00 -0.11633095800E+02 -0.64176670662E+02  0.65222599504E+02  0.00000000000E+00 0. -1.
         13    1    1    2    0    0  0.11623627241E+00  0.11633095800E+02 -0.42369284615E+02  0.43937440839E+02  0.00000000000E+00 0.  1.
<mgrwt>
<rscale>  0 0.23746027E+02</rscale>
<asrwt>0</asrwt>
<pdfrwt beam="2">  1        2 0.16592773E-01 0.23746027E+02</pdfrwt>
<pdfrwt beam="1">  1       -2 0.20108342E-03 0.23746027E+02</pdfrwt>
<totfact> 0.36562775E+06</totfact>
</mgrwt>
</event>
<event>
 4    1  0.2165211E+000  0.2834943E+02  0.7546771E-02  0.1617084E+00
          2   -1    0    0  501    0  0.00000000000E+00  0.00000000000E+00  0.66387571282E+02  0.66387571282E+02  0.00000000000E+00 0. -1.
         -2   -1    0    0    0  501 -0.00000000000E+00 -0.00000000000E+00 -0.30265086918E+01  0.30265086918E+01  0.00000000000E+00 0.  1.
        -11    1    1    2    0    0 -0.11800598898E+02  0.51213628088E+01  0.46256939080E+02  0.48012361995E+02  0.00000000000E+00 0. -1.
         11    1    1    2    0    0  0.11800598898E+02 -0.51213628088E+01  0.17104123510E+02  0.21401717978E+02  0.00000000000E+00 0.  1.
<mgrwt>
<rscale>  0 0.28349431E+02</rscale>
<asrwt>0</asrwt>
<pdfrwt beam="1">  1        2 0.10213471E-01 0.28349431E+02</pdfrwt>
<pdfrwt beam="2">  1       -2 0.46561677E-03 0.28349431E+02</pdfrwt>
<totfact> 0.21858258E+06</totfact>
</mgrwt>
</event>
<event>
 4    1  0.2165211E+000  0.3114702E+02  0.7546771E-02  0.1585745E+00
          4   -1    0    0  501    0  0.00000000000E+00  0.00000000000E+00  0.53338431206E+02  0.53338431206E+02  0.00000000000E+00 0.  1.
         -4   -1    0    0    0  501 -0.00000000000E+00 -0.00000000000E+00 -0.45470807615E+01  0.45470807615E+01  0.00000000000E+00 0. -1.
        -11    1    1    2    0    0 -0.10686008037E+02  0.26143365324E+01  0.44881667009E+02  0.46210275446E+02  0.00000000000E+00 0.  1.
         11    1    1    2    0    0  0.10686008037E+02 -0.26143365324E+01  0.39096834348E+01  0.11675236521E+02  0.00000000000E+00 0. -1.
<mgrwt>
<rscale>  0 0.31147016E+02</rscale>
<asrwt>0</asrwt>
<pdfrwt beam="1">  1        4 0.82059120E-02 0.31147016E+02</pdfrwt>
<pdfrwt beam="2">  1       -4 0.69955093E-03 0.31147016E+02</pdfrwt>
<totfact> 0.43315689E+05</totfact>
</mgrwt>
</event>
<event>
 4    1  0.2165211E+000  0.8771176E+02  0.7546771E-02  0.1308490E+00
          1   -1    0    0  501    0  0.00000000000E+00  0.00000000000E+00  0.22004428936E+02  0.22004428936E+02  0.00000000000E+00 0. -1.
         -1   -1    0    0    0  501 -0.00000000000E+00 -0.00000000000E+00 -0.87406859418E+02  0.87406859418E+02  0.00000000000E+00 0.  1.
        -11    1    1    2    0    0  0.42331179355E+02  0.20001581429E+01 -0.18621178710E+02  0.46289066470E+02  0.00000000000E+00 0. -1.
         11    1    1    2    0    0 -0.42331179355E+02 -0.20001581429E+01 -0.46781251773E+02  0.63122221884E+02  0.00000000000E+00 0.  1.
<mgrwt>
<rscale>  0 0.87711756E+02</rscale>
<asrwt>0</asrwt>
<pdfrwt beam="1">  1        1 0.33852968E-02 0.87711756E+02</pdfrwt>
<pdfrwt beam="2">  1       -1 0.13447209E-01 0.87711756E+02</pdfrwt>
<totfact> 0.92073501E+04</totfact>
</mgrwt>
</event>
<event>
 4    1  0.2165211E+000  0.3453195E+02  0.7546771E-02  0.1552797E+00
          2   -1    0    0  501    0  0.00000000000E+00  0.00000000000E+00  0.25528010449E+02  0.25528010449E+02  0.00000000000E+00 0. -1.
         -2   -1    0    0    0  501 -0.00000000000E+00 -0.00000000000E+00 -0.11677912272E+02  0.11677912272E+02  0.00000000000E+00 0.  1.
        -11    1    1    2    0    0  0.15088474327E+02  0.83850182075E+01  0.65172167147E+01  0.18451143639E+02  0.00000000000E+00 0. -1.
         11    1    1    2    0    0 -0.15088474327E+02 -0.83850182075E+01  0.73328814621E+01  0.18754779082E+02  0.00000000000E+00 0.  1.
<mgrwt>
<rscale>  0 0.34531948E+02</rscale>
<asrwt>0</asrwt>
<pdfrwt beam="1">  1        2 0.39273862E-02 0.34531948E+02</pdfrwt>
<pdfrwt beam="2">  1       -2 0.17966019E-02 0.34531948E+02</pdfrwt>
<totfact> 0.11760610E+06</totfact>
</mgrwt>
</event>
<event>
 4    1  0.2165211E+000  0.2061946E+02  0.7546771E-02  0.1733283E+00
          2   -1    0    0  501    0  0.00000000000E+00  0.00000000000E+00  0.31023571921E+01  0.31023571921E+01  0.00000000000E+00 0.  1.
         -2   -1    0    0    0  501 -0.00000000000E+00 -0.00000000000E+00 -0.34261216746E+02  0.34261216746E+02  0.00000000000E+00 0. -1.
        -13    1    1    2    0    0  0.60389014600E+01 -0.79750142345E+01 -0.20099169413E+02  0.22450964210E+02  0.00000000000E+00 0.  1.
         13    1    1    2    0    0 -0.60389014600E+01  0.79750142345E+01 -0.11059690141E+02  0.14912609728E+02  0.00000000000E+00 0. -1.
<mgrwt>
<rscale>  0 0.20619460E+02</rscale>
<asrwt>0</asrwt>
<pdfrwt beam="1">  1        2 0.47728576E-03 0.20619460E+02</pdfrwt>
<pdfrwt beam="2">  1       -2 0.52709560E-02 0.20619460E+02</pdfrwt>
<totfact> 0.33260878E+06</totfact>
</mgrwt>
</event>
<event>
 4    1  0.2165211E+000  0.2451248E+02  0.7546771E-02  0.1668105E+00
         -2   -1    0    0    0  501 -0.00000000000E+00  0.00000000000E+00  0.42098983740E+01  0.42098983740E+01  0.00000000000E+00 0.  1.
          2   -1    0    0  501    0  0.00000000000E+00 -0.00000000000E+00 -0.35681476096E+02  0.35681476096E+02  0.00000000000E+00 0. -1.
        -11    1    1    2    0    0  0.63116959759E+01  0.90148448759E+01 -0.24516228901E+02  0.26872856450E+02  0.00000000000E+00 0. -1.
         11    1    1    2    0    0 -0.63116959759E+01 -0.90148448759E+01 -0.69553488208E+01  0.13018518020E+02  0.00000000000E+00 0.  1.
<mgrwt>
<rscale>  0 0.24512477E+02</rscale>
<asrwt>0</asrwt>
<pdfrwt beam="2">  1        2 0.54894578E-02 0.24512477E+02</pdfrwt>
<pdfrwt beam="1">  1       -2 0.64767668E-03 0.24512477E+02</pdfrwt>
<totfact> 0.27837150E+06</totfact>
</mgrwt>
</event>
<event>
 4    1  0.2165211E+000  0.3314871E+02  0.7546771E-02  0.1565683E+00
          4   -1    0    0  501    0  0.00000000000E+00  0.00000000000E+00  0.43118797865E+02  0.43118797865E+02  0.00000000000E+00 0. -1.
         -4   -1    0    0    0  501 -0.00000000000E+00 -0.00000000000E+00 -0.63709875086E+01  0.63709875086E+01  0.00000000000E+00 0.  1.
        -13    1    1    2    0    0 -0.11903158566E+02 -0.76849898539E+01  0.31213822023E+02  0.34278957659E+02  0.00000000000E+00 0. -1.
         13    1    1    2    0    0  0.11903158566E+02  0.76849898539E+01  0.55339883334E+01  0.15210827715E+02  0.00000000000E+00 0.  1.
<mgrwt>
<rscale>  0 0.33148715E+02</rscale>
<asrwt>0</asrwt>
<pdfrwt beam="1">  1        4 0.66336610E-02 0.33148715E+02</pdfrwt>
<pdfrwt beam="2">  1       -4 0.98015195E-03 0.33148715E+02</pdfrwt>
<totfact> 0.38635356E+05</totfact>
</mgrwt>
</event>
<event>
 4    1  0.2165211E+000  0.3147422E+02  0.7546771E-02  0.1582342E+00
         -1   -1    0    0    0  501 -0.00000000000E+00  0.00000000000E+00  0.16604743484E+02  0.16604743484E+02  0.00000000000E+00 0.  1.
          1   -1    0    0  501    0  0.00000000000E+00 -0.00000000000E+00 -0.14914811056E+02  0.14914811056E+02  0.00000000000E+00 0. -1.
        -13    1    1    2    0    0 -0.13699321346E+02 -0.75393242208E+01 -0.93066321950E+00  0.15664576250E+02  0.00000000000E+00 0.  1.
         13    1    1    2    0    0  0.13699321346E+02  0.75393242208E+01  0.26205956479E+01  0.15854978291E+02  0.00000000000E+00 0. -1.
<mgrwt>
<rscale>  0 0.31474219E+02</rscale>
<asrwt>0</asrwt>
<pdfrwt beam="2">  1        1 0.22945863E-02 0.31474219E+02</pdfrwt>
<pdfrwt beam="1">  1       -1 0.25545759E-02 0.31474219E+02</pdfrwt>
<totfact> 0.13532884E+06</totfact>
</mgrwt>
</event>
<event>
 4    1  0.2165211E+000  0.2679903E+02  0.7546771E-02  0.1636430E+00
         -2   -1    0    0    0  501 -0.00000000000E+00  0.00000000000E+00  0.63837817090E+01  0.63837817090E+01  0.00000000000E+00 0. -1.
          2   -1    0    0  501    0  0.00000000000E+00 -0.00000000000E+00 -0.28125492574E+02  0.28125492574E+02  0.00000000000E+00 0.  1.
        -13    1    1    2    0    0 -0.24026734419E+00 -0.12234709828E+02 -0.17900498513E+02  0.21683489110E+02  0.00000000000E+00 0.  1.
         13    1    1    2    0    0  0.24026734419E+00  0.12234709828E+02 -0.38412123518E+01  0.12825785173E+02  0.00000000000E+00 0. -1.
<mgrwt>
<rscale>  0 0.26799030E+02</rscale>
<asrwt>0</asrwt>
<pdfrwt beam="2">  1        2 0.43269989E-02 0.26799030E+02</pdfrwt>
<pdfrwt beam="1">  1       -2 0.98212025E-03 0.26799030E+02</pdfrwt>
<totfact> 0.21946560E+06</totfact>
</mgrwt>
</event>
<event>
 4    1  0.2165211E+000  0.2528600E+02  0.7546771E-02  0.1656928E+00
          2   -1    0    0  501    0  0.00000000000E+00  0.00000000000E+00  0.16673850584E+02  0.16673850584E+02  0.00000000000E+00 0. -1.
         -2   -1    0    0    0  501 -0.00000000000E+00 -0.00000000000E+00 -0.95865972773E+01  0.95865972773E+01  0.00000000000E+00 0.  1.
        -13    1    1    2    0    0  0.99395103859E+01 -0.69830662791E+01  0.71841998857E+01  0.14112753430E+02  0.00000000000E+00 0. -1.
         13    1    1    2    0    0 -0.99395103859E+01  0.69830662791E+01 -0.96946578773E-01  0.12147694432E+02  0.00000000000E+00 0.  1.
<mgrwt>
<rscale>  0 0.25286003E+02</rscale>
<asrwt>0</asrwt>
<pdfrwt beam="1">  1        2 0.25652078E-02 0.25286003E+02</pdfrwt>
<pdfrwt beam="2">  1       -2 0.14748611E-02 0.25286003E+02</pdfrwt>
<totfact> 0.23856424E+06</totfact>
</mgrwt>
</event>
<event>
 4    1  0.2165211E+000  0.5308779E+02  0.7546771E-02  0.1429364E+00
         -2   -1    0    0    0  501 -0.00000000000E+00  0.00000000000E+00  0.17075358810E+02  0.17075358810E+02  0.00000000000E+00 0. -1.
          2   -1    0    0  501    0  0.00000000000E+00 -0.00000000000E+00 -0.41262871121E+02  0.41262871121E+02  0.00000000000E+00 0.  1.
        -11    1    1    2    0    0 -0.21139311864E+01 -0.11647853612E+02  0.14013810720E+02  0.18344701953E+02  0.00000000000E+00 0. -1.
         11    1    1    2    0    0  0.21139311864E+01  0.11647853612E+02 -0.38201323031E+02  0.39993527979E+02  0.00000000000E+00 0.  1.
<mgrwt>
<rscale>  0 0.53087789E+02</rscale>
<asrwt>0</asrwt>
<pdfrwt beam="2">  1        2 0.63481340E-02 0.53087789E+02</pdfrwt>
<pdfrwt beam="1">  1       -2 0.26269783E-02 0.53087789E+02</pdfrwt>
<totfact> 0.42380967E+05</totfact>
</mgrwt>
</event>
<event>
 4    1  0.2165211E+000  0.2215147E+02  0.7546771E-02  0.1705645E+00
          4   -1    0    0  501    0  0.00000000000E+00  0.00000000000E+00  0.79977910925E+01  0.79977910925E+01  0.00000000000E+00 0. -1.
         -4   -1    0    0    0  501 -0.00000000000E+00 -0.00000000000E+00 -0.15338225254E+02  0.15338225254E+02  0.00000000000E+00 0.  1.
        -11    1    1    2    0    0 -0.10998152166E+02 -0.88628540026E+00 -0.26558852902E+01  0.11348946187E+02  0.00000000000E+00 0. -1.
         11    1    1    2    0    0  0.10998152166E+02  0.88628540026E+00 -0.46845488712E+01  0.11987070159E+02  0.00000000000E+00 0.  1.
<mgrwt>
<rscale>  0 0.22151471E+02</rscale>
<asrwt>0</asrwt>
<pdfrwt beam="1">  1        4 0.12304294E-02 0.22151471E+02</pdfrwt>
<pdfrwt beam="2">  1       -4 0.23597269E-02 0.22151471E+02</pdfrwt>
<totfact> 0.10369880E+06</totfact>
</mgrwt>
</event>
<event>
 4    1  0.2165211E+000  0.2603781E+02  0.7546771E-02  0.1646528E+00
          2   -1    0    0  501    0  0.00000000000E+00  0.00000000000E+00  0.19761630918E+02  0.19761630918E+02  0.00000000000E+00 0.  1.
         -2   -1    0    0    0  501 -0.00000000000E+00 -0.00000000000E+00 -0.85768178294E+01  0.85768178294E+01  0.00000000000E+00 0. -1.
        -11    1    1    2    0    0 -0.39689085745E+01  0.10984369017E+02 -0.66761852821E+00  0.11698474793E+02  0.00000000000E+00 0. -1.
         11    1    1    2    0    0  0.39689085745E+01 -0.10984369017E+02  0.11852431617E+02  0.16639973954E+02  0.00000000000E+00 0.  1.
<mgrwt>
<rscale>  0 0.26037812E+02</rscale>
<asrwt>0</asrwt>
<pdfrwt beam="1">  1        2 0.30402509E-02 0.26037812E+02</pdfrwt>
<pdfrwt beam="2">  1       -2 0.13195104E-02 0.26037812E+02</pdfrwt>
<totfact> 0.22624066E+06</totfact>
</mgrwt>
</event>
<event>
 4    1  0.2165211E+000  0.2518559E+02  0.7546771E-02  0.1658350E+00
          2   -1    0    0  501    0  0.00000000000E+00  0.00000000000E+00  0.18760843998E+02  0.18760843998E+02  0.00000000000E+00 0.  1.
         -2   -1    0    0    0  501 -0.00000000000E+00 -0.00000000000E+00 -0.84526286723E+01  0.84526286723E+01  0.00000000000E+00 0. -1.
        -13    1    1    2    0    0  0.21534238117E+01 -0.10034353914E+02  0.13039144834E+02  0.16593516523E+02  0.00000000000E+00 0.  1.
         13    1    1    2    0    0 -0.21534238117E+01  0.10034353914E+02 -0.27309295084E+01  0.10619956147E+02  0.00000000000E+00 0. -1.
<mgrwt>
<rscale>  0 0.25185587E+02</rscale>
<asrwt>0</asrwt>
<pdfrwt beam="1">  1        2 0.28862837E-02 0.25185587E+02</pdfrwt>
<pdfrwt beam="2">  1       -2 0.13004044E-02 0.25185587E+02</pdfrwt>
<totfact> 0.24350922E+06</totfact>
</mgrwt>
</event>
<event>
 4    1  0.2165211E+000  0.2282405E+02  0.7546771E-02  0.1694378E+00
         -4   -1    0    0    0  501 -0.00000000000E+00  0.00000000000E+00  0.23715723964E+01  0.23715723964E+01  0.00000000000E+00 0.  1.
          4   -1    0    0  501    0  0.00000000000E+00 -0.00000000000E+00 -0.54914735562E+02  0.54914735562E+02  0.00000000000E+00 0. -1.
        -11    1    1    2    0    0 -0.88161775195E+01  0.49300230217E+01 -0.39601109395E+02  0.40869034468E+02  0.00000000000E+00 0. -1.
         11    1    1    2    0    0  0.88161775195E+01 -0.49300230217E+01 -0.12942053770E+02  0.16417273490E+02  0.00000000000E+00 0.  1.
<mgrwt>
<rscale>  0 0.22824046E+02</rscale>
<asrwt>0</asrwt>
<pdfrwt beam="2">  1        4 0.84484203E-02 0.22824046E+02</pdfrwt>
<pdfrwt beam="1">  1       -4 0.36485731E-03 0.22824046E+02</pdfrwt>
<totfact> 0.85521056E+05</totfact>
</mgrwt>
</event>
<event>
 4    1  0.2165211E+000  0.3691847E+02  0.7546771E-02  0.1532195E+00
         -1   -1    0    0    0  501 -0.00000000000E+00  0.00000000000E+00  0.48553897926E+01  0.48553897926E+01  0.00000000000E+00 0.  1.
          1   -1    0    0  501    0  0.00000000000E+00 -0.00000000000E+00 -0.70178355778E+02  0.70178355778E+02  0.00000000000E+00 0. -1.
        -13    1    1    2    0    0 -0.17530072098E+02  0.50956208313E+01 -0.27104950574E+02  0.32679460292E+02  0.00000000000E+00 0. -1.
         13    1    1    2    0    0  0.17530072098E+02 -0.50956208313E+01 -0.38218015412E+02  0.42354285278E+02  0.00000000000E+00 0.  1.
<mgrwt>
<rscale>  0 0.36918465E+02</rscale>
<asrwt>0</asrwt>
<pdfrwt beam="2">  1        1 0.10796670E-01 0.36918465E+02</pdfrwt>
<pdfrwt beam="1">  1       -1 0.74698307E-03 0.36918465E+02</pdfrwt>
<totfact> 0.10276712E+06</totfact>
</mgrwt>
</event>
<event>
 4    1  0.2165211E+000  0.4562358E+02  0.7546771E-02  0.1470486E+00
          4   -1    0    0  501    0  0.00000000000E+00  0.00000000000E+00  0.47636046886E+02  0.47636046886E+02  0.00000000000E+00 0.  1.
         -4   -1    0    0    0  501 -0.00000000000E+00 -0.00000000000E+00 -0.10924033989E+02  0.10924033989E+02  0.00000000000E+00 0. -1.
        -11    1    1    2    0    0  0.16954275275E+02 -0.14947973695E+02  0.22309758386E+02  0.31758694667E+02  0.00000000000E+00 0.  1.
         11    1    1    2    0    0 -0.16954275275E+02  0.14947973695E+02  0.14402254511E+02  0.26801386208E+02  0.00000000000E+00 0. -1.
<mgrwt>
<rscale>  0 0.45623581E+02</rscale>
<asrwt>0</asrwt>
<pdfrwt beam="1">  1        4 0.73286225E-02 0.45623581E+02</pdfrwt>
<pdfrwt beam="2">  1       -4 0.16806206E-02 0.45623581E+02</pdfrwt>
<totfact> 0.17598831E+05</totfact>
</mgrwt>
</event>
<event>
 4    1  0.2165211E+000  0.5163332E+02  0.7546771E-02  0.1436726E+00
         -1   -1    0    0    0  501 -0.00000000000E+00  0.00000000000E+00  0.10030178231E+03  0.10030178231E+03  0.00000000000E+00 0.  1.
          1   -1    0    0  501    0  0.00000000000E+00 -0.00000000000E+00 -0.66449450938E+01  0.66449450938E+01  0.00000000000E+00 0. -1.
        -13    1    1    2    0    0 -0.16598947774E+02 -0.67116337455E+01  0.83044691999E+01  0.19736648739E+02  0.00000000000E+00 0. -1.
         13    1    1    2    0    0  0.16598947774E+02  0.67116337455E+01  0.85352368019E+02  0.87210078668E+02  0.00000000000E+00 0.  1.
<mgrwt>
<rscale>  0 0.51633316E+02</rscale>
<asrwt>0</asrwt>
<pdfrwt beam="2">  1        1 0.10222993E-02 0.51633316E+02</pdfrwt>
<pdfrwt beam="1">  1       -1 0.15431042E-01 0.51633316E+02</pdfrwt>
<totfact> 0.34357548E+05</totfact>
</mgrwt>
</event>
<event>
 4    1  0.2165211E+000  0.3798721E+02  0.7546771E-02  0.1523568E+00
          2   -1    0    0  501    0  0.00000000000E+00  0.00000000000E+00  0.71262645964E+02  0.71262645964E+02  0.00000000000E+00 0.  1.
         -2   -1    0    0    0  501 -0.00000000000E+00 -0.00000000000E+00 -0.50623584623E+01  0.50623584623E+01  0.00000000000E+00 0. -1.
        -11    1    1    2    0    0 -0.16427158502E+02 -0.93924117613E+01  0.36394374740E+02  0.41019744610E+02  0.00000000000E+00 0.  1.
         11    1    1    2    0    0  0.16427158502E+02  0.93924117613E+01  0.29805912762E+02  0.35305259816E+02  0.00000000000E+00 0. -1.
<mgrwt>
<rscale>  0 0.37987211E+02</rscale>
<asrwt>0</asrwt>
<pdfrwt beam="1">  1        2 0.10963483E-01 0.37987211E+02</pdfrwt>
<pdfrwt beam="2">  1       -2 0.77882443E-03 0.37987211E+02</pdfrwt>
<totfact> 0.10972386E+06</totfact>
</mgrwt>
</event>
<event>
 4    1  0.2165211E+000  0.2884465E+02  0.7546771E-02  0.1611222E+00
          2   -1    0    0  501    0  0.00000000000E+00  0.00000000000E+00  0.17748531500E+02  0.17748531500E+02  0.00000000000E+00 0. -1.
         -2   -1    0    0    0  501 -0.00000000000E+00 -0.00000000000E+00 -0.11719473805E+02  0.11719473805E+02  0.00000000000E+00 0.  1.
        -11    1    1    2    0    0 -0.11379210131E+02  0.53723142664E+01 -0.41844041570E+01  0.13261124459E+02  0.00000000000E+00 0.  1.
         11    1    1    2    0    0  0.11379210131E+02 -0.53723142664E+01  0.10213461852E+02  0.16206880847E+02  0.00000000000E+00 0. -1.
<mgrwt>
<rscale>  0 0.28844649E+02</rscale>
<asrwt>0</asrwt>
<pdfrwt beam="1">  1        2 0.27305433E-02 0.28844649E+02</pdfrwt>
<pdfrwt beam="2">  1       -2 0.18029960E-02 0.28844649E+02</pdfrwt>
<totfact> 0.17522762E+06</totfact>
</mgrwt>
</event>
<event>
 4    1  0.2165211E+000  0.9751110E+02  0.7546771E-02  0.1285619E+00
         -2   -1    0    0    0  501 -0.00000000000E+00  0.00000000000E+00  0.99483286580E+01  0.99483286580E+01  0.00000000000E+00 0.  1.
          2   -1    0    0  501    0  0.00000000000E+00 -0.00000000000E+00 -0.23894500342E+03  0.23894500342E+03  0.00000000000E+00 0. -1.
        -11    1    1    2    0    0 -0.37180470465E+02 -0.16799623219E+01 -0.19488644553E+03  0.19840850866E+03  0.00000000000E+00 0. -1.
         11    1    1    2    0    0  0.37180470465E+02  0.16799623219E+01 -0.34110229236E+02  0.50484823422E+02  0.00000000000E+00 0.  1.
<mgrwt>
<rscale>  0 0.97511095E+02</rscale>
<asrwt>0</asrwt>
<pdfrwt beam="2">  1        2 0.36760769E-01 0.97511095E+02</pdfrwt>
<pdfrwt beam="1">  1       -2 0.15305121E-02 0.97511095E+02</pdfrwt>
<totfact> 0.13776475E+05</totfact>
</mgrwt>
</event>
<event>
 4    1  0.2165211E+000  0.2274096E+02  0.7546771E-02  0.1695744E+00
         -4   -1    0    0    0  501 -0.00000000000E+00  0.00000000000E+00  0.26415828767E+02  0.26415828767E+02  0.00000000000E+00 0. -1.
          4   -1    0    0  501    0  0.00000000000E+00 -0.00000000000E+00 -0.48943321482E+01  0.48943321482E+01  0.00000000000E+00 0.  1.
        -13    1    1    2    0    0 -0.56380475210E+01  0.97086887816E+01  0.82818559639E+01  0.13951177582E+02  0.00000000000E+00 0.  1.
         13    1    1    2    0    0  0.56380475210E+01 -0.97086887816E+01  0.13239640655E+02  0.17358983334E+02  0.00000000000E+00 0. -1.
<mgrwt>
<rscale>  0 0.22740962E+02</rscale>
<asrwt>0</asrwt>
<pdfrwt beam="2">  1        4 0.75297419E-03 0.22740962E+02</pdfrwt>
<pdfrwt beam="1">  1       -4 0.40639736E-02 0.22740962E+02</pdfrwt>
<totfact> 0.94893073E+05</totfact>
</mgrwt>
</event>
<event>
 4    1  0.2165211E+000  0.2579633E+02  0.7546771E-02  0.1649821E+00
          2   -1    0    0  501    0  0.00000000000E+00  0.00000000000E+00  0.82280423737E+01  0.82280423737E+01  0.00000000000E+00 0. -1.
         -2   -1    0    0    0  501 -0.00000000000E+00 -0.00000000000E+00 -0.20218981248E+02  0.20218981248E+02  0.00000000000E+00 0.  1.
        -13    1    1    2    0    0  0.91261904313E+01  0.80086998505E+01 -0.10794164722E+02  0.16246249325E+02  0.00000000000E+00 0.  1.
         13    1    1    2    0    0 -0.91261904313E+01 -0.80086998505E+01 -0.11967741528E+01  0.12200774297E+02  0.00000000000E+00 0. -1.
<mgrwt>
<rscale>  0 0.25796328E+02</rscale>
<asrwt>0</asrwt>
<pdfrwt beam="1">  1        2 0.12658527E-02 0.25796328E+02</pdfrwt>
<pdfrwt beam="2">  1       -2 0.31106125E-02 0.25796328E+02</pdfrwt>
<totfact> 0.21330127E+06</totfact>
</mgrwt>
</event>
<event>
 4    1  0.2165211E+000  0.3940785E+02  0.7546771E-02  0.1512615E+00
         -2   -1    0    0    0  501 -0.00000000000E+00  0.00000000000E+00  0.31261568137E+01  0.31261568137E+01  0.00000000000E+00 0. -1.
          2   -1    0    0  501    0  0.00000000000E+00 -0.00000000000E+00 -0.12419230860E+03  0.12419230860E+03  0.00000000000E+00 0.  1.
        -13    1    1    2    0    0  0.11389323533E+02 -0.14844444879E+02 -0.80493603230E+02  0.82639544984E+02  0.00000000000E+00 0.  1.
         13    1    1    2    0    0 -0.11389323533E+02  0.14844444879E+02 -0.40572548552E+02  0.44678920425E+02  0.00000000000E+00 0. -1.
<mgrwt>
<rscale>  0 0.39407849E+02</rscale>
<asrwt>0</asrwt>
<pdfrwt beam="2">  1        2 0.19106507E-01 0.39407849E+02</pdfrwt>
<pdfrwt beam="1">  1       -2 0.48094726E-03 0.39407849E+02</pdfrwt>
<totfact> 0.11472519E+06</totfact>
</mgrwt>
</event>
<event>
 4    1  0.2165211E+000  0.1200534E+03  0.7546771E-02  0.1243009E+00
         -3   -1    0    0    0  501 -0.00000000000E+00  0.00000000000E+00  0.40091747942E+02  0.40091747942E+02  0.00000000000E+00 0.  1.
          3   -1    0    0  501    0  0.00000000000E+00 -0.00000000000E+00 -0.89873964656E+02  0.89873964656E+02  0.00000000000E+00 0. -1.
        -13    1    1    2    0    0 -0.10993529496E+02 -0.52531985438E+02 -0.53994562824E+02  0.76130677124E+02  0.00000000000E+00 0. -1.
         13    1    1    2    0    0  0.10993529496E+02  0.52531985438E+02  0.42123461102E+01  0.53835035475E+02  0.00000000000E+00 0.  1.
<mgrwt>
<rscale>  0 0.12005339E+03</rscale>
<asrwt>0</asrwt>
<pdfrwt beam="2">  1        3 0.13826764E-01 0.12005339E+03</pdfrwt>
<pdfrwt beam="1">  1       -3 0.61679613E-02 0.12005339E+03</pdfrwt>
<totfact> 0.15241695E+04</totfact>
</mgrwt>
</event>
<event>
 4    1  0.2165211E+000  0.2547687E+02  0.7546771E-02  0.1654245E+00
         -2   -1    0    0    0  501 -0.00000000000E+00  0.00000000000E+00  0.25055429601E+01  0.25055429601E+01  0.00000000000E+00 0.  1.
          2   -1    0    0  501    0  0.00000000000E+00 -0.00000000000E+00 -0.64763478533E+02  0.64763478533E+02  0.00000000000E+00 0. -1.
        -13    1    1    2    0    0  0.11491828673E+02  0.47477051308E+01 -0.38439026446E+02  0.40400019609E+02  0.00000000000E+00 0. -1.
         13    1    1    2    0    0 -0.11491828673E+02 -0.47477051308E+01 -0.23818909127E+02  0.26869001885E+02  0.00000000000E+00 0.  1.
<mgrwt>
<rscale>  0 0.25476866E+02</rscale>
<asrwt>0</asrwt>
<pdfrwt beam="2">  1        2 0.99636141E-02 0.25476866E+02</pdfrwt>
<pdfrwt beam="1">  1       -2 0.38546807E-03 0.25476866E+02</pdfrwt>
<totfact> 0.27915940E+06</totfact>
</mgrwt>
</event>
<event>
 4    1  0.2165211E+000  0.2615995E+02  0.7546771E-02  0.1644879E+00
          1   -1    0    0  501    0  0.00000000000E+00  0.00000000000E+00  0.21695061829E+02  0.21695061829E+02  0.00000000000E+00 0.  1.
         -1   -1    0    0    0  501 -0.00000000000E+00 -0.00000000000E+00 -0.78859310449E+01  0.78859310449E+01  0.00000000000E+00 0. -1.
        -11    1    1    2    0    0 -0.78529810053E+01  0.10044541639E+02  0.10205889923E+02  0.16331635451E+02  0.00000000000E+00 0.  1.
         11    1    1    2    0    0  0.78529810053E+01 -0.10044541639E+02  0.36032408619E+01  0.13249357423E+02  0.00000000000E+00 0. -1.
<mgrwt>
<rscale>  0 0.26159951E+02</rscale>
<asrwt>0</asrwt>
<pdfrwt beam="1">  1        1 0.33377018E-02 0.26159951E+02</pdfrwt>
<pdfrwt beam="2">  1       -1 0.12132202E-02 0.26159951E+02</pdfrwt>
<totfact> 0.21508402E+06</totfact>
</mgrwt>
</event>
<event>
 4    1  0.2165211E+000  0.2446556E+02  0.7546771E-02  0.1668799E+00
         -2   -1    0    0    0  501 -0.00000000000E+00  0.00000000000E+00  0.18300358573E+01  0.18300358573E+01  0.00000000000E+00 0. -1.
          2   -1    0    0  501    0  0.00000000000E+00 -0.00000000000E+00 -0.81769387527E+02  0.81769387527E+02  0.00000000000E+00 0.  1.
        -11    1    1    2    0    0 -0.11642259088E+01  0.11739485941E+02 -0.28913101087E+02  0.31227205552E+02  0.00000000000E+00 0. -1.
         11    1    1    2    0    0  0.11642259088E+01 -0.11739485941E+02 -0.51026250583E+02  0.52372217832E+02  0.00000000000E+00 0.  1.
<mgrwt>
<rscale>  0 0.24465560E+02</rscale>
<asrwt>0</asrwt>
<pdfrwt beam="2">  1        2 0.12579907E-01 0.24465560E+02</pdfrwt>
<pdfrwt beam="1">  1       -2 0.28154396E-03 0.24465560E+02</pdfrwt>
<totfact> 0.32087819E+06</totfact>
</mgrwt>
</event>
<event>
 4    1  0.2165211E+000  0.2112214E+02  0.7546771E-02  0.1723892E+00
          2   -1    0    0  501    0  0.00000000000E+00  0.00000000000E+00  0.33346105163E+02  0.33346105163E+02  0.00000000000E+00 0.  1.
         -2   -1    0    0    0  501 -0.00000000000E+00 -0.00000000000E+00 -0.33448057191E+01  0.33448057191E+01  0.00000000000E+00 0. -1.
        -13    1    1    2    0    0 -0.61859536471E+01  0.79884445061E+01  0.96593040286E+01  0.13977962028E+02  0.00000000000E+00 0.  1.
         13    1    1    2    0    0  0.61859536471E+01 -0.79884445061E+01  0.20341995415E+02  0.22712948853E+02  0.00000000000E+00 0. -1.
<mgrwt>
<rscale>  0 0.21122144E+02</rscale>
<asrwt>0</asrwt>
<pdfrwt beam="1">  1        2 0.51301698E-02 0.21122144E+02</pdfrwt>
<pdfrwt beam="2">  1       -2 0.51458552E-03 0.21122144E+02</pdfrwt>
<totfact> 0.38818114E+06</totfact>
</mgrwt>
</event>
<event>
 4    1  0.2165211E+000  0.3199620E+02  0.7546771E-02  0.1577017E+00
          2   -1    0    0  501    0  0.00000000000E+00  0.00000000000E+00  0.29611399672E+02  0.29611399672E+02  0.00000000000E+00 0. -1.
         -2   -1    0    0    0  501 -0.00000000000E+00 -0.00000000000E+00 -0.86432684449E+01  0.86432684449E+01  0.00000000000E+00 0.  1.
        -11    1    1    2    0    0 -0.92693517236E+01 -0.10988085492E+02  0.20909546699E+01  0.14526905919E+02  0.00000000000E+00 0.  1.
         11    1    1    2    0    0  0.92693517236E+01  0.10988085492E+02  0.18877176558E+02  0.23727762198E+02  0.00000000000E+00 0. -1.
<mgrwt>
<rscale>  0 0.31996205E+02</rscale>
<asrwt>0</asrwt>
<pdfrwt beam="1">  1        2 0.45555999E-02 0.31996205E+02</pdfrwt>
<pdfrwt beam="2">  1       -2 0.13297336E-02 0.31996205E+02</pdfrwt>
<totfact> 0.14442340E+06</totfact>
</mgrwt>
</event>
<event>
 4    1  0.2165211E+000  0.2366739E+02  0.7546771E-02  0.1680915E+00
          2   -1    0    0  501    0  0.00000000000E+00  0.00000000000E+00  0.55486907537E+02  0.55486907537E+02  0.00000000000E+00 0. -1.
         -2   -1    0    0    0  501 -0.00000000000E+00 -0.00000000000E+00 -0.25237727628E+01  0.25237727628E+01  0.00000000000E+00 0.  1.
        -13    1    1    2    0    0  0.79345363305E+01  0.71361080219E+01  0.13946155598E+02  0.17560642370E+02  0.00000000000E+00 0.  1.
         13    1    1    2    0    0 -0.79345363305E+01 -0.71361080219E+01  0.39016979176E+02  0.40450037930E+02  0.00000000000E+00 0. -1.
<mgrwt>
<rscale>  0 0.23667391E+02</rscale>
<asrwt>0</asrwt>
<pdfrwt beam="1">  1        2 0.85364464E-02 0.23667391E+02</pdfrwt>
<pdfrwt beam="2">  1       -2 0.38827277E-03 0.23667391E+02</pdfrwt>
<totfact> 0.32192129E+06</totfact>
</mgrwt>
</event>
<event>
 4    1  0.2165211E+000  0.9740055E+02  0.7546771E-02  0.1285859E+00
          2   -1    0    0  501    0  0.00000000000E+00  0.00000000000E+00  0.28476665492E+02  0.28476665492E+02  0.00000000000E+00 0. -1.
         -2   -1    0    0    0  501 -0.00000000000E+00 -0.00000000000E+00 -0.83286327010E+02  0.83286327010E+02  0.00000000000E+00 0.  1.
        -11    1    1    2    0    0 -0.42350801303E+02  0.18843875989E+02 -0.44541363686E+02  0.64285419126E+02  0.00000000000E+00 0.  1.
         11    1    1    2    0    0  0.42350801303E+02 -0.18843875989E+02 -0.10268297832E+02  0.47477573376E+02  0.00000000000E+00 0. -1.
<mgrwt>
<rscale>  0 0.97400552E+02</rscale>
<asrwt>0</asrwt>
<pdfrwt beam="1">  1        2 0.43810255E-02 0.97400552E+02</pdfrwt>
<pdfrwt beam="2">  1       -2 0.12813281E-01 0.97400552E+02</pdfrwt>
<totfact> 0.71511536E+04</totfact>
</mgrwt>
</event>
<event>
 4    1  0.2165211E+000  0.3401443E+02  0.7546771E-02  0.1557531E+00
         -2   -1    0    0    0  501 -0.00000000000E+00  0.00000000000E+00  0.33540561137E+01  0.33540561137E+01  0.00000000000E+00 0. -1.
          2   -1    0    0  501    0  0.00000000000E+00 -0.00000000000E+00 -0.86237494651E+02  0.86237494651E+02  0.00000000000E+00 0.  1.
        -11    1    1    2    0    0  0.16299136006E+02  0.19203511833E+01 -0.53190280252E+02  0.55664670092E+02  0.00000000000E+00 0.  1.
         11    1    1    2    0    0 -0.16299136006E+02 -0.19203511833E+01 -0.29693158285E+02  0.33926880672E+02  0.00000000000E+00 0. -1.
<mgrwt>
<rscale>  0 0.34014432E+02</rscale>
<asrwt>0</asrwt>
<pdfrwt beam="2">  1        2 0.13267306E-01 0.34014432E+02</pdfrwt>
<pdfrwt beam="1">  1       -2 0.51600867E-03 0.34014432E+02</pdfrwt>
<totfact> 0.14961699E+06</totfact>
</mgrwt>
</event>
<event>
 4    1  0.2165211E+000  0.4500149E+02  0.7546771E-02  0.1474332E+00
          2   -1    0    0  501    0  0.00000000000E+00  0.00000000000E+00  0.71319347976E+01  0.71319347976E+01  0.00000000000E+00 0.  1.
         -2   -1    0    0    0  501 -0.00000000000E+00 -0.00000000000E+00 -0.70988240766E+02  0.70988240766E+02  0.00000000000E+00 0. -1.
        -11    1    1    2    0    0 -0.10928155158E+02  0.10191876290E+02 -0.27258086768E+01  0.15189764659E+02  0.00000000000E+00 0.  1.
         11    1    1    2    0    0  0.10928155158E+02 -0.10191876290E+02 -0.61130497291E+02  0.62930410904E+02  0.00000000000E+00 0. -1.
<mgrwt>
<rscale>  0 0.45001489E+02</rscale>
<asrwt>0</asrwt>
<pdfrwt beam="1">  1        2 0.10972208E-02 0.45001489E+02</pdfrwt>
<pdfrwt beam="2">  1       -2 0.10921267E-01 0.45001489E+02</pdfrwt>
<totfact> 0.49212753E+05</totfact>
</mgrwt>
</event>
<event>
 4    1  0.2165211E+000  0.2920731E+02  0.7546771E-02  0.1607020E+00
         -4   -1    0    0    0  501 -0.00000000000E+00  0.00000000000E+00  0.50796657365E+01  0.50796657365E+01  0.00000000000E+00 0.  1.
          4   -1    0    0  501    0  0.00000000000E+00 -0.00000000000E+00 -0.41984415337E+02  0.41984415337E+02  0.00000000000E+00 0. -1.
        -11    1    1    2    0    0 -0.93936156496E+01  0.10964758428E+02 -0.14921704198E+02  0.20763506412E+02  0.00000000000E+00 0. -1.
         11    1    1    2    0    0  0.93936156496E+01 -0.10964758428E+02 -0.21983045403E+02  0.26300574662E+02  0.00000000000E+00 0.  1.
<mgrwt>
<rscale>  0 0.29207314E+02</rscale>
<asrwt>0</asrwt>
<pdfrwt beam="2">  1        4 0.64591408E-02 0.29207314E+02</pdfrwt>
<pdfrwt beam="1">  1       -4 0.78148704E-03 0.29207314E+02</pdfrwt>
<totfact> 0.51920715E+05</totfact>
</mgrwt>
</event>
<event>
 4    1  0.2165211E+000  0.2189428E+02  0.7546771E-02  0.1710087E+00
          2   -1    0    0  501    0  0.00000000000E+00  0.00000000000E+00  0.39765840439E+01  0.39765840439E+01  0.00000000000E+00 0.  1.
         -2   -1    0    0    0  501 -0.00000000000E+00 -0.00000000000E+00 -0.30136381399E+02  0.30136381399E+02  0.00000000000E+00 0. -1.
        -11    1    1    2    0    0 -0.91113627419E+01 -0.49529809142E+01 -0.76175335081E+01  0.12867624788E+02  0.00000000000E+00 0.  1.
         11    1    1    2    0    0  0.91113627419E+01  0.49529809142E+01 -0.18542263847E+02  0.21245340654E+02  0.00000000000E+00 0. -1.
<mgrwt>
<rscale>  0 0.21894278E+02</rscale>
<asrwt>0</asrwt>
<pdfrwt beam="1">  1        2 0.61178216E-03 0.21894278E+02</pdfrwt>
<pdfrwt beam="2">  1       -2 0.46363664E-02 0.21894278E+02</pdfrwt>
<totfact> 0.29549024E+06</totfact>
</mgrwt>
</event>
<event>
 4    1  0.2165211E+000  0.3660324E+02  0.7546771E-02  0.1534807E+00
          2   -1    0    0  501    0  0.00000000000E+00  0.00000000000E+00  0.76960231116E+01  0.76960231116E+01  0.00000000000E+00 0.  1.
         -2   -1    0    0    0  501 -0.00000000000E+00 -0.00000000000E+00 -0.43522375903E+02  0.43522375903E+02  0.00000000000E+00 0. -1.
        -11    1    1    2    0    0 -0.91079743258E+01 -0.13393310491E+02 -0.59893825850E+01  0.17268719291E+02  0.00000000000E+00 0.  1.
         11    1    1    2    0    0  0.91079743258E+01  0.13393310491E+02 -0.29836970207E+02  0.33949679724E+02  0.00000000000E+00 0. -1.
<mgrwt>
<rscale>  0 0.36603235E+02</rscale>
<asrwt>0</asrwt>
<pdfrwt beam="1">  1        2 0.11840036E-02 0.36603235E+02</pdfrwt>
<pdfrwt beam="2">  1       -2 0.66957501E-02 0.36603235E+02</pdfrwt>
<totfact> 0.87424841E+05</totfact>
</mgrwt>
</event>
<event>
 4    1  0.2165211E+000  0.3100435E+02  0.7546771E-02  0.1587245E+00
          2   -1    0    0  501    0  0.00000000000E+00  0.00000000000E+00  0.38868655176E+01  0.38868655176E+01  0.00000000000E+00 0.  1.
         -2   -1    0    0    0  501 -0.00000000000E+00 -0.00000000000E+00 -0.61828095747E+02  0.61828095747E+02  0.00000000000E+00 0. -1.
        -13    1    1    2    0    0 -0.12311075591E+01  0.11832062178E+02 -0.50038901334E+02  0.51433500444E+02  0.00000000000E+00 0. -1.
         13    1    1    2    0    0  0.12311075591E+01 -0.11832062178E+02 -0.79023288963E+01  0.14281460821E+02  0.00000000000E+00 0.  1.
<mgrwt>
<rscale>  0 0.31004354E+02</rscale>
<asrwt>0</asrwt>
<pdfrwt beam="1">  1        2 0.59797931E-03 0.31004354E+02</pdfrwt>
<pdfrwt beam="2">  1       -2 0.95120148E-02 0.31004354E+02</pdfrwt>
<totfact> 0.12191340E+06</totfact>
</mgrwt>
</event>
<event>
 4    1  0.2165211E+000  0.2325107E+02  0.7546771E-02  0.1687472E+00
         -2   -1    0    0    0  501 -0.00000000000E+00  0.00000000000E+00  0.28454451906E+01  0.28454451906E+01  0.00000000000E+00 0. -1.
          2   -1    0    0  501    0  0.00000000000E+00 -0.00000000000E+00 -0.47498019591E+02  0.47498019591E+02  0.00000000000E+00 0.  1.
        -13    1    1    2    0    0  0.76293492643E+00 -0.11215618794E+02 -0.15910230482E+02  0.19480955023E+02  0.00000000000E+00 0.  1.
         13    1    1    2    0    0 -0.76293492643E+00  0.11215618794E+02 -0.28742343919E+02  0.30862509758E+02  0.00000000000E+00 0. -1.
<mgrwt>
<rscale>  0 0.23251065E+02</rscale>
<asrwt>0</asrwt>
<pdfrwt beam="2">  1        2 0.73073872E-02 0.23251065E+02</pdfrwt>
<pdfrwt beam="1">  1       -2 0.43776082E-03 0.23251065E+02</pdfrwt>
<totfact> 0.32711970E+06</totfact>
</mgrwt>
</event>
<event>
 4    1  0.2165211E+000  0.5217034E+02  0.7546771E-02  0.1433975E+00
         -2   -1    0    0    0  501 -0.00000000000E+00  0.00000000000E+00  0.33656585310E+02  0.33656585310E+02  0.00000000000E+00 0. -1.
          2   -1    0    0  501    0  0.00000000000E+00 -0.00000000000E+00 -0.20217029619E+02  0.20217029619E+02  0.00000000000E+00 0.  1.
        -13    1    1    2    0    0  0.77744914465E+01  0.22830017623E+02  0.16983271053E+02  0.29497184910E+02  0.00000000000E+00 0. -1.
         13    1    1    2    0    0 -0.77744914465E+01 -0.22830017623E+02 -0.35437153621E+01  0.24376430019E+02  0.00000000000E+00 0.  1.
<mgrwt>
<rscale>  0 0.52170343E+02</rscale>
<asrwt>0</asrwt>
<pdfrwt beam="2">  1        2 0.31103122E-02 0.52170343E+02</pdfrwt>
<pdfrwt beam="1">  1       -2 0.51779362E-02 0.52170343E+02</pdfrwt>
<totfact> 0.39368240E+05</totfact>
</mgrwt>
</event>
<event>
 4    1  0.2165211E+000  0.2787703E+02  0.7546771E-02  0.1622815E+00
          2   -1    0    0  501    0  0.00000000000E+00  0.00000000000E+00  0.24979297190E+02  0.24979297190E+02  0.00000000000E+00 0. -1.
         -2   -1    0    0    0  501 -0.00000000000E+00 -0.00000000000E+00 -0.77777274559E+01  0.77777274559E+01  0.00000000000E+00 0.  1.
        -11    1    1    2    0    0 -0.77846898177E+01 -0.11081018898E+02  0.12478783196E+02  0.18414950596E+02  0.00000000000E+00 0. -1.
         11    1    1    2    0    0  0.77846898177E+01  0.11081018898E+02  0.47227865374E+01  0.14342074050E+02  0.00000000000E+00 0.  1.
<mgrwt>
<rscale>  0 0.27877028E+02</rscale>
<asrwt>0</asrwt>
<pdfrwt beam="1">  1        2 0.38429688E-02 0.27877028E+02</pdfrwt>
<pdfrwt beam="2">  1       -2 0.11965735E-02 0.27877028E+02</pdfrwt>
<totfact> 0.19718691E+06</totfact>
</mgrwt>
</event>
<event>
 4    1  0.2165211E+000  0.2167258E+02  0.7546771E-02  0.1713977E+00
         -2   -1    0    0    0  501 -0.00000000000E+00  0.00000000000E+00  0.45306951947E+02  0.45306951947E+02  0.00000000000E+00 0.  1.
          2   -1    0    0  501    0  0.00000000000E+00 -0.00000000000E+00 -0.25917684793E+01  0.25917684793E+01  0.00000000000E+00 0. -1.
        -13    1    1    2    0    0  0.10420110328E+02  0.22187273141E+01  0.25735434617E+02  0.27853438658E+02  0.00000000000E+00 0.  1.
         13    1    1    2    0    0 -0.10420110328E+02 -0.22187273141E+01  0.16979748850E+02  0.20045281768E+02  0.00000000000E+00 0. -1.
<mgrwt>
<rscale>  0 0.21672575E+02</rscale>
<asrwt>0</asrwt>
<pdfrwt beam="2">  1        2 0.39873365E-03 0.21672575E+02</pdfrwt>
<pdfrwt beam="1">  1       -2 0.69702997E-02 0.21672575E+02</pdfrwt>
<totfact> 0.28799557E+06</totfact>
</mgrwt>
</event>
<event>
 4    1  0.2165211E+000  0.2196923E+02  0.7546771E-02  0.1708785E+00
         -3   -1    0    0    0  501 -0.00000000000E+00  0.00000000000E+00  0.21060800211E+01  0.21060800211E+01  0.00000000000E+00 0.  1.
          3   -1    0    0  501    0  0.00000000000E+00 -0.00000000000E+00 -0.57292121530E+02  0.57292121530E+02  0.00000000000E+00 0. -1.
        -11    1    1    2    0    0  0.48527518353E+01  0.98370493671E+01 -0.26004837467E+02  0.28223541810E+02  0.00000000000E+00 0. -1.
         11    1    1    2    0    0 -0.48527518353E+01 -0.98370493671E+01 -0.29181204042E+02  0.31174659741E+02  0.00000000000E+00 0.  1.
<mgrwt>
<rscale>  0 0.21969232E+02</rscale>
<asrwt>0</asrwt>
<pdfrwt beam="2">  1        3 0.88141732E-02 0.21969232E+02</pdfrwt>
<pdfrwt beam="1">  1       -3 0.32401229E-03 0.21969232E+02</pdfrwt>
<totfact> 0.12859570E+06</totfact>
</mgrwt>
</event>
<event>
 4    1  0.2165211E+000  0.9850261E+02  0.7546771E-02  0.1283477E+00
          2   -1    0    0  501    0  0.00000000000E+00  0.00000000000E+00  0.14559803963E+02  0.14559803963E+02  0.00000000000E+00 0. -1.
         -2   -1    0    0    0  501 -0.00000000000E+00 -0.00000000000E+00 -0.16660190525E+03  0.16660190525E+03  0.00000000000E+00 0.  1.
        -11    1    1    2    0    0 -0.76999639304E+01  0.36430026964E+02 -0.13531080919E+03  0.14034048380E+03  0.00000000000E+00 0.  1.
         11    1    1    2    0    0  0.76999639304E+01 -0.36430026964E+02 -0.16731292099E+02  0.40821225416E+02  0.00000000000E+00 0. -1.
<mgrwt>
<rscale>  0 0.98502611E+02</rscale>
<asrwt>0</asrwt>
<pdfrwt beam="1">  1        2 0.22399699E-02 0.98502611E+02</pdfrwt>
<pdfrwt beam="2">  1       -2 0.25631062E-01 0.98502611E+02</pdfrwt>
<totfact> 0.55174427E+04</totfact>
</mgrwt>
</event>
<event>
 4    1  0.2165211E+000  0.3020641E+02  0.7546771E-02  0.1595818E+00
          2   -1    0    0  501    0  0.00000000000E+00  0.00000000000E+00  0.28871895942E+01  0.28871895942E+01  0.00000000000E+00 0. -1.
         -2   -1    0    0    0  501 -0.00000000000E+00 -0.00000000000E+00 -0.79006503517E+02  0.79006503517E+02  0.00000000000E+00 0.  1.
        -13    1    1    2    0    0  0.12418299120E+02 -0.61260759485E+01 -0.21710852857E+02  0.25750807586E+02  0.00000000000E+00 0. -1.
         13    1    1    2    0    0 -0.12418299120E+02  0.61260759485E+01 -0.54408461066E+02  0.56142885526E+02  0.00000000000E+00 0.  1.
<mgrwt>
<rscale>  0 0.30206407E+02</rscale>
<asrwt>0</asrwt>
<pdfrwt beam="1">  1        2 0.44418305E-03 0.30206407E+02</pdfrwt>
<pdfrwt beam="2">  1       -2 0.12154846E-01 0.30206407E+02</pdfrwt>
<totfact> 0.12371556E+06</totfact>
</mgrwt>
</event>
<event>
 4    1  0.2165211E+000  0.2170421E+02  0.7546771E-02  0.1713418E+00
          2   -1    0    0  501    0  0.00000000000E+00  0.00000000000E+00  0.65267608723E+01  0.65267608723E+01  0.00000000000E+00 0. -1.
         -2   -1    0    0    0  501 -0.00000000000E+00 -0.00000000000E+00 -0.18043896997E+02  0.18043896997E+02  0.00000000000E+00 0.  1.
        -13    1    1    2    0    0  0.65695419878E+01 -0.78902133970E+01 -0.17795678946E+01  0.10420230865E+02  0.00000000000E+00 0. -1.
         13    1    1    2    0    0 -0.65695419878E+01  0.78902133970E+01 -0.97375682302E+01  0.14150427005E+02  0.00000000000E+00 0.  1.
<mgrwt>
<rscale>  0 0.21704212E+02</rscale>
<asrwt>0</asrwt>
<pdfrwt beam="1">  1        2 0.10041170E-02 0.21704212E+02</pdfrwt>
<pdfrwt beam="2">  1       -2 0.27759842E-02 0.21704212E+02</pdfrwt>
<totfact> 0.31583853E+06</totfact>
</mgrwt>
</event>
<event>
 4    1  0.2165211E+000  0.2405543E+02  0.7546771E-02  0.1674952E+00
          4   -1    0    0  501    0  0.00000000000E+00  0.00000000000E+00  0.65362785542E+02  0.65362785542E+02  0.00000000000E+00 0.  1.
         -4   -1    0    0    0  501 -0.00000000000E+00 -0.00000000000E+00 -0.22132771817E+01  0.22132771817E+01  0.00000000000E+00 0. -1.
        -11    1    1    2    0    0 -0.22916845766E+01 -0.11777357038E+02  0.29211024537E+02  0.31579137282E+02  0.00000000000E+00 0.  1.
         11    1    1    2    0    0  0.22916845766E+01  0.11777357038E+02  0.33938483823E+02  0.35996925441E+02  0.00000000000E+00 0. -1.
<mgrwt>
<rscale>  0 0.24055433E+02</rscale>
<asrwt>0</asrwt>
<pdfrwt beam="1">  1        4 0.10055812E-01 0.24055433E+02</pdfrwt>
<pdfrwt beam="2">  1       -4 0.34050423E-03 0.24055433E+02</pdfrwt>
<totfact> 0.73986348E+05</totfact>
</mgrwt>
</event>
<event>
 4    1  0.2165211E+000  0.2013570E+02  0.7546771E-02  0.1742643E+00
         -4   -1    0    0    0  501 -0.00000000000E+00  0.00000000000E+00  0.39859178970E+02  0.39859178970E+02  0.00000000000E+00 0. -1.
          4   -1    0    0  501    0  0.00000000000E+00 -0.00000000000E+00 -0.25429921197E+01  0.25429921197E+01  0.00000000000E+00 0.  1.
        -11    1    1    2    0    0  0.97248881639E+01 -0.26050649794E+01  0.18746554735E+02  0.21278936246E+02  0.00000000000E+00 0.  1.
         11    1    1    2    0    0 -0.97248881639E+01  0.26050649794E+01  0.18569632115E+02  0.21123234843E+02  0.00000000000E+00 0. -1.
<mgrwt>
<rscale>  0 0.20135697E+02</rscale>
<asrwt>0</asrwt>
<pdfrwt beam="2">  1        4 0.39122959E-03 0.20135697E+02</pdfrwt>
<pdfrwt beam="1">  1       -4 0.61321809E-02 0.20135697E+02</pdfrwt>
<totfact> 0.11691114E+06</totfact>
</mgrwt>
</event>
<event>
 4    1  0.2165211E+000  0.2259373E+02  0.7546771E-02  0.1698182E+00
          2   -1    0    0  501    0  0.00000000000E+00  0.00000000000E+00  0.10722751506E+02  0.10722751506E+02  0.00000000000E+00 0.  1.
         -2   -1    0    0    0  501 -0.00000000000E+00 -0.00000000000E+00 -0.11901713204E+02  0.11901713204E+02  0.00000000000E+00 0. -1.
        -13    1    1    2    0    0 -0.34423821967E+01 -0.97616947097E+01 -0.51209479500E+01  0.11548367274E+02  0.00000000000E+00 0. -1.
         13    1    1    2    0    0  0.34423821967E+01  0.97616947097E+01  0.39419862517E+01  0.11076097436E+02  0.00000000000E+00 0.  1.
<mgrwt>
<rscale>  0 0.22593726E+02</rscale>
<asrwt>0</asrwt>
<pdfrwt beam="1">  1        2 0.16496541E-02 0.22593726E+02</pdfrwt>
<pdfrwt beam="2">  1       -2 0.18310328E-02 0.22593726E+02</pdfrwt>
<totfact> 0.29922895E+06</totfact>
</mgrwt>
</event>
<event>
 4    1  0.2165211E+000  0.2775075E+02  0.7546771E-02  0.1624370E+00
          2   -1    0    0  501    0  0.00000000000E+00  0.00000000000E+00  0.73604465313E+02  0.73604465313E+02  0.00000000000E+00 0.  1.
         -2   -1    0    0    0  501 -0.00000000000E+00 -0.00000000000E+00 -0.26156838365E+01  0.26156838365E+01  0.00000000000E+00 0. -1.
        -13    1    1    2    0    0  0.91395594005E+01 -0.10271282211E+02  0.40629299355E+02  0.42892548891E+02  0.00000000000E+00 0. -1.
         13    1    1    2    0    0 -0.91395594005E+01  0.10271282211E+02  0.30359482122E+02  0.33327600259E+02  0.00000000000E+00 0.  1.
<mgrwt>
<rscale>  0 0.27750748E+02</rscale>
<asrwt>0</asrwt>
<pdfrwt beam="1">  1        2 0.11323762E-01 0.27750748E+02</pdfrwt>
<pdfrwt beam="2">  1       -2 0.40241295E-03 0.27750748E+02</pdfrwt>
<totfact> 0.23450947E+06</totfact>
</mgrwt>
</event>
<event>
 4    1  0.2165211E+000  0.2259741E+02  0.7546771E-02  0.1698120E+00
         -1   -1    0    0    0  501 -0.00000000000E+00  0.00000000000E+00  0.61913616824E+02  0.61913616824E+02  0.00000000000E+00 0. -1.
          1   -1    0    0  501    0  0.00000000000E+00 -0.00000000000E+00 -0.20619161692E+01  0.20619161692E+01  0.00000000000E+00 0.  1.
        -13    1    1    2    0    0 -0.10707489473E+02  0.21809169443E+01  0.21792182029E+02  0.24378390577E+02  0.00000000000E+00 0.  1.
         13    1    1    2    0    0  0.10707489473E+02 -0.21809169443E+01  0.38059518625E+02  0.39597142416E+02  0.00000000000E+00 0. -1.
<mgrwt>
<rscale>  0 0.22597406E+02</rscale>
<asrwt>0</asrwt>
<pdfrwt beam="2">  1        1 0.31721792E-03 0.22597406E+02</pdfrwt>
<pdfrwt beam="1">  1       -1 0.95251704E-02 0.22597406E+02</pdfrwt>
<totfact> 0.26016478E+06</totfact>
</mgrwt>
</event>
<event>
 4    1  0.2165211E+000  0.5677791E+02  0.7546771E-02  0.1411873E+00
          4   -1    0    0  501    0  0.00000000000E+00  0.00000000000E+00  0.15476830854E+03  0.15476830854E+03  0.00000000000E+00 0.  1.
         -4   -1    0    0    0  501 -0.00000000000E+00 -0.00000000000E+00 -0.52073503209E+01  0.52073503209E+01  0.00000000000E+00 0. -1.
        -13    1    1    2    0    0  0.24233499436E+02  0.36757385683E+01  0.11513758828E+03  0.11771761884E+03  0.00000000000E+00 0.  1.
         13    1    1    2    0    0 -0.24233499436E+02 -0.36757385683E+01  0.34423369935E+02  0.42258040023E+02  0.00000000000E+00 0. -1.
<mgrwt>
<rscale>  0 0.56777911E+02</rscale>
<asrwt>0</asrwt>
<pdfrwt beam="1">  1        4 0.23810506E-01 0.56777911E+02</pdfrwt>
<pdfrwt beam="2">  1       -4 0.80113094E-03 0.56777911E+02</pdfrwt>
<totfact> 0.79183736E+04</totfact>
</mgrwt>
</event>
<event>
 4    1  0.2165211E+000  0.5269899E+02  0.7546771E-02  0.1431305E+00
         -1   -1    0    0    0  501 -0.00000000000E+00  0.00000000000E+00  0.10941532101E+02  0.10941532101E+02  0.00000000000E+00 0. -1.
          1   -1    0    0  501    0  0.00000000000E+00 -0.00000000000E+00 -0.63455095353E+02  0.63455095353E+02  0.00000000000E+00 0.  1.
        -11    1    1    2    0    0 -0.23592033302E+02 -0.60214926165E+01 -0.40476289492E+02  0.47235287866E+02  0.00000000000E+00 0.  1.
         11    1    1    2    0    0  0.23592033302E+02  0.60214926165E+01 -0.12037273760E+02  0.27161339589E+02  0.00000000000E+00 0. -1.
<mgrwt>
<rscale>  0 0.52698993E+02</rscale>
<asrwt>0</asrwt>
<pdfrwt beam="2">  1        1 0.97623222E-02 0.52698993E+02</pdfrwt>
<pdfrwt beam="1">  1       -1 0.16833127E-02 0.52698993E+02</pdfrwt>
<totfact> 0.41794717E+05</totfact>
</mgrwt>
</event>
<event>
 4    1  0.2165211E+000  0.2585011E+02  0.7546771E-02  0.1649083E+00
          2   -1    0    0  501    0  0.00000000000E+00  0.00000000000E+00  0.59468880892E+01  0.59468880892E+01  0.00000000000E+00 0. -1.
         -2   -1    0    0    0  501 -0.00000000000E+00 -0.00000000000E+00 -0.28091506510E+02  0.28091506510E+02  0.00000000000E+00 0.  1.
        -11    1    1    2    0    0  0.11995295158E+02 -0.74821228555E-02 -0.17410548051E+02  0.21142713765E+02  0.00000000000E+00 0.  1.
         11    1    1    2    0    0 -0.11995295158E+02  0.74821228555E-02 -0.47340703697E+01  0.12895680834E+02  0.00000000000E+00 0. -1.
<mgrwt>
<rscale>  0 0.25850110E+02</rscale>
<asrwt>0</asrwt>
<pdfrwt beam="1">  1        2 0.91490588E-03 0.25850110E+02</pdfrwt>
<pdfrwt beam="2">  1       -2 0.43217702E-02 0.25850110E+02</pdfrwt>
<totfact> 0.20548465E+06</totfact>
</mgrwt>
</event>
<event>
 4    1  0.2165211E+000  0.2167623E+02  0.7546771E-02  0.1713912E+00
          2   -1    0    0  501    0  0.00000000000E+00  0.00000000000E+00  0.11303000099E+03  0.11303000099E+03  0.00000000000E+00 0. -1.
         -2   -1    0    0    0  501 -0.00000000000E+00 -0.00000000000E+00 -0.10392351694E+01  0.10392351694E+01  0.00000000000E+00 0.  1.
        -13    1    1    2    0    0 -0.10800842389E+02  0.89068139253E+00  0.55389803764E+02  0.56440073270E+02  0.00000000000E+00 0. -1.
         13    1    1    2    0    0  0.10800842389E+02 -0.89068139253E+00  0.56600962052E+02  0.57629162885E+02  0.00000000000E+00 0.  1.
<mgrwt>
<rscale>  0 0.21676231E+02</rscale>
<asrwt>0</asrwt>
<pdfrwt beam="1">  1        2 0.17389221E-01 0.21676231E+02</pdfrwt>
<pdfrwt beam="2">  1       -2 0.15988242E-03 0.21676231E+02</pdfrwt>
<totfact> 0.45414388E+06</totfact>
</mgrwt>
</event>
<event>
 4    1  0.2165211E+000  0.2458510E+02  0.7546771E-02  0.1667034E+00
         -4   -1    0    0    0  501 -0.00000000000E+00  0.00000000000E+00  0.34661798266E+02  0.34661798266E+02  0.00000000000E+00 0.  1.
          4   -1    0    0  501    0  0.00000000000E+00 -0.00000000000E+00 -0.43594633446E+01  0.43594633446E+01  0.00000000000E+00 0. -1.
        -11    1    1    2    0    0  0.91742788369E+01  0.57710225097E+01  0.24356157584E+02  0.26658854163E+02  0.00000000000E+00 0.  1.
         11    1    1    2    0    0 -0.91742788369E+01 -0.57710225097E+01  0.59461773368E+01  0.12362407448E+02  0.00000000000E+00 0. -1.
<mgrwt>
<rscale>  0 0.24585104E+02</rscale>
<asrwt>0</asrwt>
<pdfrwt beam="2">  1        4 0.67068669E-03 0.24585104E+02</pdfrwt>
<pdfrwt beam="1">  1       -4 0.53325842E-02 0.24585104E+02</pdfrwt>
<totfact> 0.78001463E+05</totfact>
</mgrwt>
</event>
<event>
 4    1  0.2165211E+000  0.2964513E+02  0.7546771E-02  0.1602045E+00
         -4   -1    0    0    0  501 -0.00000000000E+00  0.00000000000E+00  0.33561167859E+02  0.33561167859E+02  0.00000000000E+00 0.  1.
          4   -1    0    0  501    0  0.00000000000E+00 -0.00000000000E+00 -0.65465091646E+01  0.65465091646E+01  0.00000000000E+00 0. -1.
        -11    1    1    2    0    0  0.10753863846E+02  0.23711613171E+01  0.83976853656E-01  0.11012494982E+02  0.00000000000E+00 0. -1.
         11    1    1    2    0    0 -0.10753863846E+02 -0.23711613171E+01  0.26930681841E+02  0.29095182041E+02  0.00000000000E+00 0.  1.
<mgrwt>
<rscale>  0 0.29645134E+02</rscale>
<asrwt>0</asrwt>
<pdfrwt beam="2">  1        4 0.10071553E-02 0.29645134E+02</pdfrwt>
<pdfrwt beam="1">  1       -4 0.51632565E-02 0.29645134E+02</pdfrwt>
<totfact> 0.51471662E+05</totfact>
</mgrwt>
</event>
<event>
 4    1  0.2165211E+000  0.5645978E+02  0.7546771E-02  0.1413319E+00
         -2   -1    0    0    0  501 -0.00000000000E+00  0.00000000000E+00  0.92211478669E+02  0.92211478669E+02  0.00000000000E+00 0.  1.
          2   -1    0    0  501    0  0.00000000000E+00 -0.00000000000E+00 -0.86423802988E+01  0.86423802988E+01  0.00000000000E+00 0. -1.
        -11    1    1    2    0    0 -0.13085091834E+02  0.17085933623E+02  0.74419438248E+02  0.77468713332E+02  0.00000000000E+00 0. -1.
         11    1    1    2    0    0  0.13085091834E+02 -0.17085933623E+02  0.91496601226E+01  0.23385145637E+02  0.00000000000E+00 0.  1.
<mgrwt>
<rscale>  0 0.56459779E+02</rscale>
<asrwt>0</asrwt>
<pdfrwt beam="2">  1        2 0.13295970E-02 0.56459779E+02</pdfrwt>
<pdfrwt beam="1">  1       -2 0.14186381E-01 0.56459779E+02</pdfrwt>
<totfact> 0.26749441E+05</totfact>
</mgrwt>
</event>
<event>
 4    1  0.2165211E+000  0.3641296E+02  0.7546771E-02  0.1536400E+00
          2   -1    0    0  501    0  0.00000000000E+00  0.00000000000E+00  0.15570876754E+03  0.15570876754E+03  0.00000000000E+00 0. -1.
         -2   -1    0    0    0  501 -0.00000000000E+00 -0.00000000000E+00 -0.21288194968E+01  0.21288194968E+01  0.00000000000E+00 0.  1.
        -13    1    1    2    0    0 -0.11031698244E+02  0.14246098978E+02  0.88115089800E+02  0.89938416445E+02  0.00000000000E+00 0. -1.
         13    1    1    2    0    0  0.11031698244E+02 -0.14246098978E+02  0.65464858247E+02  0.67899170595E+02  0.00000000000E+00 0.  1.
<mgrwt>
<rscale>  0 0.36412957E+02</rscale>
<asrwt>0</asrwt>
<pdfrwt beam="1">  1        2 0.23955186E-01 0.36412957E+02</pdfrwt>
<pdfrwt beam="2">  1       -2 0.32751081E-03 0.36412957E+02</pdfrwt>
<totfact> 0.14831789E+06</totfact>
</mgrwt>
</event>
<event>
 4    1  0.2165211E+000  0.2398043E+02  0.7546771E-02  0.1676093E+00
         -1   -1    0    0    0  501 -0.00000000000E+00  0.00000000000E+00  0.86752603500E+02  0.86752603500E+02  0.00000000000E+00 0. -1.
          1   -1    0    0  501    0  0.00000000000E+00 -0.00000000000E+00 -0.16571872763E+01  0.16571872763E+01  0.00000000000E+00 0.  1.
        -11    1    1    2    0    0 -0.28663109026E+01  0.10341979050E+02  0.22833765249E+02  0.25230004049E+02  0.00000000000E+00 0. -1.
         11    1    1    2    0    0  0.28663109026E+01 -0.10341979050E+02  0.62261650974E+02  0.63179786727E+02  0.00000000000E+00 0.  1.
<mgrwt>
<rscale>  0 0.23980435E+02</rscale>
<asrwt>0</asrwt>
<pdfrwt beam="2">  1        1 0.25495196E-03 0.23980435E+02</pdfrwt>
<pdfrwt beam="1">  1       -1 0.13346551E-01 0.23980435E+02</pdfrwt>
<totfact> 0.21764265E+06</totfact>
</mgrwt>
</event>
<event>
 4    1  0.2165211E+000  0.7113966E+02  0.7546771E-02  0.1356260E+00
         -2   -1    0    0    0  501 -0.00000000000E+00  0.00000000000E+00  0.15056807883E+02  0.15056807883E+02  0.00000000000E+00 0. -1.
          2   -1    0    0  501    0  0.00000000000E+00 -0.00000000000E+00 -0.84029291626E+02  0.84029291626E+02  0.00000000000E+00 0.  1.
        -11    1    1    2    0    0  0.12455867397E+02 -0.13643367028E+02 -0.76823114559E+02  0.79013169960E+02  0.00000000000E+00 0.  1.
         11    1    1    2    0    0 -0.12455867397E+02  0.13643367028E+02  0.78506308159E+01  0.20072929549E+02  0.00000000000E+00 0. -1.
<mgrwt>
<rscale>  0 0.71139663E+02</rscale>
<asrwt>0</asrwt>
<pdfrwt beam="2">  1        2 0.12927583E-01 0.71139663E+02</pdfrwt>
<pdfrwt beam="1">  1       -2 0.23164320E-02 0.71139663E+02</pdfrwt>
<totfact> 0.22878619E+05</totfact>
</mgrwt>
</event>
<event>
 4    1  0.2165211E+000  0.2480469E+02  0.7546771E-02  0.1663823E+00
         -4   -1    0    0    0  501 -0.00000000000E+00  0.00000000000E+00  0.41767897206E+02  0.41767897206E+02  0.00000000000E+00 0.  1.
          4   -1    0    0  501    0  0.00000000000E+00 -0.00000000000E+00 -0.36826889041E+01  0.36826889041E+01  0.00000000000E+00 0. -1.
        -13    1    1    2    0    0 -0.89210560060E+01  0.85739980990E+01  0.17488366501E+02  0.21422923389E+02  0.00000000000E+00 0. -1.
         13    1    1    2    0    0  0.89210560060E+01 -0.85739980990E+01  0.20596841800E+02  0.24027662721E+02  0.00000000000E+00 0.  1.
<mgrwt>
<rscale>  0 0.24804691E+02</rscale>
<asrwt>0</asrwt>
<pdfrwt beam="2">  1        4 0.56656755E-03 0.24804691E+02</pdfrwt>
<pdfrwt beam="1">  1       -4 0.64258300E-02 0.24804691E+02</pdfrwt>
<totfact> 0.74727199E+05</totfact>
</mgrwt>
</event>
<event>
 4    1  0.2165211E+000  0.2807784E+02  0.7546771E-02  0.1620362E+00
          2   -1    0    0  501    0  0.00000000000E+00  0.00000000000E+00  0.57417042581E+01  0.57417042581E+01  0.00000000000E+00 0. -1.
         -2   -1    0    0    0  501 -0.00000000000E+00 -0.00000000000E+00 -0.34326279047E+02  0.34326279047E+02  0.00000000000E+00 0.  1.
        -11    1    1    2    0    0 -0.13025529482E+02  0.80692721914E+00 -0.21676511751E+02  0.25301911222E+02  0.00000000000E+00 0.  1.
         11    1    1    2    0    0  0.13025529482E+02 -0.80692721914E+00 -0.69080630382E+01  0.14766072083E+02  0.00000000000E+00 0. -1.
<mgrwt>
<rscale>  0 0.28077845E+02</rscale>
<asrwt>0</asrwt>
<pdfrwt beam="1">  1        2 0.88333912E-03 0.28077845E+02</pdfrwt>
<pdfrwt beam="2">  1       -2 0.52809660E-02 0.28077845E+02</pdfrwt>
<totfact> 0.16659507E+06</totfact>
</mgrwt>
</event>
<event>
 4    1  0.2165211E+000  0.3263654E+02  0.7546771E-02  0.1570649E+00
         -2   -1    0    0    0  501 -0.00000000000E+00  0.00000000000E+00  0.10615053251E+02  0.10615053251E+02  0.00000000000E+00 0. -1.
          2   -1    0    0  501    0  0.00000000000E+00 -0.00000000000E+00 -0.25085684096E+02  0.25085684096E+02  0.00000000000E+00 0.  1.
        -13    1    1    2    0    0 -0.16053005945E+02 -0.27779183098E+01 -0.82556517817E+01  0.18263943067E+02  0.00000000000E+00 0.  1.
         13    1    1    2    0    0  0.16053005945E+02  0.27779183098E+01 -0.62149790639E+01  0.17436794280E+02  0.00000000000E+00 0. -1.
<mgrwt>
<rscale>  0 0.32636536E+02</rscale>
<asrwt>0</asrwt>
<pdfrwt beam="2">  1        2 0.38593360E-02 0.32636536E+02</pdfrwt>
<pdfrwt beam="1">  1       -2 0.16330851E-02 0.32636536E+02</pdfrwt>
<totfact> 0.13481683E+06</totfact>
</mgrwt>
</event>
<event>
 4    1  0.2165211E+000  0.2313289E+02  0.7546771E-02  0.1689365E+00
          2   -1    0    0  501    0  0.00000000000E+00  0.00000000000E+00  0.57838278961E+01  0.57838278961E+01  0.00000000000E+00 0.  1.
         -2   -1    0    0    0  501 -0.00000000000E+00 -0.00000000000E+00 -0.23130469552E+02  0.23130469552E+02  0.00000000000E+00 0. -1.
        -11    1    1    2    0    0  0.10878369106E+02  0.29740606252E+01 -0.11884112062E+02  0.16383408391E+02  0.00000000000E+00 0.  1.
         11    1    1    2    0    0 -0.10878369106E+02 -0.29740606252E+01 -0.54625295943E+01  0.12530889057E+02  0.00000000000E+00 0. -1.
<mgrwt>
<rscale>  0 0.23132890E+02</rscale>
<asrwt>0</asrwt>
<pdfrwt beam="1">  1        2 0.88981967E-03 0.23132890E+02</pdfrwt>
<pdfrwt beam="2">  1       -2 0.35585338E-02 0.23132890E+02</pdfrwt>
<totfact> 0.26850267E+06</totfact>
</mgrwt>
</event>
<event>
 4    1  0.2165211E+000  0.1608076E+03  0.7546771E-02  0.1187788E+00
         -1   -1    0    0    0  501 -0.00000000000E+00  0.00000000000E+00  0.36617084507E+02  0.36617084507E+02  0.00000000000E+00 0.  1.
          1   -1    0    0  501    0  0.00000000000E+00 -0.00000000000E+00 -0.17655076997E+03  0.17655076997E+03  0.00000000000E+00 0. -1.
        -13    1    1    2    0    0 -0.42230767202E+02 -0.53939931938E+02 -0.14168038603E+02  0.69954894566E+02  0.00000000000E+00 0.  1.
         13    1    1    2    0    0  0.42230767202E+02  0.53939931938E+02 -0.12576564686E+03  0.14321295991E+03  0.00000000000E+00 0. -1.
<mgrwt>
<rscale>  0 0.16080764E+03</rscale>
<asrwt>0</asrwt>
<pdfrwt beam="2">  1        1 0.27161657E-01 0.16080764E+03</pdfrwt>
<pdfrwt beam="1">  1       -1 0.56333976E-02 0.16080764E+03</pdfrwt>
<totfact> 0.23815707E+04</totfact>
</mgrwt>
</event>
<event>
 4    1  0.2165211E+000  0.3475062E+02  0.7546771E-02  0.1550826E+00
          4   -1    0    0  501    0  0.00000000000E+00  0.00000000000E+00  0.31335500717E+01  0.31335500717E+01  0.00000000000E+00 0.  1.
         -4   -1    0    0    0  501 -0.00000000000E+00 -0.00000000000E+00 -0.96344839878E+02  0.96344839878E+02  0.00000000000E+00 0. -1.
        -13    1    1    2    0    0  0.16202424090E+02 -0.53680222121E+01 -0.37300019384E+02  0.41019820269E+02  0.00000000000E+00 0.  1.
         13    1    1    2    0    0 -0.16202424090E+02  0.53680222121E+01 -0.55911270423E+02  0.58458569681E+02  0.00000000000E+00 0. -1.
<mgrwt>
<rscale>  0 0.34750619E+02</rscale>
<asrwt>0</asrwt>
<pdfrwt beam="1">  1        4 0.48208463E-03 0.34750619E+02</pdfrwt>
<pdfrwt beam="2">  1       -4 0.14822283E-01 0.34750619E+02</pdfrwt>
<totfact> 0.29839463E+05</totfact>
</mgrwt>
</event>
<event>
 4    1  0.2165211E+000  0.3294145E+02  0.7546771E-02  0.1567680E+00
          1   -1    0    0  501    0  0.00000000000E+00  0.00000000000E+00  0.28233488906E+02  0.28233488906E+02  0.00000000000E+00 0.  1.
         -1   -1    0    0    0  501 -0.00000000000E+00 -0.00000000000E+00 -0.96086195510E+01  0.96086195510E+01  0.00000000000E+00 0. -1.
        -13    1    1    2    0    0 -0.13612005037E+02 -0.65900287872E+01  0.16807627600E+02  0.22609986867E+02  0.00000000000E+00 0.  1.
         13    1    1    2    0    0  0.13612005037E+02  0.65900287872E+01  0.18172417548E+01  0.15232121591E+02  0.00000000000E+00 0. -1.
<mgrwt>
<rscale>  0 0.32941454E+02</rscale>
<asrwt>0</asrwt>
<pdfrwt beam="1">  1        1 0.43436136E-02 0.32941454E+02</pdfrwt>
<pdfrwt beam="2">  1       -1 0.14782492E-02 0.32941454E+02</pdfrwt>
<totfact> 0.12593430E+06</totfact>
</mgrwt>
</event>
<event>
 4    1  0.2165211E+000  0.2544706E+02  0.7546771E-02  0.1654662E+00
         -2   -1    0    0    0  501 -0.00000000000E+00  0.00000000000E+00  0.47170315462E+02  0.47170315462E+02  0.00000000000E+00 0. -1.
          2   -1    0    0  501    0  0.00000000000E+00 -0.00000000000E+00 -0.34319926410E+01  0.34319926410E+01  0.00000000000E+00 0.  1.
        -11    1    1    2    0    0  0.51554145575E+01 -0.11491376063E+02  0.25458533389E+02  0.28403643172E+02  0.00000000000E+00 0. -1.
         11    1    1    2    0    0 -0.51554145575E+01  0.11491376063E+02  0.18279789431E+02  0.22198664931E+02  0.00000000000E+00 0.  1.
<mgrwt>
<rscale>  0 0.25447057E+02</rscale>
<asrwt>0</asrwt>
<pdfrwt beam="2">  1        2 0.52799890E-03 0.25447057E+02</pdfrwt>
<pdfrwt beam="1">  1       -2 0.72569711E-02 0.25447057E+02</pdfrwt>
<totfact> 0.19996530E+06</totfact>
</mgrwt>
</event>
<event>
 4    1  0.2165211E+000  0.3360573E+02  0.7546771E-02  0.1561342E+00
          2   -1    0    0  501    0  0.00000000000E+00  0.00000000000E+00  0.59621290475E+02  0.59621290475E+02  0.00000000000E+00 0.  1.
         -2   -1    0    0    0  501 -0.00000000000E+00 -0.00000000000E+00 -0.47354939629E+01  0.47354939629E+01  0.00000000000E+00 0. -1.
        -11    1    1    2    0    0  0.27739261359E+01  0.11751593194E+02  0.50652940412E+01  0.13093960918E+02  0.00000000000E+00 0. -1.
         11    1    1    2    0    0 -0.27739261359E+01 -0.11751593194E+02  0.49820502470E+02  0.51262823520E+02  0.00000000000E+00 0.  1.
<mgrwt>
<rscale>  0 0.33605729E+02</rscale>
<asrwt>0</asrwt>
<pdfrwt beam="1">  1        2 0.91725057E-02 0.33605729E+02</pdfrwt>
<pdfrwt beam="2">  1       -2 0.72853757E-03 0.33605729E+02</pdfrwt>
<totfact> 0.14277573E+06</totfact>
</mgrwt>
</event>
<event>
 4    1  0.2165211E+000  0.3514657E+02  0.7546771E-02  0.1547303E+00
          2   -1    0    0  501    0  0.00000000000E+00  0.00000000000E+00  0.80748900073E+02  0.80748900073E+02  0.00000000000E+00 0.  1.
         -2   -1    0    0    0  501 -0.00000000000E+00 -0.00000000000E+00 -0.38244527428E+01  0.38244527428E+01  0.00000000000E+00 0. -1.
        -11    1    1    2    0    0 -0.90777302687E+01  0.14894000872E+02  0.43614134412E+02  0.46972642776E+02  0.00000000000E+00 0.  1.
         11    1    1    2    0    0  0.90777302687E+01 -0.14894000872E+02  0.33310312918E+02  0.37600710040E+02  0.00000000000E+00 0. -1.
<mgrwt>
<rscale>  0 0.35146570E+02</rscale>
<asrwt>0</asrwt>
<pdfrwt beam="1">  1        2 0.12422906E-01 0.35146570E+02</pdfrwt>
<pdfrwt beam="2">  1       -2 0.58837741E-03 0.35146570E+02</pdfrwt>
<totfact> 0.13623050E+06</totfact>
</mgrwt>
</event>
<event>
 4    1  0.2165211E+000  0.2893671E+02  0.7546771E-02  0.1610148E+00
         -4   -1    0    0    0  501 -0.00000000000E+00  0.00000000000E+00  0.42213643349E+01  0.42213643349E+01  0.00000000000E+00 0.  1.
          4   -1    0    0  501    0  0.00000000000E+00 -0.00000000000E+00 -0.49589018432E+02  0.49589018432E+02  0.00000000000E+00 0. -1.
        -13    1    1    2    0    0 -0.96631317642E+01  0.67591308271E+01 -0.38272389102E+02  0.40047942926E+02  0.00000000000E+00 0. -1.
         13    1    1    2    0    0  0.96631317642E+01 -0.67591308271E+01 -0.70952649958E+01  0.13762439841E+02  0.00000000000E+00 0.  1.
<mgrwt>
<rscale>  0 0.28936711E+02</rscale>
<asrwt>0</asrwt>
<pdfrwt beam="2">  1        4 0.76290798E-02 0.28936711E+02</pdfrwt>
<pdfrwt beam="1">  1       -4 0.64944067E-03 0.28936711E+02</pdfrwt>
<totfact> 0.51799645E+05</totfact>
</mgrwt>
</event>
<event>
 4    1  0.2165211E+000  0.2880172E+02  0.7546771E-02  0.1611725E+00
         -4   -1    0    0    0  501 -0.00000000000E+00  0.00000000000E+00  0.16637323822E+02  0.16637323822E+02  0.00000000000E+00 0.  1.
          4   -1    0    0  501    0  0.00000000000E+00 -0.00000000000E+00 -0.12465031647E+02  0.12465031647E+02  0.00000000000E+00 0. -1.
        -11    1    1    2    0    0 -0.14312607161E+02 -0.16871644090E+00  0.48672150831E+00  0.14321874417E+02  0.00000000000E+00 0. -1.
         11    1    1    2    0    0  0.14312607161E+02  0.16871644090E+00  0.36855706667E+01  0.14780481052E+02  0.00000000000E+00 0.  1.
<mgrwt>
<rscale>  0 0.28801720E+02</rscale>
<asrwt>0</asrwt>
<pdfrwt beam="2">  1        4 0.19176972E-02 0.28801720E+02</pdfrwt>
<pdfrwt beam="1">  1       -4 0.25595883E-02 0.28801720E+02</pdfrwt>
<totfact> 0.57233108E+05</totfact>
</mgrwt>
</event>
<event>
 4    1  0.2165211E+000  0.2484193E+02  0.7546771E-02  0.1663283E+00
          2   -1    0    0  501    0  0.00000000000E+00  0.00000000000E+00  0.14088478368E+02  0.14088478368E+02  0.00000000000E+00 0. -1.
         -2   -1    0    0    0  501 -0.00000000000E+00 -0.00000000000E+00 -0.10950817709E+02  0.10950817709E+02  0.00000000000E+00 0.  1.
        -13    1    1    2    0    0 -0.88193592780E+01  0.70395893715E+01 -0.36631166798E+01  0.11864035587E+02  0.00000000000E+00 0.  1.
         13    1    1    2    0    0  0.88193592780E+01 -0.70395893715E+01  0.68007773389E+01  0.13175260491E+02  0.00000000000E+00 0. -1.
<mgrwt>
<rscale>  0 0.24841929E+02</rscale>
<asrwt>0</asrwt>
<pdfrwt beam="1">  1        2 0.21674582E-02 0.24841929E+02</pdfrwt>
<pdfrwt beam="2">  1       -2 0.16847412E-02 0.24841929E+02</pdfrwt>
<totfact> 0.24500648E+06</totfact>
</mgrwt>
</event>
<event>
 4    1  0.2165211E+000  0.2632519E+02  0.7546771E-02  0.1642666E+00
         -4   -1    0    0    0  501 -0.00000000000E+00  0.00000000000E+00  0.94607136998E+01  0.94607136998E+01  0.00000000000E+00 0.  1.
          4   -1    0    0  501    0  0.00000000000E+00 -0.00000000000E+00 -0.18312984211E+02  0.18312984211E+02  0.00000000000E+00 0. -1.
        -13    1    1    2    0    0 -0.31066859642E+01  0.10986952519E+02 -0.11335475272E+02  0.16089052892E+02  0.00000000000E+00 0. -1.
         13    1    1    2    0    0  0.31066859642E+01 -0.10986952519E+02  0.24832047605E+01  0.11684645019E+02  0.00000000000E+00 0.  1.
<mgrwt>
<rscale>  0 0.26325190E+02</rscale>
<asrwt>0</asrwt>
<pdfrwt beam="2">  1        4 0.28173822E-02 0.26325190E+02</pdfrwt>
<pdfrwt beam="1">  1       -4 0.14554944E-02 0.26325190E+02</pdfrwt>
<totfact> 0.70228646E+05</totfact>
</mgrwt>
</event>
<event>
 4    1  0.2165211E+000  0.3563664E+02  0.7546771E-02  0.1543019E+00
          3   -1    0    0  501    0  0.00000000000E+00  0.00000000000E+00  0.32628258978E+02  0.32628258978E+02  0.00000000000E+00 0. -1.
         -3   -1    0    0    0  501 -0.00000000000E+00 -0.00000000000E+00 -0.97306022246E+01  0.97306022246E+01  0.00000000000E+00 0.  1.
        -11    1    1    2    0    0 -0.13300587909E+02 -0.63547324812E+01  0.23347288199E+02  0.27611304386E+02  0.00000000000E+00 0. -1.
         11    1    1    2    0    0  0.13300587909E+02  0.63547324812E+01 -0.44963144505E+00  0.14747556817E+02  0.00000000000E+00 0.  1.
<mgrwt>
<rscale>  0 0.35636645E+02</rscale>
<asrwt>0</asrwt>
<pdfrwt beam="1">  1        3 0.50197321E-02 0.35636645E+02</pdfrwt>
<pdfrwt beam="2">  1       -3 0.14970157E-02 0.35636645E+02</pdfrwt>
<totfact> 0.44485248E+05</totfact>
</mgrwt>
</event>
<event>
 4    1  0.2165211E+000  0.2849842E+02  0.7546771E-02  0.1615305E+00
          2   -1    0    0  501    0  0.00000000000E+00  0.00000000000E+00  0.63058388123E+02  0.63058388123E+02  0.00000000000E+00 0. -1.
         -2   -1    0    0    0  501 -0.00000000000E+00 -0.00000000000E+00 -0.32198737562E+01  0.32198737562E+01  0.00000000000E+00 0.  1.
        -13    1    1    2    0    0 -0.31138573499E+01  0.13804454628E+02  0.33797622488E+02  0.36640665401E+02  0.00000000000E+00 0. -1.
         13    1    1    2    0    0  0.31138573499E+01 -0.13804454628E+02  0.26040891878E+02  0.29637596478E+02  0.00000000000E+00 0.  1.
<mgrwt>
<rscale>  0 0.28498424E+02</rscale>
<asrwt>0</asrwt>
<pdfrwt beam="1">  1        2 0.97012895E-02 0.28498424E+02</pdfrwt>
<pdfrwt beam="2">  1       -2 0.49536524E-03 0.28498424E+02</pdfrwt>
<totfact> 0.21382226E+06</totfact>
</mgrwt>
</event>
<event>
 4    1  0.2165211E+000  0.3167191E+02  0.7546771E-02  0.1580311E+00
         -2   -1    0    0    0  501 -0.00000000000E+00  0.00000000000E+00  0.55947385243E+01  0.55947385243E+01  0.00000000000E+00 0. -1.
          2   -1    0    0  501    0  0.00000000000E+00 -0.00000000000E+00 -0.44823812705E+02  0.44823812705E+02  0.00000000000E+00 0.  1.
        -13    1    1    2    0    0 -0.15716743271E+02 -0.17865997647E+01 -0.20815925709E+02  0.26144037961E+02  0.00000000000E+00 0.  1.
         13    1    1    2    0    0  0.15716743271E+02  0.17865997647E+01 -0.18413148472E+02  0.24274513268E+02  0.00000000000E+00 0. -1.
<mgrwt>
<rscale>  0 0.31671913E+02</rscale>
<asrwt>0</asrwt>
<pdfrwt beam="2">  1        2 0.68959712E-02 0.31671913E+02</pdfrwt>
<pdfrwt beam="1">  1       -2 0.86072900E-03 0.31671913E+02</pdfrwt>
<totfact> 0.15690524E+06</totfact>
</mgrwt>
</event>
<event>
 4    1  0.2165211E+000  0.2096616E+02  0.7546771E-02  0.1726770E+00
         -2   -1    0    0    0  501 -0.00000000000E+00  0.00000000000E+00  0.11731096488E+01  0.11731096488E+01  0.00000000000E+00 0.  1.
          2   -1    0    0  501    0  0.00000000000E+00 -0.00000000000E+00 -0.93678322215E+02  0.93678322215E+02  0.00000000000E+00 0. -1.
        -13    1    1    2    0    0 -0.10021072028E+02 -0.10587904065E+01 -0.59326978780E+02  0.60176684297E+02  0.00000000000E+00 0.  1.
         13    1    1    2    0    0  0.10021072028E+02  0.10587904065E+01 -0.33178233786E+02  0.34674747567E+02  0.00000000000E+00 0. -1.
<mgrwt>
<rscale>  0 0.20966158E+02</rscale>
<asrwt>0</asrwt>
<pdfrwt beam="2">  1        2 0.14412050E-01 0.20966158E+02</pdfrwt>
<pdfrwt beam="1">  1       -2 0.18047840E-03 0.20966158E+02</pdfrwt>
<totfact> 0.46828905E+06</totfact>
</mgrwt>
</event>
<event>
 4    1  0.2165211E+000  0.3784557E+02  0.7546771E-02  0.1524692E+00
          4   -1    0    0  501    0  0.00000000000E+00  0.00000000000E+00  0.35192027906E+02  0.35192027906E+02  0.00000000000E+00 0. -1.
         -4   -1    0    0    0  501 -0.00000000000E+00 -0.00000000000E+00 -0.10174798533E+02  0.10174798533E+02  0.00000000000E+00 0.  1.
        -11    1    1    2    0    0 -0.77914461052E+01  0.13710961147E+02  0.25045273235E+02  0.29596668721E+02  0.00000000000E+00 0. -1.
         11    1    1    2    0    0  0.77914461052E+01 -0.13710961147E+02 -0.28043860730E-01  0.15770157718E+02  0.00000000000E+00 0.  1.
<mgrwt>
<rscale>  0 0.37845570E+02</rscale>
<asrwt>0</asrwt>
<pdfrwt beam="1">  1        4 0.54141581E-02 0.37845570E+02</pdfrwt>
<pdfrwt beam="2">  1       -4 0.15653536E-02 0.37845570E+02</pdfrwt>
<totfact> 0.28762142E+05</totfact>
</mgrwt>
</event>
<event>
 4    1  0.2165211E+000  0.2645243E+02  0.7546771E-02  0.1640976E+00
          2   -1    0    0  501    0  0.00000000000E+00  0.00000000000E+00  0.12532219300E+02  0.12532219300E+02  0.00000000000E+00 0. -1.
         -2   -1    0    0    0  501 -0.00000000000E+00 -0.00000000000E+00 -0.13958640754E+02  0.13958640754E+02  0.00000000000E+00 0.  1.
        -13    1    1    2    0    0  0.35051391347E+01 -0.11435734063E+02 -0.63668296469E+01  0.13549853640E+02  0.00000000000E+00 0.  1.
         13    1    1    2    0    0 -0.35051391347E+01  0.11435734063E+02  0.49404081927E+01  0.12941006415E+02  0.00000000000E+00 0. -1.
<mgrwt>
<rscale>  0 0.26452429E+02</rscale>
<asrwt>0</asrwt>
<pdfrwt beam="1">  1        2 0.19280337E-02 0.26452429E+02</pdfrwt>
<pdfrwt beam="2">  1       -2 0.21474832E-02 0.26452429E+02</pdfrwt>
<totfact> 0.20870721E+06</totfact>
</mgrwt>
</event>
<event>
 4    1  0.2165211E+000  0.3269319E+02  0.7546771E-02  0.1570095E+00
          2   -1    0    0  501    0  0.00000000000E+00  0.00000000000E+00  0.15846211447E+02  0.15846211447E+02  0.00000000000E+00 0.  1.
         -2   -1    0    0    0  501 -0.00000000000E+00 -0.00000000000E+00 -0.16862777287E+02  0.16862777287E+02  0.00000000000E+00 0. -1.
        -13    1    1    2    0    0 -0.15750639873E+02  0.39083792061E+01 -0.24721503612E+01  0.16415529594E+02  0.00000000000E+00 0.  1.
         13    1    1    2    0    0  0.15750639873E+02 -0.39083792061E+01  0.14555845216E+01  0.16293459140E+02  0.00000000000E+00 0. -1.
<mgrwt>
<rscale>  0 0.32693188E+02</rscale>
<asrwt>0</asrwt>
<pdfrwt beam="1">  1        2 0.24378787E-02 0.32693188E+02</pdfrwt>
<pdfrwt beam="2">  1       -2 0.25942734E-02 0.32693188E+02</pdfrwt>
<totfact> 0.12740317E+06</totfact>
</mgrwt>
</event>
<event>
 4    1  0.2165211E+000  0.2886246E+02  0.7546771E-02  0.1611014E+00
         -2   -1    0    0    0  501 -0.00000000000E+00  0.00000000000E+00  0.91127687220E+01  0.91127687220E+01  0.00000000000E+00 0.  1.
          2   -1    0    0  501    0  0.00000000000E+00 -0.00000000000E+00 -0.22853691996E+02  0.22853691996E+02  0.00000000000E+00 0. -1.
        -11    1    1    2    0    0  0.97299222307E+01 -0.48273292450E+01 -0.17394228112E+02  0.20506917512E+02  0.00000000000E+00 0. -1.
         11    1    1    2    0    0 -0.97299222307E+01  0.48273292450E+01  0.36533048374E+01  0.11459543206E+02  0.00000000000E+00 0.  1.
<mgrwt>
<rscale>  0 0.28862461E+02</rscale>
<asrwt>0</asrwt>
<pdfrwt beam="2">  1        2 0.35159526E-02 0.28862461E+02</pdfrwt>
<pdfrwt beam="1">  1       -2 0.14019644E-02 0.28862461E+02</pdfrwt>
<totfact> 0.17969689E+06</totfact>
</mgrwt>
</event>
<event>
 4    1  0.2165211E+000  0.3131074E+02  0.7546771E-02  0.1584036E+00
         -4   -1    0    0    0  501 -0.00000000000E+00  0.00000000000E+00  0.10386210075E+02  0.10386210075E+02  0.00000000000E+00 0.  1.
          4   -1    0    0  501    0  0.00000000000E+00 -0.00000000000E+00 -0.23597698627E+02  0.23597698627E+02  0.00000000000E+00 0. -1.
        -11    1    1    2    0    0  0.15004916648E+02  0.31074538195E+01 -0.31246048265E+01  0.15638636392E+02  0.00000000000E+00 0.  1.
         11    1    1    2    0    0 -0.15004916648E+02 -0.31074538195E+01 -0.10086883726E+02  0.18345272311E+02  0.00000000000E+00 0. -1.
<mgrwt>
<rscale>  0 0.31310743E+02</rscale>
<asrwt>0</asrwt>
<pdfrwt beam="2">  1        4 0.36304152E-02 0.31310743E+02</pdfrwt>
<pdfrwt beam="1">  1       -4 0.15978785E-02 0.31310743E+02</pdfrwt>
<totfact> 0.46501500E+05</totfact>
</mgrwt>
</event>
<event>
 4    1  0.2165211E+000  0.3032675E+02  0.7546771E-02  0.1594505E+00
         -3   -1    0    0    0  501 -0.00000000000E+00  0.00000000000E+00  0.13178802177E+01  0.13178802177E+01  0.00000000000E+00 0. -1.
          3   -1    0    0  501    0  0.00000000000E+00 -0.00000000000E+00 -0.17446802692E+03  0.17446802692E+03  0.00000000000E+00 0.  1.
        -11    1    1    2    0    0 -0.14443394094E+02  0.45496966214E+01 -0.82023557529E+02  0.83409683862E+02  0.00000000000E+00 0. -1.
         11    1    1    2    0    0  0.14443394094E+02 -0.45496966214E+01 -0.91126589178E+02  0.92376223280E+02  0.00000000000E+00 0.  1.
<mgrwt>
<rscale>  0 0.30326751E+02</rscale>
<asrwt>0</asrwt>
<pdfrwt beam="2">  1        3 0.26841217E-01 0.30326751E+02</pdfrwt>
<pdfrwt beam="1">  1       -3 0.20275094E-03 0.30326751E+02</pdfrwt>
<totfact> 0.47325303E+05</totfact>
</mgrwt>
</event>
<event>
 4    1  0.2165211E+000  0.2808622E+02  0.7546771E-02  0.1620260E+00
         -2   -1    0    0    0  501 -0.00000000000E+00  0.00000000000E+00  0.27775732487E+01  0.27775732487E+01  0.00000000000E+00 0.  1.
          2   -1    0    0  501    0  0.00000000000E+00 -0.00000000000E+00 -0.71000455757E+02  0.71000455757E+02  0.00000000000E+00 0. -1.
        -13    1    1    2    0    0 -0.55005427810E+01 -0.12859159268E+02 -0.37428984553E+02  0.39956762039E+02  0.00000000000E+00 0. -1.
         13    1    1    2    0    0  0.55005427810E+01  0.12859159268E+02 -0.30793897955E+02  0.33821266967E+02  0.00000000000E+00 0.  1.
<mgrwt>
<rscale>  0 0.28086222E+02</rscale>
<asrwt>0</asrwt>
<pdfrwt beam="2">  1        2 0.10923148E-01 0.28086222E+02</pdfrwt>
<pdfrwt beam="1">  1       -2 0.42731891E-03 0.28086222E+02</pdfrwt>
<totfact> 0.22636247E+06</totfact>
</mgrwt>
</event>
<event>
 4    1  0.2165211E+000  0.4219315E+02  0.7546771E-02  0.1492666E+00
         -1   -1    0    0    0  501 -0.00000000000E+00  0.00000000000E+00  0.36630816022E+02  0.36630816022E+02  0.00000000000E+00 0.  1.
          1   -1    0    0  501    0  0.00000000000E+00 -0.00000000000E+00 -0.12150027209E+02  0.12150027209E+02  0.00000000000E+00 0. -1.
        -11    1    1    2    0    0 -0.42422843485E+01  0.20261919940E+02  0.75408874190E+01  0.22031962219E+02  0.00000000000E+00 0. -1.
         11    1    1    2    0    0  0.42422843485E+01 -0.20261919940E+02  0.16939901394E+02  0.26748881012E+02  0.00000000000E+00 0.  1.
<mgrwt>
<rscale>  0 0.42193147E+02</rscale>
<asrwt>0</asrwt>
<pdfrwt beam="2">  1        1 0.18692350E-02 0.42193147E+02</pdfrwt>
<pdfrwt beam="1">  1       -1 0.56355101E-02 0.42193147E+02</pdfrwt>
<totfact> 0.63759854E+05</totfact>
</mgrwt>
</event>
<event>
 4    1  0.2165211E+000  0.2480489E+02  0.7546771E-02  0.1663820E+00
         -2   -1    0    0    0  501 -0.00000000000E+00  0.00000000000E+00  0.39245554863E+02  0.39245554863E+02  0.00000000000E+00 0. -1.
          2   -1    0    0  501    0  0.00000000000E+00 -0.00000000000E+00 -0.39194412419E+01  0.39194412419E+01  0.00000000000E+00 0.  1.
        -11    1    1    2    0    0  0.11290818488E+01 -0.10418499679E+02  0.29206200794E+02  0.31029375214E+02  0.00000000000E+00 0. -1.
         11    1    1    2    0    0 -0.11290818488E+01  0.10418499679E+02  0.61199128272E+01  0.12135620890E+02  0.00000000000E+00 0.  1.
<mgrwt>
<rscale>  0 0.24804890E+02</rscale>
<asrwt>0</asrwt>
<pdfrwt beam="2">  1        2 0.60299099E-03 0.24804890E+02</pdfrwt>
<pdfrwt beam="1">  1       -2 0.60377774E-02 0.24804890E+02</pdfrwt>
<totfact> 0.21706587E+06</totfact>
</mgrwt>
</event>
<event>
 4    1  0.2165211E+000  0.2366407E+02  0.7546771E-02  0.1680967E+00
         -2   -1    0    0    0  501 -0.00000000000E+00  0.00000000000E+00  0.80040285978E+02  0.80040285978E+02  0.00000000000E+00 0.  1.
          2   -1    0    0  501    0  0.00000000000E+00 -0.00000000000E+00 -0.17490822131E+01  0.17490822131E+01  0.00000000000E+00 0. -1.
        -11    1    1    2    0    0 -0.82991467961E+00 -0.11742695374E+02  0.35030773449E+02  0.36955848542E+02  0.00000000000E+00 0.  1.
         11    1    1    2    0    0  0.82991467961E+00  0.11742695374E+02  0.43260430316E+02  0.44833519649E+02  0.00000000000E+00 0. -1.
<mgrwt>
<rscale>  0 0.23664069E+02</rscale>
<asrwt>0</asrwt>
<pdfrwt beam="2">  1        2 0.26908963E-03 0.23664069E+02</pdfrwt>
<pdfrwt beam="1">  1       -2 0.12313887E-01 0.23664069E+02</pdfrwt>
<totfact> 0.21535823E+06</totfact>
</mgrwt>
</event>
<event>
 4    1  0.2165211E+000  0.2699316E+02  0.7546771E-02  0.1633921E+00
          4   -1    0    0  501    0  0.00000000000E+00  0.00000000000E+00  0.77428948403E+02  0.77428948403E+02  0.00000000000E+00 0.  1.
         -4   -1    0    0    0  501 -0.00000000000E+00 -0.00000000000E+00 -0.23525777035E+01  0.23525777035E+01  0.00000000000E+00 0. -1.
        -13    1    1    2    0    0  0.12114119383E+02  0.54625769542E+01  0.30565186690E+02  0.33329000478E+02  0.00000000000E+00 0.  1.
         13    1    1    2    0    0 -0.12114119383E+02 -0.54625769542E+01  0.44511184009E+02  0.46452525628E+02  0.00000000000E+00 0. -1.
<mgrwt>
<rscale>  0 0.26993156E+02</rscale>
<asrwt>0</asrwt>
<pdfrwt beam="1">  1        4 0.11912144E-01 0.26993156E+02</pdfrwt>
<pdfrwt beam="2">  1       -4 0.36193509E-03 0.26993156E+02</pdfrwt>
<totfact> 0.55583154E+05</totfact>
</mgrwt>
</event>
<event>
 4    1  0.2165211E+000  0.3263081E+02  0.7546771E-02  0.1570706E+00
          2   -1    0    0  501    0  0.00000000000E+00  0.00000000000E+00  0.13007955003E+02  0.13007955003E+02  0.00000000000E+00 0.  1.
         -2   -1    0    0    0  501 -0.00000000000E+00 -0.00000000000E+00 -0.20463824220E+02  0.20463824220E+02  0.00000000000E+00 0. -1.
        -11    1    1    2    0    0 -0.23549487963E+01  0.15784771814E+02 -0.25123293523E+00  0.15961451157E+02  0.00000000000E+00 0.  1.
         11    1    1    2    0    0  0.23549487963E+01 -0.15784771814E+02 -0.72046362813E+01  0.17510328066E+02  0.00000000000E+00 0. -1.
<mgrwt>
<rscale>  0 0.32630814E+02</rscale>
<asrwt>0</asrwt>
<pdfrwt beam="1">  1        2 0.20012239E-02 0.32630814E+02</pdfrwt>
<pdfrwt beam="2">  1       -2 0.31482806E-02 0.32630814E+02</pdfrwt>
<totfact> 0.12526769E+06</totfact>
</mgrwt>
</event>
<event>
 4    1  0.2165211E+000  0.2998932E+02  0.7546771E-02  0.1598207E+00
         -2   -1    0    0    0  501 -0.00000000000E+00  0.00000000000E+00  0.15852546975E+03  0.15852546975E+03  0.00000000000E+00 0.  1.
          2   -1    0    0  501    0  0.00000000000E+00 -0.00000000000E+00 -0.14183202622E+01  0.14183202622E+01  0.00000000000E+00 0. -1.
        -13    1    1    2    0    0 -0.49159759515E+01 -0.14161870070E+02  0.76748862450E+02  0.78199189707E+02  0.00000000000E+00 0. -1.
         13    1    1    2    0    0  0.49159759515E+01  0.14161870070E+02  0.80358287042E+02  0.81744600310E+02  0.00000000000E+00 0.  1.
<mgrwt>
<rscale>  0 0.29989324E+02</rscale>
<asrwt>0</asrwt>
<pdfrwt beam="2">  1        2 0.21820324E-03 0.29989324E+02</pdfrwt>
<pdfrwt beam="1">  1       -2 0.24388520E-01 0.29989324E+02</pdfrwt>
<totfact> 0.10443407E+06</totfact>
</mgrwt>
</event>
<event>
 4    1  0.2165211E+000  0.3573029E+02  0.7546771E-02  0.1542209E+00
         -4   -1    0    0    0  501 -0.00000000000E+00  0.00000000000E+00  0.11668537578E+02  0.11668537578E+02  0.00000000000E+00 0.  1.
          4   -1    0    0  501    0  0.00000000000E+00 -0.00000000000E+00 -0.27352482127E+02  0.27352482127E+02  0.00000000000E+00 0. -1.
        -11    1    1    2    0    0  0.13402716306E+02  0.10358216267E+02 -0.16411941427E+01  0.17018195169E+02  0.00000000000E+00 0.  1.
         11    1    1    2    0    0 -0.13402716306E+02 -0.10358216267E+02 -0.14042750406E+02  0.22002824536E+02  0.00000000000E+00 0. -1.
<mgrwt>
<rscale>  0 0.35730293E+02</rscale>
<asrwt>0</asrwt>
<pdfrwt beam="2">  1        4 0.42080741E-02 0.35730293E+02</pdfrwt>
<pdfrwt beam="1">  1       -4 0.17951597E-02 0.35730293E+02</pdfrwt>
<totfact> 0.33662726E+05</totfact>
</mgrwt>
</event>
<event>
 4    1  0.2165211E+000  0.3709445E+02  0.7546771E-02  0.1530751E+00
         -2   -1    0    0    0  501 -0.00000000000E+00  0.00000000000E+00  0.90212597115E+01  0.90212597115E+01  0.00000000000E+00 0. -1.
          2   -1    0    0  501    0  0.00000000000E+00 -0.00000000000E+00 -0.38132101433E+02  0.38132101433E+02  0.00000000000E+00 0.  1.
        -11    1    1    2    0    0 -0.18296199898E+02  0.29744007691E+01 -0.13749856195E+02  0.23079353024E+02  0.00000000000E+00 0.  1.
         11    1    1    2    0    0  0.18296199898E+02 -0.29744007691E+01 -0.15360985526E+02  0.24074008120E+02  0.00000000000E+00 0. -1.
<mgrwt>
<rscale>  0 0.37094452E+02</rscale>
<asrwt>0</asrwt>
<pdfrwt beam="2">  1        2 0.58664771E-02 0.37094452E+02</pdfrwt>
<pdfrwt beam="1">  1       -2 0.13878861E-02 0.37094452E+02</pdfrwt>
<totfact> 0.10409225E+06</totfact>
</mgrwt>
</event>
<event>
 4    1  0.2165211E+000  0.4070094E+02  0.7546771E-02  0.1503116E+00
         -1   -1    0    0    0  501 -0.00000000000E+00  0.00000000000E+00  0.17248523978E+02  0.17248523978E+02  0.00000000000E+00 0.  1.
          1   -1    0    0  501    0  0.00000000000E+00 -0.00000000000E+00 -0.24010263768E+02  0.24010263768E+02  0.00000000000E+00 0. -1.
        -11    1    1    2    0    0 -0.51199353828E+01 -0.12534438825E+02 -0.18781720973E+02  0.23153378537E+02  0.00000000000E+00 0. -1.
         11    1    1    2    0    0  0.51199353828E+01  0.12534438825E+02  0.12019981182E+02  0.18105409209E+02  0.00000000000E+00 0.  1.
<mgrwt>
<rscale>  0 0.40700939E+02</rscale>
<asrwt>0</asrwt>
<pdfrwt beam="2">  1        1 0.36938867E-02 0.40700939E+02</pdfrwt>
<pdfrwt beam="1">  1       -1 0.26536191E-02 0.40700939E+02</pdfrwt>
<totfact> 0.73823810E+05</totfact>
</mgrwt>
</event>
<event>
 4    1  0.2165211E+000  0.2208505E+02  0.7546771E-02  0.1706785E+00
         -1   -1    0    0    0  501 -0.00000000000E+00  0.00000000000E+00  0.65646271621E+01  0.65646271621E+01  0.00000000000E+00 0. -1.
          1   -1    0    0  501    0  0.00000000000E+00 -0.00000000000E+00 -0.18574916311E+02  0.18574916311E+02  0.00000000000E+00 0.  1.
        -13    1    1    2    0    0  0.99991781794E+01  0.46653462552E+01 -0.55110881381E+01  0.12333738785E+02  0.00000000000E+00 0. -1.
         13    1    1    2    0    0 -0.99991781794E+01 -0.46653462552E+01 -0.64992010111E+01  0.12805804689E+02  0.00000000000E+00 0.  1.
<mgrwt>
<rscale>  0 0.22085054E+02</rscale>
<asrwt>0</asrwt>
<pdfrwt beam="2">  1        1 0.28576794E-02 0.22085054E+02</pdfrwt>
<pdfrwt beam="1">  1       -1 0.10099427E-02 0.22085054E+02</pdfrwt>
<totfact> 0.31611285E+06</totfact>
</mgrwt>
</event>
<event>
 4    1  0.2165211E+000  0.2611476E+02  0.7546771E-02  0.1645488E+00
         -1   -1    0    0    0  501 -0.00000000000E+00  0.00000000000E+00  0.11532049789E+03  0.11532049789E+03  0.00000000000E+00 0.  1.
          1   -1    0    0  501    0  0.00000000000E+00 -0.00000000000E+00 -0.14784466558E+01  0.14784466558E+01  0.00000000000E+00 0. -1.
        -13    1    1    2    0    0 -0.11824361952E+02  0.41251893619E+01  0.40389321114E+02  0.42286285991E+02  0.00000000000E+00 0. -1.
         13    1    1    2    0    0  0.11824361952E+02 -0.41251893619E+01  0.73452730123E+02  0.74512658557E+02  0.00000000000E+00 0.  1.
<mgrwt>
<rscale>  0 0.26114762E+02</rscale>
<asrwt>0</asrwt>
<pdfrwt beam="2">  1        1 0.22745342E-03 0.26114762E+02</pdfrwt>
<pdfrwt beam="1">  1       -1 0.17741608E-01 0.26114762E+02</pdfrwt>
<totfact> 0.17102481E+06</totfact>
</mgrwt>
</event>
<event>
 4    1  0.2165211E+000  0.3546446E+02  0.7546771E-02  0.1544514E+00
          2   -1    0    0  501    0  0.00000000000E+00  0.00000000000E+00  0.16925346343E+03  0.16925346343E+03  0.00000000000E+00 0.  1.
         -2   -1    0    0    0  501 -0.00000000000E+00 -0.00000000000E+00 -0.18577582676E+01  0.18577582676E+01  0.00000000000E+00 0. -1.
        -13    1    1    2    0    0  0.15560979196E+02 -0.84509198521E+01  0.88197930754E+02  0.89957974128E+02  0.00000000000E+00 0.  1.
         13    1    1    2    0    0 -0.15560979196E+02  0.84509198521E+01  0.79197774404E+02  0.81153247566E+02  0.00000000000E+00 0. -1.
<mgrwt>
<rscale>  0 0.35464462E+02</rscale>
<asrwt>0</asrwt>
<pdfrwt beam="1">  1        2 0.26038982E-01 0.35464462E+02</pdfrwt>
<pdfrwt beam="2">  1       -2 0.28580910E-03 0.35464462E+02</pdfrwt>
<totfact> 0.16205768E+06</totfact>
</mgrwt>
</event>
<event>
 4    1  0.2165211E+000  0.3100170E+02  0.7546771E-02  0.1587273E+00
         -4   -1    0    0    0  501 -0.00000000000E+00  0.00000000000E+00  0.41266592320E+01  0.41266592320E+01  0.00000000000E+00 0.  1.
          4   -1    0    0  501    0  0.00000000000E+00 -0.00000000000E+00 -0.58225380545E+02  0.58225380545E+02  0.00000000000E+00 0. -1.
        -11    1    1    2    0    0  0.13477135259E+02  0.10627861889E+01 -0.11796527111E+02  0.17942149847E+02  0.00000000000E+00 0. -1.
         11    1    1    2    0    0 -0.13477135259E+02 -0.10627861889E+01 -0.42302194202E+02  0.44409889930E+02  0.00000000000E+00 0.  1.
<mgrwt>
<rscale>  0 0.31001697E+02</rscale>
<asrwt>0</asrwt>
<pdfrwt beam="2">  1        4 0.89577501E-02 0.31001697E+02</pdfrwt>
<pdfrwt beam="1">  1       -4 0.63487070E-03 0.31001697E+02</pdfrwt>
<totfact> 0.43152369E+05</totfact>
</mgrwt>
</event>
<event>
 4    1  0.2165211E+000  0.2321925E+02  0.7546771E-02  0.1687981E+00
         -2   -1    0    0    0  501 -0.00000000000E+00  0.00000000000E+00  0.35044260011E+01  0.35044260011E+01  0.00000000000E+00 0.  1.
          2   -1    0    0  501    0  0.00000000000E+00 -0.00000000000E+00 -0.38460889486E+02  0.38460889486E+02  0.00000000000E+00 0. -1.
        -13    1    1    2    0    0 -0.99547830702E+01  0.58175965148E+01 -0.15025818946E+02  0.18939835537E+02  0.00000000000E+00 0.  1.
         13    1    1    2    0    0  0.99547830702E+01 -0.58175965148E+01 -0.19930644539E+02  0.23025479950E+02  0.00000000000E+00 0. -1.
<mgrwt>
<rscale>  0 0.23219246E+02</rscale>
<asrwt>0</asrwt>
<pdfrwt beam="2">  1        2 0.59170601E-02 0.23219246E+02</pdfrwt>
<pdfrwt beam="1">  1       -2 0.53914244E-03 0.23219246E+02</pdfrwt>
<totfact> 0.31851245E+06</totfact>
</mgrwt>
</event>
<event>
 4    1  0.2165211E+000  0.2302479E+02  0.7546771E-02  0.1691109E+00
         -2   -1    0    0    0  501 -0.00000000000E+00  0.00000000000E+00  0.17517957246E+02  0.17517957246E+02  0.00000000000E+00 0. -1.
          2   -1    0    0  501    0  0.00000000000E+00 -0.00000000000E+00 -0.75656795584E+01  0.75656795584E+01  0.00000000000E+00 0.  1.
        -11    1    1    2    0    0  0.24943097799E+01  0.11238724452E+02  0.49011153919E+01  0.12512051817E+02  0.00000000000E+00 0. -1.
         11    1    1    2    0    0 -0.24943097799E+01 -0.11238724452E+02  0.50511622962E+01  0.12571584988E+02  0.00000000000E+00 0.  1.
<mgrwt>
<rscale>  0 0.23024791E+02</rscale>
<asrwt>0</asrwt>
<pdfrwt beam="2">  1        2 0.11639507E-02 0.23024791E+02</pdfrwt>
<pdfrwt beam="1">  1       -2 0.26950703E-02 0.23024791E+02</pdfrwt>
<totfact> 0.27809051E+06</totfact>
</mgrwt>
</event>
<event>
 4    1  0.2165211E+000  0.7013009E+02  0.7546771E-02  0.1359651E+00
          3   -1    0    0  501    0  0.00000000000E+00  0.00000000000E+00  0.33110569575E+02  0.33110569575E+02  0.00000000000E+00 0. -1.
         -3   -1    0    0    0  501 -0.00000000000E+00 -0.00000000000E+00 -0.37134891191E+02  0.37134891191E+02  0.00000000000E+00 0.  1.
        -13    1    1    2    0    0 -0.27005032315E+02 -0.16829871227E+02 -0.16768710331E+02  0.35968124528E+02  0.00000000000E+00 0.  1.
         13    1    1    2    0    0  0.27005032315E+02  0.16829871227E+02  0.12744388715E+02  0.34277336238E+02  0.00000000000E+00 0. -1.
<mgrwt>
<rscale>  0 0.70130091E+02</rscale>
<asrwt>0</asrwt>
<pdfrwt beam="1">  1        3 0.50939338E-02 0.70130091E+02</pdfrwt>
<pdfrwt beam="2">  1       -3 0.57130601E-02 0.70130091E+02</pdfrwt>
<totfact> 0.74926731E+04</totfact>
</mgrwt>
</event>
<event>
 4    1  0.2165211E+000  0.4676921E+02  0.7546771E-02  0.1463590E+00
          2   -1    0    0  501    0  0.00000000000E+00  0.00000000000E+00  0.12061991842E+03  0.12061991842E+03  0.00000000000E+00 0.  1.
         -2   -1    0    0    0  501 -0.00000000000E+00 -0.00000000000E+00 -0.45335779472E+01  0.45335779472E+01  0.00000000000E+00 0. -1.
        -13    1    1    2    0    0 -0.21519006540E+02 -0.49750190353E+01  0.37484856735E+02  0.43507849192E+02  0.00000000000E+00 0.  1.
         13    1    1    2    0    0  0.21519006540E+02  0.49750190353E+01  0.78601483737E+02  0.81645647175E+02  0.00000000000E+00 0. -1.
<mgrwt>
<rscale>  0 0.46769212E+02</rscale>
<asrwt>0</asrwt>
<pdfrwt beam="1">  1        2 0.18556908E-01 0.46769212E+02</pdfrwt>
<pdfrwt beam="2">  1       -2 0.69747362E-03 0.46769212E+02</pdfrwt>
<totfact> 0.74501390E+05</totfact>
</mgrwt>
</event>
<event>
 4    1  0.2165211E+000  0.2998468E+02  0.7546771E-02  0.1598258E+00
          2   -1    0    0  501    0  0.00000000000E+00  0.00000000000E+00  0.67158748617E+02  0.67158748617E+02  0.00000000000E+00 0.  1.
         -2   -1    0    0    0  501 -0.00000000000E+00 -0.00000000000E+00 -0.33468501883E+01  0.33468501883E+01  0.00000000000E+00 0. -1.
        -13    1    1    2    0    0 -0.45982468037E+01 -0.95782147933E+01  0.70340727154E+01  0.12742223168E+02  0.00000000000E+00 0. -1.
         13    1    1    2    0    0  0.45982468037E+01  0.95782147933E+01  0.56777825713E+02  0.57763375637E+02  0.00000000000E+00 0.  1.
<mgrwt>
<rscale>  0 0.29984681E+02</rscale>
<asrwt>0</asrwt>
<pdfrwt beam="1">  1        2 0.10332114E-01 0.29984681E+02</pdfrwt>
<pdfrwt beam="2">  1       -2 0.51490008E-03 0.29984681E+02</pdfrwt>
<totfact> 0.19189390E+06</totfact>
</mgrwt>
</event>
<event>
 4    1  0.2165211E+000  0.2773531E+02  0.7546771E-02  0.1624561E+00
         -2   -1    0    0    0  501 -0.00000000000E+00  0.00000000000E+00  0.33621177583E+02  0.33621177583E+02  0.00000000000E+00 0. -1.
          2   -1    0    0  501    0  0.00000000000E+00 -0.00000000000E+00 -0.57199620736E+01  0.57199620736E+01  0.00000000000E+00 0.  1.
        -13    1    1    2    0    0 -0.40027787504E+01 -0.12366477662E+02  0.70949526605E+01  0.14808455718E+02  0.00000000000E+00 0.  1.
         13    1    1    2    0    0  0.40027787504E+01  0.12366477662E+02  0.20806262849E+02  0.24532683939E+02  0.00000000000E+00 0. -1.
<mgrwt>
<rscale>  0 0.27735310E+02</rscale>
<asrwt>0</asrwt>
<pdfrwt beam="2">  1        2 0.87999419E-03 0.27735310E+02</pdfrwt>
<pdfrwt beam="1">  1       -2 0.51724887E-02 0.27735310E+02</pdfrwt>
<totfact> 0.17173705E+06</totfact>
</mgrwt>
</event>
<event>
 4    1  0.2165211E+000  0.3581580E+02  0.7546771E-02  0.1541473E+00
          2   -1    0    0  501    0  0.00000000000E+00  0.00000000000E+00  0.10291195808E+02  0.10291195808E+02  0.00000000000E+00 0.  1.
         -2   -1    0    0    0  501 -0.00000000000E+00 -0.00000000000E+00 -0.31161875583E+02  0.31161875583E+02  0.00000000000E+00 0. -1.
        -13    1    1    2    0    0  0.98660222690E+01 -0.28881228371E+01  0.65359432994E+01  0.12181880140E+02  0.00000000000E+00 0.  1.
         13    1    1    2    0    0 -0.98660222690E+01  0.28881228371E+01 -0.27406623074E+02  0.29271191251E+02  0.00000000000E+00 0. -1.
<mgrwt>
<rscale>  0 0.35815805E+02</rscale>
<asrwt>0</asrwt>
<pdfrwt beam="1">  1        2 0.15832609E-02 0.35815805E+02</pdfrwt>
<pdfrwt beam="2">  1       -2 0.47941347E-02 0.35815805E+02</pdfrwt>
<totfact> 0.96238390E+05</totfact>
</mgrwt>
</event>
<event>
 4    1  0.2165211E+000  0.3269936E+02  0.7546771E-02  0.1570034E+00
         -2   -1    0    0    0  501 -0.00000000000E+00  0.00000000000E+00  0.58342517464E+02  0.58342517464E+02  0.00000000000E+00 0. -1.
          2   -1    0    0  501    0  0.00000000000E+00 -0.00000000000E+00 -0.45817705309E+01  0.45817705309E+01  0.00000000000E+00 0.  1.
        -11    1    1    2    0    0 -0.35436408415E+01  0.15175518621E+02  0.36397195425E+02  0.39593049777E+02  0.00000000000E+00 0. -1.
         11    1    1    2    0    0  0.35436408415E+01 -0.15175518621E+02  0.17363551508E+02  0.23331238218E+02  0.00000000000E+00 0.  1.
<mgrwt>
<rscale>  0 0.32699359E+02</rscale>
<asrwt>0</asrwt>
<pdfrwt beam="2">  1        2 0.70488781E-03 0.32699359E+02</pdfrwt>
<pdfrwt beam="1">  1       -2 0.89757714E-02 0.32699359E+02</pdfrwt>
<totfact> 0.10877143E+06</totfact>
</mgrwt>
</event>
<event>
 4    1  0.2165211E+000  0.4059483E+02  0.7546771E-02  0.1503879E+00
         -4   -1    0    0    0  501 -0.00000000000E+00  0.00000000000E+00  0.23888579618E+02  0.23888579618E+02  0.00000000000E+00 0.  1.
          4   -1    0    0  501    0  0.00000000000E+00 -0.00000000000E+00 -0.17246107489E+02  0.17246107489E+02  0.00000000000E+00 0. -1.
        -13    1    1    2    0    0  0.31121754692E+00  0.15624271147E+02  0.16446107059E+02  0.22686761396E+02  0.00000000000E+00 0.  1.
         13    1    1    2    0    0 -0.31121754692E+00 -0.15624271147E+02 -0.98036349300E+01  0.18447925712E+02  0.00000000000E+00 0. -1.
<mgrwt>
<rscale>  0 0.40594828E+02</rscale>
<asrwt>0</asrwt>
<pdfrwt beam="2">  1        4 0.26532473E-02 0.40594828E+02</pdfrwt>
<pdfrwt beam="1">  1       -4 0.36751661E-02 0.40594828E+02</pdfrwt>
<totfact> 0.24687123E+05</totfact>
</mgrwt>
</event>
<event>
 4    1  0.2165211E+000  0.2341894E+02  0.7546771E-02  0.1684808E+00
         -2   -1    0    0    0  501 -0.00000000000E+00  0.00000000000E+00  0.68594661178E+01  0.68594661178E+01  0.00000000000E+00 0. -1.
          2   -1    0    0  501    0  0.00000000000E+00 -0.00000000000E+00 -0.19988679518E+02  0.19988679518E+02  0.00000000000E+00 0.  1.
        -11    1    1    2    0    0 -0.69276577842E+01 -0.89344991729E+01 -0.30696057116E+01  0.11714956128E+02  0.00000000000E+00 0. -1.
         11    1    1    2    0    0  0.69276577842E+01  0.89344991729E+01 -0.10059607689E+02  0.15133189508E+02  0.00000000000E+00 0.  1.
<mgrwt>
<rscale>  0 0.23418938E+02</rscale>
<asrwt>0</asrwt>
<pdfrwt beam="2">  1        2 0.30751815E-02 0.23418938E+02</pdfrwt>
<pdfrwt beam="1">  1       -2 0.10553025E-02 0.23418938E+02</pdfrwt>
<totfact> 0.29038963E+06</totfact>
</mgrwt>
</event>
<event>
 4    1  0.2165211E+000  0.3089174E+02  0.7546771E-02  0.1588436E+00
         -4   -1    0    0    0  501 -0.00000000000E+00  0.00000000000E+00  0.97073353138E+02  0.97073353138E+02  0.00000000000E+00 0. -1.
          4   -1    0    0  501    0  0.00000000000E+00 -0.00000000000E+00 -0.24576761703E+01  0.24576761703E+01  0.00000000000E+00 0.  1.
        -11    1    1    2    0    0  0.10299448362E+02  0.86147667808E+01  0.22710763467E+02  0.26383169266E+02  0.00000000000E+00 0.  1.
         11    1    1    2    0    0 -0.10299448362E+02 -0.86147667808E+01  0.71904913500E+02  0.73147860042E+02  0.00000000000E+00 0. -1.
<mgrwt>
<rscale>  0 0.30891738E+02</rscale>
<asrwt>0</asrwt>
<pdfrwt beam="2">  1        4 0.37810410E-03 0.30891738E+02</pdfrwt>
<pdfrwt beam="1">  1       -4 0.14934359E-01 0.30891738E+02</pdfrwt>
<totfact> 0.38971730E+05</totfact>
</mgrwt>
</event>
<event>
 4    1  0.2165211E+000  0.3570174E+02  0.7546771E-02  0.1542456E+00
          2   -1    0    0  501    0  0.00000000000E+00  0.00000000000E+00  0.87898587368E+02  0.87898587368E+02  0.00000000000E+00 0.  1.
         -2   -1    0    0    0  501 -0.00000000000E+00 -0.00000000000E+00 -0.36252415985E+01  0.36252415985E+01  0.00000000000E+00 0. -1.
        -13    1    1    2    0    0 -0.11497476230E+02  0.13649105084E+02  0.41099818005E+02  0.44807198856E+02  0.00000000000E+00 0.  1.
         13    1    1    2    0    0  0.11497476230E+02 -0.13649105084E+02  0.43173527765E+02  0.46716630111E+02  0.00000000000E+00 0. -1.
<mgrwt>
<rscale>  0 0.35701743E+02</rscale>
<asrwt>0</asrwt>
<pdfrwt beam="1">  1        2 0.13522858E-01 0.35701743E+02</pdfrwt>
<pdfrwt beam="2">  1       -2 0.55772954E-03 0.35701743E+02</pdfrwt>
<totfact> 0.13369333E+06</totfact>
</mgrwt>
</event>
<event>
 4    1  0.2165211E+000  0.1202896E+03  0.7546771E-02  0.1242620E+00
         -2   -1    0    0    0  501 -0.00000000000E+00  0.00000000000E+00  0.46193164506E+02  0.46193164506E+02  0.00000000000E+00 0.  1.
          2   -1    0    0  501    0  0.00000000000E+00 -0.00000000000E+00 -0.78310176233E+02  0.78310176233E+02  0.00000000000E+00 0. -1.
        -13    1    1    2    0    0 -0.16854747261E+02 -0.26798112018E+02  0.36871666436E+02  0.48597747877E+02  0.00000000000E+00 0.  1.
         13    1    1    2    0    0  0.16854747261E+02  0.26798112018E+02 -0.68988678163E+02  0.75905592861E+02  0.00000000000E+00 0. -1.
<mgrwt>
<rscale>  0 0.12028956E+03</rscale>
<asrwt>0</asrwt>
<pdfrwt beam="2">  1        2 0.12047719E-01 0.12028956E+03</pdfrwt>
<pdfrwt beam="1">  1       -2 0.71066408E-02 0.12028956E+03</pdfrwt>
<totfact> 0.51796400E+04</totfact>
</mgrwt>
</event>
<event>
 4    1  0.2165211E+000  0.5072099E+02  0.7546771E-02  0.1441491E+00
         -2   -1    0    0    0  501 -0.00000000000E+00  0.00000000000E+00  0.15576455239E+02  0.15576455239E+02  0.00000000000E+00 0.  1.
          2   -1    0    0  501    0  0.00000000000E+00 -0.00000000000E+00 -0.41290183650E+02  0.41290183650E+02  0.00000000000E+00 0. -1.
        -11    1    1    2    0    0 -0.40674755676E+01 -0.13660941428E+02 -0.36374342958E+02  0.39067358546E+02  0.00000000000E+00 0. -1.
         11    1    1    2    0    0  0.40674755676E+01  0.13660941428E+02  0.10660614547E+02  0.17799280342E+02  0.00000000000E+00 0.  1.
<mgrwt>
<rscale>  0 0.50720990E+02</rscale>
<asrwt>0</asrwt>
<pdfrwt beam="2">  1        2 0.63523359E-02 0.50720990E+02</pdfrwt>
<pdfrwt beam="1">  1       -2 0.23963778E-02 0.50720990E+02</pdfrwt>
<totfact> 0.47730965E+05</totfact>
</mgrwt>
</event>
<event>
 4    1  0.2165211E+000  0.3500640E+02  0.7546771E-02  0.1548544E+00
         -2   -1    0    0    0  501 -0.00000000000E+00  0.00000000000E+00  0.24175721230E+01  0.24175721230E+01  0.00000000000E+00 0. -1.
          2   -1    0    0  501    0  0.00000000000E+00 -0.00000000000E+00 -0.12672303996E+03  0.12672303996E+03  0.00000000000E+00 0.  1.
        -13    1    1    2    0    0  0.11378606152E+02 -0.12611409984E+02 -0.77735123084E+02  0.79569276110E+02  0.00000000000E+00 0.  1.
         13    1    1    2    0    0 -0.11378606152E+02  0.12611409984E+02 -0.46570344749E+02  0.49571335970E+02  0.00000000000E+00 0. -1.
<mgrwt>
<rscale>  0 0.35006404E+02</rscale>
<asrwt>0</asrwt>
<pdfrwt beam="2">  1        2 0.19495857E-01 0.35006404E+02</pdfrwt>
<pdfrwt beam="1">  1       -2 0.37193407E-03 0.35006404E+02</pdfrwt>
<totfact> 0.15374920E+06</totfact>
</mgrwt>
</event>
<event>
 4    1  0.2165211E+000  0.8474905E+02  0.7546771E-02  0.1316090E+00
         -2   -1    0    0    0  501 -0.00000000000E+00  0.00000000000E+00  0.97745961953E+02  0.97745961953E+02  0.00000000000E+00 0. -1.
          2   -1    0    0  501    0  0.00000000000E+00 -0.00000000000E+00 -0.18370074130E+02  0.18370074130E+02  0.00000000000E+00 0.  1.
        -13    1    1    2    0    0 -0.15523214339E+01  0.40559619220E+02  0.23013674151E+02  0.46659635779E+02  0.00000000000E+00 0.  1.
         13    1    1    2    0    0  0.15523214339E+01 -0.40559619220E+02  0.56362213673E+02  0.69456400304E+02  0.00000000000E+00 0. -1.
<mgrwt>
<rscale>  0 0.84749055E+02</rscale>
<asrwt>0</asrwt>
<pdfrwt beam="2">  1        2 0.28261653E-02 0.84749055E+02</pdfrwt>
<pdfrwt beam="1">  1       -2 0.15037840E-01 0.84749055E+02</pdfrwt>
<totfact> 0.96355342E+04</totfact>
</mgrwt>
</event>
<event>
 4    1  0.2165211E+000  0.1311271E+03  0.7546771E-02  0.1225793E+00
          1   -1    0    0  501    0  0.00000000000E+00  0.00000000000E+00  0.19436991863E+03  0.19436991863E+03  0.00000000000E+00 0. -1.
         -1   -1    0    0    0  501 -0.00000000000E+00 -0.00000000000E+00 -0.22115469126E+02  0.22115469126E+02  0.00000000000E+00 0.  1.
        -13    1    1    2    0    0  0.62724181807E+00 -0.65415441180E+02  0.78929245898E+02  0.10251536097E+03  0.00000000000E+00 0. -1.
         13    1    1    2    0    0 -0.62724181807E+00  0.65415441180E+02  0.93325203604E+02  0.11397002678E+03  0.00000000000E+00 0.  1.
<mgrwt>
<rscale>  0 0.13112714E+03</rscale>
<asrwt>0</asrwt>
<pdfrwt beam="1">  1        1 0.29903063E-01 0.13112714E+03</pdfrwt>
<pdfrwt beam="2">  1       -1 0.34023800E-02 0.13112714E+03</pdfrwt>
<totfact> 0.43486868E+04</totfact>
</mgrwt>
</event>
<event>
 4    1  0.2165211E+000  0.2007283E+02  0.7546771E-02  0.1743884E+00
          2   -1    0    0  501    0  0.00000000000E+00  0.00000000000E+00  0.77501488531E+01  0.77501488531E+01  0.00000000000E+00 0.  1.
         -2   -1    0    0    0  501 -0.00000000000E+00 -0.00000000000E+00 -0.12997115063E+02  0.12997115063E+02  0.00000000000E+00 0. -1.
        -13    1    1    2    0    0  0.25165266391E+01  0.96989182878E+01 -0.20318395367E+01  0.10224005780E+02  0.00000000000E+00 0. -1.
         13    1    1    2    0    0 -0.25165266391E+01 -0.96989182878E+01 -0.32151266731E+01  0.10523258136E+02  0.00000000000E+00 0.  1.
<mgrwt>
<rscale>  0 0.20072825E+02</rscale>
<asrwt>0</asrwt>
<pdfrwt beam="1">  1        2 0.11923306E-02 0.20072825E+02</pdfrwt>
<pdfrwt beam="2">  1       -2 0.19995561E-02 0.20072825E+02</pdfrwt>
<totfact> 0.38409668E+06</totfact>
</mgrwt>
</event>
<event>
 4    1  0.2165211E+000  0.7161452E+02  0.7546771E-02  0.1354687E+00
          2   -1    0    0  501    0  0.00000000000E+00  0.00000000000E+00  0.40578127886E+02  0.40578127886E+02  0.00000000000E+00 0.  1.
         -2   -1    0    0    0  501 -0.00000000000E+00 -0.00000000000E+00 -0.31597314798E+02  0.31597314798E+02  0.00000000000E+00 0. -1.
        -11    1    1    2    0    0  0.66349276269E+01  0.28521645084E+02 -0.16278118776E+02  0.33503487189E+02  0.00000000000E+00 0.  1.
         11    1    1    2    0    0 -0.66349276269E+01 -0.28521645084E+02  0.25258931865E+02  0.38671955496E+02  0.00000000000E+00 0. -1.
<mgrwt>
<rscale>  0 0.71614520E+02</rscale>
<asrwt>0</asrwt>
<pdfrwt beam="1">  1        2 0.62427889E-02 0.71614520E+02</pdfrwt>
<pdfrwt beam="2">  1       -2 0.48611253E-02 0.71614520E+02</pdfrwt>
<totfact> 0.18924984E+05</totfact>
</mgrwt>
</event>
<event>
 4    1  0.2165211E+000  0.5271016E+02  0.7546771E-02  0.1431249E+00
          3   -1    0    0  501    0  0.00000000000E+00  0.00000000000E+00  0.61912684199E+01  0.61912684199E+01  0.00000000000E+00 0. -1.
         -3   -1    0    0    0  501 -0.00000000000E+00 -0.00000000000E+00 -0.11218869249E+03  0.11218869249E+03  0.00000000000E+00 0.  1.
        -11    1    1    2    0    0  0.15283826664E+02 -0.18111607676E+02 -0.27101567352E+02  0.36001675559E+02  0.00000000000E+00 0. -1.
         11    1    1    2    0    0 -0.15283826664E+02  0.18111607676E+02 -0.78895856720E+02  0.82378285353E+02  0.00000000000E+00 0.  1.
<mgrwt>
<rscale>  0 0.52710163E+02</rscale>
<asrwt>0</asrwt>
<pdfrwt beam="1">  1        3 0.95250288E-03 0.52710163E+02</pdfrwt>
<pdfrwt beam="2">  1       -3 0.17259798E-01 0.52710163E+02</pdfrwt>
<totfact> 0.14027290E+05</totfact>
</mgrwt>
</event>
<event>
 4    1  0.2165211E+000  0.2542033E+02  0.7546771E-02  0.1655037E+00
          1   -1    0    0  501    0  0.00000000000E+00  0.00000000000E+00  0.56875971528E+01  0.56875971528E+01  0.00000000000E+00 0. -1.
         -1   -1    0    0    0  501 -0.00000000000E+00 -0.00000000000E+00 -0.28403613294E+02  0.28403613294E+02  0.00000000000E+00 0.  1.
        -13    1    1    2    0    0 -0.51145237764E+01  0.11440560989E+02 -0.14204023873E+02  0.18941992593E+02  0.00000000000E+00 0. -1.
         13    1    1    2    0    0  0.51145237764E+01 -0.11440560989E+02 -0.85119922690E+01  0.15149217854E+02  0.00000000000E+00 0.  1.
<mgrwt>
<rscale>  0 0.25420331E+02</rscale>
<asrwt>0</asrwt>
<pdfrwt beam="1">  1        1 0.87501497E-03 0.25420331E+02</pdfrwt>
<pdfrwt beam="2">  1       -1 0.43697865E-02 0.25420331E+02</pdfrwt>
<totfact> 0.21396991E+06</totfact>
</mgrwt>
</event>
<event>
 4    1  0.2165211E+000  0.3679177E+02  0.7546771E-02  0.1533241E+00
          4   -1    0    0  501    0  0.00000000000E+00  0.00000000000E+00  0.20505881326E+02  0.20505881326E+02  0.00000000000E+00 0.  1.
         -4   -1    0    0    0  501 -0.00000000000E+00 -0.00000000000E+00 -0.16503003502E+02  0.16503003502E+02  0.00000000000E+00 0. -1.
        -13    1    1    2    0    0  0.39881147011E+01 -0.16414312905E+02 -0.53267356520E+01  0.17711827678E+02  0.00000000000E+00 0. -1.
         13    1    1    2    0    0 -0.39881147011E+01  0.16414312905E+02  0.93296134769E+01  0.19297057150E+02  0.00000000000E+00 0.  1.
<mgrwt>
<rscale>  0 0.36791773E+02</rscale>
<asrwt>0</asrwt>
<pdfrwt beam="1">  1        4 0.31547510E-02 0.36791773E+02</pdfrwt>
<pdfrwt beam="2">  1       -4 0.25389236E-02 0.36791773E+02</pdfrwt>
<totfact> 0.31644072E+05</totfact>
</mgrwt>
</event>
<event>
 4    1  0.2165211E+000  0.2821129E+02  0.7546771E-02  0.1618746E+00
          2   -1    0    0  501    0  0.00000000000E+00  0.00000000000E+00  0.22202956909E+02  0.22202956909E+02  0.00000000000E+00 0. -1.
         -2   -1    0    0    0  501 -0.00000000000E+00 -0.00000000000E+00 -0.89613856282E+01  0.89613856282E+01  0.00000000000E+00 0.  1.
        -11    1    1    2    0    0 -0.29237281922E+01  0.13796034445E+02  0.69531187882E+01  0.15723377940E+02  0.00000000000E+00 0. -1.
         11    1    1    2    0    0  0.29237281922E+01 -0.13796034445E+02  0.62884524924E+01  0.15440964597E+02  0.00000000000E+00 0.  1.
<mgrwt>
<rscale>  0 0.28211293E+02</rscale>
<asrwt>0</asrwt>
<pdfrwt beam="1">  1        2 0.34158395E-02 0.28211293E+02</pdfrwt>
<pdfrwt beam="2">  1       -2 0.13786747E-02 0.28211293E+02</pdfrwt>
<totfact> 0.18920041E+06</totfact>
</mgrwt>
</event>
<event>
 4    1  0.2165211E+000  0.4821727E+02  0.7546771E-02  0.1455201E+00
          2   -1    0    0  501    0  0.00000000000E+00  0.00000000000E+00  0.85755675865E+01  0.85755675865E+01  0.00000000000E+00 0. -1.
         -2   -1    0    0    0  501 -0.00000000000E+00 -0.00000000000E+00 -0.67776992635E+02  0.67776992635E+02  0.00000000000E+00 0.  1.
        -11    1    1    2    0    0 -0.18797169328E+02  0.32397412711E+01 -0.62528310040E+01  0.20073051433E+02  0.00000000000E+00 0. -1.
         11    1    1    2    0    0  0.18797169328E+02 -0.32397412711E+01 -0.52948594044E+02  0.56279508789E+02  0.00000000000E+00 0.  1.
<mgrwt>
<rscale>  0 0.48217266E+02</rscale>
<asrwt>0</asrwt>
<pdfrwt beam="1">  1        2 0.13193182E-02 0.48217266E+02</pdfrwt>
<pdfrwt beam="2">  1       -2 0.10427229E-01 0.48217266E+02</pdfrwt>
<totfact> 0.42052443E+05</totfact>
</mgrwt>
</event>
<event>
 4    1  0.2165211E+000  0.4781360E+02  0.7546771E-02  0.1457504E+00
          2   -1    0    0  501    0  0.00000000000E+00  0.00000000000E+00  0.37694107222E+01  0.37694107222E+01  0.00000000000E+00 0. -1.
         -2   -1    0    0    0  501 -0.00000000000E+00 -0.00000000000E+00 -0.15162450440E+03  0.15162450440E+03  0.00000000000E+00 0.  1.
        -11    1    1    2    0    0  0.23680049524E+02  0.12755677275E+01 -0.83765539710E+02  0.87057667447E+02  0.00000000000E+00 0.  1.
         11    1    1    2    0    0 -0.23680049524E+02 -0.12755677275E+01 -0.64089553964E+02  0.68336247671E+02  0.00000000000E+00 0. -1.
<mgrwt>
<rscale>  0 0.47813598E+02</rscale>
<asrwt>0</asrwt>
<pdfrwt beam="1">  1        2 0.57990941E-03 0.47813598E+02</pdfrwt>
<pdfrwt beam="2">  1       -2 0.23326844E-01 0.47813598E+02</pdfrwt>
<totfact> 0.34873279E+05</totfact>
</mgrwt>
</event>
<event>
 4    1  0.2165211E+000  0.2537391E+02  0.7546771E-02  0.1655689E+00
          2   -1    0    0  501    0  0.00000000000E+00  0.00000000000E+00  0.66330331359E+02  0.66330331359E+02  0.00000000000E+00 0. -1.
         -2   -1    0    0    0  501 -0.00000000000E+00 -0.00000000000E+00 -0.24266253433E+01  0.24266253433E+01  0.00000000000E+00 0.  1.
        -13    1    1    2    0    0 -0.10233756211E+02 -0.74605118483E+01  0.33997417815E+02  0.36279655750E+02  0.00000000000E+00 0. -1.
         13    1    1    2    0    0  0.10233756211E+02  0.74605118483E+01  0.29906288201E+02  0.32477300953E+02  0.00000000000E+00 0.  1.
<mgrwt>
<rscale>  0 0.25373913E+02</rscale>
<asrwt>0</asrwt>
<pdfrwt beam="1">  1        2 0.10204665E-01 0.25373913E+02</pdfrwt>
<pdfrwt beam="2">  1       -2 0.37332703E-03 0.25373913E+02</pdfrwt>
<totfact> 0.28304368E+06</totfact>
</mgrwt>
</event>
<event>
 4    1  0.2165211E+000  0.2518869E+02  0.7546771E-02  0.1658306E+00
          2   -1    0    0  501    0  0.00000000000E+00  0.00000000000E+00  0.98297079531E+01  0.98297079531E+01  0.00000000000E+00 0. -1.
         -2   -1    0    0    0  501 -0.00000000000E+00 -0.00000000000E+00 -0.16136538792E+02  0.16136538792E+02  0.00000000000E+00 0.  1.
        -11    1    1    2    0    0  0.10562594213E+02  0.15731867745E+01  0.37290687517E+01  0.11311466169E+02  0.00000000000E+00 0. -1.
         11    1    1    2    0    0 -0.10562594213E+02 -0.15731867745E+01 -0.10035899590E+02  0.14654780576E+02  0.00000000000E+00 0.  1.
<mgrwt>
<rscale>  0 0.25188685E+02</rscale>
<asrwt>0</asrwt>
<pdfrwt beam="1">  1        2 0.15122628E-02 0.25188685E+02</pdfrwt>
<pdfrwt beam="2">  1       -2 0.24825444E-02 0.25188685E+02</pdfrwt>
<totfact> 0.22963321E+06</totfact>
</mgrwt>
</event>
<event>
 4    1  0.2165211E+000  0.2226433E+02  0.7546771E-02  0.1703720E+00
         -1   -1    0    0    0  501 -0.00000000000E+00  0.00000000000E+00  0.69165479567E+02  0.69165479567E+02  0.00000000000E+00 0. -1.
          1   -1    0    0  501    0  0.00000000000E+00 -0.00000000000E+00 -0.17917186727E+01  0.17917186727E+01  0.00000000000E+00 0.  1.
        -11    1    1    2    0    0 -0.61024544210E+01 -0.91128277825E+01  0.27605151233E+02  0.29704005702E+02  0.00000000000E+00 0.  1.
         11    1    1    2    0    0  0.61024544210E+01  0.91128277825E+01  0.39768609662E+02  0.41253192538E+02  0.00000000000E+00 0. -1.
<mgrwt>
<rscale>  0 0.22264329E+02</rscale>
<asrwt>0</asrwt>
<pdfrwt beam="2">  1        1 0.27564908E-03 0.22264329E+02</pdfrwt>
<pdfrwt beam="1">  1       -1 0.10640841E-01 0.22264329E+02</pdfrwt>
<totfact> 0.26533365E+06</totfact>
</mgrwt>
</event>
<event>
 4    1  0.2165211E+000  0.2686073E+02  0.7546771E-02  0.1635630E+00
          3   -1    0    0  501    0  0.00000000000E+00  0.00000000000E+00  0.97709545466E+01  0.97709545466E+01  0.00000000000E+00 0.  1.
         -3   -1    0    0    0  501 -0.00000000000E+00 -0.00000000000E+00 -0.18460290400E+02  0.18460290400E+02  0.00000000000E+00 0. -1.
        -13    1    1    2    0    0 -0.45985667900E+01 -0.92443501577E+01 -0.13371838963E+02  0.16894108548E+02  0.00000000000E+00 0. -1.
         13    1    1    2    0    0  0.45985667900E+01  0.92443501577E+01  0.46825031097E+01  0.11337136399E+02  0.00000000000E+00 0.  1.
<mgrwt>
<rscale>  0 0.26860727E+02</rscale>
<asrwt>0</asrwt>
<pdfrwt beam="1">  1        3 0.15032238E-02 0.26860727E+02</pdfrwt>
<pdfrwt beam="2">  1       -3 0.28400446E-02 0.26860727E+02</pdfrwt>
<totfact> 0.90165950E+05</totfact>
</mgrwt>
</event>
<event>
 4    1  0.2165211E+000  0.3125072E+02  0.7546771E-02  0.1584661E+00
         -2   -1    0    0    0  501 -0.00000000000E+00  0.00000000000E+00  0.27327160369E+02  0.27327160369E+02  0.00000000000E+00 0. -1.
          2   -1    0    0  501    0  0.00000000000E+00 -0.00000000000E+00 -0.89344052185E+01  0.89344052185E+01  0.00000000000E+00 0.  1.
        -11    1    1    2    0    0  0.14945634629E+02 -0.29384326587E+01  0.13240226774E+02  0.20181922257E+02  0.00000000000E+00 0. -1.
         11    1    1    2    0    0 -0.14945634629E+02  0.29384326587E+01  0.51525283762E+01  0.16079643330E+02  0.00000000000E+00 0.  1.
<mgrwt>
<rscale>  0 0.31250723E+02</rscale>
<asrwt>0</asrwt>
<pdfrwt beam="2">  1        2 0.13745239E-02 0.31250723E+02</pdfrwt>
<pdfrwt beam="1">  1       -2 0.42041785E-02 0.31250723E+02</pdfrwt>
<totfact> 0.13390569E+06</totfact>
</mgrwt>
</event>
<event>
 4    1  0.2165211E+000  0.5913725E+02  0.7546771E-02  0.1401488E+00
          4   -1    0    0  501    0  0.00000000000E+00  0.00000000000E+00  0.93970416214E+01  0.93970416214E+01  0.00000000000E+00 0. -1.
         -4   -1    0    0    0  501 -0.00000000000E+00 -0.00000000000E+00 -0.93040296449E+02  0.93040296449E+02  0.00000000000E+00 0.  1.
        -13    1    1    2    0    0 -0.75360814452E+01 -0.21874154300E+02 -0.73716271873E+02  0.77261632709E+02  0.00000000000E+00 0.  1.
         13    1    1    2    0    0  0.75360814452E+01  0.21874154300E+02 -0.99269829546E+01  0.25175705362E+02  0.00000000000E+00 0. -1.
<mgrwt>
<rscale>  0 0.59137248E+02</rscale>
<asrwt>0</asrwt>
<pdfrwt beam="1">  1        4 0.14456988E-02 0.59137248E+02</pdfrwt>
<pdfrwt beam="2">  1       -4 0.14313890E-01 0.59137248E+02</pdfrwt>
<totfact> 0.81825269E+04</totfact>
</mgrwt>
</event>
<event>
 4    1  0.2165211E+000  0.2695177E+02  0.7546771E-02  0.1634453E+00
         -4   -1    0    0    0  501 -0.00000000000E+00  0.00000000000E+00  0.15925177962E+02  0.15925177962E+02  0.00000000000E+00 0. -1.
          4   -1    0    0  501    0  0.00000000000E+00 -0.00000000000E+00 -0.11403293568E+02  0.11403293568E+02  0.00000000000E+00 0.  1.
        -11    1    1    2    0    0  0.49203973246E+01 -0.11144770622E+02  0.81019468862E+01  0.14630713086E+02  0.00000000000E+00 0. -1.
         11    1    1    2    0    0 -0.49203973246E+01  0.11144770622E+02 -0.35800624919E+01  0.12697758444E+02  0.00000000000E+00 0.  1.
<mgrwt>
<rscale>  0 0.26951770E+02</rscale>
<asrwt>0</asrwt>
<pdfrwt beam="2">  1        4 0.17543529E-02 0.26951770E+02</pdfrwt>
<pdfrwt beam="1">  1       -4 0.24500274E-02 0.26951770E+02</pdfrwt>
<totfact> 0.66801748E+05</totfact>
</mgrwt>
</event>
<event>
 4    1  0.2165211E+000  0.7494367E+02  0.7546771E-02  0.1344046E+00
          4   -1    0    0  501    0  0.00000000000E+00  0.00000000000E+00  0.11385804432E+03  0.11385804432E+03  0.00000000000E+00 0. -1.
         -4   -1    0    0    0  501 -0.00000000000E+00 -0.00000000000E+00 -0.12332361522E+02  0.12332361522E+02  0.00000000000E+00 0.  1.
        -13    1    1    2    0    0 -0.92019938786E+01 -0.29455368565E+02  0.14970904393E+02  0.34299029243E+02  0.00000000000E+00 0. -1.
         13    1    1    2    0    0  0.92019938786E+01  0.29455368565E+02  0.86554778406E+02  0.91891376601E+02  0.00000000000E+00 0.  1.
<mgrwt>
<rscale>  0 0.74943674E+02</rscale>
<asrwt>0</asrwt>
<pdfrwt beam="1">  1        4 0.17516621E-01 0.74943674E+02</pdfrwt>
<pdfrwt beam="2">  1       -4 0.18972865E-02 0.74943674E+02</pdfrwt>
<totfact> 0.41990440E+04</totfact>
</mgrwt>
</event>
<event>
 4    1  0.2165211E+000  0.2360209E+02  0.7546771E-02  0.1681932E+00
          4   -1    0    0  501    0  0.00000000000E+00  0.00000000000E+00  0.18687276386E+01  0.18687276386E+01  0.00000000000E+00 0.  1.
         -4   -1    0    0    0  501 -0.00000000000E+00 -0.00000000000E+00 -0.74523773075E+02  0.74523773075E+02  0.00000000000E+00 0. -1.
        -11    1    1    2    0    0 -0.67596434641E+01  0.79032799905E+01 -0.18274478107E+02  0.21026439653E+02  0.00000000000E+00 0.  1.
         11    1    1    2    0    0  0.67596434641E+01 -0.79032799905E+01 -0.54380567329E+02  0.55366061061E+02  0.00000000000E+00 0. -1.
<mgrwt>
<rscale>  0 0.23602088E+02</rscale>
<asrwt>0</asrwt>
<pdfrwt beam="1">  1        4 0.28749663E-03 0.23602088E+02</pdfrwt>
<pdfrwt beam="2">  1       -4 0.11465193E-01 0.23602088E+02</pdfrwt>
<totfact> 0.74892344E+05</totfact>
</mgrwt>
</event>
<event>
 4    1  0.2165211E+000  0.5226803E+02  0.7546771E-02  0.1433479E+00
          1   -1    0    0  501    0  0.00000000000E+00  0.00000000000E+00  0.41323950088E+01  0.41323950088E+01  0.00000000000E+00 0. -1.
         -1   -1    0    0    0  501 -0.00000000000E+00 -0.00000000000E+00 -0.16527627508E+03  0.16527627508E+03  0.00000000000E+00 0.  1.
        -11    1    1    2    0    0  0.55050482025E+01  0.22755009394E+02 -0.42928378662E+02  0.48897256597E+02  0.00000000000E+00 0. -1.
         11    1    1    2    0    0 -0.55050482025E+01 -0.22755009394E+02 -0.11821550141E+03  0.12051141349E+03  0.00000000000E+00 0.  1.
<mgrwt>
<rscale>  0 0.52268034E+02</rscale>
<asrwt>0</asrwt>
<pdfrwt beam="1">  1        1 0.63575309E-03 0.52268034E+02</pdfrwt>
<pdfrwt beam="2">  1       -1 0.25427119E-01 0.52268034E+02</pdfrwt>
<totfact> 0.30160640E+05</totfact>
</mgrwt>
</event>
<event>
 4    1  0.2165211E+000  0.5017868E+02  0.7546771E-02  0.1444380E+00
         -2   -1    0    0    0  501 -0.00000000000E+00  0.00000000000E+00  0.12940718458E+02  0.12940718458E+02  0.00000000000E+00 0. -1.
          2   -1    0    0  501    0  0.00000000000E+00 -0.00000000000E+00 -0.48642976426E+02  0.48642976426E+02  0.00000000000E+00 0.  1.
        -11    1    1    2    0    0 -0.68496820973E+01 -0.17101057040E+02 -0.38755081223E+02  0.42910611943E+02  0.00000000000E+00 0.  1.
         11    1    1    2    0    0  0.68496820973E+01  0.17101057040E+02  0.30528232548E+01  0.18673082941E+02  0.00000000000E+00 0. -1.
<mgrwt>
<rscale>  0 0.50178683E+02</rscale>
<asrwt>0</asrwt>
<pdfrwt beam="2">  1        2 0.74835349E-02 0.50178683E+02</pdfrwt>
<pdfrwt beam="1">  1       -2 0.19908798E-02 0.50178683E+02</pdfrwt>
<totfact> 0.50566617E+05</totfact>
</mgrwt>
</event>
<event>
 4    1  0.2165211E+000  0.2937616E+02  0.7546771E-02  0.1605089E+00
         -2   -1    0    0    0  501 -0.00000000000E+00  0.00000000000E+00  0.53262489039E+02  0.53262489039E+02  0.00000000000E+00 0. -1.
          2   -1    0    0  501    0  0.00000000000E+00 -0.00000000000E+00 -0.40504986754E+01  0.40504986754E+01  0.00000000000E+00 0.  1.
        -13    1    1    2    0    0  0.32132677285E+01  0.11347920859E+02  0.75261597091E+01  0.13990835475E+02  0.00000000000E+00 0.  1.
         13    1    1    2    0    0 -0.32132677285E+01 -0.11347920859E+02  0.41685830654E+02  0.43322152239E+02  0.00000000000E+00 0. -1.
<mgrwt>
<rscale>  0 0.29376156E+02</rscale>
<asrwt>0</asrwt>
<pdfrwt beam="2">  1        2 0.62315368E-03 0.29376156E+02</pdfrwt>
<pdfrwt beam="1">  1       -2 0.81942286E-02 0.29376156E+02</pdfrwt>
<totfact> 0.14152695E+06</totfact>
</mgrwt>
</event>
<event>
 4    1  0.2165211E+000  0.3825644E+02  0.7546771E-02  0.1521449E+00
         -3   -1    0    0    0  501 -0.00000000000E+00  0.00000000000E+00  0.10789323536E+02  0.10789323536E+02  0.00000000000E+00 0.  1.
          3   -1    0    0  501    0  0.00000000000E+00 -0.00000000000E+00 -0.33912124078E+02  0.33912124078E+02  0.00000000000E+00 0. -1.
        -11    1    1    2    0    0 -0.18487276415E+02 -0.47397425252E+01 -0.10063056463E+02  0.21575672732E+02  0.00000000000E+00 0. -1.
         11    1    1    2    0    0  0.18487276415E+02  0.47397425252E+01 -0.13059744080E+02  0.23125774882E+02  0.00000000000E+00 0.  1.
<mgrwt>
<rscale>  0 0.38256444E+02</rscale>
<asrwt>0</asrwt>
<pdfrwt beam="2">  1        3 0.52172498E-02 0.38256444E+02</pdfrwt>
<pdfrwt beam="1">  1       -3 0.16598959E-02 0.38256444E+02</pdfrwt>
<totfact> 0.37225225E+05</totfact>
</mgrwt>
</event>
<event>
 4    1  0.2165211E+000  0.1068688E+03  0.7546771E-02  0.1266481E+00
         -2   -1    0    0    0  501 -0.00000000000E+00  0.00000000000E+00  0.32544436385E+02  0.32544436385E+02  0.00000000000E+00 0.  1.
          2   -1    0    0  501    0  0.00000000000E+00 -0.00000000000E+00 -0.87733427938E+02  0.87733427938E+02  0.00000000000E+00 0. -1.
        -11    1    1    2    0    0  0.13023891687E+02 -0.26476330567E+02  0.22544213943E+02  0.37132996341E+02  0.00000000000E+00 0.  1.
         11    1    1    2    0    0 -0.13023891687E+02  0.26476330567E+02 -0.77733205496E+02  0.83144867982E+02  0.00000000000E+00 0. -1.
<mgrwt>
<rscale>  0 0.10686880E+03</rscale>
<asrwt>0</asrwt>
<pdfrwt beam="2">  1        2 0.13497450E-01 0.10686880E+03</pdfrwt>
<pdfrwt beam="1">  1       -2 0.50068365E-02 0.10686880E+03</pdfrwt>
<totfact> 0.75567039E+04</totfact>
</mgrwt>
</event>
<event>
 4    1  0.2165211E+000  0.2533333E+02  0.7546771E-02  0.1656260E+00
          4   -1    0    0  501    0  0.00000000000E+00  0.00000000000E+00  0.68829919289E+02  0.68829919289E+02  0.00000000000E+00 0. -1.
         -4   -1    0    0    0  501 -0.00000000000E+00 -0.00000000000E+00 -0.23310269225E+01  0.23310269225E+01  0.00000000000E+00 0.  1.
        -11    1    1    2    0    0  0.86886851550E+01 -0.90472785821E+01  0.28305396533E+02  0.30960329010E+02  0.00000000000E+00 0. -1.
         11    1    1    2    0    0 -0.86886851550E+01  0.90472785821E+01  0.38193495833E+02  0.40200617202E+02  0.00000000000E+00 0.  1.
<mgrwt>
<rscale>  0 0.25333329E+02</rscale>
<asrwt>0</asrwt>
<pdfrwt beam="1">  1        4 0.10589217E-01 0.25333329E+02</pdfrwt>
<pdfrwt beam="2">  1       -4 0.35861958E-03 0.25333329E+02</pdfrwt>
<totfact> 0.65487472E+05</totfact>
</mgrwt>
</event>
<event>
 4    1  0.2165211E+000  0.2546939E+02  0.7546771E-02  0.1654350E+00
         -2   -1    0    0    0  501 -0.00000000000E+00  0.00000000000E+00  0.10384337763E+02  0.10384337763E+02  0.00000000000E+00 0. -1.
          2   -1    0    0  501    0  0.00000000000E+00 -0.00000000000E+00 -0.15617024671E+02  0.15617024671E+02  0.00000000000E+00 0.  1.
        -11    1    1    2    0    0 -0.11870671326E+02 -0.27422730043E+01  0.11677684589E+01  0.12239141397E+02  0.00000000000E+00 0. -1.
         11    1    1    2    0    0  0.11870671326E+02  0.27422730043E+01 -0.64004553669E+01  0.13762221037E+02  0.00000000000E+00 0.  1.
<mgrwt>
<rscale>  0 0.25469390E+02</rscale>
<asrwt>0</asrwt>
<pdfrwt beam="2">  1        2 0.24026192E-02 0.25469390E+02</pdfrwt>
<pdfrwt beam="1">  1       -2 0.15975904E-02 0.25469390E+02</pdfrwt>
<totfact> 0.23310153E+06</totfact>
</mgrwt>
</event>
<event>
 4    1  0.2165211E+000  0.4260704E+02  0.7546771E-02  0.1489858E+00
         -4   -1    0    0    0  501 -0.00000000000E+00  0.00000000000E+00  0.40616823130E+02  0.40616823130E+02  0.00000000000E+00 0.  1.
          4   -1    0    0  501    0  0.00000000000E+00 -0.00000000000E+00 -0.11173691927E+02  0.11173691927E+02  0.00000000000E+00 0. -1.
        -13    1    1    2    0    0 -0.18653490626E+02 -0.99753434468E+01  0.11651353806E+02  0.24149828880E+02  0.00000000000E+00 0. -1.
         13    1    1    2    0    0  0.18653490626E+02  0.99753434468E+01  0.17791777397E+02  0.27640686177E+02  0.00000000000E+00 0.  1.
<mgrwt>
<rscale>  0 0.42607036E+02</rscale>
<asrwt>0</asrwt>
<pdfrwt beam="2">  1        4 0.17190295E-02 0.42607036E+02</pdfrwt>
<pdfrwt beam="1">  1       -4 0.62487420E-02 0.42607036E+02</pdfrwt>
<totfact> 0.21224940E+05</totfact>
</mgrwt>
</event>
<event>
 4    1  0.2165211E+000  0.2915067E+02  0.7546771E-02  0.1607671E+00
          4   -1    0    0  501    0  0.00000000000E+00  0.00000000000E+00  0.87029142818E+02  0.87029142818E+02  0.00000000000E+00 0.  1.
         -4   -1    0    0    0  501 -0.00000000000E+00 -0.00000000000E+00 -0.24410261745E+01  0.24410261745E+01  0.00000000000E+00 0. -1.
        -11    1    1    2    0    0  0.90369807648E+01 -0.10167014490E+02  0.58361482626E+02  0.59925769576E+02  0.00000000000E+00 0. -1.
         11    1    1    2    0    0 -0.90369807648E+01  0.10167014490E+02  0.26226634018E+02  0.29544399417E+02  0.00000000000E+00 0.  1.
<mgrwt>
<rscale>  0 0.29150672E+02</rscale>
<asrwt>0</asrwt>
<pdfrwt beam="1">  1        4 0.13389096E-01 0.29150672E+02</pdfrwt>
<pdfrwt beam="2">  1       -4 0.37554256E-03 0.29150672E+02</pdfrwt>
<totfact> 0.45631772E+05</totfact>
</mgrwt>
</event>
<event>
 4    1  0.2165211E+000  0.3504624E+02  0.7546771E-02  0.1548190E+00
         -2   -1    0    0    0  501 -0.00000000000E+00  0.00000000000E+00  0.81094950496E+02  0.81094950496E+02  0.00000000000E+00 0. -1.
          2   -1    0    0  501    0  0.00000000000E+00 -0.00000000000E+00 -0.37864231122E+01  0.37864231122E+01  0.00000000000E+00 0.  1.
        -11    1    1    2    0    0  0.91905081148E+01  0.85087576510E+01  0.89718482263E+01  0.15406442054E+02  0.00000000000E+00 0.  1.
         11    1    1    2    0    0 -0.91905081148E+01 -0.85087576510E+01  0.68336679157E+02  0.69474931554E+02  0.00000000000E+00 0. -1.
<mgrwt>
<rscale>  0 0.35046243E+02</rscale>
<asrwt>0</asrwt>
<pdfrwt beam="2">  1        2 0.58252669E-03 0.35046243E+02</pdfrwt>
<pdfrwt beam="1">  1       -2 0.12476145E-01 0.35046243E+02</pdfrwt>
<totfact> 0.86931908E+05</totfact>
</mgrwt>
</event>
<event>
 4    1  0.2165211E+000  0.3454590E+02  0.7546771E-02  0.1552670E+00
         -2   -1    0    0    0  501 -0.00000000000E+00  0.00000000000E+00  0.70408626494E+01  0.70408626494E+01  0.00000000000E+00 0.  1.
          2   -1    0    0  501    0  0.00000000000E+00 -0.00000000000E+00 -0.42374761069E+02  0.42374761069E+02  0.00000000000E+00 0. -1.
        -11    1    1    2    0    0 -0.10337924245E+02  0.73764835684E+01 -0.91989502066E+00  0.12733082674E+02  0.00000000000E+00 0.  1.
         11    1    1    2    0    0  0.10337924245E+02 -0.73764835684E+01 -0.34414003399E+02  0.36682541045E+02  0.00000000000E+00 0. -1.
<mgrwt>
<rscale>  0 0.34545904E+02</rscale>
<asrwt>0</asrwt>
<pdfrwt beam="2">  1        2 0.65191941E-02 0.34545904E+02</pdfrwt>
<pdfrwt beam="1">  1       -2 0.10832096E-02 0.34545904E+02</pdfrwt>
<totfact> 0.12601317E+06</totfact>
</mgrwt>
</event>
<event>
 4    1  0.2165211E+000  0.3505975E+02  0.7546771E-02  0.1548071E+00
         -2   -1    0    0    0  501 -0.00000000000E+00  0.00000000000E+00  0.12049285723E+03  0.12049285723E+03  0.00000000000E+00 0.  1.
          2   -1    0    0  501    0  0.00000000000E+00 -0.00000000000E+00 -0.25503302924E+01  0.25503302924E+01  0.00000000000E+00 0. -1.
        -11    1    1    2    0    0 -0.13880417609E+02 -0.59164247555E+01  0.27654451182E+02  0.31502995811E+02  0.00000000000E+00 0. -1.
         11    1    1    2    0    0  0.13880417609E+02  0.59164247555E+01  0.90288075760E+02  0.91540191716E+02  0.00000000000E+00 0.  1.
<mgrwt>
<rscale>  0 0.35059754E+02</rscale>
<asrwt>0</asrwt>
<pdfrwt beam="2">  1        2 0.39235860E-03 0.35059754E+02</pdfrwt>
<pdfrwt beam="1">  1       -2 0.18537358E-01 0.35059754E+02</pdfrwt>
<totfact> 0.78899793E+05</totfact>
</mgrwt>
</event>
<event>
 4    1  0.2165211E+000  0.2805808E+02  0.7546771E-02  0.1620602E+00
         -2   -1    0    0    0  501 -0.00000000000E+00  0.00000000000E+00  0.39325470309E+02  0.39325470309E+02  0.00000000000E+00 0.  1.
          2   -1    0    0  501    0  0.00000000000E+00 -0.00000000000E+00 -0.50047440328E+01  0.50047440328E+01  0.00000000000E+00 0. -1.
        -13    1    1    2    0    0  0.11547213079E+02 -0.64011767237E+01  0.24654819598E+02  0.27967361741E+02  0.00000000000E+00 0. -1.
         13    1    1    2    0    0 -0.11547213079E+02  0.64011767237E+01  0.96659066781E+01  0.16362852601E+02  0.00000000000E+00 0.  1.
<mgrwt>
<rscale>  0 0.28058076E+02</rscale>
<asrwt>0</asrwt>
<pdfrwt beam="2">  1        2 0.76996065E-03 0.28058076E+02</pdfrwt>
<pdfrwt beam="1">  1       -2 0.60500721E-02 0.28058076E+02</pdfrwt>
<totfact> 0.16408701E+06</totfact>
</mgrwt>
</event>
<event>
 4    1  0.2165211E+000  0.3077412E+02  0.7546771E-02  0.1589686E+00
         -3   -1    0    0    0  501 -0.00000000000E+00  0.00000000000E+00  0.73563003227E+02  0.73563003227E+02  0.00000000000E+00 0. -1.
          3   -1    0    0  501    0  0.00000000000E+00 -0.00000000000E+00 -0.32184877167E+01  0.32184877167E+01  0.00000000000E+00 0.  1.
        -11    1    1    2    0    0 -0.76323946040E+01  0.11213819732E+02  0.17049812767E+02  0.21787595457E+02  0.00000000000E+00 0. -1.
         11    1    1    2    0    0  0.76323946040E+01 -0.11213819732E+02  0.53294702743E+02  0.54993895487E+02  0.00000000000E+00 0.  1.
<mgrwt>
<rscale>  0 0.30774120E+02</rscale>
<asrwt>0</asrwt>
<pdfrwt beam="2">  1        3 0.49515201E-03 0.30774120E+02</pdfrwt>
<pdfrwt beam="1">  1       -3 0.11317384E-01 0.30774120E+02</pdfrwt>
<totfact> 0.57245533E+05</totfact>
</mgrwt>
</event>
<event>
 4    1  0.2165211E+000  0.2885137E+02  0.7546771E-02  0.1611144E+00
         -2   -1    0    0    0  501 -0.00000000000E+00  0.00000000000E+00  0.47829240376E+01  0.47829240376E+01  0.00000000000E+00 0. -1.
          2   -1    0    0  501    0  0.00000000000E+00 -0.00000000000E+00 -0.43509041987E+02  0.43509041987E+02  0.00000000000E+00 0.  1.
        -13    1    1    2    0    0  0.12056155163E+01  0.13039812769E+02 -0.29490728929E+02  0.32267527308E+02  0.00000000000E+00 0.  1.
         13    1    1    2    0    0 -0.12056155163E+01 -0.13039812769E+02 -0.92353890205E+01  0.16024438717E+02  0.00000000000E+00 0. -1.
<mgrwt>
<rscale>  0 0.28851374E+02</rscale>
<asrwt>0</asrwt>
<pdfrwt beam="2">  1        2 0.66936987E-02 0.28851374E+02</pdfrwt>
<pdfrwt beam="1">  1       -2 0.73583448E-03 0.28851374E+02</pdfrwt>
<totfact> 0.19521521E+06</totfact>
</mgrwt>
</event>
<event>
 4    1  0.2165211E+000  0.2974635E+02  0.7546771E-02  0.1600909E+00
          1   -1    0    0  501    0  0.00000000000E+00  0.00000000000E+00  0.62366873522E+02  0.62366873522E+02  0.00000000000E+00 0.  1.
         -1   -1    0    0    0  501 -0.00000000000E+00 -0.00000000000E+00 -0.35469371333E+01  0.35469371333E+01  0.00000000000E+00 0. -1.
        -11    1    1    2    0    0 -0.10464295230E+02  0.31381979089E+01  0.51773890728E+02  0.52913944493E+02  0.00000000000E+00 0.  1.
         11    1    1    2    0    0  0.10464295230E+02 -0.31381979089E+01  0.70460456612E+01  0.12999866162E+02  0.00000000000E+00 0. -1.
<mgrwt>
<rscale>  0 0.29746353E+02</rscale>
<asrwt>0</asrwt>
<pdfrwt beam="1">  1        1 0.95949029E-02 0.29746353E+02</pdfrwt>
<pdfrwt beam="2">  1       -1 0.54568268E-03 0.29746353E+02</pdfrwt>
<totfact> 0.17067606E+06</totfact>
</mgrwt>
</event>
<event>
 4    1  0.2165211E+000  0.6248678E+02  0.7546771E-02  0.1387683E+00
         -2   -1    0    0    0  501 -0.00000000000E+00  0.00000000000E+00  0.51657763298E+01  0.51657763298E+01  0.00000000000E+00 0. -1.
          2   -1    0    0  501    0  0.00000000000E+00 -0.00000000000E+00 -0.18896473081E+03  0.18896473081E+03  0.00000000000E+00 0.  1.
        -11    1    1    2    0    0  0.19981778709E+02 -0.19728906737E+02 -0.13445715540E+03  0.13735802809E+03  0.00000000000E+00 0.  1.
         11    1    1    2    0    0 -0.19981778709E+02  0.19728906737E+02 -0.49341799079E+02  0.56772479053E+02  0.00000000000E+00 0. -1.
<mgrwt>
<rscale>  0 0.62486784E+02</rscale>
<asrwt>0</asrwt>
<pdfrwt beam="2">  1        2 0.29071492E-01 0.62486784E+02</pdfrwt>
<pdfrwt beam="1">  1       -2 0.79473496E-03 0.62486784E+02</pdfrwt>
<totfact> 0.41012607E+05</totfact>
</mgrwt>
</event>
<event>
 4    1  0.2165211E+000  0.2246489E+02  0.7546771E-02  0.1700334E+00
         -4   -1    0    0    0  501 -0.00000000000E+00  0.00000000000E+00  0.32039076159E+01  0.32039076159E+01  0.00000000000E+00 0.  1.
          4   -1    0    0  501    0  0.00000000000E+00 -0.00000000000E+00 -0.39379351925E+02  0.39379351925E+02  0.00000000000E+00 0. -1.
        -11    1    1    2    0    0  0.83166669277E+01  0.68530256438E+01 -0.24093017197E+02  0.26393264044E+02  0.00000000000E+00 0. -1.
         11    1    1    2    0    0 -0.83166669277E+01 -0.68530256438E+01 -0.12082427113E+02  0.16189995497E+02  0.00000000000E+00 0.  1.
<mgrwt>
<rscale>  0 0.22464889E+02</rscale>
<asrwt>0</asrwt>
<pdfrwt beam="2">  1        4 0.60583620E-02 0.22464889E+02</pdfrwt>
<pdfrwt beam="1">  1       -4 0.49290885E-03 0.22464889E+02</pdfrwt>
<totfact> 0.93186815E+05</totfact>
</mgrwt>
</event>
<event>
 4    1  0.2165211E+000  0.2098035E+02  0.7546771E-02  0.1726507E+00
          2   -1    0    0  501    0  0.00000000000E+00  0.00000000000E+00  0.17500307872E+02  0.17500307872E+02  0.00000000000E+00 0. -1.
         -2   -1    0    0    0  501 -0.00000000000E+00 -0.00000000000E+00 -0.62881043748E+01  0.62881043748E+01  0.00000000000E+00 0.  1.
        -11    1    1    2    0    0 -0.55461997445E+01 -0.88756457102E+01  0.47992836574E+01  0.11513928174E+02  0.00000000000E+00 0. -1.
         11    1    1    2    0    0  0.55461997445E+01  0.88756457102E+01  0.64129198402E+01  0.12274484073E+02  0.00000000000E+00 0.  1.
<mgrwt>
<rscale>  0 0.20980349E+02</rscale>
<asrwt>0</asrwt>
<pdfrwt beam="1">  1        2 0.26923550E-02 0.20980349E+02</pdfrwt>
<pdfrwt beam="2">  1       -2 0.96740068E-03 0.20980349E+02</pdfrwt>
<totfact> 0.36957545E+06</totfact>
</mgrwt>
</event>
<event>
 4    1  0.2165211E+000  0.2195695E+02  0.7546771E-02  0.1708998E+00
         -1   -1    0    0    0  501 -0.00000000000E+00  0.00000000000E+00  0.49780245831E+02  0.49780245831E+02  0.00000000000E+00 0. -1.
          1   -1    0    0  501    0  0.00000000000E+00 -0.00000000000E+00 -0.24211790526E+01  0.24211790526E+01  0.00000000000E+00 0.  1.
        -13    1    1    2    0    0  0.37074491244E+01  0.99928839162E+01  0.29935411906E+02  0.31776277220E+02  0.00000000000E+00 0. -1.
         13    1    1    2    0    0 -0.37074491244E+01 -0.99928839162E+01  0.17423654872E+02  0.20425147664E+02  0.00000000000E+00 0.  1.
<mgrwt>
<rscale>  0 0.21956948E+02</rscale>
<asrwt>0</asrwt>
<pdfrwt beam="2">  1        1 0.37248912E-03 0.21956948E+02</pdfrwt>
<pdfrwt beam="1">  1       -1 0.76584986E-02 0.21956948E+02</pdfrwt>
<totfact> 0.28412345E+06</totfact>
</mgrwt>
</event>
<event>
 4    1  0.2165211E+000  0.2923813E+02  0.7546771E-02  0.1606666E+00
         -2   -1    0    0    0  501 -0.00000000000E+00  0.00000000000E+00  0.60136705342E+02  0.60136705342E+02  0.00000000000E+00 0. -1.
          2   -1    0    0  501    0  0.00000000000E+00 -0.00000000000E+00 -0.35538540751E+01  0.35538540751E+01  0.00000000000E+00 0.  1.
        -13    1    1    2    0    0  0.78715746018E+01  0.93692572620E+01  0.10868471136E+02  0.16366683634E+02  0.00000000000E+00 0. -1.
         13    1    1    2    0    0 -0.78715746018E+01 -0.93692572620E+01  0.45714380131E+02  0.47323875783E+02  0.00000000000E+00 0.  1.
<mgrwt>
<rscale>  0 0.29238131E+02</rscale>
<asrwt>0</asrwt>
<pdfrwt beam="2">  1        2 0.54674683E-03 0.29238131E+02</pdfrwt>
<pdfrwt beam="1">  1       -2 0.92518001E-02 0.29238131E+02</pdfrwt>
<totfact> 0.14029943E+06</totfact>
</mgrwt>
</event>
<event>
 4    1  0.2165211E+000  0.3787456E+02  0.7546771E-02  0.1524461E+00
          2   -1    0    0  501    0  0.00000000000E+00  0.00000000000E+00  0.10431546869E+02  0.10431546869E+02  0.00000000000E+00 0. -1.
         -2   -1    0    0    0  501 -0.00000000000E+00 -0.00000000000E+00 -0.34378468274E+02  0.34378468274E+02  0.00000000000E+00 0.  1.
        -11    1    1    2    0    0  0.15847964008E+02 -0.10147385240E+02 -0.94655852498E+01  0.21064773783E+02  0.00000000000E+00 0.  1.
         11    1    1    2    0    0 -0.15847964008E+02  0.10147385240E+02 -0.14481336155E+02  0.23745241360E+02  0.00000000000E+00 0. -1.
<mgrwt>
<rscale>  0 0.37874562E+02</rscale>
<asrwt>0</asrwt>
<pdfrwt beam="1">  1        2 0.16048534E-02 0.37874562E+02</pdfrwt>
<pdfrwt beam="2">  1       -2 0.52889951E-02 0.37874562E+02</pdfrwt>
<totfact> 0.83397739E+05</totfact>
</mgrwt>
</event>
<event>
 4    1  0.2165211E+000  0.4833789E+02  0.7546771E-02  0.1454518E+00
         -2   -1    0    0    0  501 -0.00000000000E+00  0.00000000000E+00  0.22093029604E+02  0.22093029604E+02  0.00000000000E+00 0.  1.
          2   -1    0    0  501    0  0.00000000000E+00 -0.00000000000E+00 -0.26439916566E+02  0.26439916566E+02  0.00000000000E+00 0. -1.
        -13    1    1    2    0    0  0.22846332571E+00  0.13020193971E+02  0.18269470065E+02  0.22435489364E+02  0.00000000000E+00 0.  1.
         13    1    1    2    0    0 -0.22846332571E+00 -0.13020193971E+02 -0.22616357028E+02  0.26097456806E+02  0.00000000000E+00 0. -1.
<mgrwt>
<rscale>  0 0.48337888E+02</rscale>
<asrwt>0</asrwt>
<pdfrwt beam="2">  1        2 0.40676795E-02 0.48337888E+02</pdfrwt>
<pdfrwt beam="1">  1       -2 0.33989276E-02 0.48337888E+02</pdfrwt>
<totfact> 0.50271233E+05</totfact>
</mgrwt>
</event>
<event>
 4    1  0.2165211E+000  0.2580295E+02  0.7546771E-02  0.1649730E+00
          2   -1    0    0  501    0  0.00000000000E+00  0.00000000000E+00  0.34148657811E+01  0.34148657811E+01  0.00000000000E+00 0. -1.
         -2   -1    0    0    0  501 -0.00000000000E+00 -0.00000000000E+00 -0.48742205293E+02  0.48742205293E+02  0.00000000000E+00 0.  1.
        -13    1    1    2    0    0 -0.50843329954E+01 -0.11518294160E+02 -0.16972706240E+02  0.21132777846E+02  0.00000000000E+00 0. -1.
         13    1    1    2    0    0  0.50843329954E+01  0.11518294160E+02 -0.28354633271E+02  0.31024293228E+02  0.00000000000E+00 0.  1.
<mgrwt>
<rscale>  0 0.25802952E+02</rscale>
<asrwt>0</asrwt>
<pdfrwt beam="1">  1        2 0.52536397E-03 0.25802952E+02</pdfrwt>
<pdfrwt beam="2">  1       -2 0.74988008E-02 0.25802952E+02</pdfrwt>
<totfact> 0.19287120E+06</totfact>
</mgrwt>
</event>
<event>
 4    1  0.2165211E+000  0.6198216E+02  0.7546771E-02  0.1389697E+00
          4   -1    0    0  501    0  0.00000000000E+00  0.00000000000E+00  0.64491582037E+02  0.64491582037E+02  0.00000000000E+00 0. -1.
         -4   -1    0    0    0  501 -0.00000000000E+00 -0.00000000000E+00 -0.14892593049E+02  0.14892593049E+02  0.00000000000E+00 0.  1.
        -11    1    1    2    0    0 -0.11590599790E+02  0.21009789936E+01  0.61512629252E+02  0.62630341479E+02  0.00000000000E+00 0. -1.
         11    1    1    2    0    0  0.11590599790E+02 -0.21009789936E+01 -0.11913640263E+02  0.16753833607E+02  0.00000000000E+00 0.  1.
<mgrwt>
<rscale>  0 0.61982155E+02</rscale>
<asrwt>0</asrwt>
<pdfrwt beam="1">  1        4 0.99217817E-02 0.61982155E+02</pdfrwt>
<pdfrwt beam="2">  1       -4 0.22911682E-02 0.61982155E+02</pdfrwt>
<totfact> 0.77064374E+04</totfact>
</mgrwt>
</event>
<event>
 4    1  0.2165211E+000  0.2223305E+02  0.7546771E-02  0.1704252E+00
          2   -1    0    0  501    0  0.00000000000E+00  0.00000000000E+00  0.20431162793E+02  0.20431162793E+02  0.00000000000E+00 0. -1.
         -2   -1    0    0    0  501 -0.00000000000E+00 -0.00000000000E+00 -0.60484617065E+01  0.60484617065E+01  0.00000000000E+00 0.  1.
        -13    1    1    2    0    0  0.15662157473E+01 -0.10925266426E+02  0.87725734243E+01  0.14098670956E+02  0.00000000000E+00 0.  1.
         13    1    1    2    0    0 -0.15662157473E+01  0.10925266426E+02  0.56101276621E+01  0.12380953543E+02  0.00000000000E+00 0. -1.
<mgrwt>
<rscale>  0 0.22233048E+02</rscale>
<asrwt>0</asrwt>
<pdfrwt beam="1">  1        2 0.31432558E-02 0.22233048E+02</pdfrwt>
<pdfrwt beam="2">  1       -2 0.93053258E-03 0.22233048E+02</pdfrwt>
<totfact> 0.32809539E+06</totfact>
</mgrwt>
</event>
<event>
 4    1  0.2165211E+000  0.3402601E+02  0.7546771E-02  0.1557424E+00
          4   -1    0    0  501    0  0.00000000000E+00  0.00000000000E+00  0.98366320648E+02  0.98366320648E+02  0.00000000000E+00 0. -1.
         -4   -1    0    0    0  501 -0.00000000000E+00 -0.00000000000E+00 -0.29424939888E+01  0.29424939888E+01  0.00000000000E+00 0.  1.
        -11    1    1    2    0    0  0.16215884801E+02  0.65781794245E-01  0.63034084701E+02  0.65086519965E+02  0.00000000000E+00 0. -1.
         11    1    1    2    0    0 -0.16215884801E+02 -0.65781794245E-01  0.32389741959E+02  0.36222294672E+02  0.00000000000E+00 0.  1.
<mgrwt>
<rscale>  0 0.34026008E+02</rscale>
<asrwt>0</asrwt>
<pdfrwt beam="1">  1        4 0.15133278E-01 0.34026008E+02</pdfrwt>
<pdfrwt beam="2">  1       -4 0.45269146E-03 0.34026008E+02</pdfrwt>
<totfact> 0.31159263E+05</totfact>
</mgrwt>
</event>
<event>
 4    1  0.2165211E+000  0.6536700E+02  0.7546771E-02  0.1376596E+00
         -2   -1    0    0    0  501 -0.00000000000E+00  0.00000000000E+00  0.33068842176E+03  0.33068842176E+03  0.00000000000E+00 0. -1.
          2   -1    0    0  501    0  0.00000000000E+00 -0.00000000000E+00 -0.32302643980E+01  0.32302643980E+01  0.00000000000E+00 0.  1.
        -13    1    1    2    0    0  0.55624499846E+01  0.31905441134E+02  0.18617860595E+03  0.18897452563E+03  0.00000000000E+00 0.  1.
         13    1    1    2    0    0 -0.55624499846E+01 -0.31905441134E+02  0.14127955140E+03  0.14494416052E+03  0.00000000000E+00 0. -1.
<mgrwt>
<rscale>  0 0.65366996E+02</rscale>
<asrwt>0</asrwt>
<pdfrwt beam="2">  1        2 0.49696401E-03 0.65366996E+02</pdfrwt>
<pdfrwt beam="1">  1       -2 0.50875115E-01 0.65366996E+02</pdfrwt>
<totfact> 0.11267333E+05</totfact>
</mgrwt>
</event>
<event>
 4    1  0.2165211E+000  0.2233784E+02  0.7546771E-02  0.1702474E+00
         -2   -1    0    0    0  501 -0.00000000000E+00  0.00000000000E+00  0.14946114836E+01  0.14946114836E+01  0.00000000000E+00 0. -1.
          2   -1    0    0  501    0  0.00000000000E+00 -0.00000000000E+00 -0.83463039013E+02  0.83463039013E+02  0.00000000000E+00 0.  1.
        -11    1    1    2    0    0  0.89968054563E+01  0.60756596138E+01 -0.50966473902E+02  0.52109860969E+02  0.00000000000E+00 0. -1.
         11    1    1    2    0    0 -0.89968054563E+01 -0.60756596138E+01 -0.31001953627E+02  0.32847789528E+02  0.00000000000E+00 0.  1.
<mgrwt>
<rscale>  0 0.22337844E+02</rscale>
<asrwt>0</asrwt>
<pdfrwt beam="2">  1        2 0.12840470E-01 0.22337844E+02</pdfrwt>
<pdfrwt beam="1">  1       -2 0.22994018E-03 0.22337844E+02</pdfrwt>
<totfact> 0.39630257E+06</totfact>
</mgrwt>
</event>
<event>
 4    1  0.2165211E+000  0.3426261E+02  0.7546771E-02  0.1555248E+00
          4   -1    0    0  501    0  0.00000000000E+00  0.00000000000E+00  0.81087683441E+01  0.81087683441E+01  0.00000000000E+00 0.  1.
         -4   -1    0    0    0  501 -0.00000000000E+00 -0.00000000000E+00 -0.36193120997E+02  0.36193120997E+02  0.00000000000E+00 0. -1.
        -11    1    1    2    0    0 -0.10097758492E+02  0.13251832907E+01 -0.31853862536E+02  0.33442329401E+02  0.00000000000E+00 0. -1.
         11    1    1    2    0    0  0.10097758492E+02 -0.13251832907E+01  0.37695098831E+01  0.10859559940E+02  0.00000000000E+00 0.  1.
<mgrwt>
<rscale>  0 0.34262611E+02</rscale>
<asrwt>0</asrwt>
<pdfrwt beam="1">  1        4 0.12475028E-02 0.34262611E+02</pdfrwt>
<pdfrwt beam="2">  1       -4 0.55681725E-02 0.34262611E+02</pdfrwt>
<totfact> 0.36437004E+05</totfact>
</mgrwt>
</event>
<event>
 4    1  0.2165211E+000  0.3846488E+02  0.7546771E-02  0.1519822E+00
          2   -1    0    0  501    0  0.00000000000E+00  0.00000000000E+00  0.17057768544E+02  0.17057768544E+02  0.00000000000E+00 0. -1.
         -2   -1    0    0    0  501 -0.00000000000E+00 -0.00000000000E+00 -0.21684352444E+02  0.21684352444E+02  0.00000000000E+00 0.  1.
        -13    1    1    2    0    0 -0.46156717692E+01  0.15766179023E+02  0.77592810210E+01  0.18168193879E+02  0.00000000000E+00 0. -1.
         13    1    1    2    0    0  0.46156717692E+01 -0.15766179023E+02 -0.12385864921E+02  0.20573927109E+02  0.00000000000E+00 0.  1.
<mgrwt>
<rscale>  0 0.38464876E+02</rscale>
<asrwt>0</asrwt>
<pdfrwt beam="1">  1        2 0.26242721E-02 0.38464876E+02</pdfrwt>
<pdfrwt beam="2">  1       -2 0.33360542E-02 0.38464876E+02</pdfrwt>
<totfact> 0.85358402E+05</totfact>
</mgrwt>
</event>
<event>
 4    1  0.2165211E+000  0.6007913E+02  0.7546771E-02  0.1397500E+00
         -3   -1    0    0    0  501 -0.00000000000E+00  0.00000000000E+00  0.17717446775E+02  0.17717446775E+02  0.00000000000E+00 0.  1.
          3   -1    0    0  501    0  0.00000000000E+00 -0.00000000000E+00 -0.50931465014E+02  0.50931465014E+02  0.00000000000E+00 0. -1.
        -13    1    1    2    0    0 -0.10424970488E+02  0.10509351360E+02 -0.46474554040E+02  0.48775102757E+02  0.00000000000E+00 0. -1.
         13    1    1    2    0    0  0.10424970488E+02 -0.10509351360E+02  0.13260535802E+02  0.19873809032E+02  0.00000000000E+00 0.  1.
<mgrwt>
<rscale>  0 0.60079132E+02</rscale>
<asrwt>0</asrwt>
<pdfrwt beam="2">  1        3 0.78356099E-02 0.60079132E+02</pdfrwt>
<pdfrwt beam="1">  1       -3 0.27257611E-02 0.60079132E+02</pdfrwt>
<totfact> 0.11268999E+05</totfact>
</mgrwt>
</event>
<event>
 4    1  0.2165211E+000  0.2532775E+02  0.7546771E-02  0.1656339E+00
         -2   -1    0    0    0  501 -0.00000000000E+00  0.00000000000E+00  0.11323659189E+03  0.11323659189E+03  0.00000000000E+00 0.  1.
          2   -1    0    0  501    0  0.00000000000E+00 -0.00000000000E+00 -0.14162708824E+01  0.14162708824E+01  0.00000000000E+00 0. -1.
        -13    1    1    2    0    0 -0.10511741723E+02 -0.69733352971E+01  0.50849951914E+02  0.52391237138E+02  0.00000000000E+00 0. -1.
         13    1    1    2    0    0  0.10511741723E+02  0.69733352971E+01  0.60970369095E+02  0.62261625636E+02  0.00000000000E+00 0.  1.
<mgrwt>
<rscale>  0 0.25327747E+02</rscale>
<asrwt>0</asrwt>
<pdfrwt beam="2">  1        2 0.21788792E-03 0.25327747E+02</pdfrwt>
<pdfrwt beam="1">  1       -2 0.17421007E-01 0.25327747E+02</pdfrwt>
<totfact> 0.17036112E+06</totfact>
</mgrwt>
</event>
<event>
 4    1  0.2165211E+000  0.3171826E+02  0.7546771E-02  0.1579837E+00
         -2   -1    0    0    0  501 -0.00000000000E+00  0.00000000000E+00  0.52206435352E+01  0.52206435352E+01  0.00000000000E+00 0.  1.
          2   -1    0    0  501    0  0.00000000000E+00 -0.00000000000E+00 -0.48176441259E+02  0.48176441259E+02  0.00000000000E+00 0. -1.
        -13    1    1    2    0    0  0.68843031708E+01 -0.82515691142E+01 -0.41112655746E+02  0.42493911157E+02  0.00000000000E+00 0. -1.
         13    1    1    2    0    0 -0.68843031708E+01  0.82515691142E+01 -0.18431419777E+01  0.10903173636E+02  0.00000000000E+00 0.  1.
<mgrwt>
<rscale>  0 0.31718261E+02</rscale>
<asrwt>0</asrwt>
<pdfrwt beam="2">  1        2 0.74117600E-02 0.31718261E+02</pdfrwt>
<pdfrwt beam="1">  1       -2 0.80317595E-03 0.31718261E+02</pdfrwt>
<totfact> 0.15815969E+06</totfact>
</mgrwt>
</event>
<event>
 4    1  0.2165211E+000  0.3877094E+02  0.7546771E-02  0.1517456E+00
          2   -1    0    0  501    0  0.00000000000E+00  0.00000000000E+00  0.51941243616E+02  0.51941243616E+02  0.00000000000E+00 0.  1.
         -2   -1    0    0    0  501 -0.00000000000E+00 -0.00000000000E+00 -0.72350299411E+01  0.72350299411E+01  0.00000000000E+00 0. -1.
        -11    1    1    2    0    0 -0.15174707583E+02  0.95931071981E+01  0.33516750888E+02  0.38021994240E+02  0.00000000000E+00 0.  1.
         11    1    1    2    0    0  0.15174707583E+02 -0.95931071981E+01  0.11189462788E+02  0.21154279317E+02  0.00000000000E+00 0. -1.
<mgrwt>
<rscale>  0 0.38770940E+02</rscale>
<asrwt>0</asrwt>
<pdfrwt beam="1">  1        2 0.79909603E-02 0.38770940E+02</pdfrwt>
<pdfrwt beam="2">  1       -2 0.11130816E-02 0.38770940E+02</pdfrwt>
<totfact> 0.98151366E+05</totfact>
</mgrwt>
</event>
<event>
 4    1  0.2165211E+000  0.6306724E+02  0.7546771E-02  0.1385393E+00
          2   -1    0    0  501    0  0.00000000000E+00  0.00000000000E+00  0.32144675380E+02  0.32144675380E+02  0.00000000000E+00 0. -1.
         -2   -1    0    0    0  501 -0.00000000000E+00 -0.00000000000E+00 -0.30934177876E+02  0.30934177876E+02  0.00000000000E+00 0.  1.
        -11    1    1    2    0    0 -0.88953176213E+01  0.12712560270E+02  0.28062686372E+02  0.32066341085E+02  0.00000000000E+00 0. -1.
         11    1    1    2    0    0  0.88953176213E+01 -0.12712560270E+02 -0.26852188868E+02  0.31012512172E+02  0.00000000000E+00 0.  1.
<mgrwt>
<rscale>  0 0.63067237E+02</rscale>
<asrwt>0</asrwt>
<pdfrwt beam="1">  1        2 0.49453347E-02 0.63067237E+02</pdfrwt>
<pdfrwt beam="2">  1       -2 0.47591043E-02 0.63067237E+02</pdfrwt>
<totfact> 0.25568466E+05</totfact>
</mgrwt>
</event>
<event>
 4    1  0.2165211E+000  0.2206057E+02  0.7546771E-02  0.1707207E+00
          4   -1    0    0  501    0  0.00000000000E+00  0.00000000000E+00  0.35545144734E+02  0.35545144734E+02  0.00000000000E+00 0.  1.
         -4   -1    0    0    0  501 -0.00000000000E+00 -0.00000000000E+00 -0.34228916220E+01  0.34228916220E+01  0.00000000000E+00 0. -1.
        -13    1    1    2    0    0 -0.29568356425E+01  0.10621124893E+02  0.15459490148E+02  0.18988075380E+02  0.00000000000E+00 0. -1.
         13    1    1    2    0    0  0.29568356425E+01 -0.10621124893E+02  0.16662762965E+02  0.19979960977E+02  0.00000000000E+00 0.  1.
<mgrwt>
<rscale>  0 0.22060569E+02</rscale>
<asrwt>0</asrwt>
<pdfrwt beam="1">  1        4 0.54684835E-02 0.22060569E+02</pdfrwt>
<pdfrwt beam="2">  1       -4 0.52659874E-03 0.22060569E+02</pdfrwt>
<totfact> 0.98132110E+05</totfact>
</mgrwt>
</event>
<event>
 4    1  0.2165211E+000  0.3232937E+02  0.7546771E-02  0.1573681E+00
          4   -1    0    0  501    0  0.00000000000E+00  0.00000000000E+00  0.12013808061E+02  0.12013808061E+02  0.00000000000E+00 0.  1.
         -4   -1    0    0    0  501 -0.00000000000E+00 -0.00000000000E+00 -0.21749729781E+02  0.21749729781E+02  0.00000000000E+00 0. -1.
        -13    1    1    2    0    0 -0.89094750639E+01 -0.77803798379E+01 -0.16374148095E+02  0.20199648070E+02  0.00000000000E+00 0. -1.
         13    1    1    2    0    0  0.89094750639E+01  0.77803798379E+01  0.66382263751E+01  0.13563889772E+02  0.00000000000E+00 0.  1.
<mgrwt>
<rscale>  0 0.32329372E+02</rscale>
<asrwt>0</asrwt>
<pdfrwt beam="1">  1        4 0.18482782E-02 0.32329372E+02</pdfrwt>
<pdfrwt beam="2">  1       -4 0.33461123E-02 0.32329372E+02</pdfrwt>
<totfact> 0.43250239E+05</totfact>
</mgrwt>
</event>
<event>
 4    1  0.2165211E+000  0.2509308E+02  0.7546771E-02  0.1659669E+00
          4   -1    0    0  501    0  0.00000000000E+00  0.00000000000E+00  0.10705480004E+03  0.10705480004E+03  0.00000000000E+00 0.  1.
         -4   -1    0    0    0  501 -0.00000000000E+00 -0.00000000000E+00 -0.14704214525E+01  0.14704214525E+01  0.00000000000E+00 0. -1.
        -11    1    1    2    0    0 -0.11340569041E+02  0.52388178385E+01  0.57839479154E+02  0.59173127916E+02  0.00000000000E+00 0.  1.
         11    1    1    2    0    0  0.11340569041E+02 -0.52388178385E+01  0.47744899437E+02  0.49352093580E+02  0.00000000000E+00 0. -1.
<mgrwt>
<rscale>  0 0.25093081E+02</rscale>
<asrwt>0</asrwt>
<pdfrwt beam="1">  1        4 0.16469963E-01 0.25093081E+02</pdfrwt>
<pdfrwt beam="2">  1       -4 0.22621877E-03 0.25093081E+02</pdfrwt>
<totfact> 0.59892725E+05</totfact>
</mgrwt>
</event>
<event>
 4    1  0.2165211E+000  0.2506453E+02  0.7546771E-02  0.1660077E+00
         -2   -1    0    0    0  501 -0.00000000000E+00  0.00000000000E+00  0.46072671729E+02  0.46072671729E+02  0.00000000000E+00 0.  1.
          2   -1    0    0  501    0  0.00000000000E+00 -0.00000000000E+00 -0.34089122175E+01  0.34089122175E+01  0.00000000000E+00 0. -1.
        -11    1    1    2    0    0 -0.79150796294E+01 -0.85841301618E+01  0.12345206351E+02  0.16992348161E+02  0.00000000000E+00 0. -1.
         11    1    1    2    0    0  0.79150796294E+01  0.85841301618E+01  0.30318553161E+02  0.32489235786E+02  0.00000000000E+00 0.  1.
<mgrwt>
<rscale>  0 0.25064532E+02</rscale>
<asrwt>0</asrwt>
<pdfrwt beam="2">  1        2 0.52444807E-03 0.25064532E+02</pdfrwt>
<pdfrwt beam="1">  1       -2 0.70881029E-02 0.25064532E+02</pdfrwt>
<totfact> 0.20761221E+06</totfact>
</mgrwt>
</event>
<event>
 4    1  0.2165211E+000  0.5928303E+02  0.7546771E-02  0.1400865E+00
          1   -1    0    0  501    0  0.00000000000E+00  0.00000000000E+00  0.90662786161E+01  0.90662786161E+01  0.00000000000E+00 0. -1.
         -1   -1    0    0    0  501 -0.00000000000E+00 -0.00000000000E+00 -0.96910714174E+02  0.96910714174E+02  0.00000000000E+00 0.  1.
        -13    1    1    2    0    0  0.22648595626E+02  0.89655134653E+01 -0.13728471670E+02  0.27960869978E+02  0.00000000000E+00 0. -1.
         13    1    1    2    0    0 -0.22648595626E+02 -0.89655134653E+01 -0.74115963888E+02  0.78016122812E+02  0.00000000000E+00 0.  1.
<mgrwt>
<rscale>  0 0.59283034E+02</rscale>
<asrwt>0</asrwt>
<pdfrwt beam="1">  1        1 0.13948121E-02 0.59283034E+02</pdfrwt>
<pdfrwt beam="2">  1       -1 0.14909340E-01 0.59283034E+02</pdfrwt>
<totfact> 0.24476683E+05</totfact>
</mgrwt>
</event>
<event>
 4    1  0.2165211E+000  0.2122257E+02  0.7546771E-02  0.1722055E+00
         -2   -1    0    0    0  501 -0.00000000000E+00  0.00000000000E+00  0.12212837368E+01  0.12212837368E+01  0.00000000000E+00 0.  1.
          2   -1    0    0  501    0  0.00000000000E+00 -0.00000000000E+00 -0.92197516245E+02  0.92197516245E+02  0.00000000000E+00 0. -1.
        -11    1    1    2    0    0 -0.39322997424E+01  0.98460646348E+01 -0.47413683486E+02  0.48584620527E+02  0.00000000000E+00 0. -1.
         11    1    1    2    0    0  0.39322997424E+01 -0.98460646348E+01 -0.43562549023E+02  0.44834179455E+02  0.00000000000E+00 0.  1.
<mgrwt>
<rscale>  0 0.21222566E+02</rscale>
<asrwt>0</asrwt>
<pdfrwt beam="2">  1        2 0.14184232E-01 0.21222566E+02</pdfrwt>
<pdfrwt beam="1">  1       -2 0.18788982E-03 0.21222566E+02</pdfrwt>
<totfact> 0.45416961E+06</totfact>
</mgrwt>
</event>
<event>
 4    1  0.2165211E+000  0.2012859E+02  0.7546771E-02  0.1742783E+00
         -2   -1    0    0    0  501 -0.00000000000E+00  0.00000000000E+00  0.12715258686E+02  0.12715258686E+02  0.00000000000E+00 0.  1.
          2   -1    0    0  501    0  0.00000000000E+00 -0.00000000000E+00 -0.79660235662E+01  0.79660235662E+01  0.00000000000E+00 0. -1.
        -13    1    1    2    0    0 -0.91710208266E+01  0.41425735375E+01  0.22239212213E+01  0.10306035325E+02  0.00000000000E+00 0.  1.
         13    1    1    2    0    0  0.91710208266E+01 -0.41425735375E+01  0.25253138982E+01  0.10375246927E+02  0.00000000000E+00 0. -1.
<mgrwt>
<rscale>  0 0.20128592E+02</rscale>
<asrwt>0</asrwt>
<pdfrwt beam="2">  1        2 0.12255421E-02 0.20128592E+02</pdfrwt>
<pdfrwt beam="1">  1       -2 0.19561936E-02 0.20128592E+02</pdfrwt>
<totfact> 0.38243102E+06</totfact>
</mgrwt>
</event>
<event>
 4    1  0.2165211E+000  0.3751729E+02  0.7546771E-02  0.1527319E+00
          2   -1    0    0  501    0  0.00000000000E+00  0.00000000000E+00  0.70948989280E+02  0.70948989280E+02  0.00000000000E+00 0. -1.
         -2   -1    0    0    0  501 -0.00000000000E+00 -0.00000000000E+00 -0.49597150917E+01  0.49597150917E+01  0.00000000000E+00 0.  1.
        -11    1    1    2    0    0  0.16149710137E+02 -0.92665935482E+01  0.37610189888E+02  0.41966763955E+02  0.00000000000E+00 0.  1.
         11    1    1    2    0    0 -0.16149710137E+02  0.92665935482E+01  0.28379084300E+02  0.33941940416E+02  0.00000000000E+00 0. -1.
<mgrwt>
<rscale>  0 0.37517291E+02</rscale>
<asrwt>0</asrwt>
<pdfrwt beam="1">  1        2 0.10915228E-01 0.37517291E+02</pdfrwt>
<pdfrwt beam="2">  1       -2 0.76303314E-03 0.37517291E+02</pdfrwt>
<totfact> 0.11302105E+06</totfact>
</mgrwt>
</event>
<event>
 4    1  0.2165211E+000  0.7076807E+02  0.7546771E-02  0.1357501E+00
         -2   -1    0    0    0  501 -0.00000000000E+00  0.00000000000E+00  0.10540236447E+02  0.10540236447E+02  0.00000000000E+00 0. -1.
          2   -1    0    0  501    0  0.00000000000E+00 -0.00000000000E+00 -0.11878574117E+03  0.11878574117E+03  0.00000000000E+00 0.  1.
        -11    1    1    2    0    0  0.69313776639E+01  0.24858138129E+02 -0.98363150503E+02  0.10169208624E+03  0.00000000000E+00 0.  1.
         11    1    1    2    0    0 -0.69313776639E+01 -0.24858138129E+02 -0.98823542225E+01  0.27633891376E+02  0.00000000000E+00 0. -1.
<mgrwt>
<rscale>  0 0.70768066E+02</rscale>
<asrwt>0</asrwt>
<pdfrwt beam="2">  1        2 0.18274730E-01 0.70768066E+02</pdfrwt>
<pdfrwt beam="1">  1       -2 0.16215748E-02 0.70768066E+02</pdfrwt>
<totfact> 0.25572563E+05</totfact>
</mgrwt>
</event>
<event>
 4    1  0.2165211E+000  0.3335170E+02  0.7546771E-02  0.1563745E+00
         -3   -1    0    0    0  501 -0.00000000000E+00  0.00000000000E+00  0.36062214142E+02  0.36062214142E+02  0.00000000000E+00 0. -1.
          3   -1    0    0  501    0  0.00000000000E+00 -0.00000000000E+00 -0.77112282361E+01  0.77112282361E+01  0.00000000000E+00 0.  1.
        -11    1    1    2    0    0  0.81208861613E+01  0.87570483731E+01  0.29450487938E+02  0.31779961108E+02  0.00000000000E+00 0. -1.
         11    1    1    2    0    0 -0.81208861613E+01 -0.87570483731E+01 -0.10995020321E+01  0.11993481270E+02  0.00000000000E+00 0.  1.
<mgrwt>
<rscale>  0 0.33351699E+02</rscale>
<asrwt>0</asrwt>
<pdfrwt beam="2">  1        3 0.11863428E-02 0.33351699E+02</pdfrwt>
<pdfrwt beam="1">  1       -3 0.55480329E-02 0.33351699E+02</pdfrwt>
<totfact> 0.51880959E+05</totfact>
</mgrwt>
</event>
<event>
 4    1  0.2165211E+000  0.5517503E+02  0.7546771E-02  0.1419273E+00
          3   -1    0    0  501    0  0.00000000000E+00  0.00000000000E+00  0.69229251234E+02  0.69229251234E+02  0.00000000000E+00 0.  1.
         -3   -1    0    0    0  501 -0.00000000000E+00 -0.00000000000E+00 -0.10993487828E+02  0.10993487828E+02  0.00000000000E+00 0. -1.
        -11    1    1    2    0    0  0.21311913271E+02 -0.17510171669E+02  0.29869418185E+02  0.40656929322E+02  0.00000000000E+00 0. -1.
         11    1    1    2    0    0 -0.21311913271E+02  0.17510171669E+02  0.28366345221E+02  0.39565809740E+02  0.00000000000E+00 0.  1.
<mgrwt>
<rscale>  0 0.55175028E+02</rscale>
<asrwt>0</asrwt>
<pdfrwt beam="1">  1        3 0.10650654E-01 0.55175028E+02</pdfrwt>
<pdfrwt beam="2">  1       -3 0.16913059E-02 0.55175028E+02</pdfrwt>
<totfact> 0.13633274E+05</totfact>
</mgrwt>
</event>
<event>
 4    1  0.2165211E+000  0.2030827E+02  0.7546771E-02  0.1739266E+00
          4   -1    0    0  501    0  0.00000000000E+00  0.00000000000E+00  0.19940652529E+01  0.19940652529E+01  0.00000000000E+00 0. -1.
         -4   -1    0    0    0  501 -0.00000000000E+00 -0.00000000000E+00 -0.51706656644E+02  0.51706656644E+02  0.00000000000E+00 0.  1.
        -13    1    1    2    0    0  0.77968566736E+01  0.62632282312E+01 -0.20209999775E+02  0.22549126209E+02  0.00000000000E+00 0.  1.
         13    1    1    2    0    0 -0.77968566736E+01 -0.62632282312E+01 -0.29502591616E+02  0.31151595688E+02  0.00000000000E+00 0. -1.
<mgrwt>
<rscale>  0 0.20308269E+02</rscale>
<asrwt>0</asrwt>
<pdfrwt beam="1">  1        4 0.30677929E-03 0.20308269E+02</pdfrwt>
<pdfrwt beam="2">  1       -4 0.79548696E-02 0.20308269E+02</pdfrwt>
<totfact> 0.11021173E+06</totfact>
</mgrwt>
</event>
<event>
 4    1  0.2165211E+000  0.2430666E+02  0.7546771E-02  0.1671165E+00
         -3   -1    0    0    0  501 -0.00000000000E+00  0.00000000000E+00  0.31146099894E+02  0.31146099894E+02  0.00000000000E+00 0. -1.
          3   -1    0    0  501    0  0.00000000000E+00 -0.00000000000E+00 -0.47422758603E+01  0.47422758603E+01  0.00000000000E+00 0.  1.
        -11    1    1    2    0    0 -0.18075837957E+01  0.10241305299E+02  0.22487537552E+02  0.24775815598E+02  0.00000000000E+00 0. -1.
         11    1    1    2    0    0  0.18075837957E+01 -0.10241305299E+02  0.39162864813E+01  0.11112560156E+02  0.00000000000E+00 0.  1.
<mgrwt>
<rscale>  0 0.24306657E+02</rscale>
<asrwt>0</asrwt>
<pdfrwt beam="2">  1        3 0.72958092E-03 0.24306657E+02</pdfrwt>
<pdfrwt beam="1">  1       -3 0.47917076E-02 0.24306657E+02</pdfrwt>
<totfact> 0.11031633E+06</totfact>
</mgrwt>
</event>
<event>
 4    1  0.2165211E+000  0.3060954E+02  0.7546771E-02  0.1591447E+00
          1   -1    0    0  501    0  0.00000000000E+00  0.00000000000E+00  0.32515482474E+01  0.32515482474E+01  0.00000000000E+00 0.  1.
         -1   -1    0    0    0  501 -0.00000000000E+00 -0.00000000000E+00 -0.72038310194E+02  0.72038310194E+02  0.00000000000E+00 0. -1.
        -13    1    1    2    0    0 -0.10917591686E+02  0.10006777241E+02 -0.24896750484E+02  0.28968561988E+02  0.00000000000E+00 0. -1.
         13    1    1    2    0    0  0.10917591686E+02 -0.10006777241E+02 -0.43890011462E+02  0.46321296453E+02  0.00000000000E+00 0.  1.
<mgrwt>
<rscale>  0 0.30609544E+02</rscale>
<asrwt>0</asrwt>
<pdfrwt beam="1">  1        1 0.50023817E-03 0.30609544E+02</pdfrwt>
<pdfrwt beam="2">  1       -1 0.11082817E-01 0.30609544E+02</pdfrwt>
<totfact> 0.12737032E+06</totfact>
</mgrwt>
</event>
<event>
 4    1  0.2165211E+000  0.2911795E+02  0.7546771E-02  0.1608048E+00
         -2   -1    0    0    0  501 -0.00000000000E+00  0.00000000000E+00  0.22134874668E+02  0.22134874668E+02  0.00000000000E+00 0.  1.
          2   -1    0    0  501    0  0.00000000000E+00 -0.00000000000E+00 -0.95760060977E+01  0.95760060977E+01  0.00000000000E+00 0. -1.
        -11    1    1    2    0    0 -0.14033003437E+02  0.38624201120E+01  0.66570380601E+01  0.16004987670E+02  0.00000000000E+00 0. -1.
         11    1    1    2    0    0  0.14033003437E+02 -0.38624201120E+01  0.59018305107E+01  0.15705893096E+02  0.00000000000E+00 0.  1.
<mgrwt>
<rscale>  0 0.29117946E+02</rscale>
<asrwt>0</asrwt>
<pdfrwt beam="2">  1        2 0.14732317E-02 0.29117946E+02</pdfrwt>
<pdfrwt beam="1">  1       -2 0.34053653E-02 0.29117946E+02</pdfrwt>
<totfact> 0.16095576E+06</totfact>
</mgrwt>
</event>
<event>
 4    1  0.2165211E+000  0.2352867E+02  0.7546771E-02  0.1683081E+00
         -2   -1    0    0    0  501 -0.00000000000E+00  0.00000000000E+00  0.58567047691E+01  0.58567047691E+01  0.00000000000E+00 0.  1.
          2   -1    0    0  501    0  0.00000000000E+00 -0.00000000000E+00 -0.23630969460E+02  0.23630969460E+02  0.00000000000E+00 0. -1.
        -13    1    1    2    0    0 -0.10833458111E+02  0.43247744512E+01 -0.69732342938E+01  0.13590198130E+02  0.00000000000E+00 0.  1.
         13    1    1    2    0    0  0.10833458111E+02 -0.43247744512E+01 -0.10801030398E+02  0.15897476100E+02  0.00000000000E+00 0. -1.
<mgrwt>
<rscale>  0 0.23528673E+02</rscale>
<asrwt>0</asrwt>
<pdfrwt beam="2">  1        2 0.36355338E-02 0.23528673E+02</pdfrwt>
<pdfrwt beam="1">  1       -2 0.90103149E-03 0.23528673E+02</pdfrwt>
<totfact> 0.29201200E+06</totfact>
</mgrwt>
</event>
<event>
 4    1  0.2165211E+000  0.3624328E+02  0.7546771E-02  0.1537829E+00
         -2   -1    0    0    0  501 -0.00000000000E+00  0.00000000000E+00  0.74209850052E+02  0.74209850052E+02  0.00000000000E+00 0. -1.
          2   -1    0    0  501    0  0.00000000000E+00 -0.00000000000E+00 -0.44252053410E+01  0.44252053410E+01  0.00000000000E+00 0.  1.
        -13    1    1    2    0    0  0.56626136433E+01  0.15497481025E+02  0.51151162149E+02  0.53746427794E+02  0.00000000000E+00 0. -1.
         13    1    1    2    0    0 -0.56626136433E+01 -0.15497481025E+02  0.18633482562E+02  0.24888627599E+02  0.00000000000E+00 0.  1.
<mgrwt>
<rscale>  0 0.36243279E+02</rscale>
<asrwt>0</asrwt>
<pdfrwt beam="2">  1        2 0.68080088E-03 0.36243279E+02</pdfrwt>
<pdfrwt beam="1">  1       -2 0.11416899E-01 0.36243279E+02</pdfrwt>
<totfact> 0.81768617E+05</totfact>
</mgrwt>
</event>
<event>
 4    1  0.2165211E+000  0.2183834E+02  0.7546771E-02  0.1711063E+00
          3   -1    0    0  501    0  0.00000000000E+00  0.00000000000E+00  0.38337497018E+01  0.38337497018E+01  0.00000000000E+00 0.  1.
         -3   -1    0    0    0  501 -0.00000000000E+00 -0.00000000000E+00 -0.31099662458E+02  0.31099662458E+02  0.00000000000E+00 0. -1.
        -13    1    1    2    0    0 -0.93491535382E+01 -0.53259367114E+01 -0.10659160357E+02  0.15145625548E+02  0.00000000000E+00 0. -1.
         13    1    1    2    0    0  0.93491535382E+01  0.53259367114E+01 -0.16606752400E+02  0.19787786612E+02  0.00000000000E+00 0.  1.
<mgrwt>
<rscale>  0 0.21838344E+02</rscale>
<asrwt>0</asrwt>
<pdfrwt beam="1">  1        3 0.58980765E-03 0.21838344E+02</pdfrwt>
<pdfrwt beam="2">  1       -3 0.47845634E-02 0.21838344E+02</pdfrwt>
<totfact> 0.14029560E+06</totfact>
</mgrwt>
</event>
<event>
 4    1  0.2165211E+000  0.5324091E+02  0.7546771E-02  0.1428606E+00
         -4   -1    0    0    0  501 -0.00000000000E+00  0.00000000000E+00  0.66063827326E+01  0.66063827326E+01  0.00000000000E+00 0.  1.
          4   -1    0    0  501    0  0.00000000000E+00 -0.00000000000E+00 -0.10726726709E+03  0.10726726709E+03  0.00000000000E+00 0. -1.
        -13    1    1    2    0    0 -0.25697143473E+02  0.33403040864E+01 -0.63366442489E+02  0.68460257433E+02  0.00000000000E+00 0. -1.
         13    1    1    2    0    0  0.25697143473E+02 -0.33403040864E+01 -0.37294441865E+02  0.45413392387E+02  0.00000000000E+00 0.  1.
<mgrwt>
<rscale>  0 0.53240910E+02</rscale>
<asrwt>0</asrwt>
<pdfrwt beam="2">  1        4 0.16502655E-01 0.53240910E+02</pdfrwt>
<pdfrwt beam="1">  1       -4 0.10163667E-02 0.53240910E+02</pdfrwt>
<totfact> 0.10351493E+05</totfact>
</mgrwt>
</event>
<event>
 4    1  0.2165211E+000  0.3364706E+02  0.7546771E-02  0.1560954E+00
         -4   -1    0    0    0  501 -0.00000000000E+00  0.00000000000E+00  0.28548863768E+02  0.28548863768E+02  0.00000000000E+00 0.  1.
          4   -1    0    0  501    0  0.00000000000E+00 -0.00000000000E+00 -0.99139197110E+01  0.99139197110E+01  0.00000000000E+00 0. -1.
        -11    1    1    2    0    0 -0.11118109027E+02  0.12614372556E+02  0.86951249626E+01  0.18929869028E+02  0.00000000000E+00 0. -1.
         11    1    1    2    0    0  0.11118109027E+02 -0.12614372556E+02  0.99398190947E+01  0.19532914451E+02  0.00000000000E+00 0.  1.
<mgrwt>
<rscale>  0 0.33647059E+02</rscale>
<asrwt>0</asrwt>
<pdfrwt beam="2">  1        4 0.15252184E-02 0.33647059E+02</pdfrwt>
<pdfrwt beam="1">  1       -4 0.43921329E-02 0.33647059E+02</pdfrwt>
<totfact> 0.38780769E+05</totfact>
</mgrwt>
</event>
<event>
 4    1  0.2165211E+000  0.2489570E+02  0.7546771E-02  0.1662505E+00
         -4   -1    0    0    0  501 -0.00000000000E+00  0.00000000000E+00  0.96148702326E+01  0.96148702326E+01  0.00000000000E+00 0.  1.
          4   -1    0    0  501    0  0.00000000000E+00 -0.00000000000E+00 -0.16115557550E+02  0.16115557550E+02  0.00000000000E+00 0. -1.
        -13    1    1    2    0    0 -0.94375863630E+01 -0.39959275892E+01 -0.10552173915E+02  0.14709991434E+02  0.00000000000E+00 0. -1.
         13    1    1    2    0    0  0.94375863630E+01  0.39959275892E+01  0.40514865978E+01  0.11020436348E+02  0.00000000000E+00 0.  1.
<mgrwt>
<rscale>  0 0.24895702E+02</rscale>
<asrwt>0</asrwt>
<pdfrwt beam="2">  1        4 0.24793165E-02 0.24895702E+02</pdfrwt>
<pdfrwt beam="1">  1       -4 0.14792108E-02 0.24895702E+02</pdfrwt>
<totfact> 0.80003934E+05</totfact>
</mgrwt>
</event>
<event>
 4    1  0.2165211E+000  0.2506593E+02  0.7546771E-02  0.1660057E+00
         -1   -1    0    0    0  501 -0.00000000000E+00  0.00000000000E+00  0.15572622710E+01  0.15572622710E+01  0.00000000000E+00 0.  1.
          1   -1    0    0  501    0  0.00000000000E+00 -0.00000000000E+00 -0.10086627424E+03  0.10086627424E+03  0.00000000000E+00 0. -1.
        -13    1    1    2    0    0 -0.12300906390E+02  0.22396623590E+01 -0.53185807935E+02  0.54635689354E+02  0.00000000000E+00 0. -1.
         13    1    1    2    0    0  0.12300906390E+02 -0.22396623590E+01 -0.46123204030E+02  0.47787847153E+02  0.00000000000E+00 0.  1.
<mgrwt>
<rscale>  0 0.25065933E+02</rscale>
<asrwt>0</asrwt>
<pdfrwt beam="2">  1        1 0.15517887E-01 0.25065933E+02</pdfrwt>
<pdfrwt beam="1">  1       -1 0.23957883E-03 0.25065933E+02</pdfrwt>
<totfact> 0.26719569E+06</totfact>
</mgrwt>
</event>
<event>
 4    1  0.2165211E+000  0.2036582E+02  0.7546771E-02  0.1738150E+00
         -4   -1    0    0    0  501 -0.00000000000E+00  0.00000000000E+00  0.55075722177E+01  0.55075722177E+01  0.00000000000E+00 0. -1.
          4   -1    0    0  501    0  0.00000000000E+00 -0.00000000000E+00 -0.18827108847E+02  0.18827108847E+02  0.00000000000E+00 0.  1.
        -13    1    1    2    0    0 -0.10121802159E+02  0.50085872845E+00 -0.78486113000E+01  0.12818051246E+02  0.00000000000E+00 0. -1.
         13    1    1    2    0    0  0.10121802159E+02 -0.50085872845E+00 -0.54709253291E+01  0.11516629818E+02  0.00000000000E+00 0.  1.
<mgrwt>
<rscale>  0 0.20365821E+02</rscale>
<asrwt>0</asrwt>
<pdfrwt beam="2">  1        4 0.28964782E-02 0.20365821E+02</pdfrwt>
<pdfrwt beam="1">  1       -4 0.84731882E-03 0.20365821E+02</pdfrwt>
<totfact> 0.12298294E+06</totfact>
</mgrwt>
</event>
<event>
 4    1  0.2165211E+000  0.2459621E+02  0.7546771E-02  0.1666870E+00
          4   -1    0    0  501    0  0.00000000000E+00  0.00000000000E+00  0.63201284692E+02  0.63201284692E+02  0.00000000000E+00 0. -1.
         -4   -1    0    0    0  501 -0.00000000000E+00 -0.00000000000E+00 -0.23930422272E+01  0.23930422272E+01  0.00000000000E+00 0.  1.
        -13    1    1    2    0    0 -0.89040878194E+01 -0.45785994730E+01  0.11359584089E+02  0.15142209340E+02  0.00000000000E+00 0.  1.
         13    1    1    2    0    0  0.89040878194E+01  0.45785994730E+01  0.49448658375E+02  0.50452117579E+02  0.00000000000E+00 0. -1.
<mgrwt>
<rscale>  0 0.24596206E+02</rscale>
<asrwt>0</asrwt>
<pdfrwt beam="1">  1        4 0.97232733E-02 0.24596206E+02</pdfrwt>
<pdfrwt beam="2">  1       -4 0.36816039E-03 0.24596206E+02</pdfrwt>
<totfact> 0.71025657E+05</totfact>
</mgrwt>
</event>
<event>
 4    1  0.2165211E+000  0.2893265E+02  0.7546771E-02  0.1610196E+00
          2   -1    0    0  501    0  0.00000000000E+00  0.00000000000E+00  0.11269969434E+02  0.11269969434E+02  0.00000000000E+00 0. -1.
         -2   -1    0    0    0  501 -0.00000000000E+00 -0.00000000000E+00 -0.18569217530E+02  0.18569217530E+02  0.00000000000E+00 0.  1.
        -11    1    1    2    0    0 -0.54926901811E+01  0.13014056235E+02 -0.68681769993E+01  0.15706914414E+02  0.00000000000E+00 0.  1.
         11    1    1    2    0    0  0.54926901811E+01 -0.13014056235E+02 -0.43107109710E+00  0.14132272550E+02  0.00000000000E+00 0. -1.
<mgrwt>
<rscale>  0 0.28932647E+02</rscale>
<asrwt>0</asrwt>
<pdfrwt beam="1">  1        2 0.17338415E-02 0.28932647E+02</pdfrwt>
<pdfrwt beam="2">  1       -2 0.28568027E-02 0.28932647E+02</pdfrwt>
<totfact> 0.16622733E+06</totfact>
</mgrwt>
</event>
<event>
 4    1  0.2165211E+000  0.3143048E+02  0.7546771E-02  0.1582794E+00
          2   -1    0    0  501    0  0.00000000000E+00  0.00000000000E+00  0.54023968331E+02  0.54023968331E+02  0.00000000000E+00 0.  1.
         -2   -1    0    0    0  501 -0.00000000000E+00 -0.00000000000E+00 -0.45714673996E+01  0.45714673996E+01  0.00000000000E+00 0. -1.
        -11    1    1    2    0    0  0.15504103202E+02 -0.39614652073E+00  0.19997181985E+02  0.25306549261E+02  0.00000000000E+00 0. -1.
         11    1    1    2    0    0 -0.15504103202E+02  0.39614652073E+00  0.29455318947E+02  0.33288886470E+02  0.00000000000E+00 0.  1.
<mgrwt>
<rscale>  0 0.31430483E+02</rscale>
<asrwt>0</asrwt>
<pdfrwt beam="1">  1        2 0.83113793E-02 0.31430483E+02</pdfrwt>
<pdfrwt beam="2">  1       -2 0.70330271E-03 0.31430483E+02</pdfrwt>
<totfact> 0.16479340E+06</totfact>
</mgrwt>
</event>
<event>
 4    1  0.2165211E+000  0.3310745E+02  0.7546771E-02  0.1566079E+00
         -1   -1    0    0    0  501 -0.00000000000E+00  0.00000000000E+00  0.77677764182E+02  0.77677764182E+02  0.00000000000E+00 0.  1.
          1   -1    0    0  501    0  0.00000000000E+00 -0.00000000000E+00 -0.35277263238E+01  0.35277263238E+01  0.00000000000E+00 0. -1.
        -11    1    1    2    0    0  0.31547511677E+01 -0.16118919650E+02  0.32016171348E+02  0.35983430262E+02  0.00000000000E+00 0.  1.
         11    1    1    2    0    0 -0.31547511677E+01  0.16118919650E+02  0.42133866510E+02  0.45222060244E+02  0.00000000000E+00 0. -1.
<mgrwt>
<rscale>  0 0.33107455E+02</rscale>
<asrwt>0</asrwt>
<pdfrwt beam="2">  1        1 0.54272719E-03 0.33107455E+02</pdfrwt>
<pdfrwt beam="1">  1       -1 0.11950424E-01 0.33107455E+02</pdfrwt>
<totfact> 0.10485071E+06</totfact>
</mgrwt>
</event>
<event>
 4    1  0.2165211E+000  0.2921812E+02  0.7546771E-02  0.1606896E+00
         -1   -1    0    0    0  501 -0.00000000000E+00  0.00000000000E+00  0.16305183316E+02  0.16305183316E+02  0.00000000000E+00 0. -1.
          1   -1    0    0  501    0  0.00000000000E+00 -0.00000000000E+00 -0.13089373743E+02  0.13089373743E+02  0.00000000000E+00 0.  1.
        -11    1    1    2    0    0  0.10843456844E+02  0.88017315673E+01 -0.27044235195E+01  0.14225503207E+02  0.00000000000E+00 0.  1.
         11    1    1    2    0    0 -0.10843456844E+02 -0.88017315673E+01  0.59202330923E+01  0.15169053852E+02  0.00000000000E+00 0. -1.
<mgrwt>
<rscale>  0 0.29218120E+02</rscale>
<asrwt>0</asrwt>
<pdfrwt beam="2">  1        1 0.20137498E-02 0.29218120E+02</pdfrwt>
<pdfrwt beam="1">  1       -1 0.25084898E-02 0.29218120E+02</pdfrwt>
<totfact> 0.16092760E+06</totfact>
</mgrwt>
</event>
<event>
 4    1  0.2165211E+000  0.2617147E+02  0.7546771E-02  0.1644724E+00
          2   -1    0    0  501    0  0.00000000000E+00  0.00000000000E+00  0.58772485219E+02  0.58772485219E+02  0.00000000000E+00 0. -1.
         -2   -1    0    0    0  501 -0.00000000000E+00 -0.00000000000E+00 -0.29135485746E+01  0.29135485746E+01  0.00000000000E+00 0.  1.
        -11    1    1    2    0    0  0.98515349166E+01  0.74544817975E+01  0.17760337981E+02  0.21634501249E+02  0.00000000000E+00 0.  1.
         11    1    1    2    0    0 -0.98515349166E+01 -0.74544817975E+01  0.38098598664E+02  0.40051532545E+02  0.00000000000E+00 0. -1.
<mgrwt>
<rscale>  0 0.26171472E+02</rscale>
<asrwt>0</asrwt>
<pdfrwt beam="1">  1        2 0.90419200E-02 0.26171472E+02</pdfrwt>
<pdfrwt beam="2">  1       -2 0.44823828E-03 0.26171472E+02</pdfrwt>
<totfact> 0.25771571E+06</totfact>
</mgrwt>
</event>
<event>
 4    1  0.2165211E+000  0.3363737E+02  0.7546771E-02  0.1561045E+00
          1   -1    0    0  501    0  0.00000000000E+00  0.00000000000E+00  0.93805922592E+01  0.93805922592E+01  0.00000000000E+00 0.  1.
         -1   -1    0    0    0  501 -0.00000000000E+00 -0.00000000000E+00 -0.30154623703E+02  0.30154623703E+02  0.00000000000E+00 0. -1.
        -11    1    1    2    0    0 -0.73626078024E+01  0.14880469868E+02 -0.13547741473E+02  0.21428431491E+02  0.00000000000E+00 0. -1.
         11    1    1    2    0    0  0.73626078024E+01 -0.14880469868E+02 -0.72262899709E+01  0.18106784471E+02  0.00000000000E+00 0.  1.
<mgrwt>
<rscale>  0 0.33637374E+02</rscale>
<asrwt>0</asrwt>
<pdfrwt beam="1">  1        1 0.14431680E-02 0.33637374E+02</pdfrwt>
<pdfrwt beam="2">  1       -1 0.46391730E-02 0.33637374E+02</pdfrwt>
<totfact> 0.11126655E+06</totfact>
</mgrwt>
</event>
<event>
 4    1  0.2165211E+000  0.4020866E+02  0.7546771E-02  0.1506682E+00
         -3   -1    0    0    0  501 -0.00000000000E+00  0.00000000000E+00  0.37220018282E+01  0.37220018282E+01  0.00000000000E+00 0.  1.
          3   -1    0    0  501    0  0.00000000000E+00 -0.00000000000E+00 -0.10859320719E+03  0.10859320719E+03  0.00000000000E+00 0. -1.
        -13    1    1    2    0    0  0.19397662656E+02  0.30416187452E+01 -0.40368199955E+02  0.44890002548E+02  0.00000000000E+00 0.  1.
         13    1    1    2    0    0 -0.19397662656E+02 -0.30416187452E+01 -0.64503005406E+02  0.67425206470E+02  0.00000000000E+00 0. -1.
<mgrwt>
<rscale>  0 0.40208662E+02</rscale>
<asrwt>0</asrwt>
<pdfrwt beam="2">  1        3 0.16706644E-01 0.40208662E+02</pdfrwt>
<pdfrwt beam="1">  1       -3 0.57261577E-03 0.40208662E+02</pdfrwt>
<totfact> 0.27791140E+05</totfact>
</mgrwt>
</event>
<event>
 4    1  0.2165211E+000  0.5035135E+02  0.7546771E-02  0.1443456E+00
         -2   -1    0    0    0  501 -0.00000000000E+00  0.00000000000E+00  0.25467093450E+02  0.25467093450E+02  0.00000000000E+00 0. -1.
          2   -1    0    0  501    0  0.00000000000E+00 -0.00000000000E+00 -0.24887586367E+02  0.24887586367E+02  0.00000000000E+00 0.  1.
        -11    1    1    2    0    0  0.83070589873E-01  0.11596944166E+02  0.22636668639E+02  0.25434519492E+02  0.00000000000E+00 0. -1.
         11    1    1    2    0    0 -0.83070589873E-01 -0.11596944166E+02 -0.22057161556E+02  0.24920160325E+02  0.00000000000E+00 0.  1.
<mgrwt>
<rscale>  0 0.50351345E+02</rscale>
<asrwt>0</asrwt>
<pdfrwt beam="2">  1        2 0.38288595E-02 0.50351345E+02</pdfrwt>
<pdfrwt beam="1">  1       -2 0.39180144E-02 0.50351345E+02</pdfrwt>
<totfact> 0.44735642E+05</totfact>
</mgrwt>
</event>
<event>
 4    1  0.2165211E+000  0.2109656E+02  0.7546771E-02  0.1724362E+00
          4   -1    0    0  501    0  0.00000000000E+00  0.00000000000E+00  0.31256807856E+02  0.31256807856E+02  0.00000000000E+00 0.  1.
         -4   -1    0    0    0  501 -0.00000000000E+00 -0.00000000000E+00 -0.35597429913E+01  0.35597429913E+01  0.00000000000E+00 0. -1.
        -13    1    1    2    0    0 -0.10465092837E+02  0.88333781540E+00  0.12225020592E+02  0.16116748502E+02  0.00000000000E+00 0. -1.
         13    1    1    2    0    0  0.10465092837E+02 -0.88333781540E+00  0.15472044272E+02  0.18699802345E+02  0.00000000000E+00 0.  1.
<mgrwt>
<rscale>  0 0.21096559E+02</rscale>
<asrwt>0</asrwt>
<pdfrwt beam="1">  1        4 0.48087395E-02 0.21096559E+02</pdfrwt>
<pdfrwt beam="2">  1       -4 0.54765279E-03 0.21096559E+02</pdfrwt>
<totfact> 0.10944887E+06</totfact>
</mgrwt>
</event>
<event>
 4    1  0.2165211E+000  0.3643852E+02  0.7546771E-02  0.1536185E+00
         -2   -1    0    0    0  501 -0.00000000000E+00  0.00000000000E+00  0.73534682424E+02  0.73534682424E+02  0.00000000000E+00 0. -1.
          2   -1    0    0  501    0  0.00000000000E+00 -0.00000000000E+00 -0.45140798806E+01  0.45140798806E+01  0.00000000000E+00 0.  1.
        -11    1    1    2    0    0  0.68032986124E+01  0.16105589504E+02  0.23532717215E+02  0.29316610732E+02  0.00000000000E+00 0. -1.
         11    1    1    2    0    0 -0.68032986124E+01 -0.16105589504E+02  0.45487885328E+02  0.48732151573E+02  0.00000000000E+00 0.  1.
<mgrwt>
<rscale>  0 0.36438520E+02</rscale>
<asrwt>0</asrwt>
<pdfrwt beam="2">  1        2 0.69447388E-03 0.36438520E+02</pdfrwt>
<pdfrwt beam="1">  1       -2 0.11313027E-01 0.36438520E+02</pdfrwt>
<totfact> 0.80881441E+05</totfact>
</mgrwt>
</event>
<event>
 4    1  0.2165211E+000  0.2579406E+02  0.7546771E-02  0.1649852E+00
          4   -1    0    0  501    0  0.00000000000E+00  0.00000000000E+00  0.13565706917E+02  0.13565706917E+02  0.00000000000E+00 0. -1.
         -4   -1    0    0    0  501 -0.00000000000E+00 -0.00000000000E+00 -0.12261312865E+02  0.12261312865E+02  0.00000000000E+00 0.  1.
        -13    1    1    2    0    0 -0.11042266874E+02  0.36887665504E+01 -0.49041930863E+01  0.12632884319E+02  0.00000000000E+00 0. -1.
         13    1    1    2    0    0  0.11042266874E+02 -0.36887665504E+01  0.62085871379E+01  0.13194135464E+02  0.00000000000E+00 0.  1.
<mgrwt>
<rscale>  0 0.25794060E+02</rscale>
<asrwt>0</asrwt>
<pdfrwt beam="1">  1        4 0.20870318E-02 0.25794060E+02</pdfrwt>
<pdfrwt beam="2">  1       -4 0.18863558E-02 0.25794060E+02</pdfrwt>
<totfact> 0.74023598E+05</totfact>
</mgrwt>
</event>
<event>
 4    1  0.2165211E+000  0.2634896E+02  0.7546771E-02  0.1642350E+00
         -3   -1    0    0    0  501 -0.00000000000E+00  0.00000000000E+00  0.80663787656E+01  0.80663787656E+01  0.00000000000E+00 0. -1.
          3   -1    0    0  501    0  0.00000000000E+00 -0.00000000000E+00 -0.21517323760E+02  0.21517323760E+02  0.00000000000E+00 0.  1.
        -13    1    1    2    0    0  0.29190499710E+01  0.10706917284E+02  0.12460014187E+01  0.11167428083E+02  0.00000000000E+00 0.  1.
         13    1    1    2    0    0 -0.29190499710E+01 -0.10706917284E+02 -0.14696946413E+02  0.18416274443E+02  0.00000000000E+00 0. -1.
<mgrwt>
<rscale>  0 0.26348957E+02</rscale>
<asrwt>0</asrwt>
<pdfrwt beam="2">  1        3 0.33103575E-02 0.26348957E+02</pdfrwt>
<pdfrwt beam="1">  1       -3 0.12409814E-02 0.26348957E+02</pdfrwt>
<totfact> 0.93792336E+05</totfact>
</mgrwt>
</event>
<event>
 4    1  0.2165211E+000  0.2195754E+02  0.7546771E-02  0.1708987E+00
          2   -1    0    0  501    0  0.00000000000E+00  0.00000000000E+00  0.20068056340E+01  0.20068056340E+01  0.00000000000E+00 0. -1.
         -2   -1    0    0    0  501 -0.00000000000E+00 -0.00000000000E+00 -0.60062300567E+02  0.60062300567E+02  0.00000000000E+00 0.  1.
        -11    1    1    2    0    0 -0.10797771493E+02  0.16933994217E+01 -0.26098390945E+02  0.28294619290E+02  0.00000000000E+00 0. -1.
         11    1    1    2    0    0  0.10797771493E+02 -0.16933994217E+01 -0.31957103988E+02  0.33774486911E+02  0.00000000000E+00 0.  1.
<mgrwt>
<rscale>  0 0.21957537E+02</rscale>
<asrwt>0</asrwt>
<pdfrwt beam="1">  1        2 0.30873936E-03 0.21957537E+02</pdfrwt>
<pdfrwt beam="2">  1       -2 0.92403528E-02 0.21957537E+02</pdfrwt>
<totfact> 0.26827581E+06</totfact>
</mgrwt>
</event>
<event>
 4    1  0.2165211E+000  0.2494999E+02  0.7546771E-02  0.1661721E+00
          2   -1    0    0  501    0  0.00000000000E+00  0.00000000000E+00  0.41726757195E+02  0.41726757195E+02  0.00000000000E+00 0.  1.
         -2   -1    0    0    0  501 -0.00000000000E+00 -0.00000000000E+00 -0.37296332634E+01  0.37296332634E+01  0.00000000000E+00 0. -1.
        -13    1    1    2    0    0 -0.10482096559E+02  0.47137465446E+01  0.27836514259E+02  0.30115864272E+02  0.00000000000E+00 0. -1.
         13    1    1    2    0    0  0.10482096559E+02 -0.47137465446E+01  0.10160609673E+02  0.15340526187E+02  0.00000000000E+00 0.  1.
<mgrwt>
<rscale>  0 0.24949990E+02</rscale>
<asrwt>0</asrwt>
<pdfrwt beam="1">  1        2 0.64195008E-02 0.24949990E+02</pdfrwt>
<pdfrwt beam="2">  1       -2 0.57378976E-03 0.24949990E+02</pdfrwt>
<totfact> 0.27285998E+06</totfact>
</mgrwt>
</event>
<event>
 4    1  0.2165211E+000  0.2143501E+02  0.7546771E-02  0.1718210E+00
         -2   -1    0    0    0  501 -0.00000000000E+00  0.00000000000E+00  0.16413384757E+02  0.16413384757E+02  0.00000000000E+00 0. -1.
          2   -1    0    0  501    0  0.00000000000E+00 -0.00000000000E+00 -0.69982462091E+01  0.69982462091E+01  0.00000000000E+00 0.  1.
        -13    1    1    2    0    0  0.10442959338E+02 -0.40585525936E+00  0.21126021338E+01  0.10662232693E+02  0.00000000000E+00 0.  1.
         13    1    1    2    0    0 -0.10442959338E+02  0.40585525936E+00  0.73025364137E+01  0.12749398272E+02  0.00000000000E+00 0. -1.
<mgrwt>
<rscale>  0 0.21435009E+02</rscale>
<asrwt>0</asrwt>
<pdfrwt beam="2">  1        2 0.10766533E-02 0.21435009E+02</pdfrwt>
<pdfrwt beam="1">  1       -2 0.25251361E-02 0.21435009E+02</pdfrwt>
<totfact> 0.32711112E+06</totfact>
</mgrwt>
</event>
<event>
 4    1  0.2165211E+000  0.5459628E+02  0.7546771E-02  0.1422018E+00
         -2   -1    0    0    0  501 -0.00000000000E+00  0.00000000000E+00  0.11607351994E+03  0.11607351994E+03  0.00000000000E+00 0.  1.
          2   -1    0    0  501    0  0.00000000000E+00 -0.00000000000E+00 -0.64199692174E+01  0.64199692174E+01  0.00000000000E+00 0. -1.
        -13    1    1    2    0    0  0.14140986936E+02  0.14305242251E+02  0.96232476273E+02  0.98312242153E+02  0.00000000000E+00 0.  1.
         13    1    1    2    0    0 -0.14140986936E+02 -0.14305242251E+02  0.13421074453E+02  0.24181247008E+02  0.00000000000E+00 0. -1.
<mgrwt>
<rscale>  0 0.54596279E+02</rscale>
<asrwt>0</asrwt>
<pdfrwt beam="2">  1        2 0.98768766E-03 0.54596279E+02</pdfrwt>
<pdfrwt beam="1">  1       -2 0.17857463E-01 0.54596279E+02</pdfrwt>
<totfact> 0.27344904E+05</totfact>
</mgrwt>
</event>
<event>
 4    1  0.2165211E+000  0.4073462E+02  0.7546771E-02  0.1502874E+00
         -1   -1    0    0    0  501 -0.00000000000E+00  0.00000000000E+00  0.12160213613E+02  0.12160213613E+02  0.00000000000E+00 0.  1.
          1   -1    0    0  501    0  0.00000000000E+00 -0.00000000000E+00 -0.34113495469E+02  0.34113495469E+02  0.00000000000E+00 0. -1.
        -11    1    1    2    0    0  0.17252565546E+02 -0.17707674020E+01 -0.23107753943E+02  0.28892125699E+02  0.00000000000E+00 0. -1.
         11    1    1    2    0    0 -0.17252565546E+02  0.17707674020E+01  0.11544720872E+01  0.17381583383E+02  0.00000000000E+00 0.  1.
<mgrwt>
<rscale>  0 0.40734624E+02</rscale>
<asrwt>0</asrwt>
<pdfrwt beam="2">  1        1 0.52482301E-02 0.40734624E+02</pdfrwt>
<pdfrwt beam="1">  1       -1 0.18708021E-02 0.40734624E+02</pdfrwt>
<totfact> 0.75657715E+05</totfact>
</mgrwt>
</event>
<event>
 4    1  0.2165211E+000  0.3954571E+02  0.7546771E-02  0.1511581E+00
          2   -1    0    0  501    0  0.00000000000E+00  0.00000000000E+00  0.31060995575E+01  0.31060995575E+01  0.00000000000E+00 0. -1.
         -2   -1    0    0    0  501 -0.00000000000E+00 -0.00000000000E+00 -0.12587033239E+03  0.12587033239E+03  0.00000000000E+00 0.  1.
        -13    1    1    2    0    0  0.87076326336E+01  0.14202516403E+02 -0.26646283233E+02  0.31425447465E+02  0.00000000000E+00 0. -1.
         13    1    1    2    0    0 -0.87076326336E+01 -0.14202516403E+02 -0.96117949598E+02  0.97550984481E+02  0.00000000000E+00 0.  1.
<mgrwt>
<rscale>  0 0.39545709E+02</rscale>
<asrwt>0</asrwt>
<pdfrwt beam="1">  1        2 0.47786151E-03 0.39545709E+02</pdfrwt>
<pdfrwt beam="2">  1       -2 0.19364665E-01 0.39545709E+02</pdfrwt>
<totfact> 0.58509134E+05</totfact>
</mgrwt>
</event>
<event>
 4    1  0.2165211E+000  0.2473009E+02  0.7546771E-02  0.1664909E+00
         -2   -1    0    0    0  501 -0.00000000000E+00  0.00000000000E+00  0.44084276133E+01  0.44084276133E+01  0.00000000000E+00 0.  1.
          2   -1    0    0  501    0  0.00000000000E+00 -0.00000000000E+00 -0.34682295574E+02  0.34682295574E+02  0.00000000000E+00 0. -1.
        -13    1    1    2    0    0  0.55311763179E+01  0.10707518093E+02 -0.10765082158E+02  0.16159574532E+02  0.00000000000E+00 0. -1.
         13    1    1    2    0    0 -0.55311763179E+01 -0.10707518093E+02 -0.19508785803E+02  0.22931148656E+02  0.00000000000E+00 0.  1.
<mgrwt>
<rscale>  0 0.24730094E+02</rscale>
<asrwt>0</asrwt>
<pdfrwt beam="2">  1        2 0.53357376E-02 0.24730094E+02</pdfrwt>
<pdfrwt beam="1">  1       -2 0.67821965E-03 0.24730094E+02</pdfrwt>
<totfact> 0.27172997E+06</totfact>
</mgrwt>
</event>
<event>
 4    1  0.2165211E+000  0.2375411E+02  0.7546771E-02  0.1679570E+00
         -2   -1    0    0    0  501 -0.00000000000E+00  0.00000000000E+00  0.56301059081E+02  0.56301059081E+02  0.00000000000E+00 0.  1.
          2   -1    0    0  501    0  0.00000000000E+00 -0.00000000000E+00 -0.25055388778E+01  0.25055388778E+01  0.00000000000E+00 0. -1.
        -11    1    1    2    0    0  0.80257922488E+01 -0.82783051783E+01  0.19842922824E+02  0.22949624486E+02  0.00000000000E+00 0. -1.
         11    1    1    2    0    0 -0.80257922488E+01  0.82783051783E+01  0.33952597379E+02  0.35856973472E+02  0.00000000000E+00 0.  1.
<mgrwt>
<rscale>  0 0.23754115E+02</rscale>
<asrwt>0</asrwt>
<pdfrwt beam="2">  1        2 0.38546756E-03 0.23754115E+02</pdfrwt>
<pdfrwt beam="1">  1       -2 0.86617004E-02 0.23754115E+02</pdfrwt>
<totfact> 0.22746727E+06</totfact>
</mgrwt>
</event>
<event>
 4    1  0.2165211E+000  0.2957190E+02  0.7546771E-02  0.1602870E+00
         -2   -1    0    0    0  501 -0.00000000000E+00  0.00000000000E+00  0.27245081930E+01  0.27245081930E+01  0.00000000000E+00 0. -1.
          2   -1    0    0  501    0  0.00000000000E+00 -0.00000000000E+00 -0.80243585236E+02  0.80243585236E+02  0.00000000000E+00 0.  1.
        -13    1    1    2    0    0 -0.39474541316E+01 -0.13319368396E+02 -0.24553928835E+02  0.28211405314E+02  0.00000000000E+00 0.  1.
         13    1    1    2    0    0  0.39474541316E+01  0.13319368396E+02 -0.52965148209E+02  0.54756688115E+02  0.00000000000E+00 0. -1.
<mgrwt>
<rscale>  0 0.29571899E+02</rscale>
<asrwt>0</asrwt>
<pdfrwt beam="2">  1        2 0.12345166E-01 0.29571899E+02</pdfrwt>
<pdfrwt beam="1">  1       -2 0.41915515E-03 0.29571899E+02</pdfrwt>
<totfact> 0.20562418E+06</totfact>
</mgrwt>
</event>
<event>
 4    1  0.2165211E+000  0.2395004E+02  0.7546771E-02  0.1676557E+00
          1   -1    0    0  501    0  0.00000000000E+00  0.00000000000E+00  0.23446671494E+02  0.23446671494E+02  0.00000000000E+00 0. -1.
         -1   -1    0    0    0  501 -0.00000000000E+00 -0.00000000000E+00 -0.61160562319E+01  0.61160562319E+01  0.00000000000E+00 0.  1.
        -11    1    1    2    0    0  0.11779885533E+02  0.14623663671E+01  0.10615791963E+02  0.15924800079E+02  0.00000000000E+00 0.  1.
         11    1    1    2    0    0 -0.11779885533E+02 -0.14623663671E+01  0.67148232992E+01  0.13637927647E+02  0.00000000000E+00 0. -1.
<mgrwt>
<rscale>  0 0.23950045E+02</rscale>
<asrwt>0</asrwt>
<pdfrwt beam="1">  1        1 0.36071802E-02 0.23950045E+02</pdfrwt>
<pdfrwt beam="2">  1       -1 0.94093174E-03 0.23950045E+02</pdfrwt>
<totfact> 0.26525887E+06</totfact>
</mgrwt>
</event>
<event>
 4    1  0.2165211E+000  0.3493300E+02  0.7546771E-02  0.1549196E+00
          2   -1    0    0  501    0  0.00000000000E+00  0.00000000000E+00  0.99618498754E+01  0.99618498754E+01  0.00000000000E+00 0.  1.
         -2   -1    0    0    0  501 -0.00000000000E+00 -0.00000000000E+00 -0.30624690903E+02  0.30624690903E+02  0.00000000000E+00 0. -1.
        -13    1    1    2    0    0 -0.38499307771E+01  0.16958719362E+02 -0.12225769270E+02  0.21257694221E+02  0.00000000000E+00 0.  1.
         13    1    1    2    0    0  0.38499307771E+01 -0.16958719362E+02 -0.84370717579E+01  0.19328846557E+02  0.00000000000E+00 0. -1.
<mgrwt>
<rscale>  0 0.34932997E+02</rscale>
<asrwt>0</asrwt>
<pdfrwt beam="1">  1        2 0.15325923E-02 0.34932997E+02</pdfrwt>
<pdfrwt beam="2">  1       -2 0.47114909E-02 0.34932997E+02</pdfrwt>
<totfact> 0.10219655E+06</totfact>
</mgrwt>
</event>
<event>
 4    1  0.2165211E+000  0.1632926E+03  0.7546771E-02  0.1185029E+00
          2   -1    0    0  501    0  0.00000000000E+00  0.00000000000E+00  0.15977494313E+03  0.15977494313E+03  0.00000000000E+00 0.  1.
         -2   -1    0    0    0  501 -0.00000000000E+00 -0.00000000000E+00 -0.41721907447E+02  0.41721907447E+02  0.00000000000E+00 0. -1.
        -13    1    1    2    0    0  0.76226664741E+02 -0.27154074624E+02  0.45607089456E+02  0.92886246532E+02  0.00000000000E+00 0. -1.
         13    1    1    2    0    0 -0.76226664741E+02  0.27154074624E+02  0.72445946228E+02  0.10861060405E+03  0.00000000000E+00 0.  1.
<mgrwt>
<rscale>  0 0.16329256E+03</rscale>
<asrwt>0</asrwt>
<pdfrwt beam="1">  1        2 0.24580760E-01 0.16329256E+03</pdfrwt>
<pdfrwt beam="2">  1       -2 0.64187551E-02 0.16329256E+03</pdfrwt>
<totfact> 0.27531334E+04</totfact>
</mgrwt>
</event>
<event>
 4    1  0.2165211E+000  0.3473753E+02  0.7546771E-02  0.1550944E+00
         -1   -1    0    0    0  501 -0.00000000000E+00  0.00000000000E+00  0.54698653379E+02  0.54698653379E+02  0.00000000000E+00 0.  1.
          1   -1    0    0  501    0  0.00000000000E+00 -0.00000000000E+00 -0.55151999364E+01  0.55151999364E+01  0.00000000000E+00 0. -1.
        -11    1    1    2    0    0 -0.17126132750E+02 -0.25776020085E+01  0.22314733041E+02  0.28247048797E+02  0.00000000000E+00 0. -1.
         11    1    1    2    0    0  0.17126132750E+02  0.25776020085E+01  0.26868720402E+02  0.31966804518E+02  0.00000000000E+00 0.  1.
<mgrwt>
<rscale>  0 0.34737531E+02</rscale>
<asrwt>0</asrwt>
<pdfrwt beam="2">  1        1 0.84849234E-03 0.34737531E+02</pdfrwt>
<pdfrwt beam="1">  1       -1 0.84151771E-02 0.34737531E+02</pdfrwt>
<totfact> 0.97658901E+05</totfact>
</mgrwt>
</event>
<event>
 4    1  0.2165211E+000  0.2193600E+02  0.7546771E-02  0.1709361E+00
         -1   -1    0    0    0  501 -0.00000000000E+00  0.00000000000E+00  0.36953611308E+02  0.36953611308E+02  0.00000000000E+00 0. -1.
          1   -1    0    0  501    0  0.00000000000E+00 -0.00000000000E+00 -0.32553528734E+01  0.32553528734E+01  0.00000000000E+00 0.  1.
        -13    1    1    2    0    0  0.26095735165E+01 -0.10629308213E+02  0.18151700580E+02  0.21196138822E+02  0.00000000000E+00 0.  1.
         13    1    1    2    0    0 -0.26095735165E+01  0.10629308213E+02  0.15546557854E+02  0.19012825359E+02  0.00000000000E+00 0. -1.
<mgrwt>
<rscale>  0 0.21936002E+02</rscale>
<asrwt>0</asrwt>
<pdfrwt beam="2">  1        1 0.50082354E-03 0.21936002E+02</pdfrwt>
<pdfrwt beam="1">  1       -1 0.56851707E-02 0.21936002E+02</pdfrwt>
<totfact> 0.29255456E+06</totfact>
</mgrwt>
</event>
<event>
 4    1  0.2165211E+000  0.2911426E+02  0.7546771E-02  0.1608091E+00
          2   -1    0    0  501    0  0.00000000000E+00  0.00000000000E+00  0.56279161040E+02  0.56279161040E+02  0.00000000000E+00 0. -1.
         -2   -1    0    0    0  501 -0.00000000000E+00 -0.00000000000E+00 -0.37653378858E+01  0.37653378858E+01  0.00000000000E+00 0.  1.
        -13    1    1    2    0    0  0.90499248981E+01 -0.98561329681E+01  0.14433631979E+02  0.19681824861E+02  0.00000000000E+00 0.  1.
         13    1    1    2    0    0 -0.90499248981E+01  0.98561329681E+01  0.38080191175E+02  0.40362674065E+02  0.00000000000E+00 0. -1.
<mgrwt>
<rscale>  0 0.29114262E+02</rscale>
<asrwt>0</asrwt>
<pdfrwt beam="1">  1        2 0.86583319E-02 0.29114262E+02</pdfrwt>
<pdfrwt beam="2">  1       -2 0.57928279E-03 0.29114262E+02</pdfrwt>
<totfact> 0.19918447E+06</totfact>
</mgrwt>
</event>
<event>
 4    1  0.2165211E+000  0.6246746E+02  0.7546771E-02  0.1387759E+00
         -2   -1    0    0    0  501 -0.00000000000E+00  0.00000000000E+00  0.30208687837E+01  0.30208687837E+01  0.00000000000E+00 0.  1.
          2   -1    0    0  501    0  0.00000000000E+00 -0.00000000000E+00 -0.32293551720E+03  0.32293551720E+03  0.00000000000E+00 0. -1.
        -13    1    1    2    0    0 -0.28624716199E+02  0.11492658455E+02 -0.13434633875E+03  0.13784191783E+03  0.00000000000E+00 0. -1.
         13    1    1    2    0    0  0.28624716199E+02 -0.11492658455E+02 -0.18556830967E+03  0.18811446816E+03  0.00000000000E+00 0.  1.
<mgrwt>
<rscale>  0 0.62467458E+02</rscale>
<asrwt>0</asrwt>
<pdfrwt beam="2">  1        2 0.49682389E-01 0.62467458E+02</pdfrwt>
<pdfrwt beam="1">  1       -2 0.46474903E-03 0.62467458E+02</pdfrwt>
<totfact> 0.49521770E+05</totfact>
</mgrwt>
</event>
<event>
 4    1  0.2165211E+000  0.9535164E+02  0.7546771E-02  0.1290386E+00
         -2   -1    0    0    0  501 -0.00000000000E+00  0.00000000000E+00  0.51552309789E+01  0.51552309789E+01  0.00000000000E+00 0.  1.
          2   -1    0    0  501    0  0.00000000000E+00 -0.00000000000E+00 -0.44090823361E+03  0.44090823361E+03  0.00000000000E+00 0. -1.
        -13    1    1    2    0    0 -0.31444433861E+02 -0.34543812221E+02 -0.26249193542E+03  0.26661591015E+03  0.00000000000E+00 0.  1.
         13    1    1    2    0    0  0.31444433861E+02  0.34543812221E+02 -0.17326106721E+03  0.17944755444E+03  0.00000000000E+00 0. -1.
<mgrwt>
<rscale>  0 0.95351639E+02</rscale>
<asrwt>0</asrwt>
<pdfrwt beam="2">  1        2 0.67832047E-01 0.95351639E+02</pdfrwt>
<pdfrwt beam="1">  1       -2 0.79311233E-03 0.95351639E+02</pdfrwt>
<totfact> 0.18340250E+05</totfact>
</mgrwt>
</event>
<event>
 4    1  0.2165211E+000  0.2592874E+02  0.7546771E-02  0.1648010E+00
          4   -1    0    0  501    0  0.00000000000E+00  0.00000000000E+00  0.12158769446E+02  0.12158769446E+02  0.00000000000E+00 0. -1.
         -4   -1    0    0    0  501 -0.00000000000E+00 -0.00000000000E+00 -0.13823341863E+02  0.13823341863E+02  0.00000000000E+00 0.  1.
        -11    1    1    2    0    0  0.97634811145E+01  0.83703994374E+01  0.80989074964E+00  0.12885847789E+02  0.00000000000E+00 0. -1.
         11    1    1    2    0    0 -0.97634811145E+01 -0.83703994374E+01 -0.24744631668E+01  0.13096263520E+02  0.00000000000E+00 0.  1.
<mgrwt>
<rscale>  0 0.25928735E+02</rscale>
<asrwt>0</asrwt>
<pdfrwt beam="1">  1        4 0.18705799E-02 0.25928735E+02</pdfrwt>
<pdfrwt beam="2">  1       -4 0.21266680E-02 0.25928735E+02</pdfrwt>
<totfact> 0.73137340E+05</totfact>
</mgrwt>
</event>
<event>
 4    1  0.2165211E+000  0.5170999E+02  0.7546771E-02  0.1436331E+00
         -2   -1    0    0    0  501 -0.00000000000E+00  0.00000000000E+00  0.12172609291E+03  0.12172609291E+03  0.00000000000E+00 0.  1.
          2   -1    0    0  501    0  0.00000000000E+00 -0.00000000000E+00 -0.54916804127E+01  0.54916804127E+01  0.00000000000E+00 0. -1.
        -11    1    1    2    0    0  0.75805631011E+01 -0.16116801849E+02  0.12007697690E+02  0.21480247731E+02  0.00000000000E+00 0. -1.
         11    1    1    2    0    0 -0.75805631011E+01  0.16116801849E+02  0.10422671481E+03  0.10573752559E+03  0.00000000000E+00 0.  1.
<mgrwt>
<rscale>  0 0.51709991E+02</rscale>
<asrwt>0</asrwt>
<pdfrwt beam="2">  1        2 0.84487400E-03 0.51709991E+02</pdfrwt>
<pdfrwt beam="1">  1       -2 0.18727089E-01 0.51709991E+02</pdfrwt>
<totfact> 0.30830817E+05</totfact>
</mgrwt>
</event>
<event>
 4    1  0.2165211E+000  0.2301748E+02  0.7546771E-02  0.1691227E+00
         -2   -1    0    0    0  501 -0.00000000000E+00  0.00000000000E+00  0.59858530885E+01  0.59858530885E+01  0.00000000000E+00 0. -1.
          2   -1    0    0  501    0  0.00000000000E+00 -0.00000000000E+00 -0.22127364238E+02  0.22127364238E+02  0.00000000000E+00 0.  1.
        -11    1    1    2    0    0  0.84487847822E+01  0.77446446828E+01 -0.67957872786E+01  0.13324571674E+02  0.00000000000E+00 0. -1.
         11    1    1    2    0    0 -0.84487847822E+01 -0.77446446828E+01 -0.93457238706E+01  0.14788645652E+02  0.00000000000E+00 0.  1.
<mgrwt>
<rscale>  0 0.23017485E+02</rscale>
<asrwt>0</asrwt>
<pdfrwt beam="2">  1        2 0.34042098E-02 0.23017485E+02</pdfrwt>
<pdfrwt beam="1">  1       -2 0.92090049E-03 0.23017485E+02</pdfrwt>
<totfact> 0.30521651E+06</totfact>
</mgrwt>
</event>
<event>
 4    1  0.2165211E+000  0.6516091E+02  0.7546771E-02  0.1377367E+00
          2   -1    0    0  501    0  0.00000000000E+00  0.00000000000E+00  0.24696648324E+03  0.24696648324E+03  0.00000000000E+00 0.  1.
         -2   -1    0    0    0  501 -0.00000000000E+00 -0.00000000000E+00 -0.42980978019E+01  0.42980978019E+01  0.00000000000E+00 0. -1.
        -13    1    1    2    0    0 -0.70742634171E+01  0.31251772033E+02  0.14407111789E+03  0.14759134618E+03  0.00000000000E+00 0. -1.
         13    1    1    2    0    0  0.70742634171E+01 -0.31251772033E+02  0.98597267550E+02  0.10367323486E+03  0.00000000000E+00 0.  1.
<mgrwt>
<rscale>  0 0.65160912E+02</rscale>
<asrwt>0</asrwt>
<pdfrwt beam="1">  1        2 0.37994833E-01 0.65160912E+02</pdfrwt>
<pdfrwt beam="2">  1       -2 0.66124601E-03 0.65160912E+02</pdfrwt>
<totfact> 0.40387944E+05</totfact>
</mgrwt>
</event>
<event>
 4    1  0.2165211E+000  0.1024311E+03  0.7546771E-02  0.1275265E+00
          2   -1    0    0  501    0  0.00000000000E+00  0.00000000000E+00  0.23469577032E+03  0.23469577032E+03  0.00000000000E+00 0.  1.
         -2   -1    0    0    0  501 -0.00000000000E+00 -0.00000000000E+00 -0.11176303039E+02  0.11176303039E+02  0.00000000000E+00 0. -1.
        -11    1    1    2    0    0 -0.42728174122E+02  0.27514895183E+02  0.96528331344E+02  0.10908934445E+03  0.00000000000E+00 0. -1.
         11    1    1    2    0    0  0.42728174122E+02 -0.27514895183E+02  0.12699113594E+03  0.13678272891E+03  0.00000000000E+00 0.  1.
<mgrwt>
<rscale>  0 0.10243107E+03</rscale>
<asrwt>0</asrwt>
<pdfrwt beam="1">  1        2 0.36107038E-01 0.10243107E+03</pdfrwt>
<pdfrwt beam="2">  1       -2 0.17194314E-02 0.10243107E+03</pdfrwt>
<totfact> 0.11974546E+05</totfact>
</mgrwt>
</event>
<event>
 4    1  0.2165211E+000  0.2843589E+02  0.7546771E-02  0.1616050E+00
         -2   -1    0    0    0  501 -0.00000000000E+00  0.00000000000E+00  0.35344291068E+02  0.35344291068E+02  0.00000000000E+00 0. -1.
          2   -1    0    0  501    0  0.00000000000E+00 -0.00000000000E+00 -0.57194501923E+01  0.57194501923E+01  0.00000000000E+00 0.  1.
        -11    1    1    2    0    0  0.84071226361E+01 -0.10008483026E+02  0.22891598163E+02  0.26360476285E+02  0.00000000000E+00 0. -1.
         11    1    1    2    0    0 -0.84071226361E+01  0.10008483026E+02  0.67332427123E+01  0.14703264975E+02  0.00000000000E+00 0.  1.
<mgrwt>
<rscale>  0 0.28435887E+02</rscale>
<asrwt>0</asrwt>
<pdfrwt beam="2">  1        2 0.87991544E-03 0.28435887E+02</pdfrwt>
<pdfrwt beam="1">  1       -2 0.54375831E-02 0.28435887E+02</pdfrwt>
<totfact> 0.16128328E+06</totfact>
</mgrwt>
</event>
<event>
 4    1  0.2165211E+000  0.3627153E+02  0.7546771E-02  0.1537591E+00
          2   -1    0    0  501    0  0.00000000000E+00  0.00000000000E+00  0.59882759027E+02  0.59882759027E+02  0.00000000000E+00 0. -1.
         -2   -1    0    0    0  501 -0.00000000000E+00 -0.00000000000E+00 -0.54924983034E+01  0.54924983034E+01  0.00000000000E+00 0.  1.
        -11    1    1    2    0    0  0.15259227673E+02  0.25051105180E+01  0.10116513562E+02  0.18478729787E+02  0.00000000000E+00 0.  1.
         11    1    1    2    0    0 -0.15259227673E+02 -0.25051105180E+01  0.44273747161E+02  0.46896527543E+02  0.00000000000E+00 0. -1.
<mgrwt>
<rscale>  0 0.36271529E+02</rscale>
<asrwt>0</asrwt>
<pdfrwt beam="1">  1        2 0.92127317E-02 0.36271529E+02</pdfrwt>
<pdfrwt beam="2">  1       -2 0.84499978E-03 0.36271529E+02</pdfrwt>
<totfact> 0.11869872E+06</totfact>
</mgrwt>
</event>
<event>
 4    1  0.2165211E+000  0.3869095E+02  0.7546771E-02  0.1518072E+00
          2   -1    0    0  501    0  0.00000000000E+00  0.00000000000E+00  0.13121528600E+02  0.13121528600E+02  0.00000000000E+00 0. -1.
         -2   -1    0    0    0  501 -0.00000000000E+00 -0.00000000000E+00 -0.28521635033E+02  0.28521635033E+02  0.00000000000E+00 0.  1.
        -13    1    1    2    0    0 -0.61800734705E+01 -0.94539705574E+01  0.92042882314E+01  0.14570167784E+02  0.00000000000E+00 0. -1.
         13    1    1    2    0    0  0.61800734705E+01  0.94539705574E+01 -0.24604394665E+02  0.27072995848E+02  0.00000000000E+00 0.  1.
<mgrwt>
<rscale>  0 0.38690952E+02</rscale>
<asrwt>0</asrwt>
<pdfrwt beam="1">  1        2 0.20186967E-02 0.38690952E+02</pdfrwt>
<pdfrwt beam="2">  1       -2 0.43879438E-02 0.38690952E+02</pdfrwt>
<totfact> 0.81325594E+05</totfact>
</mgrwt>
</event>
<event>
 4    1  0.2165211E+000  0.2262127E+02  0.7546771E-02  0.1697724E+00
         -3   -1    0    0    0  501 -0.00000000000E+00  0.00000000000E+00  0.53926972086E+01  0.53926972086E+01  0.00000000000E+00 0.  1.
          3   -1    0    0  501    0  0.00000000000E+00 -0.00000000000E+00 -0.23722913555E+02  0.23722913555E+02  0.00000000000E+00 0. -1.
        -13    1    1    2    0    0 -0.99329750647E+01 -0.24536232729E+01 -0.15370727528E+02  0.18464656117E+02  0.00000000000E+00 0. -1.
         13    1    1    2    0    0  0.99329750647E+01  0.24536232729E+01 -0.29594888184E+01  0.10650954646E+02  0.00000000000E+00 0.  1.
<mgrwt>
<rscale>  0 0.22621272E+02</rscale>
<asrwt>0</asrwt>
<pdfrwt beam="2">  1        3 0.36496790E-02 0.22621272E+02</pdfrwt>
<pdfrwt beam="1">  1       -3 0.82964573E-03 0.22621272E+02</pdfrwt>
<totfact> 0.13232089E+06</totfact>
</mgrwt>
</event>
<event>
 4    1  0.2165211E+000  0.2041907E+02  0.7546771E-02  0.1737121E+00
          2   -1    0    0  501    0  0.00000000000E+00  0.00000000000E+00  0.60200820875E+02  0.60200820875E+02  0.00000000000E+00 0.  1.
         -2   -1    0    0    0  501 -0.00000000000E+00 -0.00000000000E+00 -0.17314477145E+01  0.17314477145E+01  0.00000000000E+00 0. -1.
        -11    1    1    2    0    0 -0.55329071759E+01  0.83744113470E+01  0.23567855718E+02  0.25616159946E+02  0.00000000000E+00 0. -1.
         11    1    1    2    0    0  0.55329071759E+01 -0.83744113470E+01  0.34901517443E+02  0.36316108644E+02  0.00000000000E+00 0.  1.
<mgrwt>
<rscale>  0 0.20419067E+02</rscale>
<asrwt>0</asrwt>
<pdfrwt beam="1">  1        2 0.92616631E-02 0.20419067E+02</pdfrwt>
<pdfrwt beam="2">  1       -2 0.26637662E-03 0.20419067E+02</pdfrwt>
<totfact> 0.45571104E+06</totfact>
</mgrwt>
</event>
<event>
 4    1  0.2165211E+000  0.3017867E+02  0.7546771E-02  0.1596122E+00
         -2   -1    0    0    0  501 -0.00000000000E+00  0.00000000000E+00  0.47889304144E+01  0.47889304144E+01  0.00000000000E+00 0.  1.
          2   -1    0    0  501    0  0.00000000000E+00 -0.00000000000E+00 -0.47544643656E+02  0.47544643656E+02  0.00000000000E+00 0. -1.
        -11    1    1    2    0    0  0.75436843090E+01 -0.84557763386E+01 -0.40990925837E+01  0.12050306488E+02  0.00000000000E+00 0.  1.
         11    1    1    2    0    0 -0.75436843090E+01  0.84557763386E+01 -0.38656620658E+02  0.40283267583E+02  0.00000000000E+00 0. -1.
<mgrwt>
<rscale>  0 0.30178667E+02</rscale>
<asrwt>0</asrwt>
<pdfrwt beam="2">  1        2 0.73145603E-02 0.30178667E+02</pdfrwt>
<pdfrwt beam="1">  1       -2 0.73675856E-03 0.30178667E+02</pdfrwt>
<totfact> 0.17781677E+06</totfact>
</mgrwt>
</event>
<event>
 4    1  0.2165211E+000  0.5348147E+02  0.7546771E-02  0.1427420E+00
         -3   -1    0    0    0  501 -0.00000000000E+00  0.00000000000E+00  0.15574149859E+02  0.15574149859E+02  0.00000000000E+00 0.  1.
          3   -1    0    0  501    0  0.00000000000E+00 -0.00000000000E+00 -0.45913705945E+02  0.45913705945E+02  0.00000000000E+00 0. -1.
        -11    1    1    2    0    0 -0.20136428111E+02 -0.11539958757E+02 -0.30440535949E+02  0.38278879477E+02  0.00000000000E+00 0. -1.
         11    1    1    2    0    0  0.20136428111E+02  0.11539958757E+02  0.10097986218E+00  0.23208976327E+02  0.00000000000E+00 0.  1.
<mgrwt>
<rscale>  0 0.53481471E+02</rscale>
<asrwt>0</asrwt>
<pdfrwt beam="2">  1        3 0.70636471E-02 0.53481471E+02</pdfrwt>
<pdfrwt beam="1">  1       -3 0.23960230E-02 0.53481471E+02</pdfrwt>
<totfact> 0.15464212E+05</totfact>
</mgrwt>
</event>
<event>
 4    1  0.2165211E+000  0.2334854E+02  0.7546771E-02  0.1685922E+00
          2   -1    0    0  501    0  0.00000000000E+00  0.00000000000E+00  0.17811914226E+02  0.17811914226E+02  0.00000000000E+00 0.  1.
         -2   -1    0    0    0  501 -0.00000000000E+00 -0.00000000000E+00 -0.76515371917E+01  0.76515371917E+01  0.00000000000E+00 0. -1.
        -13    1    1    2    0    0  0.52451835474E+01 -0.10427164836E+02  0.48343668223E+01  0.12633638413E+02  0.00000000000E+00 0.  1.
         13    1    1    2    0    0 -0.52451835474E+01  0.10427164836E+02  0.53260102119E+01  0.12829813005E+02  0.00000000000E+00 0. -1.
<mgrwt>
<rscale>  0 0.23348535E+02</rscale>
<asrwt>0</asrwt>
<pdfrwt beam="1">  1        2 0.27402945E-02 0.23348535E+02</pdfrwt>
<pdfrwt beam="2">  1       -2 0.11771596E-02 0.23348535E+02</pdfrwt>
<totfact> 0.28932445E+06</totfact>
</mgrwt>
</event>
<event>
 4    1  0.2165211E+000  0.3737999E+02  0.7546771E-02  0.1528427E+00
          3   -1    0    0  501    0  0.00000000000E+00  0.00000000000E+00  0.70801035440E+02  0.70801035440E+02  0.00000000000E+00 0. -1.
         -3   -1    0    0    0  501 -0.00000000000E+00 -0.00000000000E+00 -0.49337680603E+01  0.49337680603E+01  0.00000000000E+00 0.  1.
        -11    1    1    2    0    0  0.17177469793E+02  0.51344231995E+01  0.43633194113E+02  0.47172909583E+02  0.00000000000E+00 0. -1.
         11    1    1    2    0    0 -0.17177469793E+02 -0.51344231995E+01  0.22234073267E+02  0.28561893917E+02  0.00000000000E+00 0.  1.
<mgrwt>
<rscale>  0 0.37379989E+02</rscale>
<asrwt>0</asrwt>
<pdfrwt beam="1">  1        3 0.10892466E-01 0.37379989E+02</pdfrwt>
<pdfrwt beam="2">  1       -3 0.75904129E-03 0.37379989E+02</pdfrwt>
<totfact> 0.36206107E+05</totfact>
</mgrwt>
</event>
<event>
 4    1  0.2165211E+000  0.2455228E+02  0.7546771E-02  0.1667517E+00
          4   -1    0    0  501    0  0.00000000000E+00  0.00000000000E+00  0.20035169300E+02  0.20035169300E+02  0.00000000000E+00 0.  1.
         -4   -1    0    0    0  501 -0.00000000000E+00 -0.00000000000E+00 -0.75219536469E+01  0.75219536469E+01  0.00000000000E+00 0. -1.
        -11    1    1    2    0    0 -0.72899989706E+01  0.77308415452E+01  0.13156642651E+02  0.16911748633E+02  0.00000000000E+00 0.  1.
         11    1    1    2    0    0  0.72899989706E+01 -0.77308415452E+01 -0.64342699720E+00  0.10645374314E+02  0.00000000000E+00 0. -1.
<mgrwt>
<rscale>  0 0.24552280E+02</rscale>
<asrwt>0</asrwt>
<pdfrwt beam="1">  1        4 0.30823337E-02 0.24552280E+02</pdfrwt>
<pdfrwt beam="2">  1       -4 0.11572236E-02 0.24552280E+02</pdfrwt>
<totfact> 0.81830867E+05</totfact>
</mgrwt>
</event>
<event>
 4    1  0.2165211E+000  0.4375714E+02  0.7546771E-02  0.1482253E+00
          1   -1    0    0  501    0  0.00000000000E+00  0.00000000000E+00  0.61011885227E+02  0.61011885227E+02  0.00000000000E+00 0.  1.
         -1   -1    0    0    0  501 -0.00000000000E+00 -0.00000000000E+00 -0.78455498321E+01  0.78455498321E+01  0.00000000000E+00 0. -1.
        -11    1    1    2    0    0 -0.94361909550E+01  0.10830439466E+02  0.61442023977E+00  0.14377678220E+02  0.00000000000E+00 0. -1.
         11    1    1    2    0    0  0.94361909550E+01 -0.10830439466E+02  0.52551915155E+02  0.54479756839E+02  0.00000000000E+00 0.  1.
<mgrwt>
<rscale>  0 0.43757138E+02</rscale>
<asrwt>0</asrwt>
<pdfrwt beam="1">  1        1 0.93864436E-02 0.43757138E+02</pdfrwt>
<pdfrwt beam="2">  1       -1 0.12070077E-02 0.43757138E+02</pdfrwt>
<totfact> 0.66615116E+05</totfact>
</mgrwt>
</event>
<event>
 4    1  0.2165211E+000  0.2149525E+02  0.7546771E-02  0.1717131E+00
         -4   -1    0    0    0  501 -0.00000000000E+00  0.00000000000E+00  0.10386527822E+02  0.10386527822E+02  0.00000000000E+00 0.  1.
          4   -1    0    0  501    0  0.00000000000E+00 -0.00000000000E+00 -0.11121270999E+02  0.11121270999E+02  0.00000000000E+00 0. -1.
        -13    1    1    2    0    0 -0.10336673331E+02  0.83706162777E+00 -0.31910585093E+01  0.10850361383E+02  0.00000000000E+00 0. -1.
         13    1    1    2    0    0  0.10336673331E+02 -0.83706162777E+00  0.24563153320E+01  0.10657437438E+02  0.00000000000E+00 0.  1.
<mgrwt>
<rscale>  0 0.21495245E+02</rscale>
<asrwt>0</asrwt>
<pdfrwt beam="2">  1        4 0.17109648E-02 0.21495245E+02</pdfrwt>
<pdfrwt beam="1">  1       -4 0.15979274E-02 0.21495245E+02</pdfrwt>
<totfact> 0.11133976E+06</totfact>
</mgrwt>
</event>
<event>
 4    1  0.2165211E+000  0.2959934E+02  0.7546771E-02  0.1602560E+00
          3   -1    0    0  501    0  0.00000000000E+00  0.00000000000E+00  0.31162002010E+02  0.31162002010E+02  0.00000000000E+00 0.  1.
         -3   -1    0    0    0  501 -0.00000000000E+00 -0.00000000000E+00 -0.70287584571E+01  0.70287584571E+01  0.00000000000E+00 0. -1.
        -13    1    1    2    0    0 -0.13552965894E+02 -0.32727625956E+01  0.18470813032E+02  0.23142272871E+02  0.00000000000E+00 0.  1.
         13    1    1    2    0    0  0.13552965894E+02  0.32727625956E+01  0.56624305208E+01  0.15048487597E+02  0.00000000000E+00 0. -1.
<mgrwt>
<rscale>  0 0.29599337E+02</rscale>
<asrwt>0</asrwt>
<pdfrwt beam="1">  1        3 0.47941541E-02 0.29599337E+02</pdfrwt>
<pdfrwt beam="2">  1       -3 0.10813475E-02 0.29599337E+02</pdfrwt>
<totfact> 0.69836138E+05</totfact>
</mgrwt>
</event>
<event>
 4    1  0.2165211E+000  0.2420824E+02  0.7546771E-02  0.1672642E+00
         -2   -1    0    0    0  501 -0.00000000000E+00  0.00000000000E+00  0.39525632215E+02  0.39525632215E+02  0.00000000000E+00 0.  1.
          2   -1    0    0  501    0  0.00000000000E+00 -0.00000000000E+00 -0.37067021618E+01  0.37067021618E+01  0.00000000000E+00 0. -1.
        -13    1    1    2    0    0  0.59946143101E+00 -0.11622933062E+02  0.23848011767E+02  0.26536382425E+02  0.00000000000E+00 0. -1.
         13    1    1    2    0    0 -0.59946143101E+00  0.11622933062E+02  0.11970918286E+02  0.16695951952E+02  0.00000000000E+00 0.  1.
<mgrwt>
<rscale>  0 0.24208242E+02</rscale>
<asrwt>0</asrwt>
<pdfrwt beam="2">  1        2 0.57026190E-03 0.24208242E+02</pdfrwt>
<pdfrwt beam="1">  1       -2 0.60808662E-02 0.24208242E+02</pdfrwt>
<totfact> 0.22907755E+06</totfact>
</mgrwt>
</event>
<event>
 4    1  0.2165211E+000  0.2610523E+02  0.7546771E-02  0.1645616E+00
          1   -1    0    0  501    0  0.00000000000E+00  0.00000000000E+00  0.83673953679E+02  0.83673953679E+02  0.00000000000E+00 0.  1.
         -1   -1    0    0    0  501 -0.00000000000E+00 -0.00000000000E+00 -0.20361263665E+01  0.20361263665E+01  0.00000000000E+00 0. -1.
        -11    1    1    2    0    0 -0.29774768651E+01  0.12419581503E+02  0.31972772515E+02  0.34429196265E+02  0.00000000000E+00 0. -1.
         11    1    1    2    0    0  0.29774768651E+01 -0.12419581503E+02  0.49665054798E+02  0.51280883781E+02  0.00000000000E+00 0.  1.
<mgrwt>
<rscale>  0 0.26105229E+02</rscale>
<asrwt>0</asrwt>
<pdfrwt beam="1">  1        1 0.12872913E-01 0.26105229E+02</pdfrwt>
<pdfrwt beam="2">  1       -1 0.31325027E-03 0.26105229E+02</pdfrwt>
<totfact> 0.23836245E+06</totfact>
</mgrwt>
</event>
<event>
 4    1  0.2165211E+000  0.2934668E+02  0.7546771E-02  0.1605425E+00
         -4   -1    0    0    0  501 -0.00000000000E+00  0.00000000000E+00  0.53094018522E+01  0.53094018522E+01  0.00000000000E+00 0.  1.
          4   -1    0    0  501    0  0.00000000000E+00 -0.00000000000E+00 -0.40552011783E+02  0.40552011783E+02  0.00000000000E+00 0. -1.
        -13    1    1    2    0    0 -0.66582121155E+01  0.13011430786E+02 -0.15597077025E+02  0.21375170909E+02  0.00000000000E+00 0.  1.
         13    1    1    2    0    0  0.66582121155E+01 -0.13011430786E+02 -0.19645532906E+02  0.24486242726E+02  0.00000000000E+00 0. -1.
<mgrwt>
<rscale>  0 0.29346681E+02</rscale>
<asrwt>0</asrwt>
<pdfrwt beam="2">  1        4 0.62387711E-02 0.29346681E+02</pdfrwt>
<pdfrwt beam="1">  1       -4 0.81683105E-03 0.29346681E+02</pdfrwt>
<totfact> 0.51588183E+05</totfact>
</mgrwt>
</event>
<event>
 4    1  0.2165211E+000  0.3033606E+02  0.7546771E-02  0.1594403E+00
         -2   -1    0    0    0  501 -0.00000000000E+00  0.00000000000E+00  0.15682855849E+01  0.15682855849E+01  0.00000000000E+00 0. -1.
          2   -1    0    0  501    0  0.00000000000E+00 -0.00000000000E+00 -0.14670108200E+03  0.14670108200E+03  0.00000000000E+00 0.  1.
        -11    1    1    2    0    0  0.14607793559E+02  0.32013314772E+01 -0.84962930240E+02  0.86268972817E+02  0.00000000000E+00 0. -1.
         11    1    1    2    0    0 -0.14607793559E+02 -0.32013314772E+01 -0.60169866173E+02  0.62000394766E+02  0.00000000000E+00 0.  1.
<mgrwt>
<rscale>  0 0.30336064E+02</rscale>
<asrwt>0</asrwt>
<pdfrwt beam="2">  1        2 0.22569408E-01 0.30336064E+02</pdfrwt>
<pdfrwt beam="1">  1       -2 0.24127459E-03 0.30336064E+02</pdfrwt>
<totfact> 0.22512793E+06</totfact>
</mgrwt>
</event>
<event>
 4    1  0.2165211E+000  0.2203133E+02  0.7546771E-02  0.1707711E+00
         -2   -1    0    0    0  501 -0.00000000000E+00  0.00000000000E+00  0.11436599042E+02  0.11436599042E+02  0.00000000000E+00 0. -1.
          2   -1    0    0  501    0  0.00000000000E+00 -0.00000000000E+00 -0.10610222878E+02  0.10610222878E+02  0.00000000000E+00 0.  1.
        -11    1    1    2    0    0  0.88234434676E+01 -0.58453429752E+01 -0.26424286285E+01  0.10908877952E+02  0.00000000000E+00 0.  1.
         11    1    1    2    0    0 -0.88234434676E+01  0.58453429752E+01  0.34688047927E+01  0.11137943967E+02  0.00000000000E+00 0. -1.
<mgrwt>
<rscale>  0 0.22031329E+02</rscale>
<asrwt>0</asrwt>
<pdfrwt beam="2">  1        2 0.16323420E-02 0.22031329E+02</pdfrwt>
<pdfrwt beam="1">  1       -2 0.17594768E-02 0.22031329E+02</pdfrwt>
<totfact> 0.31708746E+06</totfact>
</mgrwt>
</event>
<event>
 4    1  0.2165211E+000  0.2388896E+02  0.7546771E-02  0.1677493E+00
         -2   -1    0    0    0  501 -0.00000000000E+00  0.00000000000E+00  0.46499953213E+02  0.46499953213E+02  0.00000000000E+00 0.  1.
          2   -1    0    0  501    0  0.00000000000E+00 -0.00000000000E+00 -0.30681886738E+01  0.30681886738E+01  0.00000000000E+00 0. -1.
        -13    1    1    2    0    0 -0.10191532693E+02  0.59279036833E+01  0.25687236065E+02  0.28263783847E+02  0.00000000000E+00 0. -1.
         13    1    1    2    0    0  0.10191532693E+02 -0.59279036833E+01  0.17744528474E+02  0.21304358040E+02  0.00000000000E+00 0.  1.
<mgrwt>
<rscale>  0 0.23888962E+02</rscale>
<asrwt>0</asrwt>
<pdfrwt beam="2">  1        2 0.47202906E-03 0.23888962E+02</pdfrwt>
<pdfrwt beam="1">  1       -2 0.71538384E-02 0.23888962E+02</pdfrwt>
<totfact> 0.23102047E+06</totfact>
</mgrwt>
</event>
<event>
 4    1  0.2165211E+000  0.2525292E+02  0.7546771E-02  0.1657396E+00
          4   -1    0    0  501    0  0.00000000000E+00  0.00000000000E+00  0.58999836852E+01  0.58999836852E+01  0.00000000000E+00 0. -1.
         -4   -1    0    0    0  501 -0.00000000000E+00 -0.00000000000E+00 -0.27021677468E+02  0.27021677468E+02  0.00000000000E+00 0.  1.
        -11    1    1    2    0    0 -0.52754043445E+01  0.98960114258E+01 -0.29965368704E+01  0.11607763193E+02  0.00000000000E+00 0. -1.
         11    1    1    2    0    0  0.52754043445E+01 -0.98960114258E+01 -0.18125156912E+02  0.21313897959E+02  0.00000000000E+00 0.  1.
<mgrwt>
<rscale>  0 0.25252917E+02</rscale>
<asrwt>0</asrwt>
<pdfrwt beam="1">  1        4 0.90768980E-03 0.25252917E+02</pdfrwt>
<pdfrwt beam="2">  1       -4 0.41571811E-02 0.25252917E+02</pdfrwt>
<totfact> 0.75351633E+05</totfact>
</mgrwt>
</event>
<event>
 4    1  0.2165211E+000  0.3139673E+02  0.7546771E-02  0.1583144E+00
          2   -1    0    0  501    0  0.00000000000E+00  0.00000000000E+00  0.24649238813E+02  0.24649238813E+02  0.00000000000E+00 0.  1.
         -2   -1    0    0    0  501 -0.00000000000E+00 -0.00000000000E+00 -0.99978201534E+01  0.99978201534E+01  0.00000000000E+00 0. -1.
        -13    1    1    2    0    0 -0.13991985679E+02  0.31536492386E+01  0.14367327330E+02  0.20301262556E+02  0.00000000000E+00 0.  1.
         13    1    1    2    0    0  0.13991985679E+02 -0.31536492386E+01  0.28409132912E+00  0.14345796410E+02  0.00000000000E+00 0. -1.
<mgrwt>
<rscale>  0 0.31396730E+02</rscale>
<asrwt>0</asrwt>
<pdfrwt beam="1">  1        2 0.37921906E-02 0.31396730E+02</pdfrwt>
<pdfrwt beam="2">  1       -2 0.15381262E-02 0.31396730E+02</pdfrwt>
<totfact> 0.14787111E+06</totfact>
</mgrwt>
</event>
<event>
 4    1  0.2165211E+000  0.2714585E+02  0.7546771E-02  0.1631965E+00
          4   -1    0    0  501    0  0.00000000000E+00  0.00000000000E+00  0.35974753457E+02  0.35974753457E+02  0.00000000000E+00 0. -1.
         -4   -1    0    0    0  501 -0.00000000000E+00 -0.00000000000E+00 -0.51209337387E+01  0.51209337387E+01  0.00000000000E+00 0.  1.
        -11    1    1    2    0    0 -0.66645139223E+01  0.10281342150E+02  0.65862146212E+01  0.13910426495E+02  0.00000000000E+00 0.  1.
         11    1    1    2    0    0  0.66645139223E+01 -0.10281342150E+02  0.24267605097E+02  0.27185260701E+02  0.00000000000E+00 0. -1.
<mgrwt>
<rscale>  0 0.27145853E+02</rscale>
<asrwt>0</asrwt>
<pdfrwt beam="1">  1        4 0.55345773E-02 0.27145853E+02</pdfrwt>
<pdfrwt beam="2">  1       -4 0.78783598E-03 0.27145853E+02</pdfrwt>
<totfact> 0.62376139E+05</totfact>
</mgrwt>
</event>
<event>
 4    1  0.2165211E+000  0.2039807E+02  0.7546771E-02  0.1737526E+00
          3   -1    0    0  501    0  0.00000000000E+00  0.00000000000E+00  0.19949093897E+01  0.19949093897E+01  0.00000000000E+00 0.  1.
         -3   -1    0    0    0  501 -0.00000000000E+00 -0.00000000000E+00 -0.52142867769E+02  0.52142867769E+02  0.00000000000E+00 0. -1.
        -13    1    1    2    0    0 -0.97294868691E+01  0.28615746583E+01 -0.27943281634E+02  0.29726730610E+02  0.00000000000E+00 0. -1.
         13    1    1    2    0    0  0.97294868691E+01 -0.28615746583E+01 -0.22204676745E+02  0.24411046549E+02  0.00000000000E+00 0.  1.
<mgrwt>
<rscale>  0 0.20398068E+02</rscale>
<asrwt>0</asrwt>
<pdfrwt beam="1">  1        3 0.30690912E-03 0.20398068E+02</pdfrwt>
<pdfrwt beam="2">  1       -3 0.80219801E-02 0.20398068E+02</pdfrwt>
<totfact> 0.15347647E+06</totfact>
</mgrwt>
</event>
<event>
 4    1  0.2165211E+000  0.4466996E+02  0.7546771E-02  0.1476413E+00
          2   -1    0    0  501    0  0.00000000000E+00  0.00000000000E+00  0.23533020841E+02  0.23533020841E+02  0.00000000000E+00 0. -1.
         -2   -1    0    0    0  501 -0.00000000000E+00 -0.00000000000E+00 -0.21197933457E+02  0.21197933457E+02  0.00000000000E+00 0.  1.
        -13    1    1    2    0    0 -0.11211224589E+02 -0.11613113536E+02  0.16625441728E+02  0.23172424894E+02  0.00000000000E+00 0. -1.
         13    1    1    2    0    0  0.11211224589E+02  0.11613113536E+02 -0.14290354345E+02  0.21558529404E+02  0.00000000000E+00 0.  1.
<mgrwt>
<rscale>  0 0.44669964E+02</rscale>
<asrwt>0</asrwt>
<pdfrwt beam="1">  1        2 0.36204648E-02 0.44669964E+02</pdfrwt>
<pdfrwt beam="2">  1       -2 0.32612205E-02 0.44669964E+02</pdfrwt>
<totfact> 0.60674953E+05</totfact>
</mgrwt>
</event>
<event>
 4    1  0.2165211E+000  0.2128390E+02  0.7546771E-02  0.1720939E+00
          2   -1    0    0  501    0  0.00000000000E+00  0.00000000000E+00  0.17448483961E+02  0.17448483961E+02  0.00000000000E+00 0.  1.
         -2   -1    0    0    0  501 -0.00000000000E+00 -0.00000000000E+00 -0.64905991756E+01  0.64905991756E+01  0.00000000000E+00 0. -1.
        -13    1    1    2    0    0  0.85294386472E+01 -0.52817757090E+01  0.14860556446E+01  0.10141836109E+02  0.00000000000E+00 0. -1.
         13    1    1    2    0    0 -0.85294386472E+01  0.52817757090E+01  0.94718291409E+01  0.13797247028E+02  0.00000000000E+00 0.  1.
<mgrwt>
<rscale>  0 0.21283901E+02</rscale>
<asrwt>0</asrwt>
<pdfrwt beam="1">  1        2 0.26843821E-02 0.21283901E+02</pdfrwt>
<pdfrwt beam="2">  1       -2 0.99855373E-03 0.21283901E+02</pdfrwt>
<totfact> 0.35754662E+06</totfact>
</mgrwt>
</event>
<event>
 4    1  0.2165211E+000  0.2401477E+02  0.7546771E-02  0.1675570E+00
          4   -1    0    0  501    0  0.00000000000E+00  0.00000000000E+00  0.14174021133E+02  0.14174021133E+02  0.00000000000E+00 0. -1.
         -4   -1    0    0    0  501 -0.00000000000E+00 -0.00000000000E+00 -0.10171939135E+02  0.10171939135E+02  0.00000000000E+00 0.  1.
        -13    1    1    2    0    0 -0.76318854686E+01 -0.82812478740E+01  0.62241277433E+01  0.12867187273E+02  0.00000000000E+00 0. -1.
         13    1    1    2    0    0  0.76318854686E+01  0.82812478740E+01 -0.22220457454E+01  0.11478772994E+02  0.00000000000E+00 0.  1.
<mgrwt>
<rscale>  0 0.24014769E+02</rscale>
<asrwt>0</asrwt>
<pdfrwt beam="1">  1        4 0.21806186E-02 0.24014769E+02</pdfrwt>
<pdfrwt beam="2">  1       -4 0.15649137E-02 0.24014769E+02</pdfrwt>
<totfact> 0.86975932E+05</totfact>
</mgrwt>
</event>
<event>
 4    1  0.2165211E+000  0.2294243E+02  0.7546771E-02  0.1692445E+00
         -2   -1    0    0    0  501 -0.00000000000E+00  0.00000000000E+00  0.13830652871E+01  0.13830652871E+01  0.00000000000E+00 0. -1.
          2   -1    0    0  501    0  0.00000000000E+00 -0.00000000000E+00 -0.95142847907E+02  0.95142847907E+02  0.00000000000E+00 0.  1.
        -11    1    1    2    0    0 -0.37780062671E+01 -0.10598493527E+02 -0.56275836439E+02  0.57389643346E+02  0.00000000000E+00 0.  1.
         11    1    1    2    0    0  0.37780062671E+01  0.10598493527E+02 -0.37483946180E+02  0.39136269848E+02  0.00000000000E+00 0. -1.
<mgrwt>
<rscale>  0 0.22942430E+02</rscale>
<asrwt>0</asrwt>
<pdfrwt beam="2">  1        2 0.14637358E-01 0.22942430E+02</pdfrwt>
<pdfrwt beam="1">  1       -2 0.21277932E-03 0.22942430E+02</pdfrwt>
<totfact> 0.38388970E+06</totfact>
</mgrwt>
</event>
<event>
 4    1  0.2165211E+000  0.2050941E+02  0.7546771E-02  0.1735384E+00
          2   -1    0    0  501    0  0.00000000000E+00  0.00000000000E+00  0.40970979440E+01  0.40970979440E+01  0.00000000000E+00 0. -1.
         -2   -1    0    0    0  501 -0.00000000000E+00 -0.00000000000E+00 -0.25666689139E+02  0.25666689139E+02  0.00000000000E+00 0.  1.
        -11    1    1    2    0    0 -0.98439023102E+01 -0.18896220307E+01 -0.76433501203E+01  0.12605311784E+02  0.00000000000E+00 0. -1.
         11    1    1    2    0    0  0.98439023102E+01  0.18896220307E+01 -0.13926241074E+02  0.17158475299E+02  0.00000000000E+00 0.  1.
<mgrwt>
<rscale>  0 0.20509407E+02</rscale>
<asrwt>0</asrwt>
<pdfrwt beam="1">  1        2 0.63032278E-03 0.20509407E+02</pdfrwt>
<pdfrwt beam="2">  1       -2 0.39487213E-02 0.20509407E+02</pdfrwt>
<totfact> 0.34663074E+06</totfact>
</mgrwt>
</event>
<event>
 4    1  0.2165211E+000  0.2529161E+02  0.7546771E-02  0.1656848E+00
          2   -1    0    0  501    0  0.00000000000E+00  0.00000000000E+00  0.15952452249E+02  0.15952452249E+02  0.00000000000E+00 0. -1.
         -2   -1    0    0    0  501 -0.00000000000E+00 -0.00000000000E+00 -0.10024562837E+02  0.10024562837E+02  0.00000000000E+00 0.  1.
        -13    1    1    2    0    0 -0.28057122193E+00  0.12046430391E+02  0.69047387671E+01  0.13887786822E+02  0.00000000000E+00 0. -1.
         13    1    1    2    0    0  0.28057122193E+00 -0.12046430391E+02 -0.97684935538E+00  0.12089228264E+02  0.00000000000E+00 0.  1.
<mgrwt>
<rscale>  0 0.25291608E+02</rscale>
<asrwt>0</asrwt>
<pdfrwt beam="1">  1        2 0.24542234E-02 0.25291608E+02</pdfrwt>
<pdfrwt beam="2">  1       -2 0.15422404E-02 0.25291608E+02</pdfrwt>
<totfact> 0.23746655E+06</totfact>
</mgrwt>
</event>
<event>
 4    1  0.2165211E+000  0.5102717E+02  0.7546771E-02  0.1439879E+00
          2   -1    0    0  501    0  0.00000000000E+00  0.00000000000E+00  0.18621462748E+02  0.18621462748E+02  0.00000000000E+00 0. -1.
         -2   -1    0    0    0  501 -0.00000000000E+00 -0.00000000000E+00 -0.34956601317E+02  0.34956601317E+02  0.00000000000E+00 0.  1.
        -13    1    1    2    0    0 -0.13813377307E+02 -0.21428765873E+02 -0.91864661377E+01  0.27099678219E+02  0.00000000000E+00 0. -1.
         13    1    1    2    0    0  0.13813377307E+02  0.21428765873E+02 -0.71486724308E+01  0.26478385846E+02  0.00000000000E+00 0.  1.
<mgrwt>
<rscale>  0 0.51027171E+02</rscale>
<asrwt>0</asrwt>
<pdfrwt beam="1">  1        2 0.28648404E-02 0.51027171E+02</pdfrwt>
<pdfrwt beam="2">  1       -2 0.53779387E-02 0.51027171E+02</pdfrwt>
<totfact> 0.41230685E+05</totfact>
</mgrwt>
</event>
<event>
 4    1  0.2165211E+000  0.3910424E+02  0.7546771E-02  0.1514909E+00
         -2   -1    0    0    0  501 -0.00000000000E+00  0.00000000000E+00  0.66917527045E+01  0.66917527045E+01  0.00000000000E+00 0.  1.
          2   -1    0    0  501    0  0.00000000000E+00 -0.00000000000E+00 -0.57127839293E+02  0.57127839293E+02  0.00000000000E+00 0. -1.
        -11    1    1    2    0    0 -0.11394212041E+01 -0.10786015214E+02  0.13320034210E+01  0.10927517467E+02  0.00000000000E+00 0.  1.
         11    1    1    2    0    0  0.11394212041E+01  0.10786015214E+02 -0.51768090009E+02  0.52892074530E+02  0.00000000000E+00 0. -1.
<mgrwt>
<rscale>  0 0.39104239E+02</rscale>
<asrwt>0</asrwt>
<pdfrwt beam="2">  1        2 0.87888983E-02 0.39104239E+02</pdfrwt>
<pdfrwt beam="1">  1       -2 0.10295004E-02 0.39104239E+02</pdfrwt>
<totfact> 0.97780473E+05</totfact>
</mgrwt>
</event>
<event>
 4    1  0.2165211E+000  0.3311184E+02  0.7546771E-02  0.1566037E+00
         -4   -1    0    0    0  501 -0.00000000000E+00  0.00000000000E+00  0.11354181347E+03  0.11354181347E+03  0.00000000000E+00 0.  1.
          4   -1    0    0  501    0  0.00000000000E+00 -0.00000000000E+00 -0.24140747906E+01  0.24140747906E+01  0.00000000000E+00 0. -1.
        -11    1    1    2    0    0 -0.12372337219E+02  0.94638773879E+01  0.75205615940E+02  0.76801851360E+02  0.00000000000E+00 0.  1.
         11    1    1    2    0    0  0.12372337219E+02 -0.94638773879E+01  0.35922122737E+02  0.39154036898E+02  0.00000000000E+00 0. -1.
<mgrwt>
<rscale>  0 0.33111837E+02</rscale>
<asrwt>0</asrwt>
<pdfrwt beam="2">  1        4 0.37139621E-03 0.33111837E+02</pdfrwt>
<pdfrwt beam="1">  1       -4 0.17467967E-01 0.33111837E+02</pdfrwt>
<totfact> 0.31887666E+05</totfact>
</mgrwt>
</event>
<event>
 4    1  0.2165211E+000  0.5088540E+02  0.7546771E-02  0.1440624E+00
         -2   -1    0    0    0  501 -0.00000000000E+00  0.00000000000E+00  0.13814484250E+02  0.13814484250E+02  0.00000000000E+00 0.  1.
          2   -1    0    0  501    0  0.00000000000E+00 -0.00000000000E+00 -0.46858867839E+02  0.46858867839E+02  0.00000000000E+00 0. -1.
        -11    1    1    2    0    0  0.76635192602E+00 -0.17022032885E+02 -0.39050850524E+02  0.42606405920E+02  0.00000000000E+00 0. -1.
         11    1    1    2    0    0 -0.76635192602E+00  0.17022032885E+02  0.60064669342E+01  0.18066946168E+02  0.00000000000E+00 0.  1.
<mgrwt>
<rscale>  0 0.50885404E+02</rscale>
<asrwt>0</asrwt>
<pdfrwt beam="2">  1        2 0.72090564E-02 0.50885404E+02</pdfrwt>
<pdfrwt beam="1">  1       -2 0.21253053E-02 0.50885404E+02</pdfrwt>
<totfact> 0.48435166E+05</totfact>
</mgrwt>
</event>
<event>
 4    1  0.2165211E+000  0.2484402E+02  0.7546771E-02  0.1663252E+00
          2   -1    0    0  501    0  0.00000000000E+00  0.00000000000E+00  0.70985920593E+01  0.70985920593E+01  0.00000000000E+00 0. -1.
         -2   -1    0    0    0  501 -0.00000000000E+00 -0.00000000000E+00 -0.21737602634E+02  0.21737602634E+02  0.00000000000E+00 0.  1.
        -13    1    1    2    0    0  0.59296233346E+01 -0.10010729189E+02 -0.22693402493E+01  0.11854325664E+02  0.00000000000E+00 0. -1.
         13    1    1    2    0    0 -0.59296233346E+01  0.10010729189E+02 -0.12369670326E+02  0.16981869030E+02  0.00000000000E+00 0.  1.
<mgrwt>
<rscale>  0 0.24844023E+02</rscale>
<asrwt>0</asrwt>
<pdfrwt beam="1">  1        2 0.10920911E-02 0.24844023E+02</pdfrwt>
<pdfrwt beam="2">  1       -2 0.33442465E-02 0.24844023E+02</pdfrwt>
<totfact> 0.23044279E+06</totfact>
</mgrwt>
</event>
<event>
 4    1  0.2165211E+000  0.2708992E+02  0.7546771E-02  0.1632679E+00
         -1   -1    0    0    0  501 -0.00000000000E+00  0.00000000000E+00  0.29190051632E+01  0.29190051632E+01  0.00000000000E+00 0. -1.
          1   -1    0    0  501    0  0.00000000000E+00 -0.00000000000E+00 -0.62852200418E+02  0.62852200418E+02  0.00000000000E+00 0.  1.
        -11    1    1    2    0    0 -0.77796836822E+01  0.80302808128E+01 -0.11403671826E+02  0.15970366910E+02  0.00000000000E+00 0. -1.
         11    1    1    2    0    0  0.77796836822E+01 -0.80302808128E+01 -0.48529523428E+02  0.49800838671E+02  0.00000000000E+00 0.  1.
<mgrwt>
<rscale>  0 0.27089917E+02</rscale>
<asrwt>0</asrwt>
<pdfrwt beam="2">  1        1 0.96695697E-02 0.27089917E+02</pdfrwt>
<pdfrwt beam="1">  1       -1 0.44907770E-03 0.27089917E+02</pdfrwt>
<totfact> 0.21274750E+06</totfact>
</mgrwt>
</event>
<event>
 4    1  0.2165211E+000  0.2305987E+02  0.7546771E-02  0.1690541E+00
          2   -1    0    0  501    0  0.00000000000E+00  0.00000000000E+00  0.37630723130E+01  0.37630723130E+01  0.00000000000E+00 0.  1.
         -2   -1    0    0    0  501 -0.00000000000E+00 -0.00000000000E+00 -0.35327355142E+02  0.35327355142E+02  0.00000000000E+00 0. -1.
        -13    1    1    2    0    0  0.89175959785E+01  0.73050691260E+01 -0.16168101263E+02  0.19856864088E+02  0.00000000000E+00 0. -1.
         13    1    1    2    0    0 -0.89175959785E+01 -0.73050691260E+01 -0.15396181567E+02  0.19233563367E+02  0.00000000000E+00 0.  1.
<mgrwt>
<rscale>  0 0.23059869E+02</rscale>
<asrwt>0</asrwt>
<pdfrwt beam="1">  1        2 0.57893419E-03 0.23059869E+02</pdfrwt>
<pdfrwt beam="2">  1       -2 0.54349778E-02 0.23059869E+02</pdfrwt>
<totfact> 0.25881733E+06</totfact>
</mgrwt>
</event>
<event>
 4    1  0.2165211E+000  0.6226111E+02  0.7546771E-02  0.1388581E+00
         -2   -1    0    0    0  501 -0.00000000000E+00  0.00000000000E+00  0.58291631179E+01  0.58291631179E+01  0.00000000000E+00 0.  1.
          2   -1    0    0  501    0  0.00000000000E+00 -0.00000000000E+00 -0.16625223493E+03  0.16625223493E+03  0.00000000000E+00 0. -1.
        -11    1    1    2    0    0 -0.14371382988E+02 -0.26399276244E+02 -0.57816888008E+02  0.65163263992E+02  0.00000000000E+00 0. -1.
         11    1    1    2    0    0  0.14371382988E+02  0.26399276244E+02 -0.10260618381E+03  0.10691813406E+03  0.00000000000E+00 0.  1.
<mgrwt>
<rscale>  0 0.62261108E+02</rscale>
<asrwt>0</asrwt>
<pdfrwt beam="2">  1        2 0.25577268E-01 0.62261108E+02</pdfrwt>
<pdfrwt beam="1">  1       -2 0.89679429E-03 0.62261108E+02</pdfrwt>
<totfact> 0.39678795E+05</totfact>
</mgrwt>
</event>
<event>
 4    1  0.2165211E+000  0.5499354E+02  0.7546771E-02  0.1420129E+00
          4   -1    0    0  501    0  0.00000000000E+00  0.00000000000E+00  0.75921734843E+02  0.75921734843E+02  0.00000000000E+00 0.  1.
         -4   -1    0    0    0  501 -0.00000000000E+00 -0.00000000000E+00 -0.99585751691E+01  0.99585751691E+01  0.00000000000E+00 0. -1.
        -13    1    1    2    0    0 -0.19654921219E+02  0.49220802740E+01  0.62010074141E+02  0.65236432285E+02  0.00000000000E+00 0.  1.
         13    1    1    2    0    0  0.19654921219E+02 -0.49220802740E+01  0.39530855332E+01  0.20643877727E+02  0.00000000000E+00 0. -1.
<mgrwt>
<rscale>  0 0.54993538E+02</rscale>
<asrwt>0</asrwt>
<pdfrwt beam="1">  1        4 0.11680267E-01 0.54993538E+02</pdfrwt>
<pdfrwt beam="2">  1       -4 0.15320885E-02 0.54993538E+02</pdfrwt>
<totfact> 0.10256585E+05</totfact>
</mgrwt>
</event>
<event>
 4    1  0.2165211E+000  0.3407575E+02  0.7546771E-02  0.1556965E+00
         -2   -1    0    0    0  501 -0.00000000000E+00  0.00000000000E+00  0.41126338867E+01  0.41126338867E+01  0.00000000000E+00 0. -1.
          2   -1    0    0  501    0  0.00000000000E+00 -0.00000000000E+00 -0.70584726533E+02  0.70584726533E+02  0.00000000000E+00 0.  1.
        -13    1    1    2    0    0  0.13842106627E+02  0.41137998471E+01 -0.53057490012E+02  0.54987494137E+02  0.00000000000E+00 0.  1.
         13    1    1    2    0    0 -0.13842106627E+02 -0.41137998471E+01 -0.13414602634E+02  0.19709866283E+02  0.00000000000E+00 0. -1.
<mgrwt>
<rscale>  0 0.34075747E+02</rscale>
<asrwt>0</asrwt>
<pdfrwt beam="2">  1        2 0.10859188E-01 0.34075747E+02</pdfrwt>
<pdfrwt beam="1">  1       -2 0.63271294E-03 0.34075747E+02</pdfrwt>
<totfact> 0.14267842E+06</totfact>
</mgrwt>
</event>
<event>
 4    1  0.2165211E+000  0.3334809E+02  0.7546771E-02  0.1563779E+00
          2   -1    0    0  501    0  0.00000000000E+00  0.00000000000E+00  0.11133755829E+03  0.11133755829E+03  0.00000000000E+00 0.  1.
         -2   -1    0    0    0  501 -0.00000000000E+00 -0.00000000000E+00 -0.24971251557E+01  0.24971251557E+01  0.00000000000E+00 0. -1.
        -13    1    1    2    0    0 -0.32463819577E+01 -0.15857538565E+02  0.40756165178E+02  0.43852771009E+02  0.00000000000E+00 0. -1.
         13    1    1    2    0    0  0.32463819577E+01  0.15857538565E+02  0.68084267958E+02  0.69981912438E+02  0.00000000000E+00 0.  1.
<mgrwt>
<rscale>  0 0.33348092E+02</rscale>
<asrwt>0</asrwt>
<pdfrwt beam="1">  1        2 0.17128851E-01 0.33348092E+02</pdfrwt>
<pdfrwt beam="2">  1       -2 0.38417319E-03 0.33348092E+02</pdfrwt>
<totfact> 0.16689318E+06</totfact>
</mgrwt>
</event>
<event>
 4    1  0.2165211E+000  0.3780012E+02  0.7546771E-02  0.1525054E+00
         -2   -1    0    0    0  501 -0.00000000000E+00  0.00000000000E+00  0.13426245013E+02  0.13426245013E+02  0.00000000000E+00 0. -1.
          2   -1    0    0  501    0  0.00000000000E+00 -0.00000000000E+00 -0.26605528150E+02  0.26605528150E+02  0.00000000000E+00 0.  1.
        -11    1    1    2    0    0  0.15626611029E+01  0.12490398164E+02 -0.21520216045E+02  0.24931338806E+02  0.00000000000E+00 0.  1.
         11    1    1    2    0    0 -0.15626611029E+01 -0.12490398164E+02  0.83409329084E+01  0.15100434358E+02  0.00000000000E+00 0. -1.
<mgrwt>
<rscale>  0 0.37800124E+02</rscale>
<asrwt>0</asrwt>
<pdfrwt beam="2">  1        2 0.40931581E-02 0.37800124E+02</pdfrwt>
<pdfrwt beam="1">  1       -2 0.20655762E-02 0.37800124E+02</pdfrwt>
<totfact> 0.94412638E+05</totfact>
</mgrwt>
</event>
<event>
 4    1  0.2165211E+000  0.4242792E+02  0.7546771E-02  0.1491069E+00
          4   -1    0    0  501    0  0.00000000000E+00  0.00000000000E+00  0.43078555079E+02  0.43078555079E+02  0.00000000000E+00 0. -1.
         -4   -1    0    0    0  501 -0.00000000000E+00 -0.00000000000E+00 -0.10446775786E+02  0.10446775786E+02  0.00000000000E+00 0.  1.
        -11    1    1    2    0    0  0.14541114526E+02  0.42187353827E+01  0.35061415402E+02  0.38190896688E+02  0.00000000000E+00 0. -1.
         11    1    1    2    0    0 -0.14541114526E+02 -0.42187353827E+01 -0.24296361086E+01  0.15334434176E+02  0.00000000000E+00 0.  1.
<mgrwt>
<rscale>  0 0.42427916E+02</rscale>
<asrwt>0</asrwt>
<pdfrwt beam="1">  1        4 0.66274699E-02 0.42427916E+02</pdfrwt>
<pdfrwt beam="2">  1       -4 0.16071963E-02 0.42427916E+02</pdfrwt>
<totfact> 0.21323947E+05</totfact>
</mgrwt>
</event>
<event>
 4    1  0.2165211E+000  0.2952814E+02  0.7546771E-02  0.1603364E+00
          3   -1    0    0  501    0  0.00000000000E+00  0.00000000000E+00  0.76562090990E+02  0.76562090990E+02  0.00000000000E+00 0. -1.
         -3   -1    0    0    0  501 -0.00000000000E+00 -0.00000000000E+00 -0.28470724030E+01  0.28470724030E+01  0.00000000000E+00 0.  1.
        -11    1    1    2    0    0  0.10941498168E+02 -0.85425251402E+01  0.23334275982E+02  0.27151050689E+02  0.00000000000E+00 0. -1.
         11    1    1    2    0    0 -0.10941498168E+02  0.85425251402E+01  0.50380742605E+02  0.52258112704E+02  0.00000000000E+00 0.  1.
<mgrwt>
<rscale>  0 0.29528144E+02</rscale>
<asrwt>0</asrwt>
<pdfrwt beam="1">  1        3 0.11778782E-01 0.29528144E+02</pdfrwt>
<pdfrwt beam="2">  1       -3 0.43801120E-03 0.29528144E+02</pdfrwt>
<totfact> 0.62583902E+05</totfact>
</mgrwt>
</event>
<event>
 4    1  0.2165211E+000  0.2397566E+02  0.7546771E-02  0.1676166E+00
         -1   -1    0    0    0  501 -0.00000000000E+00  0.00000000000E+00  0.49807024051E+02  0.49807024051E+02  0.00000000000E+00 0. -1.
          1   -1    0    0  501    0  0.00000000000E+00 -0.00000000000E+00 -0.28852962734E+01  0.28852962734E+01  0.00000000000E+00 0.  1.
        -13    1    1    2    0    0  0.10400391652E+02  0.34872005358E+01  0.34087422414E+02  0.35808952525E+02  0.00000000000E+00 0. -1.
         13    1    1    2    0    0 -0.10400391652E+02 -0.34872005358E+01  0.12834305364E+02  0.16883367800E+02  0.00000000000E+00 0.  1.
<mgrwt>
<rscale>  0 0.23975656E+02</rscale>
<asrwt>0</asrwt>
<pdfrwt beam="2">  1        1 0.44389177E-03 0.23975656E+02</pdfrwt>
<pdfrwt beam="1">  1       -1 0.76626184E-02 0.23975656E+02</pdfrwt>
<totfact> 0.23315223E+06</totfact>
</mgrwt>
</event>
<event>
 4    1  0.2165211E+000  0.2436179E+02  0.7546771E-02  0.1670342E+00
          2   -1    0    0  501    0  0.00000000000E+00  0.00000000000E+00  0.12221236223E+03  0.12221236223E+03  0.00000000000E+00 0.  1.
         -2   -1    0    0    0  501 -0.00000000000E+00 -0.00000000000E+00 -0.12140689016E+01  0.12140689016E+01  0.00000000000E+00 0. -1.
        -13    1    1    2    0    0  0.10359195545E+02  0.63388408928E+01  0.65252904163E+02  0.66373453564E+02  0.00000000000E+00 0.  1.
         13    1    1    2    0    0 -0.10359195545E+02 -0.63388408928E+01  0.55745389165E+02  0.57052977568E+02  0.00000000000E+00 0. -1.
<mgrwt>
<rscale>  0 0.24361792E+02</rscale>
<asrwt>0</asrwt>
<pdfrwt beam="1">  1        2 0.18801892E-01 0.24361792E+02</pdfrwt>
<pdfrwt beam="2">  1       -2 0.18677993E-03 0.24361792E+02</pdfrwt>
<totfact> 0.35586106E+06</totfact>
</mgrwt>
</event>
<event>
 4    1  0.2165211E+000  0.3952354E+02  0.7546771E-02  0.1511747E+00
         -2   -1    0    0    0  501 -0.00000000000E+00  0.00000000000E+00  0.92858610392E+01  0.92858610392E+01  0.00000000000E+00 0. -1.
          2   -1    0    0  501    0  0.00000000000E+00 -0.00000000000E+00 -0.42056142970E+02  0.42056142970E+02  0.00000000000E+00 0.  1.
        -11    1    1    2    0    0  0.79580790982E+01 -0.12825327578E+02 -0.32955073050E+02  0.36247163892E+02  0.00000000000E+00 0.  1.
         11    1    1    2    0    0 -0.79580790982E+01  0.12825327578E+02  0.18479111956E+00  0.15094840118E+02  0.00000000000E+00 0. -1.
<mgrwt>
<rscale>  0 0.39523537E+02</rscale>
<asrwt>0</asrwt>
<pdfrwt beam="2">  1        2 0.64701759E-02 0.39523537E+02</pdfrwt>
<pdfrwt beam="1">  1       -2 0.14285940E-02 0.39523537E+02</pdfrwt>
<totfact> 0.90284818E+05</totfact>
</mgrwt>
</event>
<event>
 4    1  0.2165211E+000  0.3354742E+02  0.7546771E-02  0.1561892E+00
          2   -1    0    0  501    0  0.00000000000E+00  0.00000000000E+00  0.89114760147E+01  0.89114760147E+01  0.00000000000E+00 0. -1.
         -2   -1    0    0    0  501 -0.00000000000E+00 -0.00000000000E+00 -0.31572474102E+02  0.31572474102E+02  0.00000000000E+00 0.  1.
        -11    1    1    2    0    0 -0.91223726363E+01 -0.51042582500E+01 -0.27161077787E+02  0.29103183355E+02  0.00000000000E+00 0.  1.
         11    1    1    2    0    0  0.91223726363E+01  0.51042582500E+01  0.45000796998E+01  0.11380766763E+02  0.00000000000E+00 0. -1.
<mgrwt>
<rscale>  0 0.33547420E+02</rscale>
<asrwt>0</asrwt>
<pdfrwt beam="1">  1        2 0.13709963E-02 0.33547420E+02</pdfrwt>
<pdfrwt beam="2">  1       -2 0.48573036E-02 0.33547420E+02</pdfrwt>
<totfact> 0.11180604E+06</totfact>
</mgrwt>
</event>
<event>
 4    1  0.2165211E+000  0.1594303E+03  0.7546771E-02  0.1189341E+00
          3   -1    0    0  501    0  0.00000000000E+00  0.00000000000E+00  0.18284264007E+02  0.18284264007E+02  0.00000000000E+00 0. -1.
         -3   -1    0    0    0  501 -0.00000000000E+00 -0.00000000000E+00 -0.34753934935E+03  0.34753934935E+03  0.00000000000E+00 0.  1.
        -11    1    1    2    0    0  0.30057132950E+02 -0.73825903038E+02 -0.16256751638E+03  0.18105770512E+03  0.00000000000E+00 0.  1.
         11    1    1    2    0    0 -0.30057132950E+02  0.73825903038E+02 -0.16668756896E+03  0.18476590823E+03  0.00000000000E+00 0. -1.
<mgrwt>
<rscale>  0 0.15943025E+03</rscale>
<asrwt>0</asrwt>
<pdfrwt beam="1">  1        3 0.28129637E-02 0.15943025E+03</pdfrwt>
<pdfrwt beam="2">  1       -3 0.53467593E-01 0.15943025E+03</pdfrwt>
<totfact> 0.46165465E+03</totfact>
</mgrwt>
</event>
<event>
 4    1  0.2165211E+000  0.3452093E+02  0.7546771E-02  0.1552896E+00
          1   -1    0    0  501    0  0.00000000000E+00  0.00000000000E+00  0.43042574591E+02  0.43042574591E+02  0.00000000000E+00 0. -1.
         -1   -1    0    0    0  501 -0.00000000000E+00 -0.00000000000E+00 -0.69216020061E+01  0.69216020061E+01  0.00000000000E+00 0.  1.
        -13    1    1    2    0    0  0.42663937599E+01  0.16070483877E+02  0.24765525368E+02  0.29829411904E+02  0.00000000000E+00 0. -1.
         13    1    1    2    0    0 -0.42663937599E+01 -0.16070483877E+02  0.11355447217E+02  0.20134764694E+02  0.00000000000E+00 0.  1.
<mgrwt>
<rscale>  0 0.34520925E+02</rscale>
<asrwt>0</asrwt>
<pdfrwt beam="1">  1        1 0.66219344E-02 0.34520925E+02</pdfrwt>
<pdfrwt beam="2">  1       -1 0.10648619E-02 0.34520925E+02</pdfrwt>
<totfact> 0.11580664E+06</totfact>
</mgrwt>
</event>
<event>
 4    1  0.2165211E+000  0.6344516E+02  0.7546771E-02  0.1383917E+00
          4   -1    0    0  501    0  0.00000000000E+00  0.00000000000E+00  0.33294116632E+02  0.33294116632E+02  0.00000000000E+00 0. -1.
         -4   -1    0    0    0  501 -0.00000000000E+00 -0.00000000000E+00 -0.30225218752E+02  0.30225218752E+02  0.00000000000E+00 0.  1.
        -11    1    1    2    0    0 -0.16154116207E+02 -0.27177029452E+02  0.41404825473E+01  0.31885576614E+02  0.00000000000E+00 0. -1.
         11    1    1    2    0    0  0.16154116207E+02  0.27177029452E+02 -0.10715846670E+01  0.31633758771E+02  0.00000000000E+00 0.  1.
<mgrwt>
<rscale>  0 0.63445156E+02</rscale>
<asrwt>0</asrwt>
<pdfrwt beam="1">  1        4 0.51221718E-02 0.63445156E+02</pdfrwt>
<pdfrwt beam="2">  1       -4 0.46500337E-02 0.63445156E+02</pdfrwt>
<totfact> 0.75781994E+04</totfact>
</mgrwt>
</event>
<event>
 4    1  0.2165211E+000  0.2686730E+02  0.7546771E-02  0.1635544E+00
         -4   -1    0    0    0  501 -0.00000000000E+00  0.00000000000E+00  0.71604459406E+01  0.71604459406E+01  0.00000000000E+00 0. -1.
          4   -1    0    0  501    0  0.00000000000E+00 -0.00000000000E+00 -0.25202752561E+02  0.25202752561E+02  0.00000000000E+00 0.  1.
        -11    1    1    2    0    0 -0.21616960115E+01 -0.11322064327E+02 -0.71050516587E+00  0.11548458246E+02  0.00000000000E+00 0. -1.
         11    1    1    2    0    0  0.21616960115E+01  0.11322064327E+02 -0.17331801455E+02  0.20814740256E+02  0.00000000000E+00 0.  1.
<mgrwt>
<rscale>  0 0.26867300E+02</rscale>
<asrwt>0</asrwt>
<pdfrwt beam="2">  1        4 0.38773465E-02 0.26867300E+02</pdfrwt>
<pdfrwt beam="1">  1       -4 0.11016071E-02 0.26867300E+02</pdfrwt>
<totfact> 0.65940451E+05</totfact>
</mgrwt>
</event>
<event>
 4    1  0.2165211E+000  0.3490483E+02  0.7546771E-02  0.1549447E+00
          2   -1    0    0  501    0  0.00000000000E+00  0.00000000000E+00  0.27051589621E+02  0.27051589621E+02  0.00000000000E+00 0. -1.
         -2   -1    0    0    0  501 -0.00000000000E+00 -0.00000000000E+00 -0.11259480346E+02  0.11259480346E+02  0.00000000000E+00 0.  1.
        -13    1    1    2    0    0  0.14863533271E+02  0.89603978625E+01  0.58801106413E+01  0.18324547806E+02  0.00000000000E+00 0. -1.
         13    1    1    2    0    0 -0.14863533271E+02 -0.89603978625E+01  0.99119986332E+01  0.19986522160E+02  0.00000000000E+00 0.  1.
<mgrwt>
<rscale>  0 0.34904833E+02</rscale>
<asrwt>0</asrwt>
<pdfrwt beam="1">  1        2 0.41617830E-02 0.34904833E+02</pdfrwt>
<pdfrwt beam="2">  1       -2 0.17322278E-02 0.34904833E+02</pdfrwt>
<totfact> 0.11537159E+06</totfact>
</mgrwt>
</event>
<event>
 4    1  0.2165211E+000  0.3015664E+02  0.7546771E-02  0.1596364E+00
          2   -1    0    0  501    0  0.00000000000E+00  0.00000000000E+00  0.10775620468E+02  0.10775620468E+02  0.00000000000E+00 0.  1.
         -2   -1    0    0    0  501 -0.00000000000E+00 -0.00000000000E+00 -0.21099086536E+02  0.21099086536E+02  0.00000000000E+00 0. -1.
        -13    1    1    2    0    0 -0.75475903153E+01 -0.79616409137E+01  0.57717613651E+01  0.12396252452E+02  0.00000000000E+00 0.  1.
         13    1    1    2    0    0  0.75475903153E+01  0.79616409137E+01 -0.16095227433E+02  0.19478454552E+02  0.00000000000E+00 0. -1.
<mgrwt>
<rscale>  0 0.30156641E+02</rscale>
<asrwt>0</asrwt>
<pdfrwt beam="1">  1        2 0.16577878E-02 0.30156641E+02</pdfrwt>
<pdfrwt beam="2">  1       -2 0.32460133E-02 0.30156641E+02</pdfrwt>
<totfact> 0.14939423E+06</totfact>
</mgrwt>
</event>
<event>
 4    1  0.2165211E+000  0.4378019E+02  0.7546771E-02  0.1482104E+00
          2   -1    0    0  501    0  0.00000000000E+00  0.00000000000E+00  0.19737280909E+03  0.19737280909E+03  0.00000000000E+00 0. -1.
         -2   -1    0    0    0  501 -0.00000000000E+00 -0.00000000000E+00 -0.24277721628E+01  0.24277721628E+01  0.00000000000E+00 0.  1.
        -13    1    1    2    0    0 -0.92463118878E+01 -0.18823147954E+02  0.12610819912E+03  0.12784006832E+03  0.00000000000E+00 0. -1.
         13    1    1    2    0    0  0.92463118878E+01  0.18823147954E+02  0.68836837804E+02  0.71960512931E+02  0.00000000000E+00 0.  1.
<mgrwt>
<rscale>  0 0.43780188E+02</rscale>
<asrwt>0</asrwt>
<pdfrwt beam="1">  1        2 0.30365035E-01 0.43780188E+02</pdfrwt>
<pdfrwt beam="2">  1       -2 0.37350356E-03 0.43780188E+02</pdfrwt>
<totfact> 0.10194302E+06</totfact>
</mgrwt>
</event>
<event>
 4    1  0.2165211E+000  0.3108881E+02  0.7546771E-02  0.1586356E+00
          1   -1    0    0  501    0  0.00000000000E+00  0.00000000000E+00  0.12226647955E+03  0.12226647955E+03  0.00000000000E+00 0. -1.
         -1   -1    0    0    0  501 -0.00000000000E+00 -0.00000000000E+00 -0.19762449259E+01  0.19762449259E+01  0.00000000000E+00 0.  1.
        -13    1    1    2    0    0 -0.26027909053E+01 -0.14934841877E+02  0.73875746854E+02  0.75415184119E+02  0.00000000000E+00 0. -1.
         13    1    1    2    0    0  0.26027909053E+01  0.14934841877E+02  0.46414487772E+02  0.48827540359E+02  0.00000000000E+00 0.  1.
<mgrwt>
<rscale>  0 0.31088809E+02</rscale>
<asrwt>0</asrwt>
<pdfrwt beam="1">  1        1 0.18810222E-01 0.31088809E+02</pdfrwt>
<pdfrwt beam="2">  1       -1 0.30403778E-03 0.31088809E+02</pdfrwt>
<totfact> 0.16574657E+06</totfact>
</mgrwt>
</event>
<event>
 4    1  0.2165211E+000  0.2026760E+02  0.7546771E-02  0.1740058E+00
          1   -1    0    0  501    0  0.00000000000E+00  0.00000000000E+00  0.10094495978E+01  0.10094495978E+01  0.00000000000E+00 0.  1.
         -1   -1    0    0    0  501 -0.00000000000E+00 -0.00000000000E+00 -0.10173259255E+03  0.10173259255E+03  0.00000000000E+00 0. -1.
        -13    1    1    2    0    0  0.93661533377E+01  0.38176409255E+01 -0.53546407776E+02  0.54493274781E+02  0.00000000000E+00 0.  1.
         13    1    1    2    0    0 -0.93661533377E+01 -0.38176409255E+01 -0.47176735174E+02  0.48248767365E+02  0.00000000000E+00 0. -1.
<mgrwt>
<rscale>  0 0.20267602E+02</rscale>
<asrwt>0</asrwt>
<pdfrwt beam="1">  1        1 0.15529993E-03 0.20267602E+02</pdfrwt>
<pdfrwt beam="2">  1       -1 0.15651169E-01 0.20267602E+02</pdfrwt>
<totfact> 0.30862399E+06</totfact>
</mgrwt>
</event>
<event>
 4    1  0.2165211E+000  0.5941875E+02  0.7546771E-02  0.1400287E+00
         -2   -1    0    0    0  501 -0.00000000000E+00  0.00000000000E+00  0.43916358209E+01  0.43916358209E+01  0.00000000000E+00 0. -1.
          2   -1    0    0  501    0  0.00000000000E+00 -0.00000000000E+00 -0.20098362439E+03  0.20098362439E+03  0.00000000000E+00 0.  1.
        -13    1    1    2    0    0  0.20647947481E+02  0.14516125664E+02 -0.15246253179E+03  0.15453763049E+03  0.00000000000E+00 0.  1.
         13    1    1    2    0    0 -0.20647947481E+02 -0.14516125664E+02 -0.44129456781E+02  0.50837629717E+02  0.00000000000E+00 0. -1.
<mgrwt>
<rscale>  0 0.59418747E+02</rscale>
<asrwt>0</asrwt>
<pdfrwt beam="2">  1        2 0.30920553E-01 0.59418747E+02</pdfrwt>
<pdfrwt beam="1">  1       -2 0.67563639E-03 0.59418747E+02</pdfrwt>
<totfact> 0.47647359E+05</totfact>
</mgrwt>
</event>
<event>
 4    1  0.2165211E+000  0.2866138E+02  0.7546771E-02  0.1613375E+00
          2   -1    0    0  501    0  0.00000000000E+00  0.00000000000E+00  0.24641621448E+01  0.24641621448E+01  0.00000000000E+00 0. -1.
         -2   -1    0    0    0  501 -0.00000000000E+00 -0.00000000000E+00 -0.83342220790E+02  0.83342220790E+02  0.00000000000E+00 0.  1.
        -13    1    1    2    0    0  0.54581001231E+01  0.11512107679E+02 -0.60081915349E+02  0.61417880395E+02  0.00000000000E+00 0.  1.
         13    1    1    2    0    0 -0.54581001231E+01 -0.11512107679E+02 -0.20796143296E+02  0.24388502540E+02  0.00000000000E+00 0. -1.
<mgrwt>
<rscale>  0 0.28661385E+02</rscale>
<asrwt>0</asrwt>
<pdfrwt beam="1">  1        2 0.37910184E-03 0.28661385E+02</pdfrwt>
<pdfrwt beam="2">  1       -2 0.12821881E-01 0.28661385E+02</pdfrwt>
<totfact> 0.13813761E+06</totfact>
</mgrwt>
</event>
<event>
 4    1  0.2165211E+000  0.3093187E+02  0.7546771E-02  0.1588011E+00
         -4   -1    0    0    0  501 -0.00000000000E+00  0.00000000000E+00  0.52618715646E+01  0.52618715646E+01  0.00000000000E+00 0.  1.
          4   -1    0    0  501    0  0.00000000000E+00 -0.00000000000E+00 -0.45458184938E+02  0.45458184938E+02  0.00000000000E+00 0. -1.
        -13    1    1    2    0    0 -0.83863211373E+01 -0.12993693489E+02 -0.20375838791E+02  0.25580094979E+02  0.00000000000E+00 0.  1.
         13    1    1    2    0    0  0.83863211373E+01  0.12993693489E+02 -0.19820474582E+02  0.25139961523E+02  0.00000000000E+00 0. -1.
<mgrwt>
<rscale>  0 0.30931869E+02</rscale>
<asrwt>0</asrwt>
<pdfrwt beam="2">  1        4 0.69935670E-02 0.30931869E+02</pdfrwt>
<pdfrwt beam="1">  1       -4 0.80951869E-03 0.30931869E+02</pdfrwt>
<totfact> 0.45057803E+05</totfact>
</mgrwt>
</event>
<event>
 4    1  0.2165211E+000  0.2412502E+02  0.7546771E-02  0.1673897E+00
          2   -1    0    0  501    0  0.00000000000E+00  0.00000000000E+00  0.25593466629E+01  0.25593466629E+01  0.00000000000E+00 0.  1.
         -2   -1    0    0    0  501 -0.00000000000E+00 -0.00000000000E+00 -0.56852067417E+02  0.56852067417E+02  0.00000000000E+00 0. -1.
        -11    1    1    2    0    0 -0.11831972503E+02 -0.19013618760E+01 -0.23757737453E+02  0.26609036795E+02  0.00000000000E+00 0.  1.
         11    1    1    2    0    0  0.11831972503E+02  0.19013618760E+01 -0.30534983301E+02  0.32802377284E+02  0.00000000000E+00 0. -1.
<mgrwt>
<rscale>  0 0.24125020E+02</rscale>
<asrwt>0</asrwt>
<pdfrwt beam="1">  1        2 0.39374567E-03 0.24125020E+02</pdfrwt>
<pdfrwt beam="2">  1       -2 0.87464712E-02 0.24125020E+02</pdfrwt>
<totfact> 0.21935562E+06</totfact>
</mgrwt>
</event>
<event>
 4    1  0.2165211E+000  0.2582887E+02  0.7546771E-02  0.1649374E+00
          4   -1    0    0  501    0  0.00000000000E+00  0.00000000000E+00  0.18073430967E+01  0.18073430967E+01  0.00000000000E+00 0.  1.
         -4   -1    0    0    0  501 -0.00000000000E+00 -0.00000000000E+00 -0.92280556455E+02  0.92280556455E+02  0.00000000000E+00 0. -1.
        -13    1    1    2    0    0  0.10401439023E+02 -0.45651852596E+01 -0.22854700580E+02  0.25521915853E+02  0.00000000000E+00 0.  1.
         13    1    1    2    0    0 -0.10401439023E+02  0.45651852596E+01 -0.67618512779E+02  0.68565983699E+02  0.00000000000E+00 0. -1.
<mgrwt>
<rscale>  0 0.25828870E+02</rscale>
<asrwt>0</asrwt>
<pdfrwt beam="1">  1        4 0.27805277E-03 0.25828870E+02</pdfrwt>
<pdfrwt beam="2">  1       -4 0.14197009E-01 0.25828870E+02</pdfrwt>
<totfact> 0.58628844E+05</totfact>
</mgrwt>
</event>
<event>
 4    1  0.2165211E+000  0.2548489E+02  0.7546771E-02  0.1654133E+00
         -2   -1    0    0    0  501 -0.00000000000E+00  0.00000000000E+00  0.99248854521E+02  0.99248854521E+02  0.00000000000E+00 0.  1.
          2   -1    0    0  501    0  0.00000000000E+00 -0.00000000000E+00 -0.16359882873E+01  0.16359882873E+01  0.00000000000E+00 0. -1.
        -13    1    1    2    0    0  0.10926128149E+02  0.48814007689E+01  0.31478006959E+02  0.33676004394E+02  0.00000000000E+00 0. -1.
         13    1    1    2    0    0 -0.10926128149E+02 -0.48814007689E+01  0.66134859274E+02  0.67208838415E+02  0.00000000000E+00 0.  1.
<mgrwt>
<rscale>  0 0.25484895E+02</rscale>
<asrwt>0</asrwt>
<pdfrwt beam="2">  1        2 0.25169058E-03 0.25484895E+02</pdfrwt>
<pdfrwt beam="1">  1       -2 0.15269050E-01 0.25484895E+02</pdfrwt>
<totfact> 0.17369836E+06</totfact>
</mgrwt>
</event>
<event>
 4    1  0.2165211E+000  0.3496600E+02  0.7546771E-02  0.1548903E+00
          4   -1    0    0  501    0  0.00000000000E+00  0.00000000000E+00  0.31390675103E+02  0.31390675103E+02  0.00000000000E+00 0. -1.
         -4   -1    0    0    0  501 -0.00000000000E+00 -0.00000000000E+00 -0.97371385135E+01  0.97371385135E+01  0.00000000000E+00 0.  1.
        -13    1    1    2    0    0 -0.12150923928E+02 -0.15693084850E+01 -0.38429366955E+01  0.12840398899E+02  0.00000000000E+00 0.  1.
         13    1    1    2    0    0  0.12150923928E+02  0.15693084850E+01  0.25496473285E+02  0.28287414718E+02  0.00000000000E+00 0. -1.
<mgrwt>
<rscale>  0 0.34966004E+02</rscale>
<asrwt>0</asrwt>
<pdfrwt beam="1">  1        4 0.48293346E-02 0.34966004E+02</pdfrwt>
<pdfrwt beam="2">  1       -4 0.14980213E-02 0.34966004E+02</pdfrwt>
<totfact> 0.35143380E+05</totfact>
</mgrwt>
</event>
<event>
 4    1  0.2165211E+000  0.3391970E+02  0.7546771E-02  0.1558409E+00
         -2   -1    0    0    0  501 -0.00000000000E+00  0.00000000000E+00  0.52234242431E+01  0.52234242431E+01  0.00000000000E+00 0. -1.
          2   -1    0    0  501    0  0.00000000000E+00 -0.00000000000E+00 -0.55066660871E+02  0.55066660871E+02  0.00000000000E+00 0.  1.
        -13    1    1    2    0    0  0.13762504495E+02 -0.81514434701E+01 -0.34942315907E+02  0.38429389815E+02  0.00000000000E+00 0. -1.
         13    1    1    2    0    0 -0.13762504495E+02  0.81514434701E+01 -0.14900920721E+02  0.21860695299E+02  0.00000000000E+00 0.  1.
<mgrwt>
<rscale>  0 0.33919701E+02</rscale>
<asrwt>0</asrwt>
<pdfrwt beam="2">  1        2 0.84717939E-02 0.33919701E+02</pdfrwt>
<pdfrwt beam="1">  1       -2 0.80360373E-03 0.33919701E+02</pdfrwt>
<totfact> 0.13759964E+06</totfact>
</mgrwt>
</event>
<event>
 4    1  0.2165211E+000  0.2318868E+02  0.7546771E-02  0.1688470E+00
          4   -1    0    0  501    0  0.00000000000E+00  0.00000000000E+00  0.21645530691E+01  0.21645530691E+01  0.00000000000E+00 0. -1.
         -4   -1    0    0    0  501 -0.00000000000E+00 -0.00000000000E+00 -0.62104620218E+02  0.62104620218E+02  0.00000000000E+00 0.  1.
        -13    1    1    2    0    0  0.64186075224E+01  0.96270623530E+01 -0.27914776165E+02  0.30217769283E+02  0.00000000000E+00 0. -1.
         13    1    1    2    0    0 -0.64186075224E+01 -0.96270623530E+01 -0.32025290983E+02  0.34051404004E+02  0.00000000000E+00 0.  1.
<mgrwt>
<rscale>  0 0.23188682E+02</rscale>
<asrwt>0</asrwt>
<pdfrwt beam="1">  1        4 0.33300820E-03 0.23188682E+02</pdfrwt>
<pdfrwt beam="2">  1       -4 0.95545559E-02 0.23188682E+02</pdfrwt>
<totfact> 0.80805292E+05</totfact>
</mgrwt>
</event>
<event>
 4    1  0.2165211E+000  0.2580086E+02  0.7546771E-02  0.1649758E+00
         -2   -1    0    0    0  501 -0.00000000000E+00  0.00000000000E+00  0.81886802437E+01  0.81886802437E+01  0.00000000000E+00 0.  1.
          2   -1    0    0  501    0  0.00000000000E+00 -0.00000000000E+00 -0.20323315891E+02  0.20323315891E+02  0.00000000000E+00 0. -1.
        -13    1    1    2    0    0  0.28021333163E+01  0.12537272054E+02 -0.73683079693E+01  0.14809696283E+02  0.00000000000E+00 0. -1.
         13    1    1    2    0    0 -0.28021333163E+01 -0.12537272054E+02 -0.47663276779E+01  0.13702299851E+02  0.00000000000E+00 0.  1.
<mgrwt>
<rscale>  0 0.25800863E+02</rscale>
<asrwt>0</asrwt>
<pdfrwt beam="2">  1        2 0.31266640E-02 0.25800863E+02</pdfrwt>
<pdfrwt beam="1">  1       -2 0.12597970E-02 0.25800863E+02</pdfrwt>
<totfact> 0.23182959E+06</totfact>
</mgrwt>
</event>
<event>
 4    1  0.2165211E+000  0.4011381E+02  0.7546771E-02  0.1507376E+00
          4   -1    0    0  501    0  0.00000000000E+00  0.00000000000E+00  0.37859036729E+02  0.37859036729E+02  0.00000000000E+00 0.  1.
         -4   -1    0    0    0  501 -0.00000000000E+00 -0.00000000000E+00 -0.10625716791E+02  0.10625716791E+02  0.00000000000E+00 0. -1.
        -13    1    1    2    0    0 -0.94602306141E+01  0.13285719849E+02  0.27726313370E+02  0.32167604329E+02  0.00000000000E+00 0. -1.
         13    1    1    2    0    0  0.94602306141E+01 -0.13285719849E+02 -0.49299343184E+00  0.16317149190E+02  0.00000000000E+00 0.  1.
<mgrwt>
<rscale>  0 0.40113808E+02</rscale>
<asrwt>0</asrwt>
<pdfrwt beam="1">  1        4 0.58244671E-02 0.40113808E+02</pdfrwt>
<pdfrwt beam="2">  1       -4 0.16347257E-02 0.40113808E+02</pdfrwt>
<totfact> 0.24789154E+05</totfact>
</mgrwt>
</event>
<event>
 4    1  0.2165211E+000  0.2552078E+02  0.7546771E-02  0.1653633E+00
          2   -1    0    0  501    0  0.00000000000E+00  0.00000000000E+00  0.37882782894E+02  0.37882782894E+02  0.00000000000E+00 0. -1.
         -2   -1    0    0    0  501 -0.00000000000E+00 -0.00000000000E+00 -0.42981938164E+01  0.42981938164E+01  0.00000000000E+00 0.  1.
        -11    1    1    2    0    0 -0.66861517953E+00  0.12742690093E+02  0.16901256284E+02  0.21177243943E+02  0.00000000000E+00 0. -1.
         11    1    1    2    0    0  0.66861517953E+00 -0.12742690093E+02  0.16683332794E+02  0.21003732767E+02  0.00000000000E+00 0.  1.
<mgrwt>
<rscale>  0 0.25520779E+02</rscale>
<asrwt>0</asrwt>
<pdfrwt beam="1">  1        2 0.58281202E-02 0.25520779E+02</pdfrwt>
<pdfrwt beam="2">  1       -2 0.66126061E-03 0.25520779E+02</pdfrwt>
<totfact> 0.25544458E+06</totfact>
</mgrwt>
</event>
<event>
 4    1  0.2165211E+000  0.2222068E+02  0.7546771E-02  0.1704463E+00
         -4   -1    0    0    0  501 -0.00000000000E+00  0.00000000000E+00  0.14045266056E+02  0.14045266056E+02  0.00000000000E+00 0. -1.
          4   -1    0    0  501    0  0.00000000000E+00 -0.00000000000E+00 -0.87886987301E+01  0.87886987301E+01  0.00000000000E+00 0.  1.
        -11    1    1    2    0    0  0.50128306656E+01  0.99098547680E+01  0.22938489990E+01  0.11339992770E+02  0.00000000000E+00 0.  1.
         11    1    1    2    0    0 -0.50128306656E+01 -0.99098547680E+01  0.29627183265E+01  0.11493972015E+02  0.00000000000E+00 0. -1.
<mgrwt>
<rscale>  0 0.22220676E+02</rscale>
<asrwt>0</asrwt>
<pdfrwt beam="2">  1        4 0.13521075E-02 0.22220676E+02</pdfrwt>
<pdfrwt beam="1">  1       -4 0.21608102E-02 0.22220676E+02</pdfrwt>
<totfact> 0.10324630E+06</totfact>
</mgrwt>
</event>
<event>
 4    1  0.2165211E+000  0.4113713E+02  0.7546771E-02  0.1500006E+00
         -1   -1    0    0    0  501 -0.00000000000E+00  0.00000000000E+00  0.44484136343E+02  0.44484136343E+02  0.00000000000E+00 0. -1.
          1   -1    0    0  501    0  0.00000000000E+00 -0.00000000000E+00 -0.95104877117E+01  0.95104877117E+01  0.00000000000E+00 0.  1.
        -13    1    1    2    0    0 -0.81447667388E+01 -0.18846095887E+02  0.15850983822E+02  0.25937737827E+02  0.00000000000E+00 0.  1.
         13    1    1    2    0    0  0.81447667388E+01  0.18846095887E+02  0.19122664810E+02  0.28056886229E+02  0.00000000000E+00 0. -1.
<mgrwt>
<rscale>  0 0.41137128E+02</rscale>
<asrwt>0</asrwt>
<pdfrwt beam="2">  1        1 0.14631520E-02 0.41137128E+02</pdfrwt>
<pdfrwt beam="1">  1       -1 0.68437131E-02 0.41137128E+02</pdfrwt>
<totfact> 0.66542894E+05</totfact>
</mgrwt>
</event>
<event>
 4    1  0.2165211E+000  0.4109158E+02  0.7546771E-02  0.1500329E+00
         -4   -1    0    0    0  501 -0.00000000000E+00  0.00000000000E+00  0.85158672256E+01  0.85158672256E+01  0.00000000000E+00 0.  1.
          4   -1    0    0  501    0  0.00000000000E+00 -0.00000000000E+00 -0.49569766690E+02  0.49569766690E+02  0.00000000000E+00 0. -1.
        -13    1    1    2    0    0  0.18553559235E+02  0.42782871119E+01 -0.31439018883E+02  0.36755274577E+02  0.00000000000E+00 0. -1.
         13    1    1    2    0    0 -0.18553559235E+02 -0.42782871119E+01 -0.96148805812E+01  0.21330359338E+02  0.00000000000E+00 0.  1.
<mgrwt>
<rscale>  0 0.41091583E+02</rscale>
<asrwt>0</asrwt>
<pdfrwt beam="2">  1        4 0.76261180E-02 0.41091583E+02</pdfrwt>
<pdfrwt beam="1">  1       -4 0.13101334E-02 0.41091583E+02</pdfrwt>
<totfact> 0.22699634E+05</totfact>
</mgrwt>
</event>
<event>
 4    1  0.2165211E+000  0.2800732E+02  0.7546771E-02  0.1621221E+00
          4   -1    0    0  501    0  0.00000000000E+00  0.00000000000E+00  0.39496347092E+02  0.39496347092E+02  0.00000000000E+00 0. -1.
         -4   -1    0    0    0  501 -0.00000000000E+00 -0.00000000000E+00 -0.49650786297E+01  0.49650786297E+01  0.00000000000E+00 0.  1.
        -11    1    1    2    0    0 -0.12133226283E+02  0.84370822842E+00  0.62470771127E+01  0.13673075589E+02  0.00000000000E+00 0.  1.
         11    1    1    2    0    0  0.12133226283E+02 -0.84370822842E+00  0.28284191350E+02  0.30788350133E+02  0.00000000000E+00 0. -1.
<mgrwt>
<rscale>  0 0.28007318E+02</rscale>
<asrwt>0</asrwt>
<pdfrwt beam="1">  1        4 0.60763609E-02 0.28007318E+02</pdfrwt>
<pdfrwt beam="2">  1       -4 0.76385828E-03 0.28007318E+02</pdfrwt>
<totfact> 0.57518233E+05</totfact>
</mgrwt>
</event>
<event>
 4    1  0.2165211E+000  0.2523539E+02  0.7546771E-02  0.1657644E+00
          2   -1    0    0  501    0  0.00000000000E+00  0.00000000000E+00  0.74812353217E+02  0.74812353217E+02  0.00000000000E+00 0.  1.
         -2   -1    0    0    0  501 -0.00000000000E+00 -0.00000000000E+00 -0.21280732948E+01  0.21280732948E+01  0.00000000000E+00 0. -1.
        -11    1    1    2    0    0  0.62517420513E+01  0.84123683249E+01  0.14922823371E+02  0.18235758193E+02  0.00000000000E+00 0. -1.
         11    1    1    2    0    0 -0.62517420513E+01 -0.84123683249E+01  0.57761456552E+02  0.58704668319E+02  0.00000000000E+00 0.  1.
<mgrwt>
<rscale>  0 0.25235386E+02</rscale>
<asrwt>0</asrwt>
<pdfrwt beam="1">  1        2 0.11509591E-01 0.25235386E+02</pdfrwt>
<pdfrwt beam="2">  1       -2 0.32739595E-03 0.25235386E+02</pdfrwt>
<totfact> 0.29341199E+06</totfact>
</mgrwt>
</event>
<event>
 4    1  0.2165211E+000  0.3292703E+02  0.7546771E-02  0.1567819E+00
          2   -1    0    0  501    0  0.00000000000E+00  0.00000000000E+00  0.91235792962E+01  0.91235792962E+01  0.00000000000E+00 0.  1.
         -2   -1    0    0    0  501 -0.00000000000E+00 -0.00000000000E+00 -0.29708447628E+02  0.29708447628E+02  0.00000000000E+00 0. -1.
        -11    1    1    2    0    0 -0.82303998098E+00  0.15480123529E+02 -0.37542157199E+01  0.15950102035E+02  0.00000000000E+00 0.  1.
         11    1    1    2    0    0  0.82303998098E+00 -0.15480123529E+02 -0.16830652612E+02  0.22881924889E+02  0.00000000000E+00 0. -1.
<mgrwt>
<rscale>  0 0.32927033E+02</rscale>
<asrwt>0</asrwt>
<pdfrwt beam="1">  1        2 0.14036276E-02 0.32927033E+02</pdfrwt>
<pdfrwt beam="2">  1       -2 0.45705304E-02 0.32927033E+02</pdfrwt>
<totfact> 0.11759519E+06</totfact>
</mgrwt>
</event>
<event>
 4    1  0.2165211E+000  0.2490531E+02  0.7546771E-02  0.1662366E+00
         -2   -1    0    0    0  501 -0.00000000000E+00  0.00000000000E+00  0.32330924746E+02  0.32330924746E+02  0.00000000000E+00 0. -1.
          2   -1    0    0  501    0  0.00000000000E+00 -0.00000000000E+00 -0.47962951176E+01  0.47962951176E+01  0.00000000000E+00 0.  1.
        -11    1    1    2    0    0 -0.12401418169E+02  0.62402993786E-01  0.15447016392E+02  0.19809325636E+02  0.00000000000E+00 0. -1.
         11    1    1    2    0    0  0.12401418169E+02 -0.62402993786E-01  0.12087613237E+02  0.17317894228E+02  0.00000000000E+00 0.  1.
<mgrwt>
<rscale>  0 0.24905313E+02</rscale>
<asrwt>0</asrwt>
<pdfrwt beam="2">  1        2 0.73789158E-03 0.24905313E+02</pdfrwt>
<pdfrwt beam="1">  1       -2 0.49739883E-02 0.24905313E+02</pdfrwt>
<totfact> 0.22007018E+06</totfact>
</mgrwt>
</event>
<event>
 4    1  0.2165211E+000  0.2375910E+02  0.7546771E-02  0.1679493E+00
         -2   -1    0    0    0  501 -0.00000000000E+00  0.00000000000E+00  0.95552274977E+01  0.95552274977E+01  0.00000000000E+00 0. -1.
          2   -1    0    0  501    0  0.00000000000E+00 -0.00000000000E+00 -0.14769265714E+02  0.14769265714E+02  0.00000000000E+00 0.  1.
        -11    1    1    2    0    0 -0.52466842391E+01 -0.97833770541E+01  0.17222660924E+01  0.11234249534E+02  0.00000000000E+00 0. -1.
         11    1    1    2    0    0  0.52466842391E+01  0.97833770541E+01 -0.69363043085E+01  0.13090243678E+02  0.00000000000E+00 0.  1.
<mgrwt>
<rscale>  0 0.23759099E+02</rscale>
<asrwt>0</asrwt>
<pdfrwt beam="2">  1        2 0.22721947E-02 0.23759099E+02</pdfrwt>
<pdfrwt beam="1">  1       -2 0.14700350E-02 0.23759099E+02</pdfrwt>
<totfact> 0.27322752E+06</totfact>
</mgrwt>
</event>
<event>
 4    1  0.2165211E+000  0.6752234E+02  0.7546771E-02  0.1368727E+00
         -4   -1    0    0    0  501 -0.00000000000E+00  0.00000000000E+00  0.25388048485E+02  0.25388048485E+02  0.00000000000E+00 0.  1.
          4   -1    0    0  501    0  0.00000000000E+00 -0.00000000000E+00 -0.44895788272E+02  0.44895788272E+02  0.00000000000E+00 0. -1.
        -11    1    1    2    0    0  0.24836713706E+02 -0.13898252137E+02 -0.28656773410E+02  0.40388543208E+02  0.00000000000E+00 0. -1.
         11    1    1    2    0    0 -0.24836713706E+02  0.13898252137E+02  0.91490336227E+01  0.29895293549E+02  0.00000000000E+00 0.  1.
<mgrwt>
<rscale>  0 0.67522336E+02</rscale>
<asrwt>0</asrwt>
<pdfrwt beam="2">  1        4 0.69070444E-02 0.67522336E+02</pdfrwt>
<pdfrwt beam="1">  1       -4 0.39058536E-02 0.67522336E+02</pdfrwt>
<totfact> 0.63287787E+04</totfact>
</mgrwt>
</event>
<event>
 4    1  0.2165211E+000  0.2623286E+02  0.7546771E-02  0.1643900E+00
         -2   -1    0    0    0  501 -0.00000000000E+00  0.00000000000E+00  0.26888410377E+01  0.26888410377E+01  0.00000000000E+00 0. -1.
          2   -1    0    0  501    0  0.00000000000E+00 -0.00000000000E+00 -0.63983212405E+02  0.63983212405E+02  0.00000000000E+00 0.  1.
        -13    1    1    2    0    0  0.73372788265E+01  0.96675043355E+01 -0.43289791498E+02  0.44958896212E+02  0.00000000000E+00 0.  1.
         13    1    1    2    0    0 -0.73372788265E+01 -0.96675043355E+01 -0.18004579869E+02  0.21713157230E+02  0.00000000000E+00 0. -1.
<mgrwt>
<rscale>  0 0.26232856E+02</rscale>
<asrwt>0</asrwt>
<pdfrwt beam="2">  1        2 0.98435705E-02 0.26232856E+02</pdfrwt>
<pdfrwt beam="1">  1       -2 0.41366788E-03 0.26232856E+02</pdfrwt>
<totfact> 0.26026286E+06</totfact>
</mgrwt>
</event>
<event>
 4    1  0.2165211E+000  0.7061301E+02  0.7546771E-02  0.1358021E+00
          2   -1    0    0  501    0  0.00000000000E+00  0.00000000000E+00  0.13928294976E+02  0.13928294976E+02  0.00000000000E+00 0.  1.
         -2   -1    0    0    0  501 -0.00000000000E+00 -0.00000000000E+00 -0.89497634273E+02  0.89497634273E+02  0.00000000000E+00 0. -1.
        -13    1    1    2    0    0  0.42833880053E+01 -0.31311625812E+02 -0.14728804651E+02  0.34866932905E+02  0.00000000000E+00 0.  1.
         13    1    1    2    0    0 -0.42833880053E+01  0.31311625812E+02 -0.60840534645E+02  0.68558996344E+02  0.00000000000E+00 0. -1.
<mgrwt>
<rscale>  0 0.70613014E+02</rscale>
<asrwt>0</asrwt>
<pdfrwt beam="1">  1        2 0.21428146E-02 0.70613014E+02</pdfrwt>
<pdfrwt beam="2">  1       -2 0.13768867E-01 0.70613014E+02</pdfrwt>
<totfact> 0.15522789E+05</totfact>
</mgrwt>
</event>
<event>
 4    1  0.2165211E+000  0.1660384E+03  0.7546771E-02  0.1182043E+00
          2   -1    0    0  501    0  0.00000000000E+00  0.00000000000E+00  0.11811076137E+03  0.11811076137E+03  0.00000000000E+00 0. -1.
         -2   -1    0    0    0  501 -0.00000000000E+00 -0.00000000000E+00 -0.58353619157E+02  0.58353619157E+02  0.00000000000E+00 0.  1.
        -13    1    1    2    0    0 -0.63012090654E+02  0.13494214216E+02 -0.25748970361E+02  0.69394717814E+02  0.00000000000E+00 0.  1.
         13    1    1    2    0    0  0.63012090654E+02 -0.13494214216E+02  0.85506112576E+02  0.10706966271E+03  0.00000000000E+00 0. -1.
<mgrwt>
<rscale>  0 0.16603843E+03</rscale>
<asrwt>0</asrwt>
<pdfrwt beam="1">  1        2 0.18170886E-01 0.16603843E+03</pdfrwt>
<pdfrwt beam="2">  1       -2 0.89774799E-02 0.16603843E+03</pdfrwt>
<totfact> 0.23093418E+04</totfact>
</mgrwt>
</event>
<event>
 4    1  0.2165211E+000  0.3379474E+02  0.7546771E-02  0.1559572E+00
          2   -1    0    0  501    0  0.00000000000E+00  0.00000000000E+00  0.30897270240E+01  0.30897270240E+01  0.00000000000E+00 0. -1.
         -2   -1    0    0    0  501 -0.00000000000E+00 -0.00000000000E+00 -0.92409834396E+02  0.92409834396E+02  0.00000000000E+00 0.  1.
        -13    1    1    2    0    0  0.15848816117E+02 -0.40156319744E+01 -0.32600872592E+02  0.36470908492E+02  0.00000000000E+00 0. -1.
         13    1    1    2    0    0 -0.15848816117E+02  0.40156319744E+01 -0.56719234780E+02  0.59028652928E+02  0.00000000000E+00 0.  1.
<mgrwt>
<rscale>  0 0.33794743E+02</rscale>
<asrwt>0</asrwt>
<pdfrwt beam="1">  1        2 0.47534261E-03 0.33794743E+02</pdfrwt>
<pdfrwt beam="2">  1       -2 0.14216898E-01 0.33794743E+02</pdfrwt>
<totfact> 0.92020446E+05</totfact>
</mgrwt>
</event>
<event>
 4    1  0.2165211E+000  0.3604863E+02  0.7546771E-02  0.1539481E+00
          4   -1    0    0  501    0  0.00000000000E+00  0.00000000000E+00  0.10633878622E+03  0.10633878622E+03  0.00000000000E+00 0. -1.
         -4   -1    0    0    0  501 -0.00000000000E+00 -0.00000000000E+00 -0.30551029926E+01  0.30551029926E+01  0.00000000000E+00 0.  1.
        -13    1    1    2    0    0  0.57169143674E+01  0.12970336189E+02  0.85428924905E+02  0.86596847178E+02  0.00000000000E+00 0. -1.
         13    1    1    2    0    0 -0.57169143674E+01 -0.12970336189E+02  0.17854758319E+02  0.22797042031E+02  0.00000000000E+00 0.  1.
<mgrwt>
<rscale>  0 0.36048631E+02</rscale>
<asrwt>0</asrwt>
<pdfrwt beam="1">  1        4 0.16359810E-01 0.36048631E+02</pdfrwt>
<pdfrwt beam="2">  1       -4 0.47001593E-03 0.36048631E+02</pdfrwt>
<totfact> 0.26703650E+05</totfact>
</mgrwt>
</event>
<event>
 4    1  0.2165211E+000  0.3083136E+02  0.7546771E-02  0.1589077E+00
         -2   -1    0    0    0  501 -0.00000000000E+00  0.00000000000E+00  0.50070570752E+02  0.50070570752E+02  0.00000000000E+00 0. -1.
          2   -1    0    0  501    0  0.00000000000E+00 -0.00000000000E+00 -0.47461660592E+01  0.47461660592E+01  0.00000000000E+00 0.  1.
        -13    1    1    2    0    0 -0.13833503379E+02  0.60898202868E+01  0.17271888711E+02  0.22951467633E+02  0.00000000000E+00 0. -1.
         13    1    1    2    0    0  0.13833503379E+02 -0.60898202868E+01  0.28052515982E+02  0.31865269178E+02  0.00000000000E+00 0.  1.
<mgrwt>
<rscale>  0 0.30831363E+02</rscale>
<asrwt>0</asrwt>
<pdfrwt beam="2">  1        2 0.73017943E-03 0.30831363E+02</pdfrwt>
<pdfrwt beam="1">  1       -2 0.77031644E-02 0.30831363E+02</pdfrwt>
<totfact> 0.12776179E+06</totfact>
</mgrwt>
</event>
<event>
 4    1  0.2165211E+000  0.5459393E+02  0.7546771E-02  0.1422029E+00
          2   -1    0    0  501    0  0.00000000000E+00  0.00000000000E+00  0.11467506017E+02  0.11467506017E+02  0.00000000000E+00 0.  1.
         -2   -1    0    0    0  501 -0.00000000000E+00 -0.00000000000E+00 -0.64977008008E+02  0.64977008008E+02  0.00000000000E+00 0. -1.
        -13    1    1    2    0    0 -0.17738371250E+01 -0.10924016404E+02  0.81851563332E+01  0.13765079613E+02  0.00000000000E+00 0.  1.
         13    1    1    2    0    0  0.17738371250E+01  0.10924016404E+02 -0.61694658325E+02  0.62679434413E+02  0.00000000000E+00 0. -1.
<mgrwt>
<rscale>  0 0.54593928E+02</rscale>
<asrwt>0</asrwt>
<pdfrwt beam="1">  1        2 0.17642317E-02 0.54593928E+02</pdfrwt>
<pdfrwt beam="2">  1       -2 0.99964627E-02 0.54593928E+02</pdfrwt>
<totfact> 0.31389501E+05</totfact>
</mgrwt>
</event>
<event>
 4    1  0.2165211E+000  0.4161029E+02  0.7546771E-02  0.1496685E+00
         -2   -1    0    0    0  501 -0.00000000000E+00  0.00000000000E+00  0.16042728365E+03  0.16042728365E+03  0.00000000000E+00 0. -1.
          2   -1    0    0  501    0  0.00000000000E+00 -0.00000000000E+00 -0.26981326562E+01  0.26981326562E+01  0.00000000000E+00 0.  1.
        -13    1    1    2    0    0 -0.19720296669E+02 -0.47860277215E+01  0.60874676660E+02  0.64167923611E+02  0.00000000000E+00 0.  1.
         13    1    1    2    0    0  0.19720296669E+02  0.47860277215E+01  0.96854474333E+02  0.98957492695E+02  0.00000000000E+00 0. -1.
<mgrwt>
<rscale>  0 0.41610292E+02</rscale>
<asrwt>0</asrwt>
<pdfrwt beam="2">  1        2 0.41509746E-03 0.41610292E+02</pdfrwt>
<pdfrwt beam="1">  1       -2 0.24681113E-01 0.41610292E+02</pdfrwt>
<totfact> 0.47930259E+05</totfact>
</mgrwt>
</event>
<event>
 4    1  0.2165211E+000  0.2651688E+02  0.7546771E-02  0.1640124E+00
          2   -1    0    0  501    0  0.00000000000E+00  0.00000000000E+00  0.97969847744E+02  0.97969847744E+02  0.00000000000E+00 0.  1.
         -2   -1    0    0    0  501 -0.00000000000E+00 -0.00000000000E+00 -0.17942893120E+01  0.17942893120E+01  0.00000000000E+00 0. -1.
        -13    1    1    2    0    0 -0.95161163885E+01  0.83559688415E+01  0.62855687875E+02  0.64118766244E+02  0.00000000000E+00 0. -1.
         13    1    1    2    0    0  0.95161163885E+01 -0.83559688415E+01  0.33319870556E+02  0.35645370812E+02  0.00000000000E+00 0.  1.
<mgrwt>
<rscale>  0 0.26516881E+02</rscale>
<asrwt>0</asrwt>
<pdfrwt beam="1">  1        2 0.15072280E-01 0.26516881E+02</pdfrwt>
<pdfrwt beam="2">  1       -2 0.27604459E-03 0.26516881E+02</pdfrwt>
<totfact> 0.27745381E+06</totfact>
</mgrwt>
</event>
<event>
 4    1  0.2165211E+000  0.2434139E+02  0.7546771E-02  0.1670646E+00
         -4   -1    0    0    0  501 -0.00000000000E+00  0.00000000000E+00  0.10791163576E+02  0.10791163576E+02  0.00000000000E+00 0.  1.
          4   -1    0    0  501    0  0.00000000000E+00 -0.00000000000E+00 -0.13726580848E+02  0.13726580848E+02  0.00000000000E+00 0. -1.
        -13    1    1    2    0    0  0.10757097771E+02  0.45710249347E+01  0.19504543721E+01  0.11849628419E+02  0.00000000000E+00 0.  1.
         13    1    1    2    0    0 -0.10757097771E+02 -0.45710249347E+01 -0.48858716440E+01  0.12668116006E+02  0.00000000000E+00 0. -1.
<mgrwt>
<rscale>  0 0.24341387E+02</rscale>
<asrwt>0</asrwt>
<pdfrwt beam="2">  1        4 0.21117817E-02 0.24341387E+02</pdfrwt>
<pdfrwt beam="1">  1       -4 0.16601790E-02 0.24341387E+02</pdfrwt>
<totfact> 0.84428716E+05</totfact>
</mgrwt>
</event>
<event>
 4    1  0.2165211E+000  0.2379114E+02  0.7546771E-02  0.1678998E+00
         -2   -1    0    0    0  501 -0.00000000000E+00  0.00000000000E+00  0.11991697760E+01  0.11991697760E+01  0.00000000000E+00 0.  1.
          2   -1    0    0  501    0  0.00000000000E+00 -0.00000000000E+00 -0.11800213637E+03  0.11800213637E+03  0.00000000000E+00 0. -1.
        -13    1    1    2    0    0 -0.11221498418E+02  0.38327789495E+01 -0.53668453320E+02  0.54962852027E+02  0.00000000000E+00 0.  1.
         13    1    1    2    0    0  0.11221498418E+02 -0.38327789495E+01 -0.63134513276E+02  0.64238454121E+02  0.00000000000E+00 0. -1.
<mgrwt>
<rscale>  0 0.23791141E+02</rscale>
<asrwt>0</asrwt>
<pdfrwt beam="2">  1        2 0.18154177E-01 0.23791141E+02</pdfrwt>
<pdfrwt beam="1">  1       -2 0.18448764E-03 0.23791141E+02</pdfrwt>
<totfact> 0.37221783E+06</totfact>
</mgrwt>
</event>
<event>
 4    1  0.2165211E+000  0.2715666E+02  0.7546771E-02  0.1631827E+00
         -3   -1    0    0    0  501 -0.00000000000E+00  0.00000000000E+00  0.50294290402E+02  0.50294290402E+02  0.00000000000E+00 0. -1.
          3   -1    0    0  501    0  0.00000000000E+00 -0.00000000000E+00 -0.36658448161E+01  0.36658448161E+01  0.00000000000E+00 0.  1.
        -11    1    1    2    0    0  0.11266903627E+02  0.69899581714E+01  0.17497915958E+02  0.21954035972E+02  0.00000000000E+00 0. -1.
         11    1    1    2    0    0 -0.11266903627E+02 -0.69899581714E+01  0.29130529629E+02  0.32006099247E+02  0.00000000000E+00 0.  1.
<mgrwt>
<rscale>  0 0.27156661E+02</rscale>
<asrwt>0</asrwt>
<pdfrwt beam="2">  1        3 0.56397616E-03 0.27156661E+02</pdfrwt>
<pdfrwt beam="1">  1       -3 0.77375826E-02 0.27156661E+02</pdfrwt>
<totfact> 0.81274466E+05</totfact>
</mgrwt>
</event>
<event>
 4    1  0.2165211E+000  0.3140740E+02  0.7546771E-02  0.1583033E+00
         -4   -1    0    0    0  501 -0.00000000000E+00  0.00000000000E+00  0.11626672736E+02  0.11626672736E+02  0.00000000000E+00 0. -1.
          4   -1    0    0  501    0  0.00000000000E+00 -0.00000000000E+00 -0.21210385413E+02  0.21210385413E+02  0.00000000000E+00 0.  1.
        -13    1    1    2    0    0  0.13937836369E+02  0.48518594774E+01 -0.10402936603E+02  0.18056159973E+02  0.00000000000E+00 0.  1.
         13    1    1    2    0    0 -0.13937836369E+02 -0.48518594774E+01  0.81922392496E+00  0.14780898175E+02  0.00000000000E+00 0. -1.
<mgrwt>
<rscale>  0 0.31407401E+02</rscale>
<asrwt>0</asrwt>
<pdfrwt beam="2">  1        4 0.32631362E-02 0.31407401E+02</pdfrwt>
<pdfrwt beam="1">  1       -4 0.17887189E-02 0.31407401E+02</pdfrwt>
<totfact> 0.46373657E+05</totfact>
</mgrwt>
</event>
<event>
 4    1  0.2165211E+000  0.7940257E+02  0.7546771E-02  0.1330755E+00
         -2   -1    0    0    0  501 -0.00000000000E+00  0.00000000000E+00  0.37642514187E+02  0.37642514187E+02  0.00000000000E+00 0.  1.
          2   -1    0    0  501    0  0.00000000000E+00 -0.00000000000E+00 -0.41872651544E+02  0.41872651544E+02  0.00000000000E+00 0. -1.
        -11    1    1    2    0    0  0.24253941483E+02 -0.16679867664E+02 -0.28793421896E+02  0.41176847952E+02  0.00000000000E+00 0. -1.
         11    1    1    2    0    0 -0.24253941483E+02  0.16679867664E+02  0.24563284539E+02  0.38338317779E+02  0.00000000000E+00 0.  1.
<mgrwt>
<rscale>  0 0.79402566E+02</rscale>
<asrwt>0</asrwt>
<pdfrwt beam="2">  1        2 0.64419463E-02 0.79402566E+02</pdfrwt>
<pdfrwt beam="1">  1       -2 0.57911561E-02 0.79402566E+02</pdfrwt>
<totfact> 0.14304017E+05</totfact>
</mgrwt>
</event>
<event>
 4    1  0.2165211E+000  0.6928378E+02  0.7546771E-02  0.1362546E+00
          2   -1    0    0  501    0  0.00000000000E+00  0.00000000000E+00  0.19516864338E+03  0.19516864338E+03  0.00000000000E+00 0. -1.
         -2   -1    0    0    0  501 -0.00000000000E+00 -0.00000000000E+00 -0.61488389002E+01  0.61488389002E+01  0.00000000000E+00 0.  1.
        -13    1    1    2    0    0  0.11730997081E+02 -0.32561686497E+02  0.98800921628E+02  0.10468763936E+03  0.00000000000E+00 0. -1.
         13    1    1    2    0    0 -0.11730997081E+02  0.32561686497E+02  0.90218882857E+02  0.96629842926E+02  0.00000000000E+00 0.  1.
<mgrwt>
<rscale>  0 0.69283780E+02</rscale>
<asrwt>0</asrwt>
<pdfrwt beam="1">  1        2 0.30025941E-01 0.69283780E+02</pdfrwt>
<pdfrwt beam="2">  1       -2 0.94597536E-03 0.69283780E+02</pdfrwt>
<totfact> 0.31731870E+05</totfact>
</mgrwt>
</event>
<event>
 4    1  0.2165211E+000  0.2113958E+02  0.7546771E-02  0.1723572E+00
         -2   -1    0    0    0  501 -0.00000000000E+00  0.00000000000E+00  0.12168969409E+01  0.12168969409E+01  0.00000000000E+00 0. -1.
          2   -1    0    0  501    0  0.00000000000E+00 -0.00000000000E+00 -0.91807651724E+02  0.91807651724E+02  0.00000000000E+00 0.  1.
        -13    1    1    2    0    0 -0.10459044956E+01  0.99869093814E+01 -0.30774970395E+02  0.32371763591E+02  0.00000000000E+00 0. -1.
         13    1    1    2    0    0  0.10459044956E+01 -0.99869093814E+01 -0.59815784388E+02  0.60652785073E+02  0.00000000000E+00 0.  1.
<mgrwt>
<rscale>  0 0.21139579E+02</rscale>
<asrwt>0</asrwt>
<pdfrwt beam="2">  1        2 0.14124253E-01 0.21139579E+02</pdfrwt>
<pdfrwt beam="1">  1       -2 0.18721493E-03 0.21139579E+02</pdfrwt>
<totfact> 0.45773370E+06</totfact>
</mgrwt>
</event>
<event>
 4    1  0.2165211E+000  0.2177644E+02  0.7546771E-02  0.1712147E+00
         -2   -1    0    0    0  501 -0.00000000000E+00  0.00000000000E+00  0.16934792452E+01  0.16934792452E+01  0.00000000000E+00 0.  1.
          2   -1    0    0  501    0  0.00000000000E+00 -0.00000000000E+00 -0.70005806193E+02  0.70005806193E+02  0.00000000000E+00 0. -1.
        -13    1    1    2    0    0 -0.51968003248E+01  0.92936708242E+01 -0.26666628139E+02  0.28713900942E+02  0.00000000000E+00 0.  1.
         13    1    1    2    0    0  0.51968003248E+01 -0.92936708242E+01 -0.41645698809E+02  0.42985384497E+02  0.00000000000E+00 0. -1.
<mgrwt>
<rscale>  0 0.21776444E+02</rscale>
<asrwt>0</asrwt>
<pdfrwt beam="2">  1        2 0.10770123E-01 0.21776444E+02</pdfrwt>
<pdfrwt beam="1">  1       -2 0.26053530E-03 0.21776444E+02</pdfrwt>
<totfact> 0.40529188E+06</totfact>
</mgrwt>
</event>
<event>
 4    1  0.2165211E+000  0.2249482E+02  0.7546771E-02  0.1699832E+00
          3   -1    0    0  501    0  0.00000000000E+00  0.00000000000E+00  0.16334255969E+01  0.16334255969E+01  0.00000000000E+00 0.  1.
         -3   -1    0    0    0  501 -0.00000000000E+00 -0.00000000000E+00 -0.77447177865E+02  0.77447177865E+02  0.00000000000E+00 0. -1.
        -13    1    1    2    0    0 -0.65910888257E+01  0.91017130218E+01 -0.36255820905E+02  0.37957452250E+02  0.00000000000E+00 0.  1.
         13    1    1    2    0    0  0.65910888257E+01 -0.91017130218E+01 -0.39557931363E+02  0.41123151212E+02  0.00000000000E+00 0. -1.
<mgrwt>
<rscale>  0 0.22494817E+02</rscale>
<asrwt>0</asrwt>
<pdfrwt beam="1">  1        3 0.25129621E-03 0.22494817E+02</pdfrwt>
<pdfrwt beam="2">  1       -3 0.11914952E-01 0.22494817E+02</pdfrwt>
<totfact> 0.11575406E+06</totfact>
</mgrwt>
</event>
<event>
 4    1  0.2165211E+000  0.4054183E+02  0.7546771E-02  0.1504262E+00
         -3   -1    0    0    0  501 -0.00000000000E+00  0.00000000000E+00  0.59576171193E+02  0.59576171193E+02  0.00000000000E+00 0. -1.
          3   -1    0    0  501    0  0.00000000000E+00 -0.00000000000E+00 -0.68972188988E+01  0.68972188988E+01  0.00000000000E+00 0.  1.
        -11    1    1    2    0    0 -0.19308333212E+02  0.18412774609E+00  0.36455345819E+02  0.41253337722E+02  0.00000000000E+00 0.  1.
         11    1    1    2    0    0  0.19308333212E+02 -0.18412774609E+00  0.16223606475E+02  0.25220052369E+02  0.00000000000E+00 0. -1.
<mgrwt>
<rscale>  0 0.40541825E+02</rscale>
<asrwt>0</asrwt>
<pdfrwt beam="2">  1        3 0.10611106E-02 0.40541825E+02</pdfrwt>
<pdfrwt beam="1">  1       -3 0.91655645E-02 0.40541825E+02</pdfrwt>
<totfact> 0.30461147E+05</totfact>
</mgrwt>
</event>
<event>
 4    1  0.2165211E+000  0.2819759E+02  0.7546771E-02  0.1618911E+00
          1   -1    0    0  501    0  0.00000000000E+00  0.00000000000E+00  0.71134371714E+02  0.71134371714E+02  0.00000000000E+00 0. -1.
         -1   -1    0    0    0  501 -0.00000000000E+00 -0.00000000000E+00 -0.27943742960E+01  0.27943742960E+01  0.00000000000E+00 0.  1.
        -13    1    1    2    0    0 -0.17768502216E+01  0.11881588124E+02  0.53515820967E+02  0.54847720343E+02  0.00000000000E+00 0. -1.
         13    1    1    2    0    0  0.17768502216E+01 -0.11881588124E+02  0.14824176451E+02  0.19081025667E+02  0.00000000000E+00 0.  1.
<mgrwt>
<rscale>  0 0.28197593E+02</rscale>
<asrwt>0</asrwt>
<pdfrwt beam="1">  1        1 0.10943748E-01 0.28197593E+02</pdfrwt>
<pdfrwt beam="2">  1       -1 0.42990379E-03 0.28197593E+02</pdfrwt>
<totfact> 0.19596843E+06</totfact>
</mgrwt>
</event>
<event>
 4    1  0.2165211E+000  0.2873520E+02  0.7546771E-02  0.1612505E+00
          1   -1    0    0  501    0  0.00000000000E+00  0.00000000000E+00  0.11396072217E+03  0.11396072217E+03  0.00000000000E+00 0. -1.
         -1   -1    0    0    0  501 -0.00000000000E+00 -0.00000000000E+00 -0.18113947962E+01  0.18113947962E+01  0.00000000000E+00 0.  1.
        -13    1    1    2    0    0 -0.95312509577E+01 -0.10199009034E+02  0.69775001200E+02  0.71157679295E+02  0.00000000000E+00 0. -1.
         13    1    1    2    0    0  0.95312509577E+01  0.10199009034E+02  0.42374326171E+02  0.44614437669E+02  0.00000000000E+00 0.  1.
<mgrwt>
<rscale>  0 0.28735195E+02</rscale>
<asrwt>0</asrwt>
<pdfrwt beam="1">  1        1 0.17532413E-01 0.28735195E+02</pdfrwt>
<pdfrwt beam="2">  1       -1 0.27867621E-03 0.28735195E+02</pdfrwt>
<totfact> 0.19763888E+06</totfact>
</mgrwt>
</event>
<event>
 4    1  0.2165211E+000  0.2326464E+02  0.7546771E-02  0.1687256E+00
          2   -1    0    0  501    0  0.00000000000E+00  0.00000000000E+00  0.79130681566E+01  0.79130681566E+01  0.00000000000E+00 0.  1.
         -2   -1    0    0    0  501 -0.00000000000E+00 -0.00000000000E+00 -0.17099670982E+02  0.17099670982E+02  0.00000000000E+00 0. -1.
        -11    1    1    2    0    0 -0.26719561828E+01 -0.11213933420E+02 -0.62655531450E+01  0.13120549104E+02  0.00000000000E+00 0. -1.
         11    1    1    2    0    0  0.26719561828E+01  0.11213933420E+02 -0.29210496809E+01  0.11892190035E+02  0.00000000000E+00 0.  1.
<mgrwt>
<rscale>  0 0.23264639E+02</rscale>
<asrwt>0</asrwt>
<pdfrwt beam="1">  1        2 0.12173951E-02 0.23264639E+02</pdfrwt>
<pdfrwt beam="2">  1       -2 0.26307186E-02 0.23264639E+02</pdfrwt>
<totfact> 0.27237481E+06</totfact>
</mgrwt>
</event>
<event>
 4    1  0.2165211E+000  0.2694478E+02  0.7546771E-02  0.1634543E+00
          4   -1    0    0  501    0  0.00000000000E+00  0.00000000000E+00  0.91652720353E+02  0.91652720353E+02  0.00000000000E+00 0.  1.
         -4   -1    0    0    0  501 -0.00000000000E+00 -0.00000000000E+00 -0.19803594647E+01  0.19803594647E+01  0.00000000000E+00 0. -1.
        -11    1    1    2    0    0  0.10075934376E+01  0.13162468564E+02  0.54186127995E+02  0.55770980719E+02  0.00000000000E+00 0. -1.
         11    1    1    2    0    0 -0.10075934376E+01 -0.13162468564E+02  0.35486232893E+02  0.37862099098E+02  0.00000000000E+00 0.  1.
<mgrwt>
<rscale>  0 0.26944783E+02</rscale>
<asrwt>0</asrwt>
<pdfrwt beam="1">  1        4 0.14100415E-01 0.26944783E+02</pdfrwt>
<pdfrwt beam="2">  1       -4 0.30467076E-03 0.26944783E+02</pdfrwt>
<totfact> 0.53575233E+05</totfact>
</mgrwt>
</event>
<event>
 4    1  0.2165211E+000  0.2562906E+02  0.7546771E-02  0.1652128E+00
          3   -1    0    0  501    0  0.00000000000E+00  0.00000000000E+00  0.37409665212E+01  0.37409665212E+01  0.00000000000E+00 0. -1.
         -3   -1    0    0    0  501 -0.00000000000E+00 -0.00000000000E+00 -0.43895649365E+02  0.43895649365E+02  0.00000000000E+00 0.  1.
        -13    1    1    2    0    0  0.65544791513E+01 -0.93836975821E+01 -0.30786585971E+02  0.32845530183E+02  0.00000000000E+00 0.  1.
         13    1    1    2    0    0 -0.65544791513E+01  0.93836975821E+01 -0.93680968727E+01  0.14791085703E+02  0.00000000000E+00 0. -1.
<mgrwt>
<rscale>  0 0.25629058E+02</rscale>
<asrwt>0</asrwt>
<pdfrwt beam="1">  1        3 0.57553334E-03 0.25629058E+02</pdfrwt>
<pdfrwt beam="2">  1       -3 0.67531765E-02 0.25629058E+02</pdfrwt>
<totfact> 0.94432000E+05</totfact>
</mgrwt>
</event>
<event>
 4    1  0.2165211E+000  0.2987985E+02  0.7546771E-02  0.1599421E+00
         -1   -1    0    0    0  501 -0.00000000000E+00  0.00000000000E+00  0.11404524591E+02  0.11404524591E+02  0.00000000000E+00 0.  1.
          1   -1    0    0  501    0  0.00000000000E+00 -0.00000000000E+00 -0.19571295657E+02  0.19571295657E+02  0.00000000000E+00 0. -1.
        -11    1    1    2    0    0  0.14165464846E+02 -0.12138900739E+01 -0.88416645005E+01  0.16742429768E+02  0.00000000000E+00 0. -1.
         11    1    1    2    0    0 -0.14165464846E+02  0.12138900739E+01  0.67489343517E+00  0.14233390480E+02  0.00000000000E+00 0.  1.
<mgrwt>
<rscale>  0 0.29879848E+02</rscale>
<asrwt>0</asrwt>
<pdfrwt beam="2">  1        1 0.30109686E-02 0.29879848E+02</pdfrwt>
<pdfrwt beam="1">  1       -1 0.17545422E-02 0.29879848E+02</pdfrwt>
<totfact> 0.15595357E+06</totfact>
</mgrwt>
</event>
<event>
 4    1  0.2165211E+000  0.4108438E+02  0.7546771E-02  0.1500380E+00
         -4   -1    0    0    0  501 -0.00000000000E+00  0.00000000000E+00  0.33875361366E+02  0.33875361366E+02  0.00000000000E+00 0.  1.
          4   -1    0    0  501    0  0.00000000000E+00 -0.00000000000E+00 -0.12456889970E+02  0.12456889970E+02  0.00000000000E+00 0. -1.
        -11    1    1    2    0    0  0.53650172766E+01  0.17805045019E+02  0.20552137433E+02  0.27716301910E+02  0.00000000000E+00 0. -1.
         11    1    1    2    0    0 -0.53650172766E+01 -0.17805045019E+02  0.86633396350E+00  0.18615949427E+02  0.00000000000E+00 0.  1.
<mgrwt>
<rscale>  0 0.41084384E+02</rscale>
<asrwt>0</asrwt>
<pdfrwt beam="2">  1        4 0.19164446E-02 0.41084384E+02</pdfrwt>
<pdfrwt beam="1">  1       -4 0.52115940E-02 0.41084384E+02</pdfrwt>
<totfact> 0.23576179E+05</totfact>
</mgrwt>
</event>
<event>
 4    1  0.2165211E+000  0.2728126E+02  0.7546771E-02  0.1630244E+00
          1   -1    0    0  501    0  0.00000000000E+00  0.00000000000E+00  0.24114547775E+02  0.24114547775E+02  0.00000000000E+00 0.  1.
         -1   -1    0    0    0  501 -0.00000000000E+00 -0.00000000000E+00 -0.77159578120E+01  0.77159578120E+01  0.00000000000E+00 0. -1.
        -11    1    1    2    0    0  0.13272553248E+02  0.26348488305E+01  0.10207919495E+02  0.16950065442E+02  0.00000000000E+00 0. -1.
         11    1    1    2    0    0 -0.13272553248E+02 -0.26348488305E+01  0.61906704683E+01  0.14880440145E+02  0.00000000000E+00 0.  1.
<mgrwt>
<rscale>  0 0.27281263E+02</rscale>
<asrwt>0</asrwt>
<pdfrwt beam="1">  1        1 0.37099304E-02 0.27281263E+02</pdfrwt>
<pdfrwt beam="2">  1       -1 0.11870704E-02 0.27281263E+02</pdfrwt>
<totfact> 0.19593806E+06</totfact>
</mgrwt>
</event>
<event>
 4    1  0.2165211E+000  0.2756362E+02  0.7546771E-02  0.1626694E+00
          4   -1    0    0  501    0  0.00000000000E+00  0.00000000000E+00  0.12724217163E+02  0.12724217163E+02  0.00000000000E+00 0. -1.
         -4   -1    0    0    0  501 -0.00000000000E+00 -0.00000000000E+00 -0.14927308196E+02  0.14927308196E+02  0.00000000000E+00 0.  1.
        -11    1    1    2    0    0  0.40004874147E+01 -0.10920494323E+02 -0.85195314579E+01  0.14416778838E+02  0.00000000000E+00 0.  1.
         11    1    1    2    0    0 -0.40004874147E+01  0.10920494323E+02  0.63164404245E+01  0.13234746520E+02  0.00000000000E+00 0. -1.
<mgrwt>
<rscale>  0 0.27563622E+02</rscale>
<asrwt>0</asrwt>
<pdfrwt beam="1">  1        4 0.19575719E-02 0.27563622E+02</pdfrwt>
<pdfrwt beam="2">  1       -4 0.22965089E-02 0.27563622E+02</pdfrwt>
<totfact> 0.63481946E+05</totfact>
</mgrwt>
</event>
<event>
 4    1  0.2165211E+000  0.2225588E+02  0.7546771E-02  0.1703864E+00
         -4   -1    0    0    0  501 -0.00000000000E+00  0.00000000000E+00  0.13510237267E+02  0.13510237267E+02  0.00000000000E+00 0.  1.
          4   -1    0    0  501    0  0.00000000000E+00 -0.00000000000E+00 -0.91657235684E+01  0.91657235684E+01  0.00000000000E+00 0. -1.
        -11    1    1    2    0    0  0.83082175905E+01  0.73439629910E+01  0.12214614404E+01  0.11155816420E+02  0.00000000000E+00 0. -1.
         11    1    1    2    0    0 -0.83082175905E+01 -0.73439629910E+01  0.31230522581E+01  0.11520144415E+02  0.00000000000E+00 0.  1.
<mgrwt>
<rscale>  0 0.22255885E+02</rscale>
<asrwt>0</asrwt>
<pdfrwt beam="2">  1        4 0.14101113E-02 0.22255885E+02</pdfrwt>
<pdfrwt beam="1">  1       -4 0.20784980E-02 0.22255885E+02</pdfrwt>
<totfact> 0.10297383E+06</totfact>
</mgrwt>
</event>
<event>
 4    1  0.2165211E+000  0.2698126E+02  0.7546771E-02  0.1634073E+00
          2   -1    0    0  501    0  0.00000000000E+00  0.00000000000E+00  0.24967224796E+02  0.24967224796E+02  0.00000000000E+00 0.  1.
         -2   -1    0    0    0  501 -0.00000000000E+00 -0.00000000000E+00 -0.72894429675E+01  0.72894429675E+01  0.00000000000E+00 0. -1.
        -11    1    1    2    0    0 -0.54473777735E+01  0.12114957130E+02  0.60221637518E+01  0.14584668906E+02  0.00000000000E+00 0.  1.
         11    1    1    2    0    0  0.54473777735E+01 -0.12114957130E+02  0.11655618077E+02  0.17671998857E+02  0.00000000000E+00 0. -1.
<mgrwt>
<rscale>  0 0.26981265E+02</rscale>
<asrwt>0</asrwt>
<pdfrwt beam="1">  1        2 0.38411115E-02 0.26981265E+02</pdfrwt>
<pdfrwt beam="2">  1       -2 0.11214528E-02 0.26981265E+02</pdfrwt>
<totfact> 0.21308532E+06</totfact>
</mgrwt>
</event>
<event>
 4    1  0.2165211E+000  0.6101167E+02  0.7546771E-02  0.1393635E+00
          3   -1    0    0  501    0  0.00000000000E+00  0.00000000000E+00  0.10525599019E+03  0.10525599019E+03  0.00000000000E+00 0. -1.
         -3   -1    0    0    0  501 -0.00000000000E+00 -0.00000000000E+00 -0.88413577267E+01  0.88413577267E+01  0.00000000000E+00 0.  1.
        -13    1    1    2    0    0  0.20801800368E+02 -0.12808365461E+02  0.82376116174E+02  0.85922020695E+02  0.00000000000E+00 0. -1.
         13    1    1    2    0    0 -0.20801800368E+02  0.12808365461E+02  0.14038516285E+02  0.28175327217E+02  0.00000000000E+00 0.  1.
<mgrwt>
<rscale>  0 0.61011666E+02</rscale>
<asrwt>0</asrwt>
<pdfrwt beam="1">  1        3 0.16193228E-01 0.61011666E+02</pdfrwt>
<pdfrwt beam="2">  1       -3 0.13602090E-02 0.61011666E+02</pdfrwt>
<totfact> 0.97488077E+04</totfact>
</mgrwt>
</event>
<event>
 4    1  0.2165211E+000  0.2100553E+02  0.7546771E-02  0.1726041E+00
          2   -1    0    0  501    0  0.00000000000E+00  0.00000000000E+00  0.11821191180E+03  0.11821191180E+03  0.00000000000E+00 0. -1.
         -2   -1    0    0    0  501 -0.00000000000E+00 -0.00000000000E+00 -0.93313873359E+00  0.93313873359E+00  0.00000000000E+00 0.  1.
        -11    1    1    2    0    0 -0.10446356678E+02 -0.82517292412E+00  0.62653501662E+02  0.63523763653E+02  0.00000000000E+00 0. -1.
         11    1    1    2    0    0  0.10446356678E+02  0.82517292412E+00  0.54625271400E+02  0.55621286876E+02  0.00000000000E+00 0.  1.
<mgrwt>
<rscale>  0 0.21005534E+02</rscale>
<asrwt>0</asrwt>
<pdfrwt beam="1">  1        2 0.18186436E-01 0.21005534E+02</pdfrwt>
<pdfrwt beam="2">  1       -2 0.14355990E-03 0.21005534E+02</pdfrwt>
<totfact> 0.49247498E+06</totfact>
</mgrwt>
</event>
<event>
 4    1  0.2165211E+000  0.2853503E+02  0.7546771E-02  0.1614870E+00
         -2   -1    0    0    0  501 -0.00000000000E+00  0.00000000000E+00  0.47102029423E+01  0.47102029423E+01  0.00000000000E+00 0.  1.
          2   -1    0    0  501    0  0.00000000000E+00 -0.00000000000E+00 -0.43217252448E+02  0.43217252448E+02  0.00000000000E+00 0. -1.
        -11    1    1    2    0    0 -0.47516255813E+01 -0.12711684941E+02 -0.11856195470E+02  0.18020384311E+02  0.00000000000E+00 0. -1.
         11    1    1    2    0    0  0.47516255813E+01  0.12711684941E+02 -0.26650854036E+02  0.29907071080E+02  0.00000000000E+00 0.  1.
<mgrwt>
<rscale>  0 0.28535033E+02</rscale>
<asrwt>0</asrwt>
<pdfrwt beam="2">  1        2 0.66488082E-02 0.28535033E+02</pdfrwt>
<pdfrwt beam="1">  1       -2 0.72464659E-03 0.28535033E+02</pdfrwt>
<totfact> 0.20018070E+06</totfact>
</mgrwt>
</event>
<event>
 4    1  0.2165211E+000  0.3898174E+02  0.7546771E-02  0.1515841E+00
         -1   -1    0    0    0  501 -0.00000000000E+00  0.00000000000E+00  0.54637185683E+02  0.54637185683E+02  0.00000000000E+00 0. -1.
          1   -1    0    0  501    0  0.00000000000E+00 -0.00000000000E+00 -0.69530299908E+01  0.69530299908E+01  0.00000000000E+00 0.  1.
        -11    1    1    2    0    0  0.99291215485E+01 -0.64812053519E+01  0.48283267010E+02  0.49717877576E+02  0.00000000000E+00 0. -1.
         11    1    1    2    0    0 -0.99291215485E+01  0.64812053519E+01 -0.59911131740E+00  0.11872338098E+02  0.00000000000E+00 0.  1.
<mgrwt>
<rscale>  0 0.38981739E+02</rscale>
<asrwt>0</asrwt>
<pdfrwt beam="2">  1        1 0.10696970E-02 0.38981739E+02</pdfrwt>
<pdfrwt beam="1">  1       -1 0.84057206E-02 0.38981739E+02</pdfrwt>
<totfact> 0.74146200E+05</totfact>
</mgrwt>
</event>
<event>
 4    1  0.2165211E+000  0.3368354E+02  0.7546771E-02  0.1560612E+00
          3   -1    0    0  501    0  0.00000000000E+00  0.00000000000E+00  0.56250580864E+02  0.56250580864E+02  0.00000000000E+00 0. -1.
         -3   -1    0    0    0  501 -0.00000000000E+00 -0.00000000000E+00 -0.50425296768E+01  0.50425296768E+01  0.00000000000E+00 0.  1.
        -13    1    1    2    0    0  0.13776579822E+02 -0.55064036419E+01  0.11100106264E+02  0.18529085021E+02  0.00000000000E+00 0.  1.
         13    1    1    2    0    0 -0.13776579822E+02  0.55064036419E+01  0.40107944924E+02  0.42764025520E+02  0.00000000000E+00 0. -1.
<mgrwt>
<rscale>  0 0.33683540E+02</rscale>
<asrwt>0</asrwt>
<pdfrwt beam="1">  1        3 0.86539351E-02 0.33683540E+02</pdfrwt>
<pdfrwt beam="2">  1       -3 0.77577384E-03 0.33683540E+02</pdfrwt>
<totfact> 0.48229800E+05</totfact>
</mgrwt>
</event>
<event>
 4    1  0.2165211E+000  0.2631321E+02  0.7546771E-02  0.1642826E+00
         -3   -1    0    0    0  501 -0.00000000000E+00  0.00000000000E+00  0.22773993426E+02  0.22773993426E+02  0.00000000000E+00 0. -1.
          3   -1    0    0  501    0  0.00000000000E+00 -0.00000000000E+00 -0.76006108657E+01  0.76006108657E+01  0.00000000000E+00 0.  1.
        -11    1    1    2    0    0  0.88074029950E+01 -0.84691527684E+01  0.19552510335E+01  0.12374162708E+02  0.00000000000E+00 0.  1.
         11    1    1    2    0    0 -0.88074029950E+01  0.84691527684E+01  0.13218131527E+02  0.18000441583E+02  0.00000000000E+00 0. -1.
<mgrwt>
<rscale>  0 0.26313211E+02</rscale>
<asrwt>0</asrwt>
<pdfrwt beam="2">  1        3 0.11693248E-02 0.26313211E+02</pdfrwt>
<pdfrwt beam="1">  1       -3 0.35036913E-02 0.26313211E+02</pdfrwt>
<totfact> 0.93844571E+05</totfact>
</mgrwt>
</event>
<event>
 4    1  0.2165211E+000  0.2642789E+02  0.7546771E-02  0.1641301E+00
          2   -1    0    0  501    0  0.00000000000E+00  0.00000000000E+00  0.20135720026E+02  0.20135720026E+02  0.00000000000E+00 0.  1.
         -2   -1    0    0    0  501 -0.00000000000E+00 -0.00000000000E+00 -0.86715746194E+01  0.86715746194E+01  0.00000000000E+00 0. -1.
        -13    1    1    2    0    0  0.78140600779E+01  0.86944586419E+01  0.12447534118E+02  0.17076131049E+02  0.00000000000E+00 0.  1.
         13    1    1    2    0    0 -0.78140600779E+01 -0.86944586419E+01 -0.98338871105E+00  0.11731163597E+02  0.00000000000E+00 0. -1.
<mgrwt>
<rscale>  0 0.26427894E+02</rscale>
<asrwt>0</asrwt>
<pdfrwt beam="1">  1        2 0.30978031E-02 0.26427894E+02</pdfrwt>
<pdfrwt beam="2">  1       -2 0.13340884E-02 0.26427894E+02</pdfrwt>
<totfact> 0.21881527E+06</totfact>
</mgrwt>
</event>
<event>
 4    1  0.2165211E+000  0.4120551E+02  0.7546771E-02  0.1499523E+00
         -4   -1    0    0    0  501 -0.00000000000E+00  0.00000000000E+00  0.68746086841E+02  0.68746086841E+02  0.00000000000E+00 0.  1.
          4   -1    0    0  501    0  0.00000000000E+00 -0.00000000000E+00 -0.61745128332E+01  0.61745128332E+01  0.00000000000E+00 0. -1.
        -13    1    1    2    0    0  0.18172054110E+02 -0.61531045307E+01  0.44939301369E+02  0.48863330355E+02  0.00000000000E+00 0.  1.
         13    1    1    2    0    0 -0.18172054110E+02  0.61531045307E+01  0.17632272639E+02  0.26057269319E+02  0.00000000000E+00 0. -1.
<mgrwt>
<rscale>  0 0.41205514E+02</rscale>
<asrwt>0</asrwt>
<pdfrwt beam="2">  1        4 0.94992510E-03 0.41205514E+02</pdfrwt>
<pdfrwt beam="1">  1       -4 0.10576320E-01 0.41205514E+02</pdfrwt>
<totfact> 0.21441998E+05</totfact>
</mgrwt>
</event>
<event>
 4    1  0.2165211E+000  0.2072739E+02  0.7546771E-02  0.1731238E+00
         -3   -1    0    0    0  501 -0.00000000000E+00  0.00000000000E+00  0.33557705986E+01  0.33557705986E+01  0.00000000000E+00 0. -1.
          3   -1    0    0  501    0  0.00000000000E+00 -0.00000000000E+00 -0.32006396038E+02  0.32006396038E+02  0.00000000000E+00 0.  1.
        -13    1    1    2    0    0 -0.95920680537E+01  0.38276488795E+01 -0.15800297522E+02  0.18876124265E+02  0.00000000000E+00 0. -1.
         13    1    1    2    0    0  0.95920680537E+01 -0.38276488795E+01 -0.12850327918E+02  0.16486042372E+02  0.00000000000E+00 0.  1.
<mgrwt>
<rscale>  0 0.20727385E+02</rscale>
<asrwt>0</asrwt>
<pdfrwt beam="2">  1        3 0.49240609E-02 0.20727385E+02</pdfrwt>
<pdfrwt beam="1">  1       -3 0.51627240E-03 0.20727385E+02</pdfrwt>
<totfact> 0.15700667E+06</totfact>
</mgrwt>
</event>
<event>
 4    1  0.2165211E+000  0.2589673E+02  0.7546771E-02  0.1648446E+00
         -2   -1    0    0    0  501 -0.00000000000E+00  0.00000000000E+00  0.32916126431E+01  0.32916126431E+01  0.00000000000E+00 0. -1.
          2   -1    0    0  501    0  0.00000000000E+00 -0.00000000000E+00 -0.50935567928E+02  0.50935567928E+02  0.00000000000E+00 0.  1.
        -11    1    1    2    0    0  0.11510876856E+02 -0.33931369067E+01 -0.13639452693E+02  0.18167232421E+02  0.00000000000E+00 0. -1.
         11    1    1    2    0    0 -0.11510876856E+02  0.33931369067E+01 -0.34004502592E+02  0.36059948151E+02  0.00000000000E+00 0.  1.
<mgrwt>
<rscale>  0 0.25896730E+02</rscale>
<asrwt>0</asrwt>
<pdfrwt beam="2">  1        2 0.78362414E-02 0.25896730E+02</pdfrwt>
<pdfrwt beam="1">  1       -2 0.50640194E-03 0.25896730E+02</pdfrwt>
<totfact> 0.25785891E+06</totfact>
</mgrwt>
</event>
<event>
 4    1  0.2165211E+000  0.2801550E+02  0.7546771E-02  0.1621121E+00
         -2   -1    0    0    0  501 -0.00000000000E+00  0.00000000000E+00  0.29214187833E+01  0.29214187833E+01  0.00000000000E+00 0. -1.
          2   -1    0    0  501    0  0.00000000000E+00 -0.00000000000E+00 -0.67164979647E+02  0.67164979647E+02  0.00000000000E+00 0.  1.
        -13    1    1    2    0    0  0.93485832984E+01 -0.35970077452E+01 -0.56618346136E+02  0.57497579023E+02  0.00000000000E+00 0.  1.
         13    1    1    2    0    0 -0.93485832984E+01  0.35970077452E+01 -0.76252147274E+01  0.12588819406E+02  0.00000000000E+00 0. -1.
<mgrwt>
<rscale>  0 0.28015498E+02</rscale>
<asrwt>0</asrwt>
<pdfrwt beam="2">  1        2 0.10333073E-01 0.28015498E+02</pdfrwt>
<pdfrwt beam="1">  1       -2 0.44944908E-03 0.28015498E+02</pdfrwt>
<totfact> 0.22525317E+06</totfact>
</mgrwt>
</event>
<event>
 4    1  0.2165211E+000  0.2481952E+02  0.7546771E-02  0.1663608E+00
         -2   -1    0    0    0  501 -0.00000000000E+00  0.00000000000E+00  0.39655955547E+01  0.39655955547E+01  0.00000000000E+00 0. -1.
          2   -1    0    0  501    0  0.00000000000E+00 -0.00000000000E+00 -0.38834560542E+02  0.38834560542E+02  0.00000000000E+00 0.  1.
        -11    1    1    2    0    0 -0.12167025471E+02 -0.19378497265E+01 -0.14870668990E+02  0.19311358486E+02  0.00000000000E+00 0. -1.
         11    1    1    2    0    0  0.12167025471E+02  0.19378497265E+01 -0.19998295997E+02  0.23488797610E+02  0.00000000000E+00 0.  1.
<mgrwt>
<rscale>  0 0.24819521E+02</rscale>
<asrwt>0</asrwt>
<pdfrwt beam="2">  1        2 0.59745479E-02 0.24819521E+02</pdfrwt>
<pdfrwt beam="1">  1       -2 0.61009161E-03 0.24819521E+02</pdfrwt>
<totfact> 0.27347393E+06</totfact>
</mgrwt>
</event>
<event>
 4    1  0.2165211E+000  0.3028502E+02  0.7546771E-02  0.1594959E+00
          2   -1    0    0  501    0  0.00000000000E+00  0.00000000000E+00  0.20562960989E+02  0.20562960989E+02  0.00000000000E+00 0. -1.
         -2   -1    0    0    0  501 -0.00000000000E+00 -0.00000000000E+00 -0.11150904996E+02  0.11150904996E+02  0.00000000000E+00 0.  1.
        -11    1    1    2    0    0 -0.70383969692E+01 -0.13340034289E+02  0.61109976074E+01  0.16273900531E+02  0.00000000000E+00 0. -1.
         11    1    1    2    0    0  0.70383969692E+01  0.13340034289E+02  0.33010583859E+01  0.15439965453E+02  0.00000000000E+00 0.  1.
<mgrwt>
<rscale>  0 0.30285021E+02</rscale>
<asrwt>0</asrwt>
<pdfrwt beam="1">  1        2 0.31635325E-02 0.30285021E+02</pdfrwt>
<pdfrwt beam="2">  1       -2 0.17155238E-02 0.30285021E+02</pdfrwt>
<totfact> 0.15814967E+06</totfact>
</mgrwt>
</event>
<event>
 4    1  0.2165211E+000  0.6795675E+02  0.7546771E-02  0.1367182E+00
         -2   -1    0    0    0  501 -0.00000000000E+00  0.00000000000E+00  0.69949408498E+01  0.69949408498E+01  0.00000000000E+00 0.  1.
          2   -1    0    0  501    0  0.00000000000E+00 -0.00000000000E+00 -0.16505215917E+03  0.16505215917E+03  0.00000000000E+00 0. -1.
        -11    1    1    2    0    0 -0.16098796987E+02 -0.25479617309E+02 -0.11874893704E+03  0.12251404904E+03  0.00000000000E+00 0. -1.
         11    1    1    2    0    0  0.16098796987E+02  0.25479617309E+02 -0.39308281277E+02  0.49533050982E+02  0.00000000000E+00 0.  1.
<mgrwt>
<rscale>  0 0.67956754E+02</rscale>
<asrwt>0</asrwt>
<pdfrwt beam="2">  1        2 0.25392639E-01 0.67956754E+02</pdfrwt>
<pdfrwt beam="1">  1       -2 0.10761448E-02 0.67956754E+02</pdfrwt>
<totfact> 0.31541144E+05</totfact>
</mgrwt>
</event>
<event>
 4    1  0.2165211E+000  0.2049606E+02  0.7546771E-02  0.1735639E+00
          2   -1    0    0  501    0  0.00000000000E+00  0.00000000000E+00  0.24162754441E+02  0.24162754441E+02  0.00000000000E+00 0. -1.
         -2   -1    0    0    0  501 -0.00000000000E+00 -0.00000000000E+00 -0.43464467815E+01  0.43464467815E+01  0.00000000000E+00 0.  1.
        -13    1    1    2    0    0 -0.70708006345E+01 -0.73635807698E+01  0.86612585082E+01  0.13387902835E+02  0.00000000000E+00 0. -1.
         13    1    1    2    0    0  0.70708006345E+01  0.73635807698E+01  0.11155049152E+02  0.15121298388E+02  0.00000000000E+00 0.  1.
<mgrwt>
<rscale>  0 0.20496061E+02</rscale>
<asrwt>0</asrwt>
<pdfrwt beam="1">  1        2 0.37173468E-02 0.20496061E+02</pdfrwt>
<pdfrwt beam="2">  1       -2 0.66868413E-03 0.20496061E+02</pdfrwt>
<totfact> 0.40134807E+06</totfact>
</mgrwt>
</event>
<event>
 4    1  0.2165211E+000  0.2460182E+02  0.7546771E-02  0.1666788E+00
          4   -1    0    0  501    0  0.00000000000E+00  0.00000000000E+00  0.63278020548E+01  0.63278020548E+01  0.00000000000E+00 0.  1.
         -4   -1    0    0    0  501 -0.00000000000E+00 -0.00000000000E+00 -0.23912305837E+02  0.23912305837E+02  0.00000000000E+00 0. -1.
        -11    1    1    2    0    0 -0.10985772201E+02  0.46782279565E+01 -0.12426003590E+02  0.17233066265E+02  0.00000000000E+00 0. -1.
         11    1    1    2    0    0  0.10985772201E+02 -0.46782279565E+01 -0.51585001922E+01  0.13007041627E+02  0.00000000000E+00 0.  1.
<mgrwt>
<rscale>  0 0.24601816E+02</rscale>
<asrwt>0</asrwt>
<pdfrwt beam="1">  1        4 0.97350803E-03 0.24601816E+02</pdfrwt>
<pdfrwt beam="2">  1       -4 0.36788162E-02 0.24601816E+02</pdfrwt>
<totfact> 0.80592516E+05</totfact>
</mgrwt>
</event>
<event>
 4    1  0.2165211E+000  0.2110881E+02  0.7546771E-02  0.1724137E+00
         -2   -1    0    0    0  501 -0.00000000000E+00  0.00000000000E+00  0.11163931422E+01  0.11163931422E+01  0.00000000000E+00 0. -1.
          2   -1    0    0  501    0  0.00000000000E+00 -0.00000000000E+00 -0.99781532243E+02  0.99781532243E+02  0.00000000000E+00 0.  1.
        -11    1    1    2    0    0 -0.10459557554E+02 -0.12635791801E+01 -0.46322973081E+02  0.47505966064E+02  0.00000000000E+00 0. -1.
         11    1    1    2    0    0  0.10459557554E+02  0.12635791801E+01 -0.52342166019E+02  0.53391959321E+02  0.00000000000E+00 0.  1.
<mgrwt>
<rscale>  0 0.21108806E+02</rscale>
<asrwt>0</asrwt>
<pdfrwt beam="2">  1        2 0.15351008E-01 0.21108806E+02</pdfrwt>
<pdfrwt beam="1">  1       -2 0.17175275E-03 0.21108806E+02</pdfrwt>
<totfact> 0.46785502E+06</totfact>
</mgrwt>
</event>
<event>
 4    1  0.2165211E+000  0.3637358E+02  0.7546771E-02  0.1536731E+00
          1   -1    0    0  501    0  0.00000000000E+00  0.00000000000E+00  0.41372685934E+01  0.41372685934E+01  0.00000000000E+00 0. -1.
         -1   -1    0    0    0  501 -0.00000000000E+00 -0.00000000000E+00 -0.79946283620E+02  0.79946283620E+02  0.00000000000E+00 0.  1.
        -13    1    1    2    0    0  0.35965417563E+01  0.14146975654E+02 -0.12826692133E+02  0.19431831201E+02  0.00000000000E+00 0. -1.
         13    1    1    2    0    0 -0.35965417563E+01 -0.14146975654E+02 -0.62982322894E+02  0.64651721012E+02  0.00000000000E+00 0.  1.
<mgrwt>
<rscale>  0 0.36373575E+02</rscale>
<asrwt>0</asrwt>
<pdfrwt beam="1">  1        1 0.63650289E-03 0.36373575E+02</pdfrwt>
<pdfrwt beam="2">  1       -1 0.12299428E-01 0.36373575E+02</pdfrwt>
<totfact> 0.83512811E+05</totfact>
</mgrwt>
</event>
<event>
 4    1  0.2165211E+000  0.3297732E+02  0.7546771E-02  0.1567333E+00
          4   -1    0    0  501    0  0.00000000000E+00  0.00000000000E+00  0.56503783188E+02  0.56503783188E+02  0.00000000000E+00 0.  1.
         -4   -1    0    0    0  501 -0.00000000000E+00 -0.00000000000E+00 -0.48116403735E+01  0.48116403735E+01  0.00000000000E+00 0. -1.
        -13    1    1    2    0    0 -0.14074487311E+02  0.84830823386E+00  0.41739195689E+02  0.44056455562E+02  0.00000000000E+00 0.  1.
         13    1    1    2    0    0  0.14074487311E+02 -0.84830823386E+00  0.99529471254E+01  0.17258967999E+02  0.00000000000E+00 0. -1.
<mgrwt>
<rscale>  0 0.32977319E+02</rscale>
<asrwt>0</asrwt>
<pdfrwt beam="1">  1        4 0.86928892E-02 0.32977319E+02</pdfrwt>
<pdfrwt beam="2">  1       -4 0.74025241E-03 0.32977319E+02</pdfrwt>
<totfact> 0.37618782E+05</totfact>
</mgrwt>
</event>
<event>
 4    1  0.2165211E+000  0.2187604E+02  0.7546771E-02  0.1710405E+00
          1   -1    0    0  501    0  0.00000000000E+00  0.00000000000E+00  0.24659845197E+02  0.24659845197E+02  0.00000000000E+00 0. -1.
         -1   -1    0    0    0  501 -0.00000000000E+00 -0.00000000000E+00 -0.48516241007E+01  0.48516241007E+01  0.00000000000E+00 0.  1.
        -11    1    1    2    0    0  0.55044836034E+01 -0.87746472279E+01  0.14644286595E+02  0.17937360553E+02  0.00000000000E+00 0. -1.
         11    1    1    2    0    0 -0.55044836034E+01  0.87746472279E+01  0.51639345013E+01  0.11574108745E+02  0.00000000000E+00 0.  1.
<mgrwt>
<rscale>  0 0.21876042E+02</rscale>
<asrwt>0</asrwt>
<pdfrwt beam="1">  1        1 0.37938223E-02 0.21876042E+02</pdfrwt>
<pdfrwt beam="2">  1       -1 0.74640372E-03 0.21876042E+02</pdfrwt>
<totfact> 0.32728379E+06</totfact>
</mgrwt>
</event>
<event>
 4    1  0.2165211E+000  0.4639998E+02  0.7546771E-02  0.1465786E+00
          2   -1    0    0  501    0  0.00000000000E+00  0.00000000000E+00  0.50242369938E+01  0.50242369938E+01  0.00000000000E+00 0.  1.
         -2   -1    0    0    0  501 -0.00000000000E+00 -0.00000000000E+00 -0.10712861915E+03  0.10712861915E+03  0.00000000000E+00 0. -1.
        -11    1    1    2    0    0 -0.22849331360E+02  0.17205707062E+01 -0.59829671807E+02  0.64067479548E+02  0.00000000000E+00 0.  1.
         11    1    1    2    0    0  0.22849331360E+02 -0.17205707062E+01 -0.42274710347E+02  0.48085376593E+02  0.00000000000E+00 0. -1.
<mgrwt>
<rscale>  0 0.46399982E+02</rscale>
<asrwt>0</asrwt>
<pdfrwt beam="1">  1        2 0.77295958E-03 0.46399982E+02</pdfrwt>
<pdfrwt beam="2">  1       -2 0.16481325E-01 0.46399982E+02</pdfrwt>
<totfact> 0.41593939E+05</totfact>
</mgrwt>
</event>
<event>
 4    1  0.2165211E+000  0.2525742E+02  0.7546771E-02  0.1657332E+00
         -2   -1    0    0    0  501 -0.00000000000E+00  0.00000000000E+00  0.76639645655E+01  0.76639645655E+01  0.00000000000E+00 0.  1.
          2   -1    0    0  501    0  0.00000000000E+00 -0.00000000000E+00 -0.20809632981E+02  0.20809632981E+02  0.00000000000E+00 0. -1.
        -11    1    1    2    0    0  0.10794307525E+02  0.45357382382E+01 -0.11907682513E+02  0.16699787398E+02  0.00000000000E+00 0. -1.
         11    1    1    2    0    0 -0.10794307525E+02 -0.45357382382E+01 -0.12379859016E+01  0.11773810148E+02  0.00000000000E+00 0.  1.
<mgrwt>
<rscale>  0 0.25257418E+02</rscale>
<asrwt>0</asrwt>
<pdfrwt beam="2">  1        2 0.32014820E-02 0.25257418E+02</pdfrwt>
<pdfrwt beam="1">  1       -2 0.11790715E-02 0.25257418E+02</pdfrwt>
<totfact> 0.24433760E+06</totfact>
</mgrwt>
</event>
<event>
 4    1  0.2165211E+000  0.2988957E+02  0.7546771E-02  0.1599313E+00
          2   -1    0    0  501    0  0.00000000000E+00  0.00000000000E+00  0.17052522341E+02  0.17052522341E+02  0.00000000000E+00 0.  1.
         -2   -1    0    0    0  501 -0.00000000000E+00 -0.00000000000E+00 -0.13097566221E+02  0.13097566221E+02  0.00000000000E+00 0. -1.
        -13    1    1    2    0    0 -0.12852280643E+02 -0.49927308749E+01  0.77929748936E+01  0.15837895599E+02  0.00000000000E+00 0.  1.
         13    1    1    2    0    0  0.12852280643E+02  0.49927308749E+01 -0.38380187734E+01  0.14312192963E+02  0.00000000000E+00 0. -1.
<mgrwt>
<rscale>  0 0.29889566E+02</rscale>
<asrwt>0</asrwt>
<pdfrwt beam="1">  1        2 0.26234650E-02 0.29889566E+02</pdfrwt>
<pdfrwt beam="2">  1       -2 0.20150102E-02 0.29889566E+02</pdfrwt>
<totfact> 0.16008039E+06</totfact>
</mgrwt>
</event>
<event>
 4    1  0.2165211E+000  0.2979113E+02  0.7546771E-02  0.1600409E+00
          2   -1    0    0  501    0  0.00000000000E+00  0.00000000000E+00  0.99799258969E+02  0.99799258969E+02  0.00000000000E+00 0.  1.
         -2   -1    0    0    0  501 -0.00000000000E+00 -0.00000000000E+00 -0.22232410744E+01  0.22232410744E+01  0.00000000000E+00 0. -1.
        -13    1    1    2    0    0  0.71114396531E+01  0.11970527597E+02  0.66913042332E+02  0.68346333764E+02  0.00000000000E+00 0.  1.
         13    1    1    2    0    0 -0.71114396531E+01 -0.11970527597E+02  0.30662975562E+02  0.33676166279E+02  0.00000000000E+00 0. -1.
<mgrwt>
<rscale>  0 0.29791127E+02</rscale>
<asrwt>0</asrwt>
<pdfrwt beam="1">  1        2 0.15353729E-01 0.29791127E+02</pdfrwt>
<pdfrwt beam="2">  1       -2 0.34203717E-03 0.29791127E+02</pdfrwt>
<totfact> 0.21231992E+06</totfact>
</mgrwt>
</event>
<event>
 4    1  0.2165211E+000  0.5498700E+02  0.7546771E-02  0.1420160E+00
         -1   -1    0    0    0  501 -0.00000000000E+00  0.00000000000E+00  0.79131643125E+01  0.79131643125E+01  0.00000000000E+00 0.  1.
          1   -1    0    0  501    0  0.00000000000E+00 -0.00000000000E+00 -0.95523440234E+02  0.95523440234E+02  0.00000000000E+00 0. -1.
        -13    1    1    2    0    0 -0.20523886050E+02 -0.51465605444E+01 -0.76827899028E+02  0.79688412289E+02  0.00000000000E+00 0. -1.
         13    1    1    2    0    0  0.20523886050E+02  0.51465605444E+01 -0.10782376894E+02  0.23748192258E+02  0.00000000000E+00 0.  1.
<mgrwt>
<rscale>  0 0.54987005E+02</rscale>
<asrwt>0</asrwt>
<pdfrwt beam="2">  1        1 0.14695914E-01 0.54987005E+02</pdfrwt>
<pdfrwt beam="1">  1       -1 0.12174099E-02 0.54987005E+02</pdfrwt>
<totfact> 0.39412835E+05</totfact>
</mgrwt>
</event>
<event>
 4    1  0.2165211E+000  0.7176558E+02  0.7546771E-02  0.1354190E+00
         -2   -1    0    0    0  501 -0.00000000000E+00  0.00000000000E+00  0.46415648455E+02  0.46415648455E+02  0.00000000000E+00 0. -1.
          2   -1    0    0  501    0  0.00000000000E+00 -0.00000000000E+00 -0.27740097254E+02  0.27740097254E+02  0.00000000000E+00 0.  1.
        -13    1    1    2    0    0  0.20212036828E+02 -0.83752313311E+01 -0.20050696846E+02  0.29676613294E+02  0.00000000000E+00 0.  1.
         13    1    1    2    0    0 -0.20212036828E+02  0.83752313311E+01  0.38726248047E+02  0.44479132415E+02  0.00000000000E+00 0. -1.
<mgrwt>
<rscale>  0 0.71765580E+02</rscale>
<asrwt>0</asrwt>
<pdfrwt beam="2">  1        2 0.42677073E-02 0.71765580E+02</pdfrwt>
<pdfrwt beam="1">  1       -2 0.71408690E-02 0.71765580E+02</pdfrwt>
<totfact> 0.17350754E+05</totfact>
</mgrwt>
</event>
<event>
 4    1  0.2165211E+000  0.2652789E+02  0.7546771E-02  0.1639979E+00
         -3   -1    0    0    0  501 -0.00000000000E+00  0.00000000000E+00  0.15043449038E+02  0.15043449038E+02  0.00000000000E+00 0.  1.
          3   -1    0    0  501    0  0.00000000000E+00 -0.00000000000E+00 -0.11694937514E+02  0.11694937514E+02  0.00000000000E+00 0. -1.
        -11    1    1    2    0    0  0.10517344594E+02 -0.21208071000E+01 -0.61863345785E+01  0.12384792916E+02  0.00000000000E+00 0. -1.
         11    1    1    2    0    0 -0.10517344594E+02  0.21208071000E+01  0.95348461030E+01  0.14353593636E+02  0.00000000000E+00 0.  1.
<mgrwt>
<rscale>  0 0.26527887E+02</rscale>
<asrwt>0</asrwt>
<pdfrwt beam="2">  1        3 0.17992212E-02 0.26527887E+02</pdfrwt>
<pdfrwt beam="1">  1       -3 0.23143768E-02 0.26527887E+02</pdfrwt>
<totfact> 0.93233811E+05</totfact>
</mgrwt>
</event>
<event>
 4    1  0.2165211E+000  0.1303041E+03  0.7546771E-02  0.1227005E+00
         -2   -1    0    0    0  501 -0.00000000000E+00  0.00000000000E+00  0.11901252682E+02  0.11901252682E+02  0.00000000000E+00 0. -1.
          2   -1    0    0  501    0  0.00000000000E+00 -0.00000000000E+00 -0.35666741261E+03  0.35666741261E+03  0.00000000000E+00 0.  1.
        -13    1    1    2    0    0  0.63774370161E+02 -0.96712095458E+01 -0.19832029154E+03  0.20854649511E+03  0.00000000000E+00 0. -1.
         13    1    1    2    0    0 -0.63774370161E+02  0.96712095458E+01 -0.14644586838E+03  0.16002217018E+03  0.00000000000E+00 0.  1.
<mgrwt>
<rscale>  0 0.13030409E+03</rscale>
<asrwt>0</asrwt>
<pdfrwt beam="2">  1        2 0.54871920E-01 0.13030409E+03</pdfrwt>
<pdfrwt beam="1">  1       -2 0.18309616E-02 0.13030409E+03</pdfrwt>
<totfact> 0.72677396E+04</totfact>
</mgrwt>
</event>
<event>
 4    1  0.2165211E+000  0.7462710E+02  0.7546771E-02  0.1345030E+00
         -4   -1    0    0    0  501 -0.00000000000E+00  0.00000000000E+00  0.25042728609E+02  0.25042728609E+02  0.00000000000E+00 0. -1.
          4   -1    0    0  501    0  0.00000000000E+00 -0.00000000000E+00 -0.55597019771E+02  0.55597019771E+02  0.00000000000E+00 0.  1.
        -11    1    1    2    0    0  0.32147862356E+02  0.14049573612E+02 -0.29006138007E+02  0.45521770778E+02  0.00000000000E+00 0.  1.
         11    1    1    2    0    0 -0.32147862356E+02 -0.14049573612E+02 -0.15481531557E+01  0.35117977603E+02  0.00000000000E+00 0. -1.
<mgrwt>
<rscale>  0 0.74627102E+02</rscale>
<asrwt>0</asrwt>
<pdfrwt beam="2">  1        4 0.85533875E-02 0.74627102E+02</pdfrwt>
<pdfrwt beam="1">  1       -4 0.38527275E-02 0.74627102E+02</pdfrwt>
<totfact> 0.47396502E+04</totfact>
</mgrwt>
</event>
<event>
 4    1  0.2165211E+000  0.2535411E+02  0.7546771E-02  0.1655967E+00
         -4   -1    0    0    0  501 -0.00000000000E+00  0.00000000000E+00  0.85185191958E+01  0.85185191958E+01  0.00000000000E+00 0. -1.
          4   -1    0    0  501    0  0.00000000000E+00 -0.00000000000E+00 -0.18865682720E+02  0.18865682720E+02  0.00000000000E+00 0.  1.
        -13    1    1    2    0    0 -0.53788605532E+01 -0.10461657700E+02 -0.10277326199E+02  0.15620558776E+02  0.00000000000E+00 0.  1.
         13    1    1    2    0    0  0.53788605532E+01  0.10461657700E+02 -0.69837326020E-01  0.11763643140E+02  0.00000000000E+00 0. -1.
<mgrwt>
<rscale>  0 0.25354107E+02</rscale>
<asrwt>0</asrwt>
<pdfrwt beam="2">  1        4 0.29024127E-02 0.25354107E+02</pdfrwt>
<pdfrwt beam="1">  1       -4 0.13105414E-02 0.25354107E+02</pdfrwt>
<totfact> 0.76369563E+05</totfact>
</mgrwt>
</event>
<event>
 4    1  0.2165211E+000  0.1371627E+03  0.7546771E-02  0.1217199E+00
          2   -1    0    0  501    0  0.00000000000E+00  0.00000000000E+00  0.39921179981E+03  0.39921179981E+03  0.00000000000E+00 0. -1.
         -2   -1    0    0    0  501 -0.00000000000E+00 -0.00000000000E+00 -0.11781711881E+02  0.11781711881E+02  0.00000000000E+00 0.  1.
        -13    1    1    2    0    0 -0.30426157961E+02  0.58885781475E+02  0.14094852896E+03  0.15575549481E+03  0.00000000000E+00 0.  1.
         13    1    1    2    0    0  0.30426157961E+02 -0.58885781475E+02  0.24648155897E+03  0.25523801688E+03  0.00000000000E+00 0. -1.
<mgrwt>
<rscale>  0 0.13716265E+03</rscale>
<asrwt>0</asrwt>
<pdfrwt beam="1">  1        2 0.61417190E-01 0.13716265E+03</pdfrwt>
<pdfrwt beam="2">  1       -2 0.18125714E-02 0.13716265E+03</pdfrwt>
<totfact> 0.65818619E+04</totfact>
</mgrwt>
</event>
<event>
 4    1  0.2165211E+000  0.2986567E+02  0.7546771E-02  0.1599578E+00
         -2   -1    0    0    0  501 -0.00000000000E+00  0.00000000000E+00  0.43475949550E+02  0.43475949550E+02  0.00000000000E+00 0. -1.
          2   -1    0    0  501    0  0.00000000000E+00 -0.00000000000E+00 -0.51290328032E+01  0.51290328032E+01  0.00000000000E+00 0.  1.
        -11    1    1    2    0    0  0.25606906080E+01  0.14427210959E+02  0.14488196337E+02  0.20606052159E+02  0.00000000000E+00 0.  1.
         11    1    1    2    0    0 -0.25606906080E+01 -0.14427210959E+02  0.23858720410E+02  0.27998930195E+02  0.00000000000E+00 0. -1.
<mgrwt>
<rscale>  0 0.29865671E+02</rscale>
<asrwt>0</asrwt>
<pdfrwt beam="2">  1        2 0.78908200E-03 0.29865671E+02</pdfrwt>
<pdfrwt beam="1">  1       -2 0.66886074E-02 0.29865671E+02</pdfrwt>
<totfact> 0.14032807E+06</totfact>
</mgrwt>
</event>
<event>
 4    1  0.2165211E+000  0.2355581E+02  0.7546771E-02  0.1682656E+00
          2   -1    0    0  501    0  0.00000000000E+00  0.00000000000E+00  0.63195762621E+02  0.63195762621E+02  0.00000000000E+00 0. -1.
         -2   -1    0    0    0  501 -0.00000000000E+00 -0.00000000000E+00 -0.21950690354E+01  0.21950690354E+01  0.00000000000E+00 0.  1.
        -13    1    1    2    0    0 -0.10630172861E+02 -0.13164321051E+01  0.44095782173E+02  0.45378095751E+02  0.00000000000E+00 0. -1.
         13    1    1    2    0    0  0.10630172861E+02  0.13164321051E+01  0.16904911413E+02  0.20012735905E+02  0.00000000000E+00 0.  1.
<mgrwt>
<rscale>  0 0.23555811E+02</rscale>
<asrwt>0</asrwt>
<pdfrwt beam="1">  1        2 0.97224236E-02 0.23555811E+02</pdfrwt>
<pdfrwt beam="2">  1       -2 0.33770298E-03 0.23555811E+02</pdfrwt>
<totfact> 0.33282333E+06</totfact>
</mgrwt>
</event>
<event>
 4    1  0.2165211E+000  0.4972940E+02  0.7546771E-02  0.1446807E+00
         -2   -1    0    0    0  501 -0.00000000000E+00  0.00000000000E+00  0.12224713270E+02  0.12224713270E+02  0.00000000000E+00 0.  1.
          2   -1    0    0  501    0  0.00000000000E+00 -0.00000000000E+00 -0.50574050617E+02  0.50574050617E+02  0.00000000000E+00 0. -1.
        -11    1    1    2    0    0 -0.11001308007E+02 -0.22283803382E+02 -0.20197931542E+02  0.32024258143E+02  0.00000000000E+00 0. -1.
         11    1    1    2    0    0  0.11001308007E+02  0.22283803382E+02 -0.18151405806E+02  0.30774505744E+02  0.00000000000E+00 0.  1.
<mgrwt>
<rscale>  0 0.49729398E+02</rscale>
<asrwt>0</asrwt>
<pdfrwt beam="2">  1        2 0.77806231E-02 0.49729398E+02</pdfrwt>
<pdfrwt beam="1">  1       -2 0.18807251E-02 0.49729398E+02</pdfrwt>
<totfact> 0.52132538E+05</totfact>
</mgrwt>
</event>
<event>
 4    1  0.2165211E+000  0.2968295E+02  0.7546771E-02  0.1601620E+00
          4   -1    0    0  501    0  0.00000000000E+00  0.00000000000E+00  0.17284842878E+02  0.17284842878E+02  0.00000000000E+00 0.  1.
         -4   -1    0    0    0  501 -0.00000000000E+00 -0.00000000000E+00 -0.12743503421E+02  0.12743503421E+02  0.00000000000E+00 0. -1.
        -13    1    1    2    0    0 -0.44606145287E+01  0.11999606001E+02  0.98668254464E+01  0.16162978393E+02  0.00000000000E+00 0.  1.
         13    1    1    2    0    0  0.44606145287E+01 -0.11999606001E+02 -0.53254859896E+01  0.13865367906E+02  0.00000000000E+00 0. -1.
<mgrwt>
<rscale>  0 0.29682955E+02</rscale>
<asrwt>0</asrwt>
<pdfrwt beam="1">  1        4 0.26592066E-02 0.29682955E+02</pdfrwt>
<pdfrwt beam="2">  1       -4 0.19605390E-02 0.29682955E+02</pdfrwt>
<totfact> 0.53294455E+05</totfact>
</mgrwt>
</event>
<event>
 4    1  0.2165211E+000  0.3170914E+02  0.7546771E-02  0.1579930E+00
         -1   -1    0    0    0  501 -0.00000000000E+00  0.00000000000E+00  0.10865194148E+02  0.10865194148E+02  0.00000000000E+00 0. -1.
          1   -1    0    0  501    0  0.00000000000E+00 -0.00000000000E+00 -0.23135096182E+02  0.23135096182E+02  0.00000000000E+00 0.  1.
        -11    1    1    2    0    0 -0.14463990507E+01 -0.12713100076E+02 -0.16173708369E+02  0.20622895679E+02  0.00000000000E+00 0.  1.
         11    1    1    2    0    0  0.14463990507E+01  0.12713100076E+02  0.39038063342E+01  0.13377394651E+02  0.00000000000E+00 0. -1.
<mgrwt>
<rscale>  0 0.31709135E+02</rscale>
<asrwt>0</asrwt>
<pdfrwt beam="2">  1        1 0.35592455E-02 0.31709135E+02</pdfrwt>
<pdfrwt beam="1">  1       -1 0.16715684E-02 0.31709135E+02</pdfrwt>
<totfact> 0.13642486E+06</totfact>
</mgrwt>
</event>
<event>
 4    1  0.2165211E+000  0.2133234E+02  0.7546771E-02  0.1720061E+00
          2   -1    0    0  501    0  0.00000000000E+00  0.00000000000E+00  0.24723568964E+02  0.24723568964E+02  0.00000000000E+00 0.  1.
         -2   -1    0    0    0  501 -0.00000000000E+00 -0.00000000000E+00 -0.46015667474E+01  0.46015667474E+01  0.00000000000E+00 0. -1.
        -11    1    1    2    0    0 -0.38868411293E+00  0.10083154274E+02  0.14812320789E+02  0.17922776643E+02  0.00000000000E+00 0. -1.
         11    1    1    2    0    0  0.38868411293E+00 -0.10083154274E+02  0.53096814275E+01  0.11402359068E+02  0.00000000000E+00 0.  1.
<mgrwt>
<rscale>  0 0.21332337E+02</rscale>
<asrwt>0</asrwt>
<pdfrwt beam="1">  1        2 0.38036259E-02 0.21332337E+02</pdfrwt>
<pdfrwt beam="2">  1       -2 0.70793336E-03 0.21332337E+02</pdfrwt>
<totfact> 0.36736413E+06</totfact>
</mgrwt>
</event>
<event>
 4    1  0.2165211E+000  0.3968199E+02  0.7546771E-02  0.1510565E+00
         -2   -1    0    0    0  501 -0.00000000000E+00  0.00000000000E+00  0.32553858891E+02  0.32553858891E+02  0.00000000000E+00 0.  1.
          2   -1    0    0  501    0  0.00000000000E+00 -0.00000000000E+00 -0.12092731083E+02  0.12092731083E+02  0.00000000000E+00 0. -1.
        -13    1    1    2    0    0 -0.17793311165E+02  0.71805649660E+00  0.38681642351E+00  0.17811994674E+02  0.00000000000E+00 0. -1.
         13    1    1    2    0    0  0.17793311165E+02 -0.71805649660E+00  0.20074311384E+02  0.26834595299E+02  0.00000000000E+00 0.  1.
<mgrwt>
<rscale>  0 0.39681989E+02</rscale>
<asrwt>0</asrwt>
<pdfrwt beam="2">  1        2 0.18604202E-02 0.39681989E+02</pdfrwt>
<pdfrwt beam="1">  1       -2 0.50082859E-02 0.39681989E+02</pdfrwt>
<totfact> 0.75331760E+05</totfact>
</mgrwt>
</event>
<event>
 4    1  0.2165211E+000  0.4169842E+02  0.7546771E-02  0.1496072E+00
          2   -1    0    0  501    0  0.00000000000E+00  0.00000000000E+00  0.11350644890E+03  0.11350644890E+03  0.00000000000E+00 0.  1.
         -2   -1    0    0    0  501 -0.00000000000E+00 -0.00000000000E+00 -0.38296460626E+01  0.38296460626E+01  0.00000000000E+00 0. -1.
        -11    1    1    2    0    0 -0.93485923713E+01 -0.18513856637E+02  0.60827798572E+02  0.64266477622E+02  0.00000000000E+00 0.  1.
         11    1    1    2    0    0  0.93485923713E+01  0.18513856637E+02  0.48849004265E+02  0.53069617340E+02  0.00000000000E+00 0. -1.
<mgrwt>
<rscale>  0 0.41698418E+02</rscale>
<asrwt>0</asrwt>
<pdfrwt beam="1">  1        2 0.17462528E-01 0.41698418E+02</pdfrwt>
<pdfrwt beam="2">  1       -2 0.58917640E-03 0.41698418E+02</pdfrwt>
<totfact> 0.97460005E+05</totfact>
</mgrwt>
</event>
<event>
 4    1  0.2165211E+000  0.2529616E+02  0.7546771E-02  0.1656784E+00
          2   -1    0    0  501    0  0.00000000000E+00  0.00000000000E+00  0.85674810365E+02  0.85674810365E+02  0.00000000000E+00 0. -1.
         -2   -1    0    0    0  501 -0.00000000000E+00 -0.00000000000E+00 -0.18672223876E+01  0.18672223876E+01  0.00000000000E+00 0.  1.
        -13    1    1    2    0    0  0.68231275839E+00  0.12310107743E+02  0.51673485630E+02  0.53123943947E+02  0.00000000000E+00 0. -1.
         13    1    1    2    0    0 -0.68231275839E+00 -0.12310107743E+02  0.32134102347E+02  0.34418088805E+02  0.00000000000E+00 0.  1.
<mgrwt>
<rscale>  0 0.25296160E+02</rscale>
<asrwt>0</asrwt>
<pdfrwt beam="1">  1        2 0.13180737E-01 0.25296160E+02</pdfrwt>
<pdfrwt beam="2">  1       -2 0.28726505E-03 0.25296160E+02</pdfrwt>
<totfact> 0.30015091E+06</totfact>
</mgrwt>
</event>
<event>
 4    1  0.2165211E+000  0.2432566E+02  0.7546771E-02  0.1670881E+00
         -2   -1    0    0    0  501 -0.00000000000E+00  0.00000000000E+00  0.23455885569E+01  0.23455885569E+01  0.00000000000E+00 0.  1.
          2   -1    0    0  501    0  0.00000000000E+00 -0.00000000000E+00 -0.63069235002E+02  0.63069235002E+02  0.00000000000E+00 0. -1.
        -11    1    1    2    0    0  0.74800289341E+01 -0.76439880622E+01 -0.45938605081E+02  0.47167115909E+02  0.00000000000E+00 0. -1.
         11    1    1    2    0    0 -0.74800289341E+01  0.76439880622E+01 -0.14785041364E+02  0.18247707650E+02  0.00000000000E+00 0.  1.
<mgrwt>
<rscale>  0 0.24325663E+02</rscale>
<asrwt>0</asrwt>
<pdfrwt beam="2">  1        2 0.97029605E-02 0.24325663E+02</pdfrwt>
<pdfrwt beam="1">  1       -2 0.36085973E-03 0.24325663E+02</pdfrwt>
<totfact> 0.30908223E+06</totfact>
</mgrwt>
</event>
<event>
 4    1  0.2165211E+000  0.3252644E+02  0.7546771E-02  0.1571731E+00
          2   -1    0    0  501    0  0.00000000000E+00  0.00000000000E+00  0.33964512065E+02  0.33964512065E+02  0.00000000000E+00 0. -1.
         -2   -1    0    0    0  501 -0.00000000000E+00 -0.00000000000E+00 -0.77873151039E+01  0.77873151039E+01  0.00000000000E+00 0.  1.
        -13    1    1    2    0    0 -0.13222222609E+02  0.64137631968E+01  0.22030684251E+02  0.26482344639E+02  0.00000000000E+00 0. -1.
         13    1    1    2    0    0  0.13222222609E+02 -0.64137631968E+01  0.41465127104E+01  0.15269482529E+02  0.00000000000E+00 0.  1.
<mgrwt>
<rscale>  0 0.32526442E+02</rscale>
<asrwt>0</asrwt>
<pdfrwt beam="1">  1        2 0.52253095E-02 0.32526442E+02</pdfrwt>
<pdfrwt beam="2">  1       -2 0.11980485E-02 0.32526442E+02</pdfrwt>
<totfact> 0.14129647E+06</totfact>
</mgrwt>
</event>
<event>
 4    1  0.2165211E+000  0.2786706E+02  0.7546771E-02  0.1622937E+00
         -1   -1    0    0    0  501 -0.00000000000E+00  0.00000000000E+00  0.32277163585E+01  0.32277163585E+01  0.00000000000E+00 0.  1.
          1   -1    0    0  501    0  0.00000000000E+00 -0.00000000000E+00 -0.60148783624E+02  0.60148783624E+02  0.00000000000E+00 0. -1.
        -11    1    1    2    0    0 -0.97275096810E+01 -0.69272405012E+01 -0.44786394858E+02  0.46351184126E+02  0.00000000000E+00 0. -1.
         11    1    1    2    0    0  0.97275096810E+01  0.69272405012E+01 -0.12134672408E+02  0.17025315856E+02  0.00000000000E+00 0.  1.
<mgrwt>
<rscale>  0 0.27867057E+02</rscale>
<asrwt>0</asrwt>
<pdfrwt beam="2">  1        1 0.92536586E-02 0.27867057E+02</pdfrwt>
<pdfrwt beam="1">  1       -1 0.49657177E-03 0.27867057E+02</pdfrwt>
<totfact> 0.19836765E+06</totfact>
</mgrwt>
</event>
<event>
 4    1  0.2165211E+000  0.2310206E+02  0.7546771E-02  0.1689861E+00
         -2   -1    0    0    0  501 -0.00000000000E+00  0.00000000000E+00  0.87785042872E+02  0.87785042872E+02  0.00000000000E+00 0. -1.
          2   -1    0    0  501    0  0.00000000000E+00 -0.00000000000E+00 -0.15199212255E+01  0.15199212255E+01  0.00000000000E+00 0.  1.
        -11    1    1    2    0    0 -0.67957561615E+00  0.11519429461E+02  0.45131048132E+02  0.46582943054E+02  0.00000000000E+00 0. -1.
         11    1    1    2    0    0  0.67957561615E+00 -0.11519429461E+02  0.41134073515E+02  0.42722021043E+02  0.00000000000E+00 0.  1.
<mgrwt>
<rscale>  0 0.23102065E+02</rscale>
<asrwt>0</asrwt>
<pdfrwt beam="2">  1        2 0.23383410E-03 0.23102065E+02</pdfrwt>
<pdfrwt beam="1">  1       -2 0.13505387E-01 0.23102065E+02</pdfrwt>
<totfact> 0.22285710E+06</totfact>
</mgrwt>
</event>
<event>
 4    1  0.2165211E+000  0.2892202E+02  0.7546771E-02  0.1610319E+00
          1   -1    0    0  501    0  0.00000000000E+00  0.00000000000E+00  0.65304210527E+02  0.65304210527E+02  0.00000000000E+00 0.  1.
         -1   -1    0    0    0  501 -0.00000000000E+00 -0.00000000000E+00 -0.32022565895E+01  0.32022565895E+01  0.00000000000E+00 0. -1.
        -11    1    1    2    0    0  0.12555228332E+02  0.65433897399E+01  0.38025921966E+02  0.40576106875E+02  0.00000000000E+00 0.  1.
         11    1    1    2    0    0 -0.12555228332E+02 -0.65433897399E+01  0.24076031972E+02  0.27930360242E+02  0.00000000000E+00 0. -1.
<mgrwt>
<rscale>  0 0.28922022E+02</rscale>
<asrwt>0</asrwt>
<pdfrwt beam="1">  1        1 0.10046801E-01 0.28922022E+02</pdfrwt>
<pdfrwt beam="2">  1       -1 0.49265491E-03 0.28922022E+02</pdfrwt>
<totfact> 0.18314817E+06</totfact>
</mgrwt>
</event>
<event>
 4    1  0.2165211E+000  0.2096935E+02  0.7546771E-02  0.1726711E+00
          2   -1    0    0  501    0  0.00000000000E+00  0.00000000000E+00  0.40971011288E+01  0.40971011288E+01  0.00000000000E+00 0.  1.
         -2   -1    0    0    0  501 -0.00000000000E+00 -0.00000000000E+00 -0.26830782613E+02  0.26830782613E+02  0.00000000000E+00 0. -1.
        -13    1    1    2    0    0 -0.98727155292E+01 -0.34913278349E+01 -0.10602519444E+02  0.14902124027E+02  0.00000000000E+00 0.  1.
         13    1    1    2    0    0  0.98727155292E+01  0.34913278349E+01 -0.12131162040E+02  0.16025759714E+02  0.00000000000E+00 0. -1.
<mgrwt>
<rscale>  0 0.20969352E+02</rscale>
<asrwt>0</asrwt>
<pdfrwt beam="1">  1        2 0.63032324E-03 0.20969352E+02</pdfrwt>
<pdfrwt beam="2">  1       -2 0.41278128E-02 0.20969352E+02</pdfrwt>
<totfact> 0.32878528E+06</totfact>
</mgrwt>
</event>
<event>
 4    1  0.2165211E+000  0.2220492E+02  0.7546771E-02  0.1704732E+00
         -2   -1    0    0    0  501 -0.00000000000E+00  0.00000000000E+00  0.11138778280E+02  0.11138778280E+02  0.00000000000E+00 0.  1.
          2   -1    0    0  501    0  0.00000000000E+00 -0.00000000000E+00 -0.11066263975E+02  0.11066263975E+02  0.00000000000E+00 0. -1.
        -11    1    1    2    0    0  0.10800149029E+02 -0.24785187507E+01 -0.65540148122E+00  0.11100262400E+02  0.00000000000E+00 0. -1.
         11    1    1    2    0    0 -0.10800149029E+02  0.24785187507E+01  0.72791578592E+00  0.11104779855E+02  0.00000000000E+00 0.  1.
<mgrwt>
<rscale>  0 0.22204924E+02</rscale>
<asrwt>0</asrwt>
<pdfrwt beam="2">  1        2 0.17025022E-02 0.22204924E+02</pdfrwt>
<pdfrwt beam="1">  1       -2 0.17136582E-02 0.22204924E+02</pdfrwt>
<totfact> 0.31238889E+06</totfact>
</mgrwt>
</event>
<event>
 4    1  0.2165211E+000  0.5147856E+02  0.7546771E-02  0.1437526E+00
          2   -1    0    0  501    0  0.00000000000E+00  0.00000000000E+00  0.20746753627E+02  0.20746753627E+02  0.00000000000E+00 0. -1.
         -2   -1    0    0    0  501 -0.00000000000E+00 -0.00000000000E+00 -0.31933219967E+02  0.31933219967E+02  0.00000000000E+00 0.  1.
        -11    1    1    2    0    0  0.12831638781E+02  0.22283140269E+02 -0.44169047991E+01  0.26090196282E+02  0.00000000000E+00 0. -1.
         11    1    1    2    0    0 -0.12831638781E+02 -0.22283140269E+02 -0.67695615409E+01  0.26589777312E+02  0.00000000000E+00 0.  1.
<mgrwt>
<rscale>  0 0.51478564E+02</rscale>
<asrwt>0</asrwt>
<pdfrwt beam="1">  1        2 0.31918083E-02 0.51478564E+02</pdfrwt>
<pdfrwt beam="2">  1       -2 0.49128031E-02 0.51478564E+02</pdfrwt>
<totfact> 0.40975611E+05</totfact>
</mgrwt>
</event>
<event>
 4    1  0.2165211E+000  0.4927014E+02  0.7546771E-02  0.1449318E+00
          2   -1    0    0  501    0  0.00000000000E+00  0.00000000000E+00  0.18295735136E+02  0.18295735136E+02  0.00000000000E+00 0. -1.
         -2   -1    0    0    0  501 -0.00000000000E+00 -0.00000000000E+00 -0.33170931222E+02  0.33170931222E+02  0.00000000000E+00 0.  1.
        -13    1    1    2    0    0  0.18622021013E+02  0.94080186497E+01 -0.21121059499E+02  0.29688207017E+02  0.00000000000E+00 0.  1.
         13    1    1    2    0    0 -0.18622021013E+02 -0.94080186497E+01  0.62458634132E+01  0.21778459342E+02  0.00000000000E+00 0. -1.
<mgrwt>
<rscale>  0 0.49270136E+02</rscale>
<asrwt>0</asrwt>
<pdfrwt beam="1">  1        2 0.28147285E-02 0.49270136E+02</pdfrwt>
<pdfrwt beam="2">  1       -2 0.51032201E-02 0.49270136E+02</pdfrwt>
<totfact> 0.45161171E+05</totfact>
</mgrwt>
</event>
<event>
 4    1  0.2165211E+000  0.3256195E+02  0.7546771E-02  0.1571382E+00
         -3   -1    0    0    0  501 -0.00000000000E+00  0.00000000000E+00  0.75740533945E+01  0.75740533945E+01  0.00000000000E+00 0.  1.
          3   -1    0    0  501    0  0.00000000000E+00 -0.00000000000E+00 -0.34997127601E+02  0.34997127601E+02  0.00000000000E+00 0. -1.
        -13    1    1    2    0    0 -0.41556568287E+01 -0.99790392870E+01 -0.29628413832E+02  0.31538763688E+02  0.00000000000E+00 0. -1.
         13    1    1    2    0    0  0.41556568287E+01  0.99790392870E+01  0.22053396260E+01  0.11032417307E+02  0.00000000000E+00 0.  1.
<mgrwt>
<rscale>  0 0.32561948E+02</rscale>
<asrwt>0</asrwt>
<pdfrwt beam="2">  1        3 0.53841735E-02 0.32561948E+02</pdfrwt>
<pdfrwt beam="1">  1       -3 0.11652390E-02 0.32561948E+02</pdfrwt>
<totfact> 0.55098218E+05</totfact>
</mgrwt>
</event>
<event>
 4    1  0.2165211E+000  0.2367803E+02  0.7546771E-02  0.1680749E+00
          4   -1    0    0  501    0  0.00000000000E+00  0.00000000000E+00  0.79842926610E+02  0.79842926610E+02  0.00000000000E+00 0. -1.
         -4   -1    0    0    0  501 -0.00000000000E+00 -0.00000000000E+00 -0.17554758645E+01  0.17554758645E+01  0.00000000000E+00 0.  1.
        -11    1    1    2    0    0 -0.11654259444E+02 -0.19703382309E+01  0.36710657514E+02  0.38566518783E+02  0.00000000000E+00 0. -1.
         11    1    1    2    0    0  0.11654259444E+02  0.19703382309E+01  0.41376793232E+02  0.43031883692E+02  0.00000000000E+00 0.  1.
<mgrwt>
<rscale>  0 0.23678035E+02</rscale>
<asrwt>0</asrwt>
<pdfrwt beam="1">  1        4 0.12283524E-01 0.23678035E+02</pdfrwt>
<pdfrwt beam="2">  1       -4 0.27007327E-03 0.23678035E+02</pdfrwt>
<totfact> 0.73204804E+05</totfact>
</mgrwt>
</event>
<event>
 4    1  0.2165211E+000  0.7228973E+02  0.7546771E-02  0.1352475E+00
          4   -1    0    0  501    0  0.00000000000E+00  0.00000000000E+00  0.37292672228E+01  0.37292672228E+01  0.00000000000E+00 0. -1.
         -4   -1    0    0    0  501 -0.00000000000E+00 -0.00000000000E+00 -0.35032387495E+03  0.35032387495E+03  0.00000000000E+00 0.  1.
        -13    1    1    2    0    0  0.54726512072E+01 -0.35261273464E+02 -0.14510085130E+03  0.14942410905E+03  0.00000000000E+00 0. -1.
         13    1    1    2    0    0 -0.54726512072E+01  0.35261273464E+02 -0.20149375643E+03  0.20462903313E+03  0.00000000000E+00 0.  1.
<mgrwt>
<rscale>  0 0.72289732E+02</rscale>
<asrwt>0</asrwt>
<pdfrwt beam="1">  1        4 0.57373341E-03 0.72289732E+02</pdfrwt>
<pdfrwt beam="2">  1       -4 0.53895982E-01 0.72289732E+02</pdfrwt>
<totfact> 0.29830575E+04</totfact>
</mgrwt>
</event>
<event>
 4    1  0.2165211E+000  0.2188968E+02  0.7546771E-02  0.1710167E+00
         -2   -1    0    0    0  501 -0.00000000000E+00  0.00000000000E+00  0.22349691670E+01  0.22349691670E+01  0.00000000000E+00 0. -1.
          2   -1    0    0  501    0  0.00000000000E+00 -0.00000000000E+00 -0.53597846866E+02  0.53597846866E+02  0.00000000000E+00 0.  1.
        -13    1    1    2    0    0  0.10478295856E+02  0.17432837433E+01 -0.18954398336E+02  0.21727929919E+02  0.00000000000E+00 0. -1.
         13    1    1    2    0    0 -0.10478295856E+02 -0.17432837433E+01 -0.32408479362E+02  0.34104886114E+02  0.00000000000E+00 0.  1.
<mgrwt>
<rscale>  0 0.21889681E+02</rscale>
<asrwt>0</asrwt>
<pdfrwt beam="2">  1        2 0.82458218E-02 0.21889681E+02</pdfrwt>
<pdfrwt beam="1">  1       -2 0.34384144E-03 0.21889681E+02</pdfrwt>
<totfact> 0.38236643E+06</totfact>
</mgrwt>
</event>
<event>
 4    1  0.2165211E+000  0.2337143E+02  0.7546771E-02  0.1685559E+00
         -1   -1    0    0    0  501 -0.00000000000E+00  0.00000000000E+00  0.34720050207E+02  0.34720050207E+02  0.00000000000E+00 0.  1.
          1   -1    0    0  501    0  0.00000000000E+00 -0.00000000000E+00 -0.39330561776E+01  0.39330561776E+01  0.00000000000E+00 0. -1.
        -13    1    1    2    0    0 -0.48826697363E+01  0.10418481825E+02  0.18771053559E+02  0.22016759049E+02  0.00000000000E+00 0. -1.
         13    1    1    2    0    0  0.48826697363E+01 -0.10418481825E+02  0.12015940470E+02  0.16636347336E+02  0.00000000000E+00 0.  1.
<mgrwt>
<rscale>  0 0.23371428E+02</rscale>
<asrwt>0</asrwt>
<pdfrwt beam="2">  1        1 0.60508559E-03 0.23371428E+02</pdfrwt>
<pdfrwt beam="1">  1       -1 0.53415460E-02 0.23371428E+02</pdfrwt>
<totfact> 0.25504935E+06</totfact>
</mgrwt>
</event>
<event>
 4    1  0.2165211E+000  0.6228101E+02  0.7546771E-02  0.1388501E+00
          4   -1    0    0  501    0  0.00000000000E+00  0.00000000000E+00  0.28967831963E+02  0.28967831963E+02  0.00000000000E+00 0.  1.
         -4   -1    0    0    0  501 -0.00000000000E+00 -0.00000000000E+00 -0.33476136510E+02  0.33476136510E+02  0.00000000000E+00 0. -1.
        -13    1    1    2    0    0  0.47795774730E+01  0.23514898371E+02 -0.22153912085E+02  0.32658699100E+02  0.00000000000E+00 0. -1.
         13    1    1    2    0    0 -0.47795774730E+01 -0.23514898371E+02  0.17645607538E+02  0.29785269373E+02  0.00000000000E+00 0.  1.
<mgrwt>
<rscale>  0 0.62281011E+02</rscale>
<asrwt>0</asrwt>
<pdfrwt beam="1">  1        4 0.44565896E-02 0.62281011E+02</pdfrwt>
<pdfrwt beam="2">  1       -4 0.51501748E-02 0.62281011E+02</pdfrwt>
<totfact> 0.79731917E+04</totfact>
</mgrwt>
</event>
<event>
 4    1  0.2165211E+000  0.5202129E+02  0.7546771E-02  0.1434735E+00
         -2   -1    0    0    0  501 -0.00000000000E+00  0.00000000000E+00  0.62159016092E+01  0.62159016092E+01  0.00000000000E+00 0. -1.
          2   -1    0    0  501    0  0.00000000000E+00 -0.00000000000E+00 -0.10884238967E+03  0.10884238967E+03  0.00000000000E+00 0.  1.
        -11    1    1    2    0    0 -0.17693919683E+02 -0.95773933531E+01 -0.87773814636E+02  0.90050229277E+02  0.00000000000E+00 0.  1.
         11    1    1    2    0    0  0.17693919683E+02  0.95773933531E+01 -0.14852673423E+02  0.25008062000E+02  0.00000000000E+00 0. -1.
<mgrwt>
<rscale>  0 0.52021287E+02</rscale>
<asrwt>0</asrwt>
<pdfrwt beam="2">  1        2 0.16744983E-01 0.52021287E+02</pdfrwt>
<pdfrwt beam="1">  1       -2 0.95629258E-03 0.52021287E+02</pdfrwt>
<totfact> 0.55383303E+05</totfact>
</mgrwt>
</event>
<event>
 4    1  0.2165211E+000  0.2870291E+02  0.7546771E-02  0.1612885E+00
         -2   -1    0    0    0  501 -0.00000000000E+00  0.00000000000E+00  0.28705058430E+01  0.28705058430E+01  0.00000000000E+00 0. -1.
          2   -1    0    0  501    0  0.00000000000E+00 -0.00000000000E+00 -0.71751922344E+02  0.71751922344E+02  0.00000000000E+00 0.  1.
        -11    1    1    2    0    0  0.74272199340E+01 -0.11851497357E+02 -0.26079656351E+02  0.29593412459E+02  0.00000000000E+00 0.  1.
         11    1    1    2    0    0 -0.74272199340E+01  0.11851497357E+02 -0.42801760150E+02  0.45029015728E+02  0.00000000000E+00 0. -1.
<mgrwt>
<rscale>  0 0.28702914E+02</rscale>
<asrwt>0</asrwt>
<pdfrwt beam="2">  1        2 0.11038757E-01 0.28702914E+02</pdfrwt>
<pdfrwt beam="1">  1       -2 0.44161631E-03 0.28702914E+02</pdfrwt>
<totfact> 0.21555293E+06</totfact>
</mgrwt>
</event>
<event>
 4    1  0.2165211E+000  0.2080307E+02  0.7546771E-02  0.1729814E+00
          4   -1    0    0  501    0  0.00000000000E+00  0.00000000000E+00  0.17209412513E+02  0.17209412513E+02  0.00000000000E+00 0.  1.
         -4   -1    0    0    0  501 -0.00000000000E+00 -0.00000000000E+00 -0.62867891167E+01  0.62867891167E+01  0.00000000000E+00 0. -1.
        -13    1    1    2    0    0  0.10356825390E+02 -0.82545986088E+00  0.49002867343E+01  0.11487298474E+02  0.00000000000E+00 0.  1.
         13    1    1    2    0    0 -0.10356825390E+02  0.82545986088E+00  0.60223366621E+01  0.12008903156E+02  0.00000000000E+00 0. -1.
<mgrwt>
<rscale>  0 0.20803072E+02</rscale>
<asrwt>0</asrwt>
<pdfrwt beam="1">  1        4 0.26476019E-02 0.20803072E+02</pdfrwt>
<pdfrwt beam="2">  1       -4 0.96719833E-03 0.20803072E+02</pdfrwt>
<totfact> 0.11814088E+06</totfact>
</mgrwt>
</event>
<event>
 4    1  0.2165211E+000  0.3166472E+02  0.7546771E-02  0.1580384E+00
         -1   -1    0    0    0  501 -0.00000000000E+00  0.00000000000E+00  0.50171988477E+02  0.50171988477E+02  0.00000000000E+00 0. -1.
          1   -1    0    0  501    0  0.00000000000E+00 -0.00000000000E+00 -0.49960861662E+01  0.49960861662E+01  0.00000000000E+00 0.  1.
        -11    1    1    2    0    0  0.13186870212E+02 -0.65583588926E+01  0.32710743160E+02  0.35873365265E+02  0.00000000000E+00 0. -1.
         11    1    1    2    0    0 -0.13186870212E+02  0.65583588926E+01  0.12465159151E+02  0.19294709379E+02  0.00000000000E+00 0.  1.
<mgrwt>
<rscale>  0 0.31664717E+02</rscale>
<asrwt>0</asrwt>
<pdfrwt beam="2">  1        1 0.76862868E-03 0.31664717E+02</pdfrwt>
<pdfrwt beam="1">  1       -1 0.77187671E-02 0.31664717E+02</pdfrwt>
<totfact> 0.12263620E+06</totfact>
</mgrwt>
</event>
<event>
 4    1  0.2165211E+000  0.4634291E+02  0.7546771E-02  0.1466128E+00
         -2   -1    0    0    0  501 -0.00000000000E+00  0.00000000000E+00  0.75206822007E+01  0.75206822007E+01  0.00000000000E+00 0. -1.
          2   -1    0    0  501    0  0.00000000000E+00 -0.00000000000E+00 -0.71391981492E+02  0.71391981492E+02  0.00000000000E+00 0.  1.
        -11    1    1    2    0    0 -0.14752606361E+01  0.23066307892E+02 -0.29145214267E+02  0.37197775046E+02  0.00000000000E+00 0.  1.
         11    1    1    2    0    0  0.14752606361E+01 -0.23066307892E+02 -0.34726085024E+02  0.41714888646E+02  0.00000000000E+00 0. -1.
<mgrwt>
<rscale>  0 0.46342913E+02</rscale>
<asrwt>0</asrwt>
<pdfrwt beam="2">  1        2 0.10983382E-01 0.46342913E+02</pdfrwt>
<pdfrwt beam="1">  1       -2 0.11570280E-02 0.46342913E+02</pdfrwt>
<totfact> 0.66926567E+05</totfact>
</mgrwt>
</event>
<event>
 4    1  0.2165211E+000  0.2682345E+02  0.7546771E-02  0.1636113E+00
         -2   -1    0    0    0  501 -0.00000000000E+00  0.00000000000E+00  0.27571362293E+01  0.27571362293E+01  0.00000000000E+00 0. -1.
          2   -1    0    0  501    0  0.00000000000E+00 -0.00000000000E+00 -0.65239554974E+02  0.65239554974E+02  0.00000000000E+00 0.  1.
        -13    1    1    2    0    0 -0.10530480329E+02 -0.37275789602E+01 -0.50056181121E+02  0.51287494863E+02  0.00000000000E+00 0.  1.
         13    1    1    2    0    0  0.10530480329E+02  0.37275789602E+01 -0.12426237623E+02  0.16709196340E+02  0.00000000000E+00 0. -1.
<mgrwt>
<rscale>  0 0.26823448E+02</rscale>
<asrwt>0</asrwt>
<pdfrwt beam="2">  1        2 0.10036854E-01 0.26823448E+02</pdfrwt>
<pdfrwt beam="1">  1       -2 0.42417483E-03 0.26823448E+02</pdfrwt>
<totfact> 0.24800499E+06</totfact>
</mgrwt>
</event>
