<event>
 5    1  0.1227473E+001  0.9229502E+02  0.7546771E-02  0.1297387E+00
         -2   -1    0    0    0  501 -0.00000000000E+00  0.00000000000E+00  0.53771879862E+01  0.53771879862E+01  0.00000000000E+00 0. -1.
          2   -1    0    0  501    0  0.00000000000E+00 -0.00000000000E+00 -0.39604206752E+03  0.39604206752E+03  0.00000000000E+00 0.  1.
         23    2    1    2    0    0  0.00000000000E+00  0.00000000000E+00 -0.39066487954E+03  0.40141925551E+03  0.92295019314E+02 0.  0.
        -11    1    3    3    0    0 -0.40335354915E+02 -0.22291993046E+02 -0.20573340903E+03  0.21083194587E+03  0.00000000000E+00 0. -1.
         11    1    3    3    0    0  0.40335354915E+02  0.22291993046E+02 -0.18493147051E+03  0.19058730964E+03  0.00000000000E+00 0.  1.
<mgrwt>
<rscale>  0 0.92295019E+02</rscale>
<asrwt>0</asrwt>
<pdfrwt beam="2">  1        2 0.60929543E-01 0.92295019E+02</pdfrwt>
<pdfrwt beam="1">  1       -2 0.82725977E-03 0.92295019E+02</pdfrwt>
<totfact> 0.19257320E+05</totfact>
</mgrwt>
</event>
<event>
 5    1  0.1227473E+001  0.8892563E+02  0.7546771E-02  0.1305474E+00
         -2   -1    0    0    0  501 -0.00000000000E+00  0.00000000000E+00  0.55031404742E+01  0.55031404742E+01  0.00000000000E+00 0.  1.
          2   -1    0    0  501    0  0.00000000000E+00 -0.00000000000E+00 -0.35923882677E+03  0.35923882677E+03  0.00000000000E+00 0. -1.
         23    2    1    2    0    0  0.00000000000E+00  0.00000000000E+00 -0.35373568629E+03  0.36474196724E+03  0.88925625722E+02 0.  0.
        -11    1    3    3    0    0  0.31670625308E+02 -0.30723613837E+02 -0.15441236702E+03  0.16059311332E+03  0.00000000000E+00 0.  1.
         11    1    3    3    0    0 -0.31670625308E+02  0.30723613837E+02 -0.19932331927E+03  0.20414885393E+03  0.00000000000E+00 0. -1.
<mgrwt>
<rscale>  0 0.88925626E+02</rscale>
<asrwt>0</asrwt>
<pdfrwt beam="2">  1        2 0.55267514E-01 0.88925626E+02</pdfrwt>
<pdfrwt beam="1">  1       -2 0.84663696E-03 0.88925626E+02</pdfrwt>
<totfact> 0.20519030E+05</totfact>
</mgrwt>
</event>
<event>
 5    1  0.1227473E+001  0.9299783E+02  0.7546771E-02  0.1295750E+00
         -3   -1    0    0    0  501 -0.00000000000E+00  0.00000000000E+00  0.40758792909E+02  0.40758792909E+02  0.00000000000E+00 0.  1.
          3   -1    0    0  501    0  0.00000000000E+00 -0.00000000000E+00 -0.53047430253E+02  0.53047430253E+02  0.00000000000E+00 0. -1.
         23    2    1    2    0    0  0.00000000000E+00  0.00000000000E+00 -0.12288637344E+02  0.93806223161E+02  0.92997832749E+02 0.  0.
        -11    1    3    3    0    0  0.40256554489E+01  0.26181428709E+02  0.32404054277E+02  0.41853265639E+02  0.00000000000E+00 0.  1.
         11    1    3    3    0    0 -0.40256554489E+01 -0.26181428709E+02 -0.44692691621E+02  0.51952957523E+02  0.00000000000E+00 0. -1.
<mgrwt>
<rscale>  0 0.92997833E+02</rscale>
<asrwt>0</asrwt>
<pdfrwt beam="2">  1        3 0.81611431E-02 0.92997833E+02</pdfrwt>
<pdfrwt beam="1">  1       -3 0.62705835E-02 0.92997833E+02</pdfrwt>
<totfact> 0.33290102E+04</totfact>
</mgrwt>
</event>
<event>
 5    1  0.1227473E+001  0.9113797E+02  0.7546771E-02  0.1300119E+00
          1   -1    0    0  501    0  0.00000000000E+00  0.00000000000E+00  0.27854541500E+02  0.27854541500E+02  0.00000000000E+00 0. -1.
         -1   -1    0    0    0  501 -0.00000000000E+00 -0.00000000000E+00 -0.74549153344E+02  0.74549153344E+02  0.00000000000E+00 0.  1.
         23    2    1    2    0    0  0.00000000000E+00  0.00000000000E+00 -0.46694611844E+02  0.10240369484E+03  0.91137972012E+02 0.  0.
        -13    1    3    3    0    0  0.11495941967E+02 -0.30300759420E+02 -0.59342182550E+02  0.67614993403E+02  0.00000000000E+00 0.  1.
         13    1    3    3    0    0 -0.11495941967E+02  0.30300759420E+02  0.12647570706E+02  0.34788701441E+02  0.00000000000E+00 0. -1.
<mgrwt>
<rscale>  0 0.91137972E+02</rscale>
<asrwt>0</asrwt>
<pdfrwt beam="1">  1        1 0.42853141E-02 0.91137972E+02</pdfrwt>
<pdfrwt beam="2">  1       -1 0.11469100E-01 0.91137972E+02</pdfrwt>
<totfact> 0.85747503E+04</totfact>
</mgrwt>
</event>
<event>
 5    1  0.1227473E+001  0.9298992E+02  0.7546771E-02  0.1295769E+00
          1   -1    0    0  501    0  0.00000000000E+00  0.00000000000E+00  0.14627875299E+03  0.14627875299E+03  0.00000000000E+00 0. -1.
         -1   -1    0    0    0  501 -0.00000000000E+00 -0.00000000000E+00 -0.14778504765E+02  0.14778504765E+02  0.00000000000E+00 0.  1.
         23    2    1    2    0    0  0.00000000000E+00  0.00000000000E+00  0.13150024823E+03  0.16105725776E+03  0.92989918767E+02 0.  0.
        -11    1    3    3    0    0 -0.35149704924E+02 -0.26489169290E+02  0.39793237668E+02  0.59335315033E+02  0.00000000000E+00 0.  1.
         11    1    3    3    0    0  0.35149704924E+02  0.26489169290E+02  0.91707010557E+02  0.10172194272E+03  0.00000000000E+00 0. -1.
<mgrwt>
<rscale>  0 0.92989919E+02</rscale>
<asrwt>0</asrwt>
<pdfrwt beam="1">  1        1 0.22504423E-01 0.92989919E+02</pdfrwt>
<pdfrwt beam="2">  1       -1 0.22736162E-02 0.92989919E+02</pdfrwt>
<totfact> 0.10582867E+05</totfact>
</mgrwt>
</event>
<event>
 5    1  0.1227473E+001  0.9094831E+02  0.7546771E-02  0.1300571E+00
          4   -1    0    0  501    0  0.00000000000E+00  0.00000000000E+00  0.16915635344E+03  0.16915635344E+03  0.00000000000E+00 0. -1.
         -4   -1    0    0    0  501 -0.00000000000E+00 -0.00000000000E+00 -0.12224778270E+02  0.12224778270E+02  0.00000000000E+00 0.  1.
         23    2    1    2    0    0  0.00000000000E+00  0.00000000000E+00  0.15693157517E+03  0.18138113171E+03  0.90948313096E+02 0.  0.
        -13    1    3    3    0    0 -0.15021597061E+01  0.38112250168E+02  0.29084467193E+02  0.47965678652E+02  0.00000000000E+00 0.  1.
         13    1    3    3    0    0  0.15021597061E+01 -0.38112250168E+02  0.12784710798E+03  0.13341545306E+03  0.00000000000E+00 0. -1.
<mgrwt>
<rscale>  0 0.90948313E+02</rscale>
<asrwt>0</asrwt>
<pdfrwt beam="1">  1        4 0.26024053E-01 0.90948313E+02</pdfrwt>
<pdfrwt beam="2">  1       -4 0.18807352E-02 0.90948313E+02</pdfrwt>
<totfact> 0.22339492E+04</totfact>
</mgrwt>
</event>
<event>
 5    1  0.1227473E+001  0.9029519E+02  0.7546771E-02  0.1302138E+00
          2   -1    0    0  501    0  0.00000000000E+00  0.00000000000E+00  0.64346165754E+02  0.64346165754E+02  0.00000000000E+00 0. -1.
         -2   -1    0    0    0  501 -0.00000000000E+00 -0.00000000000E+00 -0.31677186391E+02  0.31677186391E+02  0.00000000000E+00 0.  1.
         23    2    1    2    0    0  0.00000000000E+00  0.00000000000E+00  0.32668979363E+02  0.96023352145E+02  0.90295193364E+02 0.  0.
        -11    1    3    3    0    0 -0.42347213592E+02  0.11124375799E+02  0.46237589393E+01  0.44027461687E+02  0.00000000000E+00 0.  1.
         11    1    3    3    0    0  0.42347213592E+02 -0.11124375799E+02  0.28045220423E+02  0.51995890458E+02  0.00000000000E+00 0. -1.
<mgrwt>
<rscale>  0 0.90295193E+02</rscale>
<asrwt>0</asrwt>
<pdfrwt beam="1">  1        2 0.98994101E-02 0.90295193E+02</pdfrwt>
<pdfrwt beam="2">  1       -2 0.48734133E-02 0.90295193E+02</pdfrwt>
<totfact> 0.11107924E+05</totfact>
</mgrwt>
</event>
<event>
 5    1  0.1227473E+001  0.9755570E+02  0.7546771E-02  0.1285522E+00
          3   -1    0    0  501    0  0.00000000000E+00  0.00000000000E+00  0.77396279760E+02  0.77396279760E+02  0.00000000000E+00 0. -1.
         -3   -1    0    0    0  501 -0.00000000000E+00 -0.00000000000E+00 -0.30741510430E+02  0.30741510430E+02  0.00000000000E+00 0.  1.
         23    2    1    2    0    0  0.00000000000E+00  0.00000000000E+00  0.46654769329E+02  0.10813779019E+03  0.97555697763E+02 0.  0.
        -11    1    3    3    0    0  0.24980439138E+02  0.14130230342E+02 -0.20391876307E+02  0.35206737543E+02  0.00000000000E+00 0.  1.
         11    1    3    3    0    0 -0.24980439138E+02 -0.14130230342E+02  0.67046645637E+02  0.72931052647E+02  0.00000000000E+00 0. -1.
<mgrwt>
<rscale>  0 0.97555698E+02</rscale>
<asrwt>0</asrwt>
<pdfrwt beam="1">  1        3 0.11907120E-01 0.97555698E+02</pdfrwt>
<pdfrwt beam="2">  1       -3 0.47294632E-02 0.97555698E+02</pdfrwt>
<totfact> 0.28325926E+04</totfact>
</mgrwt>
</event>
<event>
 5    1  0.1227473E+001  0.9165919E+02  0.7546771E-02  0.1298883E+00
         -1   -1    0    0    0  501 -0.00000000000E+00  0.00000000000E+00  0.64997515787E+02  0.64997515787E+02  0.00000000000E+00 0.  1.
          1   -1    0    0  501    0  0.00000000000E+00 -0.00000000000E+00 -0.32314341857E+02  0.32314341857E+02  0.00000000000E+00 0. -1.
         23    2    1    2    0    0  0.00000000000E+00  0.00000000000E+00  0.32683173930E+02  0.97311857644E+02  0.91659193647E+02 0.  0.
        -11    1    3    3    0    0  0.42135950954E+02  0.46776005465E+01 -0.21398250377E+01  0.42448759238E+02  0.00000000000E+00 0.  1.
         11    1    3    3    0    0 -0.42135950954E+02 -0.46776005465E+01  0.34822998967E+02  0.54863098406E+02  0.00000000000E+00 0. -1.
<mgrwt>
<rscale>  0 0.91659194E+02</rscale>
<asrwt>0</asrwt>
<pdfrwt beam="2">  1        1 0.49714372E-02 0.91659194E+02</pdfrwt>
<pdfrwt beam="1">  1       -1 0.99996178E-02 0.91659194E+02</pdfrwt>
<totfact> 0.86404420E+04</totfact>
</mgrwt>
</event>
<event>
 5    1  0.1227473E+001  0.9335416E+02  0.7546771E-02  0.1294927E+00
          1   -1    0    0  501    0  0.00000000000E+00  0.00000000000E+00  0.22917084996E+03  0.22917084996E+03  0.00000000000E+00 0. -1.
         -1   -1    0    0    0  501 -0.00000000000E+00 -0.00000000000E+00 -0.95070974006E+01  0.95070974006E+01  0.00000000000E+00 0.  1.
         23    2    1    2    0    0  0.00000000000E+00  0.00000000000E+00  0.21966375256E+03  0.23867794736E+03  0.93354155601E+02 0.  0.
        -11    1    3    3    0    0  0.45166317477E+02 -0.93920135112E+01  0.91655343816E+02  0.10261046829E+03  0.00000000000E+00 0. -1.
         11    1    3    3    0    0 -0.45166317477E+02  0.93920135112E+01  0.12800840875E+03  0.13606747908E+03  0.00000000000E+00 0.  1.
<mgrwt>
<rscale>  0 0.93354156E+02</rscale>
<asrwt>0</asrwt>
<pdfrwt beam="1">  1        1 0.35257050E-01 0.93354156E+02</pdfrwt>
<pdfrwt beam="2">  1       -1 0.14626305E-02 0.93354156E+02</pdfrwt>
<totfact> 0.11413507E+05</totfact>
</mgrwt>
</event>
<event>
 5    1  0.1227473E+001  0.1085711E+03  0.7546771E-02  0.1263239E+00
         -3   -1    0    0    0  501 -0.00000000000E+00  0.00000000000E+00  0.32047806319E+02  0.32047806319E+02  0.00000000000E+00 0.  1.
          3   -1    0    0  501    0  0.00000000000E+00 -0.00000000000E+00 -0.91953900067E+02  0.91953900067E+02  0.00000000000E+00 0. -1.
         23    2    1    2    0    0  0.00000000000E+00  0.00000000000E+00 -0.59906093748E+02  0.12400170639E+03  0.10857109707E+03 0.  0.
        -13    1    3    3    0    0  0.32395795590E+02  0.17838536269E+02  0.15434293013E+02  0.40073911076E+02  0.00000000000E+00 0.  1.
         13    1    3    3    0    0 -0.32395795590E+02 -0.17838536269E+02 -0.75340386761E+02  0.83927795309E+02  0.00000000000E+00 0. -1.
<mgrwt>
<rscale>  0 0.10857110E+03</rscale>
<asrwt>0</asrwt>
<pdfrwt beam="2">  1        3 0.14146754E-01 0.10857110E+03</pdfrwt>
<pdfrwt beam="1">  1       -3 0.49304317E-02 0.10857110E+03</pdfrwt>
<totfact> 0.20419610E+04</totfact>
</mgrwt>
</event>
<event>
 5    1  0.1227473E+001  0.6729889E+02  0.7546771E-02  0.1369527E+00
         -2   -1    0    0    0  501 -0.00000000000E+00  0.00000000000E+00  0.10417015296E+03  0.10417015296E+03  0.00000000000E+00 0.  1.
          2   -1    0    0  501    0  0.00000000000E+00 -0.00000000000E+00 -0.10869572362E+02  0.10869572362E+02  0.00000000000E+00 0. -1.
         23    2    1    2    0    0  0.00000000000E+00  0.00000000000E+00  0.93300580596E+02  0.11503972532E+03  0.67298886041E+02 0.  0.
        -13    1    3    3    0    0 -0.25326262433E+02 -0.21584437292E+02  0.55193372053E+02  0.64448551734E+02  0.00000000000E+00 0. -1.
         13    1    3    3    0    0  0.25326262433E+02  0.21584437292E+02  0.38107208544E+02  0.50591173588E+02  0.00000000000E+00 0.  1.
<mgrwt>
<rscale>  0 0.67298886E+02</rscale>
<asrwt>0</asrwt>
<pdfrwt beam="2">  1        2 0.16722420E-02 0.67298886E+02</pdfrwt>
<pdfrwt beam="1">  1       -2 0.16026177E-01 0.67298886E+02</pdfrwt>
<totfact> 0.16795747E+05</totfact>
</mgrwt>
</event>
<event>
 5    1  0.1227473E+001  0.9091322E+02  0.7546771E-02  0.1300655E+00
          1   -1    0    0  501    0  0.00000000000E+00  0.00000000000E+00  0.15472242830E+02  0.15472242830E+02  0.00000000000E+00 0. -1.
         -1   -1    0    0    0  501 -0.00000000000E+00 -0.00000000000E+00 -0.13354904666E+03  0.13354904666E+03  0.00000000000E+00 0.  1.
         23    2    1    2    0    0  0.00000000000E+00  0.00000000000E+00 -0.11807680383E+03  0.14902128949E+03  0.90913217514E+02 0.  0.
        -11    1    3    3    0    0 -0.92962970381E+01  0.31871188242E+02 -0.10993449784E+03  0.11483809295E+03  0.00000000000E+00 0.  1.
         11    1    3    3    0    0  0.92962970381E+01 -0.31871188242E+02 -0.81423059925E+01  0.34183196536E+02  0.00000000000E+00 0. -1.
<mgrwt>
<rscale>  0 0.90913218E+02</rscale>
<asrwt>0</asrwt>
<pdfrwt beam="1">  1        1 0.23803450E-02 0.90913218E+02</pdfrwt>
<pdfrwt beam="2">  1       -1 0.20546008E-01 0.90913218E+02</pdfrwt>
<totfact> 0.77354536E+04</totfact>
</mgrwt>
</event>
<event>
 5    1  0.1227473E+001  0.8823811E+02  0.7546771E-02  0.1307175E+00
         -2   -1    0    0    0  501 -0.00000000000E+00  0.00000000000E+00  0.78778976220E+01  0.78778976220E+01  0.00000000000E+00 0.  1.
          2   -1    0    0  501    0  0.00000000000E+00 -0.00000000000E+00 -0.24708254482E+03  0.24708254482E+03  0.00000000000E+00 0. -1.
         23    2    1    2    0    0  0.00000000000E+00  0.00000000000E+00 -0.23920464720E+03  0.25496044244E+03  0.88238109506E+02 0.  0.
        -11    1    3    3    0    0 -0.20782937537E+02 -0.34077541123E+02 -0.65292652296E+02  0.76526725694E+02  0.00000000000E+00 0.  1.
         11    1    3    3    0    0  0.20782937537E+02  0.34077541123E+02 -0.17391199490E+03  0.17843371675E+03  0.00000000000E+00 0. -1.
<mgrwt>
<rscale>  0 0.88238110E+02</rscale>
<asrwt>0</asrwt>
<pdfrwt beam="2">  1        2 0.38012701E-01 0.88238110E+02</pdfrwt>
<pdfrwt beam="1">  1       -2 0.12119842E-02 0.88238110E+02</pdfrwt>
<totfact> 0.18242397E+05</totfact>
</mgrwt>
</event>
<event>
 5    1  0.1227473E+001  0.9050080E+02  0.7546771E-02  0.1301643E+00
         -4   -1    0    0    0  501 -0.00000000000E+00  0.00000000000E+00  0.31357197104E+02  0.31357197104E+02  0.00000000000E+00 0.  1.
          4   -1    0    0  501    0  0.00000000000E+00 -0.00000000000E+00 -0.65299155693E+02  0.65299155693E+02  0.00000000000E+00 0. -1.
         23    2    1    2    0    0  0.00000000000E+00  0.00000000000E+00 -0.33941958588E+02  0.96656352797E+02  0.90500795484E+02 0.  0.
        -11    1    3    3    0    0 -0.18792303891E+02  0.37046001267E+02  0.21951315326E+01  0.41597782367E+02  0.00000000000E+00 0.  1.
         11    1    3    3    0    0  0.18792303891E+02 -0.37046001267E+02 -0.36137090121E+02  0.55058570430E+02  0.00000000000E+00 0. -1.
<mgrwt>
<rscale>  0 0.90500795E+02</rscale>
<asrwt>0</asrwt>
<pdfrwt beam="2">  1        4 0.10046024E-01 0.90500795E+02</pdfrwt>
<pdfrwt beam="1">  1       -4 0.48241842E-02 0.90500795E+02</pdfrwt>
<totfact> 0.27209619E+04</totfact>
</mgrwt>
</event>
<event>
 5    1  0.1227473E+001  0.9051928E+02  0.7546771E-02  0.1301599E+00
          2   -1    0    0  501    0  0.00000000000E+00  0.00000000000E+00  0.24756109587E+03  0.24756109587E+03  0.00000000000E+00 0. -1.
         -2   -1    0    0    0  501 -0.00000000000E+00 -0.00000000000E+00 -0.82744617251E+01  0.82744617251E+01  0.00000000000E+00 0.  1.
         23    2    1    2    0    0  0.00000000000E+00  0.00000000000E+00  0.23928663415E+03  0.25583555760E+03  0.90519275570E+02 0.  0.
        -13    1    3    3    0    0 -0.69463702706E+01  0.44275216264E+02  0.13749342483E+03  0.14461323835E+03  0.00000000000E+00 0. -1.
         13    1    3    3    0    0  0.69463702706E+01 -0.44275216264E+02  0.10179320932E+03  0.11122231924E+03  0.00000000000E+00 0.  1.
<mgrwt>
<rscale>  0 0.90519276E+02</rscale>
<asrwt>0</asrwt>
<pdfrwt beam="1">  1        2 0.38086317E-01 0.90519276E+02</pdfrwt>
<pdfrwt beam="2">  1       -2 0.12729943E-02 0.90519276E+02</pdfrwt>
<totfact> 0.17052430E+05</totfact>
</mgrwt>
</event>
<event>
 5    1  0.1227473E+001  0.9210773E+02  0.7546771E-02  0.1297826E+00
          1   -1    0    0  501    0  0.00000000000E+00  0.00000000000E+00  0.88695895244E+02  0.88695895244E+02  0.00000000000E+00 0. -1.
         -1   -1    0    0    0  501 -0.00000000000E+00 -0.00000000000E+00 -0.23912700802E+02  0.23912700802E+02  0.00000000000E+00 0.  1.
         23    2    1    2    0    0  0.00000000000E+00  0.00000000000E+00  0.64783194442E+02  0.11260859605E+03  0.92107728348E+02 0.  0.
        -13    1    3    3    0    0  0.37545858776E+02  0.26292758431E+02  0.26929854457E+02  0.53162183159E+02  0.00000000000E+00 0.  1.
         13    1    3    3    0    0 -0.37545858776E+02 -0.26292758431E+02  0.37853339985E+02  0.59446412888E+02  0.00000000000E+00 0. -1.
<mgrwt>
<rscale>  0 0.92107728E+02</rscale>
<asrwt>0</asrwt>
<pdfrwt beam="1">  1        1 0.13645522E-01 0.92107728E+02</pdfrwt>
<pdfrwt beam="2">  1       -1 0.36788771E-02 0.92107728E+02</pdfrwt>
<totfact> 0.99606548E+04</totfact>
</mgrwt>
</event>
<event>
 5    1  0.1227473E+001  0.8987321E+02  0.7546771E-02  0.1303159E+00
         -1   -1    0    0    0  501 -0.00000000000E+00  0.00000000000E+00  0.42841779848E+02  0.42841779848E+02  0.00000000000E+00 0.  1.
          1   -1    0    0  501    0  0.00000000000E+00 -0.00000000000E+00 -0.47133864980E+02  0.47133864980E+02  0.00000000000E+00 0. -1.
         23    2    1    2    0    0  0.00000000000E+00  0.00000000000E+00 -0.42920851317E+01  0.89975644827E+02  0.89873214404E+02 0.  0.
        -13    1    3    3    0    0 -0.44372922946E+02  0.28419888158E+01 -0.86546424346E+01  0.45298300486E+02  0.00000000000E+00 0.  1.
         13    1    3    3    0    0  0.44372922946E+02 -0.28419888158E+01  0.43625573029E+01  0.44677344342E+02  0.00000000000E+00 0. -1.
<mgrwt>
<rscale>  0 0.89873214E+02</rscale>
<asrwt>0</asrwt>
<pdfrwt beam="2">  1        1 0.72513638E-02 0.89873214E+02</pdfrwt>
<pdfrwt beam="1">  1       -1 0.65910431E-02 0.89873214E+02</pdfrwt>
<totfact> 0.96756757E+04</totfact>
</mgrwt>
</event>
<event>
 5    1  0.1227473E+001  0.9045883E+02  0.7546771E-02  0.1301744E+00
          2   -1    0    0  501    0  0.00000000000E+00  0.00000000000E+00  0.12506114281E+03  0.12506114281E+03  0.00000000000E+00 0. -1.
         -2   -1    0    0    0  501 -0.00000000000E+00 -0.00000000000E+00 -0.16357598530E+02  0.16357598530E+02  0.00000000000E+00 0.  1.
         23    2    1    2    0    0  0.00000000000E+00  0.00000000000E+00  0.10870354428E+03  0.14141874134E+03  0.90458829658E+02 0.  0.
        -13    1    3    3    0    0 -0.43510546347E+02  0.70737090298E+01  0.38524456468E+02  0.58543477424E+02  0.00000000000E+00 0.  1.
         13    1    3    3    0    0  0.43510546347E+02 -0.70737090298E+01  0.70179087812E+02  0.82875263915E+02  0.00000000000E+00 0. -1.
<mgrwt>
<rscale>  0 0.90458830E+02</rscale>
<asrwt>0</asrwt>
<pdfrwt beam="1">  1        2 0.19240175E-01 0.90458830E+02</pdfrwt>
<pdfrwt beam="2">  1       -2 0.25165537E-02 0.90458830E+02</pdfrwt>
<totfact> 0.13447460E+05</totfact>
</mgrwt>
</event>
<event>
 5    1  0.1227473E+001  0.9045605E+02  0.7546771E-02  0.1301751E+00
         -3   -1    0    0    0  501 -0.00000000000E+00  0.00000000000E+00  0.14555982821E+02  0.14555982821E+02  0.00000000000E+00 0.  1.
          3   -1    0    0  501    0  0.00000000000E+00 -0.00000000000E+00 -0.14053150246E+03  0.14053150246E+03  0.00000000000E+00 0. -1.
         23    2    1    2    0    0  0.00000000000E+00  0.00000000000E+00 -0.12597551964E+03  0.15508748528E+03  0.90456047573E+02 0.  0.
        -13    1    3    3    0    0  0.37701833258E+02 -0.18164573315E+02 -0.92395129801E+02  0.10143096157E+03  0.00000000000E+00 0.  1.
         13    1    3    3    0    0 -0.37701833258E+02  0.18164573315E+02 -0.33580389837E+02  0.53656523707E+02  0.00000000000E+00 0. -1.
<mgrwt>
<rscale>  0 0.90456048E+02</rscale>
<asrwt>0</asrwt>
<pdfrwt beam="2">  1        3 0.21620232E-01 0.90456048E+02</pdfrwt>
<pdfrwt beam="1">  1       -3 0.22393818E-02 0.90456048E+02</pdfrwt>
<totfact> 0.31670842E+04</totfact>
</mgrwt>
</event>
<event>
 5    1  0.1227473E+001  0.9073236E+02  0.7546771E-02  0.1301088E+00
         -4   -1    0    0    0  501 -0.00000000000E+00  0.00000000000E+00  0.38065871774E+02  0.38065871774E+02  0.00000000000E+00 0.  1.
          4   -1    0    0  501    0  0.00000000000E+00 -0.00000000000E+00 -0.54066542300E+02  0.54066542300E+02  0.00000000000E+00 0. -1.
         23    2    1    2    0    0  0.00000000000E+00  0.00000000000E+00 -0.16000670526E+02  0.92132414074E+02  0.90732355121E+02 0.  0.
        -11    1    3    3    0    0  0.10721949791E+02  0.89642492237E+01 -0.51826163124E+02  0.53677454817E+02  0.00000000000E+00 0. -1.
         11    1    3    3    0    0 -0.10721949791E+02 -0.89642492237E+01  0.35825492599E+02  0.38454959256E+02  0.00000000000E+00 0.  1.
<mgrwt>
<rscale>  0 0.90732355E+02</rscale>
<asrwt>0</asrwt>
<pdfrwt beam="2">  1        4 0.83179296E-02 0.90732355E+02</pdfrwt>
<pdfrwt beam="1">  1       -4 0.58562880E-02 0.90732355E+02</pdfrwt>
<totfact> 0.27314519E+04</totfact>
</mgrwt>
</event>
<event>
 5    1  0.1227473E+001  0.8941494E+02  0.7546771E-02  0.1304275E+00
         -3   -1    0    0    0  501 -0.00000000000E+00  0.00000000000E+00  0.19511374087E+03  0.19511374087E+03  0.00000000000E+00 0.  1.
          3   -1    0    0  501    0  0.00000000000E+00 -0.00000000000E+00 -0.10244065326E+02  0.10244065326E+02  0.00000000000E+00 0. -1.
         23    2    1    2    0    0  0.00000000000E+00  0.00000000000E+00  0.18486967554E+03  0.20535780620E+03  0.89414940751E+02 0.  0.
        -13    1    3    3    0    0 -0.16580632372E+02 -0.30971554288E+02  0.15594149080E+03  0.15984962652E+03  0.00000000000E+00 0.  1.
         13    1    3    3    0    0  0.16580632372E+02  0.30971554288E+02  0.28928184741E+02  0.45508179675E+02  0.00000000000E+00 0. -1.
<mgrwt>
<rscale>  0 0.89414941E+02</rscale>
<asrwt>0</asrwt>
<pdfrwt beam="2">  1        3 0.15760102E-02 0.89414941E+02</pdfrwt>
<pdfrwt beam="1">  1       -3 0.30017496E-01 0.89414941E+02</pdfrwt>
<totfact> 0.29743578E+04</totfact>
</mgrwt>
</event>
<event>
 5    1  0.1227473E+001  0.9104441E+02  0.7546771E-02  0.1300342E+00
         -1   -1    0    0    0  501 -0.00000000000E+00  0.00000000000E+00  0.18889986459E+02  0.18889986459E+02  0.00000000000E+00 0.  1.
          1   -1    0    0  501    0  0.00000000000E+00 -0.00000000000E+00 -0.10970209252E+03  0.10970209252E+03  0.00000000000E+00 0. -1.
         23    2    1    2    0    0  0.00000000000E+00  0.00000000000E+00 -0.90812106061E+02  0.12859207898E+03  0.91044407676E+02 0.  0.
        -13    1    3    3    0    0 -0.23570125169E+02 -0.35876293817E+02 -0.66808233858E+02  0.79410322816E+02  0.00000000000E+00 0. -1.
         13    1    3    3    0    0  0.23570125169E+02  0.35876293817E+02 -0.24003872203E+02  0.49181756163E+02  0.00000000000E+00 0.  1.
<mgrwt>
<rscale>  0 0.91044408E+02</rscale>
<asrwt>0</asrwt>
<pdfrwt beam="2">  1        1 0.16877245E-01 0.91044408E+02</pdfrwt>
<pdfrwt beam="1">  1       -1 0.29061518E-02 0.91044408E+02</pdfrwt>
<totfact> 0.10651129E+05</totfact>
</mgrwt>
</event>
<event>
 5    1  0.1227473E+001  0.9245782E+02  0.7546771E-02  0.1297007E+00
         -1   -1    0    0    0  501 -0.00000000000E+00  0.00000000000E+00  0.23278612951E+02  0.23278612951E+02  0.00000000000E+00 0.  1.
          1   -1    0    0  501    0  0.00000000000E+00 -0.00000000000E+00 -0.91805816556E+02  0.91805816556E+02  0.00000000000E+00 0. -1.
         23    2    1    2    0    0  0.00000000000E+00  0.00000000000E+00 -0.68527203605E+02  0.11508442951E+03  0.92457818928E+02 0.  0.
        -13    1    3    3    0    0 -0.28118064578E+02  0.34104353435E+02 -0.51119365151E+02  0.67579005411E+02  0.00000000000E+00 0. -1.
         13    1    3    3    0    0  0.28118064578E+02 -0.34104353435E+02 -0.17407838454E+02  0.47505424096E+02  0.00000000000E+00 0.  1.
<mgrwt>
<rscale>  0 0.92457819E+02</rscale>
<asrwt>0</asrwt>
<pdfrwt beam="2">  1        1 0.14123972E-01 0.92457819E+02</pdfrwt>
<pdfrwt beam="1">  1       -1 0.35813251E-02 0.92457819E+02</pdfrwt>
<totfact> 0.99132340E+04</totfact>
</mgrwt>
</event>
<event>
 5    1  0.1227473E+001  0.9133351E+02  0.7546771E-02  0.1299654E+00
         -3   -1    0    0    0  501 -0.00000000000E+00  0.00000000000E+00  0.24791642029E+03  0.24791642029E+03  0.00000000000E+00 0.  1.
          3   -1    0    0  501    0  0.00000000000E+00 -0.00000000000E+00 -0.84119184152E+01  0.84119184152E+01  0.00000000000E+00 0. -1.
         23    2    1    2    0    0  0.00000000000E+00  0.00000000000E+00  0.23950450188E+03  0.25632833871E+03  0.91333514140E+02 0.  0.
        -13    1    3    3    0    0  0.23386032607E+02  0.30333881700E+02  0.18954363770E+03  0.19337487296E+03  0.00000000000E+00 0.  1.
         13    1    3    3    0    0 -0.23386032607E+02 -0.30333881700E+02  0.49960864174E+02  0.62953465743E+02  0.00000000000E+00 0. -1.
<mgrwt>
<rscale>  0 0.91333514E+02</rscale>
<asrwt>0</asrwt>
<pdfrwt beam="2">  1        3 0.12941415E-02 0.91333514E+02</pdfrwt>
<pdfrwt beam="1">  1       -3 0.38140982E-01 0.91333514E+02</pdfrwt>
<totfact> 0.25701433E+04</totfact>
</mgrwt>
</event>
<event>
 5    1  0.1227473E+001  0.8873232E+02  0.7546771E-02  0.1305951E+00
         -2   -1    0    0    0  501 -0.00000000000E+00  0.00000000000E+00  0.10066295276E+02  0.10066295276E+02  0.00000000000E+00 0.  1.
          2   -1    0    0  501    0  0.00000000000E+00 -0.00000000000E+00 -0.19553926252E+03  0.19553926252E+03  0.00000000000E+00 0. -1.
         23    2    1    2    0    0  0.00000000000E+00  0.00000000000E+00 -0.18547296724E+03  0.20560555780E+03  0.88732315524E+02 0.  0.
        -13    1    3    3    0    0  0.11243007164E+02 -0.33321224720E+02 -0.15541284161E+03  0.15934196109E+03  0.00000000000E+00 0. -1.
         13    1    3    3    0    0 -0.11243007164E+02  0.33321224720E+02 -0.30060125634E+02  0.46263596705E+02  0.00000000000E+00 0.  1.
<mgrwt>
<rscale>  0 0.88732316E+02</rscale>
<asrwt>0</asrwt>
<pdfrwt beam="2">  1        2 0.30082963E-01 0.88732316E+02</pdfrwt>
<pdfrwt beam="1">  1       -2 0.15486608E-02 0.88732316E+02</pdfrwt>
<totfact> 0.16505138E+05</totfact>
</mgrwt>
</event>
<event>
 5    1  0.1227473E+001  0.9355335E+02  0.7546771E-02  0.1294468E+00
         -1   -1    0    0    0  501 -0.00000000000E+00  0.00000000000E+00  0.61532068851E+01  0.61532068851E+01  0.00000000000E+00 0.  1.
          1   -1    0    0  501    0  0.00000000000E+00 -0.00000000000E+00 -0.35559627130E+03  0.35559627130E+03  0.00000000000E+00 0. -1.
         23    2    1    2    0    0  0.00000000000E+00  0.00000000000E+00 -0.34944306442E+03  0.36174947819E+03  0.93553352155E+02 0.  0.
        -11    1    3    3    0    0  0.42620952045E+02 -0.69216654258E+00 -0.24920410990E+03  0.25282348198E+03  0.00000000000E+00 0. -1.
         11    1    3    3    0    0 -0.42620952045E+02  0.69216654258E+00 -0.10023895451E+03  0.10892599621E+03  0.00000000000E+00 0.  1.
<mgrwt>
<rscale>  0 0.93553352E+02</rscale>
<asrwt>0</asrwt>
<pdfrwt beam="2">  1        1 0.54707125E-01 0.93553352E+02</pdfrwt>
<pdfrwt beam="1">  1       -1 0.94664710E-03 0.93553352E+02</pdfrwt>
<totfact> 0.12344762E+05</totfact>
</mgrwt>
</event>
<event>
 5    1  0.1227473E+001  0.9246815E+02  0.7546771E-02  0.1296982E+00
          4   -1    0    0  501    0  0.00000000000E+00  0.00000000000E+00  0.77989704642E+01  0.77989704642E+01  0.00000000000E+00 0. -1.
         -4   -1    0    0    0  501 -0.00000000000E+00 -0.00000000000E+00 -0.27408613762E+03  0.27408613762E+03  0.00000000000E+00 0.  1.
         23    2    1    2    0    0  0.00000000000E+00  0.00000000000E+00 -0.26628716716E+03  0.28188510808E+03  0.92468150018E+02 0.  0.
        -13    1    3    3    0    0 -0.14325352407E+02  0.35237112053E+02 -0.21326174041E+03  0.21662742142E+03  0.00000000000E+00 0.  1.
         13    1    3    3    0    0  0.14325352407E+02 -0.35237112053E+02 -0.53025426745E+02  0.65257686665E+02  0.00000000000E+00 0. -1.
<mgrwt>
<rscale>  0 0.92468150E+02</rscale>
<asrwt>0</asrwt>
<pdfrwt beam="1">  1        4 0.11998417E-02 0.92468150E+02</pdfrwt>
<pdfrwt beam="2">  1       -4 0.42167096E-01 0.92468150E+02</pdfrwt>
<totfact> 0.17710416E+04</totfact>
</mgrwt>
</event>
<event>
 5    1  0.1227473E+001  0.9006292E+02  0.7546771E-02  0.1302699E+00
         -2   -1    0    0    0  501 -0.00000000000E+00  0.00000000000E+00  0.11713590828E+03  0.11713590828E+03  0.00000000000E+00 0.  1.
          2   -1    0    0  501    0  0.00000000000E+00 -0.00000000000E+00 -0.17311789930E+02  0.17311789930E+02  0.00000000000E+00 0. -1.
         23    2    1    2    0    0  0.00000000000E+00  0.00000000000E+00  0.99824118346E+02  0.13444769820E+03  0.90062916614E+02 0.  0.
        -13    1    3    3    0    0 -0.25495755205E+02 -0.20112120215E+02  0.96484716808E+02  0.10180290512E+03  0.00000000000E+00 0.  1.
         13    1    3    3    0    0  0.25495755205E+02  0.20112120215E+02  0.33394015371E+01  0.32644793086E+02  0.00000000000E+00 0. -1.
<mgrwt>
<rscale>  0 0.90062917E+02</rscale>
<asrwt>0</asrwt>
<pdfrwt beam="2">  1        2 0.26633524E-02 0.90062917E+02</pdfrwt>
<pdfrwt beam="1">  1       -2 0.18020908E-01 0.90062917E+02</pdfrwt>
<totfact> 0.78381515E+04</totfact>
</mgrwt>
</event>
<event>
 5    1  0.1227473E+001  0.8886382E+02  0.7546771E-02  0.1305627E+00
         -1   -1    0    0    0  501 -0.00000000000E+00  0.00000000000E+00  0.27374847560E+02  0.27374847560E+02  0.00000000000E+00 0.  1.
          1   -1    0    0  501    0  0.00000000000E+00 -0.00000000000E+00 -0.72117099972E+02  0.72117099972E+02  0.00000000000E+00 0. -1.
         23    2    1    2    0    0  0.00000000000E+00  0.00000000000E+00 -0.44742252413E+02  0.99491947532E+02  0.88863819819E+02 0.  0.
        -13    1    3    3    0    0  0.39230791994E+01 -0.23732165897E+02  0.19454420409E+02  0.30936721255E+02  0.00000000000E+00 0.  1.
         13    1    3    3    0    0 -0.39230791994E+01  0.23732165897E+02 -0.64196672821E+02  0.68555226277E+02  0.00000000000E+00 0. -1.
<mgrwt>
<rscale>  0 0.88863820E+02</rscale>
<asrwt>0</asrwt>
<pdfrwt beam="2">  1        1 0.11094938E-01 0.88863820E+02</pdfrwt>
<pdfrwt beam="1">  1       -1 0.42115151E-02 0.88863820E+02</pdfrwt>
<totfact> 0.10637410E+05</totfact>
</mgrwt>
</event>
<event>
 5    1  0.1227473E+001  0.9101938E+02  0.7546771E-02  0.1300402E+00
          1   -1    0    0  501    0  0.00000000000E+00  0.00000000000E+00  0.11667406811E+02  0.11667406811E+02  0.00000000000E+00 0. -1.
         -1   -1    0    0    0  501 -0.00000000000E+00 -0.00000000000E+00 -0.17751434402E+03  0.17751434402E+03  0.00000000000E+00 0.  1.
         23    2    1    2    0    0  0.00000000000E+00  0.00000000000E+00 -0.16584693721E+03  0.18918175083E+03  0.91019384010E+02 0.  0.
        -11    1    3    3    0    0 -0.34359788424E+02  0.29841174381E+02 -0.82500983152E+02  0.94220501857E+02  0.00000000000E+00 0.  1.
         11    1    3    3    0    0  0.34359788424E+02 -0.29841174381E+02 -0.83345954054E+02  0.94961248971E+02  0.00000000000E+00 0. -1.
<mgrwt>
<rscale>  0 0.91019384E+02</rscale>
<asrwt>0</asrwt>
<pdfrwt beam="1">  1        1 0.17949857E-02 0.91019384E+02</pdfrwt>
<pdfrwt beam="2">  1       -1 0.27309898E-01 0.91019384E+02</pdfrwt>
<totfact> 0.72055756E+04</totfact>
</mgrwt>
</event>
<event>
 5    1  0.1227473E+001  0.9009261E+02  0.7546771E-02  0.1302628E+00
          2   -1    0    0  501    0  0.00000000000E+00  0.00000000000E+00  0.16640715307E+03  0.16640715307E+03  0.00000000000E+00 0. -1.
         -2   -1    0    0    0  501 -0.00000000000E+00 -0.00000000000E+00 -0.12194004363E+02  0.12194004363E+02  0.00000000000E+00 0.  1.
         23    2    1    2    0    0  0.00000000000E+00  0.00000000000E+00  0.15421314871E+03  0.17860115744E+03  0.90092609034E+02 0.  0.
        -11    1    3    3    0    0  0.15566798877E+02 -0.41638798694E+02  0.91546245729E+02  0.10176851129E+03  0.00000000000E+00 0.  1.
         11    1    3    3    0    0 -0.15566798877E+02  0.41638798694E+02  0.62666902981E+02  0.76832646142E+02  0.00000000000E+00 0. -1.
<mgrwt>
<rscale>  0 0.90092609E+02</rscale>
<asrwt>0</asrwt>
<pdfrwt beam="1">  1        2 0.25601099E-01 0.90092609E+02</pdfrwt>
<pdfrwt beam="2">  1       -2 0.18760008E-02 0.90092609E+02</pdfrwt>
<totfact> 0.14965450E+05</totfact>
</mgrwt>
</event>
<event>
 5    1  0.1227473E+001  0.9676661E+02  0.7546771E-02  0.1287246E+00
         -3   -1    0    0    0  501 -0.00000000000E+00  0.00000000000E+00  0.42705547288E+02  0.42705547288E+02  0.00000000000E+00 0.  1.
          3   -1    0    0  501    0  0.00000000000E+00 -0.00000000000E+00 -0.54815927491E+02  0.54815927491E+02  0.00000000000E+00 0. -1.
         23    2    1    2    0    0  0.00000000000E+00  0.00000000000E+00 -0.12110380203E+02  0.97521474779E+02  0.96766609605E+02 0.  0.
        -13    1    3    3    0    0 -0.16076920075E+02 -0.33576483764E+02  0.25090529996E+02  0.44893009662E+02  0.00000000000E+00 0.  1.
         13    1    3    3    0    0  0.16076920075E+02  0.33576483764E+02 -0.37200910198E+02  0.52628465118E+02  0.00000000000E+00 0. -1.
<mgrwt>
<rscale>  0 0.96766610E+02</rscale>
<asrwt>0</asrwt>
<pdfrwt beam="2">  1        3 0.84332196E-02 0.96766610E+02</pdfrwt>
<pdfrwt beam="1">  1       -3 0.65700842E-02 0.96766610E+02</pdfrwt>
<totfact> 0.29620270E+04</totfact>
</mgrwt>
</event>
<event>
 5    1  0.1227473E+001  0.9021243E+02  0.7546771E-02  0.1302338E+00
         -2   -1    0    0    0  501 -0.00000000000E+00  0.00000000000E+00  0.83532495741E+01  0.83532495741E+01  0.00000000000E+00 0.  1.
          2   -1    0    0  501    0  0.00000000000E+00 -0.00000000000E+00 -0.24356634152E+03  0.24356634152E+03  0.00000000000E+00 0. -1.
         23    2    1    2    0    0  0.00000000000E+00  0.00000000000E+00 -0.23521309195E+03  0.25191959109E+03  0.90212425720E+02 0.  0.
        -13    1    3    3    0    0  0.42730153405E+02  0.94231471543E+01 -0.14818538388E+03  0.15451074302E+03  0.00000000000E+00 0.  1.
         13    1    3    3    0    0 -0.42730153405E+02 -0.94231471543E+01 -0.87027708061E+02  0.97408848072E+02  0.00000000000E+00 0. -1.
<mgrwt>
<rscale>  0 0.90212426E+02</rscale>
<asrwt>0</asrwt>
<pdfrwt beam="2">  1        2 0.37471743E-01 0.90212426E+02</pdfrwt>
<pdfrwt beam="1">  1       -2 0.12851154E-02 0.90212426E+02</pdfrwt>
<totfact> 0.17104969E+05</totfact>
</mgrwt>
</event>
<event>
 5    1  0.1227473E+001  0.8589415E+02  0.7546771E-02  0.1313111E+00
          4   -1    0    0  501    0  0.00000000000E+00  0.00000000000E+00  0.10530282094E+03  0.10530282094E+03  0.00000000000E+00 0. -1.
         -4   -1    0    0    0  501 -0.00000000000E+00 -0.00000000000E+00 -0.17515685792E+02  0.17515685792E+02  0.00000000000E+00 0.  1.
         23    2    1    2    0    0  0.00000000000E+00  0.00000000000E+00  0.87787135146E+02  0.12281850673E+03  0.85894147055E+02 0.  0.
        -11    1    3    3    0    0  0.27577390329E+02  0.86999788130E+01 -0.15093905329E+01  0.28956525145E+02  0.00000000000E+00 0.  1.
         11    1    3    3    0    0 -0.27577390329E+02 -0.86999788130E+01  0.89296525679E+02  0.93861981585E+02  0.00000000000E+00 0. -1.
<mgrwt>
<rscale>  0 0.85894147E+02</rscale>
<asrwt>0</asrwt>
<pdfrwt beam="1">  1        4 0.16200434E-01 0.85894147E+02</pdfrwt>
<pdfrwt beam="2">  1       -4 0.26947210E-02 0.85894147E+02</pdfrwt>
<totfact> 0.29478478E+04</totfact>
</mgrwt>
</event>
<event>
 5    1  0.1227473E+001  0.6961300E+02  0.7546771E-02  0.1361414E+00
         -2   -1    0    0    0  501 -0.00000000000E+00  0.00000000000E+00  0.55884958202E+02  0.55884958202E+02  0.00000000000E+00 0. -1.
          2   -1    0    0  501    0  0.00000000000E+00 -0.00000000000E+00 -0.21678328614E+02  0.21678328614E+02  0.00000000000E+00 0.  1.
         23    2    1    2    0    0  0.00000000000E+00  0.00000000000E+00  0.34206629588E+02  0.77563286815E+02  0.69613001327E+02 0.  0.
        -13    1    3    3    0    0 -0.30545192158E+02  0.14369244651E+02  0.76483954913E+01  0.34611875265E+02  0.00000000000E+00 0.  1.
         13    1    3    3    0    0  0.30545192158E+02 -0.14369244651E+02  0.26558234097E+02  0.42951411550E+02  0.00000000000E+00 0. -1.
<mgrwt>
<rscale>  0 0.69613001E+02</rscale>
<asrwt>0</asrwt>
<pdfrwt beam="2">  1        2 0.33351275E-02 0.69613001E+02</pdfrwt>
<pdfrwt beam="1">  1       -2 0.85976858E-02 0.69613001E+02</pdfrwt>
<totfact> 0.17944256E+05</totfact>
</mgrwt>
</event>
<event>
 5    1  0.1227473E+001  0.7325573E+02  0.7546771E-02  0.1349359E+00
         -1   -1    0    0    0  501 -0.00000000000E+00  0.00000000000E+00  0.70829588312E+02  0.70829588312E+02  0.00000000000E+00 0.  1.
          1   -1    0    0  501    0  0.00000000000E+00 -0.00000000000E+00 -0.18941246227E+02  0.18941246227E+02  0.00000000000E+00 0. -1.
         23    2    1    2    0    0  0.00000000000E+00  0.00000000000E+00  0.51888342085E+02  0.89770834539E+02  0.73255734857E+02 0.  0.
        -13    1    3    3    0    0  0.56353908504E+01  0.18043313268E+02  0.64390367445E+02  0.67107661287E+02  0.00000000000E+00 0.  1.
         13    1    3    3    0    0 -0.56353908504E+01 -0.18043313268E+02 -0.12502025360E+02  0.22663173252E+02  0.00000000000E+00 0. -1.
<mgrwt>
<rscale>  0 0.73255735E+02</rscale>
<asrwt>0</asrwt>
<pdfrwt beam="2">  1        1 0.29140379E-02 0.73255735E+02</pdfrwt>
<pdfrwt beam="1">  1       -1 0.10896860E-01 0.73255735E+02</pdfrwt>
<totfact> 0.15065780E+05</totfact>
</mgrwt>
</event>
<event>
 5    1  0.1227473E+001  0.8880605E+02  0.7546771E-02  0.1305769E+00
         -1   -1    0    0    0  501 -0.00000000000E+00  0.00000000000E+00  0.76328539259E+01  0.76328539259E+01  0.00000000000E+00 0.  1.
          1   -1    0    0  501    0  0.00000000000E+00 -0.00000000000E+00 -0.25830816051E+03  0.25830816051E+03  0.00000000000E+00 0. -1.
         23    2    1    2    0    0  0.00000000000E+00  0.00000000000E+00 -0.25067530658E+03  0.26594101443E+03  0.88806046124E+02 0.  0.
        -11    1    3    3    0    0  0.44247280380E+02 -0.26874267023E+01 -0.11765342915E+03  0.12572737758E+03  0.00000000000E+00 0.  1.
         11    1    3    3    0    0 -0.44247280380E+02  0.26874267023E+01 -0.13302187744E+03  0.14021363685E+03  0.00000000000E+00 0. -1.
<mgrwt>
<rscale>  0 0.88806046E+02</rscale>
<asrwt>0</asrwt>
<pdfrwt beam="2">  1        1 0.39739716E-01 0.88806046E+02</pdfrwt>
<pdfrwt beam="1">  1       -1 0.11742853E-02 0.88806046E+02</pdfrwt>
<totfact> 0.13351294E+05</totfact>
</mgrwt>
</event>
<event>
 4    1  0.1227473E+001  0.4271541E+02  0.7546771E-02  0.1489130E+00
         -3   -1    0    0    0  501 -0.00000000000E+00  0.00000000000E+00  0.40740337579E+01  0.40740337579E+01  0.00000000000E+00 0. -1.
          3   -1    0    0  501    0  0.00000000000E+00 -0.00000000000E+00 -0.11196558740E+03  0.11196558740E+03  0.00000000000E+00 0.  1.
        -11    1    1    2    0    0 -0.91650856304E+01 -0.16014810362E+02 -0.83163629524E+02  0.85186044756E+02  0.00000000000E+00 0. -1.
         11    1    1    2    0    0  0.91650856304E+01  0.16014810362E+02 -0.24727924114E+02  0.30853576398E+02  0.00000000000E+00 0.  1.
<mgrwt>
<rscale>  0 0.42715411E+02</rscale>
<asrwt>0</asrwt>
<pdfrwt beam="2">  1        3 0.17225476E-01 0.42715411E+02</pdfrwt>
<pdfrwt beam="1">  1       -3 0.62677439E-03 0.42715411E+02</pdfrwt>
<totfact> 0.23784119E+05</totfact>
</mgrwt>
</event>
<event>
 5    1  0.1227473E+001  0.9118489E+02  0.7546771E-02  0.1300007E+00
         -1   -1    0    0    0  501 -0.00000000000E+00  0.00000000000E+00  0.27234652092E+02  0.27234652092E+02  0.00000000000E+00 0.  1.
          1   -1    0    0  501    0  0.00000000000E+00 -0.00000000000E+00 -0.76324490405E+02  0.76324490405E+02  0.00000000000E+00 0. -1.
         23    2    1    2    0    0  0.00000000000E+00  0.00000000000E+00 -0.49089838313E+02  0.10355914250E+03  0.91184887833E+02 0.  0.
        -13    1    3    3    0    0 -0.43932980640E+02  0.98009624102E+01 -0.16315539300E+02  0.47878622314E+02  0.00000000000E+00 0.  1.
         13    1    3    3    0    0  0.43932980640E+02 -0.98009624102E+01 -0.32774299013E+02  0.55680520183E+02  0.00000000000E+00 0. -1.
<mgrwt>
<rscale>  0 0.91184888E+02</rscale>
<asrwt>0</asrwt>
<pdfrwt beam="2">  1        1 0.11742229E-01 0.91184888E+02</pdfrwt>
<pdfrwt beam="1">  1       -1 0.41899465E-02 0.91184888E+02</pdfrwt>
<totfact> 0.99978181E+04</totfact>
</mgrwt>
</event>
<event>
 5    1  0.1227473E+001  0.9024879E+02  0.7546771E-02  0.1302250E+00
         -2   -1    0    0    0  501 -0.00000000000E+00  0.00000000000E+00  0.22922776131E+02  0.22922776131E+02  0.00000000000E+00 0.  1.
          2   -1    0    0  501    0  0.00000000000E+00 -0.00000000000E+00 -0.88829167039E+02  0.88829167039E+02  0.00000000000E+00 0. -1.
         23    2    1    2    0    0  0.00000000000E+00  0.00000000000E+00 -0.65906390908E+02  0.11175194317E+03  0.90248791903E+02 0.  0.
        -11    1    3    3    0    0  0.41320377590E+02 -0.83677925574E+01 -0.52874168613E+02  0.67624487155E+02  0.00000000000E+00 0. -1.
         11    1    3    3    0    0 -0.41320377590E+02  0.83677925574E+01 -0.13032222295E+02  0.44127456015E+02  0.00000000000E+00 0.  1.
<mgrwt>
<rscale>  0 0.90248792E+02</rscale>
<asrwt>0</asrwt>
<pdfrwt beam="2">  1        2 0.13666026E-01 0.90248792E+02</pdfrwt>
<pdfrwt beam="1">  1       -2 0.35265809E-02 0.90248792E+02</pdfrwt>
<totfact> 0.12179371E+05</totfact>
</mgrwt>
</event>
<event>
 5    1  0.1227473E+001  0.9283631E+02  0.7546771E-02  0.1296125E+00
          4   -1    0    0  501    0  0.00000000000E+00  0.00000000000E+00  0.22465403250E+03  0.22465403250E+03  0.00000000000E+00 0. -1.
         -4   -1    0    0    0  501 -0.00000000000E+00 -0.00000000000E+00 -0.95909477114E+01  0.95909477114E+01  0.00000000000E+00 0.  1.
         23    2    1    2    0    0  0.00000000000E+00  0.00000000000E+00  0.21506308479E+03  0.23424498021E+03  0.92836309252E+02 0.  0.
        -11    1    3    3    0    0 -0.30992343972E+02 -0.94660648842E+01  0.23674816245E+02  0.40132638756E+02  0.00000000000E+00 0.  1.
         11    1    3    3    0    0  0.30992343972E+02  0.94660648842E+01  0.19138826854E+03  0.19411234146E+03  0.00000000000E+00 0. -1.
<mgrwt>
<rscale>  0 0.92836309E+02</rscale>
<asrwt>0</asrwt>
<pdfrwt beam="1">  1        4 0.34562155E-01 0.92836309E+02</pdfrwt>
<pdfrwt beam="2">  1       -4 0.14755306E-02 0.92836309E+02</pdfrwt>
<totfact> 0.19091274E+04</totfact>
</mgrwt>
</event>
<event>
 5    1  0.1227473E+001  0.8818867E+02  0.7546771E-02  0.1307298E+00
          1   -1    0    0  501    0  0.00000000000E+00  0.00000000000E+00  0.35891191860E+02  0.35891191860E+02  0.00000000000E+00 0. -1.
         -1   -1    0    0    0  501 -0.00000000000E+00 -0.00000000000E+00 -0.54172355595E+02  0.54172355595E+02  0.00000000000E+00 0.  1.
         23    2    1    2    0    0  0.00000000000E+00  0.00000000000E+00 -0.18281163735E+02  0.90063547455E+02  0.88188670659E+02 0.  0.
        -11    1    3    3    0    0 -0.11140881754E+02 -0.41954618873E+02 -0.12298635433E+01  0.43426050424E+02  0.00000000000E+00 0. -1.
         11    1    3    3    0    0  0.11140881754E+02  0.41954618873E+02 -0.17051300192E+02  0.46637497031E+02  0.00000000000E+00 0.  1.
<mgrwt>
<rscale>  0 0.88188671E+02</rscale>
<asrwt>0</asrwt>
<pdfrwt beam="1">  1        1 0.55217218E-02 0.88188671E+02</pdfrwt>
<pdfrwt beam="2">  1       -1 0.83342086E-02 0.88188671E+02</pdfrwt>
<totfact> 0.97989437E+04</totfact>
</mgrwt>
</event>
<event>
 5    1  0.1227473E+001  0.9057980E+02  0.7546771E-02  0.1301454E+00
         -2   -1    0    0    0  501 -0.00000000000E+00  0.00000000000E+00  0.93736600694E+02  0.93736600694E+02  0.00000000000E+00 0.  1.
          2   -1    0    0  501    0  0.00000000000E+00 -0.00000000000E+00 -0.21882327277E+02  0.21882327277E+02  0.00000000000E+00 0. -1.
         23    2    1    2    0    0  0.00000000000E+00  0.00000000000E+00  0.71854273418E+02  0.11561892797E+03  0.90579798503E+02 0.  0.
        -11    1    3    3    0    0 -0.58948176859E+01 -0.43382898150E+02  0.50722199822E+02  0.67004225854E+02  0.00000000000E+00 0. -1.
         11    1    3    3    0    0  0.58948176859E+01  0.43382898150E+02  0.21132073595E+02  0.48614702117E+02  0.00000000000E+00 0.  1.
<mgrwt>
<rscale>  0 0.90579799E+02</rscale>
<asrwt>0</asrwt>
<pdfrwt beam="2">  1        2 0.33665119E-02 0.90579799E+02</pdfrwt>
<pdfrwt beam="1">  1       -2 0.14421015E-01 0.90579799E+02</pdfrwt>
<totfact> 0.82677564E+04</totfact>
</mgrwt>
</event>
<event>
 5    1  0.1227473E+001  0.8794096E+02  0.7546771E-02  0.1307916E+00
          2   -1    0    0  501    0  0.00000000000E+00  0.00000000000E+00  0.34253493036E+02  0.34253493036E+02  0.00000000000E+00 0. -1.
         -2   -1    0    0    0  501 -0.00000000000E+00 -0.00000000000E+00 -0.56443964430E+02  0.56443964430E+02  0.00000000000E+00 0.  1.
         23    2    1    2    0    0  0.00000000000E+00  0.00000000000E+00 -0.22190471394E+02  0.90697457466E+02  0.87940956159E+02 0.  0.
        -11    1    3    3    0    0 -0.28628148090E+02 -0.60915917967E+01 -0.44937253129E+02  0.53628677705E+02  0.00000000000E+00 0.  1.
         11    1    3    3    0    0  0.28628148090E+02  0.60915917967E+01  0.22746781734E+02  0.37068779761E+02  0.00000000000E+00 0. -1.
<mgrwt>
<rscale>  0 0.87940956E+02</rscale>
<asrwt>0</asrwt>
<pdfrwt beam="1">  1        2 0.52697682E-02 0.87940956E+02</pdfrwt>
<pdfrwt beam="2">  1       -2 0.86836868E-02 0.87940956E+02</pdfrwt>
<totfact> 0.10180963E+05</totfact>
</mgrwt>
</event>
<event>
 5    1  0.1227473E+001  0.9005295E+02  0.7546771E-02  0.1302724E+00
         -2   -1    0    0    0  501 -0.00000000000E+00  0.00000000000E+00  0.28272462966E+02  0.28272462966E+02  0.00000000000E+00 0.  1.
          2   -1    0    0  501    0  0.00000000000E+00 -0.00000000000E+00 -0.71708764948E+02  0.71708764948E+02  0.00000000000E+00 0. -1.
         23    2    1    2    0    0  0.00000000000E+00  0.00000000000E+00 -0.43436301982E+02  0.99981227915E+02  0.90052948899E+02 0.  0.
        -13    1    3    3    0    0  0.46971512312E+01  0.35100907210E+02  0.91548967469E+01  0.36577985881E+02  0.00000000000E+00 0.  1.
         13    1    3    3    0    0 -0.46971512312E+01 -0.35100907210E+02 -0.52591198729E+02  0.63403242034E+02  0.00000000000E+00 0. -1.
<mgrwt>
<rscale>  0 0.90052949E+02</rscale>
<asrwt>0</asrwt>
<pdfrwt beam="2">  1        2 0.11032117E-01 0.90052949E+02</pdfrwt>
<pdfrwt beam="1">  1       -2 0.43496098E-02 0.90052949E+02</pdfrwt>
<totfact> 0.11528341E+05</totfact>
</mgrwt>
</event>
<event>
 5    1  0.1227473E+001  0.9000318E+02  0.7546771E-02  0.1302844E+00
         -1   -1    0    0    0  501 -0.00000000000E+00  0.00000000000E+00  0.17119911803E+02  0.17119911803E+02  0.00000000000E+00 0.  1.
          1   -1    0    0  501    0  0.00000000000E+00 -0.00000000000E+00 -0.11829167197E+03  0.11829167197E+03  0.00000000000E+00 0. -1.
         23    2    1    2    0    0  0.00000000000E+00  0.00000000000E+00 -0.10117176016E+03  0.13541158377E+03  0.90003177524E+02 0.  0.
        -11    1    3    3    0    0 -0.32123097388E+02  0.22619685341E+02 -0.17568625217E+02  0.43037194875E+02  0.00000000000E+00 0.  1.
         11    1    3    3    0    0  0.32123097388E+02 -0.22619685341E+02 -0.83603134948E+02  0.92374388895E+02  0.00000000000E+00 0. -1.
<mgrwt>
<rscale>  0 0.90003178E+02</rscale>
<asrwt>0</asrwt>
<pdfrwt beam="2">  1        1 0.18198718E-01 0.90003178E+02</pdfrwt>
<pdfrwt beam="1">  1       -1 0.26338327E-02 0.90003178E+02</pdfrwt>
<totfact> 0.11131021E+05</totfact>
</mgrwt>
</event>
<event>
 5    1  0.1227473E+001  0.8752920E+02  0.7546771E-02  0.1308948E+00
          1   -1    0    0  501    0  0.00000000000E+00  0.00000000000E+00  0.10077862591E+03  0.10077862591E+03  0.00000000000E+00 0. -1.
         -1   -1    0    0    0  501 -0.00000000000E+00 -0.00000000000E+00 -0.19005419442E+02  0.19005419442E+02  0.00000000000E+00 0.  1.
         23    2    1    2    0    0  0.00000000000E+00  0.00000000000E+00  0.81773206468E+02  0.11978404535E+03  0.87529196413E+02 0.  0.
        -11    1    3    3    0    0 -0.39973414952E+02 -0.14391943508E+02  0.26511571391E+02  0.50078591818E+02  0.00000000000E+00 0.  1.
         11    1    3    3    0    0  0.39973414952E+02  0.14391943508E+02  0.55261635078E+02  0.69705453534E+02  0.00000000000E+00 0. -1.
<mgrwt>
<rscale>  0 0.87529196E+02</rscale>
<asrwt>0</asrwt>
<pdfrwt beam="1">  1        1 0.15504404E-01 0.87529196E+02</pdfrwt>
<pdfrwt beam="2">  1       -1 0.29239107E-02 0.87529196E+02</pdfrwt>
<totfact> 0.11685234E+05</totfact>
</mgrwt>
</event>
<event>
 5    1  0.1227473E+001  0.8974192E+02  0.7546771E-02  0.1303478E+00
         -2   -1    0    0    0  501 -0.00000000000E+00  0.00000000000E+00  0.92098480209E+02  0.92098480209E+02  0.00000000000E+00 0. -1.
          2   -1    0    0  501    0  0.00000000000E+00 -0.00000000000E+00 -0.21861415782E+02  0.21861415782E+02  0.00000000000E+00 0.  1.
         23    2    1    2    0    0  0.00000000000E+00  0.00000000000E+00  0.70237064427E+02  0.11395989599E+03  0.89741922617E+02 0.  0.
        -11    1    3    3    0    0  0.36134528174E+02  0.52663494812E+00  0.68893571497E+02  0.77796565890E+02  0.00000000000E+00 0. -1.
         11    1    3    3    0    0 -0.36134528174E+02 -0.52663494812E+00  0.13434929303E+01  0.36163330101E+02  0.00000000000E+00 0.  1.
<mgrwt>
<rscale>  0 0.89741923E+02</rscale>
<asrwt>0</asrwt>
<pdfrwt beam="2">  1        2 0.33632948E-02 0.89741923E+02</pdfrwt>
<pdfrwt beam="1">  1       -2 0.14168997E-01 0.89741923E+02</pdfrwt>
<totfact> 0.85034356E+04</totfact>
</mgrwt>
</event>
<event>
 5    1  0.1227473E+001  0.8106559E+02  0.7546771E-02  0.1326054E+00
         -1   -1    0    0    0  501 -0.00000000000E+00  0.00000000000E+00  0.19176541783E+02  0.19176541783E+02  0.00000000000E+00 0.  1.
          1   -1    0    0  501    0  0.00000000000E+00 -0.00000000000E+00 -0.85672771607E+02  0.85672771607E+02  0.00000000000E+00 0. -1.
         23    2    1    2    0    0  0.00000000000E+00  0.00000000000E+00 -0.66496229824E+02  0.10484931339E+03  0.81065590343E+02 0.  0.
        -11    1    3    3    0    0 -0.16617089449E+02 -0.34838070681E+02 -0.17245146674E+02  0.42275452857E+02  0.00000000000E+00 0.  1.
         11    1    3    3    0    0  0.16617089449E+02  0.34838070681E+02 -0.49251083150E+02  0.62573860533E+02  0.00000000000E+00 0. -1.
<mgrwt>
<rscale>  0 0.81065590E+02</rscale>
<asrwt>0</asrwt>
<pdfrwt beam="2">  1        1 0.13180426E-01 0.81065590E+02</pdfrwt>
<pdfrwt beam="1">  1       -1 0.29502372E-02 0.81065590E+02</pdfrwt>
<totfact> 0.14014723E+05</totfact>
</mgrwt>
</event>
<event>
 5    1  0.1227473E+001  0.9026948E+02  0.7546771E-02  0.1302200E+00
          2   -1    0    0  501    0  0.00000000000E+00  0.00000000000E+00  0.81983773025E+02  0.81983773025E+02  0.00000000000E+00 0.  1.
         -2   -1    0    0    0  501 -0.00000000000E+00 -0.00000000000E+00 -0.24848146175E+02  0.24848146175E+02  0.00000000000E+00 0. -1.
         23    2    1    2    0    0  0.00000000000E+00  0.00000000000E+00  0.57135626851E+02  0.10683191920E+03  0.90269480470E+02 0.  0.
        -13    1    3    3    0    0  0.27294688293E+02  0.85433613361E+00  0.71097578131E+02  0.76161640708E+02  0.00000000000E+00 0.  1.
         13    1    3    3    0    0 -0.27294688293E+02 -0.85433613361E+00 -0.13961951280E+02  0.30670278492E+02  0.00000000000E+00 0. -1.
<mgrwt>
<rscale>  0 0.90269480E+02</rscale>
<asrwt>0</asrwt>
<pdfrwt beam="1">  1        2 0.12612888E-01 0.90269480E+02</pdfrwt>
<pdfrwt beam="2">  1       -2 0.38227918E-02 0.90269480E+02</pdfrwt>
<totfact> 0.11891761E+05</totfact>
</mgrwt>
</event>
<event>
 5    1  0.1227473E+001  0.9503537E+02  0.7546771E-02  0.1291096E+00
         -3   -1    0    0    0  501 -0.00000000000E+00  0.00000000000E+00  0.32144323760E+02  0.32144323760E+02  0.00000000000E+00 0.  1.
          3   -1    0    0  501    0  0.00000000000E+00 -0.00000000000E+00 -0.70243511298E+02  0.70243511298E+02  0.00000000000E+00 0. -1.
         23    2    1    2    0    0  0.00000000000E+00  0.00000000000E+00 -0.38099187538E+02  0.10238783506E+03  0.95035365401E+02 0.  0.
        -13    1    3    3    0    0  0.10973376303E+02  0.97926488677E+01 -0.67729584064E+02  0.69308062423E+02  0.00000000000E+00 0. -1.
         13    1    3    3    0    0 -0.10973376303E+02 -0.97926488677E+01  0.29630396526E+02  0.33079772636E+02  0.00000000000E+00 0.  1.
<mgrwt>
<rscale>  0 0.95035365E+02</rscale>
<asrwt>0</asrwt>
<pdfrwt beam="2">  1        3 0.10806694E-01 0.95035365E+02</pdfrwt>
<pdfrwt beam="1">  1       -3 0.49452806E-02 0.95035365E+02</pdfrwt>
<totfact> 0.30801997E+04</totfact>
</mgrwt>
</event>
<event>
 5    1  0.1227473E+001  0.8920478E+02  0.7546771E-02  0.1304789E+00
         -1   -1    0    0    0  501 -0.00000000000E+00  0.00000000000E+00  0.20291918322E+02  0.20291918322E+02  0.00000000000E+00 0.  1.
          1   -1    0    0  501    0  0.00000000000E+00 -0.00000000000E+00 -0.98037720257E+02  0.98037720257E+02  0.00000000000E+00 0. -1.
         23    2    1    2    0    0  0.00000000000E+00  0.00000000000E+00 -0.77745801935E+02  0.11832963858E+03  0.89204784893E+02 0.  0.
        -13    1    3    3    0    0 -0.34607803417E+02 -0.23946373257E+02 -0.58469337433E+02  0.72040212863E+02  0.00000000000E+00 0. -1.
         13    1    3    3    0    0  0.34607803417E+02  0.23946373257E+02 -0.19276464502E+02  0.46289425717E+02  0.00000000000E+00 0.  1.
<mgrwt>
<rscale>  0 0.89204785E+02</rscale>
<asrwt>0</asrwt>
<pdfrwt beam="2">  1        1 0.15082727E-01 0.89204785E+02</pdfrwt>
<pdfrwt beam="1">  1       -1 0.31218335E-02 0.89204785E+02</pdfrwt>
<totfact> 0.11049263E+05</totfact>
</mgrwt>
</event>
<event>
 5    1  0.1227473E+001  0.9122583E+02  0.7546771E-02  0.1299910E+00
         -1   -1    0    0    0  501 -0.00000000000E+00  0.00000000000E+00  0.19501455412E+02  0.19501455412E+02  0.00000000000E+00 0.  1.
          1   -1    0    0  501    0  0.00000000000E+00 -0.00000000000E+00 -0.10668629111E+03  0.10668629111E+03  0.00000000000E+00 0. -1.
         23    2    1    2    0    0  0.00000000000E+00  0.00000000000E+00 -0.87184835697E+02  0.12618774652E+03  0.91225828561E+02 0.  0.
        -11    1    3    3    0    0 -0.24485492696E+02  0.28989286265E+02 -0.78603019453E+02  0.87283175572E+02  0.00000000000E+00 0.  1.
         11    1    3    3    0    0  0.24485492696E+02 -0.28989286265E+02 -0.85818162435E+01  0.38904570949E+02  0.00000000000E+00 0. -1.
<mgrwt>
<rscale>  0 0.91225829E+02</rscale>
<asrwt>0</asrwt>
<pdfrwt beam="2">  1        1 0.16413276E-01 0.91225829E+02</pdfrwt>
<pdfrwt beam="1">  1       -1 0.30002239E-02 0.91225829E+02</pdfrwt>
<totfact> 0.10543642E+05</totfact>
</mgrwt>
</event>
<event>
 5    1  0.1227473E+001  0.9155860E+02  0.7546771E-02  0.1299121E+00
         -2   -1    0    0    0  501 -0.00000000000E+00  0.00000000000E+00  0.67025540432E+02  0.67025540432E+02  0.00000000000E+00 0. -1.
          2   -1    0    0  501    0  0.00000000000E+00 -0.00000000000E+00 -0.31267847831E+02  0.31267847831E+02  0.00000000000E+00 0.  1.
         23    2    1    2    0    0  0.00000000000E+00  0.00000000000E+00  0.35757692601E+02  0.98293388264E+02  0.91558601978E+02 0.  0.
        -11    1    3    3    0    0  0.35749794001E+02  0.75369946024E+01  0.47492104170E+02  0.59919562893E+02  0.00000000000E+00 0.  1.
         11    1    3    3    0    0 -0.35749794001E+02 -0.75369946024E+01 -0.11734411569E+02  0.38373825371E+02  0.00000000000E+00 0. -1.
<mgrwt>
<rscale>  0 0.91558602E+02</rscale>
<asrwt>0</asrwt>
<pdfrwt beam="2">  1        2 0.48104382E-02 0.91558602E+02</pdfrwt>
<pdfrwt beam="1">  1       -2 0.10311622E-01 0.91558602E+02</pdfrwt>
<totfact> 0.88345758E+04</totfact>
</mgrwt>
</event>
<event>
 5    1  0.1227473E+001  0.8561920E+02  0.7546771E-02  0.1313821E+00
         -4   -1    0    0    0  501 -0.00000000000E+00  0.00000000000E+00  0.37417510822E+03  0.37417510822E+03  0.00000000000E+00 0. -1.
          4   -1    0    0  501    0  0.00000000000E+00 -0.00000000000E+00 -0.48978726241E+01  0.48978726241E+01  0.00000000000E+00 0.  1.
         23    2    1    2    0    0  0.00000000000E+00  0.00000000000E+00  0.36927723559E+03  0.37907298084E+03  0.85619203901E+02 0.  0.
        -11    1    3    3    0    0  0.41379488126E+02 -0.73801274668E+01  0.22058915376E+03  0.22455801717E+03  0.00000000000E+00 0.  1.
         11    1    3    3    0    0 -0.41379488126E+02  0.73801274668E+01  0.14868808183E+03  0.15451496367E+03  0.00000000000E+00 0. -1.
<mgrwt>
<rscale>  0 0.85619204E+02</rscale>
<asrwt>0</asrwt>
<pdfrwt beam="2">  1        4 0.75351916E-03 0.85619204E+02</pdfrwt>
<pdfrwt beam="1">  1       -4 0.57565379E-01 0.85619204E+02</pdfrwt>
<totfact> 0.18471194E+04</totfact>
</mgrwt>
</event>
<event>
 5    1  0.1227473E+001  0.9030236E+02  0.7546771E-02  0.1302121E+00
          2   -1    0    0  501    0  0.00000000000E+00  0.00000000000E+00  0.12706484134E+02  0.12706484134E+02  0.00000000000E+00 0. -1.
         -2   -1    0    0    0  501 -0.00000000000E+00 -0.00000000000E+00 -0.16044006112E+03  0.16044006112E+03  0.00000000000E+00 0.  1.
         23    2    1    2    0    0  0.00000000000E+00  0.00000000000E+00 -0.14773357699E+03  0.17314654525E+03  0.90302360792E+02 0.  0.
        -13    1    3    3    0    0 -0.21994653617E+02 -0.15750166680E+02 -0.45531468904E+01  0.27432894211E+02  0.00000000000E+00 0. -1.
         13    1    3    3    0    0  0.21994653617E+02  0.15750166680E+02 -0.14318043009E+03  0.14571365104E+03  0.00000000000E+00 0.  1.
<mgrwt>
<rscale>  0 0.90302361E+02</rscale>
<asrwt>0</asrwt>
<pdfrwt beam="1">  1        2 0.19548437E-02 0.90302361E+02</pdfrwt>
<pdfrwt beam="2">  1       -2 0.24683086E-01 0.90302361E+02</pdfrwt>
<totfact> 0.69819354E+04</totfact>
</mgrwt>
</event>
<event>
 5    1  0.1227473E+001  0.9231272E+02  0.7546771E-02  0.1297346E+00
         -2   -1    0    0    0  501 -0.00000000000E+00  0.00000000000E+00  0.14308126609E+02  0.14308126609E+02  0.00000000000E+00 0.  1.
          2   -1    0    0  501    0  0.00000000000E+00 -0.00000000000E+00 -0.14889506633E+03  0.14889506633E+03  0.00000000000E+00 0. -1.
         23    2    1    2    0    0  0.00000000000E+00  0.00000000000E+00 -0.13458693972E+03  0.16320319294E+03  0.92312717659E+02 0.  0.
        -13    1    3    3    0    0  0.17285850917E+02  0.34502836510E+02 -0.11205978746E+03  0.11851853161E+03  0.00000000000E+00 0. -1.
         13    1    3    3    0    0 -0.17285850917E+02 -0.34502836510E+02 -0.22527152262E+02  0.44684661330E+02  0.00000000000E+00 0.  1.
<mgrwt>
<rscale>  0 0.92312718E+02</rscale>
<asrwt>0</asrwt>
<pdfrwt beam="2">  1        2 0.22906933E-01 0.92312718E+02</pdfrwt>
<pdfrwt beam="1">  1       -2 0.22012503E-02 0.92312718E+02</pdfrwt>
<totfact> 0.13484177E+05</totfact>
</mgrwt>
</event>
<event>
 5    1  0.1227473E+001  0.8988582E+02  0.7546771E-02  0.1303128E+00
         -3   -1    0    0    0  501 -0.00000000000E+00  0.00000000000E+00  0.16246450404E+03  0.16246450404E+03  0.00000000000E+00 0.  1.
          3   -1    0    0  501    0  0.00000000000E+00 -0.00000000000E+00 -0.12432655348E+02  0.12432655348E+02  0.00000000000E+00 0. -1.
         23    2    1    2    0    0  0.00000000000E+00  0.00000000000E+00  0.15003184869E+03  0.17489715939E+03  0.89885820571E+02 0.  0.
        -13    1    3    3    0    0  0.38595533012E+02  0.50401501813E+01  0.11873504483E+03  0.12495210744E+03  0.00000000000E+00 0.  1.
         13    1    3    3    0    0 -0.38595533012E+02 -0.50401501813E+01  0.31296803863E+02  0.49945051951E+02  0.00000000000E+00 0. -1.
<mgrwt>
<rscale>  0 0.89885821E+02</rscale>
<asrwt>0</asrwt>
<pdfrwt beam="2">  1        3 0.19127163E-02 0.89885821E+02</pdfrwt>
<pdfrwt beam="1">  1       -3 0.24994538E-01 0.89885821E+02</pdfrwt>
<totfact> 0.31020125E+04</totfact>
</mgrwt>
</event>
<event>
 5    1  0.1227473E+001  0.8910418E+02  0.7546771E-02  0.1305036E+00
         -1   -1    0    0    0  501 -0.00000000000E+00  0.00000000000E+00  0.56781434996E+02  0.56781434996E+02  0.00000000000E+00 0.  1.
          1   -1    0    0  501    0  0.00000000000E+00 -0.00000000000E+00 -0.34956650036E+02  0.34956650036E+02  0.00000000000E+00 0. -1.
         23    2    1    2    0    0  0.00000000000E+00  0.00000000000E+00  0.21824784960E+02  0.91738085032E+02  0.89104180636E+02 0.  0.
        -11    1    3    3    0    0 -0.13283259137E+02  0.30836738794E+02 -0.19237003119E+02  0.38696404506E+02  0.00000000000E+00 0. -1.
         11    1    3    3    0    0  0.13283259137E+02 -0.30836738794E+02  0.41061788079E+02  0.53041680526E+02  0.00000000000E+00 0.  1.
<mgrwt>
<rscale>  0 0.89104181E+02</rscale>
<asrwt>0</asrwt>
<pdfrwt beam="2">  1        1 0.53779461E-02 0.89104181E+02</pdfrwt>
<pdfrwt beam="1">  1       -1 0.87356054E-02 0.89104181E+02</pdfrwt>
<totfact> 0.94793319E+04</totfact>
</mgrwt>
</event>
<event>
 5    1  0.1227473E+001  0.9158429E+02  0.7546771E-02  0.1299060E+00
         -4   -1    0    0    0  501 -0.00000000000E+00  0.00000000000E+00  0.34597900524E+02  0.34597900524E+02  0.00000000000E+00 0.  1.
          4   -1    0    0  501    0  0.00000000000E+00 -0.00000000000E+00 -0.60608319271E+02  0.60608319271E+02  0.00000000000E+00 0. -1.
         23    2    1    2    0    0  0.00000000000E+00  0.00000000000E+00 -0.26010418746E+02  0.95206219795E+02  0.91584291253E+02 0.  0.
        -13    1    3    3    0    0  0.32762384911E+02  0.14087672757E+02 -0.42865461564E+02  0.55760955730E+02  0.00000000000E+00 0. -1.
         13    1    3    3    0    0 -0.32762384911E+02 -0.14087672757E+02  0.16855042818E+02  0.39445264065E+02  0.00000000000E+00 0.  1.
<mgrwt>
<rscale>  0 0.91584291E+02</rscale>
<asrwt>0</asrwt>
<pdfrwt beam="2">  1        4 0.93243567E-02 0.91584291E+02</pdfrwt>
<pdfrwt beam="1">  1       -4 0.53227540E-02 0.91584291E+02</pdfrwt>
<totfact> 0.26436334E+04</totfact>
</mgrwt>
</event>
<event>
 5    1  0.1227473E+001  0.9136388E+02  0.7546771E-02  0.1299582E+00
          3   -1    0    0  501    0  0.00000000000E+00  0.00000000000E+00  0.20827496446E+03  0.20827496446E+03  0.00000000000E+00 0. -1.
         -3   -1    0    0    0  501 -0.00000000000E+00 -0.00000000000E+00 -0.10019637226E+02  0.10019637226E+02  0.00000000000E+00 0.  1.
         23    2    1    2    0    0  0.00000000000E+00  0.00000000000E+00  0.19825532724E+03  0.21829460169E+03  0.91363878796E+02 0.  0.
        -11    1    3    3    0    0  0.61428050588E+00 -0.44794269964E+02  0.77765823791E+02  0.89746461279E+02  0.00000000000E+00 0.  1.
         11    1    3    3    0    0 -0.61428050588E+00  0.44794269964E+02  0.12048950345E+03  0.12854814041E+03  0.00000000000E+00 0. -1.
<mgrwt>
<rscale>  0 0.91363879E+02</rscale>
<asrwt>0</asrwt>
<pdfrwt beam="1">  1        3 0.32042299E-01 0.91363879E+02</pdfrwt>
<pdfrwt beam="2">  1       -3 0.15414828E-02 0.91363879E+02</pdfrwt>
<totfact> 0.27427481E+04</totfact>
</mgrwt>
</event>
<event>
 5    1  0.1227473E+001  0.8817171E+02  0.7546771E-02  0.1307341E+00
          1   -1    0    0  501    0  0.00000000000E+00  0.00000000000E+00  0.87021066134E+01  0.87021066134E+01  0.00000000000E+00 0. -1.
         -1   -1    0    0    0  501 -0.00000000000E+00 -0.00000000000E+00 -0.22334392434E+03  0.22334392434E+03  0.00000000000E+00 0.  1.
         23    2    1    2    0    0  0.00000000000E+00  0.00000000000E+00 -0.21464181773E+03  0.23204603096E+03  0.88171710681E+02 0.  0.
        -13    1    3    3    0    0  0.22873317586E+02 -0.21555562830E+02 -0.25960546942E+02  0.40764947489E+02  0.00000000000E+00 0. -1.
         13    1    3    3    0    0 -0.22873317586E+02  0.21555562830E+02 -0.18868127079E+03  0.19128108347E+03  0.00000000000E+00 0.  1.
<mgrwt>
<rscale>  0 0.88171711E+02</rscale>
<asrwt>0</asrwt>
<pdfrwt beam="1">  1        1 0.13387856E-02 0.88171711E+02</pdfrwt>
<pdfrwt beam="2">  1       -1 0.34360605E-01 0.88171711E+02</pdfrwt>
<totfact> 0.73303802E+04</totfact>
</mgrwt>
</event>
<event>
 4    1  0.1227473E+001  0.1566742E+03  0.7546771E-02  0.1192504E+00
          2   -1    0    0  501    0  0.00000000000E+00  0.00000000000E+00  0.38125933617E+03  0.38125933617E+03  0.00000000000E+00 0. -1.
         -2   -1    0    0    0  501 -0.00000000000E+00 -0.00000000000E+00 -0.16095864232E+02  0.16095864232E+02  0.00000000000E+00 0.  1.
        -11    1    1    2    0    0 -0.12978909813E+02  0.58620628966E+02  0.54966635992E+02  0.81401236554E+02  0.00000000000E+00 0.  1.
         11    1    1    2    0    0  0.12978909813E+02 -0.58620628966E+02  0.31019683594E+03  0.31595396384E+03  0.00000000000E+00 0. -1.
<mgrwt>
<rscale>  0 0.15667417E+03</rscale>
<asrwt>0</asrwt>
<pdfrwt beam="1">  1        2 0.58655276E-01 0.15667417E+03</pdfrwt>
<pdfrwt beam="2">  1       -2 0.24762871E-02 0.15667417E+03</pdfrwt>
<totfact> 0.44543292E+04</totfact>
</mgrwt>
</event>
<event>
 5    1  0.1227473E+001  0.9285115E+02  0.7546771E-02  0.1296091E+00
         -1   -1    0    0    0  501 -0.00000000000E+00  0.00000000000E+00  0.15597838689E+03  0.15597838689E+03  0.00000000000E+00 0.  1.
          1   -1    0    0  501    0  0.00000000000E+00 -0.00000000000E+00 -0.13818157071E+02  0.13818157071E+02  0.00000000000E+00 0. -1.
         23    2    1    2    0    0  0.00000000000E+00  0.00000000000E+00  0.14216022982E+03  0.16979654396E+03  0.92851146460E+02 0.  0.
        -13    1    3    3    0    0  0.16719976988E+02 -0.22097025020E+02  0.29627698533E+01  0.27867797732E+02  0.00000000000E+00 0. -1.
         13    1    3    3    0    0 -0.16719976988E+02  0.22097025020E+02  0.13919745997E+03  0.14192874623E+03  0.00000000000E+00 0.  1.
<mgrwt>
<rscale>  0 0.92851146E+02</rscale>
<asrwt>0</asrwt>
<pdfrwt beam="2">  1        1 0.21258704E-02 0.92851146E+02</pdfrwt>
<pdfrwt beam="1">  1       -1 0.23996674E-01 0.92851146E+02</pdfrwt>
<totfact> 0.70673844E+04</totfact>
</mgrwt>
</event>
<event>
 5    1  0.1227473E+001  0.9057315E+02  0.7546771E-02  0.1301470E+00
          1   -1    0    0  501    0  0.00000000000E+00  0.00000000000E+00  0.42609137268E+02  0.42609137268E+02  0.00000000000E+00 0. -1.
         -1   -1    0    0    0  501 -0.00000000000E+00 -0.00000000000E+00 -0.48132252002E+02  0.48132252002E+02  0.00000000000E+00 0.  1.
         23    2    1    2    0    0  0.00000000000E+00  0.00000000000E+00 -0.55231147335E+01  0.90741389270E+02  0.90573146850E+02 0.  0.
        -11    1    3    3    0    0  0.33451511683E+02  0.29997666225E+02 -0.84298154582E+01  0.45715701914E+02  0.00000000000E+00 0. -1.
         11    1    3    3    0    0 -0.33451511683E+02 -0.29997666225E+02  0.29067007247E+01  0.45025687356E+02  0.00000000000E+00 0.  1.
<mgrwt>
<rscale>  0 0.90573147E+02</rscale>
<asrwt>0</asrwt>
<pdfrwt beam="1">  1        1 0.65552519E-02 0.90573147E+02</pdfrwt>
<pdfrwt beam="2">  1       -1 0.74049619E-02 0.90573147E+02</pdfrwt>
<totfact> 0.93262083E+04</totfact>
</mgrwt>
</event>
<event>
 5    1  0.1227473E+001  0.8970059E+02  0.7546771E-02  0.1303578E+00
         -4   -1    0    0    0  501 -0.00000000000E+00  0.00000000000E+00  0.13658735925E+03  0.13658735925E+03  0.00000000000E+00 0. -1.
          4   -1    0    0  501    0  0.00000000000E+00 -0.00000000000E+00 -0.14727198365E+02  0.14727198365E+02  0.00000000000E+00 0.  1.
         23    2    1    2    0    0  0.00000000000E+00  0.00000000000E+00  0.12186016089E+03  0.15131455762E+03  0.89700593841E+02 0.  0.
        -13    1    3    3    0    0 -0.33632547028E+02 -0.10001592257E+02  0.10805335018E+03  0.11360768703E+03  0.00000000000E+00 0. -1.
         13    1    3    3    0    0  0.33632547028E+02  0.10001592257E+02  0.13806810701E+02  0.37706870581E+02  0.00000000000E+00 0.  1.
<mgrwt>
<rscale>  0 0.89700594E+02</rscale>
<asrwt>0</asrwt>
<pdfrwt beam="2">  1        4 0.22657229E-02 0.89700594E+02</pdfrwt>
<pdfrwt beam="1">  1       -4 0.21013439E-01 0.89700594E+02</pdfrwt>
<totfact> 0.24664212E+04</totfact>
</mgrwt>
</event>
<event>
 5    1  0.1227473E+001  0.9241834E+02  0.7546771E-02  0.1297099E+00
         -2   -1    0    0    0  501 -0.00000000000E+00  0.00000000000E+00  0.84155129761E+01  0.84155129761E+01  0.00000000000E+00 0.  1.
          2   -1    0    0  501    0  0.00000000000E+00 -0.00000000000E+00 -0.25373227005E+03  0.25373227005E+03  0.00000000000E+00 0. -1.
         23    2    1    2    0    0  0.00000000000E+00  0.00000000000E+00 -0.24531675708E+03  0.26214778303E+03  0.92418336083E+02 0.  0.
        -11    1    3    3    0    0 -0.31333775174E+02  0.31867524750E+02 -0.15597318271E+03  0.16224974060E+03  0.00000000000E+00 0. -1.
         11    1    3    3    0    0  0.31333775174E+02 -0.31867524750E+02 -0.89343574364E+02  0.99898042425E+02  0.00000000000E+00 0.  1.
<mgrwt>
<rscale>  0 0.92418336E+02</rscale>
<asrwt>0</asrwt>
<pdfrwt beam="2">  1        2 0.39035737E-01 0.92418336E+02</pdfrwt>
<pdfrwt beam="1">  1       -2 0.12946942E-02 0.92418336E+02</pdfrwt>
<totfact> 0.16277328E+05</totfact>
</mgrwt>
</event>
<event>
 5    1  0.1227473E+001  0.9177702E+02  0.7546771E-02  0.1298605E+00
          1   -1    0    0  501    0  0.00000000000E+00  0.00000000000E+00  0.38727671925E+02  0.38727671925E+02  0.00000000000E+00 0. -1.
         -1   -1    0    0    0  501 -0.00000000000E+00 -0.00000000000E+00 -0.54373405674E+02  0.54373405674E+02  0.00000000000E+00 0.  1.
         23    2    1    2    0    0  0.00000000000E+00  0.00000000000E+00 -0.15645733749E+02  0.93101077600E+02  0.91777021447E+02 0.  0.
        -13    1    3    3    0    0 -0.33329538456E+02 -0.12992246905E+02  0.21333724165E+02  0.41650743092E+02  0.00000000000E+00 0. -1.
         13    1    3    3    0    0  0.33329538456E+02  0.12992246905E+02 -0.36979457915E+02  0.51450334508E+02  0.00000000000E+00 0.  1.
<mgrwt>
<rscale>  0 0.91777021E+02</rscale>
<asrwt>0</asrwt>
<pdfrwt beam="1">  1        1 0.59581034E-02 0.91777021E+02</pdfrwt>
<pdfrwt beam="2">  1       -1 0.83651393E-02 0.91777021E+02</pdfrwt>
<totfact> 0.88556473E+04</totfact>
</mgrwt>
</event>
<event>
 5    1  0.1227473E+001  0.8939311E+02  0.7546771E-02  0.1304328E+00
          2   -1    0    0  501    0  0.00000000000E+00  0.00000000000E+00  0.18749026826E+02  0.18749026826E+02  0.00000000000E+00 0. -1.
         -2   -1    0    0    0  501 -0.00000000000E+00 -0.00000000000E+00 -0.10655389725E+03  0.10655389725E+03  0.00000000000E+00 0.  1.
         23    2    1    2    0    0  0.00000000000E+00  0.00000000000E+00 -0.87804870425E+02  0.12530292408E+03  0.89393106625E+02 0.  0.
        -13    1    3    3    0    0  0.27306270819E+02 -0.57942360883E+01  0.50285021595E+01  0.28363558166E+02  0.00000000000E+00 0. -1.
         13    1    3    3    0    0 -0.27306270819E+02  0.57942360883E+01 -0.92833372584E+02  0.96939365911E+02  0.00000000000E+00 0.  1.
<mgrwt>
<rscale>  0 0.89393107E+02</rscale>
<asrwt>0</asrwt>
<pdfrwt beam="1">  1        2 0.28844656E-02 0.89393107E+02</pdfrwt>
<pdfrwt beam="2">  1       -2 0.16392908E-01 0.89393107E+02</pdfrwt>
<totfact> 0.82244472E+04</totfact>
</mgrwt>
</event>
<event>
 5    1  0.1227473E+001  0.9034247E+02  0.7546771E-02  0.1302024E+00
         -1   -1    0    0    0  501 -0.00000000000E+00  0.00000000000E+00  0.78052621480E+01  0.78052621480E+01  0.00000000000E+00 0.  1.
          1   -1    0    0  501    0  0.00000000000E+00 -0.00000000000E+00 -0.26141856914E+03  0.26141856914E+03  0.00000000000E+00 0. -1.
         23    2    1    2    0    0  0.00000000000E+00  0.00000000000E+00 -0.25361330699E+03  0.26922383129E+03  0.90342469802E+02 0.  0.
        -11    1    3    3    0    0  0.29375828012E+02  0.19910337262E+02 -0.43521190241E+02  0.56155630183E+02  0.00000000000E+00 0.  1.
         11    1    3    3    0    0 -0.29375828012E+02 -0.19910337262E+02 -0.21009211675E+03  0.21306820110E+03  0.00000000000E+00 0. -1.
<mgrwt>
<rscale>  0 0.90342470E+02</rscale>
<asrwt>0</asrwt>
<pdfrwt beam="2">  1        1 0.40218243E-01 0.90342470E+02</pdfrwt>
<pdfrwt beam="1">  1       -1 0.12008095E-02 0.90342470E+02</pdfrwt>
<totfact> 0.12784932E+05</totfact>
</mgrwt>
</event>
<event>
 5    1  0.1227473E+001  0.9567713E+02  0.7546771E-02  0.1289658E+00
          2   -1    0    0  501    0  0.00000000000E+00  0.00000000000E+00  0.12747950241E+03  0.12747950241E+03  0.00000000000E+00 0.  1.
         -2   -1    0    0    0  501 -0.00000000000E+00 -0.00000000000E+00 -0.17952127142E+02  0.17952127142E+02  0.00000000000E+00 0. -1.
         23    2    1    2    0    0  0.00000000000E+00  0.00000000000E+00  0.10952737526E+03  0.14543162955E+03  0.95677128620E+02 0.  0.
        -13    1    3    3    0    0 -0.30880730593E+02  0.17504497206E+02  0.60160967352E+01  0.36003060486E+02  0.00000000000E+00 0. -1.
         13    1    3    3    0    0  0.30880730593E+02 -0.17504497206E+02  0.10351127853E+03  0.10942856906E+03  0.00000000000E+00 0.  1.
<mgrwt>
<rscale>  0 0.95677129E+02</rscale>
<asrwt>0</asrwt>
<pdfrwt beam="1">  1        2 0.19612231E-01 0.95677129E+02</pdfrwt>
<pdfrwt beam="2">  1       -2 0.27618658E-02 0.95677129E+02</pdfrwt>
<totfact> 0.11605580E+05</totfact>
</mgrwt>
</event>
<event>
 5    1  0.1227473E+001  0.8807289E+02  0.7546771E-02  0.1307587E+00
          2   -1    0    0  501    0  0.00000000000E+00  0.00000000000E+00  0.34711993793E+03  0.34711993793E+03  0.00000000000E+00 0. -1.
         -2   -1    0    0    0  501 -0.00000000000E+00 -0.00000000000E+00 -0.55865655138E+01  0.55865655138E+01  0.00000000000E+00 0.  1.
         23    2    1    2    0    0  0.00000000000E+00  0.00000000000E+00  0.34153337241E+03  0.35270650344E+03  0.88072885144E+02 0.  0.
        -11    1    3    3    0    0  0.37360341577E+02 -0.23244046942E+02  0.16368453365E+03  0.16949544949E+03  0.00000000000E+00 0.  1.
         11    1    3    3    0    0 -0.37360341577E+02  0.23244046942E+02  0.17784883877E+03  0.18321105396E+03  0.00000000000E+00 0. -1.
<mgrwt>
<rscale>  0 0.88072885E+02</rscale>
<asrwt>0</asrwt>
<pdfrwt beam="1">  1        2 0.53403050E-01 0.88072885E+02</pdfrwt>
<pdfrwt beam="2">  1       -2 0.85947189E-03 0.88072885E+02</pdfrwt>
<totfact> 0.20788371E+05</totfact>
</mgrwt>
</event>
<event>
 5    1  0.1227473E+001  0.8961650E+02  0.7546771E-02  0.1303783E+00
         -2   -1    0    0    0  501 -0.00000000000E+00  0.00000000000E+00  0.85613453207E+02  0.85613453207E+02  0.00000000000E+00 0. -1.
          2   -1    0    0  501    0  0.00000000000E+00 -0.00000000000E+00 -0.23451677443E+02  0.23451677443E+02  0.00000000000E+00 0.  1.
         23    2    1    2    0    0  0.00000000000E+00  0.00000000000E+00  0.62161775764E+02  0.10906513065E+03  0.89616496013E+02 0.  0.
        -11    1    3    3    0    0 -0.35311876816E+02 -0.15316833568E+02  0.58999381309E+02  0.70444737417E+02  0.00000000000E+00 0. -1.
         11    1    3    3    0    0  0.35311876816E+02  0.15316833568E+02  0.31623944550E+01  0.38620393234E+02  0.00000000000E+00 0.  1.
<mgrwt>
<rscale>  0 0.89616496E+02</rscale>
<asrwt>0</asrwt>
<pdfrwt beam="2">  1        2 0.36079504E-02 0.89616496E+02</pdfrwt>
<pdfrwt beam="1">  1       -2 0.13171300E-01 0.89616496E+02</pdfrwt>
<totfact> 0.87113307E+04</totfact>
</mgrwt>
</event>
<event>
 5    1  0.1227473E+001  0.9365002E+02  0.7546771E-02  0.1294246E+00
          2   -1    0    0  501    0  0.00000000000E+00  0.00000000000E+00  0.94251684927E+01  0.94251684927E+01  0.00000000000E+00 0. -1.
         -2   -1    0    0    0  501 -0.00000000000E+00 -0.00000000000E+00 -0.23263046838E+03  0.23263046838E+03  0.00000000000E+00 0.  1.
         23    2    1    2    0    0  0.00000000000E+00  0.00000000000E+00 -0.22320529989E+03  0.24205563688E+03  0.93650015719E+02 0.  0.
        -11    1    3    3    0    0  0.79460354963E+01  0.36503356501E+02 -0.18456889946E+03  0.18831174463E+03  0.00000000000E+00 0.  1.
         11    1    3    3    0    0 -0.79460354963E+01 -0.36503356501E+02 -0.38636400428E+02  0.53743892248E+02  0.00000000000E+00 0. -1.
<mgrwt>
<rscale>  0 0.93650016E+02</rscale>
<asrwt>0</asrwt>
<pdfrwt beam="1">  1        2 0.14500259E-02 0.93650016E+02</pdfrwt>
<pdfrwt beam="2">  1       -2 0.35789304E-01 0.93650016E+02</pdfrwt>
<totfact> 0.54322910E+04</totfact>
</mgrwt>
</event>
<event>
 5    1  0.1227473E+001  0.9450966E+02  0.7546771E-02  0.1292284E+00
         -2   -1    0    0    0  501 -0.00000000000E+00  0.00000000000E+00  0.18445234379E+02  0.18445234379E+02  0.00000000000E+00 0.  1.
          2   -1    0    0  501    0  0.00000000000E+00 -0.00000000000E+00 -0.12106210710E+03  0.12106210710E+03  0.00000000000E+00 0. -1.
         23    2    1    2    0    0  0.00000000000E+00  0.00000000000E+00 -0.10261687273E+03  0.13950734148E+03  0.94509659611E+02 0.  0.
        -11    1    3    3    0    0 -0.16337635220E+02 -0.32003944345E+02 -0.96609803736E+02  0.10307582139E+03  0.00000000000E+00 0. -1.
         11    1    3    3    0    0  0.16337635220E+02  0.32003944345E+02 -0.60070689897E+01  0.36431520089E+02  0.00000000000E+00 0.  1.
<mgrwt>
<rscale>  0 0.94509660E+02</rscale>
<asrwt>0</asrwt>
<pdfrwt beam="2">  1        2 0.18624940E-01 0.94509660E+02</pdfrwt>
<pdfrwt beam="1">  1       -2 0.28377283E-02 0.94509660E+02</pdfrwt>
<totfact> 0.11802167E+05</totfact>
</mgrwt>
</event>
<event>
 5    1  0.1227473E+001  0.8746360E+02  0.7546771E-02  0.1309113E+00
          3   -1    0    0  501    0  0.00000000000E+00  0.00000000000E+00  0.30025466081E+02  0.30025466081E+02  0.00000000000E+00 0. -1.
         -3   -1    0    0    0  501 -0.00000000000E+00 -0.00000000000E+00 -0.63694947760E+02  0.63694947760E+02  0.00000000000E+00 0.  1.
         23    2    1    2    0    0  0.00000000000E+00  0.00000000000E+00 -0.33669481679E+02  0.93720413842E+02  0.87463603711E+02 0.  0.
        -11    1    3    3    0    0 -0.40707127738E+02  0.15197521682E+02 -0.22131596665E+02  0.48763126283E+02  0.00000000000E+00 0. -1.
         11    1    3    3    0    0  0.40707127738E+02 -0.15197521682E+02 -0.11537885014E+02  0.44957287558E+02  0.00000000000E+00 0.  1.
<mgrwt>
<rscale>  0 0.87463604E+02</rscale>
<asrwt>0</asrwt>
<pdfrwt beam="1">  1        3 0.46193025E-02 0.87463604E+02</pdfrwt>
<pdfrwt beam="2">  1       -3 0.97992226E-02 0.87463604E+02</pdfrwt>
<totfact> 0.39341059E+04</totfact>
</mgrwt>
</event>
<event>
 5    1  0.1227473E+001  0.9352673E+02  0.7546771E-02  0.1294529E+00
          1   -1    0    0  501    0  0.00000000000E+00  0.00000000000E+00  0.20323110745E+02  0.20323110745E+02  0.00000000000E+00 0. -1.
         -1   -1    0    0    0  501 -0.00000000000E+00 -0.00000000000E+00 -0.10760224965E+03  0.10760224965E+03  0.00000000000E+00 0.  1.
         23    2    1    2    0    0  0.00000000000E+00  0.00000000000E+00 -0.87279138908E+02  0.12792536040E+03  0.93526732781E+02 0.  0.
        -11    1    3    3    0    0  0.26692282896E+02  0.25699424574E+02 -0.82660667463E+02  0.90585453220E+02  0.00000000000E+00 0.  1.
         11    1    3    3    0    0 -0.26692282896E+02 -0.25699424574E+02 -0.46184714442E+01  0.37339907178E+02  0.00000000000E+00 0. -1.
<mgrwt>
<rscale>  0 0.93526733E+02</rscale>
<asrwt>0</asrwt>
<pdfrwt beam="1">  1        1 0.31266325E-02 0.93526733E+02</pdfrwt>
<pdfrwt beam="2">  1       -1 0.16554192E-01 0.93526733E+02</pdfrwt>
<totfact> 0.75144384E+04</totfact>
</mgrwt>
</event>
<event>
 5    1  0.1227473E+001  0.9073083E+02  0.7546771E-02  0.1301091E+00
          2   -1    0    0  501    0  0.00000000000E+00  0.00000000000E+00  0.66373483844E+02  0.66373483844E+02  0.00000000000E+00 0. -1.
         -2   -1    0    0    0  501 -0.00000000000E+00 -0.00000000000E+00 -0.31006673379E+02  0.31006673379E+02  0.00000000000E+00 0.  1.
         23    2    1    2    0    0  0.00000000000E+00  0.00000000000E+00  0.35366810465E+02  0.97380157223E+02  0.90730831245E+02 0.  0.
        -13    1    3    3    0    0 -0.26427933794E+02 -0.18227429747E+02 -0.16717823940E+02  0.36196139532E+02  0.00000000000E+00 0.  1.
         13    1    3    3    0    0  0.26427933794E+02  0.18227429747E+02  0.52084634404E+02  0.61184017691E+02  0.00000000000E+00 0. -1.
<mgrwt>
<rscale>  0 0.90730831E+02</rscale>
<asrwt>0</asrwt>
<pdfrwt beam="1">  1        2 0.10211305E-01 0.90730831E+02</pdfrwt>
<pdfrwt beam="2">  1       -2 0.47702575E-02 0.90730831E+02</pdfrwt>
<totfact> 0.11051955E+05</totfact>
</mgrwt>
</event>
<event>
 5    1  0.1227473E+001  0.9224166E+02  0.7546771E-02  0.1297512E+00
         -1   -1    0    0    0  501 -0.00000000000E+00  0.00000000000E+00  0.80949929837E+01  0.80949929837E+01  0.00000000000E+00 0.  1.
          1   -1    0    0  501    0  0.00000000000E+00 -0.00000000000E+00 -0.26277120098E+03  0.26277120098E+03  0.00000000000E+00 0. -1.
         23    2    1    2    0    0  0.00000000000E+00  0.00000000000E+00 -0.25467620799E+03  0.27086619396E+03  0.92241661482E+02 0.  0.
        -11    1    3    3    0    0 -0.32516774077E+02  0.20984848956E+02 -0.20100972335E+03  0.20470127837E+03  0.00000000000E+00 0. -1.
         11    1    3    3    0    0  0.32516774077E+02 -0.20984848956E+02 -0.53666484641E+02  0.66164915596E+02  0.00000000000E+00 0.  1.
<mgrwt>
<rscale>  0 0.92241661E+02</rscale>
<asrwt>0</asrwt>
<pdfrwt beam="2">  1        1 0.40426340E-01 0.92241661E+02</pdfrwt>
<pdfrwt beam="1">  1       -1 0.12453835E-02 0.92241661E+02</pdfrwt>
<totfact> 0.12106252E+05</totfact>
</mgrwt>
</event>
<event>
 5    1  0.1227473E+001  0.9050050E+02  0.7546771E-02  0.1301644E+00
         -1   -1    0    0    0  501 -0.00000000000E+00  0.00000000000E+00  0.92990816780E+02  0.92990816780E+02  0.00000000000E+00 0.  1.
          1   -1    0    0  501    0  0.00000000000E+00 -0.00000000000E+00 -0.22019216299E+02  0.22019216299E+02  0.00000000000E+00 0. -1.
         23    2    1    2    0    0  0.00000000000E+00  0.00000000000E+00  0.70971600481E+02  0.11501003308E+03  0.90500495214E+02 0.  0.
        -11    1    3    3    0    0 -0.25199841845E+02  0.25668261408E+02  0.59731761246E+00  0.35975664846E+02  0.00000000000E+00 0. -1.
         11    1    3    3    0    0  0.25199841845E+02 -0.25668261408E+02  0.70374282868E+02  0.79034368233E+02  0.00000000000E+00 0.  1.
<mgrwt>
<rscale>  0 0.90500495E+02</rscale>
<asrwt>0</asrwt>
<pdfrwt beam="2">  1        1 0.33875718E-02 0.90500495E+02</pdfrwt>
<pdfrwt beam="1">  1       -1 0.14306279E-01 0.90500495E+02</pdfrwt>
<totfact> 0.84051399E+04</totfact>
</mgrwt>
</event>
<event>
 5    1  0.1227473E+001  0.9307142E+02  0.7546771E-02  0.1295580E+00
         -2   -1    0    0    0  501 -0.00000000000E+00  0.00000000000E+00  0.20533220847E+02  0.20533220847E+02  0.00000000000E+00 0.  1.
          2   -1    0    0  501    0  0.00000000000E+00 -0.00000000000E+00 -0.10546676032E+03  0.10546676032E+03  0.00000000000E+00 0. -1.
         23    2    1    2    0    0  0.00000000000E+00  0.00000000000E+00 -0.84933539469E+02  0.12599998116E+03  0.93071419493E+02 0.  0.
        -13    1    3    3    0    0 -0.18014729813E+02 -0.20436914315E+02 -0.93542396690E+02  0.97428835236E+02  0.00000000000E+00 0. -1.
         13    1    3    3    0    0  0.18014729813E+02  0.20436914315E+02  0.86088572209E+01  0.28571145927E+02  0.00000000000E+00 0.  1.
<mgrwt>
<rscale>  0 0.93071419E+02</rscale>
<asrwt>0</asrwt>
<pdfrwt beam="2">  1        2 0.16225656E-01 0.93071419E+02</pdfrwt>
<pdfrwt beam="1">  1       -2 0.31589570E-02 0.93071419E+02</pdfrwt>
<totfact> 0.11782984E+05</totfact>
</mgrwt>
</event>
<event>
 5    1  0.1227473E+001  0.8990026E+02  0.7546771E-02  0.1303093E+00
         -1   -1    0    0    0  501 -0.00000000000E+00  0.00000000000E+00  0.12006888112E+03  0.12006888112E+03  0.00000000000E+00 0.  1.
          1   -1    0    0  501    0  0.00000000000E+00 -0.00000000000E+00 -0.16827959349E+02  0.16827959349E+02  0.00000000000E+00 0. -1.
         23    2    1    2    0    0  0.00000000000E+00  0.00000000000E+00  0.10324092177E+03  0.13689684047E+03  0.89900261414E+02 0.  0.
        -11    1    3    3    0    0 -0.10513206517E+02 -0.43703225851E+02  0.51435274466E+02  0.68308761667E+02  0.00000000000E+00 0. -1.
         11    1    3    3    0    0  0.10513206517E+02  0.43703225851E+02  0.51805647304E+02  0.68588078801E+02  0.00000000000E+00 0.  1.
<mgrwt>
<rscale>  0 0.89900261E+02</rscale>
<asrwt>0</asrwt>
<pdfrwt beam="2">  1        1 0.25889169E-02 0.89900261E+02</pdfrwt>
<pdfrwt beam="1">  1       -1 0.18472135E-01 0.89900261E+02</pdfrwt>
<totfact> 0.81433352E+04</totfact>
</mgrwt>
</event>
<event>
 5    1  0.1227473E+001  0.9047124E+02  0.7546771E-02  0.1301715E+00
          1   -1    0    0  501    0  0.00000000000E+00  0.00000000000E+00  0.25871354957E+02  0.25871354957E+02  0.00000000000E+00 0. -1.
         -1   -1    0    0    0  501 -0.00000000000E+00 -0.00000000000E+00 -0.79093709178E+02  0.79093709178E+02  0.00000000000E+00 0.  1.
         23    2    1    2    0    0  0.00000000000E+00  0.00000000000E+00 -0.53222354221E+02  0.10496506414E+03  0.90471242393E+02 0.  0.
        -11    1    3    3    0    0 -0.36684523875E+00 -0.40877155326E+02 -0.41383884611E+01  0.41087743452E+02  0.00000000000E+00 0. -1.
         11    1    3    3    0    0  0.36684523875E+00  0.40877155326E+02 -0.49083965760E+02  0.63877320683E+02  0.00000000000E+00 0.  1.
<mgrwt>
<rscale>  0 0.90471242E+02</rscale>
<asrwt>0</asrwt>
<pdfrwt beam="1">  1        1 0.39802085E-02 0.90471242E+02</pdfrwt>
<pdfrwt beam="2">  1       -1 0.12168263E-01 0.90471242E+02</pdfrwt>
<totfact> 0.86515235E+04</totfact>
</mgrwt>
</event>
<event>
 5    1  0.1227473E+001  0.9016947E+02  0.7546771E-02  0.1302442E+00
         -4   -1    0    0    0  501 -0.00000000000E+00  0.00000000000E+00  0.17218780768E+02  0.17218780768E+02  0.00000000000E+00 0. -1.
          4   -1    0    0  501    0  0.00000000000E+00 -0.00000000000E+00 -0.11804746280E+03  0.11804746280E+03  0.00000000000E+00 0.  1.
         23    2    1    2    0    0  0.00000000000E+00  0.00000000000E+00 -0.10082868203E+03  0.13526624357E+03  0.90169471157E+02 0.  0.
        -11    1    3    3    0    0 -0.76349203281E+00 -0.39444940458E+02 -0.83148447773E+02  0.92033421184E+02  0.00000000000E+00 0.  1.
         11    1    3    3    0    0  0.76349203281E+00  0.39444940458E+02 -0.17680234259E+02  0.43232822383E+02  0.00000000000E+00 0. -1.
<mgrwt>
<rscale>  0 0.90169471E+02</rscale>
<asrwt>0</asrwt>
<pdfrwt beam="2">  1        4 0.18161149E-01 0.90169471E+02</pdfrwt>
<pdfrwt beam="1">  1       -4 0.26490431E-02 0.90169471E+02</pdfrwt>
<totfact> 0.25175822E+04</totfact>
</mgrwt>
</event>
<event>
 5    1  0.1227473E+001  0.9411039E+02  0.7546771E-02  0.1293192E+00
          1   -1    0    0  501    0  0.00000000000E+00  0.00000000000E+00  0.15597360421E+02  0.15597360421E+02  0.00000000000E+00 0. -1.
         -1   -1    0    0    0  501 -0.00000000000E+00 -0.00000000000E+00 -0.14195936624E+03  0.14195936624E+03  0.00000000000E+00 0.  1.
         23    2    1    2    0    0  0.00000000000E+00  0.00000000000E+00 -0.12636200582E+03  0.15755672666E+03  0.94110390509E+02 0.  0.
        -11    1    3    3    0    0 -0.17445603630E+02 -0.41021994287E+02 -0.88407034559E+02  0.99009882642E+02  0.00000000000E+00 0.  1.
         11    1    3    3    0    0  0.17445603630E+02  0.41021994287E+02 -0.37954971261E+02  0.58546844021E+02  0.00000000000E+00 0. -1.
<mgrwt>
<rscale>  0 0.94110391E+02</rscale>
<asrwt>0</asrwt>
<pdfrwt beam="1">  1        1 0.23995939E-02 0.94110391E+02</pdfrwt>
<pdfrwt beam="2">  1       -1 0.21839903E-01 0.94110391E+02</pdfrwt>
<totfact> 0.69762128E+04</totfact>
</mgrwt>
</event>
<event>
 5    1  0.1227473E+001  0.8528284E+02  0.7546771E-02  0.1314695E+00
          1   -1    0    0  501    0  0.00000000000E+00  0.00000000000E+00  0.10250880854E+03  0.10250880854E+03  0.00000000000E+00 0. -1.
         -1   -1    0    0    0  501 -0.00000000000E+00 -0.00000000000E+00 -0.17737899037E+02  0.17737899037E+02  0.00000000000E+00 0.  1.
         23    2    1    2    0    0  0.00000000000E+00  0.00000000000E+00  0.84770909500E+02  0.12024670757E+03  0.85282844611E+02 0.  0.
        -13    1    3    3    0    0  0.11134528926E+02 -0.21659487392E+02  0.91738212387E+02  0.94915808696E+02  0.00000000000E+00 0. -1.
         13    1    3    3    0    0 -0.11134528926E+02  0.21659487392E+02 -0.69673028865E+01  0.25330898879E+02  0.00000000000E+00 0.  1.
<mgrwt>
<rscale>  0 0.85282845E+02</rscale>
<asrwt>0</asrwt>
<pdfrwt beam="1">  1        1 0.15770586E-01 0.85282845E+02</pdfrwt>
<pdfrwt beam="2">  1       -1 0.27289076E-02 0.85282845E+02</pdfrwt>
<totfact> 0.12571006E+05</totfact>
</mgrwt>
</event>
<event>
 5    1  0.1227473E+001  0.9114708E+02  0.7546771E-02  0.1300097E+00
          2   -1    0    0  501    0  0.00000000000E+00  0.00000000000E+00  0.59857957290E+02  0.59857957290E+02  0.00000000000E+00 0. -1.
         -2   -1    0    0    0  501 -0.00000000000E+00 -0.00000000000E+00 -0.34697936338E+02  0.34697936338E+02  0.00000000000E+00 0.  1.
         23    2    1    2    0    0  0.00000000000E+00  0.00000000000E+00  0.25160020953E+02  0.94555893628E+02  0.91147080949E+02 0.  0.
        -13    1    3    3    0    0  0.14813733063E+02  0.19408166124E+02 -0.27340635466E+02  0.36655612766E+02  0.00000000000E+00 0.  1.
         13    1    3    3    0    0 -0.14813733063E+02 -0.19408166124E+02  0.52500656419E+02  0.57900280862E+02  0.00000000000E+00 0. -1.
<mgrwt>
<rscale>  0 0.91147081E+02</rscale>
<asrwt>0</asrwt>
<pdfrwt beam="1">  1        2 0.92089165E-02 0.91147081E+02</pdfrwt>
<pdfrwt beam="2">  1       -2 0.53381440E-02 0.91147081E+02</pdfrwt>
<totfact> 0.10609965E+05</totfact>
</mgrwt>
</event>
<event>
 5    1  0.1227473E+001  0.9587545E+02  0.7546771E-02  0.1289216E+00
          1   -1    0    0  501    0  0.00000000000E+00  0.00000000000E+00  0.87940392182E+01  0.87940392182E+01  0.00000000000E+00 0. -1.
         -1   -1    0    0    0  501 -0.00000000000E+00 -0.00000000000E+00 -0.26131627499E+03  0.26131627499E+03  0.00000000000E+00 0.  1.
         23    2    1    2    0    0  0.00000000000E+00  0.00000000000E+00 -0.25252223577E+03  0.27011031421E+03  0.95875451929E+02 0.  0.
        -11    1    3    3    0    0 -0.29925861070E+02 -0.37448712383E+02 -0.12696460239E+03  0.13571283462E+03  0.00000000000E+00 0.  1.
         11    1    3    3    0    0  0.29925861070E+02  0.37448712383E+02 -0.12555763339E+03  0.13439747960E+03  0.00000000000E+00 0. -1.
<mgrwt>
<rscale>  0 0.95875452E+02</rscale>
<asrwt>0</asrwt>
<pdfrwt beam="1">  1        1 0.13529291E-02 0.95875452E+02</pdfrwt>
<pdfrwt beam="2">  1       -1 0.40202504E-01 0.95875452E+02</pdfrwt>
<totfact> 0.55920062E+04</totfact>
</mgrwt>
</event>
<event>
 5    1  0.1227473E+001  0.9336563E+02  0.7546771E-02  0.1294900E+00
          4   -1    0    0  501    0  0.00000000000E+00  0.00000000000E+00  0.85203955413E+02  0.85203955413E+02  0.00000000000E+00 0. -1.
         -4   -1    0    0    0  501 -0.00000000000E+00 -0.00000000000E+00 -0.25577276054E+02  0.25577276054E+02  0.00000000000E+00 0.  1.
         23    2    1    2    0    0  0.00000000000E+00  0.00000000000E+00  0.59626679358E+02  0.11078123147E+03  0.93365627262E+02 0.  0.
        -11    1    3    3    0    0 -0.13308468716E+02  0.27976488824E+02 -0.11621679766E+02  0.33088709662E+02  0.00000000000E+00 0.  1.
         11    1    3    3    0    0  0.13308468716E+02 -0.27976488824E+02  0.71248359124E+02  0.77692521805E+02  0.00000000000E+00 0. -1.
<mgrwt>
<rscale>  0 0.93365627E+02</rscale>
<asrwt>0</asrwt>
<pdfrwt beam="1">  1        4 0.13108301E-01 0.93365627E+02</pdfrwt>
<pdfrwt beam="2">  1       -4 0.39349656E-02 0.93365627E+02</pdfrwt>
<totfact> 0.24197099E+04</totfact>
</mgrwt>
</event>
<event>
 5    1  0.1227473E+001  0.8925364E+02  0.7546771E-02  0.1304669E+00
          3   -1    0    0  501    0  0.00000000000E+00  0.00000000000E+00  0.83638342330E+01  0.83638342330E+01  0.00000000000E+00 0. -1.
         -3   -1    0    0    0  501 -0.00000000000E+00 -0.00000000000E+00 -0.23811484332E+03  0.23811484332E+03  0.00000000000E+00 0.  1.
         23    2    1    2    0    0  0.00000000000E+00  0.00000000000E+00 -0.22975100908E+03  0.24647867755E+03  0.89253640327E+02 0.  0.
        -13    1    3    3    0    0 -0.74837310675E+01 -0.43853786381E+02 -0.12459690432E+03  0.13230098025E+03  0.00000000000E+00 0. -1.
         13    1    3    3    0    0  0.74837310675E+01  0.43853786381E+02 -0.10515410477E+03  0.11417769730E+03  0.00000000000E+00 0.  1.
<mgrwt>
<rscale>  0 0.89253640E+02</rscale>
<asrwt>0</asrwt>
<pdfrwt beam="1">  1        3 0.12867439E-02 0.89253640E+02</pdfrwt>
<pdfrwt beam="2">  1       -3 0.36633048E-01 0.89253640E+02</pdfrwt>
<totfact> 0.27802946E+04</totfact>
</mgrwt>
</event>
<event>
 5    1  0.1227473E+001  0.9177960E+02  0.7546771E-02  0.1298598E+00
          1   -1    0    0  501    0  0.00000000000E+00  0.00000000000E+00  0.21313222539E+03  0.21313222539E+03  0.00000000000E+00 0. -1.
         -1   -1    0    0    0  501 -0.00000000000E+00 -0.00000000000E+00 -0.98805979769E+01  0.98805979769E+01  0.00000000000E+00 0.  1.
         23    2    1    2    0    0  0.00000000000E+00  0.00000000000E+00  0.20325162742E+03  0.22301282337E+03  0.91779601983E+02 0.  0.
        -13    1    3    3    0    0  0.42079152213E+02  0.17494619829E+02  0.88505157996E+02  0.99548379022E+02  0.00000000000E+00 0. -1.
         13    1    3    3    0    0 -0.42079152213E+02 -0.17494619829E+02  0.11474646942E+03  0.12346444435E+03  0.00000000000E+00 0.  1.
<mgrwt>
<rscale>  0 0.91779602E+02</rscale>
<asrwt>0</asrwt>
<pdfrwt beam="1">  1        1 0.32789570E-01 0.91779602E+02</pdfrwt>
<pdfrwt beam="2">  1       -1 0.15200922E-02 0.91779602E+02</pdfrwt>
<totfact> 0.11777963E+05</totfact>
</mgrwt>
</event>
<event>
 5    1  0.1227473E+001  0.9177209E+02  0.7546771E-02  0.1298616E+00
          1   -1    0    0  501    0  0.00000000000E+00  0.00000000000E+00  0.11233354358E+03  0.11233354358E+03  0.00000000000E+00 0. -1.
         -1   -1    0    0    0  501 -0.00000000000E+00 -0.00000000000E+00 -0.18743549366E+02  0.18743549366E+02  0.00000000000E+00 0.  1.
         23    2    1    2    0    0  0.00000000000E+00  0.00000000000E+00  0.93589994211E+02  0.13107709294E+03  0.91772094223E+02 0.  0.
        -13    1    3    3    0    0  0.31280617615E+02 -0.27958623880E+02  0.20251571240E+02  0.46586348057E+02  0.00000000000E+00 0.  1.
         13    1    3    3    0    0 -0.31280617615E+02  0.27958623880E+02  0.73338422970E+02  0.84490744886E+02  0.00000000000E+00 0. -1.
<mgrwt>
<rscale>  0 0.91772094E+02</rscale>
<asrwt>0</asrwt>
<pdfrwt beam="1">  1        1 0.17282083E-01 0.91772094E+02</pdfrwt>
<pdfrwt beam="2">  1       -1 0.28836230E-02 0.91772094E+02</pdfrwt>
<totfact> 0.10465106E+05</totfact>
</mgrwt>
</event>
<event>
 5    1  0.1227473E+001  0.9034429E+02  0.7546771E-02  0.1302020E+00
         -2   -1    0    0    0  501 -0.00000000000E+00  0.00000000000E+00  0.33080806817E+02  0.33080806817E+02  0.00000000000E+00 0.  1.
          2   -1    0    0  501    0  0.00000000000E+00 -0.00000000000E+00 -0.61682979472E+02  0.61682979472E+02  0.00000000000E+00 0. -1.
         23    2    1    2    0    0  0.00000000000E+00  0.00000000000E+00 -0.28602172655E+02  0.94763786290E+02  0.90344290973E+02 0.  0.
        -13    1    3    3    0    0 -0.39555336932E+02 -0.36605108907E+01 -0.36858897281E+02  0.54190426540E+02  0.00000000000E+00 0. -1.
         13    1    3    3    0    0  0.39555336932E+02  0.36605108907E+01  0.82567246264E+01  0.40573359750E+02  0.00000000000E+00 0.  1.
<mgrwt>
<rscale>  0 0.90344291E+02</rscale>
<asrwt>0</asrwt>
<pdfrwt beam="2">  1        2 0.94896890E-02 0.90344291E+02</pdfrwt>
<pdfrwt beam="1">  1       -2 0.50893550E-02 0.90344291E+02</pdfrwt>
<totfact> 0.10965412E+05</totfact>
</mgrwt>
</event>
<event>
 5    1  0.1227473E+001  0.8983554E+02  0.7546771E-02  0.1303250E+00
         -1   -1    0    0    0  501 -0.00000000000E+00  0.00000000000E+00  0.32635238051E+02  0.32635238051E+02  0.00000000000E+00 0.  1.
          1   -1    0    0  501    0  0.00000000000E+00 -0.00000000000E+00 -0.61822936070E+02  0.61822936070E+02  0.00000000000E+00 0. -1.
         23    2    1    2    0    0  0.00000000000E+00  0.00000000000E+00 -0.29187698019E+02  0.94458174121E+02  0.89835543871E+02 0.  0.
        -11    1    3    3    0    0 -0.38272246078E+02  0.18336785307E+02  0.88092448363E+00  0.42447362029E+02  0.00000000000E+00 0.  1.
         11    1    3    3    0    0  0.38272246078E+02 -0.18336785307E+02 -0.30068622503E+02  0.52010812092E+02  0.00000000000E+00 0. -1.
<mgrwt>
<rscale>  0 0.89835544E+02</rscale>
<asrwt>0</asrwt>
<pdfrwt beam="2">  1        1 0.95112208E-02 0.89835544E+02</pdfrwt>
<pdfrwt beam="1">  1       -1 0.50208059E-02 0.89835544E+02</pdfrwt>
<totfact> 0.10085944E+05</totfact>
</mgrwt>
</event>
<event>
 5    1  0.1227473E+001  0.9510141E+02  0.7546771E-02  0.1290948E+00
          1   -1    0    0  501    0  0.00000000000E+00  0.00000000000E+00  0.17204233136E+02  0.17204233136E+02  0.00000000000E+00 0. -1.
         -1   -1    0    0    0  501 -0.00000000000E+00 -0.00000000000E+00 -0.13142519472E+03  0.13142519472E+03  0.00000000000E+00 0.  1.
         23    2    1    2    0    0  0.00000000000E+00  0.00000000000E+00 -0.11422096159E+03  0.14862942786E+03  0.95101413027E+02 0.  0.
        -13    1    3    3    0    0 -0.41028513642E+02  0.12415674028E+02 -0.89275697395E+02  0.99033519773E+02  0.00000000000E+00 0.  1.
         13    1    3    3    0    0  0.41028513642E+02 -0.12415674028E+02 -0.24945264194E+02  0.49595908087E+02  0.00000000000E+00 0. -1.
<mgrwt>
<rscale>  0 0.95101413E+02</rscale>
<asrwt>0</asrwt>
<pdfrwt beam="1">  1        1 0.26468053E-02 0.95101413E+02</pdfrwt>
<pdfrwt beam="2">  1       -1 0.20219260E-01 0.95101413E+02</pdfrwt>
<totfact> 0.69065081E+04</totfact>
</mgrwt>
</event>
<event>
 5    1  0.1227473E+001  0.8997880E+02  0.7546771E-02  0.1302903E+00
         -1   -1    0    0    0  501 -0.00000000000E+00  0.00000000000E+00  0.65257333206E+02  0.65257333206E+02  0.00000000000E+00 0.  1.
          1   -1    0    0  501    0  0.00000000000E+00 -0.00000000000E+00 -0.31016376033E+02  0.31016376033E+02  0.00000000000E+00 0. -1.
         23    2    1    2    0    0  0.00000000000E+00  0.00000000000E+00  0.34240957173E+02  0.96273709239E+02  0.89978797182E+02 0.  0.
        -11    1    3    3    0    0  0.38482129884E+02  0.37515763199E+01  0.41731821444E+02  0.56890188665E+02  0.00000000000E+00 0.  1.
         11    1    3    3    0    0 -0.38482129884E+02 -0.37515763199E+01 -0.74908642706E+01  0.39383520574E+02  0.00000000000E+00 0. -1.
<mgrwt>
<rscale>  0 0.89978797E+02</rscale>
<asrwt>0</asrwt>
<pdfrwt beam="2">  1        1 0.47717502E-02 0.89978797E+02</pdfrwt>
<pdfrwt beam="1">  1       -1 0.10039590E-01 0.89978797E+02</pdfrwt>
<totfact> 0.90508697E+04</totfact>
</mgrwt>
</event>
<event>
 5    1  0.1227473E+001  0.8749135E+02  0.7546771E-02  0.1309043E+00
          1   -1    0    0  501    0  0.00000000000E+00  0.00000000000E+00  0.17354325608E+03  0.17354325608E+03  0.00000000000E+00 0. -1.
         -1   -1    0    0    0  501 -0.00000000000E+00 -0.00000000000E+00 -0.11027131401E+02  0.11027131401E+02  0.00000000000E+00 0.  1.
         23    2    1    2    0    0  0.00000000000E+00  0.00000000000E+00  0.16251612468E+03  0.18457038748E+03  0.87491354740E+02 0.  0.
        -11    1    3    3    0    0 -0.30560768874E+02  0.31204345236E+02  0.76085263247E+02  0.87730490932E+02  0.00000000000E+00 0. -1.
         11    1    3    3    0    0  0.30560768874E+02 -0.31204345236E+02  0.86430861434E+02  0.96839896551E+02  0.00000000000E+00 0.  1.
<mgrwt>
<rscale>  0 0.87491355E+02</rscale>
<asrwt>0</asrwt>
<pdfrwt beam="1">  1        1 0.26698960E-01 0.87491355E+02</pdfrwt>
<pdfrwt beam="2">  1       -1 0.16964819E-02 0.87491355E+02</pdfrwt>
<totfact> 0.12870078E+05</totfact>
</mgrwt>
</event>
<event>
 5    1  0.1227473E+001  0.9155751E+02  0.7546771E-02  0.1299123E+00
         -3   -1    0    0    0  501 -0.00000000000E+00  0.00000000000E+00  0.15351462939E+02  0.15351462939E+02  0.00000000000E+00 0.  1.
          3   -1    0    0  501    0  0.00000000000E+00 -0.00000000000E+00 -0.13651430791E+03  0.13651430791E+03  0.00000000000E+00 0. -1.
         23    2    1    2    0    0  0.00000000000E+00  0.00000000000E+00 -0.12116284497E+03  0.15186577085E+03  0.91557508454E+02 0.  0.
        -13    1    3    3    0    0 -0.26131429902E+02  0.33116735738E+02 -0.90072797883E+02  0.99461946156E+02  0.00000000000E+00 0.  1.
         13    1    3    3    0    0  0.26131429902E+02 -0.33116735738E+02 -0.31090047088E+02  0.52403824694E+02  0.00000000000E+00 0. -1.
<mgrwt>
<rscale>  0 0.91557508E+02</rscale>
<asrwt>0</asrwt>
<pdfrwt beam="2">  1        3 0.21002202E-01 0.91557508E+02</pdfrwt>
<pdfrwt beam="1">  1       -3 0.23617635E-02 0.91557508E+02</pdfrwt>
<totfact> 0.30842701E+04</totfact>
</mgrwt>
</event>
<event>
 5    1  0.1227473E+001  0.1158041E+03  0.7546771E-02  0.1250184E+00
         -1   -1    0    0    0  501 -0.00000000000E+00  0.00000000000E+00  0.27612857693E+02  0.27612857693E+02  0.00000000000E+00 0.  1.
          1   -1    0    0  501    0  0.00000000000E+00 -0.00000000000E+00 -0.12141609592E+03  0.12141609592E+03  0.00000000000E+00 0. -1.
         23    2    1    2    0    0  0.00000000000E+00  0.00000000000E+00 -0.93803238225E+02  0.14902895361E+03  0.11580406518E+03 0.  0.
        -13    1    3    3    0    0 -0.26401981030E+02 -0.27455896503E+02 -0.10302244789E+03  0.10983858895E+03  0.00000000000E+00 0. -1.
         13    1    3    3    0    0  0.26401981030E+02  0.27455896503E+02  0.92192096611E+01  0.39190364656E+02  0.00000000000E+00 0.  1.
<mgrwt>
<rscale>  0 0.11580407E+03</rscale>
<asrwt>0</asrwt>
<pdfrwt beam="2">  1        1 0.18679400E-01 0.11580407E+03</pdfrwt>
<pdfrwt beam="1">  1       -1 0.42481319E-02 0.11580407E+03</pdfrwt>
<totfact> 0.55875625E+04</totfact>
</mgrwt>
</event>
<event>
 5    1  0.1227473E+001  0.9126833E+02  0.7546771E-02  0.1299809E+00
         -2   -1    0    0    0  501 -0.00000000000E+00  0.00000000000E+00  0.75957511262E+02  0.75957511262E+02  0.00000000000E+00 0.  1.
          2   -1    0    0  501    0  0.00000000000E+00 -0.00000000000E+00 -0.27416343150E+02  0.27416343150E+02  0.00000000000E+00 0. -1.
         23    2    1    2    0    0  0.00000000000E+00  0.00000000000E+00  0.48541168112E+02  0.10337385441E+03  0.91268333908E+02 0.  0.
        -13    1    3    3    0    0  0.40808248595E+02 -0.10944430274E+02  0.43802687302E+02  0.60858599411E+02  0.00000000000E+00 0.  1.
         13    1    3    3    0    0 -0.40808248595E+02  0.10944430274E+02  0.47384808097E+01  0.42515255001E+02  0.00000000000E+00 0. -1.
<mgrwt>
<rscale>  0 0.91268334E+02</rscale>
<asrwt>0</asrwt>
<pdfrwt beam="2">  1        2 0.42178990E-02 0.91268334E+02</pdfrwt>
<pdfrwt beam="1">  1       -2 0.11685771E-01 0.91268334E+02</pdfrwt>
<totfact> 0.86085574E+04</totfact>
</mgrwt>
</event>
<event>
 5    1  0.1227473E+001  0.9335986E+02  0.7546771E-02  0.1294913E+00
         -1   -1    0    0    0  501 -0.00000000000E+00  0.00000000000E+00  0.20213832385E+02  0.20213832385E+02  0.00000000000E+00 0.  1.
          1   -1    0    0  501    0  0.00000000000E+00 -0.00000000000E+00 -0.10779826159E+03  0.10779826159E+03  0.00000000000E+00 0. -1.
         23    2    1    2    0    0  0.00000000000E+00  0.00000000000E+00 -0.87584429209E+02  0.12801209398E+03  0.93359862707E+02 0.  0.
        -11    1    3    3    0    0 -0.32271149736E+02 -0.11046089332E+02 -0.95747343460E-01  0.34109417502E+02  0.00000000000E+00 0.  1.
         11    1    3    3    0    0  0.32271149736E+02  0.11046089332E+02 -0.87488681865E+02  0.93902676476E+02  0.00000000000E+00 0. -1.
<mgrwt>
<rscale>  0 0.93359863E+02</rscale>
<asrwt>0</asrwt>
<pdfrwt beam="2">  1        1 0.16584348E-01 0.93359863E+02</pdfrwt>
<pdfrwt beam="1">  1       -1 0.31098203E-02 0.93359863E+02</pdfrwt>
<totfact> 0.99167173E+04</totfact>
</mgrwt>
</event>
<event>
 5    1  0.1227473E+001  0.9144269E+02  0.7546771E-02  0.1299395E+00
          1   -1    0    0  501    0  0.00000000000E+00  0.00000000000E+00  0.63293504738E+02  0.63293504738E+02  0.00000000000E+00 0. -1.
         -1   -1    0    0    0  501 -0.00000000000E+00 -0.00000000000E+00 -0.33027736303E+02  0.33027736303E+02  0.00000000000E+00 0.  1.
         23    2    1    2    0    0  0.00000000000E+00  0.00000000000E+00  0.30265768435E+02  0.96321241042E+02  0.91442685530E+02 0.  0.
        -13    1    3    3    0    0  0.36744923523E+02 -0.19452705229E+02 -0.49041670121E+01  0.41864639011E+02  0.00000000000E+00 0.  1.
         13    1    3    3    0    0 -0.36744923523E+02  0.19452705229E+02  0.35169935447E+02  0.54456602031E+02  0.00000000000E+00 0. -1.
<mgrwt>
<rscale>  0 0.91442686E+02</rscale>
<asrwt>0</asrwt>
<pdfrwt beam="1">  1        1 0.97374622E-02 0.91442686E+02</pdfrwt>
<pdfrwt beam="2">  1       -1 0.50811902E-02 0.91442686E+02</pdfrwt>
<totfact> 0.96375206E+04</totfact>
</mgrwt>
</event>
<event>
 5    1  0.1227473E+001  0.9266520E+02  0.7546771E-02  0.1296523E+00
         -1   -1    0    0    0  501 -0.00000000000E+00  0.00000000000E+00  0.29491536499E+02  0.29491536499E+02  0.00000000000E+00 0.  1.
          1   -1    0    0  501    0  0.00000000000E+00 -0.00000000000E+00 -0.72790704165E+02  0.72790704165E+02  0.00000000000E+00 0. -1.
         23    2    1    2    0    0  0.00000000000E+00  0.00000000000E+00 -0.43299167666E+02  0.10228224066E+03  0.92665197538E+02 0.  0.
        -11    1    3    3    0    0  0.82632176898E+01  0.45445385134E+02 -0.17647566732E+02  0.49446945387E+02  0.00000000000E+00 0. -1.
         11    1    3    3    0    0 -0.82632176898E+01 -0.45445385134E+02 -0.25651600933E+02  0.52835295277E+02  0.00000000000E+00 0.  1.
<mgrwt>
<rscale>  0 0.92665198E+02</rscale>
<asrwt>0</asrwt>
<pdfrwt beam="2">  1        1 0.11198570E-01 0.92665198E+02</pdfrwt>
<pdfrwt beam="1">  1       -1 0.45371596E-02 0.92665198E+02</pdfrwt>
<totfact> 0.94927672E+04</totfact>
</mgrwt>
</event>
<event>
 5    1  0.1227473E+001  0.8995552E+02  0.7546771E-02  0.1302959E+00
         -1   -1    0    0    0  501 -0.00000000000E+00  0.00000000000E+00  0.15312127644E+02  0.15312127644E+02  0.00000000000E+00 0.  1.
          1   -1    0    0  501    0  0.00000000000E+00 -0.00000000000E+00 -0.13211743287E+03  0.13211743287E+03  0.00000000000E+00 0. -1.
         23    2    1    2    0    0  0.00000000000E+00  0.00000000000E+00 -0.11680530523E+03  0.14742956051E+03  0.89955522255E+02 0.  0.
        -11    1    3    3    0    0  0.29604152595E+02  0.33829253900E+02 -0.60819554313E+02  0.75629640070E+02  0.00000000000E+00 0. -1.
         11    1    3    3    0    0 -0.29604152595E+02 -0.33829253900E+02 -0.55985750914E+02  0.71799920444E+02  0.00000000000E+00 0.  1.
<mgrwt>
<rscale>  0 0.89955522E+02</rscale>
<asrwt>0</asrwt>
<pdfrwt beam="2">  1        1 0.20325758E-01 0.89955522E+02</pdfrwt>
<pdfrwt beam="1">  1       -1 0.23557120E-02 0.89955522E+02</pdfrwt>
<totfact> 0.11364825E+05</totfact>
</mgrwt>
</event>
<event>
 5    1  0.1227473E+001  0.8829967E+02  0.7546771E-02  0.1307022E+00
         -1   -1    0    0    0  501 -0.00000000000E+00  0.00000000000E+00  0.20874640203E+03  0.20874640203E+03  0.00000000000E+00 0.  1.
          1   -1    0    0  501    0  0.00000000000E+00 -0.00000000000E+00 -0.93376848713E+01  0.93376848713E+01  0.00000000000E+00 0. -1.
         23    2    1    2    0    0  0.00000000000E+00  0.00000000000E+00  0.19940871716E+03  0.21808408690E+03  0.88299674296E+02 0.  0.
        -11    1    3    3    0    0 -0.17009182813E+02 -0.28948813285E+02  0.17050942488E+03  0.17378380265E+03  0.00000000000E+00 0.  1.
         11    1    3    3    0    0  0.17009182813E+02  0.28948813285E+02  0.28899292279E+02  0.44300284252E+02  0.00000000000E+00 0. -1.
<mgrwt>
<rscale>  0 0.88299674E+02</rscale>
<asrwt>0</asrwt>
<pdfrwt beam="2">  1        1 0.14365671E-02 0.88299674E+02</pdfrwt>
<pdfrwt beam="1">  1       -1 0.32114828E-01 0.88299674E+02</pdfrwt>
<totfact> 0.74533415E+04</totfact>
</mgrwt>
</event>
<event>
 5    1  0.1227473E+001  0.9099895E+02  0.7546771E-02  0.1300450E+00
         -2   -1    0    0    0  501 -0.00000000000E+00  0.00000000000E+00  0.10080456333E+02  0.10080456333E+02  0.00000000000E+00 0.  1.
          2   -1    0    0  501    0  0.00000000000E+00 -0.00000000000E+00 -0.20536790574E+03  0.20536790574E+03  0.00000000000E+00 0. -1.
         23    2    1    2    0    0  0.00000000000E+00  0.00000000000E+00 -0.19528744941E+03  0.21544836208E+03  0.90998949576E+02 0.  0.
        -11    1    3    3    0    0 -0.37394467276E+02  0.65490867980E+01 -0.38266454912E+02  0.53903230815E+02  0.00000000000E+00 0.  1.
         11    1    3    3    0    0  0.37394467276E+02 -0.65490867980E+01 -0.15702099450E+03  0.16154513126E+03  0.00000000000E+00 0. -1.
<mgrwt>
<rscale>  0 0.90998950E+02</rscale>
<asrwt>0</asrwt>
<pdfrwt beam="2">  1        2 0.31595060E-01 0.90998950E+02</pdfrwt>
<pdfrwt beam="1">  1       -2 0.15508396E-02 0.90998950E+02</pdfrwt>
<totfact> 0.15699424E+05</totfact>
</mgrwt>
</event>
<event>
 5    1  0.1227473E+001  0.9179805E+02  0.7546771E-02  0.1298555E+00
          2   -1    0    0  501    0  0.00000000000E+00  0.00000000000E+00  0.33305593983E+02  0.33305593983E+02  0.00000000000E+00 0. -1.
         -2   -1    0    0    0  501 -0.00000000000E+00 -0.00000000000E+00 -0.63254260232E+02  0.63254260232E+02  0.00000000000E+00 0.  1.
         23    2    1    2    0    0  0.00000000000E+00  0.00000000000E+00 -0.29948666249E+02  0.96559854215E+02  0.91798054642E+02 0.  0.
        -11    1    3    3    0    0  0.35550089769E+02 -0.80871099568E+01 -0.44304615830E+02  0.57376904883E+02  0.00000000000E+00 0.  1.
         11    1    3    3    0    0 -0.35550089769E+02  0.80871099568E+01  0.14355949582E+02  0.39182949333E+02  0.00000000000E+00 0. -1.
<mgrwt>
<rscale>  0 0.91798055E+02</rscale>
<asrwt>0</asrwt>
<pdfrwt beam="1">  1        2 0.51239376E-02 0.91798055E+02</pdfrwt>
<pdfrwt beam="2">  1       -2 0.97314246E-02 0.91798055E+02</pdfrwt>
<totfact> 0.89146913E+04</totfact>
</mgrwt>
</event>
<event>
 5    1  0.1227473E+001  0.9208111E+02  0.7546771E-02  0.1297889E+00
         -3   -1    0    0    0  501 -0.00000000000E+00  0.00000000000E+00  0.69950773978E+01  0.69950773978E+01  0.00000000000E+00 0. -1.
          3   -1    0    0  501    0  0.00000000000E+00 -0.00000000000E+00 -0.30303205966E+03  0.30303205966E+03  0.00000000000E+00 0.  1.
         23    2    1    2    0    0  0.00000000000E+00  0.00000000000E+00 -0.29603698226E+03  0.31002713705E+03  0.92081110143E+02 0.  0.
        -13    1    3    3    0    0  0.45515135981E+02  0.69103083670E+01 -0.14601881195E+03  0.15310412604E+03  0.00000000000E+00 0.  1.
         13    1    3    3    0    0 -0.45515135981E+02 -0.69103083670E+01 -0.15001817031E+03  0.15692301102E+03  0.00000000000E+00 0. -1.
<mgrwt>
<rscale>  0 0.92081110E+02</rscale>
<asrwt>0</asrwt>
<pdfrwt beam="2">  1        3 0.46620320E-01 0.92081110E+02</pdfrwt>
<pdfrwt beam="1">  1       -3 0.10761657E-02 0.92081110E+02</pdfrwt>
<totfact> 0.23029317E+04</totfact>
</mgrwt>
</event>
<event>
 5    1  0.1227473E+001  0.9063433E+02  0.7546771E-02  0.1301323E+00
          1   -1    0    0  501    0  0.00000000000E+00  0.00000000000E+00  0.15880467136E+02  0.15880467136E+02  0.00000000000E+00 0. -1.
         -1   -1    0    0    0  501 -0.00000000000E+00 -0.00000000000E+00 -0.12931896915E+03  0.12931896915E+03  0.00000000000E+00 0.  1.
         23    2    1    2    0    0  0.00000000000E+00  0.00000000000E+00 -0.11343850201E+03  0.14519943629E+03  0.90634334324E+02 0.  0.
        -11    1    3    3    0    0 -0.24924503253E+02  0.37182771619E+02 -0.45407441553E+02  0.63762254635E+02  0.00000000000E+00 0. -1.
         11    1    3    3    0    0  0.24924503253E+02 -0.37182771619E+02 -0.68031060461E+02  0.81437181651E+02  0.00000000000E+00 0.  1.
<mgrwt>
<rscale>  0 0.90634334E+02</rscale>
<asrwt>0</asrwt>
<pdfrwt beam="1">  1        1 0.24431487E-02 0.90634334E+02</pdfrwt>
<pdfrwt beam="2">  1       -1 0.19895227E-01 0.90634334E+02</pdfrwt>
<totfact> 0.78514717E+04</totfact>
</mgrwt>
</event>
<event>
 5    1  0.1227473E+001  0.9221111E+02  0.7546771E-02  0.1297584E+00
          2   -1    0    0  501    0  0.00000000000E+00  0.00000000000E+00  0.99069474576E+02  0.99069474576E+02  0.00000000000E+00 0. -1.
         -2   -1    0    0    0  501 -0.00000000000E+00 -0.00000000000E+00 -0.21456883060E+02  0.21456883060E+02  0.00000000000E+00 0.  1.
         23    2    1    2    0    0  0.00000000000E+00  0.00000000000E+00  0.77612591516E+02  0.12052635764E+03  0.92211108458E+02 0.  0.
        -13    1    3    3    0    0 -0.15239116994E+02 -0.11602282969E+02 -0.16010886309E+02  0.24963816560E+02  0.00000000000E+00 0.  1.
         13    1    3    3    0    0  0.15239116994E+02  0.11602282969E+02  0.93623477824E+02  0.95562541075E+02  0.00000000000E+00 0. -1.
<mgrwt>
<rscale>  0 0.92211108E+02</rscale>
<asrwt>0</asrwt>
<pdfrwt beam="1">  1        2 0.15241457E-01 0.92211108E+02</pdfrwt>
<pdfrwt beam="2">  1       -2 0.33010590E-02 0.92211108E+02</pdfrwt>
<totfact> 0.11857983E+05</totfact>
</mgrwt>
</event>
<event>
 5    1  0.1227473E+001  0.9148463E+02  0.7546771E-02  0.1299296E+00
         -1   -1    0    0    0  501 -0.00000000000E+00  0.00000000000E+00  0.42918319645E+02  0.42918319645E+02  0.00000000000E+00 0.  1.
          1   -1    0    0  501    0  0.00000000000E+00 -0.00000000000E+00 -0.48752124204E+02  0.48752124204E+02  0.00000000000E+00 0. -1.
         23    2    1    2    0    0  0.00000000000E+00  0.00000000000E+00 -0.58338045595E+01  0.91670443849E+02  0.91484627123E+02 0.  0.
        -11    1    3    3    0    0 -0.33331758458E+02  0.31169885761E+02 -0.60523711456E+01  0.46034759657E+02  0.00000000000E+00 0. -1.
         11    1    3    3    0    0  0.33331758458E+02 -0.31169885761E+02  0.21856658608E+00  0.45635684191E+02  0.00000000000E+00 0.  1.
<mgrwt>
<rscale>  0 0.91484627E+02</rscale>
<asrwt>0</asrwt>
<pdfrwt beam="2">  1        1 0.75003268E-02 0.91484627E+02</pdfrwt>
<pdfrwt beam="1">  1       -1 0.66028184E-02 0.91484627E+02</pdfrwt>
<totfact> 0.92531018E+04</totfact>
</mgrwt>
</event>
<event>
 5    1  0.1227473E+001  0.9282477E+02  0.7546771E-02  0.1296152E+00
         -1   -1    0    0    0  501 -0.00000000000E+00  0.00000000000E+00  0.25377457997E+02  0.25377457997E+02  0.00000000000E+00 0.  1.
          1   -1    0    0  501    0  0.00000000000E+00 -0.00000000000E+00 -0.84882794672E+02  0.84882794672E+02  0.00000000000E+00 0. -1.
         23    2    1    2    0    0  0.00000000000E+00  0.00000000000E+00 -0.59505336675E+02  0.11026025267E+03  0.92824771618E+02 0.  0.
        -11    1    3    3    0    0  0.33644672859E+02  0.22523630842E+02 -0.28008735556E+01  0.40584761313E+02  0.00000000000E+00 0.  1.
         11    1    3    3    0    0 -0.33644672859E+02 -0.22523630842E+02 -0.56704463119E+02  0.69675491356E+02  0.00000000000E+00 0. -1.
<mgrwt>
<rscale>  0 0.92824772E+02</rscale>
<asrwt>0</asrwt>
<pdfrwt beam="2">  1        1 0.13058892E-01 0.92824772E+02</pdfrwt>
<pdfrwt beam="1">  1       -1 0.39042243E-02 0.92824772E+02</pdfrwt>
<totfact> 0.96816570E+04</totfact>
</mgrwt>
</event>
<event>
 5    1  0.1227473E+001  0.8588680E+02  0.7546771E-02  0.1313130E+00
         -2   -1    0    0    0  501 -0.00000000000E+00  0.00000000000E+00  0.31739991743E+02  0.31739991743E+02  0.00000000000E+00 0.  1.
          2   -1    0    0  501    0  0.00000000000E+00 -0.00000000000E+00 -0.58101323308E+02  0.58101323308E+02  0.00000000000E+00 0. -1.
         23    2    1    2    0    0  0.00000000000E+00  0.00000000000E+00 -0.26361331565E+02  0.89841315051E+02  0.85886798102E+02 0.  0.
        -13    1    3    3    0    0  0.23650789136E+02 -0.55224336448E+01 -0.50227121381E+02  0.55790866836E+02  0.00000000000E+00 0. -1.
         13    1    3    3    0    0 -0.23650789136E+02  0.55224336448E+01  0.23865789816E+02  0.34050448215E+02  0.00000000000E+00 0.  1.
<mgrwt>
<rscale>  0 0.85886798E+02</rscale>
<asrwt>0</asrwt>
<pdfrwt beam="2">  1        2 0.89386651E-02 0.85886798E+02</pdfrwt>
<pdfrwt beam="1">  1       -2 0.48830757E-02 0.85886798E+02</pdfrwt>
<totfact> 0.12438123E+05</totfact>
</mgrwt>
</event>
<event>
 5    1  0.1227473E+001  0.8992198E+02  0.7546771E-02  0.1303041E+00
          3   -1    0    0  501    0  0.00000000000E+00  0.00000000000E+00  0.18960518078E+02  0.18960518078E+02  0.00000000000E+00 0. -1.
         -3   -1    0    0    0  501 -0.00000000000E+00 -0.00000000000E+00 -0.10661579931E+03  0.10661579931E+03  0.00000000000E+00 0.  1.
         23    2    1    2    0    0  0.00000000000E+00  0.00000000000E+00 -0.87655281230E+02  0.12557631739E+03  0.89921983747E+02 0.  0.
        -11    1    3    3    0    0  0.17490114998E+02  0.16545523153E+02  0.91996262931E+01  0.25773854640E+02  0.00000000000E+00 0. -1.
         11    1    3    3    0    0 -0.17490114998E+02 -0.16545523153E+02 -0.96854907523E+02  0.99802462747E+02  0.00000000000E+00 0.  1.
<mgrwt>
<rscale>  0 0.89921984E+02</rscale>
<asrwt>0</asrwt>
<pdfrwt beam="1">  1        3 0.29170028E-02 0.89921984E+02</pdfrwt>
<pdfrwt beam="2">  1       -3 0.16402431E-01 0.89921984E+02</pdfrwt>
<totfact> 0.34128277E+04</totfact>
</mgrwt>
</event>
<event>
 5    1  0.1227473E+001  0.9001050E+02  0.7546771E-02  0.1302826E+00
         -4   -1    0    0    0  501 -0.00000000000E+00  0.00000000000E+00  0.15266497194E+02  0.15266497194E+02  0.00000000000E+00 0.  1.
          4   -1    0    0  501    0  0.00000000000E+00 -0.00000000000E+00 -0.13267433232E+03  0.13267433232E+03  0.00000000000E+00 0. -1.
         23    2    1    2    0    0  0.00000000000E+00  0.00000000000E+00 -0.11740783513E+03  0.14794082951E+03  0.90010495435E+02 0.  0.
        -13    1    3    3    0    0  0.31007708479E-01 -0.25040935680E+02  0.27591400065E+01  0.25192504338E+02  0.00000000000E+00 0.  1.
         13    1    3    3    0    0 -0.31007708479E-01  0.25040935680E+02 -0.12016697513E+03  0.12274832518E+03  0.00000000000E+00 0. -1.
<mgrwt>
<rscale>  0 0.90010495E+02</rscale>
<asrwt>0</asrwt>
<pdfrwt beam="2">  1        4 0.20411436E-01 0.90010495E+02</pdfrwt>
<pdfrwt beam="1">  1       -4 0.23486918E-02 0.90010495E+02</pdfrwt>
<totfact> 0.24613172E+04</totfact>
</mgrwt>
</event>
<event>
 5    1  0.1227473E+001  0.9294974E+02  0.7546771E-02  0.1295862E+00
          2   -1    0    0  501    0  0.00000000000E+00  0.00000000000E+00  0.21707418608E+03  0.21707418608E+03  0.00000000000E+00 0.  1.
         -2   -1    0    0    0  501 -0.00000000000E+00 -0.00000000000E+00 -0.99501172612E+01  0.99501172612E+01  0.00000000000E+00 0. -1.
         23    2    1    2    0    0  0.00000000000E+00  0.00000000000E+00  0.20712406882E+03  0.22702430335E+03  0.92949741386E+02 0.  0.
        -11    1    3    3    0    0  0.39661842583E+02  0.19335610648E+00  0.44395712755E+02  0.59532163195E+02  0.00000000000E+00 0. -1.
         11    1    3    3    0    0 -0.39661842583E+02 -0.19335610648E+00  0.16272835607E+03  0.16749214015E+03  0.00000000000E+00 0.  1.
<mgrwt>
<rscale>  0 0.92949741E+02</rscale>
<asrwt>0</asrwt>
<pdfrwt beam="1">  1        2 0.33396025E-01 0.92949741E+02</pdfrwt>
<pdfrwt beam="2">  1       -2 0.15307874E-02 0.92949741E+02</pdfrwt>
<totfact> 0.15130667E+05</totfact>
</mgrwt>
</event>
<event>
 5    1  0.1227473E+001  0.9146565E+02  0.7546771E-02  0.1299341E+00
          2   -1    0    0  501    0  0.00000000000E+00  0.00000000000E+00  0.22827649223E+03  0.22827649223E+03  0.00000000000E+00 0. -1.
         -2   -1    0    0    0  501 -0.00000000000E+00 -0.00000000000E+00 -0.91620974540E+01  0.91620974540E+01  0.00000000000E+00 0.  1.
         23    2    1    2    0    0  0.00000000000E+00  0.00000000000E+00  0.21911439477E+03  0.23743858968E+03  0.91465654062E+02 0.  0.
        -11    1    3    3    0    0 -0.31610309798E+02 -0.20535890924E+02  0.17677914625E+03  0.18075342611E+03  0.00000000000E+00 0. -1.
         11    1    3    3    0    0  0.31610309798E+02  0.20535890924E+02  0.42335248523E+02  0.56685163571E+02  0.00000000000E+00 0.  1.
<mgrwt>
<rscale>  0 0.91465654E+02</rscale>
<asrwt>0</asrwt>
<pdfrwt beam="1">  1        2 0.35119456E-01 0.91465654E+02</pdfrwt>
<pdfrwt beam="2">  1       -2 0.14095536E-02 0.91465654E+02</pdfrwt>
<totfact> 0.16095167E+05</totfact>
</mgrwt>
</event>
<event>
 5    1  0.1227473E+001  0.9272563E+02  0.7546771E-02  0.1296382E+00
          1   -1    0    0  501    0  0.00000000000E+00  0.00000000000E+00  0.29515088484E+02  0.29515088484E+02  0.00000000000E+00 0. -1.
         -1   -1    0    0    0  501 -0.00000000000E+00 -0.00000000000E+00 -0.72827523955E+02  0.72827523955E+02  0.00000000000E+00 0.  1.
         23    2    1    2    0    0  0.00000000000E+00  0.00000000000E+00 -0.43312435471E+02  0.10234261244E+03  0.92725634289E+02 0.  0.
        -13    1    3    3    0    0  0.13437851488E+02  0.13296869756E+02  0.25067912385E+02  0.31397178683E+02  0.00000000000E+00 0. -1.
         13    1    3    3    0    0 -0.13437851488E+02 -0.13296869756E+02 -0.68380347856E+02  0.70945433756E+02  0.00000000000E+00 0.  1.
<mgrwt>
<rscale>  0 0.92725634E+02</rscale>
<asrwt>0</asrwt>
<pdfrwt beam="1">  1        1 0.45407829E-02 0.92725634E+02</pdfrwt>
<pdfrwt beam="2">  1       -1 0.11204234E-01 0.92725634E+02</pdfrwt>
<totfact> 0.82360709E+04</totfact>
</mgrwt>
</event>
<event>
 5    1  0.1227473E+001  0.9129014E+02  0.7546771E-02  0.1299757E+00
          2   -1    0    0  501    0  0.00000000000E+00  0.00000000000E+00  0.22366548221E+02  0.22366548221E+02  0.00000000000E+00 0. -1.
         -2   -1    0    0    0  501 -0.00000000000E+00 -0.00000000000E+00 -0.93151267282E+02  0.93151267282E+02  0.00000000000E+00 0.  1.
         23    2    1    2    0    0  0.00000000000E+00  0.00000000000E+00 -0.70784719060E+02  0.11551781550E+03  0.91290137726E+02 0.  0.
        -13    1    3    3    0    0  0.25787267866E+02 -0.24951283493E+02  0.30700767429E+00  0.35883756571E+02  0.00000000000E+00 0. -1.
         13    1    3    3    0    0 -0.25787267866E+02  0.24951283493E+02 -0.71091726735E+02  0.79634058932E+02  0.00000000000E+00 0.  1.
<mgrwt>
<rscale>  0 0.91290138E+02</rscale>
<asrwt>0</asrwt>
<pdfrwt beam="1">  1        2 0.34410075E-02 0.91290138E+02</pdfrwt>
<pdfrwt beam="2">  1       -2 0.14330964E-01 0.91290138E+02</pdfrwt>
<totfact> 0.81239770E+04</totfact>
</mgrwt>
</event>
<event>
 5    1  0.1227473E+001  0.9253380E+02  0.7546771E-02  0.1296829E+00
          2   -1    0    0  501    0  0.00000000000E+00  0.00000000000E+00  0.10196662274E+03  0.10196662274E+03  0.00000000000E+00 0. -1.
         -2   -1    0    0    0  501 -0.00000000000E+00 -0.00000000000E+00 -0.20993401215E+02  0.20993401215E+02  0.00000000000E+00 0.  1.
         23    2    1    2    0    0  0.00000000000E+00  0.00000000000E+00  0.80973221524E+02  0.12296002395E+03  0.92533804021E+02 0.  0.
        -11    1    3    3    0    0  0.19229220122E+02 -0.35086141813E+02  0.96127878392E+01  0.41148583741E+02  0.00000000000E+00 0.  1.
         11    1    3    3    0    0 -0.19229220122E+02  0.35086141813E+02  0.71360433685E+02  0.81811440212E+02  0.00000000000E+00 0. -1.
<mgrwt>
<rscale>  0 0.92533804E+02</rscale>
<asrwt>0</asrwt>
<pdfrwt beam="1">  1        2 0.15687172E-01 0.92533804E+02</pdfrwt>
<pdfrwt beam="2">  1       -2 0.32297541E-02 0.92533804E+02</pdfrwt>
<totfact> 0.11848366E+05</totfact>
</mgrwt>
</event>
<event>
 5    1  0.1227473E+001  0.8096857E+02  0.7546771E-02  0.1326325E+00
          2   -1    0    0  501    0  0.00000000000E+00  0.00000000000E+00  0.24231233467E+02  0.24231233467E+02  0.00000000000E+00 0. -1.
         -2   -1    0    0    0  501 -0.00000000000E+00 -0.00000000000E+00 -0.67639042364E+02  0.67639042364E+02  0.00000000000E+00 0.  1.
         23    2    1    2    0    0  0.00000000000E+00  0.00000000000E+00 -0.43407808897E+02  0.91870275830E+02  0.80968572347E+02 0.  0.
        -11    1    3    3    0    0 -0.40387717124E+02  0.20160329851E+01 -0.23899763028E+02  0.46972659667E+02  0.00000000000E+00 0.  1.
         11    1    3    3    0    0  0.40387717124E+02 -0.20160329851E+01 -0.19508045869E+02  0.44897616163E+02  0.00000000000E+00 0. -1.
<mgrwt>
<rscale>  0 0.80968572E+02</rscale>
<asrwt>0</asrwt>
<pdfrwt beam="1">  1        2 0.37278820E-02 0.80968572E+02</pdfrwt>
<pdfrwt beam="2">  1       -2 0.10406007E-01 0.80968572E+02</pdfrwt>
<totfact> 0.11888528E+05</totfact>
</mgrwt>
</event>
<event>
 5    1  0.1227473E+001  0.8894449E+02  0.7546771E-02  0.1305428E+00
         -2   -1    0    0    0  501 -0.00000000000E+00  0.00000000000E+00  0.15018738004E+03  0.15018738004E+03  0.00000000000E+00 0.  1.
          2   -1    0    0  501    0  0.00000000000E+00 -0.00000000000E+00 -0.13168751962E+02  0.13168751962E+02  0.00000000000E+00 0. -1.
         23    2    1    2    0    0  0.00000000000E+00  0.00000000000E+00  0.13701862808E+03  0.16335613200E+03  0.88944485057E+02 0.  0.
        -11    1    3    3    0    0 -0.27278440258E+02  0.25990494722E+02  0.11189997368E+03  0.11807295723E+03  0.00000000000E+00 0.  1.
         11    1    3    3    0    0  0.27278440258E+02 -0.25990494722E+02  0.25118654397E+02  0.45283174773E+02  0.00000000000E+00 0. -1.
<mgrwt>
<rscale>  0 0.88944485E+02</rscale>
<asrwt>0</asrwt>
<pdfrwt beam="2">  1        2 0.20259619E-02 0.88944485E+02</pdfrwt>
<pdfrwt beam="1">  1       -2 0.23105750E-01 0.88944485E+02</pdfrwt>
<totfact> 0.74342842E+04</totfact>
</mgrwt>
</event>
<event>
 5    1  0.1227473E+001  0.9197217E+02  0.7546771E-02  0.1298145E+00
          1   -1    0    0  501    0  0.00000000000E+00  0.00000000000E+00  0.32011976711E+02  0.32011976711E+02  0.00000000000E+00 0. -1.
         -1   -1    0    0    0  501 -0.00000000000E+00 -0.00000000000E+00 -0.66060276243E+02  0.66060276243E+02  0.00000000000E+00 0.  1.
         23    2    1    2    0    0  0.00000000000E+00  0.00000000000E+00 -0.34048299532E+02  0.98072252955E+02  0.91972170240E+02 0.  0.
        -13    1    3    3    0    0  0.28116226664E+02 -0.33667557731E+02 -0.31749225094E+02  0.54148314281E+02  0.00000000000E+00 0.  1.
         13    1    3    3    0    0 -0.28116226664E+02  0.33667557731E+02 -0.22990744373E+01  0.43923938674E+02  0.00000000000E+00 0. -1.
<mgrwt>
<rscale>  0 0.91972170E+02</rscale>
<asrwt>0</asrwt>
<pdfrwt beam="1">  1        1 0.49249195E-02 0.91972170E+02</pdfrwt>
<pdfrwt beam="2">  1       -1 0.10163119E-01 0.91972170E+02</pdfrwt>
<totfact> 0.85436329E+04</totfact>
</mgrwt>
</event>
<event>
 5    1  0.1227473E+001  0.1086795E+03  0.7546771E-02  0.1263035E+00
          2   -1    0    0  501    0  0.00000000000E+00  0.00000000000E+00  0.27485647288E+02  0.27485647288E+02  0.00000000000E+00 0. -1.
         -2   -1    0    0    0  501 -0.00000000000E+00 -0.00000000000E+00 -0.10743087146E+03  0.10743087146E+03  0.00000000000E+00 0.  1.
         23    2    1    2    0    0  0.00000000000E+00  0.00000000000E+00 -0.79945224169E+02  0.13491651875E+03  0.10867947443E+03 0.  0.
        -11    1    3    3    0    0  0.43859073801E+00 -0.22355419446E+02  0.21510109466E+02  0.31026471757E+02  0.00000000000E+00 0. -1.
         11    1    3    3    0    0 -0.43859073801E+00  0.22355419446E+02 -0.10145533363E+03  0.10389004699E+03  0.00000000000E+00 0.  1.
<mgrwt>
<rscale>  0 0.10867947E+03</rscale>
<asrwt>0</asrwt>
<pdfrwt beam="1">  1        2 0.42285611E-02 0.10867947E+03</pdfrwt>
<pdfrwt beam="2">  1       -2 0.16527827E-01 0.10867947E+03</pdfrwt>
<totfact> 0.50414472E+04</totfact>
</mgrwt>
</event>
<event>
 5    1  0.1227473E+001  0.9150553E+02  0.7546771E-02  0.1299246E+00
         -1   -1    0    0    0  501 -0.00000000000E+00  0.00000000000E+00  0.48262420702E+02  0.48262420702E+02  0.00000000000E+00 0.  1.
          1   -1    0    0  501    0  0.00000000000E+00 -0.00000000000E+00 -0.43373607576E+02  0.43373607576E+02  0.00000000000E+00 0. -1.
         23    2    1    2    0    0  0.00000000000E+00  0.00000000000E+00  0.48888131258E+01  0.91636028278E+02  0.91505525433E+02 0.  0.
        -13    1    3    3    0    0  0.38641629422E+02  0.95375289620E+01  0.25041501386E+02  0.47023576796E+02  0.00000000000E+00 0.  1.
         13    1    3    3    0    0 -0.38641629422E+02 -0.95375289620E+01 -0.20152688260E+02  0.44612451481E+02  0.00000000000E+00 0. -1.
<mgrwt>
<rscale>  0 0.91505525E+02</rscale>
<asrwt>0</asrwt>
<pdfrwt beam="2">  1        1 0.66728627E-02 0.91505525E+02</pdfrwt>
<pdfrwt beam="1">  1       -1 0.74249878E-02 0.91505525E+02</pdfrwt>
<totfact> 0.90855756E+04</totfact>
</mgrwt>
</event>
<event>
 5    1  0.1227473E+001  0.9241238E+02  0.7546771E-02  0.1297113E+00
         -3   -1    0    0    0  501 -0.00000000000E+00  0.00000000000E+00  0.96741232718E+02  0.96741232718E+02  0.00000000000E+00 0.  1.
          3   -1    0    0  501    0  0.00000000000E+00 -0.00000000000E+00 -0.22069308342E+02  0.22069308342E+02  0.00000000000E+00 0. -1.
         23    2    1    2    0    0  0.00000000000E+00  0.00000000000E+00  0.74671924377E+02  0.11881054106E+03  0.92412382162E+02 0.  0.
        -11    1    3    3    0    0  0.16986088022E+02 -0.35362304957E+02  0.68722624236E+02  0.79131655360E+02  0.00000000000E+00 0.  1.
         11    1    3    3    0    0 -0.16986088022E+02  0.35362304957E+02  0.59493001406E+01  0.39678885700E+02  0.00000000000E+00 0. -1.
<mgrwt>
<rscale>  0 0.92412382E+02</rscale>
<asrwt>0</asrwt>
<pdfrwt beam="2">  1        3 0.33952783E-02 0.92412382E+02</pdfrwt>
<pdfrwt beam="1">  1       -3 0.14883266E-01 0.92412382E+02</pdfrwt>
<totfact> 0.32130191E+04</totfact>
</mgrwt>
</event>
<event>
 5    1  0.1227473E+001  0.8587972E+02  0.7546771E-02  0.1313148E+00
         -3   -1    0    0    0  501 -0.00000000000E+00  0.00000000000E+00  0.20005620147E+02  0.20005620147E+02  0.00000000000E+00 0. -1.
          3   -1    0    0  501    0  0.00000000000E+00 -0.00000000000E+00 -0.92165674459E+02  0.92165674459E+02  0.00000000000E+00 0.  1.
         23    2    1    2    0    0  0.00000000000E+00  0.00000000000E+00 -0.72160054311E+02  0.11217129461E+03  0.85879717601E+02 0.  0.
        -13    1    3    3    0    0  0.21542453583E+02 -0.10032427627E+02 -0.82793714399E+02  0.86136670788E+02  0.00000000000E+00 0.  1.
         13    1    3    3    0    0 -0.21542453583E+02  0.10032427627E+02  0.10633660087E+02  0.26034623818E+02  0.00000000000E+00 0. -1.
<mgrwt>
<rscale>  0 0.85879718E+02</rscale>
<asrwt>0</asrwt>
<pdfrwt beam="2">  1        3 0.14179334E-01 0.85879718E+02</pdfrwt>
<pdfrwt beam="1">  1       -3 0.30777877E-02 0.85879718E+02</pdfrwt>
<totfact> 0.39727717E+04</totfact>
</mgrwt>
</event>
<event>
 5    1  0.1227473E+001  0.9154479E+02  0.7546771E-02  0.1299153E+00
          4   -1    0    0  501    0  0.00000000000E+00  0.00000000000E+00  0.86669343268E+02  0.86669343268E+02  0.00000000000E+00 0. -1.
         -4   -1    0    0    0  501 -0.00000000000E+00 -0.00000000000E+00 -0.24173625517E+02  0.24173625517E+02  0.00000000000E+00 0.  1.
         23    2    1    2    0    0  0.00000000000E+00  0.00000000000E+00  0.62495717751E+02  0.11084296878E+03  0.91544792270E+02 0.  0.
        -11    1    3    3    0    0  0.19589667738E+02  0.98447634399E+01 -0.17402400980E+02  0.27991391697E+02  0.00000000000E+00 0.  1.
         11    1    3    3    0    0 -0.19589667738E+02 -0.98447634399E+01  0.79898118730E+02  0.82851577088E+02  0.00000000000E+00 0. -1.
<mgrwt>
<rscale>  0 0.91544792E+02</rscale>
<asrwt>0</asrwt>
<pdfrwt beam="1">  1        4 0.13333745E-01 0.91544792E+02</pdfrwt>
<pdfrwt beam="2">  1       -4 0.37190194E-02 0.91544792E+02</pdfrwt>
<totfact> 0.25522600E+04</totfact>
</mgrwt>
</event>
<event>
 5    1  0.1227473E+001  0.8976931E+02  0.7546771E-02  0.1303411E+00
         -2   -1    0    0    0  501 -0.00000000000E+00  0.00000000000E+00  0.40837851199E+02  0.40837851199E+02  0.00000000000E+00 0.  1.
          2   -1    0    0  501    0  0.00000000000E+00 -0.00000000000E+00 -0.49332479340E+02  0.49332479340E+02  0.00000000000E+00 0. -1.
         23    2    1    2    0    0  0.00000000000E+00  0.00000000000E+00 -0.84946281413E+01  0.90170330539E+02  0.89769314369E+02 0.  0.
        -11    1    3    3    0    0 -0.34659789215E+02 -0.28486962653E+02 -0.56040592204E+01  0.45212979435E+02  0.00000000000E+00 0. -1.
         11    1    3    3    0    0  0.34659789215E+02  0.28486962653E+02 -0.28905689209E+01  0.44957351104E+02  0.00000000000E+00 0.  1.
<mgrwt>
<rscale>  0 0.89769314E+02</rscale>
<asrwt>0</asrwt>
<pdfrwt beam="2">  1        2 0.75896122E-02 0.89769314E+02</pdfrwt>
<pdfrwt beam="1">  1       -2 0.62827463E-02 0.89769314E+02</pdfrwt>
<totfact> 0.10528627E+05</totfact>
</mgrwt>
</event>
<event>
 5    1  0.1227473E+001  0.8946998E+02  0.7546771E-02  0.1304140E+00
          2   -1    0    0  501    0  0.00000000000E+00  0.00000000000E+00  0.22757265373E+03  0.22757265373E+03  0.00000000000E+00 0. -1.
         -2   -1    0    0    0  501 -0.00000000000E+00 -0.00000000000E+00 -0.87937608159E+01  0.87937608159E+01  0.00000000000E+00 0.  1.
         23    2    1    2    0    0  0.00000000000E+00  0.00000000000E+00  0.21877889291E+03  0.23636641454E+03  0.89469983461E+02 0.  0.
        -11    1    3    3    0    0  0.15238149528E+02  0.37433151167E+02  0.16005362149E+03  0.16507756891E+03  0.00000000000E+00 0. -1.
         11    1    3    3    0    0 -0.15238149528E+02 -0.37433151167E+02  0.58725271423E+02  0.71288845628E+02  0.00000000000E+00 0.  1.
<mgrwt>
<rscale>  0 0.89469983E+02</rscale>
<asrwt>0</asrwt>
<pdfrwt beam="1">  1        2 0.35011173E-01 0.89469983E+02</pdfrwt>
<pdfrwt beam="2">  1       -2 0.13528865E-02 0.89469983E+02</pdfrwt>
<totfact> 0.17056149E+05</totfact>
</mgrwt>
</event>
<event>
 5    1  0.1227473E+001  0.9026159E+02  0.7546771E-02  0.1302219E+00
          2   -1    0    0  501    0  0.00000000000E+00  0.00000000000E+00  0.15546373282E+03  0.15546373282E+03  0.00000000000E+00 0. -1.
         -2   -1    0    0    0  501 -0.00000000000E+00 -0.00000000000E+00 -0.13101375683E+02  0.13101375683E+02  0.00000000000E+00 0.  1.
         23    2    1    2    0    0  0.00000000000E+00  0.00000000000E+00  0.14236235713E+03  0.16856510850E+03  0.90261592466E+02 0.  0.
        -11    1    3    3    0    0 -0.24471554332E+02  0.19764315038E+02  0.13161791454E+03  0.13532464871E+03  0.00000000000E+00 0. -1.
         11    1    3    3    0    0  0.24471554332E+02 -0.19764315038E+02  0.10744442592E+02  0.33240459789E+02  0.00000000000E+00 0.  1.
<mgrwt>
<rscale>  0 0.90261592E+02</rscale>
<asrwt>0</asrwt>
<pdfrwt beam="1">  1        2 0.23917496E-01 0.90261592E+02</pdfrwt>
<pdfrwt beam="2">  1       -2 0.20155964E-02 0.90261592E+02</pdfrwt>
<totfact> 0.14544859E+05</totfact>
</mgrwt>
</event>
<event>
 5    1  0.1227473E+001  0.8944286E+02  0.7546771E-02  0.1304207E+00
          2   -1    0    0  501    0  0.00000000000E+00  0.00000000000E+00  0.99939958358E+02  0.99939958358E+02  0.00000000000E+00 0. -1.
         -2   -1    0    0    0  501 -0.00000000000E+00 -0.00000000000E+00 -0.20012078395E+02  0.20012078395E+02  0.00000000000E+00 0.  1.
         23    2    1    2    0    0  0.00000000000E+00  0.00000000000E+00  0.79927879964E+02  0.11995203675E+03  0.89442859557E+02 0.  0.
        -13    1    3    3    0    0  0.21343386129E+02  0.29304674659E+02  0.75081935602E+02  0.83376262461E+02  0.00000000000E+00 0. -1.
         13    1    3    3    0    0 -0.21343386129E+02 -0.29304674659E+02  0.48459443619E+01  0.36575774292E+02  0.00000000000E+00 0.  1.
<mgrwt>
<rscale>  0 0.89442860E+02</rscale>
<asrwt>0</asrwt>
<pdfrwt beam="1">  1        2 0.15375378E-01 0.89442860E+02</pdfrwt>
<pdfrwt beam="2">  1       -2 0.30787814E-02 0.89442860E+02</pdfrwt>
<totfact> 0.12929695E+05</totfact>
</mgrwt>
</event>
<event>
 5    1  0.1227473E+001  0.8931177E+02  0.7546771E-02  0.1304527E+00
         -2   -1    0    0    0  501 -0.00000000000E+00  0.00000000000E+00  0.52390075867E+02  0.52390075867E+02  0.00000000000E+00 0.  1.
          2   -1    0    0  501    0  0.00000000000E+00 -0.00000000000E+00 -0.38063467980E+02  0.38063467980E+02  0.00000000000E+00 0. -1.
         23    2    1    2    0    0  0.00000000000E+00  0.00000000000E+00  0.14326607887E+02  0.90453543847E+02  0.89311767987E+02 0.  0.
        -11    1    3    3    0    0 -0.33925351795E+02  0.22997425856E+02  0.25119509666E+02  0.48070790053E+02  0.00000000000E+00 0.  1.
         11    1    3    3    0    0  0.33925351795E+02 -0.22997425856E+02 -0.10792901779E+02  0.42382753795E+02  0.00000000000E+00 0. -1.
<mgrwt>
<rscale>  0 0.89311768E+02</rscale>
<asrwt>0</asrwt>
<pdfrwt beam="2">  1        2 0.58559181E-02 0.89311768E+02</pdfrwt>
<pdfrwt beam="1">  1       -2 0.80600117E-02 0.89311768E+02</pdfrwt>
<totfact> 0.99984263E+04</totfact>
</mgrwt>
</event>
<event>
 5    1  0.1227473E+001  0.9626786E+02  0.7546771E-02  0.1288346E+00
          2   -1    0    0  501    0  0.00000000000E+00  0.00000000000E+00  0.23173604896E+02  0.23173604896E+02  0.00000000000E+00 0.  1.
         -2   -1    0    0    0  501 -0.00000000000E+00 -0.00000000000E+00 -0.99979058535E+02  0.99979058535E+02  0.00000000000E+00 0. -1.
         23    2    1    2    0    0  0.00000000000E+00  0.00000000000E+00 -0.76805453639E+02  0.12315266343E+03  0.96267859650E+02 0.  0.
        -13    1    3    3    0    0 -0.41085313695E+02  0.82811849038E+00 -0.63395341998E+01  0.41579784458E+02  0.00000000000E+00 0.  1.
         13    1    3    3    0    0  0.41085313695E+02 -0.82811849038E+00 -0.70465919439E+02  0.81572878974E+02  0.00000000000E+00 0. -1.
<mgrwt>
<rscale>  0 0.96267860E+02</rscale>
<asrwt>0</asrwt>
<pdfrwt beam="1">  1        2 0.35651699E-02 0.96267860E+02</pdfrwt>
<pdfrwt beam="2">  1       -2 0.15381394E-01 0.96267860E+02</pdfrwt>
<totfact> 0.69716893E+04</totfact>
</mgrwt>
</event>
<event>
 5    1  0.1227473E+001  0.9127352E+02  0.7546771E-02  0.1299797E+00
         -2   -1    0    0    0  501 -0.00000000000E+00  0.00000000000E+00  0.77184018616E+02  0.77184018616E+02  0.00000000000E+00 0.  1.
          2   -1    0    0  501    0  0.00000000000E+00 -0.00000000000E+00 -0.26983744449E+02  0.26983744449E+02  0.00000000000E+00 0. -1.
         23    2    1    2    0    0  0.00000000000E+00  0.00000000000E+00  0.50200274168E+02  0.10416776307E+03  0.91273519355E+02 0.  0.
        -13    1    3    3    0    0  0.35360236386E+02  0.18621019350E+02  0.50250203074E+02  0.64204139959E+02  0.00000000000E+00 0.  1.
         13    1    3    3    0    0 -0.35360236386E+02 -0.18621019350E+02 -0.49928906728E-01  0.39963623106E+02  0.00000000000E+00 0. -1.
<mgrwt>
<rscale>  0 0.91273519E+02</rscale>
<asrwt>0</asrwt>
<pdfrwt beam="2">  1        2 0.41513453E-02 0.91273519E+02</pdfrwt>
<pdfrwt beam="1">  1       -2 0.11874464E-01 0.91273519E+02</pdfrwt>
<totfact> 0.85697705E+04</totfact>
</mgrwt>
</event>
<event>
 5    1  0.1227473E+001  0.9086209E+02  0.7546771E-02  0.1300777E+00
          2   -1    0    0  501    0  0.00000000000E+00  0.00000000000E+00  0.19790181692E+03  0.19790181692E+03  0.00000000000E+00 0. -1.
         -2   -1    0    0    0  501 -0.00000000000E+00 -0.00000000000E+00 -0.10429311705E+02  0.10429311705E+02  0.00000000000E+00 0.  1.
         23    2    1    2    0    0  0.00000000000E+00  0.00000000000E+00  0.18747250522E+03  0.20833112863E+03  0.90862087488E+02 0.  0.
        -11    1    3    3    0    0  0.22084498294E+02  0.22904031334E+02  0.19381430595E+02  0.37255329393E+02  0.00000000000E+00 0.  1.
         11    1    3    3    0    0 -0.22084498294E+02 -0.22904031334E+02  0.16809107462E+03  0.17107579923E+03  0.00000000000E+00 0. -1.
<mgrwt>
<rscale>  0 0.90862087E+02</rscale>
<asrwt>0</asrwt>
<pdfrwt beam="1">  1        2 0.30446431E-01 0.90862087E+02</pdfrwt>
<pdfrwt beam="2">  1       -2 0.16045096E-02 0.90862087E+02</pdfrwt>
<totfact> 0.15553267E+05</totfact>
</mgrwt>
</event>
<event>
 5    1  0.1227473E+001  0.9047026E+02  0.7546771E-02  0.1301717E+00
          2   -1    0    0  501    0  0.00000000000E+00  0.00000000000E+00  0.76509494985E+02  0.76509494985E+02  0.00000000000E+00 0. -1.
         -2   -1    0    0    0  501 -0.00000000000E+00 -0.00000000000E+00 -0.26744616002E+02  0.26744616002E+02  0.00000000000E+00 0.  1.
         23    2    1    2    0    0  0.00000000000E+00  0.00000000000E+00  0.49764878982E+02  0.10325411099E+03  0.90470261720E+02 0.  0.
        -11    1    3    3    0    0 -0.16746803636E+02  0.17469779420E+01 -0.23034812343E+02  0.28532611932E+02  0.00000000000E+00 0.  1.
         11    1    3    3    0    0  0.16746803636E+02 -0.17469779420E+01  0.72799691326E+02  0.74721499055E+02  0.00000000000E+00 0. -1.
<mgrwt>
<rscale>  0 0.90470262E+02</rscale>
<asrwt>0</asrwt>
<pdfrwt beam="1">  1        2 0.11770691E-01 0.90470262E+02</pdfrwt>
<pdfrwt beam="2">  1       -2 0.41145564E-02 0.90470262E+02</pdfrwt>
<totfact> 0.11588861E+05</totfact>
</mgrwt>
</event>
<event>
 5    1  0.1227473E+001  0.8594672E+02  0.7546771E-02  0.1312975E+00
         -3   -1    0    0    0  501 -0.00000000000E+00  0.00000000000E+00  0.17882479343E+02  0.17882479343E+02  0.00000000000E+00 0.  1.
          3   -1    0    0  501    0  0.00000000000E+00 -0.00000000000E+00 -0.10326921376E+03  0.10326921376E+03  0.00000000000E+00 0. -1.
         23    2    1    2    0    0  0.00000000000E+00  0.00000000000E+00 -0.85386734421E+02  0.12115169311E+03  0.85946717958E+02 0.  0.
        -11    1    3    3    0    0  0.27780973962E+02 -0.23274376618E+02 -0.75243867364E+02  0.83517176060E+02  0.00000000000E+00 0. -1.
         11    1    3    3    0    0 -0.27780973962E+02  0.23274376618E+02 -0.10142867058E+02  0.37634517047E+02  0.00000000000E+00 0.  1.
<mgrwt>
<rscale>  0 0.85946718E+02</rscale>
<asrwt>0</asrwt>
<pdfrwt beam="2">  1        3 0.15887571E-01 0.85946718E+02</pdfrwt>
<pdfrwt beam="1">  1       -3 0.27511507E-02 0.85946718E+02</pdfrwt>
<totfact> 0.38907841E+04</totfact>
</mgrwt>
</event>
<event>
 5    1  0.1227473E+001  0.9310127E+02  0.7546771E-02  0.1295511E+00
          1   -1    0    0  501    0  0.00000000000E+00  0.00000000000E+00  0.24324411277E+02  0.24324411277E+02  0.00000000000E+00 0. -1.
         -1   -1    0    0    0  501 -0.00000000000E+00 -0.00000000000E+00 -0.89085881762E+02  0.89085881762E+02  0.00000000000E+00 0.  1.
         23    2    1    2    0    0  0.00000000000E+00  0.00000000000E+00 -0.64761470485E+02  0.11341029304E+03  0.93101270173E+02 0.  0.
        -13    1    3    3    0    0  0.18472761335E+02 -0.85063248223E+01  0.18626590755E+02  0.27578077462E+02  0.00000000000E+00 0. -1.
         13    1    3    3    0    0 -0.18472761335E+02  0.85063248223E+01 -0.83388061241E+02  0.85832215577E+02  0.00000000000E+00 0.  1.
<mgrwt>
<rscale>  0 0.93101270E+02</rscale>
<asrwt>0</asrwt>
<pdfrwt beam="1">  1        1 0.37422171E-02 0.93101270E+02</pdfrwt>
<pdfrwt beam="2">  1       -1 0.13705521E-01 0.93101270E+02</pdfrwt>
<totfact> 0.78747981E+04</totfact>
</mgrwt>
</event>
<event>
 5    1  0.1227473E+001  0.9074093E+02  0.7546771E-02  0.1301067E+00
         -2   -1    0    0    0  501 -0.00000000000E+00  0.00000000000E+00  0.61727982396E+01  0.61727982396E+01  0.00000000000E+00 0.  1.
          2   -1    0    0  501    0  0.00000000000E+00 -0.00000000000E+00 -0.33347581320E+03  0.33347581320E+03  0.00000000000E+00 0. -1.
         23    2    1    2    0    0  0.00000000000E+00  0.00000000000E+00 -0.32730301496E+03  0.33964861144E+03  0.90740925996E+02 0.  0.
        -13    1    3    3    0    0 -0.19480101720E+02  0.39421632562E+02 -0.12181297848E+03  0.12950652958E+03  0.00000000000E+00 0. -1.
         13    1    3    3    0    0  0.19480101720E+02 -0.39421632562E+02 -0.20549003648E+03  0.21014208186E+03  0.00000000000E+00 0.  1.
<mgrwt>
<rscale>  0 0.90740926E+02</rscale>
<asrwt>0</asrwt>
<pdfrwt beam="2">  1        2 0.51303969E-01 0.90740926E+02</pdfrwt>
<pdfrwt beam="1">  1       -2 0.94966132E-03 0.90740926E+02</pdfrwt>
<totfact> 0.18924609E+05</totfact>
</mgrwt>
</event>
<event>
 5    1  0.1227473E+001  0.8396933E+02  0.7546771E-02  0.1318150E+00
          1   -1    0    0  501    0  0.00000000000E+00  0.00000000000E+00  0.52424504774E+02  0.52424504774E+02  0.00000000000E+00 0. -1.
         -1   -1    0    0    0  501 -0.00000000000E+00 -0.00000000000E+00 -0.33623820817E+02  0.33623820817E+02  0.00000000000E+00 0.  1.
         23    2    1    2    0    0  0.00000000000E+00  0.00000000000E+00  0.18800683956E+02  0.86048325591E+02  0.83969331424E+02 0.  0.
        -13    1    3    3    0    0  0.16748257791E+02 -0.16537903850E+02 -0.26226885193E+02  0.35239976018E+02  0.00000000000E+00 0.  1.
         13    1    3    3    0    0 -0.16748257791E+02  0.16537903850E+02  0.45027569150E+02  0.50808349573E+02  0.00000000000E+00 0. -1.
<mgrwt>
<rscale>  0 0.83969331E+02</rscale>
<asrwt>0</asrwt>
<pdfrwt beam="1">  1        1 0.80653084E-02 0.83969331E+02</pdfrwt>
<pdfrwt beam="2">  1       -1 0.51728956E-02 0.83969331E+02</pdfrwt>
<totfact> 0.11862191E+05</totfact>
</mgrwt>
</event>
<event>
 5    1  0.1227473E+001  0.9407582E+02  0.7546771E-02  0.1293271E+00
          1   -1    0    0  501    0  0.00000000000E+00  0.00000000000E+00  0.21909983663E+03  0.21909983663E+03  0.00000000000E+00 0. -1.
         -1   -1    0    0    0  501 -0.00000000000E+00 -0.00000000000E+00 -0.10098432266E+02  0.10098432266E+02  0.00000000000E+00 0.  1.
         23    2    1    2    0    0  0.00000000000E+00  0.00000000000E+00  0.20900140436E+03  0.22919826890E+03  0.94075817503E+02 0.  0.
        -13    1    3    3    0    0 -0.27723263941E+02 -0.22588059561E+02  0.30052855266E+02  0.46711603568E+02  0.00000000000E+00 0.  1.
         13    1    3    3    0    0  0.27723263941E+02  0.22588059561E+02  0.17894854910E+03  0.18248666533E+03  0.00000000000E+00 0. -1.
<mgrwt>
<rscale>  0 0.94075818E+02</rscale>
<asrwt>0</asrwt>
<pdfrwt beam="1">  1        1 0.33707663E-01 0.94075818E+02</pdfrwt>
<pdfrwt beam="2">  1       -1 0.15536051E-02 0.94075818E+02</pdfrwt>
<totfact> 0.11081523E+05</totfact>
</mgrwt>
</event>
<event>
 5    1  0.1227473E+001  0.9379714E+02  0.7546771E-02  0.1293908E+00
         -1   -1    0    0    0  501 -0.00000000000E+00  0.00000000000E+00  0.31151674315E+02  0.31151674315E+02  0.00000000000E+00 0.  1.
          1   -1    0    0  501    0  0.00000000000E+00 -0.00000000000E+00 -0.70605376319E+02  0.70605376319E+02  0.00000000000E+00 0. -1.
         23    2    1    2    0    0  0.00000000000E+00  0.00000000000E+00 -0.39453702004E+02  0.10175705063E+03  0.93797136160E+02 0.  0.
        -11    1    3    3    0    0  0.24673618859E+02 -0.32488695801E+02 -0.44823860496E+02  0.60609250879E+02  0.00000000000E+00 0.  1.
         11    1    3    3    0    0 -0.24673618859E+02  0.32488695801E+02  0.53701584918E+01  0.41147799755E+02  0.00000000000E+00 0. -1.
<mgrwt>
<rscale>  0 0.93797136E+02</rscale>
<asrwt>0</asrwt>
<pdfrwt beam="2">  1        1 0.10862366E-01 0.93797136E+02</pdfrwt>
<pdfrwt beam="1">  1       -1 0.47925653E-02 0.93797136E+02</pdfrwt>
<totfact> 0.91353265E+04</totfact>
</mgrwt>
</event>
<event>
 5    1  0.1227473E+001  0.8913438E+02  0.7546771E-02  0.1304962E+00
          1   -1    0    0  501    0  0.00000000000E+00  0.00000000000E+00  0.66074149342E+02  0.66074149342E+02  0.00000000000E+00 0. -1.
         -1   -1    0    0    0  501 -0.00000000000E+00 -0.00000000000E+00 -0.30060685567E+02  0.30060685567E+02  0.00000000000E+00 0.  1.
         23    2    1    2    0    0  0.00000000000E+00  0.00000000000E+00  0.36013463776E+02  0.96134834909E+02  0.89134375579E+02 0.  0.
        -11    1    3    3    0    0 -0.12489406265E+02 -0.42777795688E+02  0.17407046486E+02  0.47842766853E+02  0.00000000000E+00 0.  1.
         11    1    3    3    0    0  0.12489406265E+02  0.42777795688E+02  0.18606417290E+02  0.48292068056E+02  0.00000000000E+00 0. -1.
<mgrwt>
<rscale>  0 0.89134376E+02</rscale>
<asrwt>0</asrwt>
<pdfrwt beam="1">  1        1 0.10165254E-01 0.89134376E+02</pdfrwt>
<pdfrwt beam="2">  1       -1 0.46247209E-02 0.89134376E+02</pdfrwt>
<totfact> 0.10409855E+05</totfact>
</mgrwt>
</event>
<event>
 5    1  0.1227473E+001  0.9268420E+02  0.7546771E-02  0.1296479E+00
          4   -1    0    0  501    0  0.00000000000E+00  0.00000000000E+00  0.26967758156E+02  0.26967758156E+02  0.00000000000E+00 0. -1.
         -4   -1    0    0    0  501 -0.00000000000E+00 -0.00000000000E+00 -0.79635467907E+02  0.79635467907E+02  0.00000000000E+00 0.  1.
         23    2    1    2    0    0  0.00000000000E+00  0.00000000000E+00 -0.52667709752E+02  0.10660322606E+03  0.92684195829E+02 0.  0.
        -11    1    3    3    0    0  0.33643409528E+02  0.95272768786E+00 -0.62973866808E+02  0.71403743567E+02  0.00000000000E+00 0.  1.
         11    1    3    3    0    0 -0.33643409528E+02 -0.95272768786E+00  0.10306157056E+02  0.35199482496E+02  0.00000000000E+00 0. -1.
<mgrwt>
<rscale>  0 0.92684196E+02</rscale>
<asrwt>0</asrwt>
<pdfrwt beam="1">  1        4 0.41488858E-02 0.92684196E+02</pdfrwt>
<pdfrwt beam="2">  1       -4 0.12251611E-01 0.92684196E+02</pdfrwt>
<totfact> 0.24920951E+04</totfact>
</mgrwt>
</event>
<event>
 5    1  0.1227473E+001  0.8990638E+02  0.7546771E-02  0.1303079E+00
         -4   -1    0    0    0  501 -0.00000000000E+00  0.00000000000E+00  0.31067620991E+02  0.31067620991E+02  0.00000000000E+00 0.  1.
          4   -1    0    0  501    0  0.00000000000E+00 -0.00000000000E+00 -0.65044867649E+02  0.65044867649E+02  0.00000000000E+00 0. -1.
         23    2    1    2    0    0  0.00000000000E+00  0.00000000000E+00 -0.33977246659E+02  0.96112488640E+02  0.89906380097E+02 0.  0.
        -13    1    3    3    0    0 -0.99204225729E+01 -0.98110592059E+01  0.28694278721E+02  0.31906634077E+02  0.00000000000E+00 0.  1.
         13    1    3    3    0    0  0.99204225729E+01  0.98110592059E+01 -0.62671525380E+02  0.64205854563E+02  0.00000000000E+00 0. -1.
<mgrwt>
<rscale>  0 0.89906380E+02</rscale>
<asrwt>0</asrwt>
<pdfrwt beam="2">  1        4 0.10006903E-01 0.89906380E+02</pdfrwt>
<pdfrwt beam="1">  1       -4 0.47796341E-02 0.89906380E+02</pdfrwt>
<totfact> 0.27734165E+04</totfact>
</mgrwt>
</event>
<event>
 5    1  0.1227473E+001  0.9260713E+02  0.7546771E-02  0.1296658E+00
         -1   -1    0    0    0  501 -0.00000000000E+00  0.00000000000E+00  0.22463058077E+02  0.22463058077E+02  0.00000000000E+00 0.  1.
          1   -1    0    0  501    0  0.00000000000E+00 -0.00000000000E+00 -0.95446501410E+02  0.95446501410E+02  0.00000000000E+00 0. -1.
         23    2    1    2    0    0  0.00000000000E+00  0.00000000000E+00 -0.72983443334E+02  0.11790955949E+03  0.92607133729E+02 0.  0.
        -11    1    3    3    0    0  0.40543352844E+02 -0.22034318127E+02 -0.41380910583E+02  0.61981080950E+02  0.00000000000E+00 0.  1.
         11    1    3    3    0    0 -0.40543352844E+02  0.22034318127E+02 -0.31602532751E+02  0.55928478537E+02  0.00000000000E+00 0. -1.
<mgrwt>
<rscale>  0 0.92607134E+02</rscale>
<asrwt>0</asrwt>
<pdfrwt beam="2">  1        1 0.14684077E-01 0.92607134E+02</pdfrwt>
<pdfrwt beam="1">  1       -1 0.34558551E-02 0.92607134E+02</pdfrwt>
<totfact> 0.99330026E+04</totfact>
</mgrwt>
</event>
<event>
 5    1  0.1227473E+001  0.9056415E+02  0.7546771E-02  0.1301491E+00
         -2   -1    0    0    0  501 -0.00000000000E+00  0.00000000000E+00  0.23233243622E+02  0.23233243622E+02  0.00000000000E+00 0.  1.
          2   -1    0    0  501    0  0.00000000000E+00 -0.00000000000E+00 -0.88255697480E+02  0.88255697480E+02  0.00000000000E+00 0. -1.
         23    2    1    2    0    0  0.00000000000E+00  0.00000000000E+00 -0.65022453857E+02  0.11148894110E+03  0.90564145679E+02 0.  0.
        -11    1    3    3    0    0  0.36367505575E+02 -0.24251705563E+02 -0.47062910187E+02  0.64231286767E+02  0.00000000000E+00 0. -1.
         11    1    3    3    0    0 -0.36367505575E+02  0.24251705563E+02 -0.17959543671E+02  0.47257654336E+02  0.00000000000E+00 0.  1.
<mgrwt>
<rscale>  0 0.90564146E+02</rscale>
<asrwt>0</asrwt>
<pdfrwt beam="2">  1        2 0.13577800E-01 0.90564146E+02</pdfrwt>
<pdfrwt beam="1">  1       -2 0.35743451E-02 0.90564146E+02</pdfrwt>
<totfact> 0.12039756E+05</totfact>
</mgrwt>
</event>
<event>
 5    1  0.1227473E+001  0.9160013E+02  0.7546771E-02  0.1299022E+00
         -1   -1    0    0    0  501 -0.00000000000E+00  0.00000000000E+00  0.88405282992E+02  0.88405282992E+02  0.00000000000E+00 0.  1.
          1   -1    0    0  501    0  0.00000000000E+00 -0.00000000000E+00 -0.23727609306E+02  0.23727609306E+02  0.00000000000E+00 0. -1.
         23    2    1    2    0    0  0.00000000000E+00  0.00000000000E+00  0.64677673687E+02  0.11213289230E+03  0.91600131341E+02 0.  0.
        -13    1    3    3    0    0 -0.43192666184E+02 -0.14818191539E+02  0.28017581389E+02  0.53573968300E+02  0.00000000000E+00 0.  1.
         13    1    3    3    0    0  0.43192666184E+02  0.14818191539E+02  0.36660092297E+02  0.58558923998E+02  0.00000000000E+00 0. -1.
<mgrwt>
<rscale>  0 0.91600131E+02</rscale>
<asrwt>0</asrwt>
<pdfrwt beam="2">  1        1 0.36504015E-02 0.91600131E+02</pdfrwt>
<pdfrwt beam="1">  1       -1 0.13600813E-01 0.91600131E+02</pdfrwt>
<totfact> 0.82219978E+04</totfact>
</mgrwt>
</event>
<event>
 5    1  0.1227473E+001  0.9142766E+02  0.7546771E-02  0.1299431E+00
          3   -1    0    0  501    0  0.00000000000E+00  0.00000000000E+00  0.29366073704E+02  0.29366073704E+02  0.00000000000E+00 0. -1.
         -3   -1    0    0    0  501 -0.00000000000E+00 -0.00000000000E+00 -0.71162200435E+02  0.71162200435E+02  0.00000000000E+00 0.  1.
         23    2    1    2    0    0  0.00000000000E+00  0.00000000000E+00 -0.41796126731E+02  0.10052827414E+03  0.91427663711E+02 0.  0.
        -13    1    3    3    0    0 -0.31011913228E+02  0.24391496378E+01  0.15933473972E+02  0.34950877040E+02  0.00000000000E+00 0. -1.
         13    1    3    3    0    0  0.31011913228E+02 -0.24391496378E+01 -0.57729600702E+02  0.65577397099E+02  0.00000000000E+00 0.  1.
<mgrwt>
<rscale>  0 0.91427664E+02</rscale>
<asrwt>0</asrwt>
<pdfrwt beam="1">  1        3 0.45178575E-02 0.91427664E+02</pdfrwt>
<pdfrwt beam="2">  1       -3 0.10948031E-01 0.91427664E+02</pdfrwt>
<totfact> 0.34374786E+04</totfact>
</mgrwt>
</event>
<event>
 5    1  0.1227473E+001  0.9174324E+02  0.7546771E-02  0.1298684E+00
         -1   -1    0    0    0  501 -0.00000000000E+00  0.00000000000E+00  0.44747029073E+02  0.44747029073E+02  0.00000000000E+00 0.  1.
          1   -1    0    0  501    0  0.00000000000E+00 -0.00000000000E+00 -0.47024470461E+02  0.47024470461E+02  0.00000000000E+00 0. -1.
         23    2    1    2    0    0  0.00000000000E+00  0.00000000000E+00 -0.22774413875E+01  0.91771499534E+02  0.91743236194E+02 0.  0.
        -13    1    3    3    0    0 -0.30065151709E+02 -0.67105884129E+01 -0.35138307665E+02  0.46729498283E+02  0.00000000000E+00 0. -1.
         13    1    3    3    0    0  0.30065151709E+02  0.67105884129E+01  0.32860866278E+02  0.45042001251E+02  0.00000000000E+00 0.  1.
<mgrwt>
<rscale>  0 0.91743236E+02</rscale>
<asrwt>0</asrwt>
<pdfrwt beam="2">  1        1 0.72345340E-02 0.91743236E+02</pdfrwt>
<pdfrwt beam="1">  1       -1 0.68841583E-02 0.91743236E+02</pdfrwt>
<totfact> 0.91303162E+04</totfact>
</mgrwt>
</event>
<event>
 5    1  0.1227473E+001  0.9303892E+02  0.7546771E-02  0.1295655E+00
          2   -1    0    0  501    0  0.00000000000E+00  0.00000000000E+00  0.11034415124E+03  0.11034415124E+03  0.00000000000E+00 0. -1.
         -2   -1    0    0    0  501 -0.00000000000E+00 -0.00000000000E+00 -0.19611915887E+02  0.19611915887E+02  0.00000000000E+00 0.  1.
         23    2    1    2    0    0  0.00000000000E+00  0.00000000000E+00  0.90732235353E+02  0.12995606713E+03  0.93038921163E+02 0.  0.
        -11    1    3    3    0    0 -0.18631622483E+02  0.39307607925E+02  0.22336621686E+02  0.48899387169E+02  0.00000000000E+00 0.  1.
         11    1    3    3    0    0  0.18631622483E+02 -0.39307607925E+02  0.68395613666E+02  0.81056679959E+02  0.00000000000E+00 0. -1.
<mgrwt>
<rscale>  0 0.93038921E+02</rscale>
<asrwt>0</asrwt>
<pdfrwt beam="1">  1        2 0.16976023E-01 0.93038921E+02</pdfrwt>
<pdfrwt beam="2">  1       -2 0.30172179E-02 0.93038921E+02</pdfrwt>
<totfact> 0.11962511E+05</totfact>
</mgrwt>
</event>
<event>
 5    1  0.1227473E+001  0.9170800E+02  0.7546771E-02  0.1298767E+00
         -2   -1    0    0    0  501 -0.00000000000E+00  0.00000000000E+00  0.39950146980E+02  0.39950146980E+02  0.00000000000E+00 0.  1.
          2   -1    0    0  501    0  0.00000000000E+00 -0.00000000000E+00 -0.52630323490E+02  0.52630323490E+02  0.00000000000E+00 0. -1.
         23    2    1    2    0    0  0.00000000000E+00  0.00000000000E+00 -0.12680176511E+02  0.92580470470E+02  0.91707996577E+02 0.  0.
        -11    1    3    3    0    0 -0.33354514492E+02 -0.11426983752E+02  0.23255875128E+02  0.42236658516E+02  0.00000000000E+00 0.  1.
         11    1    3    3    0    0  0.33354514492E+02  0.11426983752E+02 -0.35936051639E+02  0.50343811954E+02  0.00000000000E+00 0. -1.
<mgrwt>
<rscale>  0 0.91707997E+02</rscale>
<asrwt>0</asrwt>
<pdfrwt beam="2">  1        2 0.80969729E-02 0.91707997E+02</pdfrwt>
<pdfrwt beam="1">  1       -2 0.61461764E-02 0.91707997E+02</pdfrwt>
<totfact> 0.10076471E+05</totfact>
</mgrwt>
</event>
<event>
 5    1  0.1227473E+001  0.9016658E+02  0.7546771E-02  0.1302449E+00
         -1   -1    0    0    0  501 -0.00000000000E+00  0.00000000000E+00  0.22876752292E+02  0.22876752292E+02  0.00000000000E+00 0.  1.
          1   -1    0    0  501    0  0.00000000000E+00 -0.00000000000E+00 -0.88845789846E+02  0.88845789846E+02  0.00000000000E+00 0. -1.
         23    2    1    2    0    0  0.00000000000E+00  0.00000000000E+00 -0.65969037554E+02  0.11172254214E+03  0.90166581980E+02 0.  0.
        -13    1    3    3    0    0 -0.11272908588E+01 -0.25037367688E+02  0.13449345091E+02  0.28443372669E+02  0.00000000000E+00 0.  1.
         13    1    3    3    0    0  0.11272908588E+01  0.25037367688E+02 -0.79418382645E+02  0.83279169469E+02  0.00000000000E+00 0. -1.
<mgrwt>
<rscale>  0 0.90166582E+02</rscale>
<asrwt>0</asrwt>
<pdfrwt beam="2">  1        1 0.13668583E-01 0.90166582E+02</pdfrwt>
<pdfrwt beam="1">  1       -1 0.35195003E-02 0.90166582E+02</pdfrwt>
<totfact> 0.10561210E+05</totfact>
</mgrwt>
</event>
<event>
 5    1  0.1227473E+001  0.8917480E+02  0.7546771E-02  0.1304862E+00
         -2   -1    0    0    0  501 -0.00000000000E+00  0.00000000000E+00  0.87134255782E+01  0.87134255782E+01  0.00000000000E+00 0. -1.
          2   -1    0    0  501    0  0.00000000000E+00 -0.00000000000E+00 -0.22815780431E+03  0.22815780431E+03  0.00000000000E+00 0.  1.
         23    2    1    2    0    0  0.00000000000E+00  0.00000000000E+00 -0.21944437873E+03  0.23687122988E+03  0.89174795719E+02 0.  0.
        -11    1    3    3    0    0  0.16657233169E+02 -0.37009127510E+02 -0.15876573416E+03  0.16387097754E+03  0.00000000000E+00 0.  1.
         11    1    3    3    0    0 -0.16657233169E+02  0.37009127510E+02 -0.60678644563E+02  0.73000252341E+02  0.00000000000E+00 0. -1.
<mgrwt>
<rscale>  0 0.89174796E+02</rscale>
<asrwt>0</asrwt>
<pdfrwt beam="2">  1        2 0.35101202E-01 0.89174796E+02</pdfrwt>
<pdfrwt beam="1">  1       -2 0.13405270E-02 0.89174796E+02</pdfrwt>
<totfact> 0.17223806E+05</totfact>
</mgrwt>
</event>
<event>
 5    1  0.1227473E+001  0.8971193E+02  0.7546771E-02  0.1303551E+00
          4   -1    0    0  501    0  0.00000000000E+00  0.00000000000E+00  0.61109055396E+02  0.61109055396E+02  0.00000000000E+00 0. -1.
         -4   -1    0    0    0  501 -0.00000000000E+00 -0.00000000000E+00 -0.32925685998E+02  0.32925685998E+02  0.00000000000E+00 0.  1.
         23    2    1    2    0    0  0.00000000000E+00  0.00000000000E+00  0.28183369398E+02  0.94034741394E+02  0.89711929410E+02 0.  0.
        -11    1    3    3    0    0  0.25327341843E+02  0.28965812651E+01 -0.24594640858E+02  0.35422602767E+02  0.00000000000E+00 0.  1.
         11    1    3    3    0    0 -0.25327341843E+02 -0.28965812651E+01  0.52778010256E+02  0.58612138627E+02  0.00000000000E+00 0. -1.
<mgrwt>
<rscale>  0 0.89711929E+02</rscale>
<asrwt>0</asrwt>
<pdfrwt beam="1">  1        4 0.94013932E-02 0.89711929E+02</pdfrwt>
<pdfrwt beam="2">  1       -4 0.50654901E-02 0.89711929E+02</pdfrwt>
<totfact> 0.28035052E+04</totfact>
</mgrwt>
</event>
<event>
 5    1  0.1227473E+001  0.8856872E+02  0.7546771E-02  0.1306355E+00
          1   -1    0    0  501    0  0.00000000000E+00  0.00000000000E+00  0.18415918037E+02  0.18415918037E+02  0.00000000000E+00 0. -1.
         -1   -1    0    0    0  501 -0.00000000000E+00 -0.00000000000E+00 -0.10648965187E+03  0.10648965187E+03  0.00000000000E+00 0.  1.
         23    2    1    2    0    0  0.00000000000E+00  0.00000000000E+00 -0.88073733830E+02  0.12490556990E+03  0.88568723612E+02 0.  0.
        -11    1    3    3    0    0 -0.54590313177E+00 -0.44263997201E+02 -0.42306633893E+02  0.61232758633E+02  0.00000000000E+00 0.  1.
         11    1    3    3    0    0  0.54590313177E+00  0.44263997201E+02 -0.45767099937E+02  0.63672811271E+02  0.00000000000E+00 0. -1.
<mgrwt>
<rscale>  0 0.88568724E+02</rscale>
<asrwt>0</asrwt>
<pdfrwt beam="1">  1        1 0.28332182E-02 0.88568724E+02</pdfrwt>
<pdfrwt beam="2">  1       -1 0.16383023E-01 0.88568724E+02</pdfrwt>
<totfact> 0.86650072E+04</totfact>
</mgrwt>
</event>
<event>
 5    1  0.1227473E+001  0.8549611E+02  0.7546771E-02  0.1314140E+00
          2   -1    0    0  501    0  0.00000000000E+00  0.00000000000E+00  0.29522550446E+02  0.29522550446E+02  0.00000000000E+00 0. -1.
         -2   -1    0    0    0  501 -0.00000000000E+00 -0.00000000000E+00 -0.61898310463E+02  0.61898310463E+02  0.00000000000E+00 0.  1.
         23    2    1    2    0    0  0.00000000000E+00  0.00000000000E+00 -0.32375760016E+02  0.91420860909E+02  0.85496105015E+02 0.  0.
        -13    1    3    3    0    0  0.36535147758E+02  0.78590092645E+01  0.60065684516E+01  0.37850494222E+02  0.00000000000E+00 0. -1.
         13    1    3    3    0    0 -0.36535147758E+02 -0.78590092645E+01 -0.38382328468E+02  0.53570366687E+02  0.00000000000E+00 0.  1.
<mgrwt>
<rscale>  0 0.85496105E+02</rscale>
<asrwt>0</asrwt>
<pdfrwt beam="1">  1        2 0.45419308E-02 0.85496105E+02</pdfrwt>
<pdfrwt beam="2">  1       -2 0.95228171E-02 0.85496105E+02</pdfrwt>
<totfact> 0.10647055E+05</totfact>
</mgrwt>
</event>
<event>
 5    1  0.1227473E+001  0.8943883E+02  0.7546771E-02  0.1304216E+00
          1   -1    0    0  501    0  0.00000000000E+00  0.00000000000E+00  0.16488614179E+03  0.16488614179E+03  0.00000000000E+00 0. -1.
         -1   -1    0    0    0  501 -0.00000000000E+00 -0.00000000000E+00 -0.12128527750E+02  0.12128527750E+02  0.00000000000E+00 0.  1.
         23    2    1    2    0    0  0.00000000000E+00  0.00000000000E+00  0.15275761404E+03  0.17701466954E+03  0.89438831528E+02 0.  0.
        -13    1    3    3    0    0  0.33210464415E+02 -0.28585711399E+02  0.94053174001E+02  0.10375970982E+03  0.00000000000E+00 0. -1.
         13    1    3    3    0    0 -0.33210464415E+02  0.28585711399E+02  0.58704440036E+02  0.73254959714E+02  0.00000000000E+00 0.  1.
<mgrwt>
<rscale>  0 0.89438832E+02</rscale>
<asrwt>0</asrwt>
<pdfrwt beam="1">  1        1 0.25367097E-01 0.89438832E+02</pdfrwt>
<pdfrwt beam="2">  1       -1 0.18659275E-02 0.89438832E+02</pdfrwt>
<totfact> 0.12017621E+05</totfact>
</mgrwt>
</event>
<event>
 5    1  0.1227473E+001  0.9439746E+02  0.7546771E-02  0.1292539E+00
          3   -1    0    0  501    0  0.00000000000E+00  0.00000000000E+00  0.57835447963E+02  0.57835447963E+02  0.00000000000E+00 0. -1.
         -3   -1    0    0    0  501 -0.00000000000E+00 -0.00000000000E+00 -0.38518244503E+02  0.38518244503E+02  0.00000000000E+00 0.  1.
         23    2    1    2    0    0  0.00000000000E+00  0.00000000000E+00  0.19317203460E+02  0.96353692466E+02  0.94397456016E+02 0.  0.
        -11    1    3    3    0    0  0.20932514152E+02 -0.28761693853E+02  0.41322664793E+02  0.54524928313E+02  0.00000000000E+00 0. -1.
         11    1    3    3    0    0 -0.20932514152E+02  0.28761693853E+02 -0.22005461333E+02  0.41828764152E+02  0.00000000000E+00 0.  1.
<mgrwt>
<rscale>  0 0.94397456E+02</rscale>
<asrwt>0</asrwt>
<pdfrwt beam="1">  1        3 0.88977613E-02 0.94397456E+02</pdfrwt>
<pdfrwt beam="2">  1       -3 0.59258837E-02 0.94397456E+02</pdfrwt>
<totfact> 0.31782556E+04</totfact>
</mgrwt>
</event>
<event>
 5    1  0.1227473E+001  0.8993748E+02  0.7546771E-02  0.1303003E+00
         -1   -1    0    0    0  501 -0.00000000000E+00  0.00000000000E+00  0.17294109800E+02  0.17294109800E+02  0.00000000000E+00 0.  1.
          1   -1    0    0  501    0  0.00000000000E+00 -0.00000000000E+00 -0.11692926709E+03  0.11692926709E+03  0.00000000000E+00 0. -1.
         23    2    1    2    0    0  0.00000000000E+00  0.00000000000E+00 -0.99635157286E+02  0.13422337688E+03  0.89937480146E+02 0.  0.
        -13    1    3    3    0    0  0.16468757602E+02 -0.12227612687E+02 -0.10954098322E+03  0.11144488096E+03  0.00000000000E+00 0. -1.
         13    1    3    3    0    0 -0.16468757602E+02  0.12227612687E+02  0.99058259321E+01  0.22778495920E+02  0.00000000000E+00 0.  1.
<mgrwt>
<rscale>  0 0.89937480E+02</rscale>
<asrwt>0</asrwt>
<pdfrwt beam="2">  1        1 0.17989119E-01 0.89937480E+02</pdfrwt>
<pdfrwt beam="1">  1       -1 0.26606322E-02 0.89937480E+02</pdfrwt>
<totfact> 0.11130851E+05</totfact>
</mgrwt>
</event>
<event>
 5    1  0.1227473E+001  0.9195908E+02  0.7546771E-02  0.1298176E+00
          2   -1    0    0  501    0  0.00000000000E+00  0.00000000000E+00  0.11696342452E+03  0.11696342452E+03  0.00000000000E+00 0. -1.
         -2   -1    0    0    0  501 -0.00000000000E+00 -0.00000000000E+00 -0.18075035955E+02  0.18075035955E+02  0.00000000000E+00 0.  1.
         23    2    1    2    0    0  0.00000000000E+00  0.00000000000E+00  0.98888388561E+02  0.13503846047E+03  0.91959080107E+02 0.  0.
        -13    1    3    3    0    0  0.41337450434E+02  0.44058156183E+01  0.78291992752E+02  0.88644414086E+02  0.00000000000E+00 0. -1.
         13    1    3    3    0    0 -0.41337450434E+02 -0.44058156183E+01  0.20596395810E+02  0.46394046385E+02  0.00000000000E+00 0.  1.
<mgrwt>
<rscale>  0 0.91959080E+02</rscale>
<asrwt>0</asrwt>
<pdfrwt beam="1">  1        2 0.17994373E-01 0.91959080E+02</pdfrwt>
<pdfrwt beam="2">  1       -2 0.27807748E-02 0.91959080E+02</pdfrwt>
<totfact> 0.12582586E+05</totfact>
</mgrwt>
</event>
<event>
 5    1  0.1227473E+001  0.9313182E+02  0.7546771E-02  0.1295440E+00
          1   -1    0    0  501    0  0.00000000000E+00  0.00000000000E+00  0.29547862665E+02  0.29547862665E+02  0.00000000000E+00 0. -1.
         -1   -1    0    0    0  501 -0.00000000000E+00 -0.00000000000E+00 -0.73385468580E+02  0.73385468580E+02  0.00000000000E+00 0.  1.
         23    2    1    2    0    0  0.00000000000E+00  0.00000000000E+00 -0.43837605915E+02  0.10293333124E+03  0.93131815127E+02 0.  0.
        -13    1    3    3    0    0 -0.24481799863E+02 -0.29269746301E+02 -0.51416738343E+02  0.64029349168E+02  0.00000000000E+00 0.  1.
         13    1    3    3    0    0  0.24481799863E+02  0.29269746301E+02  0.75791324283E+01  0.38903982077E+02  0.00000000000E+00 0. -1.
<mgrwt>
<rscale>  0 0.93131815E+02</rscale>
<asrwt>0</asrwt>
<pdfrwt beam="1">  1        1 0.45458250E-02 0.93131815E+02</pdfrwt>
<pdfrwt beam="2">  1       -1 0.11290072E-01 0.93131815E+02</pdfrwt>
<totfact> 0.81342878E+04</totfact>
</mgrwt>
</event>
<event>
 5    1  0.1227473E+001  0.9268904E+02  0.7546771E-02  0.1296467E+00
          2   -1    0    0  501    0  0.00000000000E+00  0.00000000000E+00  0.13418364535E+03  0.13418364535E+03  0.00000000000E+00 0. -1.
         -2   -1    0    0    0  501 -0.00000000000E+00 -0.00000000000E+00 -0.16006528970E+02  0.16006528970E+02  0.00000000000E+00 0.  1.
         23    2    1    2    0    0  0.00000000000E+00  0.00000000000E+00  0.11817711638E+03  0.15019017432E+03  0.92689037250E+02 0.  0.
        -13    1    3    3    0    0  0.43285137614E+02 -0.13658826864E+02  0.74258483909E+02  0.87031540961E+02  0.00000000000E+00 0.  1.
         13    1    3    3    0    0 -0.43285137614E+02  0.13658826864E+02  0.43918632472E+02  0.63158633359E+02  0.00000000000E+00 0. -1.
<mgrwt>
<rscale>  0 0.92689037E+02</rscale>
<asrwt>0</asrwt>
<pdfrwt beam="1">  1        2 0.20643637E-01 0.92689037E+02</pdfrwt>
<pdfrwt beam="2">  1       -2 0.24625430E-02 0.92689037E+02</pdfrwt>
<totfact> 0.12876677E+05</totfact>
</mgrwt>
</event>
<event>
 5    1  0.1227473E+001  0.9425132E+02  0.7546771E-02  0.1292871E+00
         -2   -1    0    0    0  501 -0.00000000000E+00  0.00000000000E+00  0.10560033205E+03  0.10560033205E+03  0.00000000000E+00 0.  1.
          2   -1    0    0  501    0  0.00000000000E+00 -0.00000000000E+00 -0.21030498553E+02  0.21030498553E+02  0.00000000000E+00 0. -1.
         23    2    1    2    0    0  0.00000000000E+00  0.00000000000E+00  0.84569833501E+02  0.12663083061E+03  0.94251315756E+02 0.  0.
        -11    1    3    3    0    0  0.27369174531E+02 -0.11377838802E+02  0.91508921296E+02  0.96189446443E+02  0.00000000000E+00 0.  1.
         11    1    3    3    0    0 -0.27369174531E+02  0.11377838802E+02 -0.69390877953E+01  0.30441384163E+02  0.00000000000E+00 0. -1.
<mgrwt>
<rscale>  0 0.94251316E+02</rscale>
<asrwt>0</asrwt>
<pdfrwt beam="2">  1        2 0.32354614E-02 0.94251316E+02</pdfrwt>
<pdfrwt beam="1">  1       -2 0.16246205E-01 0.94251316E+02</pdfrwt>
<totfact> 0.72266596E+04</totfact>
</mgrwt>
</event>
<event>
 5    1  0.1227473E+001  0.9073952E+02  0.7546771E-02  0.1301071E+00
         -2   -1    0    0    0  501 -0.00000000000E+00  0.00000000000E+00  0.39660384678E+02  0.39660384678E+02  0.00000000000E+00 0.  1.
          2   -1    0    0  501    0  0.00000000000E+00 -0.00000000000E+00 -0.51901041510E+02  0.51901041510E+02  0.00000000000E+00 0. -1.
         23    2    1    2    0    0  0.00000000000E+00  0.00000000000E+00 -0.12240656832E+02  0.91561426188E+02  0.90739523284E+02 0.  0.
        -11    1    3    3    0    0 -0.45051214762E+02  0.43653224426E+01 -0.92706709352E+01  0.46201875840E+02  0.00000000000E+00 0. -1.
         11    1    3    3    0    0  0.45051214762E+02 -0.43653224426E+01 -0.29699858968E+01  0.45359550348E+02  0.00000000000E+00 0.  1.
<mgrwt>
<rscale>  0 0.90739523E+02</rscale>
<asrwt>0</asrwt>
<pdfrwt beam="2">  1        2 0.79847756E-02 0.90739523E+02</pdfrwt>
<pdfrwt beam="1">  1       -2 0.61015977E-02 0.90739523E+02</pdfrwt>
<totfact> 0.10347496E+05</totfact>
</mgrwt>
</event>
<event>
 5    1  0.1227473E+001  0.8017300E+02  0.7546771E-02  0.1328561E+00
          3   -1    0    0  501    0  0.00000000000E+00  0.00000000000E+00  0.10313867692E+03  0.10313867692E+03  0.00000000000E+00 0. -1.
         -3   -1    0    0    0  501 -0.00000000000E+00 -0.00000000000E+00 -0.15580259731E+02  0.15580259731E+02  0.00000000000E+00 0.  1.
         23    2    1    2    0    0  0.00000000000E+00  0.00000000000E+00  0.87558417184E+02  0.11871893665E+03  0.80172997317E+02 0.  0.
        -13    1    3    3    0    0  0.11718384681E+02  0.15612871683E+02  0.95624541878E+02  0.97596799697E+02  0.00000000000E+00 0. -1.
         13    1    3    3    0    0 -0.11718384681E+02 -0.15612871683E+02 -0.80661246945E+01  0.21122136949E+02  0.00000000000E+00 0.  1.
<mgrwt>
<rscale>  0 0.80172997E+02</rscale>
<asrwt>0</asrwt>
<pdfrwt beam="1">  1        3 0.15867488E-01 0.80172997E+02</pdfrwt>
<pdfrwt beam="2">  1       -3 0.23969631E-02 0.80172997E+02</pdfrwt>
<totfact> 0.47127199E+04</totfact>
</mgrwt>
</event>
<event>
 5    1  0.1227473E+001  0.9509174E+02  0.7546771E-02  0.1290970E+00
         -2   -1    0    0    0  501 -0.00000000000E+00  0.00000000000E+00  0.34699560304E+03  0.34699560304E+03  0.00000000000E+00 0.  1.
          2   -1    0    0  501    0  0.00000000000E+00 -0.00000000000E+00 -0.65148078855E+01  0.65148078855E+01  0.00000000000E+00 0. -1.
         23    2    1    2    0    0  0.00000000000E+00  0.00000000000E+00  0.34048079516E+03  0.35351041093E+03  0.95091738673E+02 0.  0.
        -13    1    3    3    0    0 -0.41767425580E+02  0.13832102999E+02  0.23723562740E+03  0.24128113855E+03  0.00000000000E+00 0.  1.
         13    1    3    3    0    0  0.41767425580E+02 -0.13832102999E+02  0.10324516776E+03  0.11222927238E+03  0.00000000000E+00 0. -1.
<mgrwt>
<rscale>  0 0.95091739E+02</rscale>
<asrwt>0</asrwt>
<pdfrwt beam="2">  1        2 0.10022784E-02 0.95091739E+02</pdfrwt>
<pdfrwt beam="1">  1       -2 0.53383925E-01 0.95091739E+02</pdfrwt>
<totfact> 0.41985690E+04</totfact>
</mgrwt>
</event>
<event>
 5    1  0.1227473E+001  0.8729168E+02  0.7546771E-02  0.1309546E+00
         -3   -1    0    0    0  501 -0.00000000000E+00  0.00000000000E+00  0.29390226526E+02  0.29390226526E+02  0.00000000000E+00 0.  1.
          3   -1    0    0  501    0  0.00000000000E+00 -0.00000000000E+00 -0.64816079170E+02  0.64816079170E+02  0.00000000000E+00 0. -1.
         23    2    1    2    0    0  0.00000000000E+00  0.00000000000E+00 -0.35425852644E+02  0.94206305697E+02  0.87291677710E+02 0.  0.
        -11    1    3    3    0    0  0.25128747945E+02  0.35481383727E+02 -0.13592553477E+02  0.45553705387E+02  0.00000000000E+00 0.  1.
         11    1    3    3    0    0 -0.25128747945E+02 -0.35481383727E+02 -0.21833299167E+02  0.48652600310E+02  0.00000000000E+00 0. -1.
<mgrwt>
<rscale>  0 0.87291678E+02</rscale>
<asrwt>0</asrwt>
<pdfrwt beam="2">  1        3 0.99717043E-02 0.87291678E+02</pdfrwt>
<pdfrwt beam="1">  1       -3 0.45215734E-02 0.87291678E+02</pdfrwt>
<totfact> 0.39507759E+04</totfact>
</mgrwt>
</event>
<event>
 5    1  0.1227473E+001  0.9144471E+02  0.7546771E-02  0.1299390E+00
          1   -1    0    0  501    0  0.00000000000E+00  0.00000000000E+00  0.95224479753E+02  0.95224479753E+02  0.00000000000E+00 0. -1.
         -1   -1    0    0    0  501 -0.00000000000E+00 -0.00000000000E+00 -0.21953742888E+02  0.21953742888E+02  0.00000000000E+00 0.  1.
         23    2    1    2    0    0  0.00000000000E+00  0.00000000000E+00  0.73270736865E+02  0.11717822264E+03  0.91444709965E+02 0.  0.
        -11    1    3    3    0    0  0.36526340379E+02 -0.13567290346E+02  0.59807470401E+01  0.39420987354E+02  0.00000000000E+00 0.  1.
         11    1    3    3    0    0 -0.36526340379E+02  0.13567290346E+02  0.67289989825E+02  0.77757235287E+02  0.00000000000E+00 0. -1.
<mgrwt>
<rscale>  0 0.91444710E+02</rscale>
<asrwt>0</asrwt>
<pdfrwt beam="1">  1        1 0.14649920E-01 0.91444710E+02</pdfrwt>
<pdfrwt beam="2">  1       -1 0.33774989E-02 0.91444710E+02</pdfrwt>
<totfact> 0.10278293E+05</totfact>
</mgrwt>
</event>
<event>
 5    1  0.1227473E+001  0.8948610E+02  0.7546771E-02  0.1304101E+00
         -2   -1    0    0    0  501 -0.00000000000E+00  0.00000000000E+00  0.15099192783E+02  0.15099192783E+02  0.00000000000E+00 0.  1.
          2   -1    0    0  501    0  0.00000000000E+00 -0.00000000000E+00 -0.13258594149E+03  0.13258594149E+03  0.00000000000E+00 0. -1.
         23    2    1    2    0    0  0.00000000000E+00  0.00000000000E+00 -0.11748674870E+03  0.14768513427E+03  0.89486103743E+02 0.  0.
        -13    1    3    3    0    0 -0.32502102562E+01  0.29778001894E+02 -0.11359544488E+03  0.11747858682E+03  0.00000000000E+00 0. -1.
         13    1    3    3    0    0  0.32502102562E+01 -0.29778001894E+02 -0.38913038257E+01  0.30206547452E+02  0.00000000000E+00 0.  1.
<mgrwt>
<rscale>  0 0.89486104E+02</rscale>
<asrwt>0</asrwt>
<pdfrwt beam="2">  1        2 0.20397836E-01 0.89486104E+02</pdfrwt>
<pdfrwt beam="1">  1       -2 0.23229528E-02 0.89486104E+02</pdfrwt>
<totfact> 0.14115186E+05</totfact>
</mgrwt>
</event>
<event>
 5    1  0.1227473E+001  0.9056982E+02  0.7546771E-02  0.1301478E+00
         -4   -1    0    0    0  501 -0.00000000000E+00  0.00000000000E+00  0.34619961364E+02  0.34619961364E+02  0.00000000000E+00 0.  1.
          4   -1    0    0  501    0  0.00000000000E+00 -0.00000000000E+00 -0.59235277287E+02  0.59235277287E+02  0.00000000000E+00 0. -1.
         23    2    1    2    0    0  0.00000000000E+00  0.00000000000E+00 -0.24615315923E+02  0.93855238651E+02  0.90569818616E+02 0.  0.
        -11    1    3    3    0    0 -0.34119603091E+02  0.66460431447E+01 -0.42384739708E+02  0.54815904304E+02  0.00000000000E+00 0. -1.
         11    1    3    3    0    0  0.34119603091E+02 -0.66460431447E+01  0.17769423785E+02  0.39039334347E+02  0.00000000000E+00 0.  1.
<mgrwt>
<rscale>  0 0.90569819E+02</rscale>
<asrwt>0</asrwt>
<pdfrwt beam="2">  1        4 0.91131196E-02 0.90569819E+02</pdfrwt>
<pdfrwt beam="1">  1       -4 0.53261479E-02 0.90569819E+02</pdfrwt>
<totfact> 0.27334867E+04</totfact>
</mgrwt>
</event>
<event>
 5    1  0.1227473E+001  0.8476139E+02  0.7546771E-02  0.1316058E+00
         -3   -1    0    0    0  501 -0.00000000000E+00  0.00000000000E+00  0.11982138599E+03  0.11982138599E+03  0.00000000000E+00 0.  1.
          3   -1    0    0  501    0  0.00000000000E+00 -0.00000000000E+00 -0.14990006455E+02  0.14990006455E+02  0.00000000000E+00 0. -1.
         23    2    1    2    0    0  0.00000000000E+00  0.00000000000E+00  0.10483137954E+03  0.13481139245E+03  0.84761390962E+02 0.  0.
        -13    1    3    3    0    0  0.13501410658E+02  0.29553318115E+02  0.91371626148E+01  0.33751658360E+02  0.00000000000E+00 0. -1.
         13    1    3    3    0    0 -0.13501410658E+02 -0.29553318115E+02  0.95694216922E+02  0.10105973409E+03  0.00000000000E+00 0.  1.
<mgrwt>
<rscale>  0 0.84761391E+02</rscale>
<asrwt>0</asrwt>
<pdfrwt beam="2">  1        3 0.23061549E-02 0.84761391E+02</pdfrwt>
<pdfrwt beam="1">  1       -3 0.18434059E-01 0.84761391E+02</pdfrwt>
<totfact> 0.39278695E+04</totfact>
</mgrwt>
</event>
<event>
 5    1  0.1227473E+001  0.9120239E+02  0.7546771E-02  0.1299966E+00
          2   -1    0    0  501    0  0.00000000000E+00  0.00000000000E+00  0.15201531531E+03  0.15201531531E+03  0.00000000000E+00 0. -1.
         -2   -1    0    0    0  501 -0.00000000000E+00 -0.00000000000E+00 -0.13679338848E+02  0.13679338848E+02  0.00000000000E+00 0.  1.
         23    2    1    2    0    0  0.00000000000E+00  0.00000000000E+00  0.13833597646E+03  0.16569465416E+03  0.91202390500E+02 0.  0.
        -11    1    3    3    0    0  0.18306442562E+02 -0.15093405840E+02  0.13991825847E+03  0.14191566437E+03  0.00000000000E+00 0. -1.
         11    1    3    3    0    0 -0.18306442562E+02  0.15093405840E+02 -0.15822820091E+01  0.23778989791E+02  0.00000000000E+00 0.  1.
<mgrwt>
<rscale>  0 0.91202390E+02</rscale>
<asrwt>0</asrwt>
<pdfrwt beam="1">  1        2 0.23386970E-01 0.91202390E+02</pdfrwt>
<pdfrwt beam="2">  1       -2 0.21045138E-02 0.91202390E+02</pdfrwt>
<totfact> 0.14033998E+05</totfact>
</mgrwt>
</event>
<event>
 5    1  0.1227473E+001  0.7501191E+02  0.7546771E-02  0.1343834E+00
         -1   -1    0    0    0  501 -0.00000000000E+00  0.00000000000E+00  0.76925409494E+02  0.76925409494E+02  0.00000000000E+00 0.  1.
          1   -1    0    0  501    0  0.00000000000E+00 -0.00000000000E+00 -0.18286503390E+02  0.18286503390E+02  0.00000000000E+00 0. -1.
         23    2    1    2    0    0  0.00000000000E+00  0.00000000000E+00  0.58638906104E+02  0.95211912884E+02  0.75011912694E+02 0.  0.
        -13    1    3    3    0    0 -0.10914983861E+02 -0.99021219496E+01  0.73096323473E+02  0.74567160312E+02  0.00000000000E+00 0.  1.
         13    1    3    3    0    0  0.10914983861E+02  0.99021219496E+01 -0.14457417369E+02  0.20644752572E+02  0.00000000000E+00 0. -1.
<mgrwt>
<rscale>  0 0.75011913E+02</rscale>
<asrwt>0</asrwt>
<pdfrwt beam="2">  1        1 0.28133083E-02 0.75011913E+02</pdfrwt>
<pdfrwt beam="1">  1       -1 0.11834678E-01 0.75011913E+02</pdfrwt>
<totfact> 0.14012900E+05</totfact>
</mgrwt>
</event>
<event>
 5    1  0.1227473E+001  0.9297650E+02  0.7546771E-02  0.1295800E+00
         -1   -1    0    0    0  501 -0.00000000000E+00  0.00000000000E+00  0.77503775882E+02  0.77503775882E+02  0.00000000000E+00 0.  1.
          1   -1    0    0  501    0  0.00000000000E+00 -0.00000000000E+00 -0.27884544215E+02  0.27884544215E+02  0.00000000000E+00 0. -1.
         23    2    1    2    0    0  0.00000000000E+00  0.00000000000E+00  0.49619231667E+02  0.10538832010E+03  0.92976501664E+02 0.  0.
        -11    1    3    3    0    0  0.76668151452E+01 -0.34731676146E+02  0.58740457401E+02  0.68669576364E+02  0.00000000000E+00 0.  1.
         11    1    3    3    0    0 -0.76668151452E+01  0.34731676146E+02 -0.91212257347E+01  0.36718743732E+02  0.00000000000E+00 0. -1.
<mgrwt>
<rscale>  0 0.92976502E+02</rscale>
<asrwt>0</asrwt>
<pdfrwt beam="2">  1        1 0.42899299E-02 0.92976502E+02</pdfrwt>
<pdfrwt beam="1">  1       -1 0.11923658E-01 0.92976502E+02</pdfrwt>
<totfact> 0.80948610E+04</totfact>
</mgrwt>
</event>
<event>
 5    1  0.1227473E+001  0.9008759E+02  0.7546771E-02  0.1302640E+00
         -3   -1    0    0    0  501 -0.00000000000E+00  0.00000000000E+00  0.12551753707E+03  0.12551753707E+03  0.00000000000E+00 0.  1.
          3   -1    0    0  501    0  0.00000000000E+00 -0.00000000000E+00 -0.16164622971E+02  0.16164622971E+02  0.00000000000E+00 0. -1.
         23    2    1    2    0    0  0.00000000000E+00  0.00000000000E+00  0.10935291410E+03  0.14168216004E+03  0.90087594330E+02 0.  0.
        -11    1    3    3    0    0 -0.38868024805E+02  0.13363137100E+02  0.83660835577E+02  0.93211759960E+02  0.00000000000E+00 0.  1.
         11    1    3    3    0    0  0.38868024805E+02 -0.13363137100E+02  0.25692078524E+02  0.48470400083E+02  0.00000000000E+00 0. -1.
<mgrwt>
<rscale>  0 0.90087594E+02</rscale>
<asrwt>0</asrwt>
<pdfrwt beam="2">  1        3 0.24868651E-02 0.90087594E+02</pdfrwt>
<pdfrwt beam="1">  1       -3 0.19310390E-01 0.90087594E+02</pdfrwt>
<totfact> 0.32876561E+04</totfact>
</mgrwt>
</event>
<event>
 5    1  0.1227473E+001  0.9203275E+02  0.7546771E-02  0.1298002E+00
         -4   -1    0    0    0  501 -0.00000000000E+00  0.00000000000E+00  0.34083460782E+02  0.34083460782E+02  0.00000000000E+00 0.  1.
          4   -1    0    0  501    0  0.00000000000E+00 -0.00000000000E+00 -0.62127100972E+02  0.62127100972E+02  0.00000000000E+00 0. -1.
         23    2    1    2    0    0  0.00000000000E+00  0.00000000000E+00 -0.28043640190E+02  0.96210561754E+02  0.92032746552E+02 0.  0.
        -11    1    3    3    0    0 -0.33462467770E+02 -0.30861337981E+02 -0.21061580779E+02  0.50157243905E+02  0.00000000000E+00 0.  1.
         11    1    3    3    0    0  0.33462467770E+02  0.30861337981E+02 -0.69820594110E+01  0.46053317849E+02  0.00000000000E+00 0. -1.
<mgrwt>
<rscale>  0 0.92032747E+02</rscale>
<asrwt>0</asrwt>
<pdfrwt beam="2">  1        4 0.95580156E-02 0.92032747E+02</pdfrwt>
<pdfrwt beam="1">  1       -4 0.52436093E-02 0.92032747E+02</pdfrwt>
<totfact> 0.26025489E+04</totfact>
</mgrwt>
</event>
<event>
 5    1  0.1227473E+001  0.9274318E+02  0.7546771E-02  0.1296341E+00
         -2   -1    0    0    0  501 -0.00000000000E+00  0.00000000000E+00  0.68414127636E+02  0.68414127636E+02  0.00000000000E+00 0.  1.
          2   -1    0    0  501    0  0.00000000000E+00 -0.00000000000E+00 -0.31431001388E+02  0.31431001388E+02  0.00000000000E+00 0. -1.
         23    2    1    2    0    0  0.00000000000E+00  0.00000000000E+00  0.36983126248E+02  0.99845129024E+02  0.92743183915E+02 0.  0.
        -13    1    3    3    0    0 -0.11107377206E+02 -0.43412924766E+02  0.31332583214E+02  0.54678941431E+02  0.00000000000E+00 0.  1.
         13    1    3    3    0    0  0.11107377206E+02  0.43412924766E+02  0.56505430339E+01  0.45166187593E+02  0.00000000000E+00 0. -1.
<mgrwt>
<rscale>  0 0.92743184E+02</rscale>
<asrwt>0</asrwt>
<pdfrwt beam="2">  1        2 0.48355387E-02 0.92743184E+02</pdfrwt>
<pdfrwt beam="1">  1       -2 0.10525250E-01 0.92743184E+02</pdfrwt>
<totfact> 0.85158965E+04</totfact>
</mgrwt>
</event>
<event>
 5    1  0.1227473E+001  0.9136442E+02  0.7546771E-02  0.1299581E+00
         -2   -1    0    0    0  501 -0.00000000000E+00  0.00000000000E+00  0.50195016722E+02  0.50195016722E+02  0.00000000000E+00 0.  1.
          2   -1    0    0  501    0  0.00000000000E+00 -0.00000000000E+00 -0.41575127398E+02  0.41575127398E+02  0.00000000000E+00 0. -1.
         23    2    1    2    0    0  0.00000000000E+00  0.00000000000E+00  0.86198893239E+01  0.91770144120E+02  0.91364417909E+02 0.  0.
        -11    1    3    3    0    0 -0.12877425174E+02  0.38174354777E+02 -0.17320652955E+02  0.43853328956E+02  0.00000000000E+00 0. -1.
         11    1    3    3    0    0  0.12877425174E+02 -0.38174354777E+02  0.25940542279E+02  0.47916815164E+02  0.00000000000E+00 0.  1.
<mgrwt>
<rscale>  0 0.91364418E+02</rscale>
<asrwt>0</asrwt>
<pdfrwt beam="2">  1        2 0.63961735E-02 0.91364418E+02</pdfrwt>
<pdfrwt beam="1">  1       -2 0.77223102E-02 0.91364418E+02</pdfrwt>
<totfact> 0.95775736E+04</totfact>
</mgrwt>
</event>
<event>
 5    1  0.1227473E+001  0.9157224E+02  0.7546771E-02  0.1299088E+00
         -3   -1    0    0    0  501 -0.00000000000E+00  0.00000000000E+00  0.22435031027E+02  0.22435031027E+02  0.00000000000E+00 0.  1.
          3   -1    0    0  501    0  0.00000000000E+00 -0.00000000000E+00 -0.93441754953E+02  0.93441754953E+02  0.00000000000E+00 0. -1.
         23    2    1    2    0    0  0.00000000000E+00  0.00000000000E+00 -0.71006723925E+02  0.11587678598E+03  0.91572237531E+02 0.  0.
        -13    1    3    3    0    0  0.10001209583E+02 -0.43626942567E+02 -0.23297897695E+02  0.50459155244E+02  0.00000000000E+00 0.  1.
         13    1    3    3    0    0 -0.10001209583E+02  0.43626942567E+02 -0.47708826230E+02  0.65417630737E+02  0.00000000000E+00 0. -1.
<mgrwt>
<rscale>  0 0.91572238E+02</rscale>
<asrwt>0</asrwt>
<pdfrwt beam="2">  1        3 0.14375655E-01 0.91572238E+02</pdfrwt>
<pdfrwt beam="1">  1       -3 0.34515432E-02 0.91572238E+02</pdfrwt>
<totfact> 0.33138054E+04</totfact>
</mgrwt>
</event>
<event>
 5    1  0.1227473E+001  0.9169781E+02  0.7546771E-02  0.1298792E+00
          1   -1    0    0  501    0  0.00000000000E+00  0.00000000000E+00  0.54683973779E+02  0.54683973779E+02  0.00000000000E+00 0. -1.
         -1   -1    0    0    0  501 -0.00000000000E+00 -0.00000000000E+00 -0.38441284803E+02  0.38441284803E+02  0.00000000000E+00 0.  1.
         23    2    1    2    0    0  0.00000000000E+00  0.00000000000E+00  0.16242688976E+02  0.93125258583E+02  0.91697812629E+02 0.  0.
        -13    1    3    3    0    0 -0.15012041181E+02 -0.42929731174E+02  0.14025537040E+02  0.47592424695E+02  0.00000000000E+00 0.  1.
         13    1    3    3    0    0  0.15012041181E+02  0.42929731174E+02  0.22171519360E+01  0.45532833887E+02  0.00000000000E+00 0. -1.
<mgrwt>
<rscale>  0 0.91697813E+02</rscale>
<asrwt>0</asrwt>
<pdfrwt beam="1">  1        1 0.84129191E-02 0.91697813E+02</pdfrwt>
<pdfrwt beam="2">  1       -1 0.59140438E-02 0.91697813E+02</pdfrwt>
<totfact> 0.93535076E+04</totfact>
</mgrwt>
</event>
<event>
 5    1  0.1227473E+001  0.8918873E+02  0.7546771E-02  0.1304828E+00
          2   -1    0    0  501    0  0.00000000000E+00  0.00000000000E+00  0.11361994576E+03  0.11361994576E+03  0.00000000000E+00 0. -1.
         -2   -1    0    0    0  501 -0.00000000000E+00 -0.00000000000E+00 -0.17502715571E+02  0.17502715571E+02  0.00000000000E+00 0.  1.
         23    2    1    2    0    0  0.00000000000E+00  0.00000000000E+00  0.96117230185E+02  0.13112266133E+03  0.89188734575E+02 0.  0.
        -11    1    3    3    0    0  0.39967575913E+02  0.19553680448E+02  0.52445553698E+02  0.68777101176E+02  0.00000000000E+00 0.  1.
         11    1    3    3    0    0 -0.39967575913E+02 -0.19553680448E+02  0.43671676486E+02  0.62345560151E+02  0.00000000000E+00 0. -1.
<mgrwt>
<rscale>  0 0.89188735E+02</rscale>
<asrwt>0</asrwt>
<pdfrwt beam="1">  1        2 0.17479991E-01 0.89188735E+02</pdfrwt>
<pdfrwt beam="2">  1       -2 0.26927255E-02 0.89188735E+02</pdfrwt>
<totfact> 0.13555506E+05</totfact>
</mgrwt>
</event>
<event>
 5    1  0.1227473E+001  0.9186985E+02  0.7546771E-02  0.1298386E+00
         -4   -1    0    0    0  501 -0.00000000000E+00  0.00000000000E+00  0.56373619526E+02  0.56373619526E+02  0.00000000000E+00 0.  1.
          4   -1    0    0  501    0  0.00000000000E+00 -0.00000000000E+00 -0.37429160413E+02  0.37429160413E+02  0.00000000000E+00 0. -1.
         23    2    1    2    0    0  0.00000000000E+00  0.00000000000E+00  0.18944459113E+02  0.93802779938E+02  0.91869848117E+02 0.  0.
        -13    1    3    3    0    0 -0.21335570555E+02 -0.38711959517E+02 -0.32885172243E+01  0.44324222791E+02  0.00000000000E+00 0.  1.
         13    1    3    3    0    0  0.21335570555E+02  0.38711959517E+02  0.22232976337E+02  0.49478557147E+02  0.00000000000E+00 0. -1.
<mgrwt>
<rscale>  0 0.91869848E+02</rscale>
<asrwt>0</asrwt>
<pdfrwt beam="2">  1        4 0.57583324E-02 0.91869848E+02</pdfrwt>
<pdfrwt beam="1">  1       -4 0.86728645E-02 0.91869848E+02</pdfrwt>
<totfact> 0.26300948E+04</totfact>
</mgrwt>
</event>
<event>
 5    1  0.1227473E+001  0.8654491E+02  0.7546771E-02  0.1311441E+00
          1   -1    0    0  501    0  0.00000000000E+00  0.00000000000E+00  0.63345160105E+02  0.63345160105E+02  0.00000000000E+00 0. -1.
         -1   -1    0    0    0  501 -0.00000000000E+00 -0.00000000000E+00 -0.29560351497E+02  0.29560351497E+02  0.00000000000E+00 0.  1.
         23    2    1    2    0    0  0.00000000000E+00  0.00000000000E+00  0.33784808608E+02  0.92905511601E+02  0.86544906224E+02 0.  0.
        -13    1    3    3    0    0  0.33757046615E+01 -0.21660940746E+02 -0.23157924432E+02  0.31888574756E+02  0.00000000000E+00 0.  1.
         13    1    3    3    0    0 -0.33757046615E+01  0.21660940746E+02  0.56942733040E+02  0.61016936846E+02  0.00000000000E+00 0. -1.
<mgrwt>
<rscale>  0 0.86544906E+02</rscale>
<asrwt>0</asrwt>
<pdfrwt beam="1">  1        1 0.97454092E-02 0.86544906E+02</pdfrwt>
<pdfrwt beam="2">  1       -1 0.45477464E-02 0.86544906E+02</pdfrwt>
<totfact> 0.11217859E+05</totfact>
</mgrwt>
</event>
<event>
 5    1  0.1227473E+001  0.8864584E+02  0.7546771E-02  0.1306165E+00
          1   -1    0    0  501    0  0.00000000000E+00  0.00000000000E+00  0.10768000806E+02  0.10768000806E+02  0.00000000000E+00 0. -1.
         -1   -1    0    0    0  501 -0.00000000000E+00 -0.00000000000E+00 -0.18244068633E+03  0.18244068633E+03  0.00000000000E+00 0.  1.
         23    2    1    2    0    0  0.00000000000E+00  0.00000000000E+00 -0.17167268553E+03  0.19320868714E+03  0.88645844967E+02 0.  0.
        -13    1    3    3    0    0 -0.41585937779E+02 -0.40839250601E+01 -0.53622163883E+02  0.67980917354E+02  0.00000000000E+00 0. -1.
         13    1    3    3    0    0  0.41585937779E+02  0.40839250601E+01 -0.11805052164E+03  0.12522776978E+03  0.00000000000E+00 0.  1.
<mgrwt>
<rscale>  0 0.88645845E+02</rscale>
<asrwt>0</asrwt>
<pdfrwt beam="1">  1        1 0.16566155E-02 0.88645845E+02</pdfrwt>
<pdfrwt beam="2">  1       -1 0.28067798E-01 0.88645845E+02</pdfrwt>
<totfact> 0.76617899E+04</totfact>
</mgrwt>
</event>
<event>
 5    1  0.1227473E+001  0.9283395E+02  0.7546771E-02  0.1296130E+00
          1   -1    0    0  501    0  0.00000000000E+00  0.00000000000E+00  0.23440889221E+03  0.23440889221E+03  0.00000000000E+00 0. -1.
         -1   -1    0    0    0  501 -0.00000000000E+00 -0.00000000000E+00 -0.91913551581E+01  0.91913551581E+01  0.00000000000E+00 0.  1.
         23    2    1    2    0    0  0.00000000000E+00  0.00000000000E+00  0.22521753705E+03  0.24360024737E+03  0.92833945957E+02 0.  0.
        -13    1    3    3    0    0 -0.40718243603E+02  0.12591491764E+02  0.64365304316E+02  0.77197237170E+02  0.00000000000E+00 0.  1.
         13    1    3    3    0    0  0.40718243603E+02 -0.12591491764E+02  0.16085223274E+03  0.16640301020E+03  0.00000000000E+00 0. -1.
<mgrwt>
<rscale>  0 0.92833946E+02</rscale>
<asrwt>0</asrwt>
<pdfrwt beam="1">  1        1 0.36062902E-01 0.92833946E+02</pdfrwt>
<pdfrwt beam="2">  1       -1 0.14140548E-02 0.92833946E+02</pdfrwt>
<totfact> 0.11637406E+05</totfact>
</mgrwt>
</event>
<event>
 5    1  0.1227473E+001  0.9600708E+02  0.7546771E-02  0.1288924E+00
          1   -1    0    0  501    0  0.00000000000E+00  0.00000000000E+00  0.19787230547E+03  0.19787230547E+03  0.00000000000E+00 0. -1.
         -1   -1    0    0    0  501 -0.00000000000E+00 -0.00000000000E+00 -0.11645591040E+02  0.11645591040E+02  0.00000000000E+00 0.  1.
         23    2    1    2    0    0  0.00000000000E+00  0.00000000000E+00  0.18622671443E+03  0.20951789651E+03  0.96007081980E+02 0.  0.
        -13    1    3    3    0    0 -0.61679804440E+01  0.47596815157E+02  0.95112473741E+02  0.10653583180E+03  0.00000000000E+00 0.  1.
         13    1    3    3    0    0  0.61679804440E+01 -0.47596815157E+02  0.91114240689E+02  0.10298206471E+03  0.00000000000E+00 0. -1.
<mgrwt>
<rscale>  0 0.96007082E+02</rscale>
<asrwt>0</asrwt>
<pdfrwt beam="1">  1        1 0.30441891E-01 0.96007082E+02</pdfrwt>
<pdfrwt beam="2">  1       -1 0.17916295E-02 0.96007082E+02</pdfrwt>
<totfact> 0.10283148E+05</totfact>
</mgrwt>
</event>
<event>
 5    1  0.1227473E+001  0.9125657E+02  0.7546771E-02  0.1299837E+00
          1   -1    0    0  501    0  0.00000000000E+00  0.00000000000E+00  0.25443048237E+03  0.25443048237E+03  0.00000000000E+00 0. -1.
         -1   -1    0    0    0  501 -0.00000000000E+00 -0.00000000000E+00 -0.81827475265E+01  0.81827475265E+01  0.00000000000E+00 0.  1.
         23    2    1    2    0    0  0.00000000000E+00  0.00000000000E+00  0.24624773485E+03  0.26261322990E+03  0.91256570181E+02 0.  0.
        -11    1    3    3    0    0 -0.25061392523E+01 -0.35677176495E+02  0.41586666009E+02  0.54850637611E+02  0.00000000000E+00 0.  1.
         11    1    3    3    0    0  0.25061392523E+01  0.35677176495E+02  0.20466106884E+03  0.20776259229E+03  0.00000000000E+00 0. -1.
<mgrwt>
<rscale>  0 0.91256570E+02</rscale>
<asrwt>0</asrwt>
<pdfrwt beam="1">  1        1 0.39143145E-01 0.91256570E+02</pdfrwt>
<pdfrwt beam="2">  1       -1 0.12588844E-02 0.91256570E+02</pdfrwt>
<totfact> 0.12380392E+05</totfact>
</mgrwt>
</event>
<event>
 5    1  0.1227473E+001  0.9212350E+02  0.7546771E-02  0.1297789E+00
          1   -1    0    0  501    0  0.00000000000E+00  0.00000000000E+00  0.65251464840E+02  0.65251464840E+02  0.00000000000E+00 0. -1.
         -1   -1    0    0    0  501 -0.00000000000E+00 -0.00000000000E+00 -0.32515514822E+02  0.32515514822E+02  0.00000000000E+00 0.  1.
         23    2    1    2    0    0  0.00000000000E+00  0.00000000000E+00  0.32735950018E+02  0.97766979662E+02  0.92123503455E+02 0.  0.
        -13    1    3    3    0    0 -0.12099799161E+02  0.10786904169E+02 -0.29388482995E+02  0.33562559110E+02  0.00000000000E+00 0.  1.
         13    1    3    3    0    0  0.12099799161E+02 -0.10786904169E+02  0.62124433013E+02  0.64204420552E+02  0.00000000000E+00 0. -1.
<mgrwt>
<rscale>  0 0.92123503E+02</rscale>
<asrwt>0</asrwt>
<pdfrwt beam="1">  1        1 0.10038687E-01 0.92123503E+02</pdfrwt>
<pdfrwt beam="2">  1       -1 0.50023869E-02 0.92123503E+02</pdfrwt>
<totfact> 0.94855524E+04</totfact>
</mgrwt>
</event>
<event>
 5    1  0.1227473E+001  0.8708879E+02  0.7546771E-02  0.1310059E+00
          1   -1    0    0  501    0  0.00000000000E+00  0.00000000000E+00  0.12352218390E+03  0.12352218390E+03  0.00000000000E+00 0. -1.
         -1   -1    0    0    0  501 -0.00000000000E+00 -0.00000000000E+00 -0.15350395766E+02  0.15350395766E+02  0.00000000000E+00 0.  1.
         23    2    1    2    0    0  0.00000000000E+00  0.00000000000E+00  0.10817178814E+03  0.13887257967E+03  0.87088791673E+02 0.  0.
        -11    1    3    3    0    0  0.19090025990E+02  0.27737639696E+02  0.98112951984E+02  0.10373021303E+03  0.00000000000E+00 0. -1.
         11    1    3    3    0    0 -0.19090025990E+02 -0.27737639696E+02  0.10058836152E+02  0.35142366638E+02  0.00000000000E+00 0.  1.
<mgrwt>
<rscale>  0 0.87088792E+02</rscale>
<asrwt>0</asrwt>
<pdfrwt beam="1">  1        1 0.19003412E-01 0.87088792E+02</pdfrwt>
<pdfrwt beam="2">  1       -1 0.23615994E-02 0.87088792E+02</pdfrwt>
<totfact> 0.12256518E+05</totfact>
</mgrwt>
</event>
<event>
 5    1  0.1227473E+001  0.9121346E+02  0.7546771E-02  0.1299939E+00
          4   -1    0    0  501    0  0.00000000000E+00  0.00000000000E+00  0.33264506314E+02  0.33264506314E+02  0.00000000000E+00 0. -1.
         -4   -1    0    0    0  501 -0.00000000000E+00 -0.00000000000E+00 -0.62528318557E+02  0.62528318557E+02  0.00000000000E+00 0.  1.
         23    2    1    2    0    0  0.00000000000E+00  0.00000000000E+00 -0.29263812243E+02  0.95792824871E+02  0.91213456187E+02 0.  0.
        -11    1    3    3    0    0  0.16251416057E+02  0.34907820510E+02  0.11035008573E+02  0.40055410006E+02  0.00000000000E+00 0. -1.
         11    1    3    3    0    0 -0.16251416057E+02 -0.34907820510E+02 -0.40298820816E+02  0.55737414864E+02  0.00000000000E+00 0.  1.
<mgrwt>
<rscale>  0 0.91213456E+02</rscale>
<asrwt>0</asrwt>
<pdfrwt beam="1">  1        4 0.51176164E-02 0.91213456E+02</pdfrwt>
<pdfrwt beam="2">  1       -4 0.96197412E-02 0.91213456E+02</pdfrwt>
<totfact> 0.26692342E+04</totfact>
</mgrwt>
</event>
<event>
 5    1  0.1227473E+001  0.9075826E+02  0.7546771E-02  0.1301026E+00
          1   -1    0    0  501    0  0.00000000000E+00  0.00000000000E+00  0.92531586465E+01  0.92531586465E+01  0.00000000000E+00 0. -1.
         -1   -1    0    0    0  501 -0.00000000000E+00 -0.00000000000E+00 -0.22254731289E+03  0.22254731289E+03  0.00000000000E+00 0.  1.
         23    2    1    2    0    0  0.00000000000E+00  0.00000000000E+00 -0.21329415424E+03  0.23180047154E+03  0.90758263371E+02 0.  0.
        -13    1    3    3    0    0  0.44129609605E+02 -0.95813954285E+01 -0.11808052215E+03  0.12642086573E+03  0.00000000000E+00 0.  1.
         13    1    3    3    0    0 -0.44129609605E+02  0.95813954285E+01 -0.95213632098E+02  0.10537960580E+03  0.00000000000E+00 0. -1.
<mgrwt>
<rscale>  0 0.90758263E+02</rscale>
<asrwt>0</asrwt>
<pdfrwt beam="1">  1        1 0.14235630E-02 0.90758263E+02</pdfrwt>
<pdfrwt beam="2">  1       -1 0.34238044E-01 0.90758263E+02</pdfrwt>
<totfact> 0.68063848E+04</totfact>
</mgrwt>
</event>
<event>
 5    1  0.1227473E+001  0.9096553E+02  0.7546771E-02  0.1300530E+00
          2   -1    0    0  501    0  0.00000000000E+00  0.00000000000E+00  0.39626961365E+02  0.39626961365E+02  0.00000000000E+00 0. -1.
         -2   -1    0    0    0  501 -0.00000000000E+00 -0.00000000000E+00 -0.52203902064E+02  0.52203902064E+02  0.00000000000E+00 0.  1.
         23    2    1    2    0    0  0.00000000000E+00  0.00000000000E+00 -0.12576940699E+02  0.91830863428E+02  0.90965532157E+02 0.  0.
        -11    1    3    3    0    0  0.18019852380E+02 -0.41409126659E+02 -0.82858720248E+00  0.45167658863E+02  0.00000000000E+00 0. -1.
         11    1    3    3    0    0 -0.18019852380E+02  0.41409126659E+02 -0.11748353497E+02  0.46663204565E+02  0.00000000000E+00 0.  1.
<mgrwt>
<rscale>  0 0.90965532E+02</rscale>
<asrwt>0</asrwt>
<pdfrwt beam="1">  1        2 0.60964556E-02 0.90965532E+02</pdfrwt>
<pdfrwt beam="2">  1       -2 0.80313695E-02 0.90965532E+02</pdfrwt>
<totfact> 0.95799584E+04</totfact>
</mgrwt>
</event>
<event>
 5    1  0.1227473E+001  0.9090958E+02  0.7546771E-02  0.1300664E+00
         -1   -1    0    0    0  501 -0.00000000000E+00  0.00000000000E+00  0.13217262948E+02  0.13217262948E+02  0.00000000000E+00 0.  1.
          1   -1    0    0  501    0  0.00000000000E+00 -0.00000000000E+00 -0.15632117058E+03  0.15632117058E+03  0.00000000000E+00 0. -1.
         23    2    1    2    0    0  0.00000000000E+00  0.00000000000E+00 -0.14310390764E+03  0.16953843353E+03  0.90909581803E+02 0.  0.
        -11    1    3    3    0    0 -0.29305528175E+02  0.26352322498E+02 -0.29317583738E+02  0.49120052920E+02  0.00000000000E+00 0.  1.
         11    1    3    3    0    0  0.29305528175E+02 -0.26352322498E+02 -0.11378632390E+03  0.12041838061E+03  0.00000000000E+00 0. -1.
<mgrwt>
<rscale>  0 0.90909582E+02</rscale>
<asrwt>0</asrwt>
<pdfrwt beam="2">  1        1 0.24049411E-01 0.90909582E+02</pdfrwt>
<pdfrwt beam="1">  1       -1 0.20334251E-02 0.90909582E+02</pdfrwt>
<totfact> 0.11388810E+05</totfact>
</mgrwt>
</event>
<event>
 5    1  0.1227473E+001  0.9118263E+02  0.7546771E-02  0.1300013E+00
         -2   -1    0    0    0  501 -0.00000000000E+00  0.00000000000E+00  0.36192696404E+02  0.36192696404E+02  0.00000000000E+00 0.  1.
          2   -1    0    0  501    0  0.00000000000E+00 -0.00000000000E+00 -0.57430596836E+02  0.57430596836E+02  0.00000000000E+00 0. -1.
         23    2    1    2    0    0  0.00000000000E+00  0.00000000000E+00 -0.21237900433E+02  0.93623293240E+02  0.91182633337E+02 0.  0.
        -11    1    3    3    0    0  0.23276330714E+02 -0.31232686308E+01 -0.50742095218E+02  0.55913349082E+02  0.00000000000E+00 0. -1.
         11    1    3    3    0    0 -0.23276330714E+02  0.31232686308E+01  0.29504194785E+02  0.37709944158E+02  0.00000000000E+00 0.  1.
<mgrwt>
<rscale>  0 0.91182633E+02</rscale>
<asrwt>0</asrwt>
<pdfrwt beam="2">  1        2 0.88354764E-02 0.91182633E+02</pdfrwt>
<pdfrwt beam="1">  1       -2 0.55681072E-02 0.91182633E+02</pdfrwt>
<totfact> 0.10481706E+05</totfact>
</mgrwt>
</event>
<event>
 5    1  0.1227473E+001  0.9028135E+02  0.7546771E-02  0.1302172E+00
          3   -1    0    0  501    0  0.00000000000E+00  0.00000000000E+00  0.39248539148E+02  0.39248539148E+02  0.00000000000E+00 0. -1.
         -3   -1    0    0    0  501 -0.00000000000E+00 -0.00000000000E+00 -0.51917357777E+02  0.51917357777E+02  0.00000000000E+00 0.  1.
         23    2    1    2    0    0  0.00000000000E+00  0.00000000000E+00 -0.12668818629E+02  0.91165896925E+02  0.90281348000E+02 0.  0.
        -13    1    3    3    0    0 -0.29730499489E+02  0.27555152830E+02  0.13721998195E+02  0.42795820845E+02  0.00000000000E+00 0. -1.
         13    1    3    3    0    0  0.29730499489E+02 -0.27555152830E+02 -0.26390816823E+02  0.48370076080E+02  0.00000000000E+00 0.  1.
<mgrwt>
<rscale>  0 0.90281348E+02</rscale>
<asrwt>0</asrwt>
<pdfrwt beam="1">  1        3 0.60382368E-02 0.90281348E+02</pdfrwt>
<pdfrwt beam="2">  1       -3 0.79872858E-02 0.90281348E+02</pdfrwt>
<totfact> 0.36301741E+04</totfact>
</mgrwt>
</event>
<event>
 5    1  0.1227473E+001  0.8558631E+02  0.7546771E-02  0.1313906E+00
         -2   -1    0    0    0  501 -0.00000000000E+00  0.00000000000E+00  0.16111557106E+02  0.16111557106E+02  0.00000000000E+00 0.  1.
          2   -1    0    0  501    0  0.00000000000E+00 -0.00000000000E+00 -0.11366091405E+03  0.11366091405E+03  0.00000000000E+00 0. -1.
         23    2    1    2    0    0  0.00000000000E+00  0.00000000000E+00 -0.97549356941E+02  0.12977247115E+03  0.85586314500E+02 0.  0.
        -13    1    3    3    0    0 -0.31402775939E+01 -0.31172558421E+02 -0.92972615902E+02  0.98109617518E+02  0.00000000000E+00 0. -1.
         13    1    3    3    0    0  0.31402775939E+01  0.31172558421E+02 -0.45767410399E+01  0.31662853636E+02  0.00000000000E+00 0.  1.
<mgrwt>
<rscale>  0 0.85586315E+02</rscale>
<asrwt>0</asrwt>
<pdfrwt beam="2">  1        2 0.17486294E-01 0.85586315E+02</pdfrwt>
<pdfrwt beam="1">  1       -2 0.24787012E-02 0.85586315E+02</pdfrwt>
<totfact> 0.15166585E+05</totfact>
</mgrwt>
</event>
<event>
 5    1  0.1227473E+001  0.9059176E+02  0.7546771E-02  0.1301425E+00
         -1   -1    0    0    0  501 -0.00000000000E+00  0.00000000000E+00  0.75491030539E+01  0.75491030539E+01  0.00000000000E+00 0.  1.
          1   -1    0    0  501    0  0.00000000000E+00 -0.00000000000E+00 -0.27178287471E+03  0.27178287471E+03  0.00000000000E+00 0. -1.
         23    2    1    2    0    0  0.00000000000E+00  0.00000000000E+00 -0.26423377166E+03  0.27933197777E+03  0.90591764074E+02 0.  0.
        -11    1    3    3    0    0 -0.45222982381E+02  0.21734779874E+01 -0.13633878609E+03  0.14365969071E+03  0.00000000000E+00 0.  1.
         11    1    3    3    0    0  0.45222982381E+02 -0.21734779874E+01 -0.12789498557E+03  0.13567228706E+03  0.00000000000E+00 0. -1.
<mgrwt>
<rscale>  0 0.90591764E+02</rscale>
<asrwt>0</asrwt>
<pdfrwt beam="2">  1        1 0.41812741E-01 0.90591764E+02</pdfrwt>
<pdfrwt beam="1">  1       -1 0.11614007E-02 0.90591764E+02</pdfrwt>
<totfact> 0.12787975E+05</totfact>
</mgrwt>
</event>
<event>
 5    1  0.1227473E+001  0.8961085E+02  0.7546771E-02  0.1303797E+00
         -2   -1    0    0    0  501 -0.00000000000E+00  0.00000000000E+00  0.11550785692E+02  0.11550785692E+02  0.00000000000E+00 0.  1.
          2   -1    0    0  501    0  0.00000000000E+00 -0.00000000000E+00 -0.17379997868E+03  0.17379997868E+03  0.00000000000E+00 0. -1.
         23    2    1    2    0    0  0.00000000000E+00  0.00000000000E+00 -0.16224919299E+03  0.18535076437E+03  0.89610854411E+02 0.  0.
        -11    1    3    3    0    0  0.44124088156E+02  0.14576154096E-01 -0.65024161691E+02  0.78581657985E+02  0.00000000000E+00 0. -1.
         11    1    3    3    0    0 -0.44124088156E+02 -0.14576154096E-01 -0.97225031295E+02  0.10676910639E+03  0.00000000000E+00 0.  1.
<mgrwt>
<rscale>  0 0.89610854E+02</rscale>
<asrwt>0</asrwt>
<pdfrwt beam="2">  1        2 0.26738458E-01 0.89610854E+02</pdfrwt>
<pdfrwt beam="1">  1       -2 0.17770440E-02 0.89610854E+02</pdfrwt>
<totfact> 0.15415229E+05</totfact>
</mgrwt>
</event>
<event>
 5    1  0.1227473E+001  0.9081171E+02  0.7546771E-02  0.1300898E+00
          2   -1    0    0  501    0  0.00000000000E+00  0.00000000000E+00  0.60870722806E+02  0.60870722806E+02  0.00000000000E+00 0. -1.
         -2   -1    0    0    0  501 -0.00000000000E+00 -0.00000000000E+00 -0.33870003231E+02  0.33870003231E+02  0.00000000000E+00 0.  1.
         23    2    1    2    0    0  0.00000000000E+00  0.00000000000E+00  0.27000719575E+02  0.94740726037E+02  0.90811708014E+02 0.  0.
        -11    1    3    3    0    0 -0.32687993589E+02 -0.16924320208E+02  0.41235413670E+02  0.55274739981E+02  0.00000000000E+00 0. -1.
         11    1    3    3    0    0  0.32687993589E+02  0.16924320208E+02 -0.14234694095E+02  0.39465986056E+02  0.00000000000E+00 0.  1.
<mgrwt>
<rscale>  0 0.90811708E+02</rscale>
<asrwt>0</asrwt>
<pdfrwt beam="1">  1        2 0.93647266E-02 0.90811708E+02</pdfrwt>
<pdfrwt beam="2">  1       -2 0.52107697E-02 0.90811708E+02</pdfrwt>
<totfact> 0.10769107E+05</totfact>
</mgrwt>
</event>
<event>
 5    1  0.1227473E+001  0.8970122E+02  0.7546771E-02  0.1303577E+00
          3   -1    0    0  501    0  0.00000000000E+00  0.00000000000E+00  0.57069547446E+02  0.57069547446E+02  0.00000000000E+00 0. -1.
         -3   -1    0    0    0  501 -0.00000000000E+00 -0.00000000000E+00 -0.35247824710E+02  0.35247824710E+02  0.00000000000E+00 0.  1.
         23    2    1    2    0    0  0.00000000000E+00  0.00000000000E+00  0.21821722736E+02  0.92317372156E+02  0.89701224175E+02 0.  0.
        -13    1    3    3    0    0 -0.88998964320E+01  0.13827273772E+02 -0.32033521726E+02  0.36007612677E+02  0.00000000000E+00 0.  1.
         13    1    3    3    0    0  0.88998964320E+01 -0.13827273772E+02  0.53855244463E+02  0.56309759479E+02  0.00000000000E+00 0. -1.
<mgrwt>
<rscale>  0 0.89701224E+02</rscale>
<asrwt>0</asrwt>
<pdfrwt beam="1">  1        3 0.87799304E-02 0.89701224E+02</pdfrwt>
<pdfrwt beam="2">  1       -3 0.54227423E-02 0.89701224E+02</pdfrwt>
<totfact> 0.36849496E+04</totfact>
</mgrwt>
</event>
<event>
 5    1  0.1227473E+001  0.9062526E+02  0.7546771E-02  0.1301345E+00
         -1   -1    0    0    0  501 -0.00000000000E+00  0.00000000000E+00  0.13352720485E+03  0.13352720485E+03  0.00000000000E+00 0.  1.
          1   -1    0    0  501    0  0.00000000000E+00 -0.00000000000E+00 -0.15376900568E+02  0.15376900568E+02  0.00000000000E+00 0. -1.
         23    2    1    2    0    0  0.00000000000E+00  0.00000000000E+00  0.11815030428E+03  0.14890410542E+03  0.90625262530E+02 0.  0.
        -13    1    3    3    0    0  0.28398061227E+02 -0.27025601049E+02  0.21737142259E+02  0.44825621548E+02  0.00000000000E+00 0.  1.
         13    1    3    3    0    0 -0.28398061227E+02  0.27025601049E+02  0.96413162023E+02  0.10407848387E+03  0.00000000000E+00 0. -1.
<mgrwt>
<rscale>  0 0.90625263E+02</rscale>
<asrwt>0</asrwt>
<pdfrwt beam="2">  1        1 0.23656771E-02 0.90625263E+02</pdfrwt>
<pdfrwt beam="1">  1       -1 0.20542646E-01 0.90625263E+02</pdfrwt>
<totfact> 0.77994846E+04</totfact>
</mgrwt>
</event>
<event>
 5    1  0.1227473E+001  0.9020103E+02  0.7546771E-02  0.1302366E+00
         -2   -1    0    0    0  501 -0.00000000000E+00  0.00000000000E+00  0.14945587563E+03  0.14945587563E+03  0.00000000000E+00 0.  1.
          2   -1    0    0  501    0  0.00000000000E+00 -0.00000000000E+00 -0.13609745757E+02  0.13609745757E+02  0.00000000000E+00 0. -1.
         23    2    1    2    0    0  0.00000000000E+00  0.00000000000E+00  0.13584612988E+03  0.16306562139E+03  0.90201030355E+02 0.  0.
        -13    1    3    3    0    0 -0.32749630563E+02  0.27079579607E+02  0.40613010714E+02  0.58781447524E+02  0.00000000000E+00 0. -1.
         13    1    3    3    0    0  0.32749630563E+02 -0.27079579607E+02  0.95233119163E+02  0.10428417387E+03  0.00000000000E+00 0.  1.
<mgrwt>
<rscale>  0 0.90201030E+02</rscale>
<asrwt>0</asrwt>
<pdfrwt beam="2">  1        2 0.20938071E-02 0.90201030E+02</pdfrwt>
<pdfrwt beam="1">  1       -2 0.22993210E-01 0.90201030E+02</pdfrwt>
<totfact> 0.71878877E+04</totfact>
</mgrwt>
</event>
<event>
 5    1  0.1227473E+001  0.9040786E+02  0.7546771E-02  0.1301867E+00
         -4   -1    0    0    0  501 -0.00000000000E+00  0.00000000000E+00  0.48908953059E+02  0.48908953059E+02  0.00000000000E+00 0.  1.
          4   -1    0    0  501    0  0.00000000000E+00 -0.00000000000E+00 -0.41779570790E+02  0.41779570790E+02  0.00000000000E+00 0. -1.
         23    2    1    2    0    0  0.00000000000E+00  0.00000000000E+00  0.71293822693E+01  0.90688523849E+02  0.90407855114E+02 0.  0.
        -11    1    3    3    0    0 -0.19671647205E+02 -0.13547242208E+02 -0.34932749081E+02  0.42317826428E+02  0.00000000000E+00 0. -1.
         11    1    3    3    0    0  0.19671647205E+02  0.13547242208E+02  0.42062131351E+02  0.48370697421E+02  0.00000000000E+00 0.  1.
<mgrwt>
<rscale>  0 0.90407855E+02</rscale>
<asrwt>0</asrwt>
<pdfrwt beam="2">  1        4 0.64276263E-02 0.90407855E+02</pdfrwt>
<pdfrwt beam="1">  1       -4 0.75244543E-02 0.90407855E+02</pdfrwt>
<totfact> 0.27675827E+04</totfact>
</mgrwt>
</event>
<event>
 5    1  0.1227473E+001  0.9077529E+02  0.7546771E-02  0.1300985E+00
         -2   -1    0    0    0  501 -0.00000000000E+00  0.00000000000E+00  0.11788026873E+03  0.11788026873E+03  0.00000000000E+00 0.  1.
          2   -1    0    0  501    0  0.00000000000E+00 -0.00000000000E+00 -0.17475684704E+02  0.17475684704E+02  0.00000000000E+00 0. -1.
         23    2    1    2    0    0  0.00000000000E+00  0.00000000000E+00  0.10040458403E+03  0.13535595343E+03  0.90775291994E+02 0.  0.
        -11    1    3    3    0    0  0.41003057671E+02 -0.25491089322E+01  0.78972978637E+02  0.89019548693E+02  0.00000000000E+00 0.  1.
         11    1    3    3    0    0 -0.41003057671E+02  0.25491089322E+01  0.21431605388E+02  0.46336404740E+02  0.00000000000E+00 0. -1.
<mgrwt>
<rscale>  0 0.90775292E+02</rscale>
<asrwt>0</asrwt>
<pdfrwt beam="2">  1        2 0.26885669E-02 0.90775292E+02</pdfrwt>
<pdfrwt beam="1">  1       -2 0.18135425E-01 0.90775292E+02</pdfrwt>
<totfact> 0.76694668E+04</totfact>
</mgrwt>
</event>
<event>
 5    1  0.1227473E+001  0.9047774E+02  0.7546771E-02  0.1301699E+00
         -1   -1    0    0    0  501 -0.00000000000E+00  0.00000000000E+00  0.16784009564E+03  0.16784009564E+03  0.00000000000E+00 0.  1.
          1   -1    0    0  501    0  0.00000000000E+00 -0.00000000000E+00 -0.12193481995E+02  0.12193481995E+02  0.00000000000E+00 0. -1.
         23    2    1    2    0    0  0.00000000000E+00  0.00000000000E+00  0.15564661364E+03  0.18003357763E+03  0.90477736138E+02 0.  0.
        -11    1    3    3    0    0  0.27289278062E+02 -0.17080401887E+02  0.14582675212E+02  0.35342598123E+02  0.00000000000E+00 0. -1.
         11    1    3    3    0    0 -0.27289278062E+02  0.17080401887E+02  0.14106393843E+03  0.14469097951E+03  0.00000000000E+00 0.  1.
<mgrwt>
<rscale>  0 0.90477736E+02</rscale>
<asrwt>0</asrwt>
<pdfrwt beam="2">  1        1 0.18759204E-02 0.90477736E+02</pdfrwt>
<pdfrwt beam="1">  1       -1 0.25821552E-01 0.90477736E+02</pdfrwt>
<totfact> 0.74243443E+04</totfact>
</mgrwt>
</event>
<event>
 5    1  0.1227473E+001  0.9226665E+02  0.7546771E-02  0.1297454E+00
         -2   -1    0    0    0  501 -0.00000000000E+00  0.00000000000E+00  0.14233436077E+02  0.14233436077E+02  0.00000000000E+00 0.  1.
          2   -1    0    0  501    0  0.00000000000E+00 -0.00000000000E+00 -0.14952706145E+03  0.14952706145E+03  0.00000000000E+00 0. -1.
         23    2    1    2    0    0  0.00000000000E+00  0.00000000000E+00 -0.13529362537E+03  0.16376049753E+03  0.92266654235E+02 0.  0.
        -13    1    3    3    0    0  0.17734483751E+02  0.26741449354E+02 -0.88170108295E+01  0.33276969625E+02  0.00000000000E+00 0.  1.
         13    1    3    3    0    0 -0.17734483751E+02 -0.26741449354E+02 -0.12647661454E+03  0.13048352790E+03  0.00000000000E+00 0. -1.
<mgrwt>
<rscale>  0 0.92266654E+02</rscale>
<asrwt>0</asrwt>
<pdfrwt beam="2">  1        2 0.23004162E-01 0.92266654E+02</pdfrwt>
<pdfrwt beam="1">  1       -2 0.21897595E-02 0.92266654E+02</pdfrwt>
<totfact> 0.13522005E+05</totfact>
</mgrwt>
</event>
<event>
 5    1  0.1227473E+001  0.9211292E+02  0.7546771E-02  0.1297814E+00
          3   -1    0    0  501    0  0.00000000000E+00  0.00000000000E+00  0.15124478873E+03  0.15124478873E+03  0.00000000000E+00 0. -1.
         -3   -1    0    0    0  501 -0.00000000000E+00 -0.00000000000E+00 -0.14024929007E+02  0.14024929007E+02  0.00000000000E+00 0.  1.
         23    2    1    2    0    0  0.00000000000E+00  0.00000000000E+00  0.13721985972E+03  0.16526971774E+03  0.92112918196E+02 0.  0.
        -11    1    3    3    0    0 -0.36164922012E+02  0.82709852159E+01  0.11757854677E+03  0.12329243870E+03  0.00000000000E+00 0. -1.
         11    1    3    3    0    0  0.36164922012E+02 -0.82709852159E+01  0.19641312948E+02  0.41977279031E+02  0.00000000000E+00 0.  1.
<mgrwt>
<rscale>  0 0.92112918E+02</rscale>
<asrwt>0</asrwt>
<pdfrwt beam="1">  1        3 0.23268428E-01 0.92112918E+02</pdfrwt>
<pdfrwt beam="2">  1       -3 0.21576815E-02 0.92112918E+02</pdfrwt>
<totfact> 0.29568123E+04</totfact>
</mgrwt>
</event>
<event>
 5    1  0.1227473E+001  0.9258937E+02  0.7546771E-02  0.1296700E+00
          2   -1    0    0  501    0  0.00000000000E+00  0.00000000000E+00  0.52411839341E+03  0.52411839341E+03  0.00000000000E+00 0. -1.
         -2   -1    0    0    0  501 -0.00000000000E+00 -0.00000000000E+00 -0.40891480373E+01  0.40891480373E+01  0.00000000000E+00 0.  1.
         23    2    1    2    0    0  0.00000000000E+00  0.00000000000E+00  0.52002924538E+03  0.52820754145E+03  0.92589366554E+02 0.  0.
        -11    1    3    3    0    0  0.43007358811E+02 -0.17120283392E+02  0.26388671079E+03  0.26791590685E+03  0.00000000000E+00 0. -1.
         11    1    3    3    0    0 -0.43007358811E+02  0.17120283392E+02  0.25614253459E+03  0.26029163460E+03  0.00000000000E+00 0.  1.
<mgrwt>
<rscale>  0 0.92589367E+02</rscale>
<asrwt>0</asrwt>
<pdfrwt beam="1">  1        2 0.80633546E-01 0.92589367E+02</pdfrwt>
<pdfrwt beam="2">  1       -2 0.62910011E-03 0.92589367E+02</pdfrwt>
<totfact> 0.21004560E+05</totfact>
</mgrwt>
</event>
<event>
 5    1  0.1227473E+001  0.9062776E+02  0.7546771E-02  0.1301339E+00
          1   -1    0    0  501    0  0.00000000000E+00  0.00000000000E+00  0.13232736110E+03  0.13232736110E+03  0.00000000000E+00 0. -1.
         -1   -1    0    0    0  501 -0.00000000000E+00 -0.00000000000E+00 -0.15517181049E+02  0.15517181049E+02  0.00000000000E+00 0.  1.
         23    2    1    2    0    0  0.00000000000E+00  0.00000000000E+00  0.11681018005E+03  0.14784454215E+03  0.90627757777E+02 0.  0.
        -13    1    3    3    0    0  0.28467960438E+02  0.25694444892E+02  0.97784881188E+02  0.10503576657E+03  0.00000000000E+00 0. -1.
         13    1    3    3    0    0 -0.28467960438E+02 -0.25694444892E+02  0.19025298861E+02  0.42808775579E+02  0.00000000000E+00 0.  1.
<mgrwt>
<rscale>  0 0.90627758E+02</rscale>
<asrwt>0</asrwt>
<pdfrwt beam="1">  1        1 0.20358055E-01 0.90627758E+02</pdfrwt>
<pdfrwt beam="2">  1       -1 0.23872587E-02 0.90627758E+02</pdfrwt>
<totfact> 0.11141794E+05</totfact>
</mgrwt>
</event>
<event>
 4    1  0.1227473E+001  0.4119339E+02  0.7546771E-02  0.1499609E+00
          1   -1    0    0  501    0  0.00000000000E+00  0.00000000000E+00  0.14303964139E+03  0.14303964139E+03  0.00000000000E+00 0.  1.
         -1   -1    0    0    0  501 -0.00000000000E+00 -0.00000000000E+00 -0.29657785316E+01  0.29657785316E+01  0.00000000000E+00 0. -1.
        -11    1    1    2    0    0 -0.17231926577E+02  0.10136676153E+02  0.87592360217E+02  0.89844939008E+02  0.00000000000E+00 0.  1.
         11    1    1    2    0    0  0.17231926577E+02 -0.10136676153E+02  0.52481502644E+02  0.56160480916E+02  0.00000000000E+00 0. -1.
<mgrwt>
<rscale>  0 0.41193393E+02</rscale>
<asrwt>0</asrwt>
<pdfrwt beam="1">  1        1 0.22006093E-01 0.41193393E+02</pdfrwt>
<pdfrwt beam="2">  1       -1 0.45627373E-03 0.41193393E+02</pdfrwt>
<totfact> 0.86040758E+05</totfact>
</mgrwt>
</event>
<event>
 5    1  0.1227473E+001  0.9144340E+02  0.7546771E-02  0.1299393E+00
         -2   -1    0    0    0  501 -0.00000000000E+00  0.00000000000E+00  0.23121452579E+03  0.23121452579E+03  0.00000000000E+00 0.  1.
          2   -1    0    0  501    0  0.00000000000E+00 -0.00000000000E+00 -0.90412732924E+01  0.90412732924E+01  0.00000000000E+00 0. -1.
         23    2    1    2    0    0  0.00000000000E+00  0.00000000000E+00  0.22217325250E+03  0.24025579908E+03  0.91443397068E+02 0.  0.
        -11    1    3    3    0    0  0.38899605847E+02  0.10683120863E+02  0.16763101842E+03  0.17241655009E+03  0.00000000000E+00 0. -1.
         11    1    3    3    0    0 -0.38899605847E+02 -0.10683120863E+02  0.54542234074E+02  0.67839248995E+02  0.00000000000E+00 0.  1.
<mgrwt>
<rscale>  0 0.91443397E+02</rscale>
<asrwt>0</asrwt>
<pdfrwt beam="2">  1        2 0.13909653E-02 0.91443397E+02</pdfrwt>
<pdfrwt beam="1">  1       -2 0.35571461E-01 0.91443397E+02</pdfrwt>
<totfact> 0.57918649E+04</totfact>
</mgrwt>
</event>
<event>
 5    1  0.1227473E+001  0.8149621E+02  0.7546771E-02  0.1324858E+00
         -2   -1    0    0    0  501 -0.00000000000E+00  0.00000000000E+00  0.41162178338E+02  0.41162178338E+02  0.00000000000E+00 0.  1.
          2   -1    0    0  501    0  0.00000000000E+00 -0.00000000000E+00 -0.40338198232E+02  0.40338198232E+02  0.00000000000E+00 0. -1.
         23    2    1    2    0    0  0.00000000000E+00  0.00000000000E+00  0.82398010646E+00  0.81500376570E+02  0.81496211187E+02 0.  0.
        -11    1    3    3    0    0 -0.16608458386E+02 -0.25819252489E+02  0.27207639166E+02  0.41021096012E+02  0.00000000000E+00 0. -1.
         11    1    3    3    0    0  0.16608458386E+02  0.25819252489E+02 -0.26383659060E+02  0.40479280557E+02  0.00000000000E+00 0.  1.
<mgrwt>
<rscale>  0 0.81496211E+02</rscale>
<asrwt>0</asrwt>
<pdfrwt beam="2">  1        2 0.62058767E-02 0.81496211E+02</pdfrwt>
<pdfrwt beam="1">  1       -2 0.63326428E-02 0.81496211E+02</pdfrwt>
<totfact> 0.13177026E+05</totfact>
</mgrwt>
</event>
<event>
 5    1  0.1227473E+001  0.9200048E+02  0.7546771E-02  0.1298078E+00
         -1   -1    0    0    0  501 -0.00000000000E+00  0.00000000000E+00  0.60473288126E+01  0.60473288126E+01  0.00000000000E+00 0.  1.
          1   -1    0    0  501    0  0.00000000000E+00 -0.00000000000E+00 -0.34991018924E+03  0.34991018924E+03  0.00000000000E+00 0. -1.
         23    2    1    2    0    0  0.00000000000E+00  0.00000000000E+00 -0.34386286043E+03  0.35595751806E+03  0.92000477591E+02 0.  0.
        -13    1    3    3    0    0 -0.44731611731E+02 -0.58988640614E+01 -0.13725868238E+03  0.14448411530E+03  0.00000000000E+00 0.  1.
         13    1    3    3    0    0  0.44731611731E+02  0.58988640614E+01 -0.20660417805E+03  0.21147340275E+03  0.00000000000E+00 0. -1.
<mgrwt>
<rscale>  0 0.92000478E+02</rscale>
<asrwt>0</asrwt>
<pdfrwt beam="2">  1        1 0.53832339E-01 0.92000478E+02</pdfrwt>
<pdfrwt beam="1">  1       -1 0.93035824E-03 0.92000478E+02</pdfrwt>
<totfact> 0.12870828E+05</totfact>
</mgrwt>
</event>
<event>
 5    1  0.1227473E+001  0.9424996E+02  0.7546771E-02  0.1292874E+00
          4   -1    0    0  501    0  0.00000000000E+00  0.00000000000E+00  0.57229399302E+02  0.57229399302E+02  0.00000000000E+00 0. -1.
         -4   -1    0    0    0  501 -0.00000000000E+00 -0.00000000000E+00 -0.38804600393E+02  0.38804600393E+02  0.00000000000E+00 0.  1.
         23    2    1    2    0    0  0.00000000000E+00  0.00000000000E+00  0.18424798909E+02  0.96033999695E+02  0.94249964895E+02 0.  0.
        -13    1    3    3    0    0 -0.23786364396E+02 -0.35991592452E+02 -0.10109082958E+02  0.44310037426E+02  0.00000000000E+00 0.  1.
         13    1    3    3    0    0  0.23786364396E+02  0.35991592452E+02  0.28533881867E+02  0.51723962269E+02  0.00000000000E+00 0. -1.
<mgrwt>
<rscale>  0 0.94249965E+02</rscale>
<asrwt>0</asrwt>
<pdfrwt beam="1">  1        4 0.88045230E-02 0.94249965E+02</pdfrwt>
<pdfrwt beam="2">  1       -4 0.59699385E-02 0.94249965E+02</pdfrwt>
<totfact> 0.24401638E+04</totfact>
</mgrwt>
</event>
<event>
 5    1  0.1227473E+001  0.9162025E+02  0.7546771E-02  0.1298975E+00
          1   -1    0    0  501    0  0.00000000000E+00  0.00000000000E+00  0.28738977211E+02  0.28738977211E+02  0.00000000000E+00 0. -1.
         -1   -1    0    0    0  501 -0.00000000000E+00 -0.00000000000E+00 -0.73021646605E+02  0.73021646605E+02  0.00000000000E+00 0.  1.
         23    2    1    2    0    0  0.00000000000E+00  0.00000000000E+00 -0.44282669395E+02  0.10176062382E+03  0.91620247493E+02 0.  0.
        -13    1    3    3    0    0  0.34070239105E+02  0.20671429850E+01 -0.56076387050E+02  0.65647661477E+02  0.00000000000E+00 0.  1.
         13    1    3    3    0    0 -0.34070239105E+02 -0.20671429850E+01  0.11793717656E+02  0.36112962339E+02  0.00000000000E+00 0. -1.
<mgrwt>
<rscale>  0 0.91620247E+02</rscale>
<asrwt>0</asrwt>
<pdfrwt beam="1">  1        1 0.44213811E-02 0.91620247E+02</pdfrwt>
<pdfrwt beam="2">  1       -1 0.11234099E-01 0.91620247E+02</pdfrwt>
<totfact> 0.84886969E+04</totfact>
</mgrwt>
</event>
<event>
 5    1  0.1227473E+001  0.9166164E+02  0.7546771E-02  0.1298877E+00
          3   -1    0    0  501    0  0.00000000000E+00  0.00000000000E+00  0.10540948273E+02  0.10540948273E+02  0.00000000000E+00 0. -1.
         -3   -1    0    0    0  501 -0.00000000000E+00 -0.00000000000E+00 -0.19926708871E+03  0.19926708871E+03  0.00000000000E+00 0.  1.
         23    2    1    2    0    0  0.00000000000E+00  0.00000000000E+00 -0.18872614044E+03  0.20980803698E+03  0.91661640279E+02 0.  0.
        -13    1    3    3    0    0 -0.10761334191E+02 -0.41466961521E+02 -0.57091354875E+02  0.71377433499E+02  0.00000000000E+00 0.  1.
         13    1    3    3    0    0  0.10761334191E+02  0.41466961521E+02 -0.13163478556E+03  0.13843060348E+03  0.00000000000E+00 0. -1.
<mgrwt>
<rscale>  0 0.91661640E+02</rscale>
<asrwt>0</asrwt>
<pdfrwt beam="1">  1        3 0.16216843E-02 0.91661640E+02</pdfrwt>
<pdfrwt beam="2">  1       -3 0.30656476E-01 0.91661640E+02</pdfrwt>
<totfact> 0.27599309E+04</totfact>
</mgrwt>
</event>
<event>
 5    1  0.1227473E+001  0.9109690E+02  0.7546771E-02  0.1300217E+00
         -1   -1    0    0    0  501 -0.00000000000E+00  0.00000000000E+00  0.10727787029E+03  0.10727787029E+03  0.00000000000E+00 0.  1.
          1   -1    0    0  501    0  0.00000000000E+00 -0.00000000000E+00 -0.19339135868E+02  0.19339135868E+02  0.00000000000E+00 0. -1.
         23    2    1    2    0    0  0.00000000000E+00  0.00000000000E+00  0.87938734419E+02  0.12661700616E+03  0.91096900258E+02 0.  0.
        -11    1    3    3    0    0  0.18537038134E+02 -0.15494039179E+02  0.97638368813E+02  0.10058299109E+03  0.00000000000E+00 0.  1.
         11    1    3    3    0    0 -0.18537038134E+02  0.15494039179E+02 -0.96996343941E+01  0.26034015062E+02  0.00000000000E+00 0. -1.
<mgrwt>
<rscale>  0 0.91096900E+02</rscale>
<asrwt>0</asrwt>
<pdfrwt beam="2">  1        1 0.29752517E-02 0.91096900E+02</pdfrwt>
<pdfrwt beam="1">  1       -1 0.16504287E-01 0.91096900E+02</pdfrwt>
<totfact> 0.80478351E+04</totfact>
</mgrwt>
</event>
<event>
 5    1  0.1227473E+001  0.9774748E+02  0.7546771E-02  0.1285105E+00
         -2   -1    0    0    0  501 -0.00000000000E+00  0.00000000000E+00  0.10194304487E+03  0.10194304487E+03  0.00000000000E+00 0. -1.
          2   -1    0    0  501    0  0.00000000000E+00 -0.00000000000E+00 -0.23431145649E+02  0.23431145649E+02  0.00000000000E+00 0.  1.
         23    2    1    2    0    0  0.00000000000E+00  0.00000000000E+00  0.78511899220E+02  0.12537419052E+03  0.97747477352E+02 0.  0.
        -11    1    3    3    0    0  0.19691871386E+02  0.36003516421E+02  0.73303028988E+02  0.84008077303E+02  0.00000000000E+00 0. -1.
         11    1    3    3    0    0 -0.19691871386E+02 -0.36003516421E+02  0.52088702316E+01  0.41366113214E+02  0.00000000000E+00 0.  1.
<mgrwt>
<rscale>  0 0.97747477E+02</rscale>
<asrwt>0</asrwt>
<pdfrwt beam="2">  1        2 0.36047917E-02 0.97747477E+02</pdfrwt>
<pdfrwt beam="1">  1       -2 0.15683545E-01 0.97747477E+02</pdfrwt>
<totfact> 0.66721307E+04</totfact>
</mgrwt>
</event>
<event>
 5    1  0.1227473E+001  0.9018453E+02  0.7546771E-02  0.1302405E+00
          1   -1    0    0  501    0  0.00000000000E+00  0.00000000000E+00  0.15076661332E+03  0.15076661332E+03  0.00000000000E+00 0. -1.
         -1   -1    0    0    0  501 -0.00000000000E+00 -0.00000000000E+00 -0.13486488503E+02  0.13486488503E+02  0.00000000000E+00 0.  1.
         23    2    1    2    0    0  0.00000000000E+00  0.00000000000E+00  0.13728012482E+03  0.16425310182E+03  0.90184526326E+02 0.  0.
        -13    1    3    3    0    0 -0.13004911665E+02  0.26596510942E+02  0.66941602295E+01  0.30353153096E+02  0.00000000000E+00 0.  1.
         13    1    3    3    0    0  0.13004911665E+02 -0.26596510942E+02  0.13058596459E+03  0.13389994873E+03  0.00000000000E+00 0. -1.
<mgrwt>
<rscale>  0 0.90184526E+02</rscale>
<asrwt>0</asrwt>
<pdfrwt beam="1">  1        1 0.23194862E-01 0.90184526E+02</pdfrwt>
<pdfrwt beam="2">  1       -1 0.20748445E-02 0.90184526E+02</pdfrwt>
<totfact> 0.11559610E+05</totfact>
</mgrwt>
</event>
<event>
 5    1  0.1227473E+001  0.9187932E+02  0.7546771E-02  0.1298363E+00
          1   -1    0    0  501    0  0.00000000000E+00  0.00000000000E+00  0.27210776906E+02  0.27210776906E+02  0.00000000000E+00 0. -1.
         -1   -1    0    0    0  501 -0.00000000000E+00 -0.00000000000E+00 -0.77559422634E+02  0.77559422634E+02  0.00000000000E+00 0.  1.
         23    2    1    2    0    0  0.00000000000E+00  0.00000000000E+00 -0.50348645728E+02  0.10477019954E+03  0.91879315327E+02 0.  0.
        -13    1    3    3    0    0 -0.88652946427E+01 -0.45056280123E+02 -0.26700079198E+02  0.53118321292E+02  0.00000000000E+00 0. -1.
         13    1    3    3    0    0  0.88652946427E+01  0.45056280123E+02 -0.23648566529E+02  0.51651878248E+02  0.00000000000E+00 0.  1.
<mgrwt>
<rscale>  0 0.91879315E+02</rscale>
<asrwt>0</asrwt>
<pdfrwt beam="1">  1        1 0.41862734E-02 0.91879315E+02</pdfrwt>
<pdfrwt beam="2">  1       -1 0.11932219E-01 0.91879315E+02</pdfrwt>
<totfact> 0.83436968E+04</totfact>
</mgrwt>
</event>
<event>
 5    1  0.1227473E+001  0.9296840E+02  0.7546771E-02  0.1295818E+00
         -3   -1    0    0    0  501 -0.00000000000E+00  0.00000000000E+00  0.68268224609E+02  0.68268224609E+02  0.00000000000E+00 0.  1.
          3   -1    0    0  501    0  0.00000000000E+00 -0.00000000000E+00 -0.31651341197E+02  0.31651341197E+02  0.00000000000E+00 0. -1.
         23    2    1    2    0    0  0.00000000000E+00  0.00000000000E+00  0.36616883411E+02  0.99919565806E+02  0.92968400439E+02 0.  0.
        -11    1    3    3    0    0 -0.21301711873E+02 -0.12498534402E+02  0.60633124965E+02  0.65470238536E+02  0.00000000000E+00 0.  1.
         11    1    3    3    0    0  0.21301711873E+02  0.12498534402E+02 -0.24016241554E+02  0.34449327270E+02  0.00000000000E+00 0. -1.
<mgrwt>
<rscale>  0 0.92968400E+02</rscale>
<asrwt>0</asrwt>
<pdfrwt beam="2">  1        3 0.48694371E-02 0.92968400E+02</pdfrwt>
<pdfrwt beam="1">  1       -3 0.10502804E-01 0.92968400E+02</pdfrwt>
<totfact> 0.32884428E+04</totfact>
</mgrwt>
</event>
<event>
 5    1  0.1227473E+001  0.9434871E+02  0.7546771E-02  0.1292650E+00
          2   -1    0    0  501    0  0.00000000000E+00  0.00000000000E+00  0.10990978445E+03  0.10990978445E+03  0.00000000000E+00 0. -1.
         -2   -1    0    0    0  501 -0.00000000000E+00 -0.00000000000E+00 -0.20247696259E+02  0.20247696259E+02  0.00000000000E+00 0.  1.
         23    2    1    2    0    0  0.00000000000E+00  0.00000000000E+00  0.89662088190E+02  0.13015748071E+03  0.94348713429E+02 0.  0.
        -11    1    3    3    0    0  0.52777894919E+01 -0.37854025492E+02  0.66839919257E+01  0.38800232679E+02  0.00000000000E+00 0.  1.
         11    1    3    3    0    0 -0.52777894919E+01  0.37854025492E+02  0.82978096265E+02  0.91357248030E+02  0.00000000000E+00 0. -1.
<mgrwt>
<rscale>  0 0.94348713E+02</rscale>
<asrwt>0</asrwt>
<pdfrwt beam="1">  1        2 0.16909197E-01 0.94348713E+02</pdfrwt>
<pdfrwt beam="2">  1       -2 0.31150303E-02 0.94348713E+02</pdfrwt>
<totfact> 0.11496115E+05</totfact>
</mgrwt>
</event>
<event>
 5    1  0.1227473E+001  0.9225668E+02  0.7546771E-02  0.1297477E+00
          4   -1    0    0  501    0  0.00000000000E+00  0.00000000000E+00  0.14580436655E+02  0.14580436655E+02  0.00000000000E+00 0. -1.
         -4   -1    0    0    0  501 -0.00000000000E+00 -0.00000000000E+00 -0.14593688996E+03  0.14593688996E+03  0.00000000000E+00 0.  1.
         23    2    1    2    0    0  0.00000000000E+00  0.00000000000E+00 -0.13135645331E+03  0.16051732662E+03  0.92256676283E+02 0.  0.
        -11    1    3    3    0    0  0.22917840592E+02  0.68568766171E+01  0.29448532846E+01  0.24102206024E+02  0.00000000000E+00 0. -1.
         11    1    3    3    0    0 -0.22917840592E+02 -0.68568766171E+01 -0.13430130659E+03  0.13641512059E+03  0.00000000000E+00 0.  1.
<mgrwt>
<rscale>  0 0.92256676E+02</rscale>
<asrwt>0</asrwt>
<pdfrwt beam="1">  1        4 0.22431442E-02 0.92256676E+02</pdfrwt>
<pdfrwt beam="2">  1       -4 0.22451829E-01 0.92256676E+02</pdfrwt>
<totfact> 0.22432874E+04</totfact>
</mgrwt>
</event>
<event>
 5    1  0.1227473E+001  0.9826997E+02  0.7546771E-02  0.1283977E+00
         -1   -1    0    0    0  501 -0.00000000000E+00  0.00000000000E+00  0.37655955505E+02  0.37655955505E+02  0.00000000000E+00 0.  1.
          1   -1    0    0  501    0  0.00000000000E+00 -0.00000000000E+00 -0.64113282478E+02  0.64113282478E+02  0.00000000000E+00 0. -1.
         23    2    1    2    0    0  0.00000000000E+00  0.00000000000E+00 -0.26457326973E+02  0.10176923798E+03  0.98269973283E+02 0.  0.
        -11    1    3    3    0    0 -0.16330772563E+02  0.43071387448E+02  0.44801954887E+01  0.46280781117E+02  0.00000000000E+00 0.  1.
         11    1    3    3    0    0  0.16330772563E+02 -0.43071387448E+02 -0.30937522462E+02  0.55488456865E+02  0.00000000000E+00 0. -1.
<mgrwt>
<rscale>  0 0.98269973E+02</rscale>
<asrwt>0</asrwt>
<pdfrwt beam="2">  1        1 0.98635819E-02 0.98269973E+02</pdfrwt>
<pdfrwt beam="1">  1       -1 0.57932239E-02 0.98269973E+02</pdfrwt>
<totfact> 0.79018957E+04</totfact>
</mgrwt>
</event>
<event>
 5    1  0.1227473E+001  0.1099995E+03  0.7546771E-02  0.1260571E+00
          1   -1    0    0  501    0  0.00000000000E+00  0.00000000000E+00  0.56332094252E+02  0.56332094252E+02  0.00000000000E+00 0. -1.
         -1   -1    0    0    0  501 -0.00000000000E+00 -0.00000000000E+00 -0.53698958086E+02  0.53698958086E+02  0.00000000000E+00 0.  1.
         23    2    1    2    0    0  0.00000000000E+00  0.00000000000E+00  0.26331361660E+01  0.11003105234E+03  0.10999954124E+03 0.  0.
        -11    1    3    3    0    0 -0.62444515896E+01  0.38007508297E+02 -0.37955485019E+02  0.54075712715E+02  0.00000000000E+00 0.  1.
         11    1    3    3    0    0  0.62444515896E+01 -0.38007508297E+02  0.40588621185E+02  0.55955339623E+02  0.00000000000E+00 0. -1.
<mgrwt>
<rscale>  0 0.10999954E+03</rscale>
<asrwt>0</asrwt>
<pdfrwt beam="1">  1        1 0.86664761E-02 0.10999954E+03</pdfrwt>
<pdfrwt beam="2">  1       -1 0.82613782E-02 0.10999954E+03</pdfrwt>
<totfact> 0.56190318E+04</totfact>
</mgrwt>
</event>
<event>
 5    1  0.1227473E+001  0.9320728E+02  0.7546771E-02  0.1295266E+00
         -2   -1    0    0    0  501 -0.00000000000E+00  0.00000000000E+00  0.14366409114E+03  0.14366409114E+03  0.00000000000E+00 0.  1.
          2   -1    0    0  501    0  0.00000000000E+00 -0.00000000000E+00 -0.15117897827E+02  0.15117897827E+02  0.00000000000E+00 0. -1.
         23    2    1    2    0    0  0.00000000000E+00  0.00000000000E+00  0.12854619331E+03  0.15878198896E+03  0.93207275493E+02 0.  0.
        -13    1    3    3    0    0  0.10208054459E+02 -0.45464437467E+02  0.62868736501E+02  0.78254057270E+02  0.00000000000E+00 0.  1.
         13    1    3    3    0    0 -0.10208054459E+02  0.45464437467E+02  0.65677456807E+02  0.80527931692E+02  0.00000000000E+00 0. -1.
<mgrwt>
<rscale>  0 0.93207275E+02</rscale>
<asrwt>0</asrwt>
<pdfrwt beam="2">  1        2 0.23258305E-02 0.93207275E+02</pdfrwt>
<pdfrwt beam="1">  1       -2 0.22102167E-01 0.93207275E+02</pdfrwt>
<totfact> 0.67103891E+04</totfact>
</mgrwt>
</event>
<event>
 5    1  0.1227473E+001  0.9079388E+02  0.7546771E-02  0.1300941E+00
          1   -1    0    0  501    0  0.00000000000E+00  0.00000000000E+00  0.23796875791E+02  0.23796875791E+02  0.00000000000E+00 0. -1.
         -1   -1    0    0    0  501 -0.00000000000E+00 -0.00000000000E+00 -0.86603050516E+02  0.86603050516E+02  0.00000000000E+00 0.  1.
         23    2    1    2    0    0  0.00000000000E+00  0.00000000000E+00 -0.62806174725E+02  0.11039992631E+03  0.90793877243E+02 0.  0.
        -13    1    3    3    0    0 -0.19725953634E+02 -0.26577423167E+02 -0.69183611194E+02  0.76693185661E+02  0.00000000000E+00 0.  1.
         13    1    3    3    0    0  0.19725953634E+02  0.26577423167E+02  0.63774364694E+01  0.33706740645E+02  0.00000000000E+00 0. -1.
<mgrwt>
<rscale>  0 0.90793877E+02</rscale>
<asrwt>0</asrwt>
<pdfrwt beam="1">  1        1 0.36610579E-02 0.90793877E+02</pdfrwt>
<pdfrwt beam="2">  1       -1 0.13323546E-01 0.90793877E+02</pdfrwt>
<totfact> 0.84411852E+04</totfact>
</mgrwt>
</event>
<event>
 5    1  0.1227473E+001  0.8881612E+02  0.7546771E-02  0.1305744E+00
         -2   -1    0    0    0  501 -0.00000000000E+00  0.00000000000E+00  0.16540234305E+02  0.16540234305E+02  0.00000000000E+00 0.  1.
          2   -1    0    0  501    0  0.00000000000E+00 -0.00000000000E+00 -0.11922901298E+03  0.11922901298E+03  0.00000000000E+00 0. -1.
         23    2    1    2    0    0  0.00000000000E+00  0.00000000000E+00 -0.10268877867E+03  0.13576924728E+03  0.88816120399E+02 0.  0.
        -11    1    3    3    0    0 -0.29565522027E+02 -0.98707987384E+01 -0.29914187026E+01  0.31312958121E+02  0.00000000000E+00 0.  1.
         11    1    3    3    0    0  0.29565522027E+02  0.98707987384E+01 -0.99697359972E+02  0.10445628916E+03  0.00000000000E+00 0. -1.
<mgrwt>
<rscale>  0 0.88816120E+02</rscale>
<asrwt>0</asrwt>
<pdfrwt beam="2">  1        2 0.18342925E-01 0.88816120E+02</pdfrwt>
<pdfrwt beam="1">  1       -2 0.25446515E-02 0.88816120E+02</pdfrwt>
<totfact> 0.13920915E+05</totfact>
</mgrwt>
</event>
<event>
 5    1  0.1227473E+001  0.9063852E+02  0.7546771E-02  0.1301313E+00
          1   -1    0    0  501    0  0.00000000000E+00  0.00000000000E+00  0.50307597852E+03  0.50307597852E+03  0.00000000000E+00 0. -1.
         -1   -1    0    0    0  501 -0.00000000000E+00 -0.00000000000E+00 -0.40825548512E+01  0.40825548512E+01  0.00000000000E+00 0.  1.
         23    2    1    2    0    0  0.00000000000E+00  0.00000000000E+00  0.49899342367E+03  0.50715853337E+03  0.90638518889E+02 0.  0.
        -11    1    3    3    0    0 -0.42794027456E+02 -0.14683097707E+02  0.26420859868E+03  0.26805429629E+03  0.00000000000E+00 0. -1.
         11    1    3    3    0    0  0.42794027456E+02  0.14683097707E+02  0.23478482498E+03  0.23910423707E+03  0.00000000000E+00 0.  1.
<mgrwt>
<rscale>  0 0.90638519E+02</rscale>
<asrwt>0</asrwt>
<pdfrwt beam="1">  1        1 0.77396255E-01 0.90638519E+02</pdfrwt>
<pdfrwt beam="2">  1       -1 0.62808576E-03 0.90638519E+02</pdfrwt>
<totfact> 0.14156820E+05</totfact>
</mgrwt>
</event>
<event>
 5    1  0.1227473E+001  0.9110257E+02  0.7546771E-02  0.1300203E+00
          2   -1    0    0  501    0  0.00000000000E+00  0.00000000000E+00  0.41673427801E+02  0.41673427801E+02  0.00000000000E+00 0. -1.
         -2   -1    0    0    0  501 -0.00000000000E+00 -0.00000000000E+00 -0.49789988468E+02  0.49789988468E+02  0.00000000000E+00 0.  1.
         23    2    1    2    0    0  0.00000000000E+00  0.00000000000E+00 -0.81165606670E+01  0.91463416270E+02  0.91102568343E+02 0.  0.
        -11    1    3    3    0    0  0.42657851874E+02  0.15267107252E+02 -0.87825110486E+01  0.46150941384E+02  0.00000000000E+00 0.  1.
         11    1    3    3    0    0 -0.42657851874E+02 -0.15267107252E+02  0.66595038162E+00  0.45312474885E+02  0.00000000000E+00 0. -1.
<mgrwt>
<rscale>  0 0.91102568E+02</rscale>
<asrwt>0</asrwt>
<pdfrwt beam="1">  1        2 0.64112966E-02 0.91102568E+02</pdfrwt>
<pdfrwt beam="2">  1       -2 0.76599982E-02 0.91102568E+02</pdfrwt>
<totfact> 0.96632924E+04</totfact>
</mgrwt>
</event>
<event>
 5    1  0.1227473E+001  0.9170218E+02  0.7546771E-02  0.1298781E+00
         -1   -1    0    0    0  501 -0.00000000000E+00  0.00000000000E+00  0.94443438828E+02  0.94443438828E+02  0.00000000000E+00 0.  1.
          1   -1    0    0  501    0  0.00000000000E+00 -0.00000000000E+00 -0.22260121567E+02  0.22260121567E+02  0.00000000000E+00 0. -1.
         23    2    1    2    0    0  0.00000000000E+00  0.00000000000E+00  0.72183317262E+02  0.11670356039E+03  0.91702179461E+02 0.  0.
        -13    1    3    3    0    0 -0.33926041554E+02 -0.22902422413E+02  0.62384012270E+02  0.74614088715E+02  0.00000000000E+00 0.  1.
         13    1    3    3    0    0  0.33926041554E+02  0.22902422413E+02  0.97993049918E+01  0.42089471679E+02  0.00000000000E+00 0. -1.
<mgrwt>
<rscale>  0 0.91702179E+02</rscale>
<asrwt>0</asrwt>
<pdfrwt beam="2">  1        1 0.34246342E-02 0.91702179E+02</pdfrwt>
<pdfrwt beam="1">  1       -1 0.14529760E-01 0.91702179E+02</pdfrwt>
<totfact> 0.81021511E+04</totfact>
</mgrwt>
</event>
<event>
 5    1  0.1227473E+001  0.9256994E+02  0.7546771E-02  0.1296745E+00
          1   -1    0    0  501    0  0.00000000000E+00  0.00000000000E+00  0.15429314218E+02  0.15429314218E+02  0.00000000000E+00 0. -1.
         -1   -1    0    0    0  501 -0.00000000000E+00 -0.00000000000E+00 -0.13884598823E+03  0.13884598823E+03  0.00000000000E+00 0.  1.
         23    2    1    2    0    0  0.00000000000E+00  0.00000000000E+00 -0.12341667401E+03  0.15427530245E+03  0.92569938540E+02 0.  0.
        -11    1    3    3    0    0  0.27356856433E+02  0.14141924203E+01  0.46877992925E+00  0.27397395655E+02  0.00000000000E+00 0. -1.
         11    1    3    3    0    0 -0.27356856433E+02 -0.14141924203E+01 -0.12388545394E+03  0.12687790679E+03  0.00000000000E+00 0.  1.
<mgrwt>
<rscale>  0 0.92569939E+02</rscale>
<asrwt>0</asrwt>
<pdfrwt beam="1">  1        1 0.23737406E-02 0.92569939E+02</pdfrwt>
<pdfrwt beam="2">  1       -1 0.21360922E-01 0.92569939E+02</pdfrwt>
<totfact> 0.73183169E+04</totfact>
</mgrwt>
</event>
<event>
 5    1  0.1227473E+001  0.9176207E+02  0.7546771E-02  0.1298640E+00
         -2   -1    0    0    0  501 -0.00000000000E+00  0.00000000000E+00  0.18856807331E+02  0.18856807331E+02  0.00000000000E+00 0. -1.
          2   -1    0    0  501    0  0.00000000000E+00 -0.00000000000E+00 -0.11163444787E+03  0.11163444787E+03  0.00000000000E+00 0.  1.
         23    2    1    2    0    0  0.00000000000E+00  0.00000000000E+00 -0.92777640543E+02  0.13049125520E+03  0.91762067872E+02 0.  0.
        -11    1    3    3    0    0 -0.18929632757E+02 -0.13789431614E+02 -0.10249430444E+03  0.10513592090E+03  0.00000000000E+00 0.  1.
         11    1    3    3    0    0  0.18929632757E+02  0.13789431614E+02  0.97166638965E+01  0.25355334307E+02  0.00000000000E+00 0. -1.
<mgrwt>
<rscale>  0 0.91762068E+02</rscale>
<asrwt>0</asrwt>
<pdfrwt beam="2">  1        2 0.17174531E-01 0.91762068E+02</pdfrwt>
<pdfrwt beam="1">  1       -2 0.29010472E-02 0.91762068E+02</pdfrwt>
<totfact> 0.12471347E+05</totfact>
</mgrwt>
</event>
<event>
 5    1  0.1227473E+001  0.9060545E+02  0.7546771E-02  0.1301392E+00
          1   -1    0    0  501    0  0.00000000000E+00  0.00000000000E+00  0.13195288541E+02  0.13195288541E+02  0.00000000000E+00 0. -1.
         -1   -1    0    0    0  501 -0.00000000000E+00 -0.00000000000E+00 -0.15553556734E+03  0.15553556734E+03  0.00000000000E+00 0.  1.
         23    2    1    2    0    0  0.00000000000E+00  0.00000000000E+00 -0.14234027880E+03  0.16873085588E+03  0.90605445519E+02 0.  0.
        -11    1    3    3    0    0  0.20167716076E+02 -0.40546766200E+02 -0.73495853653E+02  0.86327385719E+02  0.00000000000E+00 0. -1.
         11    1    3    3    0    0 -0.20167716076E+02  0.40546766200E+02 -0.68844425143E+02  0.82403470159E+02  0.00000000000E+00 0.  1.
<mgrwt>
<rscale>  0 0.90605446E+02</rscale>
<asrwt>0</asrwt>
<pdfrwt beam="1">  1        1 0.20300443E-02 0.90605446E+02</pdfrwt>
<pdfrwt beam="2">  1       -1 0.23928549E-01 0.90605446E+02</pdfrwt>
<totfact> 0.75368940E+04</totfact>
</mgrwt>
</event>
<event>
 5    1  0.1227473E+001  0.9558558E+02  0.7546771E-02  0.1289863E+00
         -3   -1    0    0    0  501 -0.00000000000E+00  0.00000000000E+00  0.13117760045E+03  0.13117760045E+03  0.00000000000E+00 0.  1.
          3   -1    0    0  501    0  0.00000000000E+00 -0.00000000000E+00 -0.17412660166E+02  0.17412660166E+02  0.00000000000E+00 0. -1.
         23    2    1    2    0    0  0.00000000000E+00  0.00000000000E+00  0.11376494028E+03  0.14859026062E+03  0.95585584226E+02 0.  0.
        -11    1    3    3    0    0  0.26038418964E+02 -0.39121736335E+02  0.43362432446E+02  0.63943803951E+02  0.00000000000E+00 0. -1.
         11    1    3    3    0    0 -0.26038418964E+02  0.39121736335E+02  0.70402507838E+02  0.84646456665E+02  0.00000000000E+00 0.  1.
<mgrwt>
<rscale>  0 0.95585584E+02</rscale>
<asrwt>0</asrwt>
<pdfrwt beam="2">  1        3 0.26788709E-02 0.95585584E+02</pdfrwt>
<pdfrwt beam="1">  1       -3 0.20181169E-01 0.95585584E+02</pdfrwt>
<totfact> 0.27610964E+04</totfact>
</mgrwt>
</event>
<event>
 5    1  0.1227473E+001  0.9562497E+02  0.7546771E-02  0.1289775E+00
          2   -1    0    0  501    0  0.00000000000E+00  0.00000000000E+00  0.33943164366E+02  0.33943164366E+02  0.00000000000E+00 0. -1.
         -2   -1    0    0    0  501 -0.00000000000E+00 -0.00000000000E+00 -0.67348862186E+02  0.67348862186E+02  0.00000000000E+00 0.  1.
         23    2    1    2    0    0  0.00000000000E+00  0.00000000000E+00 -0.33405697820E+02  0.10129202655E+03  0.95624965340E+02 0.  0.
        -11    1    3    3    0    0  0.15985328847E+02 -0.34281249679E+02  0.14275828382E+02  0.40429371674E+02  0.00000000000E+00 0. -1.
         11    1    3    3    0    0 -0.15985328847E+02  0.34281249679E+02 -0.47681526202E+02  0.60862654879E+02  0.00000000000E+00 0.  1.
<mgrwt>
<rscale>  0 0.95624965E+02</rscale>
<asrwt>0</asrwt>
<pdfrwt beam="1">  1        2 0.52220254E-02 0.95624965E+02</pdfrwt>
<pdfrwt beam="2">  1       -2 0.10361363E-01 0.95624965E+02</pdfrwt>
<totfact> 0.79401286E+04</totfact>
</mgrwt>
</event>
<event>
 5    1  0.1227473E+001  0.8900527E+02  0.7546771E-02  0.1305279E+00
          1   -1    0    0  501    0  0.00000000000E+00  0.00000000000E+00  0.16529493874E+03  0.16529493874E+03  0.00000000000E+00 0. -1.
         -1   -1    0    0    0  501 -0.00000000000E+00 -0.00000000000E+00 -0.11981520056E+02  0.11981520056E+02  0.00000000000E+00 0.  1.
         23    2    1    2    0    0  0.00000000000E+00  0.00000000000E+00  0.15331341869E+03  0.17727645880E+03  0.89005272287E+02 0.  0.
        -11    1    3    3    0    0 -0.32300425480E+02 -0.30067998058E+02  0.88112771212E+02  0.98545737828E+02  0.00000000000E+00 0.  1.
         11    1    3    3    0    0  0.32300425480E+02  0.30067998058E+02  0.65200647474E+02  0.78730720970E+02  0.00000000000E+00 0. -1.
<mgrwt>
<rscale>  0 0.89005272E+02</rscale>
<asrwt>0</asrwt>
<pdfrwt beam="1">  1        1 0.25429989E-01 0.89005272E+02</pdfrwt>
<pdfrwt beam="2">  1       -1 0.18433109E-02 0.89005272E+02</pdfrwt>
<totfact> 0.12180947E+05</totfact>
</mgrwt>
</event>
<event>
 5    1  0.1227473E+001  0.9205542E+02  0.7546771E-02  0.1297949E+00
          4   -1    0    0  501    0  0.00000000000E+00  0.00000000000E+00  0.61293044305E+02  0.61293044305E+02  0.00000000000E+00 0. -1.
         -4   -1    0    0    0  501 -0.00000000000E+00 -0.00000000000E+00 -0.34564280287E+02  0.34564280287E+02  0.00000000000E+00 0.  1.
         23    2    1    2    0    0  0.00000000000E+00  0.00000000000E+00  0.26728764018E+02  0.95857324591E+02  0.92055417287E+02 0.  0.
        -13    1    3    3    0    0 -0.28216385793E+02  0.36243717142E+02  0.10279161602E+02  0.47068382411E+02  0.00000000000E+00 0. -1.
         13    1    3    3    0    0  0.28216385793E+02 -0.36243717142E+02  0.16449602415E+02  0.48788942181E+02  0.00000000000E+00 0.  1.
<mgrwt>
<rscale>  0 0.92055417E+02</rscale>
<asrwt>0</asrwt>
<pdfrwt beam="1">  1        4 0.94296991E-02 0.92055417E+02</pdfrwt>
<pdfrwt beam="2">  1       -4 0.53175816E-02 0.92055417E+02</pdfrwt>
<totfact> 0.26029799E+04</totfact>
</mgrwt>
</event>
<event>
 5    1  0.1227473E+001  0.9156070E+02  0.7546771E-02  0.1299116E+00
          2   -1    0    0  501    0  0.00000000000E+00  0.00000000000E+00  0.44956933308E+02  0.44956933308E+02  0.00000000000E+00 0.  1.
         -2   -1    0    0    0  501 -0.00000000000E+00 -0.00000000000E+00 -0.46618845622E+02  0.46618845622E+02  0.00000000000E+00 0. -1.
         23    2    1    2    0    0  0.00000000000E+00  0.00000000000E+00 -0.16619123135E+01  0.91575778930E+02  0.91560697540E+02 0.  0.
        -11    1    3    3    0    0  0.82939877602E+01 -0.18287606372E+02  0.40317205360E+02  0.45041134842E+02  0.00000000000E+00 0.  1.
         11    1    3    3    0    0 -0.82939877602E+01  0.18287606372E+02 -0.41979117673E+02  0.46534644088E+02  0.00000000000E+00 0. -1.
<mgrwt>
<rscale>  0 0.91560698E+02</rscale>
<asrwt>0</asrwt>
<pdfrwt beam="1">  1        2 0.69164513E-02 0.91560698E+02</pdfrwt>
<pdfrwt beam="2">  1       -2 0.71721301E-02 0.91560698E+02</pdfrwt>
<totfact> 0.97137106E+04</totfact>
</mgrwt>
</event>
<event>
 5    1  0.1227473E+001  0.9299490E+02  0.7546771E-02  0.1295757E+00
         -2   -1    0    0    0  501 -0.00000000000E+00  0.00000000000E+00  0.15246556823E+02  0.15246556823E+02  0.00000000000E+00 0.  1.
          2   -1    0    0  501    0  0.00000000000E+00 -0.00000000000E+00 -0.14180335801E+03  0.14180335801E+03  0.00000000000E+00 0. -1.
         23    2    1    2    0    0  0.00000000000E+00  0.00000000000E+00 -0.12655680119E+03  0.15704991483E+03  0.92994902132E+02 0.  0.
        -11    1    3    3    0    0  0.36666114202E+02  0.27606010872E+02 -0.50695165915E+02  0.68384907795E+02  0.00000000000E+00 0.  1.
         11    1    3    3    0    0 -0.36666114202E+02 -0.27606010872E+02 -0.75861635273E+02  0.88665007039E+02  0.00000000000E+00 0. -1.
<mgrwt>
<rscale>  0 0.92994902E+02</rscale>
<asrwt>0</asrwt>
<pdfrwt beam="2">  1        2 0.21815901E-01 0.92994902E+02</pdfrwt>
<pdfrwt beam="1">  1       -2 0.23456242E-02 0.92994902E+02</pdfrwt>
<totfact> 0.12999562E+05</totfact>
</mgrwt>
</event>
<event>
 5    1  0.1227473E+001  0.9208221E+02  0.7546771E-02  0.1297886E+00
         -2   -1    0    0    0  501 -0.00000000000E+00  0.00000000000E+00  0.11748163757E+02  0.11748163757E+02  0.00000000000E+00 0.  1.
          2   -1    0    0  501    0  0.00000000000E+00 -0.00000000000E+00 -0.18043530840E+03  0.18043530840E+03  0.00000000000E+00 0. -1.
         23    2    1    2    0    0  0.00000000000E+00  0.00000000000E+00 -0.16868714464E+03  0.19218347216E+03  0.92082214366E+02 0.  0.
        -13    1    3    3    0    0  0.32244894806E+02 -0.22718556976E+02 -0.34781659577E+02  0.52589256651E+02  0.00000000000E+00 0.  1.
         13    1    3    3    0    0 -0.32244894806E+02  0.22718556976E+02 -0.13390548507E+03  0.13959421551E+03  0.00000000000E+00 0. -1.
<mgrwt>
<rscale>  0 0.92082214E+02</rscale>
<asrwt>0</asrwt>
<pdfrwt beam="2">  1        2 0.27759277E-01 0.92082214E+02</pdfrwt>
<pdfrwt beam="1">  1       -2 0.18074099E-02 0.92082214E+02</pdfrwt>
<totfact> 0.14514505E+05</totfact>
</mgrwt>
</event>
<event>
 5    1  0.1227473E+001  0.8776911E+02  0.7546771E-02  0.1308346E+00
          1   -1    0    0  501    0  0.00000000000E+00  0.00000000000E+00  0.16971379983E+02  0.16971379983E+02  0.00000000000E+00 0. -1.
         -1   -1    0    0    0  501 -0.00000000000E+00 -0.00000000000E+00 -0.11347658563E+03  0.11347658563E+03  0.00000000000E+00 0.  1.
         23    2    1    2    0    0  0.00000000000E+00  0.00000000000E+00 -0.96505205650E+02  0.13044796561E+03  0.87769111967E+02 0.  0.
        -11    1    3    3    0    0 -0.27834903194E+02  0.26844176303E+02 -0.79088978425E+02  0.88036686361E+02  0.00000000000E+00 0.  1.
         11    1    3    3    0    0  0.27834903194E+02 -0.26844176303E+02 -0.17416227225E+02  0.42411279254E+02  0.00000000000E+00 0. -1.
<mgrwt>
<rscale>  0 0.87769112E+02</rscale>
<asrwt>0</asrwt>
<pdfrwt beam="1">  1        1 0.26109815E-02 0.87769112E+02</pdfrwt>
<pdfrwt beam="2">  1       -1 0.17457936E-01 0.87769112E+02</pdfrwt>
<totfact> 0.87614692E+04</totfact>
</mgrwt>
</event>
<event>
 5    1  0.1227473E+001  0.8582728E+02  0.7546771E-02  0.1313283E+00
          2   -1    0    0  501    0  0.00000000000E+00  0.00000000000E+00  0.23743838452E+02  0.23743838452E+02  0.00000000000E+00 0.  1.
         -2   -1    0    0    0  501 -0.00000000000E+00 -0.00000000000E+00 -0.77560359881E+02  0.77560359881E+02  0.00000000000E+00 0. -1.
         23    2    1    2    0    0  0.00000000000E+00  0.00000000000E+00 -0.53816521429E+02  0.10130419833E+03  0.85827283663E+02 0.  0.
        -13    1    3    3    0    0 -0.10342050358E+02  0.37493820527E+02 -0.55044154732E+01  0.39281588219E+02  0.00000000000E+00 0.  1.
         13    1    3    3    0    0  0.10342050358E+02 -0.37493820527E+02 -0.48312105956E+02  0.62022610113E+02  0.00000000000E+00 0. -1.
<mgrwt>
<rscale>  0 0.85827284E+02</rscale>
<asrwt>0</asrwt>
<pdfrwt beam="1">  1        2 0.36528982E-02 0.85827284E+02</pdfrwt>
<pdfrwt beam="2">  1       -2 0.11932363E-01 0.85827284E+02</pdfrwt>
<totfact> 0.99525331E+04</totfact>
</mgrwt>
</event>
<event>
 5    1  0.1227473E+001  0.9175542E+02  0.7546771E-02  0.1298656E+00
          1   -1    0    0  501    0  0.00000000000E+00  0.00000000000E+00  0.38110470003E+03  0.38110470003E+03  0.00000000000E+00 0. -1.
         -1   -1    0    0    0  501 -0.00000000000E+00 -0.00000000000E+00 -0.55227976357E+01  0.55227976357E+01  0.00000000000E+00 0.  1.
         23    2    1    2    0    0  0.00000000000E+00  0.00000000000E+00  0.37558190240E+03  0.38662749767E+03  0.91755416980E+02 0.  0.
        -11    1    3    3    0    0 -0.44391622716E+02  0.10955884901E+02  0.20362257226E+03  0.20869307491E+03  0.00000000000E+00 0.  1.
         11    1    3    3    0    0  0.44391622716E+02 -0.10955884901E+02  0.17195933013E+03  0.17793442275E+03  0.00000000000E+00 0. -1.
<mgrwt>
<rscale>  0 0.91755417E+02</rscale>
<asrwt>0</asrwt>
<pdfrwt beam="1">  1        1 0.58631472E-01 0.91755417E+02</pdfrwt>
<pdfrwt beam="2">  1       -1 0.84966147E-03 0.91755417E+02</pdfrwt>
<totfact> 0.13157275E+05</totfact>
</mgrwt>
</event>
<event>
 5    1  0.1227473E+001  0.1128124E+03  0.7546771E-02  0.1255449E+00
         -1   -1    0    0    0  501 -0.00000000000E+00  0.00000000000E+00  0.18869964605E+02  0.18869964605E+02  0.00000000000E+00 0.  1.
          1   -1    0    0  501    0  0.00000000000E+00 -0.00000000000E+00 -0.16860983137E+03  0.16860983137E+03  0.00000000000E+00 0. -1.
         23    2    1    2    0    0  0.00000000000E+00  0.00000000000E+00 -0.14973986677E+03  0.18747979598E+03  0.11281243814E+03 0.  0.
        -13    1    3    3    0    0 -0.25635990777E+01 -0.32727867147E+02  0.13586590255E+01  0.32856221368E+02  0.00000000000E+00 0.  1.
         13    1    3    3    0    0  0.25635990777E+01  0.32727867147E+02 -0.15109852579E+03  0.15462357461E+03  0.00000000000E+00 0. -1.
<mgrwt>
<rscale>  0 0.11281244E+03</rscale>
<asrwt>0</asrwt>
<pdfrwt beam="2">  1        1 0.25939975E-01 0.11281244E+03</pdfrwt>
<pdfrwt beam="1">  1       -1 0.29030714E-02 0.11281244E+03</pdfrwt>
<totfact> 0.64139754E+04</totfact>
</mgrwt>
</event>
<event>
 5    1  0.1227473E+001  0.9071266E+02  0.7546771E-02  0.1301135E+00
          1   -1    0    0  501    0  0.00000000000E+00  0.00000000000E+00  0.13969789300E+02  0.13969789300E+02  0.00000000000E+00 0. -1.
         -1   -1    0    0    0  501 -0.00000000000E+00 -0.00000000000E+00 -0.14726040104E+03  0.14726040104E+03  0.00000000000E+00 0.  1.
         23    2    1    2    0    0  0.00000000000E+00  0.00000000000E+00 -0.13329061174E+03  0.16123019034E+03  0.90712662286E+02 0.  0.
        -13    1    3    3    0    0 -0.27442872387E+02 -0.29285978529E+00 -0.13082789165E+03  0.13367548109E+03  0.00000000000E+00 0.  1.
         13    1    3    3    0    0  0.27442872387E+02  0.29285978529E+00 -0.24627200955E+01  0.27554709252E+02  0.00000000000E+00 0. -1.
<mgrwt>
<rscale>  0 0.90712662E+02</rscale>
<asrwt>0</asrwt>
<pdfrwt beam="1">  1        1 0.21491983E-02 0.90712662E+02</pdfrwt>
<pdfrwt beam="2">  1       -1 0.22655447E-01 0.90712662E+02</pdfrwt>
<totfact> 0.76110920E+04</totfact>
</mgrwt>
</event>
<event>
 5    1  0.1227473E+001  0.9134497E+02  0.7546771E-02  0.1299627E+00
          2   -1    0    0  501    0  0.00000000000E+00  0.00000000000E+00  0.36309432369E+03  0.36309432369E+03  0.00000000000E+00 0.  1.
         -2   -1    0    0    0  501 -0.00000000000E+00 -0.00000000000E+00 -0.57449976186E+01  0.57449976186E+01  0.00000000000E+00 0. -1.
         23    2    1    2    0    0  0.00000000000E+00  0.00000000000E+00  0.35734932607E+03  0.36883932131E+03  0.91344973040E+02 0.  0.
        -11    1    3    3    0    0 -0.27728194516E+01 -0.41808109444E+02  0.10528202076E+03  0.11331332860E+03  0.00000000000E+00 0.  1.
         11    1    3    3    0    0  0.27728194516E+01  0.41808109444E+02  0.25206730531E+03  0.25552599271E+03  0.00000000000E+00 0. -1.
<mgrwt>
<rscale>  0 0.91344973E+02</rscale>
<asrwt>0</asrwt>
<pdfrwt beam="1">  1        2 0.55860647E-01 0.91344973E+02</pdfrwt>
<pdfrwt beam="2">  1       -2 0.88384607E-03 0.91344973E+02</pdfrwt>
<totfact> 0.19181996E+05</totfact>
</mgrwt>
</event>
<event>
 5    1  0.1227473E+001  0.8819747E+02  0.7546771E-02  0.1307276E+00
         -2   -1    0    0    0  501 -0.00000000000E+00  0.00000000000E+00  0.27677308060E+02  0.27677308060E+02  0.00000000000E+00 0.  1.
          2   -1    0    0  501    0  0.00000000000E+00 -0.00000000000E+00 -0.70263282698E+02  0.70263282698E+02  0.00000000000E+00 0. -1.
         23    2    1    2    0    0  0.00000000000E+00  0.00000000000E+00 -0.42585974638E+02  0.97940590758E+02  0.88197472085E+02 0.  0.
        -11    1    3    3    0    0 -0.12896821219E+02 -0.28201389055E+02  0.13524294809E+02  0.33831241365E+02  0.00000000000E+00 0.  1.
         11    1    3    3    0    0  0.12896821219E+02  0.28201389055E+02 -0.56110269447E+02  0.64109349393E+02  0.00000000000E+00 0. -1.
<mgrwt>
<rscale>  0 0.88197472E+02</rscale>
<asrwt>0</asrwt>
<pdfrwt beam="2">  1        2 0.10809736E-01 0.88197472E+02</pdfrwt>
<pdfrwt beam="1">  1       -2 0.42580475E-02 0.88197472E+02</pdfrwt>
<totfact> 0.12147765E+05</totfact>
</mgrwt>
</event>
<event>
 5    1  0.1227473E+001  0.9045730E+02  0.7546771E-02  0.1301748E+00
         -1   -1    0    0    0  501 -0.00000000000E+00  0.00000000000E+00  0.43545968949E+01  0.43545968949E+01  0.00000000000E+00 0.  1.
          1   -1    0    0  501    0  0.00000000000E+00 -0.00000000000E+00 -0.46976347681E+03  0.46976347681E+03  0.00000000000E+00 0. -1.
         23    2    1    2    0    0  0.00000000000E+00  0.00000000000E+00 -0.46540887992E+03  0.47411807371E+03  0.90457295504E+02 0.  0.
        -13    1    3    3    0    0  0.41543600386E+02 -0.17812004893E+02 -0.24097900833E+03  0.24518160761E+03  0.00000000000E+00 0. -1.
         13    1    3    3    0    0 -0.41543600386E+02  0.17812004893E+02 -0.22442987159E+03  0.22893646610E+03  0.00000000000E+00 0.  1.
<mgrwt>
<rscale>  0 0.90457296E+02</rscale>
<asrwt>0</asrwt>
<pdfrwt beam="2">  1        1 0.72271330E-01 0.90457296E+02</pdfrwt>
<pdfrwt beam="1">  1       -1 0.66993774E-03 0.90457296E+02</pdfrwt>
<totfact> 0.14110707E+05</totfact>
</mgrwt>
</event>
<event>
 5    1  0.1227473E+001  0.9484497E+02  0.7546771E-02  0.1291526E+00
          2   -1    0    0  501    0  0.00000000000E+00  0.00000000000E+00  0.49049597799E+02  0.49049597799E+02  0.00000000000E+00 0.  1.
         -2   -1    0    0    0  501 -0.00000000000E+00 -0.00000000000E+00 -0.45849346236E+02  0.45849346236E+02  0.00000000000E+00 0. -1.
         23    2    1    2    0    0  0.00000000000E+00  0.00000000000E+00  0.32002515634E+01  0.94898944035E+02  0.94844968074E+02 0.  0.
        -13    1    3    3    0    0  0.36662071717E+02 -0.29525517420E+02 -0.41501710860E+01  0.47255556303E+02  0.00000000000E+00 0.  1.
         13    1    3    3    0    0 -0.36662071717E+02  0.29525517420E+02  0.73504226494E+01  0.47643387732E+02  0.00000000000E+00 0. -1.
<mgrwt>
<rscale>  0 0.94844968E+02</rscale>
<asrwt>0</asrwt>
<pdfrwt beam="1">  1        2 0.75460920E-02 0.94844968E+02</pdfrwt>
<pdfrwt beam="2">  1       -2 0.70537456E-02 0.94844968E+02</pdfrwt>
<totfact> 0.89809229E+04</totfact>
</mgrwt>
</event>
<event>
 5    1  0.1227473E+001  0.8565825E+02  0.7546771E-02  0.1313720E+00
          1   -1    0    0  501    0  0.00000000000E+00  0.00000000000E+00  0.72316842770E+02  0.72316842770E+02  0.00000000000E+00 0. -1.
         -1   -1    0    0    0  501 -0.00000000000E+00 -0.00000000000E+00 -0.25365237276E+02  0.25365237276E+02  0.00000000000E+00 0.  1.
         23    2    1    2    0    0  0.00000000000E+00  0.00000000000E+00  0.46951605494E+02  0.97682080046E+02  0.85658248311E+02 0.  0.
        -11    1    3    3    0    0  0.32353604825E+01  0.38455349444E+02  0.22927646501E+01  0.38659257987E+02  0.00000000000E+00 0.  1.
         11    1    3    3    0    0 -0.32353604825E+01 -0.38455349444E+02  0.44658840844E+02  0.59022822060E+02  0.00000000000E+00 0. -1.
<mgrwt>
<rscale>  0 0.85658248E+02</rscale>
<asrwt>0</asrwt>
<pdfrwt beam="1">  1        1 0.11125668E-01 0.85658248E+02</pdfrwt>
<pdfrwt beam="2">  1       -1 0.39023442E-02 0.85658248E+02</pdfrwt>
<totfact> 0.11766845E+05</totfact>
</mgrwt>
</event>
<event>
 5    1  0.1227473E+001  0.9197771E+02  0.7546771E-02  0.1298132E+00
         -2   -1    0    0    0  501 -0.00000000000E+00  0.00000000000E+00  0.59332618569E+01  0.59332618569E+01  0.00000000000E+00 0.  1.
          2   -1    0    0  501    0  0.00000000000E+00 -0.00000000000E+00 -0.35646068330E+03  0.35646068330E+03  0.00000000000E+00 0. -1.
         23    2    1    2    0    0  0.00000000000E+00  0.00000000000E+00 -0.35052742144E+03  0.36239394516E+03  0.91977705466E+02 0.  0.
        -13    1    3    3    0    0 -0.12417443628E+02  0.43335258457E+02 -0.13940367995E+03  0.14651117198E+03  0.00000000000E+00 0.  1.
         13    1    3    3    0    0  0.12417443628E+02 -0.43335258457E+02 -0.21112374149E+03  0.21588277318E+03  0.00000000000E+00 0. -1.
<mgrwt>
<rscale>  0 0.91977705E+02</rscale>
<asrwt>0</asrwt>
<pdfrwt beam="2">  1        2 0.54840117E-01 0.91977705E+02</pdfrwt>
<pdfrwt beam="1">  1       -2 0.91280932E-03 0.91977705E+02</pdfrwt>
<totfact> 0.18706554E+05</totfact>
</mgrwt>
</event>
<event>
 5    1  0.1227473E+001  0.9281824E+02  0.7546771E-02  0.1296167E+00
         -1   -1    0    0    0  501 -0.00000000000E+00  0.00000000000E+00  0.65794043320E+02  0.65794043320E+02  0.00000000000E+00 0.  1.
          1   -1    0    0  501    0  0.00000000000E+00 -0.00000000000E+00 -0.32735580910E+02  0.32735580910E+02  0.00000000000E+00 0. -1.
         23    2    1    2    0    0  0.00000000000E+00  0.00000000000E+00  0.33058462410E+02  0.98529624229E+02  0.92818235891E+02 0.  0.
        -13    1    3    3    0    0 -0.24143413079E+02 -0.33116408051E+02 -0.65869846820E+01  0.41508905605E+02  0.00000000000E+00 0. -1.
         13    1    3    3    0    0  0.24143413079E+02  0.33116408051E+02  0.39645447092E+02  0.57020718625E+02  0.00000000000E+00 0.  1.
<mgrwt>
<rscale>  0 0.92818236E+02</rscale>
<asrwt>0</asrwt>
<pdfrwt beam="2">  1        1 0.50362432E-02 0.92818236E+02</pdfrwt>
<pdfrwt beam="1">  1       -1 0.10122160E-01 0.92818236E+02</pdfrwt>
<totfact> 0.83520832E+04</totfact>
</mgrwt>
</event>
<event>
 5    1  0.1227473E+001  0.8523263E+02  0.7546771E-02  0.1314825E+00
          2   -1    0    0  501    0  0.00000000000E+00  0.00000000000E+00  0.81467839961E+02  0.81467839961E+02  0.00000000000E+00 0. -1.
         -2   -1    0    0    0  501 -0.00000000000E+00 -0.00000000000E+00 -0.22292849848E+02  0.22292849848E+02  0.00000000000E+00 0.  1.
         23    2    1    2    0    0  0.00000000000E+00  0.00000000000E+00  0.59174990113E+02  0.10376068981E+03  0.85232630457E+02 0.  0.
        -13    1    3    3    0    0 -0.41502899409E+02 -0.44983587077E+01  0.40019007004E+02  0.57829463183E+02  0.00000000000E+00 0. -1.
         13    1    3    3    0    0  0.41502899409E+02  0.44983587077E+01  0.19155983109E+02  0.45931226625E+02  0.00000000000E+00 0.  1.
<mgrwt>
<rscale>  0 0.85232630E+02</rscale>
<asrwt>0</asrwt>
<pdfrwt beam="1">  1        2 0.12533514E-01 0.85232630E+02</pdfrwt>
<pdfrwt beam="2">  1       -2 0.34296692E-02 0.85232630E+02</pdfrwt>
<totfact> 0.13906976E+05</totfact>
</mgrwt>
</event>
<event>
 5    1  0.1227473E+001  0.9621414E+02  0.7546771E-02  0.1288465E+00
         -2   -1    0    0    0  501 -0.00000000000E+00  0.00000000000E+00  0.29544289488E+02  0.29544289488E+02  0.00000000000E+00 0.  1.
          2   -1    0    0  501    0  0.00000000000E+00 -0.00000000000E+00 -0.78332914304E+02  0.78332914304E+02  0.00000000000E+00 0. -1.
         23    2    1    2    0    0  0.00000000000E+00  0.00000000000E+00 -0.48788624816E+02  0.10787720379E+03  0.96214142341E+02 0.  0.
        -11    1    3    3    0    0 -0.22351987007E+02  0.31879628747E+02  0.72862144295E+01  0.39610743150E+02  0.00000000000E+00 0.  1.
         11    1    3    3    0    0  0.22351987007E+02 -0.31879628747E+02 -0.56074839246E+02  0.68266460642E+02  0.00000000000E+00 0. -1.
<mgrwt>
<rscale>  0 0.96214142E+02</rscale>
<asrwt>0</asrwt>
<pdfrwt beam="2">  1        2 0.12051218E-01 0.96214142E+02</pdfrwt>
<pdfrwt beam="1">  1       -2 0.45452753E-02 0.96214142E+02</pdfrwt>
<totfact> 0.98226161E+04</totfact>
</mgrwt>
</event>
<event>
 5    1  0.1227473E+001  0.9231468E+02  0.7546771E-02  0.1297341E+00
         -4   -1    0    0    0  501 -0.00000000000E+00  0.00000000000E+00  0.19569649469E+03  0.19569649469E+03  0.00000000000E+00 0. -1.
          4   -1    0    0  501    0  0.00000000000E+00 -0.00000000000E+00 -0.10886756732E+02  0.10886756732E+02  0.00000000000E+00 0.  1.
         23    2    1    2    0    0  0.00000000000E+00  0.00000000000E+00  0.18480973796E+03  0.20658325142E+03  0.92314682061E+02 0.  0.
        -13    1    3    3    0    0 -0.38740621974E+02 -0.25093112930E+02  0.92394008557E+02  0.10328190996E+03  0.00000000000E+00 0. -1.
         13    1    3    3    0    0  0.38740621974E+02  0.25093112930E+02  0.92415729399E+02  0.10330134146E+03  0.00000000000E+00 0.  1.
<mgrwt>
<rscale>  0 0.92314682E+02</rscale>
<asrwt>0</asrwt>
<pdfrwt beam="2">  1        4 0.16748858E-02 0.92314682E+02</pdfrwt>
<pdfrwt beam="1">  1       -4 0.30107150E-01 0.92314682E+02</pdfrwt>
<totfact> 0.20423409E+04</totfact>
</mgrwt>
</event>
<event>
 5    1  0.1227473E+001  0.8853914E+02  0.7546771E-02  0.1306428E+00
          3   -1    0    0  501    0  0.00000000000E+00  0.00000000000E+00  0.60175409360E+02  0.60175409360E+02  0.00000000000E+00 0. -1.
         -3   -1    0    0    0  501 -0.00000000000E+00 -0.00000000000E+00 -0.32568031542E+02  0.32568031542E+02  0.00000000000E+00 0.  1.
         23    2    1    2    0    0  0.00000000000E+00  0.00000000000E+00  0.27607377817E+02  0.92743440902E+02  0.88539135530E+02 0.  0.
        -11    1    3    3    0    0 -0.30128487867E+02  0.30761685503E+01 -0.20018993282E+02  0.36303562995E+02  0.00000000000E+00 0.  1.
         11    1    3    3    0    0  0.30128487867E+02 -0.30761685503E+01  0.47626371099E+02  0.56439877907E+02  0.00000000000E+00 0. -1.
<mgrwt>
<rscale>  0 0.88539136E+02</rscale>
<asrwt>0</asrwt>
<pdfrwt beam="1">  1        3 0.92577553E-02 0.88539136E+02</pdfrwt>
<pdfrwt beam="2">  1       -3 0.50104664E-02 0.88539136E+02</pdfrwt>
<totfact> 0.38140266E+04</totfact>
</mgrwt>
</event>
<event>
 5    1  0.1227473E+001  0.9816039E+02  0.7546771E-02  0.1284213E+00
          1   -1    0    0  501    0  0.00000000000E+00  0.00000000000E+00  0.49935959620E+02  0.49935959620E+02  0.00000000000E+00 0. -1.
         -1   -1    0    0    0  501 -0.00000000000E+00 -0.00000000000E+00 -0.48239095288E+02  0.48239095288E+02  0.00000000000E+00 0.  1.
         23    2    1    2    0    0  0.00000000000E+00  0.00000000000E+00  0.16968643314E+01  0.98175054908E+02  0.98160389454E+02 0.  0.
        -11    1    3    3    0    0  0.65218277842E+01  0.19468208638E+02 -0.43737596999E+02  0.48316899491E+02  0.00000000000E+00 0.  1.
         11    1    3    3    0    0 -0.65218277842E+01 -0.19468208638E+02  0.45434461330E+02  0.49858155417E+02  0.00000000000E+00 0. -1.
<mgrwt>
<rscale>  0 0.98160389E+02</rscale>
<asrwt>0</asrwt>
<pdfrwt beam="1">  1        1 0.76824553E-02 0.98160389E+02</pdfrwt>
<pdfrwt beam="2">  1       -1 0.74213993E-02 0.98160389E+02</pdfrwt>
<totfact> 0.76164417E+04</totfact>
</mgrwt>
</event>
<event>
 5    1  0.1227473E+001  0.9053249E+02  0.7546771E-02  0.1301567E+00
          4   -1    0    0  501    0  0.00000000000E+00  0.00000000000E+00  0.22271955230E+03  0.22271955230E+03  0.00000000000E+00 0. -1.
         -4   -1    0    0    0  501 -0.00000000000E+00 -0.00000000000E+00 -0.92000579412E+01  0.92000579412E+01  0.00000000000E+00 0.  1.
         23    2    1    2    0    0  0.00000000000E+00  0.00000000000E+00  0.21351949436E+03  0.23191961025E+03  0.90532486674E+02 0.  0.
        -13    1    3    3    0    0  0.30682842104E+02 -0.31087898804E+02  0.76325972254E+02  0.87940595246E+02  0.00000000000E+00 0.  1.
         13    1    3    3    0    0 -0.30682842104E+02  0.31087898804E+02  0.13719352211E+03  0.14397901500E+03  0.00000000000E+00 0. -1.
<mgrwt>
<rscale>  0 0.90532487E+02</rscale>
<asrwt>0</asrwt>
<pdfrwt beam="1">  1        4 0.34264543E-01 0.90532487E+02</pdfrwt>
<pdfrwt beam="2">  1       -4 0.14153937E-02 0.90532487E+02</pdfrwt>
<totfact> 0.20506902E+04</totfact>
</mgrwt>
</event>
<event>
 5    1  0.1227473E+001  0.9132911E+02  0.7546771E-02  0.1299665E+00
          3   -1    0    0  501    0  0.00000000000E+00  0.00000000000E+00  0.17480064593E+03  0.17480064593E+03  0.00000000000E+00 0. -1.
         -3   -1    0    0    0  501 -0.00000000000E+00 -0.00000000000E+00 -0.11929313293E+02  0.11929313293E+02  0.00000000000E+00 0.  1.
         23    2    1    2    0    0  0.00000000000E+00  0.00000000000E+00  0.16287133264E+03  0.18672995923E+03  0.91329111880E+02 0.  0.
        -13    1    3    3    0    0  0.32356773267E+02  0.34673834881E+01  0.14693474517E+03  0.15049519215E+03  0.00000000000E+00 0. -1.
         13    1    3    3    0    0 -0.32356773267E+02 -0.34673834881E+01  0.15936587476E+02  0.36234767074E+02  0.00000000000E+00 0.  1.
<mgrwt>
<rscale>  0 0.91329112E+02</rscale>
<asrwt>0</asrwt>
<pdfrwt beam="1">  1        3 0.26892405E-01 0.91329112E+02</pdfrwt>
<pdfrwt beam="2">  1       -3 0.18352791E-02 0.91329112E+02</pdfrwt>
<totfact> 0.29067897E+04</totfact>
</mgrwt>
</event>
<event>
 5    1  0.1227473E+001  0.9078922E+02  0.7546771E-02  0.1300952E+00
          1   -1    0    0  501    0  0.00000000000E+00  0.00000000000E+00  0.51885232768E+02  0.51885232768E+02  0.00000000000E+00 0. -1.
         -1   -1    0    0    0  501 -0.00000000000E+00 -0.00000000000E+00 -0.39715939436E+02  0.39715939436E+02  0.00000000000E+00 0.  1.
         23    2    1    2    0    0  0.00000000000E+00  0.00000000000E+00  0.12169293332E+02  0.91601172204E+02  0.90789223199E+02 0.  0.
        -13    1    3    3    0    0 -0.85453327246E+01 -0.25005283271E+02  0.43325230069E+02  0.50748029158E+02  0.00000000000E+00 0. -1.
         13    1    3    3    0    0  0.85453327246E+01  0.25005283271E+02 -0.31155936737E+02  0.40853143047E+02  0.00000000000E+00 0.  1.
<mgrwt>
<rscale>  0 0.90789223E+02</rscale>
<asrwt>0</asrwt>
<pdfrwt beam="1">  1        1 0.79823435E-02 0.90789223E+02</pdfrwt>
<pdfrwt beam="2">  1       -1 0.61101445E-02 0.90789223E+02</pdfrwt>
<totfact> 0.95413239E+04</totfact>
</mgrwt>
</event>
<event>
 5    1  0.1227473E+001  0.8776736E+02  0.7546771E-02  0.1308350E+00
         -2   -1    0    0    0  501 -0.00000000000E+00  0.00000000000E+00  0.32897971790E+02  0.32897971790E+02  0.00000000000E+00 0. -1.
          2   -1    0    0  501    0  0.00000000000E+00 -0.00000000000E+00 -0.58537873068E+02  0.58537873068E+02  0.00000000000E+00 0.  1.
         23    2    1    2    0    0  0.00000000000E+00  0.00000000000E+00 -0.25639901278E+02  0.91435844858E+02  0.87767358325E+02 0.  0.
        -11    1    3    3    0    0 -0.90953870679E+00  0.32418102030E+02  0.17979524798E+02  0.37081314862E+02  0.00000000000E+00 0.  1.
         11    1    3    3    0    0  0.90953870679E+00 -0.32418102030E+02 -0.43619426076E+02  0.54354529996E+02  0.00000000000E+00 0. -1.
<mgrwt>
<rscale>  0 0.87767358E+02</rscale>
<asrwt>0</asrwt>
<pdfrwt beam="2">  1        2 0.90058265E-02 0.87767358E+02</pdfrwt>
<pdfrwt beam="1">  1       -2 0.50612265E-02 0.87767358E+02</pdfrwt>
<totfact> 0.11729343E+05</totfact>
</mgrwt>
</event>
<event>
 5    1  0.1227473E+001  0.9129153E+02  0.7546771E-02  0.1299754E+00
          1   -1    0    0  501    0  0.00000000000E+00  0.00000000000E+00  0.12423213626E+02  0.12423213626E+02  0.00000000000E+00 0. -1.
         -1   -1    0    0    0  501 -0.00000000000E+00 -0.00000000000E+00 -0.16771312884E+03  0.16771312884E+03  0.00000000000E+00 0.  1.
         23    2    1    2    0    0  0.00000000000E+00  0.00000000000E+00 -0.15528991522E+03  0.18013634247E+03  0.91291533616E+02 0.  0.
        -13    1    3    3    0    0 -0.29007295627E+02  0.34093626486E+02 -0.60025114426E+02  0.74878654691E+02  0.00000000000E+00 0. -1.
         13    1    3    3    0    0  0.29007295627E+02 -0.34093626486E+02 -0.95264800789E+02  0.10525768778E+03  0.00000000000E+00 0.  1.
<mgrwt>
<rscale>  0 0.91291534E+02</rscale>
<asrwt>0</asrwt>
<pdfrwt beam="1">  1        1 0.19112636E-02 0.91291534E+02</pdfrwt>
<pdfrwt beam="2">  1       -1 0.25802020E-01 0.91291534E+02</pdfrwt>
<totfact> 0.72549944E+04</totfact>
</mgrwt>
</event>
<event>
 5    1  0.1227473E+001  0.8777587E+02  0.7546771E-02  0.1308329E+00
          1   -1    0    0  501    0  0.00000000000E+00  0.00000000000E+00  0.50600636221E+02  0.50600636221E+02  0.00000000000E+00 0. -1.
         -1   -1    0    0    0  501 -0.00000000000E+00 -0.00000000000E+00 -0.38065745624E+02  0.38065745624E+02  0.00000000000E+00 0.  1.
         23    2    1    2    0    0  0.00000000000E+00  0.00000000000E+00  0.12534890597E+02  0.88666381845E+02  0.87775872466E+02 0.  0.
        -13    1    3    3    0    0  0.22439953628E+02  0.31585284377E+02  0.27091369746E+02  0.47277098290E+02  0.00000000000E+00 0.  1.
         13    1    3    3    0    0 -0.22439953628E+02 -0.31585284377E+02 -0.14556479149E+02  0.41389283555E+02  0.00000000000E+00 0. -1.
<mgrwt>
<rscale>  0 0.87775872E+02</rscale>
<asrwt>0</asrwt>
<pdfrwt beam="1">  1        1 0.77847132E-02 0.87775872E+02</pdfrwt>
<pdfrwt beam="2">  1       -1 0.58562686E-02 0.87775872E+02</pdfrwt>
<totfact> 0.10441337E+05</totfact>
</mgrwt>
</event>
<event>
 5    1  0.1227473E+001  0.9046792E+02  0.7546771E-02  0.1301722E+00
          2   -1    0    0  501    0  0.00000000000E+00  0.00000000000E+00  0.56503310966E+02  0.56503310966E+02  0.00000000000E+00 0. -1.
         -2   -1    0    0    0  501 -0.00000000000E+00 -0.00000000000E+00 -0.36212237875E+02  0.36212237875E+02  0.00000000000E+00 0.  1.
         23    2    1    2    0    0  0.00000000000E+00  0.00000000000E+00  0.20291073091E+02  0.92715548841E+02  0.90467924424E+02 0.  0.
        -11    1    3    3    0    0  0.43496821149E+02  0.68517678546E+01  0.20756075442E+02  0.48679922355E+02  0.00000000000E+00 0. -1.
         11    1    3    3    0    0 -0.43496821149E+02 -0.68517678546E+01 -0.46500235132E+00  0.44035626485E+02  0.00000000000E+00 0.  1.
<mgrwt>
<rscale>  0 0.90467924E+02</rscale>
<asrwt>0</asrwt>
<pdfrwt beam="1">  1        2 0.86928170E-02 0.90467924E+02</pdfrwt>
<pdfrwt beam="2">  1       -2 0.55711135E-02 0.90467924E+02</pdfrwt>
<totfact> 0.10671207E+05</totfact>
</mgrwt>
</event>
<event>
 5    1  0.1227473E+001  0.8970350E+02  0.7546771E-02  0.1303571E+00
          2   -1    0    0  501    0  0.00000000000E+00  0.00000000000E+00  0.11280839145E+02  0.11280839145E+02  0.00000000000E+00 0. -1.
         -2   -1    0    0    0  501 -0.00000000000E+00 -0.00000000000E+00 -0.17832712710E+03  0.17832712710E+03  0.00000000000E+00 0.  1.
         23    2    1    2    0    0  0.00000000000E+00  0.00000000000E+00 -0.16704628796E+03  0.18960796625E+03  0.89703503524E+02 0.  0.
        -13    1    3    3    0    0  0.78381073598E+01 -0.44152420839E+02 -0.85422485963E+02  0.96477320138E+02  0.00000000000E+00 0. -1.
         13    1    3    3    0    0 -0.78381073598E+01  0.44152420839E+02 -0.81623801995E+02  0.93130646111E+02  0.00000000000E+00 0.  1.
<mgrwt>
<rscale>  0 0.89703504E+02</rscale>
<asrwt>0</asrwt>
<pdfrwt beam="1">  1        2 0.17355139E-02 0.89703504E+02</pdfrwt>
<pdfrwt beam="2">  1       -2 0.27434939E-01 0.89703504E+02</pdfrwt>
<totfact> 0.68145778E+04</totfact>
</mgrwt>
</event>
<event>
 5    1  0.1227473E+001  0.8680419E+02  0.7546771E-02  0.1310781E+00
          3   -1    0    0  501    0  0.00000000000E+00  0.00000000000E+00  0.41095730432E+02  0.41095730432E+02  0.00000000000E+00 0. -1.
         -3   -1    0    0    0  501 -0.00000000000E+00 -0.00000000000E+00 -0.45837893944E+02  0.45837893944E+02  0.00000000000E+00 0.  1.
         23    2    1    2    0    0  0.00000000000E+00  0.00000000000E+00 -0.47421635125E+01  0.86933624376E+02  0.86804187297E+02 0.  0.
        -13    1    3    3    0    0  0.64512089076E+01 -0.80646718851E+01 -0.44589423917E+02  0.45769790848E+02  0.00000000000E+00 0.  1.
         13    1    3    3    0    0 -0.64512089076E+01  0.80646718851E+01  0.39847260405E+02  0.41163833528E+02  0.00000000000E+00 0. -1.
<mgrwt>
<rscale>  0 0.86804187E+02</rscale>
<asrwt>0</asrwt>
<pdfrwt beam="1">  1        3 0.63224201E-02 0.86804187E+02</pdfrwt>
<pdfrwt beam="2">  1       -3 0.70519837E-02 0.86804187E+02</pdfrwt>
<totfact> 0.40758548E+04</totfact>
</mgrwt>
</event>
<event>
 5    1  0.1227473E+001  0.9336511E+02  0.7546771E-02  0.1294901E+00
          2   -1    0    0  501    0  0.00000000000E+00  0.00000000000E+00  0.23750798053E+02  0.23750798053E+02  0.00000000000E+00 0. -1.
         -2   -1    0    0    0  501 -0.00000000000E+00 -0.00000000000E+00 -0.91755271563E+02  0.91755271563E+02  0.00000000000E+00 0.  1.
         23    2    1    2    0    0  0.00000000000E+00  0.00000000000E+00 -0.68004473510E+02  0.11550606962E+03  0.93365109654E+02 0.  0.
        -13    1    3    3    0    0 -0.30636170361E+02  0.83804192112E+01 -0.76327286224E+02  0.82672008460E+02  0.00000000000E+00 0.  1.
         13    1    3    3    0    0  0.30636170361E+02 -0.83804192112E+01  0.83228127137E+01  0.32834061156E+02  0.00000000000E+00 0. -1.
<mgrwt>
<rscale>  0 0.93365110E+02</rscale>
<asrwt>0</asrwt>
<pdfrwt beam="1">  1        2 0.36539690E-02 0.93365110E+02</pdfrwt>
<pdfrwt beam="2">  1       -2 0.14116195E-01 0.93365110E+02</pdfrwt>
<totfact> 0.77175427E+04</totfact>
</mgrwt>
</event>
<event>
 5    1  0.1227473E+001  0.9091901E+02  0.7546771E-02  0.1300641E+00
         -2   -1    0    0    0  501 -0.00000000000E+00  0.00000000000E+00  0.65858856927E+01  0.65858856927E+01  0.00000000000E+00 0.  1.
          2   -1    0    0  501    0  0.00000000000E+00 -0.00000000000E+00 -0.31378719523E+03  0.31378719523E+03  0.00000000000E+00 0. -1.
         23    2    1    2    0    0  0.00000000000E+00  0.00000000000E+00 -0.30720130954E+03  0.32037308092E+03  0.90919010105E+02 0.  0.
        -11    1    3    3    0    0  0.37652145603E+02 -0.13081818038E+02 -0.76581097816E+02  0.86333554163E+02  0.00000000000E+00 0.  1.
         11    1    3    3    0    0 -0.37652145603E+02  0.13081818038E+02 -0.23062021172E+03  0.23403952676E+03  0.00000000000E+00 0. -1.
<mgrwt>
<rscale>  0 0.90919010E+02</rscale>
<asrwt>0</asrwt>
<pdfrwt beam="2">  1        2 0.48274939E-01 0.90919010E+02</pdfrwt>
<pdfrwt beam="1">  1       -2 0.10132135E-02 0.90919010E+02</pdfrwt>
<totfact> 0.18407121E+05</totfact>
</mgrwt>
</event>
<event>
 5    1  0.1227473E+001  0.9329221E+02  0.7546771E-02  0.1295069E+00
         -1   -1    0    0    0  501 -0.00000000000E+00  0.00000000000E+00  0.10498958090E+02  0.10498958090E+02  0.00000000000E+00 0.  1.
          1   -1    0    0  501    0  0.00000000000E+00 -0.00000000000E+00 -0.20724525465E+03  0.20724525465E+03  0.00000000000E+00 0. -1.
         23    2    1    2    0    0  0.00000000000E+00  0.00000000000E+00 -0.19674629656E+03  0.21774421274E+03  0.93292212814E+02 0.  0.
        -11    1    3    3    0    0 -0.10925420223E+02 -0.36408865653E+02 -0.35273502523E+02  0.51857403381E+02  0.00000000000E+00 0.  1.
         11    1    3    3    0    0  0.10925420223E+02  0.36408865653E+02 -0.16147279403E+03  0.16588680936E+03  0.00000000000E+00 0. -1.
<mgrwt>
<rscale>  0 0.93292213E+02</rscale>
<asrwt>0</asrwt>
<pdfrwt beam="2">  1        1 0.31883884E-01 0.93292213E+02</pdfrwt>
<pdfrwt beam="1">  1       -1 0.16152244E-02 0.93292213E+02</pdfrwt>
<totfact> 0.11210534E+05</totfact>
</mgrwt>
</event>
<event>
 5    1  0.1227473E+001  0.8989761E+02  0.7546771E-02  0.1303100E+00
         -2   -1    0    0    0  501 -0.00000000000E+00  0.00000000000E+00  0.81161264985E+01  0.81161264985E+01  0.00000000000E+00 0.  1.
          2   -1    0    0  501    0  0.00000000000E+00 -0.00000000000E+00 -0.24893587624E+03  0.24893587624E+03  0.00000000000E+00 0. -1.
         23    2    1    2    0    0  0.00000000000E+00  0.00000000000E+00 -0.24081974974E+03  0.25705200274E+03  0.89897609792E+02 0.  0.
        -13    1    3    3    0    0 -0.74645672045E+00  0.44858036309E+02 -0.12828977648E+03  0.13590830500E+03  0.00000000000E+00 0. -1.
         13    1    3    3    0    0  0.74645672045E+00 -0.44858036309E+02 -0.11252997326E+03  0.12114369774E+03  0.00000000000E+00 0.  1.
<mgrwt>
<rscale>  0 0.89897610E+02</rscale>
<asrwt>0</asrwt>
<pdfrwt beam="2">  1        2 0.38297824E-01 0.89897610E+02</pdfrwt>
<pdfrwt beam="1">  1       -2 0.12486349E-02 0.89897610E+02</pdfrwt>
<totfact> 0.17405056E+05</totfact>
</mgrwt>
</event>
<event>
 5    1  0.1227473E+001  0.9138753E+02  0.7546771E-02  0.1299526E+00
          1   -1    0    0  501    0  0.00000000000E+00  0.00000000000E+00  0.47918737414E+02  0.47918737414E+02  0.00000000000E+00 0. -1.
         -1   -1    0    0    0  501 -0.00000000000E+00 -0.00000000000E+00 -0.43572106360E+02  0.43572106360E+02  0.00000000000E+00 0.  1.
         23    2    1    2    0    0  0.00000000000E+00  0.00000000000E+00  0.43466310541E+01  0.91490843774E+02  0.91387533575E+02 0.  0.
        -13    1    3    3    0    0 -0.39066383107E+02 -0.11016285172E+02 -0.18835628358E+02  0.44747309681E+02  0.00000000000E+00 0.  1.
         13    1    3    3    0    0  0.39066383107E+02  0.11016285172E+02  0.23182259412E+02  0.46743534093E+02  0.00000000000E+00 0. -1.
<mgrwt>
<rscale>  0 0.91387534E+02</rscale>
<asrwt>0</asrwt>
<pdfrwt beam="1">  1        1 0.73721134E-02 0.91387534E+02</pdfrwt>
<pdfrwt beam="2">  1       -1 0.67034010E-02 0.91387534E+02</pdfrwt>
<totfact> 0.92566426E+04</totfact>
</mgrwt>
</event>
<event>
 5    1  0.1227473E+001  0.9197018E+02  0.7546771E-02  0.1298150E+00
          4   -1    0    0  501    0  0.00000000000E+00  0.00000000000E+00  0.38630669777E+03  0.38630669777E+03  0.00000000000E+00 0. -1.
         -4   -1    0    0    0  501 -0.00000000000E+00 -0.00000000000E+00 -0.54739626442E+01  0.54739626442E+01  0.00000000000E+00 0.  1.
         23    2    1    2    0    0  0.00000000000E+00  0.00000000000E+00  0.38083273513E+03  0.39178066042E+03  0.91970178489E+02 0.  0.
        -13    1    3    3    0    0 -0.14234357386E+02 -0.40604304306E+02  0.25953943822E+03  0.26308182463E+03  0.00000000000E+00 0.  1.
         13    1    3    3    0    0  0.14234357386E+02  0.40604304306E+02  0.12129329691E+03  0.12869883579E+03  0.00000000000E+00 0. -1.
<mgrwt>
<rscale>  0 0.91970178E+02</rscale>
<asrwt>0</asrwt>
<pdfrwt beam="1">  1        4 0.59431778E-01 0.91970178E+02</pdfrwt>
<pdfrwt beam="2">  1       -4 0.84214840E-03 0.91970178E+02</pdfrwt>
<totfact> 0.14995649E+04</totfact>
</mgrwt>
</event>
<event>
 5    1  0.1227473E+001  0.9420502E+02  0.7546771E-02  0.1292977E+00
         -4   -1    0    0    0  501 -0.00000000000E+00  0.00000000000E+00  0.20348841812E+03  0.20348841812E+03  0.00000000000E+00 0.  1.
          4   -1    0    0  501    0  0.00000000000E+00 -0.00000000000E+00 -0.10903060028E+02  0.10903060028E+02  0.00000000000E+00 0. -1.
         23    2    1    2    0    0  0.00000000000E+00  0.00000000000E+00  0.19258535809E+03  0.21439147815E+03  0.94205019776E+02 0.  0.
        -11    1    3    3    0    0 -0.27932051668E+02 -0.37325968000E+02  0.80989060101E+02  0.93448677110E+02  0.00000000000E+00 0. -1.
         11    1    3    3    0    0  0.27932051668E+02  0.37325968000E+02  0.11159629799E+03  0.12094280104E+03  0.00000000000E+00 0.  1.
<mgrwt>
<rscale>  0 0.94205020E+02</rscale>
<asrwt>0</asrwt>
<pdfrwt beam="2">  1        4 0.16773940E-02 0.94205020E+02</pdfrwt>
<pdfrwt beam="1">  1       -4 0.31305908E-01 0.94205020E+02</pdfrwt>
<totfact> 0.19053348E+04</totfact>
</mgrwt>
</event>
<event>
 5    1  0.1227473E+001  0.9414047E+02  0.7546771E-02  0.1293124E+00
         -2   -1    0    0    0  501 -0.00000000000E+00  0.00000000000E+00  0.82884480046E+02  0.82884480046E+02  0.00000000000E+00 0.  1.
          2   -1    0    0  501    0  0.00000000000E+00 -0.00000000000E+00 -0.26731267314E+02  0.26731267314E+02  0.00000000000E+00 0. -1.
         23    2    1    2    0    0  0.00000000000E+00  0.00000000000E+00  0.56153212732E+02  0.10961574736E+03  0.94140473598E+02 0.  0.
        -13    1    3    3    0    0 -0.59906158360E+01  0.18944882425E+02  0.77762032827E+02  0.80260387474E+02  0.00000000000E+00 0.  1.
         13    1    3    3    0    0  0.59906158360E+01 -0.18944882425E+02 -0.21608820095E+02  0.29355359887E+02  0.00000000000E+00 0. -1.
<mgrwt>
<rscale>  0 0.94140474E+02</rscale>
<asrwt>0</asrwt>
<pdfrwt beam="2">  1        2 0.41125027E-02 0.94140474E+02</pdfrwt>
<pdfrwt beam="1">  1       -2 0.12751458E-01 0.94140474E+02</pdfrwt>
<totfact> 0.77863722E+04</totfact>
</mgrwt>
</event>
<event>
 5    1  0.1227473E+001  0.9094530E+02  0.7546771E-02  0.1300579E+00
         -3   -1    0    0    0  501 -0.00000000000E+00  0.00000000000E+00  0.11294417049E+02  0.11294417049E+02  0.00000000000E+00 0.  1.
          3   -1    0    0  501    0  0.00000000000E+00 -0.00000000000E+00 -0.18307824696E+03  0.18307824696E+03  0.00000000000E+00 0. -1.
         23    2    1    2    0    0  0.00000000000E+00  0.00000000000E+00 -0.17178382992E+03  0.19437266401E+03  0.90945303867E+02 0.  0.
        -11    1    3    3    0    0 -0.28583698345E+02  0.11913941420E+02 -0.14724694850E+02  0.34289742630E+02  0.00000000000E+00 0.  1.
         11    1    3    3    0    0  0.28583698345E+02 -0.11913941420E+02 -0.15705913507E+03  0.16008292138E+03  0.00000000000E+00 0. -1.
<mgrwt>
<rscale>  0 0.90945304E+02</rscale>
<asrwt>0</asrwt>
<pdfrwt beam="2">  1        3 0.28165885E-01 0.90945304E+02</pdfrwt>
<pdfrwt beam="1">  1       -3 0.17376025E-02 0.90945304E+02</pdfrwt>
<totfact> 0.28990424E+04</totfact>
</mgrwt>
</event>
<event>
 5    1  0.1227473E+001  0.8710522E+02  0.7546771E-02  0.1310017E+00
         -4   -1    0    0    0  501 -0.00000000000E+00  0.00000000000E+00  0.32628317995E+02  0.32628317995E+02  0.00000000000E+00 0.  1.
          4   -1    0    0  501    0  0.00000000000E+00 -0.00000000000E+00 -0.58134465276E+02  0.58134465276E+02  0.00000000000E+00 0. -1.
         23    2    1    2    0    0  0.00000000000E+00  0.00000000000E+00 -0.25506147280E+02  0.90762783271E+02  0.87105219580E+02 0.  0.
        -13    1    3    3    0    0  0.18909251998E+02  0.28933736688E+02 -0.40363038966E+02  0.53140341027E+02  0.00000000000E+00 0. -1.
         13    1    3    3    0    0 -0.18909251998E+02 -0.28933736688E+02  0.14856891686E+02  0.37622442244E+02  0.00000000000E+00 0.  1.
<mgrwt>
<rscale>  0 0.87105220E+02</rscale>
<asrwt>0</asrwt>
<pdfrwt beam="2">  1        4 0.89437639E-02 0.87105220E+02</pdfrwt>
<pdfrwt beam="1">  1       -4 0.50197412E-02 0.87105220E+02</pdfrwt>
<totfact> 0.30595229E+04</totfact>
</mgrwt>
</event>
<event>
 5    1  0.1227473E+001  0.9587594E+02  0.7546771E-02  0.1289215E+00
         -2   -1    0    0    0  501 -0.00000000000E+00  0.00000000000E+00  0.12530563280E+03  0.12530563280E+03  0.00000000000E+00 0.  1.
          2   -1    0    0  501    0  0.00000000000E+00 -0.00000000000E+00 -0.18339551398E+02  0.18339551398E+02  0.00000000000E+00 0. -1.
         23    2    1    2    0    0  0.00000000000E+00  0.00000000000E+00  0.10696608140E+03  0.14364518420E+03  0.95875942617E+02 0.  0.
        -11    1    3    3    0    0  0.43285020923E+02  0.19703012055E+02  0.62503313901E+02  0.78539582180E+02  0.00000000000E+00 0.  1.
         11    1    3    3    0    0 -0.43285020923E+02 -0.19703012055E+02  0.44462767497E+02  0.65105602016E+02  0.00000000000E+00 0. -1.
<mgrwt>
<rscale>  0 0.95875943E+02</rscale>
<asrwt>0</asrwt>
<pdfrwt beam="2">  1        2 0.28214695E-02 0.95875943E+02</pdfrwt>
<pdfrwt beam="1">  1       -2 0.19277789E-01 0.95875943E+02</pdfrwt>
<totfact> 0.65524966E+04</totfact>
</mgrwt>
</event>
<event>
 5    1  0.1227473E+001  0.7986882E+02  0.7546771E-02  0.1329424E+00
          2   -1    0    0  501    0  0.00000000000E+00  0.00000000000E+00  0.21193864787E+03  0.21193864787E+03  0.00000000000E+00 0. -1.
         -2   -1    0    0    0  501 -0.00000000000E+00 -0.00000000000E+00 -0.75246161884E+01  0.75246161884E+01  0.00000000000E+00 0.  1.
         23    2    1    2    0    0  0.00000000000E+00  0.00000000000E+00  0.20441403168E+03  0.21946326405E+03  0.79868816961E+02 0.  0.
        -13    1    3    3    0    0  0.17210856577E+02 -0.33135215615E+02  0.14112505963E+03  0.14598095270E+03  0.00000000000E+00 0. -1.
         13    1    3    3    0    0 -0.17210856577E+02  0.33135215615E+02  0.63288972051E+02  0.73482311350E+02  0.00000000000E+00 0.  1.
<mgrwt>
<rscale>  0 0.79868817E+02</rscale>
<asrwt>0</asrwt>
<pdfrwt beam="1">  1        2 0.32605941E-01 0.79868817E+02</pdfrwt>
<pdfrwt beam="2">  1       -2 0.11576334E-02 0.79868817E+02</pdfrwt>
<totfact> 0.22486073E+05</totfact>
</mgrwt>
</event>
<event>
 5    1  0.1227473E+001  0.9370445E+02  0.7546771E-02  0.1294121E+00
         -2   -1    0    0    0  501 -0.00000000000E+00  0.00000000000E+00  0.11151339647E+02  0.11151339647E+02  0.00000000000E+00 0.  1.
          2   -1    0    0  501    0  0.00000000000E+00 -0.00000000000E+00 -0.19684906407E+03  0.19684906407E+03  0.00000000000E+00 0. -1.
         23    2    1    2    0    0  0.00000000000E+00  0.00000000000E+00 -0.18569772443E+03  0.20800040372E+03  0.93704445414E+02 0.  0.
        -11    1    3    3    0    0  0.11493397040E+02 -0.39715438127E+02 -0.43927848951E+02  0.60324705673E+02  0.00000000000E+00 0.  1.
         11    1    3    3    0    0 -0.11493397040E+02  0.39715438127E+02 -0.14176987547E+03  0.14767569805E+03  0.00000000000E+00 0. -1.
<mgrwt>
<rscale>  0 0.93704445E+02</rscale>
<asrwt>0</asrwt>
<pdfrwt beam="2">  1        2 0.30284470E-01 0.93704445E+02</pdfrwt>
<pdfrwt beam="1">  1       -2 0.17155908E-02 0.93704445E+02</pdfrwt>
<totfact> 0.14284981E+05</totfact>
</mgrwt>
</event>
<event>
 5    1  0.1227473E+001  0.9641580E+02  0.7546771E-02  0.1288019E+00
          3   -1    0    0  501    0  0.00000000000E+00  0.00000000000E+00  0.14813532163E+02  0.14813532163E+02  0.00000000000E+00 0. -1.
         -3   -1    0    0    0  501 -0.00000000000E+00 -0.00000000000E+00 -0.15688370746E+03  0.15688370746E+03  0.00000000000E+00 0.  1.
         23    2    1    2    0    0  0.00000000000E+00  0.00000000000E+00 -0.14207017530E+03  0.17169723963E+03  0.96415804647E+02 0.  0.
        -11    1    3    3    0    0  0.22842333355E+01  0.48101226852E+02 -0.75039353490E+02  0.89161933126E+02  0.00000000000E+00 0.  1.
         11    1    3    3    0    0 -0.22842333355E+01 -0.48101226852E+02 -0.67030821811E+02  0.82535306501E+02  0.00000000000E+00 0. -1.
<mgrwt>
<rscale>  0 0.96415805E+02</rscale>
<asrwt>0</asrwt>
<pdfrwt beam="1">  1        3 0.22790050E-02 0.96415805E+02</pdfrwt>
<pdfrwt beam="2">  1       -3 0.24135955E-01 0.96415805E+02</pdfrwt>
<totfact> 0.25802364E+04</totfact>
</mgrwt>
</event>
<event>
 5    1  0.1227473E+001  0.9105395E+02  0.7546771E-02  0.1300319E+00
         -1   -1    0    0    0  501 -0.00000000000E+00  0.00000000000E+00  0.34997117614E+03  0.34997117614E+03  0.00000000000E+00 0.  1.
          1   -1    0    0  501    0  0.00000000000E+00 -0.00000000000E+00 -0.59225037165E+01  0.59225037165E+01  0.00000000000E+00 0. -1.
         23    2    1    2    0    0  0.00000000000E+00  0.00000000000E+00  0.34404867242E+03  0.35589367986E+03  0.91053953046E+02 0.  0.
        -11    1    3    3    0    0  0.32851413587E+02  0.31351722274E+02  0.15932304661E+03  0.16566828014E+03  0.00000000000E+00 0. -1.
         11    1    3    3    0    0 -0.32851413587E+02 -0.31351722274E+02  0.18472562581E+03  0.19022539971E+03  0.00000000000E+00 0.  1.
<mgrwt>
<rscale>  0 0.91053953E+02</rscale>
<asrwt>0</asrwt>
<pdfrwt beam="2">  1        1 0.91115469E-03 0.91053953E+02</pdfrwt>
<pdfrwt beam="1">  1       -1 0.53841703E-01 0.91053953E+02</pdfrwt>
<totfact> 0.56990125E+04</totfact>
</mgrwt>
</event>
<event>
 5    1  0.1227473E+001  0.9073840E+02  0.7546771E-02  0.1301073E+00
          2   -1    0    0  501    0  0.00000000000E+00  0.00000000000E+00  0.59131521724E+01  0.59131521724E+01  0.00000000000E+00 0. -1.
         -2   -1    0    0    0  501 -0.00000000000E+00 -0.00000000000E+00 -0.34809935568E+03  0.34809935568E+03  0.00000000000E+00 0.  1.
         23    2    1    2    0    0  0.00000000000E+00  0.00000000000E+00 -0.34218620351E+03  0.35401250786E+03  0.90738403364E+02 0.  0.
        -13    1    3    3    0    0 -0.35271433083E+02 -0.28179724874E+02 -0.15356099583E+03  0.16005983358E+03  0.00000000000E+00 0. -1.
         13    1    3    3    0    0  0.35271433083E+02  0.28179724874E+02 -0.18862520768E+03  0.19395267427E+03  0.00000000000E+00 0.  1.
<mgrwt>
<rscale>  0 0.90738403E+02</rscale>
<asrwt>0</asrwt>
<pdfrwt beam="1">  1        2 0.90971593E-03 0.90738403E+02</pdfrwt>
<pdfrwt beam="2">  1       -2 0.53553735E-01 0.90738403E+02</pdfrwt>
<totfact> 0.47298124E+04</totfact>
</mgrwt>
</event>
<event>
 5    1  0.1227473E+001  0.9037200E+02  0.7546771E-02  0.1301953E+00
         -3   -1    0    0    0  501 -0.00000000000E+00  0.00000000000E+00  0.26830432185E+02  0.26830432185E+02  0.00000000000E+00 0.  1.
          3   -1    0    0  501    0  0.00000000000E+00 -0.00000000000E+00 -0.76099206806E+02  0.76099206806E+02  0.00000000000E+00 0. -1.
         23    2    1    2    0    0  0.00000000000E+00  0.00000000000E+00 -0.49268774621E+02  0.10292963899E+03  0.90372000255E+02 0.  0.
        -11    1    3    3    0    0  0.14726036522E+02 -0.23980957539E+02  0.15631047893E+02  0.32191181003E+02  0.00000000000E+00 0.  1.
         11    1    3    3    0    0 -0.14726036522E+02  0.23980957539E+02 -0.64899822514E+02  0.70738457988E+02  0.00000000000E+00 0. -1.
<mgrwt>
<rscale>  0 0.90372000E+02</rscale>
<asrwt>0</asrwt>
<pdfrwt beam="2">  1        3 0.11707570E-01 0.90372000E+02</pdfrwt>
<pdfrwt beam="1">  1       -3 0.41277589E-02 0.90372000E+02</pdfrwt>
<totfact> 0.35295152E+04</totfact>
</mgrwt>
</event>
<event>
 5    1  0.1227473E+001  0.9046609E+02  0.7546771E-02  0.1301727E+00
          2   -1    0    0  501    0  0.00000000000E+00  0.00000000000E+00  0.25220781023E+03  0.25220781023E+03  0.00000000000E+00 0. -1.
         -2   -1    0    0    0  501 -0.00000000000E+00 -0.00000000000E+00 -0.81124711275E+01  0.81124711275E+01  0.00000000000E+00 0.  1.
         23    2    1    2    0    0  0.00000000000E+00  0.00000000000E+00  0.24409533910E+03  0.26032028136E+03  0.90466094834E+02 0.  0.
        -11    1    3    3    0    0  0.39162656874E+02  0.72041562839E+01  0.18379197388E+03  0.18805611722E+03  0.00000000000E+00 0. -1.
         11    1    3    3    0    0 -0.39162656874E+02 -0.72041562839E+01  0.60303365218E+02  0.72264164133E+02  0.00000000000E+00 0.  1.
<mgrwt>
<rscale>  0 0.90466095E+02</rscale>
<asrwt>0</asrwt>
<pdfrwt beam="1">  1        2 0.38801195E-01 0.90466095E+02</pdfrwt>
<pdfrwt beam="2">  1       -2 0.12480727E-02 0.90466095E+02</pdfrwt>
<totfact> 0.17197046E+05</totfact>
</mgrwt>
</event>
<event>
 5    1  0.1227473E+001  0.9255498E+02  0.7546771E-02  0.1296780E+00
         -3   -1    0    0    0  501 -0.00000000000E+00  0.00000000000E+00  0.72172808894E+02  0.72172808894E+02  0.00000000000E+00 0.  1.
          3   -1    0    0  501    0  0.00000000000E+00 -0.00000000000E+00 -0.29673307246E+02  0.29673307246E+02  0.00000000000E+00 0. -1.
         23    2    1    2    0    0  0.00000000000E+00  0.00000000000E+00  0.42499501648E+02  0.10184611614E+03  0.92554976811E+02 0.  0.
        -13    1    3    3    0    0 -0.17197901111E+02 -0.23723893694E+02  0.60664662921E+02  0.67370559311E+02  0.00000000000E+00 0.  1.
         13    1    3    3    0    0  0.17197901111E+02  0.23723893694E+02 -0.18165161273E+02  0.34475556829E+02  0.00000000000E+00 0. -1.
<mgrwt>
<rscale>  0 0.92554977E+02</rscale>
<asrwt>0</asrwt>
<pdfrwt beam="2">  1        3 0.45651242E-02 0.92554977E+02</pdfrwt>
<pdfrwt beam="1">  1       -3 0.11103509E-01 0.92554977E+02</pdfrwt>
<totfact> 0.33151079E+04</totfact>
</mgrwt>
</event>
<event>
 5    1  0.1227473E+001  0.1010884E+03  0.7546771E-02  0.1278024E+00
         -1   -1    0    0    0  501 -0.00000000000E+00  0.00000000000E+00  0.17984105131E+03  0.17984105131E+03  0.00000000000E+00 0.  1.
          1   -1    0    0  501    0  0.00000000000E+00 -0.00000000000E+00 -0.14205410273E+02  0.14205410273E+02  0.00000000000E+00 0. -1.
         23    2    1    2    0    0  0.00000000000E+00  0.00000000000E+00  0.16563564104E+03  0.19404646159E+03  0.10108839533E+03 0.  0.
        -11    1    3    3    0    0  0.36271683180E+02 -0.72141330633E+01  0.14895361729E+03  0.15347592261E+03  0.00000000000E+00 0.  1.
         11    1    3    3    0    0 -0.36271683180E+02  0.72141330633E+01  0.16682023749E+02  0.40570538978E+02  0.00000000000E+00 0. -1.
<mgrwt>
<rscale>  0 0.10108840E+03</rscale>
<asrwt>0</asrwt>
<pdfrwt beam="2">  1        1 0.21854479E-02 0.10108840E+03</pdfrwt>
<pdfrwt beam="1">  1       -1 0.27667852E-01 0.10108840E+03</pdfrwt>
<totfact> 0.54604059E+04</totfact>
</mgrwt>
</event>
<event>
 5    1  0.1227473E+001  0.9445426E+02  0.7546771E-02  0.1292410E+00
          2   -1    0    0  501    0  0.00000000000E+00  0.00000000000E+00  0.49210519832E+01  0.49210519832E+01  0.00000000000E+00 0. -1.
         -2   -1    0    0    0  501 -0.00000000000E+00 -0.00000000000E+00 -0.45323682660E+03  0.45323682660E+03  0.00000000000E+00 0.  1.
         23    2    1    2    0    0  0.00000000000E+00  0.00000000000E+00 -0.44831577461E+03  0.45815787858E+03  0.94454263734E+02 0.  0.
        -13    1    3    3    0    0  0.43148884758E+02 -0.19068899614E+02 -0.21336298255E+03  0.21851592965E+03  0.00000000000E+00 0.  1.
         13    1    3    3    0    0 -0.43148884758E+02  0.19068899614E+02 -0.23495279206E+03  0.23964194893E+03  0.00000000000E+00 0. -1.
<mgrwt>
<rscale>  0 0.94454264E+02</rscale>
<asrwt>0</asrwt>
<pdfrwt beam="1">  1        2 0.75708500E-03 0.94454264E+02</pdfrwt>
<pdfrwt beam="2">  1       -2 0.69728735E-01 0.94454264E+02</pdfrwt>
<totfact> 0.35677303E+04</totfact>
</mgrwt>
</event>
<event>
 5    1  0.1227473E+001  0.9433470E+02  0.7546771E-02  0.1292682E+00
         -1   -1    0    0    0  501 -0.00000000000E+00  0.00000000000E+00  0.29717902521E+02  0.29717902521E+02  0.00000000000E+00 0.  1.
          1   -1    0    0  501    0  0.00000000000E+00 -0.00000000000E+00 -0.74862574252E+02  0.74862574252E+02  0.00000000000E+00 0. -1.
         23    2    1    2    0    0  0.00000000000E+00  0.00000000000E+00 -0.45144671730E+02  0.10458047677E+03  0.94334695295E+02 0.  0.
        -13    1    3    3    0    0  0.46816799722E+02  0.39341254576E+00 -0.28920638937E+02  0.55030635706E+02  0.00000000000E+00 0.  1.
         13    1    3    3    0    0 -0.46816799722E+02 -0.39341254576E+00 -0.16224032794E+02  0.49549841067E+02  0.00000000000E+00 0. -1.
<mgrwt>
<rscale>  0 0.94334695E+02</rscale>
<asrwt>0</asrwt>
<pdfrwt beam="2">  1        1 0.11517319E-01 0.94334695E+02</pdfrwt>
<pdfrwt beam="1">  1       -1 0.45719850E-02 0.94334695E+02</pdfrwt>
<totfact> 0.90756930E+04</totfact>
</mgrwt>
</event>
<event>
 5    1  0.1227473E+001  0.9085571E+02  0.7546771E-02  0.1300793E+00
          2   -1    0    0  501    0  0.00000000000E+00  0.00000000000E+00  0.83045595467E+02  0.83045595467E+02  0.00000000000E+00 0. -1.
         -2   -1    0    0    0  501 -0.00000000000E+00 -0.00000000000E+00 -0.24850085787E+02  0.24850085787E+02  0.00000000000E+00 0.  1.
         23    2    1    2    0    0  0.00000000000E+00  0.00000000000E+00  0.58195509679E+02  0.10789568125E+03  0.90855713559E+02 0.  0.
        -13    1    3    3    0    0 -0.23300578937E+02 -0.23763796712E+02 -0.76214520796E+01  0.34142664582E+02  0.00000000000E+00 0.  1.
         13    1    3    3    0    0  0.23300578937E+02  0.23763796712E+02  0.65816961759E+02  0.73753016672E+02  0.00000000000E+00 0. -1.
<mgrwt>
<rscale>  0 0.90855714E+02</rscale>
<asrwt>0</asrwt>
<pdfrwt beam="1">  1        2 0.12776245E-01 0.90855714E+02</pdfrwt>
<pdfrwt beam="2">  1       -2 0.38230902E-02 0.90855714E+02</pdfrwt>
<totfact> 0.11723756E+05</totfact>
</mgrwt>
</event>
<event>
 5    1  0.1227473E+001  0.9026162E+02  0.7546771E-02  0.1302219E+00
         -2   -1    0    0    0  501 -0.00000000000E+00  0.00000000000E+00  0.68068846712E+02  0.68068846712E+02  0.00000000000E+00 0.  1.
          2   -1    0    0  501    0  0.00000000000E+00 -0.00000000000E+00 -0.29922499361E+02  0.29922499361E+02  0.00000000000E+00 0. -1.
         23    2    1    2    0    0  0.00000000000E+00  0.00000000000E+00  0.38146347351E+02  0.97991346073E+02  0.90261620244E+02 0.  0.
        -11    1    3    3    0    0  0.37493066627E+02  0.23774317585E+02  0.10263994411E+02  0.45566410907E+02  0.00000000000E+00 0.  1.
         11    1    3    3    0    0 -0.37493066627E+02 -0.23774317585E+02  0.27882352940E+02  0.52424935166E+02  0.00000000000E+00 0. -1.
<mgrwt>
<rscale>  0 0.90261620E+02</rscale>
<asrwt>0</asrwt>
<pdfrwt beam="2">  1        2 0.46034615E-02 0.90261620E+02</pdfrwt>
<pdfrwt beam="1">  1       -2 0.10472130E-01 0.90261620E+02</pdfrwt>
<totfact> 0.91087264E+04</totfact>
</mgrwt>
</event>
<event>
 5    1  0.1227473E+001  0.8796406E+02  0.7546771E-02  0.1307858E+00
          4   -1    0    0  501    0  0.00000000000E+00  0.00000000000E+00  0.12148653155E+02  0.12148653155E+02  0.00000000000E+00 0. -1.
         -4   -1    0    0    0  501 -0.00000000000E+00 -0.00000000000E+00 -0.15922909593E+03  0.15922909593E+03  0.00000000000E+00 0.  1.
         23    2    1    2    0    0  0.00000000000E+00  0.00000000000E+00 -0.14708044277E+03  0.17137774908E+03  0.87964062174E+02 0.  0.
        -11    1    3    3    0    0  0.20010348961E+01  0.40399326295E+02 -0.39890413237E+02  0.56809812304E+02  0.00000000000E+00 0. -1.
         11    1    3    3    0    0 -0.20010348961E+01 -0.40399326295E+02 -0.10719002953E+03  0.11456793678E+03  0.00000000000E+00 0.  1.
<mgrwt>
<rscale>  0 0.87964062E+02</rscale>
<asrwt>0</asrwt>
<pdfrwt beam="1">  1        4 0.18690236E-02 0.87964062E+02</pdfrwt>
<pdfrwt beam="2">  1       -4 0.24496783E-01 0.87964062E+02</pdfrwt>
<totfact> 0.24922530E+04</totfact>
</mgrwt>
</event>
<event>
 5    1  0.1227473E+001  0.9195079E+02  0.7546771E-02  0.1298195E+00
         -1   -1    0    0    0  501 -0.00000000000E+00  0.00000000000E+00  0.17937817800E+02  0.17937817800E+02  0.00000000000E+00 0.  1.
          1   -1    0    0  501    0  0.00000000000E+00 -0.00000000000E+00 -0.11783689516E+03  0.11783689516E+03  0.00000000000E+00 0. -1.
         23    2    1    2    0    0  0.00000000000E+00  0.00000000000E+00 -0.99899077357E+02  0.13577471296E+03  0.91950785870E+02 0.  0.
        -13    1    3    3    0    0  0.19661239264E+01  0.43859758768E+02 -0.29800944883E+02  0.53062608289E+02  0.00000000000E+00 0.  1.
         13    1    3    3    0    0 -0.19661239264E+01 -0.43859758768E+02 -0.70098132474E+02  0.82712104669E+02  0.00000000000E+00 0. -1.
<mgrwt>
<rscale>  0 0.91950786E+02</rscale>
<asrwt>0</asrwt>
<pdfrwt beam="2">  1        1 0.18128753E-01 0.91950786E+02</pdfrwt>
<pdfrwt beam="1">  1       -1 0.27596643E-02 0.91950786E+02</pdfrwt>
<totfact> 0.10496093E+05</totfact>
</mgrwt>
</event>
<event>
 5    1  0.1227473E+001  0.9213982E+02  0.7546771E-02  0.1297751E+00
         -2   -1    0    0    0  501 -0.00000000000E+00  0.00000000000E+00  0.31219930709E+02  0.31219930709E+02  0.00000000000E+00 0. -1.
          2   -1    0    0  501    0  0.00000000000E+00 -0.00000000000E+00 -0.67983391736E+02  0.67983391736E+02  0.00000000000E+00 0.  1.
         23    2    1    2    0    0  0.00000000000E+00  0.00000000000E+00 -0.36763461027E+02  0.99203322445E+02  0.92139823733E+02 0.  0.
        -11    1    3    3    0    0  0.18551932046E+00 -0.20748069305E+02 -0.62667964486E+02  0.66013563531E+02  0.00000000000E+00 0.  1.
         11    1    3    3    0    0 -0.18551932046E+00  0.20748069305E+02  0.25904503459E+02  0.33189758914E+02  0.00000000000E+00 0. -1.
<mgrwt>
<rscale>  0 0.92139824E+02</rscale>
<asrwt>0</asrwt>
<pdfrwt beam="2">  1        2 0.10458983E-01 0.92139824E+02</pdfrwt>
<pdfrwt beam="1">  1       -2 0.48030663E-02 0.92139824E+02</pdfrwt>
<totfact> 0.10654138E+05</totfact>
</mgrwt>
</event>
<event>
 5    1  0.1227473E+001  0.9090482E+02  0.7546771E-02  0.1300675E+00
          2   -1    0    0  501    0  0.00000000000E+00  0.00000000000E+00  0.28924048530E+03  0.28924048530E+03  0.00000000000E+00 0. -1.
         -2   -1    0    0    0  501 -0.00000000000E+00 -0.00000000000E+00 -0.71425745760E+01  0.71425745760E+01  0.00000000000E+00 0.  1.
         23    2    1    2    0    0  0.00000000000E+00  0.00000000000E+00  0.28209791072E+03  0.29638305988E+03  0.90904823561E+02 0.  0.
        -11    1    3    3    0    0  0.25065053398E+02 -0.36859227391E+02  0.11205877804E+03  0.12059862886E+03  0.00000000000E+00 0.  1.
         11    1    3    3    0    0 -0.25065053398E+02  0.36859227391E+02  0.17003913268E+03  0.17578443102E+03  0.00000000000E+00 0. -1.
<mgrwt>
<rscale>  0 0.90904824E+02</rscale>
<asrwt>0</asrwt>
<pdfrwt beam="1">  1        2 0.44498527E-01 0.90904824E+02</pdfrwt>
<pdfrwt beam="2">  1       -2 0.10988579E-02 0.90904824E+02</pdfrwt>
<totfact> 0.17865051E+05</totfact>
</mgrwt>
</event>
<event>
 5    1  0.1227473E+001  0.9093238E+02  0.7546771E-02  0.1300609E+00
          2   -1    0    0  501    0  0.00000000000E+00  0.00000000000E+00  0.51852132269E+01  0.51852132269E+01  0.00000000000E+00 0. -1.
         -2   -1    0    0    0  501 -0.00000000000E+00 -0.00000000000E+00 -0.39866717720E+03  0.39866717720E+03  0.00000000000E+00 0.  1.
         23    2    1    2    0    0  0.00000000000E+00  0.00000000000E+00 -0.39348196398E+03  0.40385239043E+03  0.90932377520E+02 0.  0.
        -11    1    3    3    0    0 -0.25663673951E+02 -0.35780276839E+02 -0.24705101302E+03  0.25094432730E+03  0.00000000000E+00 0.  1.
         11    1    3    3    0    0  0.25663673951E+02  0.35780276839E+02 -0.14643095096E+03  0.15290806313E+03  0.00000000000E+00 0. -1.
<mgrwt>
<rscale>  0 0.90932378E+02</rscale>
<asrwt>0</asrwt>
<pdfrwt beam="1">  1        2 0.79772524E-03 0.90932378E+02</pdfrwt>
<pdfrwt beam="2">  1       -2 0.61333402E-01 0.90932378E+02</pdfrwt>
<totfact> 0.43086823E+04</totfact>
</mgrwt>
</event>
<event>
 5    1  0.1227473E+001  0.9152389E+02  0.7546771E-02  0.1299203E+00
         -4   -1    0    0    0  501 -0.00000000000E+00  0.00000000000E+00  0.45308855825E+02  0.45308855825E+02  0.00000000000E+00 0.  1.
          4   -1    0    0  501    0  0.00000000000E+00 -0.00000000000E+00 -0.46219560260E+02  0.46219560260E+02  0.00000000000E+00 0. -1.
         23    2    1    2    0    0  0.00000000000E+00  0.00000000000E+00 -0.91070443489E+00  0.91528416085E+02  0.91523885235E+02 0.  0.
        -13    1    3    3    0    0  0.11599137439E+02  0.13802819597E+02 -0.42518076037E+02  0.46182730626E+02  0.00000000000E+00 0. -1.
         13    1    3    3    0    0 -0.11599137439E+02 -0.13802819597E+02  0.41607371602E+02  0.45345685460E+02  0.00000000000E+00 0.  1.
<mgrwt>
<rscale>  0 0.91523885E+02</rscale>
<asrwt>0</asrwt>
<pdfrwt beam="2">  1        4 0.71107016E-02 0.91523885E+02</pdfrwt>
<pdfrwt beam="1">  1       -4 0.69705932E-02 0.91523885E+02</pdfrwt>
<totfact> 0.26715950E+04</totfact>
</mgrwt>
</event>
<event>
 5    1  0.1227473E+001  0.8994237E+02  0.7546771E-02  0.1302991E+00
         -2   -1    0    0    0  501 -0.00000000000E+00  0.00000000000E+00  0.10944492132E+02  0.10944492132E+02  0.00000000000E+00 0.  1.
          2   -1    0    0  501    0  0.00000000000E+00 -0.00000000000E+00 -0.18478768405E+03  0.18478768405E+03  0.00000000000E+00 0. -1.
         23    2    1    2    0    0  0.00000000000E+00  0.00000000000E+00 -0.17384319192E+03  0.19573217618E+03  0.89942367196E+02 0.  0.
        -13    1    3    3    0    0 -0.42561515625E+02 -0.64471799787E+01 -0.58601054378E+02  0.72712669572E+02  0.00000000000E+00 0.  1.
         13    1    3    3    0    0  0.42561515625E+02  0.64471799787E+01 -0.11524213754E+03  0.12301950661E+03  0.00000000000E+00 0. -1.
<mgrwt>
<rscale>  0 0.89942367E+02</rscale>
<asrwt>0</asrwt>
<pdfrwt beam="2">  1        2 0.28428874E-01 0.89942367E+02</pdfrwt>
<pdfrwt beam="1">  1       -2 0.16837680E-02 0.89942367E+02</pdfrwt>
<totfact> 0.15596864E+05</totfact>
</mgrwt>
</event>
<event>
 5    1  0.1227473E+001  0.7744521E+02  0.7546771E-02  0.1336462E+00
          1   -1    0    0  501    0  0.00000000000E+00  0.00000000000E+00  0.95758296780E+02  0.95758296780E+02  0.00000000000E+00 0. -1.
         -1   -1    0    0    0  501 -0.00000000000E+00 -0.00000000000E+00 -0.15658593645E+02  0.15658593645E+02  0.00000000000E+00 0.  1.
         23    2    1    2    0    0  0.00000000000E+00  0.00000000000E+00  0.80099703134E+02  0.11141689043E+03  0.77445213085E+02 0.  0.
        -13    1    3    3    0    0  0.44735686260E+00  0.21991076993E+02  0.85898314851E+02  0.88669769875E+02  0.00000000000E+00 0. -1.
         13    1    3    3    0    0 -0.44735686260E+00 -0.21991076993E+02 -0.57986117170E+01  0.22747120550E+02  0.00000000000E+00 0.  1.
<mgrwt>
<rscale>  0 0.77445213E+02</rscale>
<asrwt>0</asrwt>
<pdfrwt beam="1">  1        1 0.14732045E-01 0.77445213E+02</pdfrwt>
<pdfrwt beam="2">  1       -1 0.24090145E-02 0.77445213E+02</pdfrwt>
<totfact> 0.16112605E+05</totfact>
</mgrwt>
</event>
<event>
 5    1  0.1227473E+001  0.9153636E+02  0.7546771E-02  0.1299173E+00
         -3   -1    0    0    0  501 -0.00000000000E+00  0.00000000000E+00  0.15570165998E+03  0.15570165998E+03  0.00000000000E+00 0.  1.
          3   -1    0    0  501    0  0.00000000000E+00 -0.00000000000E+00 -0.13453460867E+02  0.13453460867E+02  0.00000000000E+00 0. -1.
         23    2    1    2    0    0  0.00000000000E+00  0.00000000000E+00  0.14224819911E+03  0.16915512085E+03  0.91536357573E+02 0.  0.
        -11    1    3    3    0    0  0.41229681364E+01  0.33079128747E+02  0.12907742855E+03  0.13331245323E+03  0.00000000000E+00 0.  1.
         11    1    3    3    0    0 -0.41229681364E+01 -0.33079128747E+02  0.13170770567E+02  0.35842667621E+02  0.00000000000E+00 0. -1.
<mgrwt>
<rscale>  0 0.91536358E+02</rscale>
<asrwt>0</asrwt>
<pdfrwt beam="2">  1        3 0.20697633E-02 0.91536358E+02</pdfrwt>
<pdfrwt beam="1">  1       -3 0.23954100E-01 0.91536358E+02</pdfrwt>
<totfact> 0.29855084E+04</totfact>
</mgrwt>
</event>
<event>
 5    1  0.1227473E+001  0.9155773E+02  0.7546771E-02  0.1299123E+00
         -3   -1    0    0    0  501 -0.00000000000E+00  0.00000000000E+00  0.14412572235E+02  0.14412572235E+02  0.00000000000E+00 0.  1.
          3   -1    0    0  501    0  0.00000000000E+00 -0.00000000000E+00 -0.14540808241E+03  0.14540808241E+03  0.00000000000E+00 0. -1.
         23    2    1    2    0    0  0.00000000000E+00  0.00000000000E+00 -0.13099551017E+03  0.15982065464E+03  0.91557730231E+02 0.  0.
        -11    1    3    3    0    0 -0.26504981727E+02  0.36905441013E+02 -0.55750821793E+02  0.71921344282E+02  0.00000000000E+00 0.  1.
         11    1    3    3    0    0  0.26504981727E+02 -0.36905441013E+02 -0.75244688379E+02  0.87899310361E+02  0.00000000000E+00 0. -1.
<mgrwt>
<rscale>  0 0.91557730E+02</rscale>
<asrwt>0</asrwt>
<pdfrwt beam="2">  1        3 0.22370474E-01 0.91557730E+02</pdfrwt>
<pdfrwt beam="1">  1       -3 0.22173189E-02 0.91557730E+02</pdfrwt>
<totfact> 0.30371658E+04</totfact>
</mgrwt>
</event>
<event>
 5    1  0.1227473E+001  0.8532538E+02  0.7546771E-02  0.1314584E+00
          2   -1    0    0  501    0  0.00000000000E+00  0.00000000000E+00  0.12639202081E+03  0.12639202081E+03  0.00000000000E+00 0. -1.
         -2   -1    0    0    0  501 -0.00000000000E+00 -0.00000000000E+00 -0.14400475917E+02  0.14400475917E+02  0.00000000000E+00 0.  1.
         23    2    1    2    0    0  0.00000000000E+00  0.00000000000E+00  0.11199154490E+03  0.14079249673E+03  0.85325383136E+02 0.  0.
        -13    1    3    3    0    0  0.25953540308E+02 -0.28315242433E+02  0.25357554177E+02  0.46025479491E+02  0.00000000000E+00 0. -1.
         13    1    3    3    0    0 -0.25953540308E+02  0.28315242433E+02  0.86633990721E+02  0.94767017241E+02  0.00000000000E+00 0.  1.
<mgrwt>
<rscale>  0 0.85325383E+02</rscale>
<asrwt>0</asrwt>
<pdfrwt beam="1">  1        2 0.19444926E-01 0.85325383E+02</pdfrwt>
<pdfrwt beam="2">  1       -2 0.22154579E-02 0.85325383E+02</pdfrwt>
<totfact> 0.15811798E+05</totfact>
</mgrwt>
</event>
<event>
 5    1  0.1227473E+001  0.9150660E+02  0.7546771E-02  0.1299244E+00
          3   -1    0    0  501    0  0.00000000000E+00  0.00000000000E+00  0.14510670418E+03  0.14510670418E+03  0.00000000000E+00 0. -1.
         -3   -1    0    0    0  501 -0.00000000000E+00 -0.00000000000E+00 -0.14426378915E+02  0.14426378915E+02  0.00000000000E+00 0.  1.
         23    2    1    2    0    0  0.00000000000E+00  0.00000000000E+00  0.13068032527E+03  0.15953308310E+03  0.91506596431E+02 0.  0.
        -11    1    3    3    0    0 -0.26718525446E+02  0.33257235199E+02  0.94169202254E+02  0.10338163255E+03  0.00000000000E+00 0. -1.
         11    1    3    3    0    0  0.26718525446E+02 -0.33257235199E+02  0.36511123012E+02  0.56151450548E+02  0.00000000000E+00 0.  1.
<mgrwt>
<rscale>  0 0.91506596E+02</rscale>
<asrwt>0</asrwt>
<pdfrwt beam="1">  1        3 0.22324107E-01 0.91506596E+02</pdfrwt>
<pdfrwt beam="2">  1       -3 0.22194430E-02 0.91506596E+02</pdfrwt>
<totfact> 0.30434512E+04</totfact>
</mgrwt>
</event>
<event>
 5    1  0.1227473E+001  0.9133698E+02  0.7546771E-02  0.1299646E+00
          2   -1    0    0  501    0  0.00000000000E+00  0.00000000000E+00  0.39658530867E+02  0.39658530867E+02  0.00000000000E+00 0.  1.
         -2   -1    0    0    0  501 -0.00000000000E+00 -0.00000000000E+00 -0.52589217252E+02  0.52589217252E+02  0.00000000000E+00 0. -1.
         23    2    1    2    0    0  0.00000000000E+00  0.00000000000E+00 -0.12930686385E+02  0.92247748118E+02  0.91336982556E+02 0.  0.
        -13    1    3    3    0    0 -0.37818520514E+02  0.38362311981E+01  0.19098188989E+02  0.42540545205E+02  0.00000000000E+00 0.  1.
         13    1    3    3    0    0  0.37818520514E+02 -0.38362311981E+01 -0.32028875374E+02  0.49707202913E+02  0.00000000000E+00 0. -1.
<mgrwt>
<rscale>  0 0.91336983E+02</rscale>
<asrwt>0</asrwt>
<pdfrwt beam="1">  1        2 0.61013124E-02 0.91336983E+02</pdfrwt>
<pdfrwt beam="2">  1       -2 0.80906488E-02 0.91336983E+02</pdfrwt>
<totfact> 0.94693510E+04</totfact>
</mgrwt>
</event>
<event>
 5    1  0.1227473E+001  0.9410142E+02  0.7546771E-02  0.1293213E+00
          1   -1    0    0  501    0  0.00000000000E+00  0.00000000000E+00  0.23947121986E+03  0.23947121986E+03  0.00000000000E+00 0. -1.
         -1   -1    0    0    0  501 -0.00000000000E+00 -0.00000000000E+00 -0.92444064567E+01  0.92444064567E+01  0.00000000000E+00 0.  1.
         23    2    1    2    0    0  0.00000000000E+00  0.00000000000E+00  0.23022681340E+03  0.24871562632E+03  0.94101419566E+02 0.  0.
        -13    1    3    3    0    0 -0.25606373877E+01  0.46950506638E+02  0.11064174908E+03  0.12021856585E+03  0.00000000000E+00 0.  1.
         13    1    3    3    0    0  0.25606373877E+01 -0.46950506638E+02  0.11958506433E+03  0.12849706046E+03  0.00000000000E+00 0. -1.
<mgrwt>
<rscale>  0 0.94101420E+02</rscale>
<asrwt>0</asrwt>
<pdfrwt beam="1">  1        1 0.36841721E-01 0.94101420E+02</pdfrwt>
<pdfrwt beam="2">  1       -1 0.14222166E-02 0.94101420E+02</pdfrwt>
<totfact> 0.11268822E+05</totfact>
</mgrwt>
</event>
<event>
 5    1  0.1227473E+001  0.9040469E+02  0.7546771E-02  0.1301875E+00
          1   -1    0    0  501    0  0.00000000000E+00  0.00000000000E+00  0.17166552380E+02  0.17166552380E+02  0.00000000000E+00 0. -1.
         -1   -1    0    0    0  501 -0.00000000000E+00 -0.00000000000E+00 -0.11902517854E+03  0.11902517854E+03  0.00000000000E+00 0.  1.
         23    2    1    2    0    0  0.00000000000E+00  0.00000000000E+00 -0.10185862616E+03  0.13619173092E+03  0.90404689302E+02 0.  0.
        -13    1    3    3    0    0  0.17768442796E+02 -0.17917278207E+02 -0.10742697894E+03  0.11035081433E+03  0.00000000000E+00 0.  1.
         13    1    3    3    0    0 -0.17768442796E+02  0.17917278207E+02  0.55683527812E+01  0.25840916594E+02  0.00000000000E+00 0. -1.
<mgrwt>
<rscale>  0 0.90404689E+02</rscale>
<asrwt>0</asrwt>
<pdfrwt beam="1">  1        1 0.26410081E-02 0.90404689E+02</pdfrwt>
<pdfrwt beam="2">  1       -1 0.18311566E-01 0.90404689E+02</pdfrwt>
<totfact> 0.80408397E+04</totfact>
</mgrwt>
</event>
<event>
 5    1  0.1227473E+001  0.8909362E+02  0.7546771E-02  0.1305062E+00
         -2   -1    0    0    0  501 -0.00000000000E+00  0.00000000000E+00  0.19480462055E+02  0.19480462055E+02  0.00000000000E+00 0.  1.
          2   -1    0    0  501    0  0.00000000000E+00 -0.00000000000E+00 -0.10186710604E+03  0.10186710604E+03  0.00000000000E+00 0. -1.
         23    2    1    2    0    0  0.00000000000E+00  0.00000000000E+00 -0.82386643988E+02  0.12134756810E+03  0.89093620287E+02 0.  0.
        -13    1    3    3    0    0 -0.26020352425E+02 -0.35162748826E+02 -0.29721509284E+02  0.52885213051E+02  0.00000000000E+00 0. -1.
         13    1    3    3    0    0  0.26020352425E+02  0.35162748826E+02 -0.52665134704E+02  0.68462355048E+02  0.00000000000E+00 0.  1.
<mgrwt>
<rscale>  0 0.89093620E+02</rscale>
<asrwt>0</asrwt>
<pdfrwt beam="2">  1        2 0.15671863E-01 0.89093620E+02</pdfrwt>
<pdfrwt beam="1">  1       -2 0.29969941E-02 0.89093620E+02</pdfrwt>
<totfact> 0.13144959E+05</totfact>
</mgrwt>
</event>
<event>
 5    1  0.1227473E+001  0.9086095E+02  0.7546771E-02  0.1300780E+00
         -2   -1    0    0    0  501 -0.00000000000E+00  0.00000000000E+00  0.36236408977E+02  0.36236408977E+02  0.00000000000E+00 0.  1.
          2   -1    0    0  501    0  0.00000000000E+00 -0.00000000000E+00 -0.56957306816E+02  0.56957306816E+02  0.00000000000E+00 0. -1.
         23    2    1    2    0    0  0.00000000000E+00  0.00000000000E+00 -0.20720897839E+02  0.93193715793E+02  0.90860954519E+02 0.  0.
        -11    1    3    3    0    0  0.21396853803E+02  0.40040005814E+02 -0.12107363440E+02  0.46985270753E+02  0.00000000000E+00 0.  1.
         11    1    3    3    0    0 -0.21396853803E+02 -0.40040005814E+02 -0.86135343996E+01  0.46208445041E+02  0.00000000000E+00 0. -1.
<mgrwt>
<rscale>  0 0.90860955E+02</rscale>
<asrwt>0</asrwt>
<pdfrwt beam="2">  1        2 0.87626626E-02 0.90860955E+02</pdfrwt>
<pdfrwt beam="1">  1       -2 0.55748321E-02 0.90860955E+02</pdfrwt>
<totfact> 0.10563717E+05</totfact>
</mgrwt>
</event>
<event>
 5    1  0.1227473E+001  0.9178847E+02  0.7546771E-02  0.1298578E+00
         -1   -1    0    0    0  501 -0.00000000000E+00  0.00000000000E+00  0.17075556034E+03  0.17075556034E+03  0.00000000000E+00 0.  1.
          1   -1    0    0  501    0  0.00000000000E+00 -0.00000000000E+00 -0.12335064176E+02  0.12335064176E+02  0.00000000000E+00 0. -1.
         23    2    1    2    0    0  0.00000000000E+00  0.00000000000E+00  0.15842049616E+03  0.18309062451E+03  0.91788469757E+02 0.  0.
        -11    1    3    3    0    0  0.93592953392E+00 -0.42010612781E+02  0.42402014098E+02  0.59696719758E+02  0.00000000000E+00 0. -1.
         11    1    3    3    0    0 -0.93592953392E+00  0.42010612781E+02  0.11601848206E+03  0.12339390475E+03  0.00000000000E+00 0.  1.
<mgrwt>
<rscale>  0 0.91788470E+02</rscale>
<asrwt>0</asrwt>
<pdfrwt beam="2">  1        1 0.18977023E-02 0.91788470E+02</pdfrwt>
<pdfrwt beam="1">  1       -1 0.26270084E-01 0.91788470E+02</pdfrwt>
<totfact> 0.71206368E+04</totfact>
</mgrwt>
</event>
<event>
 5    1  0.1227473E+001  0.9716459E+02  0.7546771E-02  0.1286374E+00
          1   -1    0    0  501    0  0.00000000000E+00  0.00000000000E+00  0.18967975595E+03  0.18967975595E+03  0.00000000000E+00 0. -1.
         -1   -1    0    0    0  501 -0.00000000000E+00 -0.00000000000E+00 -0.12443284455E+02  0.12443284455E+02  0.00000000000E+00 0.  1.
         23    2    1    2    0    0  0.00000000000E+00  0.00000000000E+00  0.17723647149E+03  0.20212304040E+03  0.97164585288E+02 0.  0.
        -11    1    3    3    0    0 -0.14948751666E+01  0.47105193383E+02  0.11315287078E+03  0.12257530772E+03  0.00000000000E+00 0.  1.
         11    1    3    3    0    0  0.14948751666E+01 -0.47105193383E+02  0.64083600707E+02  0.79547732682E+02  0.00000000000E+00 0. -1.
<mgrwt>
<rscale>  0 0.97164585E+02</rscale>
<asrwt>0</asrwt>
<pdfrwt beam="1">  1        1 0.29181499E-01 0.97164585E+02</pdfrwt>
<pdfrwt beam="2">  1       -1 0.19143516E-02 0.97164585E+02</pdfrwt>
<totfact> 0.98732145E+04</totfact>
</mgrwt>
</event>
<event>
 5    1  0.1227473E+001  0.9081633E+02  0.7546771E-02  0.1300887E+00
          1   -1    0    0  501    0  0.00000000000E+00  0.00000000000E+00  0.10090516637E+03  0.10090516637E+03  0.00000000000E+00 0. -1.
         -1   -1    0    0    0  501 -0.00000000000E+00 -0.00000000000E+00 -0.20434052814E+02  0.20434052814E+02  0.00000000000E+00 0.  1.
         23    2    1    2    0    0  0.00000000000E+00  0.00000000000E+00  0.80471113560E+02  0.12133921919E+03  0.90816331105E+02 0.  0.
        -11    1    3    3    0    0  0.61554503547E+01 -0.28627087755E+02 -0.61348563879E+01  0.29917155368E+02  0.00000000000E+00 0.  1.
         11    1    3    3    0    0 -0.61554503547E+01  0.28627087755E+02  0.86605969948E+02  0.91422063819E+02  0.00000000000E+00 0. -1.
<mgrwt>
<rscale>  0 0.90816331E+02</rscale>
<asrwt>0</asrwt>
<pdfrwt beam="1">  1        1 0.15523871E-01 0.90816331E+02</pdfrwt>
<pdfrwt beam="2">  1       -1 0.31437005E-02 0.90816331E+02</pdfrwt>
<totfact> 0.10574360E+05</totfact>
</mgrwt>
</event>
<event>
 5    1  0.1227473E+001  0.8246762E+02  0.7546771E-02  0.1322191E+00
         -4   -1    0    0    0  501 -0.00000000000E+00  0.00000000000E+00  0.24863551065E+03  0.24863551065E+03  0.00000000000E+00 0.  1.
          4   -1    0    0  501    0  0.00000000000E+00 -0.00000000000E+00 -0.68382313461E+01  0.68382313461E+01  0.00000000000E+00 0. -1.
         23    2    1    2    0    0  0.00000000000E+00  0.00000000000E+00  0.24179727931E+03  0.25547374200E+03  0.82467621348E+02 0.  0.
        -13    1    3    3    0    0 -0.12223177785E+02  0.31066414616E+02  0.19587079976E+03  0.19869549163E+03  0.00000000000E+00 0.  1.
         13    1    3    3    0    0  0.12223177785E+02 -0.31066414616E+02  0.45926479545E+02  0.56778250375E+02  0.00000000000E+00 0. -1.
<mgrwt>
<rscale>  0 0.82467621E+02</rscale>
<asrwt>0</asrwt>
<pdfrwt beam="2">  1        4 0.10520358E-02 0.82467621E+02</pdfrwt>
<pdfrwt beam="1">  1       -4 0.38251610E-01 0.82467621E+02</pdfrwt>
<totfact> 0.25129751E+04</totfact>
</mgrwt>
</event>
<event>
 5    1  0.1227473E+001  0.9086815E+02  0.7546771E-02  0.1300763E+00
         -2   -1    0    0    0  501 -0.00000000000E+00  0.00000000000E+00  0.19902334017E+02  0.19902334017E+02  0.00000000000E+00 0.  1.
          2   -1    0    0  501    0  0.00000000000E+00 -0.00000000000E+00 -0.10371924087E+03  0.10371924087E+03  0.00000000000E+00 0. -1.
         23    2    1    2    0    0  0.00000000000E+00  0.00000000000E+00 -0.83816906857E+02  0.12362157489E+03  0.90868145702E+02 0.  0.
        -11    1    3    3    0    0  0.38580115551E+02 -0.22102208456E-01 -0.74554412927E+02  0.83945138581E+02  0.00000000000E+00 0. -1.
         11    1    3    3    0    0 -0.38580115551E+02  0.22102208456E-01 -0.92624939295E+01  0.39676436310E+02  0.00000000000E+00 0.  1.
<mgrwt>
<rscale>  0 0.90868146E+02</rscale>
<asrwt>0</asrwt>
<pdfrwt beam="2">  1        2 0.15956806E-01 0.90868146E+02</pdfrwt>
<pdfrwt beam="1">  1       -2 0.30618975E-02 0.90868146E+02</pdfrwt>
<totfact> 0.12521665E+05</totfact>
</mgrwt>
</event>
<event>
 5    1  0.1227473E+001  0.9030412E+02  0.7546771E-02  0.1302117E+00
          1   -1    0    0  501    0  0.00000000000E+00  0.00000000000E+00  0.24597236676E+03  0.24597236676E+03  0.00000000000E+00 0. -1.
         -1   -1    0    0    0  501 -0.00000000000E+00 -0.00000000000E+00 -0.82883636126E+01  0.82883636126E+01  0.00000000000E+00 0.  1.
         23    2    1    2    0    0  0.00000000000E+00  0.00000000000E+00  0.23768400314E+03  0.25426073037E+03  0.90304117610E+02 0.  0.
        -11    1    3    3    0    0 -0.21807472954E+02  0.39466037878E+02  0.11219431578E+03  0.12091608047E+03  0.00000000000E+00 0.  1.
         11    1    3    3    0    0  0.21807472954E+02 -0.39466037878E+02  0.12548968737E+03  0.13334464990E+03  0.00000000000E+00 0. -1.
<mgrwt>
<rscale>  0 0.90304118E+02</rscale>
<asrwt>0</asrwt>
<pdfrwt beam="1">  1        1 0.37841897E-01 0.90304118E+02</pdfrwt>
<pdfrwt beam="2">  1       -1 0.12751331E-02 0.90304118E+02</pdfrwt>
<totfact> 0.12648548E+05</totfact>
</mgrwt>
</event>
<event>
 5    1  0.1227473E+001  0.9243098E+02  0.7546771E-02  0.1297069E+00
         -2   -1    0    0    0  501 -0.00000000000E+00  0.00000000000E+00  0.70823133605E+02  0.70823133605E+02  0.00000000000E+00 0.  1.
          2   -1    0    0  501    0  0.00000000000E+00 -0.00000000000E+00 -0.30157822083E+02  0.30157822083E+02  0.00000000000E+00 0. -1.
         23    2    1    2    0    0  0.00000000000E+00  0.00000000000E+00  0.40665311523E+02  0.10098095569E+03  0.92430978846E+02 0.  0.
        -13    1    3    3    0    0  0.40802406291E+02  0.21677788636E+02  0.21482942428E+02  0.50953701481E+02  0.00000000000E+00 0.  1.
         13    1    3    3    0    0 -0.40802406291E+02 -0.21677788636E+02  0.19182369095E+02  0.50027254206E+02  0.00000000000E+00 0. -1.
<mgrwt>
<rscale>  0 0.92430979E+02</rscale>
<asrwt>0</asrwt>
<pdfrwt beam="2">  1        2 0.46396650E-02 0.92430979E+02</pdfrwt>
<pdfrwt beam="1">  1       -2 0.10895867E-01 0.92430979E+02</pdfrwt>
<totfact> 0.85062723E+04</totfact>
</mgrwt>
</event>
<event>
 5    1  0.1227473E+001  0.9237606E+02  0.7546771E-02  0.1297198E+00
          2   -1    0    0  501    0  0.00000000000E+00  0.00000000000E+00  0.30873367932E+03  0.30873367932E+03  0.00000000000E+00 0.  1.
         -2   -1    0    0    0  501 -0.00000000000E+00 -0.00000000000E+00 -0.69099496723E+01  0.69099496723E+01  0.00000000000E+00 0. -1.
         23    2    1    2    0    0  0.00000000000E+00  0.00000000000E+00  0.30182372964E+03  0.31564362899E+03  0.92376061536E+02 0.  0.
        -11    1    3    3    0    0  0.34184913278E+02 -0.30200692181E+02  0.12611981905E+03  0.13411524470E+03  0.00000000000E+00 0.  1.
         11    1    3    3    0    0 -0.34184913278E+02  0.30200692181E+02  0.17570391059E+03  0.18152838428E+03  0.00000000000E+00 0. -1.
<mgrwt>
<rscale>  0 0.92376062E+02</rscale>
<asrwt>0</asrwt>
<pdfrwt beam="1">  1        2 0.47497478E-01 0.92376062E+02</pdfrwt>
<pdfrwt beam="2">  1       -2 0.10630694E-02 0.92376062E+02</pdfrwt>
<totfact> 0.17536159E+05</totfact>
</mgrwt>
</event>
<event>
 5    1  0.1227473E+001  0.9869107E+02  0.7546771E-02  0.1283073E+00
         -2   -1    0    0    0  501 -0.00000000000E+00  0.00000000000E+00  0.72267856980E+02  0.72267856980E+02  0.00000000000E+00 0.  1.
          2   -1    0    0  501    0  0.00000000000E+00 -0.00000000000E+00 -0.33693846318E+02  0.33693846318E+02  0.00000000000E+00 0. -1.
         23    2    1    2    0    0  0.00000000000E+00  0.00000000000E+00  0.38574010662E+02  0.10596170330E+03  0.98691074912E+02 0.  0.
        -13    1    3    3    0    0  0.31085557855E+01  0.36370627266E+02  0.54937014475E+02  0.65958784147E+02  0.00000000000E+00 0.  1.
         13    1    3    3    0    0 -0.31085557855E+01 -0.36370627266E+02 -0.16363003813E+02  0.40002919151E+02  0.00000000000E+00 0. -1.
<mgrwt>
<rscale>  0 0.98691075E+02</rscale>
<asrwt>0</asrwt>
<pdfrwt beam="2">  1        2 0.51836687E-02 0.98691075E+02</pdfrwt>
<pdfrwt beam="1">  1       -2 0.11118132E-01 0.98691075E+02</pdfrwt>
<totfact> 0.72117119E+04</totfact>
</mgrwt>
</event>
<event>
 5    1  0.1227473E+001  0.9421319E+02  0.7546771E-02  0.1292958E+00
         -2   -1    0    0    0  501 -0.00000000000E+00  0.00000000000E+00  0.43655199721E+02  0.43655199721E+02  0.00000000000E+00 0.  1.
          2   -1    0    0  501    0  0.00000000000E+00 -0.00000000000E+00 -0.50830863631E+02  0.50830863631E+02  0.00000000000E+00 0. -1.
         23    2    1    2    0    0  0.00000000000E+00  0.00000000000E+00 -0.71756639098E+01  0.94486063352E+02  0.94213194485E+02 0.  0.
        -11    1    3    3    0    0  0.44192003120E+02  0.15713147643E+02 -0.79817717471E+01  0.47576725705E+02  0.00000000000E+00 0. -1.
         11    1    3    3    0    0 -0.44192003120E+02 -0.15713147643E+02  0.80610783729E+00  0.46909337646E+02  0.00000000000E+00 0.  1.
<mgrwt>
<rscale>  0 0.94213194E+02</rscale>
<asrwt>0</asrwt>
<pdfrwt beam="2">  1        2 0.78201329E-02 0.94213194E+02</pdfrwt>
<pdfrwt beam="1">  1       -2 0.67161845E-02 0.94213194E+02</pdfrwt>
<totfact> 0.92431990E+04</totfact>
</mgrwt>
</event>
<event>
 5    1  0.1227473E+001  0.9274903E+02  0.7546771E-02  0.1296328E+00
         -3   -1    0    0    0  501 -0.00000000000E+00  0.00000000000E+00  0.10168036661E+02  0.10168036661E+02  0.00000000000E+00 0.  1.
          3   -1    0    0  501    0  0.00000000000E+00 -0.00000000000E+00 -0.21150550601E+03  0.21150550601E+03  0.00000000000E+00 0. -1.
         23    2    1    2    0    0  0.00000000000E+00  0.00000000000E+00 -0.20133746935E+03  0.22167354267E+03  0.92749032104E+02 0.  0.
        -11    1    3    3    0    0 -0.49138719707E+01 -0.44313734050E+02 -0.70178900058E+02  0.83144038731E+02  0.00000000000E+00 0.  1.
         11    1    3    3    0    0  0.49138719707E+01  0.44313734050E+02 -0.13115856929E+03  0.13852950394E+03  0.00000000000E+00 0. -1.
<mgrwt>
<rscale>  0 0.92749032E+02</rscale>
<asrwt>0</asrwt>
<pdfrwt beam="2">  1        3 0.32539306E-01 0.92749032E+02</pdfrwt>
<pdfrwt beam="1">  1       -3 0.15643134E-02 0.92749032E+02</pdfrwt>
<totfact> 0.26178396E+04</totfact>
</mgrwt>
</event>
<event>
 5    1  0.1227473E+001  0.9112286E+02  0.7546771E-02  0.1300155E+00
         -1   -1    0    0    0  501 -0.00000000000E+00  0.00000000000E+00  0.85431496425E+02  0.85431496425E+02  0.00000000000E+00 0.  1.
          1   -1    0    0  501    0  0.00000000000E+00 -0.00000000000E+00 -0.24298342122E+02  0.24298342122E+02  0.00000000000E+00 0. -1.
         23    2    1    2    0    0  0.00000000000E+00  0.00000000000E+00  0.61133154303E+02  0.10972983855E+03  0.91122856148E+02 0.  0.
        -13    1    3    3    0    0  0.54271592246E+01 -0.40620263417E+02  0.65917544817E+01  0.41507964109E+02  0.00000000000E+00 0. -1.
         13    1    3    3    0    0 -0.54271592246E+01  0.40620263417E+02  0.54541399821E+02  0.68221874438E+02  0.00000000000E+00 0.  1.
<mgrwt>
<rscale>  0 0.91122856E+02</rscale>
<asrwt>0</asrwt>
<pdfrwt beam="2">  1        1 0.37382065E-02 0.91122856E+02</pdfrwt>
<pdfrwt beam="1">  1       -1 0.13143307E-01 0.91122856E+02</pdfrwt>
<totfact> 0.83831095E+04</totfact>
</mgrwt>
</event>
<event>
 5    1  0.1227473E+001  0.8399251E+02  0.7546771E-02  0.1318088E+00
          1   -1    0    0  501    0  0.00000000000E+00  0.00000000000E+00  0.10275733787E+03  0.10275733787E+03  0.00000000000E+00 0.  1.
         -1   -1    0    0    0  501 -0.00000000000E+00 -0.00000000000E+00 -0.17163595636E+02  0.17163595636E+02  0.00000000000E+00 0. -1.
         23    2    1    2    0    0  0.00000000000E+00  0.00000000000E+00  0.85593742234E+02  0.11992093351E+03  0.83992509090E+02 0.  0.
        -13    1    3    3    0    0  0.40506640919E+02 -0.35758948593E+01  0.57778831410E+02  0.70653862893E+02  0.00000000000E+00 0.  1.
         13    1    3    3    0    0 -0.40506640919E+02  0.35758948593E+01  0.27814910824E+02  0.49267070613E+02  0.00000000000E+00 0. -1.
<mgrwt>
<rscale>  0 0.83992509E+02</rscale>
<asrwt>0</asrwt>
<pdfrwt beam="1">  1        1 0.15808821E-01 0.83992509E+02</pdfrwt>
<pdfrwt beam="2">  1       -1 0.26405532E-02 0.83992509E+02</pdfrwt>
<totfact> 0.13103692E+05</totfact>
</mgrwt>
</event>
<event>
 5    1  0.1227473E+001  0.5753110E+02  0.7546771E-02  0.1408495E+00
          3   -1    0    0  501    0  0.00000000000E+00  0.00000000000E+00  0.93733513962E+02  0.93733513962E+02  0.00000000000E+00 0. -1.
         -3   -1    0    0    0  501 -0.00000000000E+00 -0.00000000000E+00 -0.88277591030E+01  0.88277591030E+01  0.00000000000E+00 0.  1.
         23    2    1    2    0    0  0.00000000000E+00  0.00000000000E+00  0.84905754859E+02  0.10256127307E+03  0.57531100498E+02 0.  0.
        -11    1    3    3    0    0  0.77632847699E+01  0.27697078172E+02  0.42890101249E+02  0.51642593998E+02  0.00000000000E+00 0. -1.
         11    1    3    3    0    0 -0.77632847699E+01 -0.27697078172E+02  0.42015653610E+02  0.50918679067E+02  0.00000000000E+00 0.  1.
<mgrwt>
<rscale>  0 0.57531100E+02</rscale>
<asrwt>0</asrwt>
<pdfrwt beam="1">  1        3 0.14420540E-01 0.57531100E+02</pdfrwt>
<pdfrwt beam="2">  1       -3 0.13581169E-02 0.57531100E+02</pdfrwt>
<totfact> 0.11629651E+05</totfact>
</mgrwt>
</event>
<event>
 5    1  0.1227473E+001  0.9115872E+02  0.7546771E-02  0.1300070E+00
          2   -1    0    0  501    0  0.00000000000E+00  0.00000000000E+00  0.80929445637E+02  0.80929445637E+02  0.00000000000E+00 0. -1.
         -2   -1    0    0    0  501 -0.00000000000E+00 -0.00000000000E+00 -0.25670238395E+02  0.25670238395E+02  0.00000000000E+00 0.  1.
         23    2    1    2    0    0  0.00000000000E+00  0.00000000000E+00  0.55259207242E+02  0.10659968403E+03  0.91158722297E+02 0.  0.
        -13    1    3    3    0    0 -0.17145999384E+02 -0.41856312871E+02  0.34197131017E+02  0.56704320751E+02  0.00000000000E+00 0.  1.
         13    1    3    3    0    0  0.17145999384E+02  0.41856312871E+02  0.21062076224E+02  0.49895363281E+02  0.00000000000E+00 0. -1.
<mgrwt>
<rscale>  0 0.91158722E+02</rscale>
<asrwt>0</asrwt>
<pdfrwt beam="1">  1        2 0.12450684E-01 0.91158722E+02</pdfrwt>
<pdfrwt beam="2">  1       -2 0.39492675E-02 0.91158722E+02</pdfrwt>
<totfact> 0.11530009E+05</totfact>
</mgrwt>
</event>
<event>
 5    1  0.1227473E+001  0.9133782E+02  0.7546771E-02  0.1299644E+00
         -1   -1    0    0    0  501 -0.00000000000E+00  0.00000000000E+00  0.86652395981E+01  0.86652395981E+01  0.00000000000E+00 0.  1.
          1   -1    0    0  501    0  0.00000000000E+00 -0.00000000000E+00 -0.24069145616E+03  0.24069145616E+03  0.00000000000E+00 0. -1.
         23    2    1    2    0    0  0.00000000000E+00  0.00000000000E+00 -0.23202621657E+03  0.24935669576E+03  0.91337815539E+02 0.  0.
        -11    1    3    3    0    0 -0.45604781246E+02  0.93769611766E+00 -0.10992455444E+03  0.11901295314E+03  0.00000000000E+00 0.  1.
         11    1    3    3    0    0  0.45604781246E+02 -0.93769611766E+00 -0.12210166213E+03  0.13034374262E+03  0.00000000000E+00 0. -1.
<mgrwt>
<rscale>  0 0.91337816E+02</rscale>
<asrwt>0</asrwt>
<pdfrwt beam="2">  1        1 0.37029453E-01 0.91337816E+02</pdfrwt>
<pdfrwt beam="1">  1       -1 0.13331138E-02 0.91337816E+02</pdfrwt>
<totfact> 0.12218076E+05</totfact>
</mgrwt>
</event>
<event>
 5    1  0.1227473E+001  0.9044053E+02  0.7546771E-02  0.1301788E+00
         -4   -1    0    0    0  501 -0.00000000000E+00  0.00000000000E+00  0.50792568934E+02  0.50792568934E+02  0.00000000000E+00 0. -1.
          4   -1    0    0  501    0  0.00000000000E+00 -0.00000000000E+00 -0.40259279031E+02  0.40259279031E+02  0.00000000000E+00 0.  1.
         23    2    1    2    0    0  0.00000000000E+00  0.00000000000E+00  0.10533289903E+02  0.91051847965E+02  0.90440526434E+02 0.  0.
        -13    1    3    3    0    0 -0.34989715280E+02  0.27912876951E+02 -0.12160826602E+01  0.44775972709E+02  0.00000000000E+00 0.  1.
         13    1    3    3    0    0  0.34989715280E+02 -0.27912876951E+02  0.11749372563E+02  0.46275875255E+02  0.00000000000E+00 0. -1.
<mgrwt>
<rscale>  0 0.90440526E+02</rscale>
<asrwt>0</asrwt>
<pdfrwt beam="2">  1        4 0.61937352E-02 0.90440526E+02</pdfrwt>
<pdfrwt beam="1">  1       -4 0.78142414E-02 0.90440526E+02</pdfrwt>
<totfact> 0.27624937E+04</totfact>
</mgrwt>
</event>
<event>
 5    1  0.1227473E+001  0.9058345E+02  0.7546771E-02  0.1301445E+00
         -4   -1    0    0    0  501 -0.00000000000E+00  0.00000000000E+00  0.66127049288E+01  0.66127049288E+01  0.00000000000E+00 0.  1.
          4   -1    0    0  501    0  0.00000000000E+00 -0.00000000000E+00 -0.31021199442E+03  0.31021199442E+03  0.00000000000E+00 0. -1.
         23    2    1    2    0    0  0.00000000000E+00  0.00000000000E+00 -0.30359928949E+03  0.31682469934E+03  0.90583450684E+02 0.  0.
        -11    1    3    3    0    0 -0.10770089820E+02  0.43410765259E+02 -0.17674099490E+03  0.18231255759E+03  0.00000000000E+00 0. -1.
         11    1    3    3    0    0  0.10770089820E+02 -0.43410765259E+02 -0.12685829459E+03  0.13451214176E+03  0.00000000000E+00 0.  1.
<mgrwt>
<rscale>  0 0.90583451E+02</rscale>
<asrwt>0</asrwt>
<pdfrwt beam="2">  1        4 0.47724912E-01 0.90583451E+02</pdfrwt>
<pdfrwt beam="1">  1       -4 0.10173394E-02 0.90583451E+02</pdfrwt>
<totfact> 0.17621469E+04</totfact>
</mgrwt>
</event>
<event>
 5    1  0.1227473E+001  0.9030111E+02  0.7546771E-02  0.1302124E+00
          1   -1    0    0  501    0  0.00000000000E+00  0.00000000000E+00  0.35213092345E+02  0.35213092345E+02  0.00000000000E+00 0. -1.
         -1   -1    0    0    0  501 -0.00000000000E+00 -0.00000000000E+00 -0.57892459669E+02  0.57892459669E+02  0.00000000000E+00 0.  1.
         23    2    1    2    0    0  0.00000000000E+00  0.00000000000E+00 -0.22679367324E+02  0.93105552013E+02  0.90301108041E+02 0.  0.
        -11    1    3    3    0    0 -0.38864357624E+02  0.16843901427E+02  0.47796987942E+01  0.42626292700E+02  0.00000000000E+00 0. -1.
         11    1    3    3    0    0  0.38864357624E+02 -0.16843901427E+02 -0.27459066118E+02  0.50479259313E+02  0.00000000000E+00 0.  1.
<mgrwt>
<rscale>  0 0.90301108E+02</rscale>
<asrwt>0</asrwt>
<pdfrwt beam="1">  1        1 0.54173989E-02 0.90301108E+02</pdfrwt>
<pdfrwt beam="2">  1       -1 0.89065322E-02 0.90301108E+02</pdfrwt>
<totfact> 0.91378225E+04</totfact>
</mgrwt>
</event>
<event>
 5    1  0.1227473E+001  0.8962758E+02  0.7546771E-02  0.1303756E+00
         -2   -1    0    0    0  501 -0.00000000000E+00  0.00000000000E+00  0.10304150811E+02  0.10304150811E+02  0.00000000000E+00 0.  1.
          2   -1    0    0  501    0  0.00000000000E+00 -0.00000000000E+00 -0.19489968051E+03  0.19489968051E+03  0.00000000000E+00 0. -1.
         23    2    1    2    0    0  0.00000000000E+00  0.00000000000E+00 -0.18459552969E+03  0.20520383132E+03  0.89627578367E+02 0.  0.
        -11    1    3    3    0    0 -0.21724314283E+02 -0.38846644843E+02 -0.10425335114E+03  0.11335682101E+03  0.00000000000E+00 0. -1.
         11    1    3    3    0    0  0.21724314283E+02  0.38846644843E+02 -0.80342178556E+02  0.91847010303E+02  0.00000000000E+00 0.  1.
<mgrwt>
<rscale>  0 0.89627578E+02</rscale>
<asrwt>0</asrwt>
<pdfrwt beam="2">  1        2 0.29984561E-01 0.89627578E+02</pdfrwt>
<pdfrwt beam="1">  1       -2 0.15852543E-02 0.89627578E+02</pdfrwt>
<totfact> 0.16047332E+05</totfact>
</mgrwt>
</event>
<event>
 5    1  0.1227473E+001  0.9284308E+02  0.7546771E-02  0.1296109E+00
          1   -1    0    0  501    0  0.00000000000E+00  0.00000000000E+00  0.20746688494E+03  0.20746688494E+03  0.00000000000E+00 0. -1.
         -1   -1    0    0    0  501 -0.00000000000E+00 -0.00000000000E+00 -0.10387003479E+02  0.10387003479E+02  0.00000000000E+00 0.  1.
         23    2    1    2    0    0  0.00000000000E+00  0.00000000000E+00  0.19707988146E+03  0.21785388842E+03  0.92843077407E+02 0.  0.
        -11    1    3    3    0    0 -0.43869828056E+02 -0.15334635174E+01  0.63105388187E+02  0.76871342789E+02  0.00000000000E+00 0.  1.
         11    1    3    3    0    0  0.43869828056E+02  0.15334635174E+01  0.13397449327E+03  0.14098254563E+03  0.00000000000E+00 0. -1.
<mgrwt>
<rscale>  0 0.92843077E+02</rscale>
<asrwt>0</asrwt>
<pdfrwt beam="1">  1        1 0.31917979E-01 0.92843077E+02</pdfrwt>
<pdfrwt beam="2">  1       -1 0.15980007E-02 0.92843077E+02</pdfrwt>
<totfact> 0.11359277E+05</totfact>
</mgrwt>
</event>
<event>
 5    1  0.1227473E+001  0.9156357E+02  0.7546771E-02  0.1299109E+00
         -3   -1    0    0    0  501 -0.00000000000E+00  0.00000000000E+00  0.89555867025E+02  0.89555867025E+02  0.00000000000E+00 0.  1.
          3   -1    0    0  501    0  0.00000000000E+00 -0.00000000000E+00 -0.23404072103E+02  0.23404072103E+02  0.00000000000E+00 0. -1.
         23    2    1    2    0    0  0.00000000000E+00  0.00000000000E+00  0.66151794922E+02  0.11295993913E+03  0.91563572869E+02 0.  0.
        -13    1    3    3    0    0  0.82985323632E+01 -0.16324259832E+02  0.84840768347E+02  0.86794602782E+02  0.00000000000E+00 0.  1.
         13    1    3    3    0    0 -0.82985323632E+01  0.16324259832E+02 -0.18688973425E+02  0.26165336347E+02  0.00000000000E+00 0. -1.
<mgrwt>
<rscale>  0 0.91563573E+02</rscale>
<asrwt>0</asrwt>
<pdfrwt beam="2">  1        3 0.36006265E-02 0.91563573E+02</pdfrwt>
<pdfrwt beam="1">  1       -3 0.13777825E-01 0.91563573E+02</pdfrwt>
<totfact> 0.33350032E+04</totfact>
</mgrwt>
</event>
<event>
 5    1  0.1227473E+001  0.8921468E+02  0.7546771E-02  0.1304765E+00
          2   -1    0    0  501    0  0.00000000000E+00  0.00000000000E+00  0.14737126704E+03  0.14737126704E+03  0.00000000000E+00 0. -1.
         -2   -1    0    0    0  501 -0.00000000000E+00 -0.00000000000E+00 -0.13502053984E+02  0.13502053984E+02  0.00000000000E+00 0.  1.
         23    2    1    2    0    0  0.00000000000E+00  0.00000000000E+00  0.13386921306E+03  0.16087332102E+03  0.89214680479E+02 0.  0.
        -11    1    3    3    0    0  0.14995326166E+02 -0.36551277066E+02  0.29587611266E+02  0.49358711515E+02  0.00000000000E+00 0.  1.
         11    1    3    3    0    0 -0.14995326166E+02  0.36551277066E+02  0.10428160179E+03  0.11151460951E+03  0.00000000000E+00 0. -1.
<mgrwt>
<rscale>  0 0.89214680E+02</rscale>
<asrwt>0</asrwt>
<pdfrwt beam="1">  1        2 0.22672501E-01 0.89214680E+02</pdfrwt>
<pdfrwt beam="2">  1       -2 0.20772392E-02 0.89214680E+02</pdfrwt>
<totfact> 0.14741249E+05</totfact>
</mgrwt>
</event>
<event>
 5    1  0.1227473E+001  0.8813588E+02  0.7546771E-02  0.1307430E+00
          1   -1    0    0  501    0  0.00000000000E+00  0.00000000000E+00  0.59773829306E+01  0.59773829306E+01  0.00000000000E+00 0. -1.
         -1   -1    0    0    0  501 -0.00000000000E+00 -0.00000000000E+00 -0.32488857146E+03  0.32488857146E+03  0.00000000000E+00 0.  1.
         23    2    1    2    0    0  0.00000000000E+00  0.00000000000E+00 -0.31891118853E+03  0.33086595439E+03  0.88135881488E+02 0.  0.
        -13    1    3    3    0    0  0.10305262524E+02 -0.41352996541E+02 -0.11736430179E+03  0.12486251677E+03  0.00000000000E+00 0. -1.
         13    1    3    3    0    0 -0.10305262524E+02  0.41352996541E+02 -0.20154688674E+03  0.20600343762E+03  0.00000000000E+00 0.  1.
<mgrwt>
<rscale>  0 0.88135881E+02</rscale>
<asrwt>0</asrwt>
<pdfrwt beam="1">  1        1 0.91959723E-03 0.88135881E+02</pdfrwt>
<pdfrwt beam="2">  1       -1 0.49982865E-01 0.88135881E+02</pdfrwt>
<totfact> 0.64086864E+04</totfact>
</mgrwt>
</event>
<event>
 5    1  0.1227473E+001  0.9058028E+02  0.7546771E-02  0.1301453E+00
         -2   -1    0    0    0  501 -0.00000000000E+00  0.00000000000E+00  0.19833170810E+02  0.19833170810E+02  0.00000000000E+00 0.  1.
          2   -1    0    0  501    0  0.00000000000E+00 -0.00000000000E+00 -0.10342253740E+03  0.10342253740E+03  0.00000000000E+00 0. -1.
         23    2    1    2    0    0  0.00000000000E+00  0.00000000000E+00 -0.83589366590E+02  0.12325570821E+03  0.90580281515E+02 0.  0.
        -13    1    3    3    0    0 -0.28618764888E+02  0.19386302419E+02 -0.19752498231E+01  0.34623171967E+02  0.00000000000E+00 0.  1.
         13    1    3    3    0    0  0.28618764888E+02 -0.19386302419E+02 -0.81614116766E+02  0.88632536242E+02  0.00000000000E+00 0. -1.
<mgrwt>
<rscale>  0 0.90580282E+02</rscale>
<asrwt>0</asrwt>
<pdfrwt beam="2">  1        2 0.15911159E-01 0.90580282E+02</pdfrwt>
<pdfrwt beam="1">  1       -2 0.30512571E-02 0.90580282E+02</pdfrwt>
<totfact> 0.12620083E+05</totfact>
</mgrwt>
</event>
<event>
 5    1  0.1227473E+001  0.9141869E+02  0.7546771E-02  0.1299452E+00
         -3   -1    0    0    0  501 -0.00000000000E+00  0.00000000000E+00  0.10227336253E+03  0.10227336253E+03  0.00000000000E+00 0.  1.
          3   -1    0    0  501    0  0.00000000000E+00 -0.00000000000E+00 -0.20429015266E+02  0.20429015266E+02  0.00000000000E+00 0. -1.
         23    2    1    2    0    0  0.00000000000E+00  0.00000000000E+00  0.81844347260E+02  0.12270237779E+03  0.91418687025E+02 0.  0.
        -13    1    3    3    0    0 -0.18027624425E+02  0.10300997437E+01 -0.15438943513E+02  0.23757468819E+02  0.00000000000E+00 0. -1.
         13    1    3    3    0    0  0.18027624425E+02 -0.10300997437E+01  0.97283290773E+02  0.98944908972E+02  0.00000000000E+00 0.  1.
<mgrwt>
<rscale>  0 0.91418687E+02</rscale>
<asrwt>0</asrwt>
<pdfrwt beam="2">  1        3 0.31429255E-02 0.91418687E+02</pdfrwt>
<pdfrwt beam="1">  1       -3 0.15734363E-01 0.91418687E+02</pdfrwt>
<totfact> 0.32826786E+04</totfact>
</mgrwt>
</event>
<event>
 5    1  0.1227473E+001  0.8876013E+02  0.7546771E-02  0.1305882E+00
         -2   -1    0    0    0  501 -0.00000000000E+00  0.00000000000E+00  0.45867333278E+02  0.45867333278E+02  0.00000000000E+00 0.  1.
          2   -1    0    0  501    0  0.00000000000E+00 -0.00000000000E+00 -0.42941022407E+02  0.42941022407E+02  0.00000000000E+00 0. -1.
         23    2    1    2    0    0  0.00000000000E+00  0.00000000000E+00  0.29263108705E+01  0.88808355685E+02  0.88760130374E+02 0.  0.
        -11    1    3    3    0    0  0.23518567749E+02 -0.15958745949E+02 -0.32640339613E+02  0.43280438668E+02  0.00000000000E+00 0. -1.
         11    1    3    3    0    0 -0.23518567749E+02  0.15958745949E+02  0.35566650484E+02  0.45527917017E+02  0.00000000000E+00 0.  1.
<mgrwt>
<rscale>  0 0.88760130E+02</rscale>
<asrwt>0</asrwt>
<pdfrwt beam="2">  1        2 0.66063112E-02 0.88760130E+02</pdfrwt>
<pdfrwt beam="1">  1       -2 0.70565128E-02 0.88760130E+02</pdfrwt>
<totfact> 0.10494675E+05</totfact>
</mgrwt>
</event>
<event>
 5    1  0.1227473E+001  0.8537908E+02  0.7546771E-02  0.1314444E+00
         -1   -1    0    0    0  501 -0.00000000000E+00  0.00000000000E+00  0.95531976920E+02  0.95531976920E+02  0.00000000000E+00 0.  1.
          1   -1    0    0  501    0  0.00000000000E+00 -0.00000000000E+00 -0.19076300531E+02  0.19076300531E+02  0.00000000000E+00 0. -1.
         23    2    1    2    0    0  0.00000000000E+00  0.00000000000E+00  0.76455676389E+02  0.11460827745E+03  0.85379077109E+02 0.  0.
        -13    1    3    3    0    0 -0.29582370647E+02 -0.13353101793E+02  0.10040506453E+01  0.32471989441E+02  0.00000000000E+00 0. -1.
         13    1    3    3    0    0  0.29582370647E+02  0.13353101793E+02  0.75451625744E+02  0.82136288009E+02  0.00000000000E+00 0.  1.
<mgrwt>
<rscale>  0 0.85379077E+02</rscale>
<asrwt>0</asrwt>
<pdfrwt beam="2">  1        1 0.29348155E-02 0.85379077E+02</pdfrwt>
<pdfrwt beam="1">  1       -1 0.14697227E-01 0.85379077E+02</pdfrwt>
<totfact> 0.97135403E+04</totfact>
</mgrwt>
</event>
<event>
 5    1  0.1227473E+001  0.8849001E+02  0.7546771E-02  0.1306550E+00
         -2   -1    0    0    0  501 -0.00000000000E+00  0.00000000000E+00  0.16139062737E+02  0.16139062737E+02  0.00000000000E+00 0.  1.
          2   -1    0    0  501    0  0.00000000000E+00 -0.00000000000E+00 -0.12129704199E+03  0.12129704199E+03  0.00000000000E+00 0. -1.
         23    2    1    2    0    0  0.00000000000E+00  0.00000000000E+00 -0.10515797925E+03  0.13743610472E+03  0.88490012327E+02 0.  0.
        -13    1    3    3    0    0 -0.25415260405E+02  0.36047083025E+02 -0.58024442575E+02  0.72884590911E+02  0.00000000000E+00 0.  1.
         13    1    3    3    0    0  0.25415260405E+02 -0.36047083025E+02 -0.47133536674E+02  0.64551513812E+02  0.00000000000E+00 0. -1.
<mgrwt>
<rscale>  0 0.88490012E+02</rscale>
<asrwt>0</asrwt>
<pdfrwt beam="2">  1        2 0.18661084E-01 0.88490012E+02</pdfrwt>
<pdfrwt beam="1">  1       -2 0.24829327E-02 0.88490012E+02</pdfrwt>
<totfact> 0.14138011E+05</totfact>
</mgrwt>
</event>
<event>
 5    1  0.1227473E+001  0.9041553E+02  0.7546771E-02  0.1301849E+00
          3   -1    0    0  501    0  0.00000000000E+00  0.00000000000E+00  0.49697525632E+02  0.49697525632E+02  0.00000000000E+00 0. -1.
         -3   -1    0    0    0  501 -0.00000000000E+00 -0.00000000000E+00 -0.41123615242E+02  0.41123615242E+02  0.00000000000E+00 0.  1.
         23    2    1    2    0    0  0.00000000000E+00  0.00000000000E+00  0.85739103904E+01  0.90821140874E+02  0.90415527927E+02 0.  0.
        -11    1    3    3    0    0 -0.30903335292E+02  0.71366618710E+01 -0.28072371496E+02  0.42355709370E+02  0.00000000000E+00 0.  1.
         11    1    3    3    0    0  0.30903335292E+02 -0.71366618710E+01  0.36646281886E+02  0.48465431504E+02  0.00000000000E+00 0. -1.
<mgrwt>
<rscale>  0 0.90415528E+02</rscale>
<asrwt>0</asrwt>
<pdfrwt beam="1">  1        3 0.76457732E-02 0.90415528E+02</pdfrwt>
<pdfrwt beam="2">  1       -3 0.63267100E-02 0.90415528E+02</pdfrwt>
<totfact> 0.36182172E+04</totfact>
</mgrwt>
</event>
<event>
 5    1  0.1227473E+001  0.8394947E+02  0.7546771E-02  0.1318203E+00
         -3   -1    0    0    0  501 -0.00000000000E+00  0.00000000000E+00  0.72040868194E+01  0.72040868194E+01  0.00000000000E+00 0.  1.
          3   -1    0    0  501    0  0.00000000000E+00 -0.00000000000E+00 -0.24456653791E+03  0.24456653791E+03  0.00000000000E+00 0. -1.
         23    2    1    2    0    0  0.00000000000E+00  0.00000000000E+00 -0.23736245109E+03  0.25177062473E+03  0.83949474619E+02 0.  0.
        -11    1    3    3    0    0  0.37404091919E+01  0.36311331868E+02 -0.56536324999E+02  0.67296801762E+02  0.00000000000E+00 0.  1.
         11    1    3    3    0    0 -0.37404091919E+01 -0.36311331868E+02 -0.18082612609E+03  0.18447382297E+03  0.00000000000E+00 0. -1.
<mgrwt>
<rscale>  0 0.83949475E+02</rscale>
<asrwt>0</asrwt>
<pdfrwt beam="2">  1        3 0.37625622E-01 0.83949475E+02</pdfrwt>
<pdfrwt beam="1">  1       -3 0.11083210E-02 0.83949475E+02</pdfrwt>
<totfact> 0.32456243E+04</totfact>
</mgrwt>
</event>
<event>
 5    1  0.1227473E+001  0.8023852E+02  0.7546771E-02  0.1328376E+00
          1   -1    0    0  501    0  0.00000000000E+00  0.00000000000E+00  0.11049492075E+03  0.11049492075E+03  0.00000000000E+00 0. -1.
         -1   -1    0    0    0  501 -0.00000000000E+00 -0.00000000000E+00 -0.14566777007E+02  0.14566777007E+02  0.00000000000E+00 0.  1.
         23    2    1    2    0    0  0.00000000000E+00  0.00000000000E+00  0.95928143747E+02  0.12506169776E+03  0.80238516214E+02 0.  0.
        -11    1    3    3    0    0 -0.23758458533E+02 -0.32143680899E+02  0.53334951181E+02  0.66650563321E+02  0.00000000000E+00 0. -1.
         11    1    3    3    0    0  0.23758458533E+02  0.32143680899E+02  0.42593192566E+02  0.58411134440E+02  0.00000000000E+00 0.  1.
<mgrwt>
<rscale>  0 0.80238516E+02</rscale>
<asrwt>0</asrwt>
<pdfrwt beam="1">  1        1 0.16999218E-01 0.80238516E+02</pdfrwt>
<pdfrwt beam="2">  1       -1 0.22410427E-02 0.80238516E+02</pdfrwt>
<totfact> 0.14989443E+05</totfact>
</mgrwt>
</event>
<event>
 5    1  0.1227473E+001  0.9339706E+02  0.7546771E-02  0.1294828E+00
         -2   -1    0    0    0  501 -0.00000000000E+00  0.00000000000E+00  0.93565830718E+01  0.93565830718E+01  0.00000000000E+00 0.  1.
          2   -1    0    0  501    0  0.00000000000E+00 -0.00000000000E+00 -0.23307148808E+03  0.23307148808E+03  0.00000000000E+00 0. -1.
         23    2    1    2    0    0  0.00000000000E+00  0.00000000000E+00 -0.22371490501E+03  0.24242807115E+03  0.93397060765E+02 0.  0.
        -11    1    3    3    0    0  0.23043388442E+02  0.39293274104E+02 -0.85159411650E+02  0.96576832280E+02  0.00000000000E+00 0. -1.
         11    1    3    3    0    0 -0.23043388442E+02 -0.39293274104E+02 -0.13855549336E+03  0.14585123887E+03  0.00000000000E+00 0.  1.
<mgrwt>
<rscale>  0 0.93397061E+02</rscale>
<asrwt>0</asrwt>
<pdfrwt beam="2">  1        2 0.35857147E-01 0.93397061E+02</pdfrwt>
<pdfrwt beam="1">  1       -2 0.14394745E-02 0.93397061E+02</pdfrwt>
<totfact> 0.15332736E+05</totfact>
</mgrwt>
</event>
<event>
 5    1  0.1227473E+001  0.9105251E+02  0.7546771E-02  0.1300323E+00
          1   -1    0    0  501    0  0.00000000000E+00  0.00000000000E+00  0.58299807562E+01  0.58299807562E+01  0.00000000000E+00 0. -1.
         -1   -1    0    0    0  501 -0.00000000000E+00 -0.00000000000E+00 -0.35551405856E+03  0.35551405856E+03  0.00000000000E+00 0.  1.
         23    2    1    2    0    0  0.00000000000E+00  0.00000000000E+00 -0.34968407781E+03  0.36134403932E+03  0.91052514956E+02 0.  0.
        -13    1    3    3    0    0  0.40339303957E+02 -0.18786469003E+02 -0.21299960504E+03  0.21759830562E+03  0.00000000000E+00 0. -1.
         13    1    3    3    0    0 -0.40339303957E+02  0.18786469003E+02 -0.13668447277E+03  0.14374573370E+03  0.00000000000E+00 0.  1.
<mgrwt>
<rscale>  0 0.91052515E+02</rscale>
<asrwt>0</asrwt>
<pdfrwt beam="1">  1        1 0.89691967E-03 0.91052515E+02</pdfrwt>
<pdfrwt beam="2">  1       -1 0.54694498E-01 0.91052515E+02</pdfrwt>
<totfact> 0.56589917E+04</totfact>
</mgrwt>
</event>
<event>
 5    1  0.1227473E+001  0.9207268E+02  0.7546771E-02  0.1297909E+00
         -1   -1    0    0    0  501 -0.00000000000E+00  0.00000000000E+00  0.34472010740E+02  0.34472010740E+02  0.00000000000E+00 0.  1.
          1   -1    0    0  501    0  0.00000000000E+00 -0.00000000000E+00 -0.61480153056E+02  0.61480153056E+02  0.00000000000E+00 0. -1.
         23    2    1    2    0    0  0.00000000000E+00  0.00000000000E+00 -0.27008142316E+02  0.95952163796E+02  0.92072677737E+02 0.  0.
        -11    1    3    3    0    0  0.39901791010E+02 -0.22904895558E+02 -0.11837524809E+02  0.47506990643E+02  0.00000000000E+00 0. -1.
         11    1    3    3    0    0 -0.39901791010E+02  0.22904895558E+02 -0.15170617507E+02  0.48445173153E+02  0.00000000000E+00 0.  1.
<mgrwt>
<rscale>  0 0.92072678E+02</rscale>
<asrwt>0</asrwt>
<pdfrwt beam="2">  1        1 0.94584851E-02 0.92072678E+02</pdfrwt>
<pdfrwt beam="1">  1       -1 0.53033863E-02 0.92072678E+02</pdfrwt>
<totfact> 0.94137806E+04</totfact>
</mgrwt>
</event>
<event>
 5    1  0.1227473E+001  0.8844601E+02  0.7546771E-02  0.1306659E+00
         -2   -1    0    0    0  501 -0.00000000000E+00  0.00000000000E+00  0.75577384582E+02  0.75577384582E+02  0.00000000000E+00 0.  1.
          2   -1    0    0  501    0  0.00000000000E+00 -0.00000000000E+00 -0.25876448044E+02  0.25876448044E+02  0.00000000000E+00 0. -1.
         23    2    1    2    0    0  0.00000000000E+00  0.00000000000E+00  0.49700936538E+02  0.10145383263E+03  0.88446012130E+02 0.  0.
        -13    1    3    3    0    0 -0.31371484001E+02 -0.27055083835E+02  0.70976558775E+01  0.42030040313E+02  0.00000000000E+00 0. -1.
         13    1    3    3    0    0  0.31371484001E+02  0.27055083835E+02  0.42603280660E+02  0.59423792313E+02  0.00000000000E+00 0.  1.
<mgrwt>
<rscale>  0 0.88446012E+02</rscale>
<asrwt>0</asrwt>
<pdfrwt beam="2">  1        2 0.39809920E-02 0.88446012E+02</pdfrwt>
<pdfrwt beam="1">  1       -2 0.11627290E-01 0.88446012E+02</pdfrwt>
<totfact> 0.93091837E+04</totfact>
</mgrwt>
</event>
<event>
 5    1  0.1227473E+001  0.8937243E+02  0.7546771E-02  0.1304379E+00
         -2   -1    0    0    0  501 -0.00000000000E+00  0.00000000000E+00  0.23949166793E+02  0.23949166793E+02  0.00000000000E+00 0.  1.
          2   -1    0    0  501    0  0.00000000000E+00 -0.00000000000E+00 -0.83379014621E+02  0.83379014621E+02  0.00000000000E+00 0. -1.
         23    2    1    2    0    0  0.00000000000E+00  0.00000000000E+00 -0.59429847828E+02  0.10732818141E+03  0.89372432622E+02 0.  0.
        -11    1    3    3    0    0 -0.20323830858E+02  0.24606245307E+02 -0.67277332835E+02  0.74463178298E+02  0.00000000000E+00 0. -1.
         11    1    3    3    0    0  0.20323830858E+02 -0.24606245307E+02  0.78474850074E+01  0.32865003116E+02  0.00000000000E+00 0.  1.
<mgrwt>
<rscale>  0 0.89372433E+02</rscale>
<asrwt>0</asrwt>
<pdfrwt beam="2">  1        2 0.12827541E-01 0.89372433E+02</pdfrwt>
<pdfrwt beam="1">  1       -2 0.36844872E-02 0.89372433E+02</pdfrwt>
<totfact> 0.12284136E+05</totfact>
</mgrwt>
</event>
<event>
 5    1  0.1227473E+001  0.9061927E+02  0.7546771E-02  0.1301359E+00
         -2   -1    0    0    0  501 -0.00000000000E+00  0.00000000000E+00  0.22404885552E+02  0.22404885552E+02  0.00000000000E+00 0.  1.
          2   -1    0    0  501    0  0.00000000000E+00 -0.00000000000E+00 -0.91630158382E+02  0.91630158382E+02  0.00000000000E+00 0. -1.
         23    2    1    2    0    0  0.00000000000E+00  0.00000000000E+00 -0.69225272829E+02  0.11403504393E+03  0.90619274146E+02 0.  0.
        -13    1    3    3    0    0 -0.32109237099E+02 -0.27313875082E+02 -0.13709891946E+02  0.44328456055E+02  0.00000000000E+00 0.  1.
         13    1    3    3    0    0  0.32109237099E+02  0.27313875082E+02 -0.55515380883E+02  0.69706587879E+02  0.00000000000E+00 0. -1.
<mgrwt>
<rscale>  0 0.90619274E+02</rscale>
<asrwt>0</asrwt>
<pdfrwt beam="2">  1        2 0.14096948E-01 0.90619274E+02</pdfrwt>
<pdfrwt beam="1">  1       -2 0.34469054E-02 0.90619274E+02</pdfrwt>
<totfact> 0.12153288E+05</totfact>
</mgrwt>
</event>
<event>
 5    1  0.1227473E+001  0.8932929E+02  0.7546771E-02  0.1304484E+00
         -1   -1    0    0    0  501 -0.00000000000E+00  0.00000000000E+00  0.64247405697E+01  0.64247405697E+01  0.00000000000E+00 0.  1.
          1   -1    0    0  501    0  0.00000000000E+00 -0.00000000000E+00 -0.31050754964E+03  0.31050754964E+03  0.00000000000E+00 0. -1.
         23    2    1    2    0    0  0.00000000000E+00  0.00000000000E+00 -0.30408280907E+03  0.31693229021E+03  0.89329288621E+02 0.  0.
        -13    1    3    3    0    0 -0.31821857469E+02 -0.30765229723E+02 -0.17326979321E+03  0.17883386483E+03  0.00000000000E+00 0. -1.
         13    1    3    3    0    0  0.31821857469E+02  0.30765229723E+02 -0.13081301586E+03  0.13809842538E+03  0.00000000000E+00 0.  1.
<mgrwt>
<rscale>  0 0.89329289E+02</rscale>
<asrwt>0</asrwt>
<pdfrwt beam="2">  1        1 0.47770392E-01 0.89329289E+02</pdfrwt>
<pdfrwt beam="1">  1       -1 0.98842163E-03 0.89329289E+02</pdfrwt>
<totfact> 0.13617588E+05</totfact>
</mgrwt>
</event>
<event>
 5    1  0.1227473E+001  0.9167433E+02  0.7546771E-02  0.1298847E+00
          1   -1    0    0  501    0  0.00000000000E+00  0.00000000000E+00  0.47606067136E+02  0.47606067136E+02  0.00000000000E+00 0. -1.
         -1   -1    0    0    0  501 -0.00000000000E+00 -0.00000000000E+00 -0.44133986537E+02  0.44133986537E+02  0.00000000000E+00 0.  1.
         23    2    1    2    0    0  0.00000000000E+00  0.00000000000E+00  0.34720805988E+01  0.91740053672E+02  0.91674326309E+02 0.  0.
        -13    1    3    3    0    0 -0.12686644576E+02  0.43985917260E+02  0.40471675296E+01  0.45957495937E+02  0.00000000000E+00 0.  1.
         13    1    3    3    0    0  0.12686644576E+02 -0.43985917260E+02 -0.57508693076E+00  0.45782557735E+02  0.00000000000E+00 0. -1.
<mgrwt>
<rscale>  0 0.91674326E+02</rscale>
<asrwt>0</asrwt>
<pdfrwt beam="1">  1        1 0.73240103E-02 0.91674326E+02</pdfrwt>
<pdfrwt beam="2">  1       -1 0.67898441E-02 0.91674326E+02</pdfrwt>
<totfact> 0.91665863E+04</totfact>
</mgrwt>
</event>
<event>
 5    1  0.1227473E+001  0.9215748E+02  0.7546771E-02  0.1297710E+00
          1   -1    0    0  501    0  0.00000000000E+00  0.00000000000E+00  0.11826100705E+03  0.11826100705E+03  0.00000000000E+00 0. -1.
         -1   -1    0    0    0  501 -0.00000000000E+00 -0.00000000000E+00 -0.17953934382E+02  0.17953934382E+02  0.00000000000E+00 0.  1.
         23    2    1    2    0    0  0.00000000000E+00  0.00000000000E+00  0.10030707267E+03  0.13621494143E+03  0.92157481749E+02 0.  0.
        -13    1    3    3    0    0 -0.42063470684E+01 -0.45775930212E+02  0.45451234071E+02  0.64644750916E+02  0.00000000000E+00 0.  1.
         13    1    3    3    0    0  0.42063470684E+01  0.45775930212E+02  0.54855838596E+02  0.71570190516E+02  0.00000000000E+00 0. -1.
<mgrwt>
<rscale>  0 0.92157482E+02</rscale>
<asrwt>0</asrwt>
<pdfrwt beam="1">  1        1 0.18194001E-01 0.92157482E+02</pdfrwt>
<pdfrwt beam="2">  1       -1 0.27621438E-02 0.92157482E+02</pdfrwt>
<totfact> 0.10438723E+05</totfact>
</mgrwt>
</event>
<event>
 5    1  0.1227473E+001  0.9094419E+02  0.7546771E-02  0.1300581E+00
          2   -1    0    0  501    0  0.00000000000E+00  0.00000000000E+00  0.20170857958E+02  0.20170857958E+02  0.00000000000E+00 0. -1.
         -2   -1    0    0    0  501 -0.00000000000E+00 -0.00000000000E+00 -0.10250984215E+03  0.10250984215E+03  0.00000000000E+00 0.  1.
         23    2    1    2    0    0  0.00000000000E+00  0.00000000000E+00 -0.82338984189E+02  0.12268070010E+03  0.90944190914E+02 0.  0.
        -13    1    3    3    0    0 -0.32142252785E+02 -0.25502942669E+02 -0.67610170608E+02  0.79086406345E+02  0.00000000000E+00 0.  1.
         13    1    3    3    0    0  0.32142252785E+02  0.25502942669E+02 -0.14728813581E+02  0.43594293760E+02  0.00000000000E+00 0. -1.
<mgrwt>
<rscale>  0 0.90944191E+02</rscale>
<asrwt>0</asrwt>
<pdfrwt beam="1">  1        2 0.31032090E-02 0.90944191E+02</pdfrwt>
<pdfrwt beam="2">  1       -2 0.15770745E-01 0.90944191E+02</pdfrwt>
<totfact> 0.79721256E+04</totfact>
</mgrwt>
</event>
<event>
 5    1  0.1227473E+001  0.9182910E+02  0.7546771E-02  0.1298482E+00
         -1   -1    0    0    0  501 -0.00000000000E+00  0.00000000000E+00  0.12292135014E+02  0.12292135014E+02  0.00000000000E+00 0.  1.
          1   -1    0    0  501    0  0.00000000000E+00 -0.00000000000E+00 -0.17150363210E+03  0.17150363210E+03  0.00000000000E+00 0. -1.
         23    2    1    2    0    0  0.00000000000E+00  0.00000000000E+00 -0.15921149709E+03  0.18379576712E+03  0.91829097811E+02 0.  0.
        -11    1    3    3    0    0 -0.89437377459E+00 -0.42179744572E+02 -0.11586630210E+03  0.12330827514E+03  0.00000000000E+00 0.  1.
         11    1    3    3    0    0  0.89437377459E+00  0.42179744572E+02 -0.43345194992E+02  0.60487491976E+02  0.00000000000E+00 0. -1.
<mgrwt>
<rscale>  0 0.91829098E+02</rscale>
<asrwt>0</asrwt>
<pdfrwt beam="2">  1        1 0.26385175E-01 0.91829098E+02</pdfrwt>
<pdfrwt beam="1">  1       -1 0.18910976E-02 0.91829098E+02</pdfrwt>
<totfact> 0.11278018E+05</totfact>
</mgrwt>
</event>
<event>
 5    1  0.1227473E+001  0.8983252E+02  0.7546771E-02  0.1303258E+00
          1   -1    0    0  501    0  0.00000000000E+00  0.00000000000E+00  0.49880487785E+03  0.49880487785E+03  0.00000000000E+00 0. -1.
         -1   -1    0    0    0  501 -0.00000000000E+00 -0.00000000000E+00 -0.40446084550E+01  0.40446084550E+01  0.00000000000E+00 0.  1.
         23    2    1    2    0    0  0.00000000000E+00  0.00000000000E+00  0.49476026940E+03  0.50284948631E+03  0.89832520311E+02 0.  0.
        -11    1    3    3    0    0  0.17256103591E+02  0.41420837069E+02  0.23616868665E+03  0.24039365093E+03  0.00000000000E+00 0. -1.
         11    1    3    3    0    0 -0.17256103591E+02 -0.41420837069E+02  0.25859158275E+03  0.26245583538E+03  0.00000000000E+00 0.  1.
<mgrwt>
<rscale>  0 0.89832520E+02</rscale>
<asrwt>0</asrwt>
<pdfrwt beam="1">  1        1 0.76739163E-01 0.89832520E+02</pdfrwt>
<pdfrwt beam="2">  1       -1 0.62224785E-03 0.89832520E+02</pdfrwt>
<totfact> 0.14480922E+05</totfact>
</mgrwt>
</event>
<event>
 5    1  0.1227473E+001  0.9104741E+02  0.7546771E-02  0.1300335E+00
         -2   -1    0    0    0  501 -0.00000000000E+00  0.00000000000E+00  0.98411021363E+01  0.98411021363E+01  0.00000000000E+00 0. -1.
          2   -1    0    0  501    0  0.00000000000E+00 -0.00000000000E+00 -0.21058697407E+03  0.21058697407E+03  0.00000000000E+00 0.  1.
         23    2    1    2    0    0  0.00000000000E+00  0.00000000000E+00 -0.20074587194E+03  0.22042807621E+03  0.91047414471E+02 0.  0.
        -13    1    3    3    0    0 -0.12338686394E+02  0.38605360750E+02 -0.50181701124E+02  0.64504419913E+02  0.00000000000E+00 0.  1.
         13    1    3    3    0    0  0.12338686394E+02 -0.38605360750E+02 -0.15056417081E+03  0.15592365630E+03  0.00000000000E+00 0. -1.
<mgrwt>
<rscale>  0 0.91047414E+02</rscale>
<asrwt>0</asrwt>
<pdfrwt beam="2">  1        2 0.32397997E-01 0.91047414E+02</pdfrwt>
<pdfrwt beam="1">  1       -2 0.15140157E-02 0.91047414E+02</pdfrwt>
<totfact> 0.15820642E+05</totfact>
</mgrwt>
</event>
<event>
 5    1  0.1227473E+001  0.9053183E+02  0.7546771E-02  0.1301569E+00
          2   -1    0    0  501    0  0.00000000000E+00  0.00000000000E+00  0.67319671734E+02  0.67319671734E+02  0.00000000000E+00 0.  1.
         -2   -1    0    0    0  501 -0.00000000000E+00 -0.00000000000E+00 -0.30436915000E+02  0.30436915000E+02  0.00000000000E+00 0. -1.
         23    2    1    2    0    0  0.00000000000E+00  0.00000000000E+00  0.36882756734E+02  0.97756586734E+02  0.90531831450E+02 0.  0.
        -11    1    3    3    0    0  0.10346064255E+02 -0.11242331807E+02  0.64451297303E+02  0.66237457636E+02  0.00000000000E+00 0.  1.
         11    1    3    3    0    0 -0.10346064255E+02  0.11242331807E+02 -0.27568540569E+02  0.31519129099E+02  0.00000000000E+00 0. -1.
<mgrwt>
<rscale>  0 0.90531831E+02</rscale>
<asrwt>0</asrwt>
<pdfrwt beam="1">  1        2 0.10356873E-01 0.90531831E+02</pdfrwt>
<pdfrwt beam="2">  1       -2 0.46826023E-02 0.90531831E+02</pdfrwt>
<totfact> 0.11163183E+05</totfact>
</mgrwt>
</event>
<event>
 5    1  0.1227473E+001  0.9070619E+02  0.7546771E-02  0.1301151E+00
         -3   -1    0    0    0  501 -0.00000000000E+00  0.00000000000E+00  0.42854723970E+02  0.42854723970E+02  0.00000000000E+00 0.  1.
          3   -1    0    0  501    0  0.00000000000E+00 -0.00000000000E+00 -0.47997120157E+02  0.47997120157E+02  0.00000000000E+00 0. -1.
         23    2    1    2    0    0  0.00000000000E+00  0.00000000000E+00 -0.51423961878E+01  0.90851844127E+02  0.90706192417E+02 0.  0.
        -11    1    3    3    0    0 -0.18473533550E+02 -0.31887038505E+01  0.38792379677E+02  0.43084660786E+02  0.00000000000E+00 0.  1.
         11    1    3    3    0    0  0.18473533550E+02  0.31887038505E+01 -0.43934775864E+02  0.47767183341E+02  0.00000000000E+00 0. -1.
<mgrwt>
<rscale>  0 0.90706192E+02</rscale>
<asrwt>0</asrwt>
<pdfrwt beam="2">  1        3 0.73841724E-02 0.90706192E+02</pdfrwt>
<pdfrwt beam="1">  1       -3 0.65930344E-02 0.90706192E+02</pdfrwt>
<totfact> 0.35865351E+04</totfact>
</mgrwt>
</event>
<event>
 5    1  0.1227473E+001  0.9088211E+02  0.7546771E-02  0.1300729E+00
         -2   -1    0    0    0  501 -0.00000000000E+00  0.00000000000E+00  0.13369088511E+02  0.13369088511E+02  0.00000000000E+00 0.  1.
          2   -1    0    0  501    0  0.00000000000E+00 -0.00000000000E+00 -0.15445252238E+03  0.15445252238E+03  0.00000000000E+00 0. -1.
         23    2    1    2    0    0  0.00000000000E+00  0.00000000000E+00 -0.14108343387E+03  0.16782161090E+03  0.90882109186E+02 0.  0.
        -11    1    3    3    0    0 -0.40655251767E+02  0.13160855343E+01 -0.33137169116E+02  0.52465736957E+02  0.00000000000E+00 0.  1.
         11    1    3    3    0    0  0.40655251767E+02 -0.13160855343E+01 -0.10794626476E+03  0.11535587394E+03  0.00000000000E+00 0. -1.
<mgrwt>
<rscale>  0 0.90882109E+02</rscale>
<asrwt>0</asrwt>
<pdfrwt beam="2">  1        2 0.23761927E-01 0.90882109E+02</pdfrwt>
<pdfrwt beam="1">  1       -2 0.20567828E-02 0.90882109E+02</pdfrwt>
<totfact> 0.14245760E+05</totfact>
</mgrwt>
</event>
<event>
 5    1  0.1227473E+001  0.8874858E+02  0.7546771E-02  0.1305911E+00
         -4   -1    0    0    0  501 -0.00000000000E+00  0.00000000000E+00  0.59047370317E+02  0.59047370317E+02  0.00000000000E+00 0.  1.
          4   -1    0    0  501    0  0.00000000000E+00 -0.00000000000E+00 -0.33347421153E+02  0.33347421153E+02  0.00000000000E+00 0. -1.
         23    2    1    2    0    0  0.00000000000E+00  0.00000000000E+00  0.25699949164E+02  0.92394791471E+02  0.88748578039E+02 0.  0.
        -11    1    3    3    0    0 -0.39045969293E+02  0.12323947752E+02  0.30658614681E+02  0.51150934111E+02  0.00000000000E+00 0.  1.
         11    1    3    3    0    0  0.39045969293E+02 -0.12323947752E+02 -0.49586655167E+01  0.41243857360E+02  0.00000000000E+00 0. -1.
<mgrwt>
<rscale>  0 0.88748578E+02</rscale>
<asrwt>0</asrwt>
<pdfrwt beam="2">  1        4 0.51303725E-02 0.88748578E+02</pdfrwt>
<pdfrwt beam="1">  1       -4 0.90842108E-02 0.88748578E+02</pdfrwt>
<totfact> 0.28977785E+04</totfact>
</mgrwt>
</event>
<event>
 5    1  0.1227473E+001  0.9064199E+02  0.7546771E-02  0.1301304E+00
         -1   -1    0    0    0  501 -0.00000000000E+00  0.00000000000E+00  0.11168603918E+02  0.11168603918E+02  0.00000000000E+00 0.  1.
          1   -1    0    0  501    0  0.00000000000E+00 -0.00000000000E+00 -0.18390772947E+03  0.18390772947E+03  0.00000000000E+00 0. -1.
         23    2    1    2    0    0  0.00000000000E+00  0.00000000000E+00 -0.17273912555E+03  0.19507633339E+03  0.90641990004E+02 0.  0.
        -13    1    3    3    0    0 -0.38942966446E+02  0.17015178662E+02 -0.52482620960E+02  0.67531447810E+02  0.00000000000E+00 0.  1.
         13    1    3    3    0    0  0.38942966446E+02 -0.17015178662E+02 -0.12025650459E+03  0.12754488558E+03  0.00000000000E+00 0. -1.
<mgrwt>
<rscale>  0 0.90641990E+02</rscale>
<asrwt>0</asrwt>
<pdfrwt beam="2">  1        1 0.28293497E-01 0.90641990E+02</pdfrwt>
<pdfrwt beam="1">  1       -1 0.17182468E-02 0.90641990E+02</pdfrwt>
<totfact> 0.11835900E+05</totfact>
</mgrwt>
</event>
<event>
 5    1  0.1227473E+001  0.8754252E+02  0.7546771E-02  0.1308914E+00
          1   -1    0    0  501    0  0.00000000000E+00  0.00000000000E+00  0.67092719314E+02  0.67092719314E+02  0.00000000000E+00 0. -1.
         -1   -1    0    0    0  501 -0.00000000000E+00 -0.00000000000E+00 -0.28556350917E+02  0.28556350917E+02  0.00000000000E+00 0.  1.
         23    2    1    2    0    0  0.00000000000E+00  0.00000000000E+00  0.38536368397E+02  0.95649070232E+02  0.87542520794E+02 0.  0.
        -13    1    3    3    0    0  0.27357980319E+02  0.27605037207E+02  0.41267923821E+02  0.56688082547E+02  0.00000000000E+00 0. -1.
         13    1    3    3    0    0 -0.27357980319E+02 -0.27605037207E+02 -0.27315554238E+01  0.38960987685E+02  0.00000000000E+00 0.  1.
<mgrwt>
<rscale>  0 0.87542521E+02</rscale>
<asrwt>0</asrwt>
<pdfrwt beam="1">  1        1 0.10321957E-01 0.87542521E+02</pdfrwt>
<pdfrwt beam="2">  1       -1 0.43932848E-02 0.87542521E+02</pdfrwt>
<totfact> 0.10963461E+05</totfact>
</mgrwt>
</event>
<event>
 5    1  0.1227473E+001  0.9023836E+02  0.7546771E-02  0.1302275E+00
         -3   -1    0    0    0  501 -0.00000000000E+00  0.00000000000E+00  0.28417134006E+03  0.28417134006E+03  0.00000000000E+00 0.  1.
          3   -1    0    0  501    0  0.00000000000E+00 -0.00000000000E+00 -0.71637785039E+01  0.71637785039E+01  0.00000000000E+00 0. -1.
         23    2    1    2    0    0  0.00000000000E+00  0.00000000000E+00  0.27700756156E+03  0.29133511857E+03  0.90238362959E+02 0.  0.
        -11    1    3    3    0    0  0.39073515585E+02 -0.24897903552E+01  0.21089736338E+03  0.21450090106E+03  0.00000000000E+00 0.  1.
         11    1    3    3    0    0 -0.39073515585E+02  0.24897903552E+01  0.66110198179E+02  0.76834217504E+02  0.00000000000E+00 0. -1.
<mgrwt>
<rscale>  0 0.90238363E+02</rscale>
<asrwt>0</asrwt>
<pdfrwt beam="2">  1        3 0.11021200E-02 0.90238363E+02</pdfrwt>
<pdfrwt beam="1">  1       -3 0.43718659E-01 0.90238363E+02</pdfrwt>
<totfact> 0.25048381E+04</totfact>
</mgrwt>
</event>
<event>
 5    1  0.1227473E+001  0.8960190E+02  0.7546771E-02  0.1303819E+00
          2   -1    0    0  501    0  0.00000000000E+00  0.00000000000E+00  0.13311787651E+03  0.13311787651E+03  0.00000000000E+00 0.  1.
         -2   -1    0    0    0  501 -0.00000000000E+00 -0.00000000000E+00 -0.15077803325E+02  0.15077803325E+02  0.00000000000E+00 0. -1.
         23    2    1    2    0    0  0.00000000000E+00  0.00000000000E+00  0.11804007318E+03  0.14819567983E+03  0.89601900895E+02 0.  0.
        -11    1    3    3    0    0  0.37010786651E+02 -0.20316197972E+02  0.34234243117E+02  0.54355585089E+02  0.00000000000E+00 0. -1.
         11    1    3    3    0    0 -0.37010786651E+02  0.20316197972E+02  0.83805830064E+02  0.93840094742E+02  0.00000000000E+00 0.  1.
<mgrwt>
<rscale>  0 0.89601901E+02</rscale>
<asrwt>0</asrwt>
<pdfrwt beam="1">  1        2 0.20479672E-01 0.89601901E+02</pdfrwt>
<pdfrwt beam="2">  1       -2 0.23196621E-02 0.89601901E+02</pdfrwt>
<totfact> 0.14084209E+05</totfact>
</mgrwt>
</event>
<event>
 5    1  0.1227473E+001  0.9086071E+02  0.7546771E-02  0.1300781E+00
         -2   -1    0    0    0  501 -0.00000000000E+00  0.00000000000E+00  0.27119777162E+02  0.27119777162E+02  0.00000000000E+00 0.  1.
          2   -1    0    0  501    0  0.00000000000E+00 -0.00000000000E+00 -0.76103764953E+02  0.76103764953E+02  0.00000000000E+00 0. -1.
         23    2    1    2    0    0  0.00000000000E+00  0.00000000000E+00 -0.48983987791E+02  0.10322354212E+03  0.90860709808E+02 0.  0.
        -13    1    3    3    0    0  0.39008325392E+02  0.15770442399E+02 -0.43956872339E+02  0.60848688804E+02  0.00000000000E+00 0. -1.
         13    1    3    3    0    0 -0.39008325392E+02 -0.15770442399E+02 -0.50271154520E+01  0.42374853311E+02  0.00000000000E+00 0.  1.
<mgrwt>
<rscale>  0 0.90860710E+02</rscale>
<asrwt>0</asrwt>
<pdfrwt beam="2">  1        2 0.11708272E-01 0.90860710E+02</pdfrwt>
<pdfrwt beam="1">  1       -2 0.41722734E-02 0.90860710E+02</pdfrwt>
<totfact> 0.11433793E+05</totfact>
</mgrwt>
</event>
<event>
 5    1  0.1227473E+001  0.9514930E+02  0.7546771E-02  0.1290840E+00
          1   -1    0    0  501    0  0.00000000000E+00  0.00000000000E+00  0.46239376947E+02  0.46239376947E+02  0.00000000000E+00 0. -1.
         -1   -1    0    0    0  501 -0.00000000000E+00 -0.00000000000E+00 -0.48948479542E+02  0.48948479542E+02  0.00000000000E+00 0.  1.
         23    2    1    2    0    0  0.00000000000E+00  0.00000000000E+00 -0.27091025948E+01  0.95187856489E+02  0.95149297349E+02 0.  0.
        -13    1    3    3    0    0 -0.37762381840E+01  0.15616858038E+02 -0.46152168495E+02  0.48868894878E+02  0.00000000000E+00 0.  1.
         13    1    3    3    0    0  0.37762381840E+01 -0.15616858038E+02  0.43443065901E+02  0.46318961610E+02  0.00000000000E+00 0. -1.
<mgrwt>
<rscale>  0 0.95149297E+02</rscale>
<asrwt>0</asrwt>
<pdfrwt beam="1">  1        1 0.71137503E-02 0.95149297E+02</pdfrwt>
<pdfrwt beam="2">  1       -1 0.75305353E-02 0.95149297E+02</pdfrwt>
<totfact> 0.82178140E+04</totfact>
</mgrwt>
</event>
<event>
 5    1  0.1227473E+001  0.9019099E+02  0.7546771E-02  0.1302390E+00
          1   -1    0    0  501    0  0.00000000000E+00  0.00000000000E+00  0.66067274766E+01  0.66067274766E+01  0.00000000000E+00 0. -1.
         -1   -1    0    0    0  501 -0.00000000000E+00 -0.00000000000E+00 -0.30780799320E+03  0.30780799320E+03  0.00000000000E+00 0.  1.
         23    2    1    2    0    0  0.00000000000E+00  0.00000000000E+00 -0.30120126573E+03  0.31441472068E+03  0.90190986827E+02 0.  0.
        -11    1    3    3    0    0 -0.13123145849E+02 -0.37377375806E+02 -0.75482003548E+02  0.85245633546E+02  0.00000000000E+00 0. -1.
         11    1    3    3    0    0  0.13123145849E+02  0.37377375806E+02 -0.22571926218E+03  0.22916908713E+03  0.00000000000E+00 0.  1.
<mgrwt>
<rscale>  0 0.90190987E+02</rscale>
<asrwt>0</asrwt>
<pdfrwt beam="1">  1        1 0.10164196E-02 0.90190987E+02</pdfrwt>
<pdfrwt beam="2">  1       -1 0.47355074E-01 0.90190987E+02</pdfrwt>
<totfact> 0.61698449E+04</totfact>
</mgrwt>
</event>
<event>
 5    1  0.1227473E+001  0.9105915E+02  0.7546771E-02  0.1300307E+00
         -1   -1    0    0    0  501 -0.00000000000E+00  0.00000000000E+00  0.30323944283E+02  0.30323944283E+02  0.00000000000E+00 0.  1.
          1   -1    0    0  501    0  0.00000000000E+00 -0.00000000000E+00 -0.68359914762E+02  0.68359914762E+02  0.00000000000E+00 0. -1.
         23    2    1    2    0    0  0.00000000000E+00  0.00000000000E+00 -0.38035970479E+02  0.98683859046E+02  0.91059151028E+02 0.  0.
        -11    1    3    3    0    0  0.37847705747E+02  0.14306690595E+02 -0.41642127849E+02  0.58062010281E+02  0.00000000000E+00 0. -1.
         11    1    3    3    0    0 -0.37847705747E+02 -0.14306690595E+02  0.36061573698E+01  0.40621848765E+02  0.00000000000E+00 0.  1.
<mgrwt>
<rscale>  0 0.91059151E+02</rscale>
<asrwt>0</asrwt>
<pdfrwt beam="2">  1        1 0.10516910E-01 0.91059151E+02</pdfrwt>
<pdfrwt beam="1">  1       -1 0.46652223E-02 0.91059151E+02</pdfrwt>
<totfact> 0.98658654E+04</totfact>
</mgrwt>
</event>
<event>
 5    1  0.1227473E+001  0.9183696E+02  0.7546771E-02  0.1298463E+00
          2   -1    0    0  501    0  0.00000000000E+00  0.00000000000E+00  0.72730827338E+02  0.72730827338E+02  0.00000000000E+00 0. -1.
         -2   -1    0    0    0  501 -0.00000000000E+00 -0.00000000000E+00 -0.28990551363E+02  0.28990551363E+02  0.00000000000E+00 0.  1.
         23    2    1    2    0    0  0.00000000000E+00  0.00000000000E+00  0.43740275975E+02  0.10172137870E+03  0.91836959566E+02 0.  0.
        -13    1    3    3    0    0 -0.13678378462E+02  0.33582069657E+02 -0.93338546236E+01  0.37442947025E+02  0.00000000000E+00 0.  1.
         13    1    3    3    0    0  0.13678378462E+02 -0.33582069657E+02  0.53074130599E+02  0.64278431675E+02  0.00000000000E+00 0. -1.
<mgrwt>
<rscale>  0 0.91836960E+02</rscale>
<asrwt>0</asrwt>
<pdfrwt beam="1">  1        2 0.11189358E-01 0.91836960E+02</pdfrwt>
<pdfrwt beam="2">  1       -2 0.44600849E-02 0.91836960E+02</pdfrwt>
<totfact> 0.10957080E+05</totfact>
</mgrwt>
</event>
<event>
 5    1  0.1227473E+001  0.9343726E+02  0.7546771E-02  0.1294735E+00
          1   -1    0    0  501    0  0.00000000000E+00  0.00000000000E+00  0.18291844762E+03  0.18291844762E+03  0.00000000000E+00 0. -1.
         -1   -1    0    0    0  501 -0.00000000000E+00 -0.00000000000E+00 -0.11932258742E+02  0.11932258742E+02  0.00000000000E+00 0.  1.
         23    2    1    2    0    0  0.00000000000E+00  0.00000000000E+00  0.17098618888E+03  0.19485070637E+03  0.93437256933E+02 0.  0.
        -13    1    3    3    0    0  0.41343341243E+02  0.13298941413E+02  0.49585053010E+02  0.65915181786E+02  0.00000000000E+00 0.  1.
         13    1    3    3    0    0 -0.41343341243E+02 -0.13298941413E+02  0.12140113587E+03  0.12893552458E+03  0.00000000000E+00 0. -1.
<mgrwt>
<rscale>  0 0.93437257E+02</rscale>
<asrwt>0</asrwt>
<pdfrwt beam="1">  1        1 0.28141298E-01 0.93437257E+02</pdfrwt>
<pdfrwt beam="2">  1       -1 0.18357323E-02 0.93437257E+02</pdfrwt>
<totfact> 0.10895873E+05</totfact>
</mgrwt>
</event>
<event>
 5    1  0.1227473E+001  0.8616925E+02  0.7546771E-02  0.1312403E+00
         -3   -1    0    0    0  501 -0.00000000000E+00  0.00000000000E+00  0.14060211010E+02  0.14060211010E+02  0.00000000000E+00 0.  1.
          3   -1    0    0  501    0  0.00000000000E+00 -0.00000000000E+00 -0.13202397672E+03  0.13202397672E+03  0.00000000000E+00 0. -1.
         23    2    1    2    0    0  0.00000000000E+00  0.00000000000E+00 -0.11796376571E+03  0.14608418773E+03  0.86169251385E+02 0.  0.
        -11    1    3    3    0    0 -0.13800907473E+02  0.38670756079E+02 -0.36852149087E+02  0.55172215064E+02  0.00000000000E+00 0.  1.
         11    1    3    3    0    0  0.13800907473E+02 -0.38670756079E+02 -0.81111616624E+02  0.90911972666E+02  0.00000000000E+00 0. -1.
<mgrwt>
<rscale>  0 0.86169251E+02</rscale>
<asrwt>0</asrwt>
<pdfrwt beam="2">  1        3 0.20311381E-01 0.86169251E+02</pdfrwt>
<pdfrwt beam="1">  1       -3 0.21631094E-02 0.86169251E+02</pdfrwt>
<totfact> 0.36738322E+04</totfact>
</mgrwt>
</event>
<event>
 5    1  0.1227473E+001  0.9269690E+02  0.7546771E-02  0.1296449E+00
          1   -1    0    0  501    0  0.00000000000E+00  0.00000000000E+00  0.26936245108E+02  0.26936245108E+02  0.00000000000E+00 0. -1.
         -1   -1    0    0    0  501 -0.00000000000E+00 -0.00000000000E+00 -0.79750497291E+02  0.79750497291E+02  0.00000000000E+00 0.  1.
         23    2    1    2    0    0  0.00000000000E+00  0.00000000000E+00 -0.52814252183E+02  0.10668674240E+03  0.92696902700E+02 0.  0.
        -13    1    3    3    0    0 -0.39534546446E+02 -0.10641070925E+02 -0.14036336022E+01  0.40965631210E+02  0.00000000000E+00 0.  1.
         13    1    3    3    0    0  0.39534546446E+02  0.10641070925E+02 -0.51410618581E+02  0.65721111190E+02  0.00000000000E+00 0. -1.
<mgrwt>
<rscale>  0 0.92696903E+02</rscale>
<asrwt>0</asrwt>
<pdfrwt beam="1">  1        1 0.41440377E-02 0.92696903E+02</pdfrwt>
<pdfrwt beam="2">  1       -1 0.12269307E-01 0.92696903E+02</pdfrwt>
<totfact> 0.81181669E+04</totfact>
</mgrwt>
</event>
<event>
 5    1  0.1227473E+001  0.9107825E+02  0.7546771E-02  0.1300261E+00
          3   -1    0    0  501    0  0.00000000000E+00  0.00000000000E+00  0.12540330927E+02  0.12540330927E+02  0.00000000000E+00 0. -1.
         -3   -1    0    0    0  501 -0.00000000000E+00 -0.00000000000E+00 -0.16537137604E+03  0.16537137604E+03  0.00000000000E+00 0.  1.
         23    2    1    2    0    0  0.00000000000E+00  0.00000000000E+00 -0.15283104512E+03  0.17791170697E+03  0.91078247270E+02 0.  0.
        -13    1    3    3    0    0 -0.34302033591E+02 -0.62161951492E+01 -0.13365167483E+03  0.13812328108E+03  0.00000000000E+00 0.  1.
         13    1    3    3    0    0  0.34302033591E+02  0.62161951492E+01 -0.19179370288E+02  0.39788425896E+02  0.00000000000E+00 0. -1.
<mgrwt>
<rscale>  0 0.91078247E+02</rscale>
<asrwt>0</asrwt>
<pdfrwt beam="1">  1        3 0.19292819E-02 0.91078247E+02</pdfrwt>
<pdfrwt beam="2">  1       -3 0.25441748E-01 0.91078247E+02</pdfrwt>
<totfact> 0.29768539E+04</totfact>
</mgrwt>
</event>
<event>
 5    1  0.1227473E+001  0.8840689E+02  0.7546771E-02  0.1306756E+00
          1   -1    0    0  501    0  0.00000000000E+00  0.00000000000E+00  0.10189802151E+02  0.10189802151E+02  0.00000000000E+00 0. -1.
         -1   -1    0    0    0  501 -0.00000000000E+00 -0.00000000000E+00 -0.19175488867E+03  0.19175488867E+03  0.00000000000E+00 0.  1.
         23    2    1    2    0    0  0.00000000000E+00  0.00000000000E+00 -0.18156508652E+03  0.20194469082E+03  0.88406886088E+02 0.  0.
        -11    1    3    3    0    0 -0.12768216869E+02  0.42241659710E+02 -0.96632757612E+02  0.10623217507E+03  0.00000000000E+00 0. -1.
         11    1    3    3    0    0  0.12768216869E+02 -0.42241659710E+02 -0.84932328905E+02  0.95712515745E+02  0.00000000000E+00 0.  1.
<mgrwt>
<rscale>  0 0.88406886E+02</rscale>
<asrwt>0</asrwt>
<pdfrwt beam="1">  1        1 0.15676619E-02 0.88406886E+02</pdfrwt>
<pdfrwt beam="2">  1       -1 0.29500751E-01 0.88406886E+02</pdfrwt>
<totfact> 0.76120167E+04</totfact>
</mgrwt>
</event>
<event>
 5    1  0.1227473E+001  0.8425095E+02  0.7546771E-02  0.1317403E+00
         -1   -1    0    0    0  501 -0.00000000000E+00  0.00000000000E+00  0.92141511167E+02  0.92141511167E+02  0.00000000000E+00 0.  1.
          1   -1    0    0  501    0  0.00000000000E+00 -0.00000000000E+00 -0.19259022739E+02  0.19259022739E+02  0.00000000000E+00 0. -1.
         23    2    1    2    0    0  0.00000000000E+00  0.00000000000E+00  0.72882488428E+02  0.11140053391E+03  0.84250945602E+02 0.  0.
        -13    1    3    3    0    0  0.46969905393E+01  0.27508320549E+02  0.78166163471E+02  0.82998304389E+02  0.00000000000E+00 0.  1.
         13    1    3    3    0    0 -0.46969905393E+01 -0.27508320549E+02 -0.52836750429E+01  0.28402229517E+02  0.00000000000E+00 0. -1.
<mgrwt>
<rscale>  0 0.84250946E+02</rscale>
<asrwt>0</asrwt>
<pdfrwt beam="2">  1        1 0.29629266E-02 0.84250946E+02</pdfrwt>
<pdfrwt beam="1">  1       -1 0.14175617E-01 0.84250946E+02</pdfrwt>
<totfact> 0.10114646E+05</totfact>
</mgrwt>
</event>
<event>
 5    1  0.1227473E+001  0.8098200E+02  0.7546771E-02  0.1326288E+00
          2   -1    0    0  501    0  0.00000000000E+00  0.00000000000E+00  0.30721203301E+02  0.30721203301E+02  0.00000000000E+00 0. -1.
         -2   -1    0    0    0  501 -0.00000000000E+00 -0.00000000000E+00 -0.53367741099E+02  0.53367741099E+02  0.00000000000E+00 0.  1.
         23    2    1    2    0    0  0.00000000000E+00  0.00000000000E+00 -0.22646537797E+02  0.84088944400E+02  0.80982003532E+02 0.  0.
        -13    1    3    3    0    0  0.91792120854E+01  0.34003338659E+02 -0.32065552048E+02  0.47630710709E+02  0.00000000000E+00 0. -1.
         13    1    3    3    0    0 -0.91792120854E+01 -0.34003338659E+02  0.94190142514E+01  0.36458233691E+02  0.00000000000E+00 0.  1.
<mgrwt>
<rscale>  0 0.80982004E+02</rscale>
<asrwt>0</asrwt>
<pdfrwt beam="1">  1        2 0.47263390E-02 0.80982004E+02</pdfrwt>
<pdfrwt beam="2">  1       -2 0.82104217E-02 0.80982004E+02</pdfrwt>
<totfact> 0.12582563E+05</totfact>
</mgrwt>
</event>
<event>
 5    1  0.1227473E+001  0.9019065E+02  0.7546771E-02  0.1302391E+00
         -2   -1    0    0    0  501 -0.00000000000E+00  0.00000000000E+00  0.17578576034E+02  0.17578576034E+02  0.00000000000E+00 0.  1.
          2   -1    0    0  501    0  0.00000000000E+00 -0.00000000000E+00 -0.11568561178E+03  0.11568561178E+03  0.00000000000E+00 0. -1.
         23    2    1    2    0    0  0.00000000000E+00  0.00000000000E+00 -0.98107035745E+02  0.13326418781E+03  0.90190649686E+02 0.  0.
        -13    1    3    3    0    0  0.25691790451E+02  0.34804818908E+02 -0.67868484976E+02  0.80483381942E+02  0.00000000000E+00 0.  1.
         13    1    3    3    0    0 -0.25691790451E+02 -0.34804818908E+02 -0.30238550769E+02  0.52780805871E+02  0.00000000000E+00 0. -1.
<mgrwt>
<rscale>  0 0.90190650E+02</rscale>
<asrwt>0</asrwt>
<pdfrwt beam="2">  1        2 0.17797786E-01 0.90190650E+02</pdfrwt>
<pdfrwt beam="1">  1       -2 0.27043963E-02 0.90190650E+02</pdfrwt>
<totfact> 0.13223121E+05</totfact>
</mgrwt>
</event>
<event>
 5    1  0.1227473E+001  0.9244201E+02  0.7546771E-02  0.1297043E+00
         -1   -1    0    0    0  501 -0.00000000000E+00  0.00000000000E+00  0.33327066383E+02  0.33327066383E+02  0.00000000000E+00 0.  1.
          1   -1    0    0  501    0  0.00000000000E+00 -0.00000000000E+00 -0.64103488178E+02  0.64103488178E+02  0.00000000000E+00 0. -1.
         23    2    1    2    0    0  0.00000000000E+00  0.00000000000E+00 -0.30776421795E+02  0.97430554561E+02  0.92442007894E+02 0.  0.
        -11    1    3    3    0    0  0.27898221629E+02  0.36827978881E+02 -0.16790580252E+02  0.49158258550E+02  0.00000000000E+00 0.  1.
         11    1    3    3    0    0 -0.27898221629E+02 -0.36827978881E+02 -0.13985841543E+02  0.48272296011E+02  0.00000000000E+00 0. -1.
<mgrwt>
<rscale>  0 0.92442008E+02</rscale>
<asrwt>0</asrwt>
<pdfrwt beam="2">  1        1 0.98620750E-02 0.92442008E+02</pdfrwt>
<pdfrwt beam="1">  1       -1 0.51272411E-02 0.92442008E+02</pdfrwt>
<totfact> 0.93695648E+04</totfact>
</mgrwt>
</event>
<event>
 5    1  0.1227473E+001  0.9012521E+02  0.7546771E-02  0.1302549E+00
         -2   -1    0    0    0  501 -0.00000000000E+00  0.00000000000E+00  0.47358487518E+02  0.47358487518E+02  0.00000000000E+00 0.  1.
          2   -1    0    0  501    0  0.00000000000E+00 -0.00000000000E+00 -0.42878026534E+02  0.42878026534E+02  0.00000000000E+00 0. -1.
         23    2    1    2    0    0  0.00000000000E+00  0.00000000000E+00  0.44804609845E+01  0.90236514052E+02  0.90125212553E+02 0.  0.
        -13    1    3    3    0    0 -0.38807524460E+02  0.15952759252E+02 -0.14215516266E+02  0.44301189433E+02  0.00000000000E+00 0. -1.
         13    1    3    3    0    0  0.38807524460E+02 -0.15952759252E+02  0.18695977250E+02  0.45935324619E+02  0.00000000000E+00 0.  1.
<mgrwt>
<rscale>  0 0.90125213E+02</rscale>
<asrwt>0</asrwt>
<pdfrwt beam="2">  1        2 0.65966195E-02 0.90125213E+02</pdfrwt>
<pdfrwt beam="1">  1       -2 0.72859211E-02 0.90125213E+02</pdfrwt>
<totfact> 0.10041484E+05</totfact>
</mgrwt>
</event>
<event>
 5    1  0.1227473E+001  0.9129234E+02  0.7546771E-02  0.1299752E+00
          1   -1    0    0  501    0  0.00000000000E+00  0.00000000000E+00  0.30152942806E+02  0.30152942806E+02  0.00000000000E+00 0. -1.
         -1   -1    0    0    0  501 -0.00000000000E+00 -0.00000000000E+00 -0.69100146065E+02  0.69100146065E+02  0.00000000000E+00 0.  1.
         23    2    1    2    0    0  0.00000000000E+00  0.00000000000E+00 -0.38947203259E+02  0.99253088870E+02  0.91292338171E+02 0.  0.
        -11    1    3    3    0    0 -0.34216726885E+02  0.93048254732E+01  0.11776724244E+02  0.37363824881E+02  0.00000000000E+00 0. -1.
         11    1    3    3    0    0  0.34216726885E+02 -0.93048254732E+01 -0.50723927503E+02  0.61889263989E+02  0.00000000000E+00 0.  1.
<mgrwt>
<rscale>  0 0.91292338E+02</rscale>
<asrwt>0</asrwt>
<pdfrwt beam="1">  1        1 0.46389143E-02 0.91292338E+02</pdfrwt>
<pdfrwt beam="2">  1       -1 0.10630792E-01 0.91292338E+02</pdfrwt>
<totfact> 0.86440645E+04</totfact>
</mgrwt>
</event>
<event>
 5    1  0.1227473E+001  0.9911194E+02  0.7546771E-02  0.1282175E+00
         -2   -1    0    0    0  501 -0.00000000000E+00  0.00000000000E+00  0.10600556115E+02  0.10600556115E+02  0.00000000000E+00 0.  1.
          2   -1    0    0  501    0  0.00000000000E+00 -0.00000000000E+00 -0.23166655005E+03  0.23166655005E+03  0.00000000000E+00 0. -1.
         23    2    1    2    0    0  0.00000000000E+00  0.00000000000E+00 -0.22106599394E+03  0.24226710617E+03  0.99111942039E+02 0.  0.
        -13    1    3    3    0    0  0.15412881686E+02  0.44497029767E+02 -0.72803027383E+02  0.86705382625E+02  0.00000000000E+00 0.  1.
         13    1    3    3    0    0 -0.15412881686E+02 -0.44497029767E+02 -0.14826296655E+03  0.15556172354E+03  0.00000000000E+00 0. -1.
<mgrwt>
<rscale>  0 0.99111942E+02</rscale>
<asrwt>0</asrwt>
<pdfrwt beam="2">  1        2 0.35641006E-01 0.99111942E+02</pdfrwt>
<pdfrwt beam="1">  1       -2 0.16308549E-02 0.99111942E+02</pdfrwt>
<totfact> 0.13031071E+05</totfact>
</mgrwt>
</event>
<event>
 5    1  0.1227473E+001  0.1029468E+03  0.7546771E-02  0.1274218E+00
          1   -1    0    0  501    0  0.00000000000E+00  0.00000000000E+00  0.24281721946E+02  0.24281721946E+02  0.00000000000E+00 0. -1.
         -1   -1    0    0    0  501 -0.00000000000E+00 -0.00000000000E+00 -0.10911554407E+03  0.10911554407E+03  0.00000000000E+00 0.  1.
         23    2    1    2    0    0  0.00000000000E+00  0.00000000000E+00 -0.84833822120E+02  0.13339726601E+03  0.10294684650E+03 0.  0.
        -11    1    3    3    0    0  0.13641953841E+02  0.29536495738E+02 -0.94102535154E+02  0.99568040090E+02  0.00000000000E+00 0.  1.
         11    1    3    3    0    0 -0.13641953841E+02 -0.29536495738E+02  0.92687130341E+01  0.33829225921E+02  0.00000000000E+00 0. -1.
<mgrwt>
<rscale>  0 0.10294685E+03</rscale>
<asrwt>0</asrwt>
<pdfrwt beam="1">  1        1 0.37356494E-02 0.10294685E+03</pdfrwt>
<pdfrwt beam="2">  1       -1 0.16787007E-01 0.10294685E+03</pdfrwt>
<totfact> 0.58462325E+04</totfact>
</mgrwt>
</event>
<event>
 5    1  0.1227473E+001  0.9062037E+02  0.7546771E-02  0.1301356E+00
          1   -1    0    0  501    0  0.00000000000E+00  0.00000000000E+00  0.60162509699E+02  0.60162509699E+02  0.00000000000E+00 0. -1.
         -1   -1    0    0    0  501 -0.00000000000E+00 -0.00000000000E+00 -0.34124452527E+02  0.34124452527E+02  0.00000000000E+00 0.  1.
         23    2    1    2    0    0  0.00000000000E+00  0.00000000000E+00  0.26038057172E+02  0.94286962226E+02  0.90620366500E+02 0.  0.
        -13    1    3    3    0    0 -0.18479084082E+02 -0.61917921772E+00 -0.30020769212E+02  0.35257715687E+02  0.00000000000E+00 0.  1.
         13    1    3    3    0    0  0.18479084082E+02  0.61917921772E+00  0.56058826384E+02  0.59029246539E+02  0.00000000000E+00 0. -1.
<mgrwt>
<rscale>  0 0.90620366E+02</rscale>
<asrwt>0</asrwt>
<pdfrwt beam="1">  1        1 0.92557707E-02 0.90620366E+02</pdfrwt>
<pdfrwt beam="2">  1       -1 0.52499158E-02 0.90620366E+02</pdfrwt>
<totfact> 0.98060093E+04</totfact>
</mgrwt>
</event>
<event>
 5    1  0.1227473E+001  0.8954227E+02  0.7546771E-02  0.1303964E+00
         -1   -1    0    0    0  501 -0.00000000000E+00  0.00000000000E+00  0.16716727581E+03  0.16716727581E+03  0.00000000000E+00 0.  1.
          1   -1    0    0  501    0  0.00000000000E+00 -0.00000000000E+00 -0.11990711499E+02  0.11990711499E+02  0.00000000000E+00 0. -1.
         23    2    1    2    0    0  0.00000000000E+00  0.00000000000E+00  0.15517656431E+03  0.17915798731E+03  0.89542271051E+02 0.  0.
        -11    1    3    3    0    0  0.34741367647E+02  0.27719141619E+02  0.66787347844E+02  0.80223832308E+02  0.00000000000E+00 0. -1.
         11    1    3    3    0    0 -0.34741367647E+02 -0.27719141619E+02  0.88389216467E+02  0.98934155001E+02  0.00000000000E+00 0.  1.
<mgrwt>
<rscale>  0 0.89542271E+02</rscale>
<asrwt>0</asrwt>
<pdfrwt beam="2">  1        1 0.18447250E-02 0.89542271E+02</pdfrwt>
<pdfrwt beam="1">  1       -1 0.25718041E-01 0.89542271E+02</pdfrwt>
<totfact> 0.76350426E+04</totfact>
</mgrwt>
</event>
<event>
 5    1  0.1227473E+001  0.9008160E+02  0.7546771E-02  0.1302654E+00
         -2   -1    0    0    0  501 -0.00000000000E+00  0.00000000000E+00  0.11253412337E+02  0.11253412337E+02  0.00000000000E+00 0.  1.
          2   -1    0    0  501    0  0.00000000000E+00 -0.00000000000E+00 -0.18027186150E+03  0.18027186150E+03  0.00000000000E+00 0. -1.
         23    2    1    2    0    0  0.00000000000E+00  0.00000000000E+00 -0.16901844916E+03  0.19152527383E+03  0.90081598346E+02 0.  0.
        -13    1    3    3    0    0 -0.30610739609E+02 -0.30321439023E+02 -0.11241476786E+03  0.12038889931E+03  0.00000000000E+00 0. -1.
         13    1    3    3    0    0  0.30610739609E+02  0.30321439023E+02 -0.56603681302E+02  0.71136374526E+02  0.00000000000E+00 0.  1.
<mgrwt>
<rscale>  0 0.90081598E+02</rscale>
<asrwt>0</asrwt>
<pdfrwt beam="2">  1        2 0.27734131E-01 0.90081598E+02</pdfrwt>
<pdfrwt beam="1">  1       -2 0.17312943E-02 0.90081598E+02</pdfrwt>
<totfact> 0.15396176E+05</totfact>
</mgrwt>
</event>
<event>
 5    1  0.1227473E+001  0.9094922E+02  0.7546771E-02  0.1300569E+00
         -3   -1    0    0    0  501 -0.00000000000E+00  0.00000000000E+00  0.25504490821E+02  0.25504490821E+02  0.00000000000E+00 0.  1.
          3   -1    0    0  501    0  0.00000000000E+00 -0.00000000000E+00 -0.81081407978E+02  0.81081407978E+02  0.00000000000E+00 0. -1.
         23    2    1    2    0    0  0.00000000000E+00  0.00000000000E+00 -0.55576917157E+02  0.10658589880E+03  0.90949217161E+02 0.  0.
        -13    1    3    3    0    0  0.29014870763E+02 -0.31079722293E+02 -0.88870368164E+01  0.43437210852E+02  0.00000000000E+00 0.  1.
         13    1    3    3    0    0 -0.29014870763E+02  0.31079722293E+02 -0.46689880340E+02  0.63148687947E+02  0.00000000000E+00 0. -1.
<mgrwt>
<rscale>  0 0.90949217E+02</rscale>
<asrwt>0</asrwt>
<pdfrwt beam="2">  1        3 0.12474063E-01 0.90949217E+02</pdfrwt>
<pdfrwt beam="1">  1       -3 0.39237678E-02 0.90949217E+02</pdfrwt>
<totfact> 0.34422796E+04</totfact>
</mgrwt>
</event>
<event>
 5    1  0.1227473E+001  0.9082068E+02  0.7546771E-02  0.1300876E+00
         -3   -1    0    0    0  501 -0.00000000000E+00  0.00000000000E+00  0.59106802097E+02  0.59106802097E+02  0.00000000000E+00 0.  1.
          3   -1    0    0  501    0  0.00000000000E+00 -0.00000000000E+00 -0.34887676957E+02  0.34887676957E+02  0.00000000000E+00 0. -1.
         23    2    1    2    0    0  0.00000000000E+00  0.00000000000E+00  0.24219125140E+02  0.93994479055E+02  0.90820680851E+02 0.  0.
        -13    1    3    3    0    0  0.22707168760E+02 -0.31753830037E+02  0.36118916532E+02  0.53183619344E+02  0.00000000000E+00 0.  1.
         13    1    3    3    0    0 -0.22707168760E+02  0.31753830037E+02 -0.11899791392E+02  0.40810859710E+02  0.00000000000E+00 0. -1.
<mgrwt>
<rscale>  0 0.90820681E+02</rscale>
<asrwt>0</asrwt>
<pdfrwt beam="2">  1        3 0.53673349E-02 0.90820681E+02</pdfrwt>
<pdfrwt beam="1">  1       -3 0.90933542E-02 0.90820681E+02</pdfrwt>
<totfact> 0.35500069E+04</totfact>
</mgrwt>
</event>
<event>
 5    1  0.1227473E+001  0.9685982E+02  0.7546771E-02  0.1287041E+00
          1   -1    0    0  501    0  0.00000000000E+00  0.00000000000E+00  0.20058388292E+02  0.20058388292E+02  0.00000000000E+00 0. -1.
         -1   -1    0    0    0  501 -0.00000000000E+00 -0.00000000000E+00 -0.11693144498E+03  0.11693144498E+03  0.00000000000E+00 0.  1.
         23    2    1    2    0    0  0.00000000000E+00  0.00000000000E+00 -0.96873056686E+02  0.13698983327E+03  0.96859822980E+02 0.  0.
        -13    1    3    3    0    0 -0.17934271817E+01  0.19819774190E+02  0.14008373111E+02  0.24336687269E+02  0.00000000000E+00 0. -1.
         13    1    3    3    0    0  0.17934271817E+01 -0.19819774190E+02 -0.11088142980E+03  0.11265314600E+03  0.00000000000E+00 0.  1.
<mgrwt>
<rscale>  0 0.96859823E+02</rscale>
<asrwt>0</asrwt>
<pdfrwt beam="1">  1        1 0.30859059E-02 0.96859823E+02</pdfrwt>
<pdfrwt beam="2">  1       -1 0.17989453E-01 0.96859823E+02</pdfrwt>
<totfact> 0.67505900E+04</totfact>
</mgrwt>
</event>
<event>
 5    1  0.1227473E+001  0.9150585E+02  0.7546771E-02  0.1299245E+00
         -1   -1    0    0    0  501 -0.00000000000E+00  0.00000000000E+00  0.16657122480E+02  0.16657122480E+02  0.00000000000E+00 0.  1.
          1   -1    0    0  501    0  0.00000000000E+00 -0.00000000000E+00 -0.12567178616E+03  0.12567178616E+03  0.00000000000E+00 0. -1.
         23    2    1    2    0    0  0.00000000000E+00  0.00000000000E+00 -0.10901466368E+03  0.14232890864E+03  0.91505854117E+02 0.  0.
        -13    1    3    3    0    0  0.27307369963E+02 -0.52465996844E+01 -0.11102047686E+03  0.11444983855E+03  0.00000000000E+00 0. -1.
         13    1    3    3    0    0 -0.27307369963E+02  0.52465996844E+01  0.20058131787E+01  0.27879070089E+02  0.00000000000E+00 0.  1.
<mgrwt>
<rscale>  0 0.91505854E+02</rscale>
<asrwt>0</asrwt>
<pdfrwt beam="2">  1        1 0.19334121E-01 0.91505854E+02</pdfrwt>
<pdfrwt beam="1">  1       -1 0.25626342E-02 0.91505854E+02</pdfrwt>
<totfact> 0.10755794E+05</totfact>
</mgrwt>
</event>
<event>
 5    1  0.1227473E+001  0.9172811E+02  0.7546771E-02  0.1298720E+00
         -2   -1    0    0    0  501 -0.00000000000E+00  0.00000000000E+00  0.76380447732E+01  0.76380447732E+01  0.00000000000E+00 0.  1.
          2   -1    0    0  501    0  0.00000000000E+00 -0.00000000000E+00 -0.27539924102E+03  0.27539924102E+03  0.00000000000E+00 0. -1.
         23    2    1    2    0    0  0.00000000000E+00  0.00000000000E+00 -0.26776119625E+03  0.28303728579E+03  0.91728114195E+02 0.  0.
        -11    1    3    3    0    0 -0.38625152669E+01 -0.42074056093E+02 -0.78824570115E+02  0.89434099057E+02  0.00000000000E+00 0.  1.
         11    1    3    3    0    0  0.38625152669E+01  0.42074056093E+02 -0.18893662613E+03  0.19360318674E+03  0.00000000000E+00 0. -1.
<mgrwt>
<rscale>  0 0.91728114E+02</rscale>
<asrwt>0</asrwt>
<pdfrwt beam="2">  1        2 0.42369107E-01 0.91728114E+02</pdfrwt>
<pdfrwt beam="1">  1       -2 0.11750840E-02 0.91728114E+02</pdfrwt>
<totfact> 0.17123375E+05</totfact>
</mgrwt>
</event>
<event>
 5    1  0.1227473E+001  0.9199744E+02  0.7546771E-02  0.1298085E+00
         -2   -1    0    0    0  501 -0.00000000000E+00  0.00000000000E+00  0.16447736958E+02  0.16447736958E+02  0.00000000000E+00 0.  1.
          2   -1    0    0  501    0  0.00000000000E+00 -0.00000000000E+00 -0.12864276643E+03  0.12864276643E+03  0.00000000000E+00 0. -1.
         23    2    1    2    0    0  0.00000000000E+00  0.00000000000E+00 -0.11219502947E+03  0.14509050338E+03  0.91997443088E+02 0.  0.
        -13    1    3    3    0    0 -0.21698999676E+02  0.28475794688E+02 -0.10164759953E+03  0.10776804703E+03  0.00000000000E+00 0. -1.
         13    1    3    3    0    0  0.21698999676E+02 -0.28475794688E+02 -0.10547429938E+02  0.37322456355E+02  0.00000000000E+00 0.  1.
<mgrwt>
<rscale>  0 0.91997443E+02</rscale>
<asrwt>0</asrwt>
<pdfrwt beam="2">  1        2 0.19791195E-01 0.91997443E+02</pdfrwt>
<pdfrwt beam="1">  1       -2 0.25304211E-02 0.91997443E+02</pdfrwt>
<totfact> 0.12961182E+05</totfact>
</mgrwt>
</event>
<event>
 5    1  0.1227473E+001  0.9132425E+02  0.7546771E-02  0.1299676E+00
         -2   -1    0    0    0  501 -0.00000000000E+00  0.00000000000E+00  0.21555291004E+02  0.21555291004E+02  0.00000000000E+00 0.  1.
          2   -1    0    0  501    0  0.00000000000E+00 -0.00000000000E+00 -0.96729375871E+02  0.96729375871E+02  0.00000000000E+00 0. -1.
         23    2    1    2    0    0  0.00000000000E+00  0.00000000000E+00 -0.75174084868E+02  0.11828466688E+03  0.91324254074E+02 0.  0.
        -11    1    3    3    0    0 -0.16333434650E+02 -0.42972062322E+01 -0.92535102358E+02  0.94063766868E+02  0.00000000000E+00 0. -1.
         11    1    3    3    0    0  0.16333434650E+02  0.42972062322E+01  0.17361017491E+02  0.24220900008E+02  0.00000000000E+00 0.  1.
<mgrwt>
<rscale>  0 0.91324254E+02</rscale>
<asrwt>0</asrwt>
<pdfrwt beam="2">  1        2 0.14881443E-01 0.91324254E+02</pdfrwt>
<pdfrwt beam="1">  1       -2 0.33161986E-02 0.91324254E+02</pdfrwt>
<totfact> 0.12090575E+05</totfact>
</mgrwt>
</event>
<event>
 5    1  0.1227473E+001  0.9661509E+02  0.7546771E-02  0.1287579E+00
          2   -1    0    0  501    0  0.00000000000E+00  0.00000000000E+00  0.54720633410E+01  0.54720633410E+01  0.00000000000E+00 0. -1.
         -2   -1    0    0    0  501 -0.00000000000E+00 -0.00000000000E+00 -0.42646051901E+03  0.42646051901E+03  0.00000000000E+00 0.  1.
         23    2    1    2    0    0  0.00000000000E+00  0.00000000000E+00 -0.42098845567E+03  0.43193258235E+03  0.96615091419E+02 0.  0.
        -11    1    3    3    0    0 -0.33485562490E+02 -0.31873017979E+02 -0.27315467335E+03  0.27703907260E+03  0.00000000000E+00 0.  1.
         11    1    3    3    0    0  0.33485562490E+02  0.31873017979E+02 -0.14783378231E+03  0.15489350975E+03  0.00000000000E+00 0. -1.
<mgrwt>
<rscale>  0 0.96615091E+02</rscale>
<asrwt>0</asrwt>
<pdfrwt beam="1">  1        2 0.84185589E-03 0.96615091E+02</pdfrwt>
<pdfrwt beam="2">  1       -2 0.65609312E-01 0.96615091E+02</pdfrwt>
<totfact> 0.35149725E+04</totfact>
</mgrwt>
</event>
<event>
 5    1  0.1227473E+001  0.9352091E+02  0.7546771E-02  0.1294543E+00
         -1   -1    0    0    0  501 -0.00000000000E+00  0.00000000000E+00  0.12344194449E+03  0.12344194449E+03  0.00000000000E+00 0.  1.
          1   -1    0    0  501    0  0.00000000000E+00 -0.00000000000E+00 -0.17713106120E+02  0.17713106120E+02  0.00000000000E+00 0. -1.
         23    2    1    2    0    0  0.00000000000E+00  0.00000000000E+00  0.10572883837E+03  0.14115505061E+03  0.93520912367E+02 0.  0.
        -11    1    3    3    0    0  0.42225470560E+02  0.99659477446E+01  0.79190641936E+02  0.90296557236E+02  0.00000000000E+00 0.  1.
         11    1    3    3    0    0 -0.42225470560E+02 -0.99659477446E+01  0.26538196436E+02  0.50858493376E+02  0.00000000000E+00 0. -1.
<mgrwt>
<rscale>  0 0.93520912E+02</rscale>
<asrwt>0</asrwt>
<pdfrwt beam="2">  1        1 0.27250933E-02 0.93520912E+02</pdfrwt>
<pdfrwt beam="1">  1       -1 0.18991068E-01 0.93520912E+02</pdfrwt>
<totfact> 0.73105473E+04</totfact>
</mgrwt>
</event>
<event>
 5    1  0.1227473E+001  0.9087890E+02  0.7546771E-02  0.1300737E+00
         -3   -1    0    0    0  501 -0.00000000000E+00  0.00000000000E+00  0.25208719512E+02  0.25208719512E+02  0.00000000000E+00 0.  1.
          3   -1    0    0  501    0  0.00000000000E+00 -0.00000000000E+00 -0.81905933185E+02  0.81905933185E+02  0.00000000000E+00 0. -1.
         23    2    1    2    0    0  0.00000000000E+00  0.00000000000E+00 -0.56697213673E+02  0.10711465270E+03  0.90878901755E+02 0.  0.
        -11    1    3    3    0    0 -0.25633687614E+02  0.37004889299E+02 -0.35642545156E+02  0.57418105141E+02  0.00000000000E+00 0. -1.
         11    1    3    3    0    0  0.25633687614E+02 -0.37004889299E+02 -0.21054668517E+02  0.49696547557E+02  0.00000000000E+00 0.  1.
<mgrwt>
<rscale>  0 0.90878902E+02</rscale>
<asrwt>0</asrwt>
<pdfrwt beam="2">  1        3 0.12600913E-01 0.90878902E+02</pdfrwt>
<pdfrwt beam="1">  1       -3 0.38782646E-02 0.90878902E+02</pdfrwt>
<totfact> 0.34456669E+04</totfact>
</mgrwt>
</event>
<event>
 5    1  0.1227473E+001  0.9166267E+02  0.7546771E-02  0.1298875E+00
          1   -1    0    0  501    0  0.00000000000E+00  0.00000000000E+00  0.53818618924E+02  0.53818618924E+02  0.00000000000E+00 0. -1.
         -1   -1    0    0    0  501 -0.00000000000E+00 -0.00000000000E+00 -0.39029452984E+02  0.39029452984E+02  0.00000000000E+00 0.  1.
         23    2    1    2    0    0  0.00000000000E+00  0.00000000000E+00  0.14789165940E+02  0.92848071908E+02  0.91662669761E+02 0.  0.
        -11    1    3    3    0    0  0.14158307313E+02 -0.22513132536E+02  0.45203049333E+02  0.52446300838E+02  0.00000000000E+00 0. -1.
         11    1    3    3    0    0 -0.14158307313E+02  0.22513132536E+02 -0.30413883393E+02  0.40401771070E+02  0.00000000000E+00 0.  1.
<mgrwt>
<rscale>  0 0.91662670E+02</rscale>
<asrwt>0</asrwt>
<pdfrwt beam="1">  1        1 0.82797875E-02 0.91662670E+02</pdfrwt>
<pdfrwt beam="2">  1       -1 0.60045313E-02 0.91662670E+02</pdfrwt>
<totfact> 0.93410128E+04</totfact>
</mgrwt>
</event>
<event>
 5    1  0.1227473E+001  0.9110046E+02  0.7546771E-02  0.1300208E+00
          3   -1    0    0  501    0  0.00000000000E+00  0.00000000000E+00  0.11274017078E+02  0.11274017078E+02  0.00000000000E+00 0.  1.
         -3   -1    0    0    0  501 -0.00000000000E+00 -0.00000000000E+00 -0.18403586684E+03  0.18403586684E+03  0.00000000000E+00 0. -1.
         23    2    1    2    0    0  0.00000000000E+00  0.00000000000E+00 -0.17276184976E+03  0.19530988392E+03  0.91100461157E+02 0.  0.
        -11    1    3    3    0    0 -0.40699656930E+02  0.82416441555E+01 -0.46247293448E+02  0.62154637187E+02  0.00000000000E+00 0.  1.
         11    1    3    3    0    0  0.40699656930E+02 -0.82416441555E+01 -0.12651455631E+03  0.13315524673E+03  0.00000000000E+00 0. -1.
<mgrwt>
<rscale>  0 0.91100461E+02</rscale>
<asrwt>0</asrwt>
<pdfrwt beam="1">  1        3 0.17344642E-02 0.91100461E+02</pdfrwt>
<pdfrwt beam="2">  1       -3 0.28313210E-01 0.91100461E+02</pdfrwt>
<totfact> 0.28807053E+04</totfact>
</mgrwt>
</event>
<event>
 5    1  0.1227473E+001  0.9161754E+02  0.7546771E-02  0.1298981E+00
         -2   -1    0    0    0  501 -0.00000000000E+00  0.00000000000E+00  0.25915872044E+02  0.25915872044E+02  0.00000000000E+00 0.  1.
          2   -1    0    0  501    0  0.00000000000E+00 -0.00000000000E+00 -0.80971364008E+02  0.80971364008E+02  0.00000000000E+00 0. -1.
         23    2    1    2    0    0  0.00000000000E+00  0.00000000000E+00 -0.55055491964E+02  0.10688723605E+03  0.91617542182E+02 0.  0.
        -11    1    3    3    0    0 -0.19881920140E+02 -0.90341526773E+01  0.19451995317E+02  0.29245286541E+02  0.00000000000E+00 0.  1.
         11    1    3    3    0    0  0.19881920140E+02  0.90341526773E+01 -0.74507487281E+02  0.77641949512E+02  0.00000000000E+00 0. -1.
<mgrwt>
<rscale>  0 0.91617542E+02</rscale>
<asrwt>0</asrwt>
<pdfrwt beam="2">  1        2 0.12457133E-01 0.91617542E+02</pdfrwt>
<pdfrwt beam="1">  1       -2 0.39870573E-02 0.91617542E+02</pdfrwt>
<totfact> 0.11371810E+05</totfact>
</mgrwt>
</event>
<event>
 5    1  0.1227473E+001  0.9134294E+02  0.7546771E-02  0.1299632E+00
          1   -1    0    0  501    0  0.00000000000E+00  0.00000000000E+00  0.24385551555E+03  0.24385551555E+03  0.00000000000E+00 0. -1.
         -1   -1    0    0    0  501 -0.00000000000E+00 -0.00000000000E+00 -0.85537665226E+01  0.85537665226E+01  0.00000000000E+00 0.  1.
         23    2    1    2    0    0  0.00000000000E+00  0.00000000000E+00  0.23530174903E+03  0.25240928208E+03  0.91342939416E+02 0.  0.
        -13    1    3    3    0    0 -0.71960450377E+01  0.35222264769E+02  0.39811084695E+02  0.53640595301E+02  0.00000000000E+00 0.  1.
         13    1    3    3    0    0  0.71960450377E+01 -0.35222264769E+02  0.19549066434E+03  0.19876868678E+03  0.00000000000E+00 0. -1.
<mgrwt>
<rscale>  0 0.91342939E+02</rscale>
<asrwt>0</asrwt>
<pdfrwt beam="1">  1        1 0.37516228E-01 0.91342939E+02</pdfrwt>
<pdfrwt beam="2">  1       -1 0.13159643E-02 0.91342939E+02</pdfrwt>
<totfact> 0.12247408E+05</totfact>
</mgrwt>
</event>
<event>
 5    1  0.1227473E+001  0.9180286E+02  0.7546771E-02  0.1298544E+00
          1   -1    0    0  501    0  0.00000000000E+00  0.00000000000E+00  0.46984622675E+03  0.46984622675E+03  0.00000000000E+00 0. -1.
         -1   -1    0    0    0  501 -0.00000000000E+00 -0.00000000000E+00 -0.44843210859E+01  0.44843210859E+01  0.00000000000E+00 0.  1.
         23    2    1    2    0    0  0.00000000000E+00  0.00000000000E+00  0.46536190567E+03  0.47433054784E+03  0.91802861432E+02 0.  0.
        -13    1    3    3    0    0 -0.82982471829E+01  0.44639144825E+02  0.19785662131E+03  0.20299940087E+03  0.00000000000E+00 0.  1.
         13    1    3    3    0    0  0.82982471829E+01 -0.44639144825E+02  0.26750528436E+03  0.27133114697E+03  0.00000000000E+00 0. -1.
<mgrwt>
<rscale>  0 0.91802861E+02</rscale>
<asrwt>0</asrwt>
<pdfrwt beam="1">  1        1 0.72283996E-01 0.91802861E+02</pdfrwt>
<pdfrwt beam="2">  1       -1 0.68989592E-03 0.91802861E+02</pdfrwt>
<totfact> 0.13569274E+05</totfact>
</mgrwt>
</event>
<event>
 5    1  0.1227473E+001  0.8357618E+02  0.7546771E-02  0.1319199E+00
          1   -1    0    0  501    0  0.00000000000E+00  0.00000000000E+00  0.11714710784E+02  0.11714710784E+02  0.00000000000E+00 0. -1.
         -1   -1    0    0    0  501 -0.00000000000E+00 -0.00000000000E+00 -0.14906423669E+03  0.14906423669E+03  0.00000000000E+00 0.  1.
         23    2    1    2    0    0  0.00000000000E+00  0.00000000000E+00 -0.13734952590E+03  0.16077894747E+03  0.83576178928E+02 0.  0.
        -13    1    3    3    0    0  0.33441188662E+02  0.11585536130E+02 -0.11141935426E+03  0.11690513355E+03  0.00000000000E+00 0.  1.
         13    1    3    3    0    0 -0.33441188662E+02 -0.11585536130E+02 -0.25930171640E+02  0.43873813919E+02  0.00000000000E+00 0. -1.
<mgrwt>
<rscale>  0 0.83576179E+02</rscale>
<asrwt>0</asrwt>
<pdfrwt beam="1">  1        1 0.18022633E-02 0.83576179E+02</pdfrwt>
<pdfrwt beam="2">  1       -1 0.22932958E-01 0.83576179E+02</pdfrwt>
<totfact> 0.93817736E+04</totfact>
</mgrwt>
</event>
<event>
 5    1  0.1227473E+001  0.9096441E+02  0.7546771E-02  0.1300533E+00
         -2   -1    0    0    0  501 -0.00000000000E+00  0.00000000000E+00  0.38905153801E+02  0.38905153801E+02  0.00000000000E+00 0.  1.
          2   -1    0    0  501    0  0.00000000000E+00 -0.00000000000E+00 -0.53171127602E+02  0.53171127602E+02  0.00000000000E+00 0. -1.
         23    2    1    2    0    0  0.00000000000E+00  0.00000000000E+00 -0.14265973801E+02  0.92076281404E+02  0.90964408362E+02 0.  0.
        -13    1    3    3    0    0  0.23081210002E+02  0.14045411077E+02 -0.44167285791E+02  0.51776104156E+02  0.00000000000E+00 0. -1.
         13    1    3    3    0    0 -0.23081210002E+02 -0.14045411077E+02  0.29901311990E+02  0.40300177248E+02  0.00000000000E+00 0.  1.
<mgrwt>
<rscale>  0 0.90964408E+02</rscale>
<asrwt>0</asrwt>
<pdfrwt beam="2">  1        2 0.81801735E-02 0.90964408E+02</pdfrwt>
<pdfrwt beam="1">  1       -2 0.59854083E-02 0.90964408E+02</pdfrwt>
<totfact> 0.10340359E+05</totfact>
</mgrwt>
</event>
<event>
 5    1  0.1227473E+001  0.9247924E+02  0.7546771E-02  0.1296957E+00
          1   -1    0    0  501    0  0.00000000000E+00  0.00000000000E+00  0.42264229657E+02  0.42264229657E+02  0.00000000000E+00 0. -1.
         -1   -1    0    0    0  501 -0.00000000000E+00 -0.00000000000E+00 -0.50588942238E+02  0.50588942238E+02  0.00000000000E+00 0.  1.
         23    2    1    2    0    0  0.00000000000E+00  0.00000000000E+00 -0.83247125816E+01  0.92853171895E+02  0.92479244652E+02 0.  0.
        -11    1    3    3    0    0  0.43573567546E+02 -0.28900348525E+01  0.11100905479E+02  0.45058164550E+02  0.00000000000E+00 0. -1.
         11    1    3    3    0    0 -0.43573567546E+02  0.28900348525E+01 -0.19425618060E+02  0.47795007346E+02  0.00000000000E+00 0.  1.
<mgrwt>
<rscale>  0 0.92479245E+02</rscale>
<asrwt>0</asrwt>
<pdfrwt beam="1">  1        1 0.65021892E-02 0.92479245E+02</pdfrwt>
<pdfrwt beam="2">  1       -1 0.77829141E-02 0.92479245E+02</pdfrwt>
<totfact> 0.87834816E+04</totfact>
</mgrwt>
</event>
<event>
 5    1  0.1227473E+001  0.8632699E+02  0.7546771E-02  0.1311998E+00
         -1   -1    0    0    0  501 -0.00000000000E+00  0.00000000000E+00  0.23359334575E+02  0.23359334575E+02  0.00000000000E+00 0.  1.
          1   -1    0    0  501    0  0.00000000000E+00 -0.00000000000E+00 -0.79757726551E+02  0.79757726551E+02  0.00000000000E+00 0. -1.
         23    2    1    2    0    0  0.00000000000E+00  0.00000000000E+00 -0.56398391976E+02  0.10311706113E+03  0.86326992753E+02 0.  0.
        -13    1    3    3    0    0 -0.43090707236E+02 -0.24918049219E+01 -0.28513594394E+02  0.51730486244E+02  0.00000000000E+00 0. -1.
         13    1    3    3    0    0  0.43090707236E+02  0.24918049219E+01 -0.27884797583E+02  0.51386574882E+02  0.00000000000E+00 0.  1.
<mgrwt>
<rscale>  0 0.86326993E+02</rscale>
<asrwt>0</asrwt>
<pdfrwt beam="2">  1        1 0.12270419E-01 0.86326993E+02</pdfrwt>
<pdfrwt beam="1">  1       -1 0.35937438E-02 0.86326993E+02</pdfrwt>
<totfact> 0.11691733E+05</totfact>
</mgrwt>
</event>
<event>
 5    1  0.1227473E+001  0.9360568E+02  0.7546771E-02  0.1294348E+00
         -2   -1    0    0    0  501 -0.00000000000E+00  0.00000000000E+00  0.10728358841E+03  0.10728358841E+03  0.00000000000E+00 0.  1.
          2   -1    0    0  501    0  0.00000000000E+00 -0.00000000000E+00 -0.20417902356E+02  0.20417902356E+02  0.00000000000E+00 0. -1.
         23    2    1    2    0    0  0.00000000000E+00  0.00000000000E+00  0.86865686050E+02  0.12770149076E+03  0.93605680009E+02 0.  0.
        -11    1    3    3    0    0  0.75261405898E+01 -0.44035813380E+02  0.62469386458E+02  0.76799869119E+02  0.00000000000E+00 0.  1.
         11    1    3    3    0    0 -0.75261405898E+01  0.44035813380E+02  0.24396299592E+02  0.50901621644E+02  0.00000000000E+00 0. -1.
<mgrwt>
<rscale>  0 0.93605680E+02</rscale>
<asrwt>0</asrwt>
<pdfrwt beam="2">  1        2 0.31412158E-02 0.93605680E+02</pdfrwt>
<pdfrwt beam="1">  1       -2 0.16505167E-01 0.93605680E+02</pdfrwt>
<totfact> 0.73158268E+04</totfact>
</mgrwt>
</event>
<event>
 5    1  0.1227473E+001  0.9511226E+02  0.7546771E-02  0.1290923E+00
          2   -1    0    0  501    0  0.00000000000E+00  0.00000000000E+00  0.33212772415E+03  0.33212772415E+03  0.00000000000E+00 0.  1.
         -2   -1    0    0    0  501 -0.00000000000E+00 -0.00000000000E+00 -0.68093845515E+01  0.68093845515E+01  0.00000000000E+00 0. -1.
         23    2    1    2    0    0  0.00000000000E+00  0.00000000000E+00  0.32531833960E+03  0.33893710870E+03  0.95112257758E+02 0.  0.
        -11    1    3    3    0    0 -0.13324612611E+02  0.42312253098E+02  0.22373149545E+03  0.22808694421E+03  0.00000000000E+00 0.  1.
         11    1    3    3    0    0  0.13324612611E+02 -0.42312253098E+02  0.10158684415E+03  0.11085016449E+03  0.00000000000E+00 0. -1.
<mgrwt>
<rscale>  0 0.95112258E+02</rscale>
<asrwt>0</asrwt>
<pdfrwt beam="1">  1        2 0.51096560E-01 0.95112258E+02</pdfrwt>
<pdfrwt beam="2">  1       -2 0.10475979E-02 0.95112258E+02</pdfrwt>
<totfact> 0.16665737E+05</totfact>
</mgrwt>
</event>
<event>
 5    1  0.1227473E+001  0.9313573E+02  0.7546771E-02  0.1295431E+00
          1   -1    0    0  501    0  0.00000000000E+00  0.00000000000E+00  0.53203824094E+02  0.53203824094E+02  0.00000000000E+00 0. -1.
         -1   -1    0    0    0  501 -0.00000000000E+00 -0.00000000000E+00 -0.40759585642E+02  0.40759585642E+02  0.00000000000E+00 0.  1.
         23    2    1    2    0    0  0.00000000000E+00  0.00000000000E+00  0.12444238452E+02  0.93963409737E+02  0.93135725147E+02 0.  0.
        -11    1    3    3    0    0 -0.13092529759E+02 -0.15504820654E+02  0.48508225724E+02  0.52581952815E+02  0.00000000000E+00 0. -1.
         11    1    3    3    0    0  0.13092529759E+02  0.15504820654E+02 -0.36063987272E+02  0.41381456921E+02  0.00000000000E+00 0.  1.
<mgrwt>
<rscale>  0 0.93135725E+02</rscale>
<asrwt>0</asrwt>
<pdfrwt beam="1">  1        1 0.81852037E-02 0.93135725E+02</pdfrwt>
<pdfrwt beam="2">  1       -1 0.62707055E-02 0.93135725E+02</pdfrwt>
<totfact> 0.89183145E+04</totfact>
</mgrwt>
</event>
<event>
 5    1  0.1227473E+001  0.9136147E+02  0.7546771E-02  0.1299588E+00
          1   -1    0    0  501    0  0.00000000000E+00  0.00000000000E+00  0.12629687822E+03  0.12629687822E+03  0.00000000000E+00 0. -1.
         -1   -1    0    0    0  501 -0.00000000000E+00 -0.00000000000E+00 -0.16522415023E+02  0.16522415023E+02  0.00000000000E+00 0.  1.
         23    2    1    2    0    0  0.00000000000E+00  0.00000000000E+00  0.10977446320E+03  0.14281929324E+03  0.91361467547E+02 0.  0.
        -13    1    3    3    0    0 -0.34753323415E+02  0.28467519393E+02  0.41945746815E+02  0.61462499336E+02  0.00000000000E+00 0.  1.
         13    1    3    3    0    0  0.34753323415E+02 -0.28467519393E+02  0.67828716383E+02  0.81356793908E+02  0.00000000000E+00 0. -1.
<mgrwt>
<rscale>  0 0.91361468E+02</rscale>
<asrwt>0</asrwt>
<pdfrwt beam="1">  1        1 0.19430288E-01 0.91361468E+02</pdfrwt>
<pdfrwt beam="2">  1       -1 0.25419101E-02 0.91361468E+02</pdfrwt>
<totfact> 0.10811431E+05</totfact>
</mgrwt>
</event>
<event>
 5    1  0.1227473E+001  0.9143951E+02  0.7546771E-02  0.1299403E+00
         -2   -1    0    0    0  501 -0.00000000000E+00  0.00000000000E+00  0.31057570077E+02  0.31057570077E+02  0.00000000000E+00 0.  1.
          2   -1    0    0  501    0  0.00000000000E+00 -0.00000000000E+00 -0.67303919043E+02  0.67303919043E+02  0.00000000000E+00 0. -1.
         23    2    1    2    0    0  0.00000000000E+00  0.00000000000E+00 -0.36246348966E+02  0.98361489121E+02  0.91439514044E+02 0.  0.
        -13    1    3    3    0    0  0.20705886162E+02  0.22061148059E+02  0.18747897247E+02  0.35593702064E+02  0.00000000000E+00 0.  1.
         13    1    3    3    0    0 -0.20705886162E+02 -0.22061148059E+02 -0.54994246213E+02  0.62767787056E+02  0.00000000000E+00 0. -1.
<mgrwt>
<rscale>  0 0.91439514E+02</rscale>
<asrwt>0</asrwt>
<pdfrwt beam="2">  1        2 0.10354449E-01 0.91439514E+02</pdfrwt>
<pdfrwt beam="1">  1       -2 0.47780878E-02 0.91439514E+02</pdfrwt>
<totfact> 0.10854765E+05</totfact>
</mgrwt>
</event>
<event>
 5    1  0.1227473E+001  0.8587050E+02  0.7546771E-02  0.1313172E+00
         -1   -1    0    0    0  501 -0.00000000000E+00  0.00000000000E+00  0.84808604766E+02  0.84808604766E+02  0.00000000000E+00 0.  1.
          1   -1    0    0  501    0  0.00000000000E+00 -0.00000000000E+00 -0.21736423193E+02  0.21736423193E+02  0.00000000000E+00 0. -1.
         23    2    1    2    0    0  0.00000000000E+00  0.00000000000E+00  0.63072181573E+02  0.10654502796E+03  0.85870500723E+02 0.  0.
        -13    1    3    3    0    0  0.39362256441E+02 -0.16685306452E+02  0.26627768813E+02  0.50366901389E+02  0.00000000000E+00 0. -1.
         13    1    3    3    0    0 -0.39362256441E+02  0.16685306452E+02  0.36444412760E+02  0.56178126570E+02  0.00000000000E+00 0.  1.
<mgrwt>
<rscale>  0 0.85870501E+02</rscale>
<asrwt>0</asrwt>
<pdfrwt beam="2">  1        1 0.33440652E-02 0.85870501E+02</pdfrwt>
<pdfrwt beam="1">  1       -1 0.13047477E-01 0.85870501E+02</pdfrwt>
<totfact> 0.97714407E+04</totfact>
</mgrwt>
</event>
<event>
 5    1  0.1227473E+001  0.8952150E+02  0.7546771E-02  0.1304015E+00
         -1   -1    0    0    0  501 -0.00000000000E+00  0.00000000000E+00  0.50988499894E+02  0.50988499894E+02  0.00000000000E+00 0.  1.
          1   -1    0    0  501    0  0.00000000000E+00 -0.00000000000E+00 -0.39293659132E+02  0.39293659132E+02  0.00000000000E+00 0. -1.
         23    2    1    2    0    0  0.00000000000E+00  0.00000000000E+00  0.11694840762E+02  0.90282159026E+02  0.89521499864E+02 0.  0.
        -11    1    3    3    0    0  0.21958566934E+01  0.39348625502E+02 -0.15555266128E+02  0.42368649020E+02  0.00000000000E+00 0. -1.
         11    1    3    3    0    0 -0.21958566934E+01 -0.39348625502E+02  0.27250106890E+02  0.47913510005E+02  0.00000000000E+00 0.  1.
<mgrwt>
<rscale>  0 0.89521500E+02</rscale>
<asrwt>0</asrwt>
<pdfrwt beam="2">  1        1 0.60451783E-02 0.89521500E+02</pdfrwt>
<pdfrwt beam="1">  1       -1 0.78443846E-02 0.89521500E+02</pdfrwt>
<totfact> 0.95213762E+04</totfact>
</mgrwt>
</event>
<event>
 5    1  0.1227473E+001  0.8835202E+02  0.7546771E-02  0.1306892E+00
         -3   -1    0    0    0  501 -0.00000000000E+00  0.00000000000E+00  0.59051571367E+01  0.59051571367E+01  0.00000000000E+00 0.  1.
          3   -1    0    0  501    0  0.00000000000E+00 -0.00000000000E+00 -0.33047722890E+03  0.33047722890E+03  0.00000000000E+00 0. -1.
         23    2    1    2    0    0  0.00000000000E+00  0.00000000000E+00 -0.32457207177E+03  0.33638238604E+03  0.88352022428E+02 0.  0.
        -13    1    3    3    0    0 -0.38139683869E+02 -0.21406460493E+02 -0.18595503385E+03  0.19102917749E+03  0.00000000000E+00 0. -1.
         13    1    3    3    0    0  0.38139683869E+02  0.21406460493E+02 -0.13861703791E+03  0.14535320855E+03  0.00000000000E+00 0.  1.
<mgrwt>
<rscale>  0 0.88352022E+02</rscale>
<asrwt>0</asrwt>
<pdfrwt beam="2">  1        3 0.50842666E-01 0.88352022E+02</pdfrwt>
<pdfrwt beam="1">  1       -3 0.90848545E-03 0.88352022E+02</pdfrwt>
<totfact> 0.24679094E+04</totfact>
</mgrwt>
</event>
<event>
 5    1  0.1227473E+001  0.9101878E+02  0.7546771E-02  0.1300403E+00
          2   -1    0    0  501    0  0.00000000000E+00  0.00000000000E+00  0.40351703791E+03  0.40351703791E+03  0.00000000000E+00 0. -1.
         -2   -1    0    0    0  501 -0.00000000000E+00 -0.00000000000E+00 -0.51326328492E+01  0.51326328492E+01  0.00000000000E+00 0.  1.
         23    2    1    2    0    0  0.00000000000E+00  0.00000000000E+00  0.39838440506E+03  0.40864967076E+03  0.91018784962E+02 0.  0.
        -11    1    3    3    0    0  0.37373090135E+02 -0.25830801997E+02  0.18720655526E+03  0.19264026716E+03  0.00000000000E+00 0.  1.
         11    1    3    3    0    0 -0.37373090135E+02  0.25830801997E+02  0.21117784980E+03  0.21600940360E+03  0.00000000000E+00 0. -1.
<mgrwt>
<rscale>  0 0.91018785E+02</rscale>
<asrwt>0</asrwt>
<pdfrwt beam="1">  1        2 0.62079519E-01 0.91018785E+02</pdfrwt>
<pdfrwt beam="2">  1       -2 0.78963614E-03 0.91018785E+02</pdfrwt>
<totfact> 0.20117458E+05</totfact>
</mgrwt>
</event>
<event>
 5    1  0.1227473E+001  0.9203039E+02  0.7546771E-02  0.1298008E+00
          4   -1    0    0  501    0  0.00000000000E+00  0.00000000000E+00  0.35799866344E+02  0.35799866344E+02  0.00000000000E+00 0. -1.
         -4   -1    0    0    0  501 -0.00000000000E+00 -0.00000000000E+00 -0.59145421864E+02  0.59145421864E+02  0.00000000000E+00 0.  1.
         23    2    1    2    0    0  0.00000000000E+00  0.00000000000E+00 -0.23345555520E+02  0.94945288208E+02  0.92030390581E+02 0.  0.
        -11    1    3    3    0    0 -0.36386306854E+02 -0.12089237384E+02 -0.37920401636E+02  0.53926522670E+02  0.00000000000E+00 0.  1.
         11    1    3    3    0    0  0.36386306854E+02  0.12089237384E+02  0.14574846116E+02  0.41018765539E+02  0.00000000000E+00 0. -1.
<mgrwt>
<rscale>  0 0.92030391E+02</rscale>
<asrwt>0</asrwt>
<pdfrwt beam="1">  1        4 0.55076718E-02 0.92030391E+02</pdfrwt>
<pdfrwt beam="2">  1       -4 0.90992955E-02 0.92030391E+02</pdfrwt>
<totfact> 0.26105463E+04</totfact>
</mgrwt>
</event>
<event>
 5    1  0.1227473E+001  0.9121549E+02  0.7546771E-02  0.1299935E+00
          2   -1    0    0  501    0  0.00000000000E+00  0.00000000000E+00  0.14241234619E+03  0.14241234619E+03  0.00000000000E+00 0. -1.
         -2   -1    0    0    0  501 -0.00000000000E+00 -0.00000000000E+00 -0.14605940721E+02  0.14605940721E+02  0.00000000000E+00 0.  1.
         23    2    1    2    0    0  0.00000000000E+00  0.00000000000E+00  0.12780640546E+03  0.15701828691E+03  0.91215487421E+02 0.  0.
        -11    1    3    3    0    0 -0.11976466086E+01  0.43135312994E+02  0.38488403093E+02  0.57822545405E+02  0.00000000000E+00 0.  1.
         11    1    3    3    0    0  0.11976466086E+01 -0.43135312994E+02  0.89318002370E+02  0.99195741501E+02  0.00000000000E+00 0. -1.
<mgrwt>
<rscale>  0 0.91215487E+02</rscale>
<asrwt>0</asrwt>
<pdfrwt beam="1">  1        2 0.21909591E-01 0.91215487E+02</pdfrwt>
<pdfrwt beam="2">  1       -2 0.22470679E-02 0.91215487E+02</pdfrwt>
<totfact> 0.13721951E+05</totfact>
</mgrwt>
</event>
<event>
 5    1  0.1227473E+001  0.9175325E+02  0.7546771E-02  0.1298661E+00
          2   -1    0    0  501    0  0.00000000000E+00  0.00000000000E+00  0.12979066886E+02  0.12979066886E+02  0.00000000000E+00 0. -1.
         -2   -1    0    0    0  501 -0.00000000000E+00 -0.00000000000E+00 -0.16215840499E+03  0.16215840499E+03  0.00000000000E+00 0.  1.
         23    2    1    2    0    0  0.00000000000E+00  0.00000000000E+00 -0.14917933810E+03  0.17513747187E+03  0.91753251375E+02 0.  0.
        -13    1    3    3    0    0 -0.29211690268E+02  0.17113157869E+02 -0.13368450626E+03  0.13790478685E+03  0.00000000000E+00 0.  1.
         13    1    3    3    0    0  0.29211690268E+02 -0.17113157869E+02 -0.15494831838E+02  0.37232685026E+02  0.00000000000E+00 0. -1.
<mgrwt>
<rscale>  0 0.91753251E+02</rscale>
<asrwt>0</asrwt>
<pdfrwt beam="1">  1        2 0.19967794E-02 0.91753251E+02</pdfrwt>
<pdfrwt beam="2">  1       -2 0.24947448E-01 0.91753251E+02</pdfrwt>
<totfact> 0.66781448E+04</totfact>
</mgrwt>
</event>
<event>
 5    1  0.1227473E+001  0.9198429E+02  0.7546771E-02  0.1298116E+00
          1   -1    0    0  501    0  0.00000000000E+00  0.00000000000E+00  0.52071291402E+02  0.52071291402E+02  0.00000000000E+00 0. -1.
         -1   -1    0    0    0  501 -0.00000000000E+00 -0.00000000000E+00 -0.40622719924E+02  0.40622719924E+02  0.00000000000E+00 0.  1.
         23    2    1    2    0    0  0.00000000000E+00  0.00000000000E+00  0.11448571478E+02  0.92694011326E+02  0.91984291848E+02 0.  0.
        -11    1    3    3    0    0  0.97492563674E+01  0.57109850361E+01 -0.39202365263E+02  0.40798146919E+02  0.00000000000E+00 0.  1.
         11    1    3    3    0    0 -0.97492563674E+01 -0.57109850361E+01  0.50650936741E+02  0.51895864407E+02  0.00000000000E+00 0. -1.
<mgrwt>
<rscale>  0 0.91984292E+02</rscale>
<asrwt>0</asrwt>
<pdfrwt beam="1">  1        1 0.80109679E-02 0.91984292E+02</pdfrwt>
<pdfrwt beam="2">  1       -1 0.62496492E-02 0.91984292E+02</pdfrwt>
<totfact> 0.92040634E+04</totfact>
</mgrwt>
</event>
<event>
 5    1  0.1227473E+001  0.9087156E+02  0.7546771E-02  0.1300755E+00
         -1   -1    0    0    0  501 -0.00000000000E+00  0.00000000000E+00  0.41197167684E+02  0.41197167684E+02  0.00000000000E+00 0.  1.
          1   -1    0    0  501    0  0.00000000000E+00 -0.00000000000E+00 -0.50110484801E+02  0.50110484801E+02  0.00000000000E+00 0. -1.
         23    2    1    2    0    0  0.00000000000E+00  0.00000000000E+00 -0.89133171170E+01  0.91307652485E+02  0.90871558699E+02 0.  0.
        -11    1    3    3    0    0  0.11867266848E+02  0.38272563100E+02  0.17065492138E+02  0.43552865929E+02  0.00000000000E+00 0.  1.
         11    1    3    3    0    0 -0.11867266848E+02 -0.38272563100E+02 -0.25978809255E+02  0.47754786556E+02  0.00000000000E+00 0. -1.
<mgrwt>
<rscale>  0 0.90871559E+02</rscale>
<asrwt>0</asrwt>
<pdfrwt beam="2">  1        1 0.77093054E-02 0.90871559E+02</pdfrwt>
<pdfrwt beam="1">  1       -1 0.63380258E-02 0.90871559E+02</pdfrwt>
<totfact> 0.94678036E+04</totfact>
</mgrwt>
</event>
<event>
 5    1  0.1227473E+001  0.8991103E+02  0.7546771E-02  0.1303067E+00
         -1   -1    0    0    0  501 -0.00000000000E+00  0.00000000000E+00  0.37009582332E+02  0.37009582332E+02  0.00000000000E+00 0.  1.
          1   -1    0    0  501    0  0.00000000000E+00 -0.00000000000E+00 -0.54607435613E+02  0.54607435613E+02  0.00000000000E+00 0. -1.
         23    2    1    2    0    0  0.00000000000E+00  0.00000000000E+00 -0.17597853280E+02  0.91617017945E+02  0.89911031231E+02 0.  0.
        -11    1    3    3    0    0 -0.26562094339E+01  0.36496173773E+02 -0.35409027459E+02  0.50919793541E+02  0.00000000000E+00 0. -1.
         11    1    3    3    0    0  0.26562094339E+01 -0.36496173773E+02  0.17811174178E+02  0.40697224405E+02  0.00000000000E+00 0.  1.
<mgrwt>
<rscale>  0 0.89911031E+02</rscale>
<asrwt>0</asrwt>
<pdfrwt beam="2">  1        1 0.84011439E-02 0.89911031E+02</pdfrwt>
<pdfrwt beam="1">  1       -1 0.56937819E-02 0.89911031E+02</pdfrwt>
<totfact> 0.98777060E+04</totfact>
</mgrwt>
</event>
<event>
 5    1  0.1227473E+001  0.9128902E+02  0.7546771E-02  0.1299760E+00
         -1   -1    0    0    0  501 -0.00000000000E+00  0.00000000000E+00  0.90172687410E+01  0.90172687410E+01  0.00000000000E+00 0.  1.
          1   -1    0    0  501    0  0.00000000000E+00 -0.00000000000E+00 -0.23104795102E+03  0.23104795102E+03  0.00000000000E+00 0. -1.
         23    2    1    2    0    0  0.00000000000E+00  0.00000000000E+00 -0.22203068228E+03  0.24006521976E+03  0.91289023795E+02 0.  0.
        -11    1    3    3    0    0 -0.17601159777E+02  0.28384101343E+02 -0.19283170175E+03  0.19570263983E+03  0.00000000000E+00 0. -1.
         11    1    3    3    0    0  0.17601159777E+02 -0.28384101343E+02 -0.29198980525E+02  0.44362579932E+02  0.00000000000E+00 0.  1.
<mgrwt>
<rscale>  0 0.91289024E+02</rscale>
<asrwt>0</asrwt>
<pdfrwt beam="2">  1        1 0.35545838E-01 0.91289024E+02</pdfrwt>
<pdfrwt beam="1">  1       -1 0.13872721E-02 0.91289024E+02</pdfrwt>
<totfact> 0.12138277E+05</totfact>
</mgrwt>
</event>
<event>
 5    1  0.1227473E+001  0.9242014E+02  0.7546771E-02  0.1297095E+00
          2   -1    0    0  501    0  0.00000000000E+00  0.00000000000E+00  0.10911821691E+02  0.10911821691E+02  0.00000000000E+00 0.  1.
         -2   -1    0    0    0  501 -0.00000000000E+00 -0.00000000000E+00 -0.19569329794E+03  0.19569329794E+03  0.00000000000E+00 0. -1.
         23    2    1    2    0    0  0.00000000000E+00  0.00000000000E+00 -0.18478147625E+03  0.20660511963E+03  0.92420135756E+02 0.  0.
        -13    1    3    3    0    0 -0.46008798654E+02  0.17368355041E+01 -0.83577023718E+02  0.95419835699E+02  0.00000000000E+00 0. -1.
         13    1    3    3    0    0  0.46008798654E+02 -0.17368355041E+01 -0.10120445253E+03  0.11118528393E+03  0.00000000000E+00 0.  1.
<mgrwt>
<rscale>  0 0.92420136E+02</rscale>
<asrwt>0</asrwt>
<pdfrwt beam="1">  1        2 0.16787419E-02 0.92420136E+02</pdfrwt>
<pdfrwt beam="2">  1       -2 0.30106659E-01 0.92420136E+02</pdfrwt>
<totfact> 0.60765960E+04</totfact>
</mgrwt>
</event>
<event>
 5    1  0.1227473E+001  0.8901373E+02  0.7546771E-02  0.1305258E+00
         -2   -1    0    0    0  501 -0.00000000000E+00  0.00000000000E+00  0.15450975443E+02  0.15450975443E+02  0.00000000000E+00 0.  1.
          2   -1    0    0  501    0  0.00000000000E+00 -0.00000000000E+00 -0.12820298181E+03  0.12820298181E+03  0.00000000000E+00 0. -1.
         23    2    1    2    0    0  0.00000000000E+00  0.00000000000E+00 -0.11275200636E+03  0.14365395725E+03  0.89013732056E+02 0.  0.
        -13    1    3    3    0    0 -0.18304510782E+01 -0.36416962658E+02 -0.97562633214E+02  0.10415379551E+03  0.00000000000E+00 0. -1.
         13    1    3    3    0    0  0.18304510782E+01  0.36416962658E+02 -0.15189373149E+02  0.39500161735E+02  0.00000000000E+00 0.  1.
<mgrwt>
<rscale>  0 0.89013732E+02</rscale>
<asrwt>0</asrwt>
<pdfrwt beam="2">  1        2 0.19723536E-01 0.89013732E+02</pdfrwt>
<pdfrwt beam="1">  1       -2 0.23770732E-02 0.89013732E+02</pdfrwt>
<totfact> 0.14163285E+05</totfact>
</mgrwt>
</event>
<event>
 5    1  0.1227473E+001  0.9023447E+02  0.7546771E-02  0.1302285E+00
         -2   -1    0    0    0  501 -0.00000000000E+00  0.00000000000E+00  0.13776922503E+03  0.13776922503E+03  0.00000000000E+00 0.  1.
          2   -1    0    0  501    0  0.00000000000E+00 -0.00000000000E+00 -0.14775178417E+02  0.14775178417E+02  0.00000000000E+00 0. -1.
         23    2    1    2    0    0  0.00000000000E+00  0.00000000000E+00  0.12299404662E+03  0.15254440345E+03  0.90234469693E+02 0.  0.
        -11    1    3    3    0    0 -0.24305812313E+02 -0.16056022067E+02  0.11974066641E+03  0.12323309438E+03  0.00000000000E+00 0.  1.
         11    1    3    3    0    0  0.24305812313E+02  0.16056022067E+02  0.32533802030E+01  0.29311309072E+02  0.00000000000E+00 0. -1.
<mgrwt>
<rscale>  0 0.90234470E+02</rscale>
<asrwt>0</asrwt>
<pdfrwt beam="2">  1        2 0.22731045E-02 0.90234470E+02</pdfrwt>
<pdfrwt beam="1">  1       -2 0.21195265E-01 0.90234470E+02</pdfrwt>
<totfact> 0.73913919E+04</totfact>
</mgrwt>
</event>
<event>
 5    1  0.1227473E+001  0.8606930E+02  0.7546771E-02  0.1312660E+00
         -1   -1    0    0    0  501 -0.00000000000E+00  0.00000000000E+00  0.25214655837E+03  0.25214655837E+03  0.00000000000E+00 0.  1.
          1   -1    0    0  501    0  0.00000000000E+00 -0.00000000000E+00 -0.73448591863E+01  0.73448591863E+01  0.00000000000E+00 0. -1.
         23    2    1    2    0    0  0.00000000000E+00  0.00000000000E+00  0.24480169919E+03  0.25949141756E+03  0.86069296861E+02 0.  0.
        -13    1    3    3    0    0 -0.32495239024E+02  0.11631836079E+02  0.44902883542E+02  0.56634875476E+02  0.00000000000E+00 0. -1.
         13    1    3    3    0    0  0.32495239024E+02 -0.11631836079E+02  0.19989881564E+03  0.20285654208E+03  0.00000000000E+00 0.  1.
<mgrwt>
<rscale>  0 0.86069297E+02</rscale>
<asrwt>0</asrwt>
<pdfrwt beam="2">  1        1 0.11299785E-02 0.86069297E+02</pdfrwt>
<pdfrwt beam="1">  1       -1 0.38791771E-01 0.86069297E+02</pdfrwt>
<totfact> 0.75040571E+04</totfact>
</mgrwt>
</event>
<event>
 5    1  0.1227473E+001  0.7649531E+02  0.7546771E-02  0.1339302E+00
         -1   -1    0    0    0  501 -0.00000000000E+00  0.00000000000E+00  0.63005036952E+02  0.63005036952E+02  0.00000000000E+00 0.  1.
          1   -1    0    0  501    0  0.00000000000E+00 -0.00000000000E+00 -0.23218512116E+02  0.23218512116E+02  0.00000000000E+00 0. -1.
         23    2    1    2    0    0  0.00000000000E+00  0.00000000000E+00  0.39786524836E+02  0.86223549067E+02  0.76495312636E+02 0.  0.
        -13    1    3    3    0    0 -0.11563418680E+02  0.13199345615E+01  0.60960606119E+02  0.62061665924E+02  0.00000000000E+00 0.  1.
         13    1    3    3    0    0  0.11563418680E+02 -0.13199345615E+01 -0.21174081284E+02  0.24161883143E+02  0.00000000000E+00 0. -1.
<mgrwt>
<rscale>  0 0.76495313E+02</rscale>
<asrwt>0</asrwt>
<pdfrwt beam="2">  1        1 0.35720788E-02 0.76495313E+02</pdfrwt>
<pdfrwt beam="1">  1       -1 0.96930825E-02 0.76495313E+02</pdfrwt>
<totfact> 0.13734936E+05</totfact>
</mgrwt>
</event>
<event>
 5    1  0.1227473E+001  0.9455403E+02  0.7546771E-02  0.1292184E+00
          1   -1    0    0  501    0  0.00000000000E+00  0.00000000000E+00  0.71274665125E+02  0.71274665125E+02  0.00000000000E+00 0. -1.
         -1   -1    0    0    0  501 -0.00000000000E+00 -0.00000000000E+00 -0.31359192376E+02  0.31359192376E+02  0.00000000000E+00 0.  1.
         23    2    1    2    0    0  0.00000000000E+00  0.00000000000E+00  0.39915472749E+02  0.10263385750E+03  0.94554025514E+02 0.  0.
        -11    1    3    3    0    0  0.21538102519E+02 -0.37192161634E+02  0.41337812495E+02  0.59631883158E+02  0.00000000000E+00 0. -1.
         11    1    3    3    0    0 -0.21538102519E+02  0.37192161634E+02 -0.14223397458E+01  0.43001974344E+02  0.00000000000E+00 0.  1.
<mgrwt>
<rscale>  0 0.94554026E+02</rscale>
<asrwt>0</asrwt>
<pdfrwt beam="1">  1        1 0.10965333E-01 0.94554026E+02</pdfrwt>
<pdfrwt beam="2">  1       -1 0.48244911E-02 0.94554026E+02</pdfrwt>
<totfact> 0.89474054E+04</totfact>
</mgrwt>
</event>
<event>
 5    1  0.1227473E+001  0.9092788E+02  0.7546771E-02  0.1300620E+00
         -1   -1    0    0    0  501 -0.00000000000E+00  0.00000000000E+00  0.31600797756E+02  0.31600797756E+02  0.00000000000E+00 0. -1.
          1   -1    0    0  501    0  0.00000000000E+00 -0.00000000000E+00 -0.65408787142E+02  0.65408787142E+02  0.00000000000E+00 0.  1.
         23    2    1    2    0    0  0.00000000000E+00  0.00000000000E+00 -0.33807989385E+02  0.97009584898E+02  0.90927880300E+02 0.  0.
        -11    1    3    3    0    0  0.41695832318E+01  0.40674380127E+02  0.43047339300E+01  0.41113517938E+02  0.00000000000E+00 0. -1.
         11    1    3    3    0    0 -0.41695832318E+01 -0.40674380127E+02 -0.38112723315E+02  0.55896066960E+02  0.00000000000E+00 0.  1.
<mgrwt>
<rscale>  0 0.90927880E+02</rscale>
<asrwt>0</asrwt>
<pdfrwt beam="2">  1        1 0.10062890E-01 0.90927880E+02</pdfrwt>
<pdfrwt beam="1">  1       -1 0.48616612E-02 0.90927880E+02</pdfrwt>
<totfact> 0.98385290E+04</totfact>
</mgrwt>
</event>
<event>
 5    1  0.1227473E+001  0.8996839E+02  0.7546771E-02  0.1302928E+00
         -2   -1    0    0    0  501 -0.00000000000E+00  0.00000000000E+00  0.24550791063E+02  0.24550791063E+02  0.00000000000E+00 0.  1.
          2   -1    0    0  501    0  0.00000000000E+00 -0.00000000000E+00 -0.82424135982E+02  0.82424135982E+02  0.00000000000E+00 0. -1.
         23    2    1    2    0    0  0.00000000000E+00  0.00000000000E+00 -0.57873344919E+02  0.10697492705E+03  0.89968388694E+02 0.  0.
        -13    1    3    3    0    0  0.23185808213E+02 -0.30884949288E+02 -0.15086059830E+01  0.38648902792E+02  0.00000000000E+00 0. -1.
         13    1    3    3    0    0 -0.23185808213E+02  0.30884949288E+02 -0.56364738936E+02  0.68326024254E+02  0.00000000000E+00 0.  1.
<mgrwt>
<rscale>  0 0.89968389E+02</rscale>
<asrwt>0</asrwt>
<pdfrwt beam="2">  1        2 0.12680636E-01 0.89968389E+02</pdfrwt>
<pdfrwt beam="1">  1       -2 0.37770448E-02 0.89968389E+02</pdfrwt>
<totfact> 0.12020696E+05</totfact>
</mgrwt>
</event>
<event>
 5    1  0.1227473E+001  0.8873368E+02  0.7546771E-02  0.1305948E+00
         -1   -1    0    0    0  501 -0.00000000000E+00  0.00000000000E+00  0.15031510408E+03  0.15031510408E+03  0.00000000000E+00 0.  1.
          1   -1    0    0  501    0  0.00000000000E+00 -0.00000000000E+00 -0.13095268403E+02  0.13095268403E+02  0.00000000000E+00 0. -1.
         23    2    1    2    0    0  0.00000000000E+00  0.00000000000E+00  0.13721983568E+03  0.16341037249E+03  0.88733683188E+02 0.  0.
        -11    1    3    3    0    0 -0.41482716868E+02 -0.10613691016E+02  0.90003238211E+02  0.99669700131E+02  0.00000000000E+00 0.  1.
         11    1    3    3    0    0  0.41482716868E+02  0.10613691016E+02  0.47216597469E+02  0.63740672355E+02  0.00000000000E+00 0. -1.
<mgrwt>
<rscale>  0 0.88733683E+02</rscale>
<asrwt>0</asrwt>
<pdfrwt beam="2">  1        1 0.20146568E-02 0.88733683E+02</pdfrwt>
<pdfrwt beam="1">  1       -1 0.23125399E-01 0.88733683E+02</pdfrwt>
<totfact> 0.80203653E+04</totfact>
</mgrwt>
</event>
<event>
 5    1  0.1227473E+001  0.9109656E+02  0.7546771E-02  0.1300218E+00
         -2   -1    0    0    0  501 -0.00000000000E+00  0.00000000000E+00  0.14942042969E+02  0.14942042969E+02  0.00000000000E+00 0.  1.
          2   -1    0    0  501    0  0.00000000000E+00 -0.00000000000E+00 -0.13884620347E+03  0.13884620347E+03  0.00000000000E+00 0. -1.
         23    2    1    2    0    0  0.00000000000E+00  0.00000000000E+00 -0.12390416051E+03  0.15378824644E+03  0.91096562799E+02 0.  0.
        -13    1    3    3    0    0 -0.18131424345E+02 -0.12649800797E+02 -0.12918102673E+03  0.13105916098E+03  0.00000000000E+00 0. -1.
         13    1    3    3    0    0  0.18131424345E+02  0.12649800797E+02  0.52768662255E+01  0.22729085466E+02  0.00000000000E+00 0.  1.
<mgrwt>
<rscale>  0 0.91096563E+02</rscale>
<asrwt>0</asrwt>
<pdfrwt beam="2">  1        2 0.21360955E-01 0.91096563E+02</pdfrwt>
<pdfrwt beam="1">  1       -2 0.22987758E-02 0.91096563E+02</pdfrwt>
<totfact> 0.13654338E+05</totfact>
</mgrwt>
</event>
<event>
 5    1  0.1227473E+001  0.9289154E+02  0.7546771E-02  0.1295997E+00
          2   -1    0    0  501    0  0.00000000000E+00  0.00000000000E+00  0.45305798404E+02  0.45305798404E+02  0.00000000000E+00 0.  1.
         -2   -1    0    0    0  501 -0.00000000000E+00 -0.00000000000E+00 -0.47614426972E+02  0.47614426972E+02  0.00000000000E+00 0. -1.
         23    2    1    2    0    0  0.00000000000E+00  0.00000000000E+00 -0.23086285682E+01  0.92920225375E+02  0.92891541692E+02 0.  0.
        -13    1    3    3    0    0 -0.27876838048E+02  0.33269679816E+02 -0.17688784168E+02  0.46870916142E+02  0.00000000000E+00 0. -1.
         13    1    3    3    0    0  0.27876838048E+02 -0.33269679816E+02  0.15380155600E+02  0.46049309234E+02  0.00000000000E+00 0.  1.
<mgrwt>
<rscale>  0 0.92891542E+02</rscale>
<asrwt>0</asrwt>
<pdfrwt beam="1">  1        2 0.69701229E-02 0.92891542E+02</pdfrwt>
<pdfrwt beam="2">  1       -2 0.73252964E-02 0.92891542E+02</pdfrwt>
<totfact> 0.93370030E+04</totfact>
</mgrwt>
</event>
<event>
 5    1  0.1227473E+001  0.9217025E+02  0.7546771E-02  0.1297680E+00
          1   -1    0    0  501    0  0.00000000000E+00  0.00000000000E+00  0.34426262799E+03  0.34426262799E+03  0.00000000000E+00 0. -1.
         -1   -1    0    0    0  501 -0.00000000000E+00 -0.00000000000E+00 -0.61692392860E+01  0.61692392860E+01  0.00000000000E+00 0.  1.
         23    2    1    2    0    0  0.00000000000E+00  0.00000000000E+00  0.33809338871E+03  0.35043186728E+03  0.92170245293E+02 0.  0.
        -13    1    3    3    0    0  0.25580436145E+02  0.33242634235E+02  0.24162490480E+03  0.24523871241E+03  0.00000000000E+00 0. -1.
         13    1    3    3    0    0 -0.25580436145E+02 -0.33242634235E+02  0.96468483902E+02  0.10519315487E+03  0.00000000000E+00 0.  1.
<mgrwt>
<rscale>  0 0.92170245E+02</rscale>
<asrwt>0</asrwt>
<pdfrwt beam="1">  1        1 0.52963466E-01 0.92170245E+02</pdfrwt>
<pdfrwt beam="2">  1       -1 0.94911400E-03 0.92170245E+02</pdfrwt>
<totfact> 0.12770380E+05</totfact>
</mgrwt>
</event>
<event>
 5    1  0.1227473E+001  0.9721000E+02  0.7546771E-02  0.1286275E+00
         -1   -1    0    0    0  501 -0.00000000000E+00  0.00000000000E+00  0.10136292181E+03  0.10136292181E+03  0.00000000000E+00 0.  1.
          1   -1    0    0  501    0  0.00000000000E+00 -0.00000000000E+00 -0.23306805823E+02  0.23306805823E+02  0.00000000000E+00 0. -1.
         23    2    1    2    0    0  0.00000000000E+00  0.00000000000E+00  0.78056115992E+02  0.12466972764E+03  0.97209998177E+02 0.  0.
        -13    1    3    3    0    0  0.10742129547E+02 -0.21756808904E+02  0.93039951971E+02  0.96151883724E+02  0.00000000000E+00 0.  1.
         13    1    3    3    0    0 -0.10742129547E+02  0.21756808904E+02 -0.14983835979E+02  0.28517843914E+02  0.00000000000E+00 0. -1.
<mgrwt>
<rscale>  0 0.97209998E+02</rscale>
<asrwt>0</asrwt>
<pdfrwt beam="2">  1        1 0.35856625E-02 0.97209998E+02</pdfrwt>
<pdfrwt beam="1">  1       -1 0.15594295E-01 0.97209998E+02</pdfrwt>
<totfact> 0.68796015E+04</totfact>
</mgrwt>
</event>
<event>
 5    1  0.1227473E+001  0.8958694E+02  0.7546771E-02  0.1303855E+00
          1   -1    0    0  501    0  0.00000000000E+00  0.00000000000E+00  0.82952990674E+02  0.82952990674E+02  0.00000000000E+00 0. -1.
         -1   -1    0    0    0  501 -0.00000000000E+00 -0.00000000000E+00 -0.24187853244E+02  0.24187853244E+02  0.00000000000E+00 0.  1.
         23    2    1    2    0    0  0.00000000000E+00  0.00000000000E+00  0.58765137430E+02  0.10714084392E+03  0.89586935756E+02 0.  0.
        -11    1    3    3    0    0  0.43558834442E+02 -0.23024322693E+01  0.17199116115E+02  0.46887981909E+02  0.00000000000E+00 0. -1.
         11    1    3    3    0    0 -0.43558834442E+02  0.23024322693E+01  0.41566021315E+02  0.60252862009E+02  0.00000000000E+00 0.  1.
<mgrwt>
<rscale>  0 0.89586936E+02</rscale>
<asrwt>0</asrwt>
<pdfrwt beam="1">  1        1 0.12761998E-01 0.89586936E+02</pdfrwt>
<pdfrwt beam="2">  1       -1 0.37212082E-02 0.89586936E+02</pdfrwt>
<totfact> 0.10632058E+05</totfact>
</mgrwt>
</event>
<event>
 5    1  0.1227473E+001  0.9129952E+02  0.7546771E-02  0.1299735E+00
          1   -1    0    0  501    0  0.00000000000E+00  0.00000000000E+00  0.90471127800E+02  0.90471127800E+02  0.00000000000E+00 0. -1.
         -1   -1    0    0    0  501 -0.00000000000E+00 -0.00000000000E+00 -0.23033872628E+02  0.23033872628E+02  0.00000000000E+00 0.  1.
         23    2    1    2    0    0  0.00000000000E+00  0.00000000000E+00  0.67437255171E+02  0.11350500043E+03  0.91299516632E+02 0.  0.
        -11    1    3    3    0    0 -0.45559969119E+02 -0.27087054753E+01  0.34866542522E+02  0.57434516268E+02  0.00000000000E+00 0.  1.
         11    1    3    3    0    0  0.45559969119E+02  0.27087054753E+01  0.32570712649E+02  0.56070484160E+02  0.00000000000E+00 0. -1.
<mgrwt>
<rscale>  0 0.91299517E+02</rscale>
<asrwt>0</asrwt>
<pdfrwt beam="1">  1        1 0.13918635E-01 0.91299517E+02</pdfrwt>
<pdfrwt beam="2">  1       -1 0.35436728E-02 0.91299517E+02</pdfrwt>
<totfact> 0.10236996E+05</totfact>
</mgrwt>
</event>
<event>
 5    1  0.1227473E+001  0.9098747E+02  0.7546771E-02  0.1300478E+00
          2   -1    0    0  501    0  0.00000000000E+00  0.00000000000E+00  0.62444830660E+02  0.62444830660E+02  0.00000000000E+00 0.  1.
         -2   -1    0    0    0  501 -0.00000000000E+00 -0.00000000000E+00 -0.33144136971E+02  0.33144136971E+02  0.00000000000E+00 0. -1.
         23    2    1    2    0    0  0.00000000000E+00  0.00000000000E+00  0.29300693689E+02  0.95588967631E+02  0.90987472116E+02 0.  0.
        -11    1    3    3    0    0  0.31266306571E+01  0.27025682757E+02  0.52956899137E+02  0.59536514123E+02  0.00000000000E+00 0.  1.
         11    1    3    3    0    0 -0.31266306571E+01 -0.27025682757E+02 -0.23656205448E+02  0.36052453508E+02  0.00000000000E+00 0. -1.
<mgrwt>
<rscale>  0 0.90987472E+02</rscale>
<asrwt>0</asrwt>
<pdfrwt beam="1">  1        2 0.96068970E-02 0.90987472E+02</pdfrwt>
<pdfrwt beam="2">  1       -2 0.50990980E-02 0.90987472E+02</pdfrwt>
<totfact> 0.10784581E+05</totfact>
</mgrwt>
</event>
<event>
 5    1  0.1227473E+001  0.8870579E+02  0.7546771E-02  0.1306016E+00
         -1   -1    0    0    0  501 -0.00000000000E+00  0.00000000000E+00  0.13587997075E+02  0.13587997075E+02  0.00000000000E+00 0.  1.
          1   -1    0    0  501    0  0.00000000000E+00 -0.00000000000E+00 -0.14477331316E+03  0.14477331316E+03  0.00000000000E+00 0. -1.
         23    2    1    2    0    0  0.00000000000E+00  0.00000000000E+00 -0.13118531608E+03  0.15836131023E+03  0.88705791372E+02 0.  0.
        -11    1    3    3    0    0 -0.20363835357E+02  0.34972625394E+02 -0.97994139481E+02  0.10602179818E+03  0.00000000000E+00 0.  1.
         11    1    3    3    0    0  0.20363835357E+02 -0.34972625394E+02 -0.33191176601E+02  0.52339512050E+02  0.00000000000E+00 0. -1.
<mgrwt>
<rscale>  0 0.88705791E+02</rscale>
<asrwt>0</asrwt>
<pdfrwt beam="2">  1        1 0.22272817E-01 0.88705791E+02</pdfrwt>
<pdfrwt beam="1">  1       -1 0.20904611E-02 0.88705791E+02</pdfrwt>
<totfact> 0.11996449E+05</totfact>
</mgrwt>
</event>
<event>
 5    1  0.1227473E+001  0.9168659E+02  0.7546771E-02  0.1298818E+00
         -2   -1    0    0    0  501 -0.00000000000E+00  0.00000000000E+00  0.13601497201E+02  0.13601497201E+02  0.00000000000E+00 0. -1.
          2   -1    0    0  501    0  0.00000000000E+00 -0.00000000000E+00 -0.15451298274E+03  0.15451298274E+03  0.00000000000E+00 0.  1.
         23    2    1    2    0    0  0.00000000000E+00  0.00000000000E+00 -0.14091148554E+03  0.16811447994E+03  0.91686594490E+02 0.  0.
        -13    1    3    3    0    0 -0.17506896999E+02 -0.23118921776E+02 -0.53538780289E+01  0.29489659146E+02  0.00000000000E+00 0. -1.
         13    1    3    3    0    0  0.17506896999E+02  0.23118921776E+02 -0.13555760751E+03  0.13862482080E+03  0.00000000000E+00 0.  1.
<mgrwt>
<rscale>  0 0.91686594E+02</rscale>
<asrwt>0</asrwt>
<pdfrwt beam="2">  1        2 0.23771227E-01 0.91686594E+02</pdfrwt>
<pdfrwt beam="1">  1       -2 0.20925381E-02 0.91686594E+02</pdfrwt>
<totfact> 0.13910974E+05</totfact>
</mgrwt>
</event>
<event>
 5    1  0.1227473E+001  0.9142525E+02  0.7546771E-02  0.1299436E+00
         -4   -1    0    0    0  501 -0.00000000000E+00  0.00000000000E+00  0.15927877643E+02  0.15927877643E+02  0.00000000000E+00 0. -1.
          4   -1    0    0  501    0  0.00000000000E+00 -0.00000000000E+00 -0.13119413398E+03  0.13119413398E+03  0.00000000000E+00 0.  1.
         23    2    1    2    0    0  0.00000000000E+00  0.00000000000E+00 -0.11526625634E+03  0.14712201162E+03  0.91425250636E+02 0.  0.
        -13    1    3    3    0    0 -0.24078877059E+02  0.27437194774E+02 -0.10190974095E+03  0.10825057634E+03  0.00000000000E+00 0.  1.
         13    1    3    3    0    0  0.24078877059E+02 -0.27437194774E+02 -0.13356515383E+02  0.38871435279E+02  0.00000000000E+00 0. -1.
<mgrwt>
<rscale>  0 0.91425251E+02</rscale>
<asrwt>0</asrwt>
<pdfrwt beam="2">  1        4 0.20183713E-01 0.91425251E+02</pdfrwt>
<pdfrwt beam="1">  1       -4 0.24504427E-02 0.91425251E+02</pdfrwt>
<totfact> 0.23644242E+04</totfact>
</mgrwt>
</event>
<event>
 5    1  0.1227473E+001  0.9126734E+02  0.7546771E-02  0.1299811E+00
         -4   -1    0    0    0  501 -0.00000000000E+00  0.00000000000E+00  0.56990630009E+01  0.56990630009E+01  0.00000000000E+00 0.  1.
          4   -1    0    0  501    0  0.00000000000E+00 -0.00000000000E+00 -0.36539898337E+03  0.36539898337E+03  0.00000000000E+00 0. -1.
         23    2    1    2    0    0  0.00000000000E+00  0.00000000000E+00 -0.35969992037E+03  0.37109804638E+03  0.91267339760E+02 0.  0.
        -11    1    3    3    0    0  0.41796385727E+02 -0.14510242774E+02 -0.13439975142E+03  0.14149479915E+03  0.00000000000E+00 0.  1.
         11    1    3    3    0    0 -0.41796385727E+02  0.14510242774E+02 -0.22530016895E+03  0.22960324722E+03  0.00000000000E+00 0. -1.
<mgrwt>
<rscale>  0 0.91267340E+02</rscale>
<asrwt>0</asrwt>
<pdfrwt beam="2">  1        4 0.56215225E-01 0.91267340E+02</pdfrwt>
<pdfrwt beam="1">  1       -4 0.87677898E-03 0.91267340E+02</pdfrwt>
<totfact> 0.15809289E+04</totfact>
</mgrwt>
</event>
<event>
 5    1  0.1227473E+001  0.9595550E+02  0.7546771E-02  0.1289038E+00
         -2   -1    0    0    0  501 -0.00000000000E+00  0.00000000000E+00  0.24199032761E+02  0.24199032761E+02  0.00000000000E+00 0.  1.
          2   -1    0    0  501    0  0.00000000000E+00 -0.00000000000E+00 -0.95122171595E+02  0.95122171595E+02  0.00000000000E+00 0. -1.
         23    2    1    2    0    0  0.00000000000E+00  0.00000000000E+00 -0.70923138833E+02  0.11932120436E+03  0.95955501077E+02 0.  0.
        -13    1    3    3    0    0 -0.36105836819E+02 -0.23043103739E+02 -0.85820380968E+01  0.43683720769E+02  0.00000000000E+00 0.  1.
         13    1    3    3    0    0  0.36105836819E+02  0.23043103739E+02 -0.62341100737E+02  0.75637483587E+02  0.00000000000E+00 0. -1.
<mgrwt>
<rscale>  0 0.95955501E+02</rscale>
<asrwt>0</asrwt>
<pdfrwt beam="2">  1        2 0.14634180E-01 0.95955501E+02</pdfrwt>
<pdfrwt beam="1">  1       -2 0.37229281E-02 0.95955501E+02</pdfrwt>
<totfact> 0.10488392E+05</totfact>
</mgrwt>
</event>
<event>
 5    1  0.1227473E+001  0.8860467E+02  0.7546771E-02  0.1306266E+00
          1   -1    0    0  501    0  0.00000000000E+00  0.00000000000E+00  0.60976751114E+02  0.60976751114E+02  0.00000000000E+00 0. -1.
         -1   -1    0    0    0  501 -0.00000000000E+00 -0.00000000000E+00 -0.32187623949E+02  0.32187623949E+02  0.00000000000E+00 0.  1.
         23    2    1    2    0    0  0.00000000000E+00  0.00000000000E+00  0.28789127165E+02  0.93164375063E+02  0.88604666570E+02 0.  0.
        -13    1    3    3    0    0 -0.19144603988E+02 -0.19985695776E+02  0.50768936280E+02  0.57822390027E+02  0.00000000000E+00 0. -1.
         13    1    3    3    0    0  0.19144603988E+02  0.19985695776E+02 -0.21979809115E+02  0.35341985035E+02  0.00000000000E+00 0.  1.
<mgrwt>
<rscale>  0 0.88604667E+02</rscale>
<asrwt>0</asrwt>
<pdfrwt beam="1">  1        1 0.93810386E-02 0.88604667E+02</pdfrwt>
<pdfrwt beam="2">  1       -1 0.49519421E-02 0.88604667E+02</pdfrwt>
<totfact> 0.10455827E+05</totfact>
</mgrwt>
</event>
<event>
 5    1  0.1227473E+001  0.8478825E+02  0.7546771E-02  0.1315987E+00
          1   -1    0    0  501    0  0.00000000000E+00  0.00000000000E+00  0.27912571107E+03  0.27912571107E+03  0.00000000000E+00 0. -1.
         -1   -1    0    0    0  501 -0.00000000000E+00 -0.00000000000E+00 -0.64388978111E+01  0.64388978111E+01  0.00000000000E+00 0.  1.
         23    2    1    2    0    0  0.00000000000E+00  0.00000000000E+00  0.27268681326E+03  0.28556460888E+03  0.84788252253E+02 0.  0.
        -11    1    3    3    0    0 -0.37425140375E+02 -0.19741338140E+02  0.12749622841E+03  0.13433409777E+03  0.00000000000E+00 0.  1.
         11    1    3    3    0    0  0.37425140375E+02  0.19741338140E+02  0.14519058485E+03  0.15123051111E+03  0.00000000000E+00 0. -1.
<mgrwt>
<rscale>  0 0.84788252E+02</rscale>
<asrwt>0</asrwt>
<pdfrwt beam="1">  1        1 0.42942408E-01 0.84788252E+02</pdfrwt>
<pdfrwt beam="2">  1       -1 0.99059988E-03 0.84788252E+02</pdfrwt>
<totfact> 0.15324456E+05</totfact>
</mgrwt>
</event>
<event>
 5    1  0.1227473E+001  0.9400137E+02  0.7546771E-02  0.1293441E+00
          1   -1    0    0  501    0  0.00000000000E+00  0.00000000000E+00  0.48704130374E+02  0.48704130374E+02  0.00000000000E+00 0. -1.
         -1   -1    0    0    0  501 -0.00000000000E+00 -0.00000000000E+00 -0.45356816112E+02  0.45356816112E+02  0.00000000000E+00 0.  1.
         23    2    1    2    0    0  0.00000000000E+00  0.00000000000E+00  0.33473142627E+01  0.94060946486E+02  0.94001367762E+02 0.  0.
        -11    1    3    3    0    0  0.30163032968E+02 -0.31810474112E+02  0.18635786356E+02  0.47634098650E+02  0.00000000000E+00 0.  1.
         11    1    3    3    0    0 -0.30163032968E+02  0.31810474112E+02 -0.15288472093E+02  0.46426847836E+02  0.00000000000E+00 0. -1.
<mgrwt>
<rscale>  0 0.94001368E+02</rscale>
<asrwt>0</asrwt>
<pdfrwt beam="1">  1        1 0.74929431E-02 0.94001368E+02</pdfrwt>
<pdfrwt beam="2">  1       -1 0.69779717E-02 0.94001368E+02</pdfrwt>
<totfact> 0.85727447E+04</totfact>
</mgrwt>
</event>
<event>
 5    1  0.1227473E+001  0.9210433E+02  0.7546771E-02  0.1297834E+00
          2   -1    0    0  501    0  0.00000000000E+00  0.00000000000E+00  0.19694456749E+03  0.19694456749E+03  0.00000000000E+00 0. -1.
         -2   -1    0    0    0  501 -0.00000000000E+00 -0.00000000000E+00 -0.10768521097E+02  0.10768521097E+02  0.00000000000E+00 0.  1.
         23    2    1    2    0    0  0.00000000000E+00  0.00000000000E+00  0.18617604639E+03  0.20771308859E+03  0.92104326284E+02 0.  0.
        -11    1    3    3    0    0 -0.17927696683E+02  0.37525799293E+02  0.48482265445E+02  0.63875801237E+02  0.00000000000E+00 0.  1.
         11    1    3    3    0    0  0.17927696683E+02 -0.37525799293E+02  0.13769378095E+03  0.14383728735E+03  0.00000000000E+00 0. -1.
<mgrwt>
<rscale>  0 0.92104326E+02</rscale>
<asrwt>0</asrwt>
<pdfrwt beam="1">  1        2 0.30299162E-01 0.92104326E+02</pdfrwt>
<pdfrwt beam="2">  1       -2 0.16566957E-02 0.92104326E+02</pdfrwt>
<totfact> 0.14967971E+05</totfact>
</mgrwt>
</event>
<event>
 5    1  0.1227473E+001  0.9102475E+02  0.7546771E-02  0.1300389E+00
         -3   -1    0    0    0  501 -0.00000000000E+00  0.00000000000E+00  0.11899459064E+03  0.11899459064E+03  0.00000000000E+00 0.  1.
          3   -1    0    0  501    0  0.00000000000E+00 -0.00000000000E+00 -0.17407316053E+02  0.17407316053E+02  0.00000000000E+00 0. -1.
         23    2    1    2    0    0  0.00000000000E+00  0.00000000000E+00  0.10158727459E+03  0.13640190669E+03  0.91024753730E+02 0.  0.
        -13    1    3    3    0    0  0.32929259021E+02 -0.27933074372E+02  0.72342238507E+02  0.84249582882E+02  0.00000000000E+00 0.  1.
         13    1    3    3    0    0 -0.32929259021E+02  0.27933074372E+02  0.29245036080E+02  0.52152323811E+02  0.00000000000E+00 0. -1.
<mgrwt>
<rscale>  0 0.91024754E+02</rscale>
<asrwt>0</asrwt>
<pdfrwt beam="2">  1        3 0.26780487E-02 0.91024754E+02</pdfrwt>
<pdfrwt beam="1">  1       -3 0.18306860E-01 0.91024754E+02</pdfrwt>
<totfact> 0.32307386E+04</totfact>
</mgrwt>
</event>
<event>
 5    1  0.1227473E+001  0.9141679E+02  0.7546771E-02  0.1299457E+00
         -2   -1    0    0    0  501 -0.00000000000E+00  0.00000000000E+00  0.79078193375E+01  0.79078193375E+01  0.00000000000E+00 0.  1.
          2   -1    0    0  501    0  0.00000000000E+00 -0.00000000000E+00 -0.26420146170E+03  0.26420146170E+03  0.00000000000E+00 0. -1.
         23    2    1    2    0    0  0.00000000000E+00  0.00000000000E+00 -0.25629364236E+03  0.27210928104E+03  0.91416791189E+02 0.  0.
        -11    1    3    3    0    0  0.59696224428E+00  0.45697105934E+02 -0.12570027414E+03  0.13375029261E+03  0.00000000000E+00 0.  1.
         11    1    3    3    0    0 -0.59696224428E+00 -0.45697105934E+02 -0.13059336823E+03  0.13835898843E+03  0.00000000000E+00 0. -1.
<mgrwt>
<rscale>  0 0.91416791E+02</rscale>
<asrwt>0</asrwt>
<pdfrwt beam="2">  1        2 0.40646382E-01 0.91416791E+02</pdfrwt>
<pdfrwt beam="1">  1       -2 0.12165875E-02 0.91416791E+02</pdfrwt>
<totfact> 0.17014166E+05</totfact>
</mgrwt>
</event>
<event>
 5    1  0.1227473E+001  0.8894675E+02  0.7546771E-02  0.1305423E+00
         -2   -1    0    0    0  501 -0.00000000000E+00  0.00000000000E+00  0.10303673054E+03  0.10303673054E+03  0.00000000000E+00 0.  1.
          2   -1    0    0  501    0  0.00000000000E+00 -0.00000000000E+00 -0.19195882507E+02  0.19195882507E+02  0.00000000000E+00 0. -1.
         23    2    1    2    0    0  0.00000000000E+00  0.00000000000E+00  0.83840848034E+02  0.12223261305E+03  0.88946747515E+02 0.  0.
        -11    1    3    3    0    0 -0.28368565855E+02 -0.26611871957E+02  0.12289635869E+02  0.40792185618E+02  0.00000000000E+00 0. -1.
         11    1    3    3    0    0  0.28368565855E+02  0.26611871957E+02  0.71551212165E+02  0.81440427430E+02  0.00000000000E+00 0.  1.
<mgrwt>
<rscale>  0 0.88946748E+02</rscale>
<asrwt>0</asrwt>
<pdfrwt beam="2">  1        2 0.29532128E-02 0.88946748E+02</pdfrwt>
<pdfrwt beam="1">  1       -2 0.15851804E-01 0.88946748E+02</pdfrwt>
<totfact> 0.84124026E+04</totfact>
</mgrwt>
</event>
<event>
 5    1  0.1227473E+001  0.9230376E+02  0.7546771E-02  0.1297367E+00
          1   -1    0    0  501    0  0.00000000000E+00  0.00000000000E+00  0.66005408878E+02  0.66005408878E+02  0.00000000000E+00 0. -1.
         -1   -1    0    0    0  501 -0.00000000000E+00 -0.00000000000E+00 -0.32270020028E+02  0.32270020028E+02  0.00000000000E+00 0.  1.
         23    2    1    2    0    0  0.00000000000E+00  0.00000000000E+00  0.33735388850E+02  0.98275428906E+02  0.92303756509E+02 0.  0.
        -13    1    3    3    0    0 -0.26689670590E+01  0.45620419898E+02  0.99965057584E+01  0.46779014785E+02  0.00000000000E+00 0.  1.
         13    1    3    3    0    0  0.26689670590E+01 -0.45620419898E+02  0.23738883092E+02  0.51496414121E+02  0.00000000000E+00 0. -1.
<mgrwt>
<rscale>  0 0.92303757E+02</rscale>
<asrwt>0</asrwt>
<pdfrwt beam="1">  1        1 0.10154678E-01 0.92303757E+02</pdfrwt>
<pdfrwt beam="2">  1       -1 0.49646185E-02 0.92303757E+02</pdfrwt>
<totfact> 0.94510171E+04</totfact>
</mgrwt>
</event>
<event>
 5    1  0.1227473E+001  0.9109599E+02  0.7546771E-02  0.1300219E+00
          1   -1    0    0  501    0  0.00000000000E+00  0.00000000000E+00  0.82282887658E+02  0.82282887658E+02  0.00000000000E+00 0. -1.
         -1   -1    0    0    0  501 -0.00000000000E+00 -0.00000000000E+00 -0.25213258453E+02  0.25213258453E+02  0.00000000000E+00 0.  1.
         23    2    1    2    0    0  0.00000000000E+00  0.00000000000E+00  0.57069629205E+02  0.10749614611E+03  0.91095987020E+02 0.  0.
        -11    1    3    3    0    0  0.13211753577E+02  0.52581041905E+01 -0.22526909219E+02  0.26639439393E+02  0.00000000000E+00 0.  1.
         11    1    3    3    0    0 -0.13211753577E+02 -0.52581041905E+01  0.79596538423E+02  0.80856706718E+02  0.00000000000E+00 0. -1.
<mgrwt>
<rscale>  0 0.91095987E+02</rscale>
<asrwt>0</asrwt>
<pdfrwt beam="1">  1        1 0.12658906E-01 0.91095987E+02</pdfrwt>
<pdfrwt beam="2">  1       -1 0.38789629E-02 0.91095987E+02</pdfrwt>
<totfact> 0.10144059E+05</totfact>
</mgrwt>
</event>
<event>
 5    1  0.1227473E+001  0.9113554E+02  0.7546771E-02  0.1300125E+00
         -1   -1    0    0    0  501 -0.00000000000E+00  0.00000000000E+00  0.11127715859E+02  0.11127715859E+02  0.00000000000E+00 0.  1.
          1   -1    0    0  501    0  0.00000000000E+00 -0.00000000000E+00 -0.18659909507E+03  0.18659909507E+03  0.00000000000E+00 0. -1.
         23    2    1    2    0    0  0.00000000000E+00  0.00000000000E+00 -0.17547137921E+03  0.19772681093E+03  0.91135541023E+02 0.  0.
        -11    1    3    3    0    0 -0.19270754327E+02 -0.36781992451E+02 -0.47022192671E+02  0.62732475996E+02  0.00000000000E+00 0.  1.
         11    1    3    3    0    0  0.19270754327E+02  0.36781992451E+02 -0.12844918654E+03  0.13499433493E+03  0.00000000000E+00 0. -1.
<mgrwt>
<rscale>  0 0.91135541E+02</rscale>
<asrwt>0</asrwt>
<pdfrwt beam="2">  1        1 0.28707553E-01 0.91135541E+02</pdfrwt>
<pdfrwt beam="1">  1       -1 0.17119563E-02 0.91135541E+02</pdfrwt>
<totfact> 0.11697256E+05</totfact>
</mgrwt>
</event>
<event>
 5    1  0.1227473E+001  0.9076369E+02  0.7546771E-02  0.1301013E+00
         -3   -1    0    0    0  501 -0.00000000000E+00  0.00000000000E+00  0.47505464538E+02  0.47505464538E+02  0.00000000000E+00 0.  1.
          3   -1    0    0  501    0  0.00000000000E+00 -0.00000000000E+00 -0.43353152632E+02  0.43353152632E+02  0.00000000000E+00 0. -1.
         23    2    1    2    0    0  0.00000000000E+00  0.00000000000E+00  0.41523119064E+01  0.90858617170E+02  0.90763685579E+02 0.  0.
        -13    1    3    3    0    0 -0.19659553765E+02 -0.40477544703E+02  0.79629507857E+01  0.45698339845E+02  0.00000000000E+00 0.  1.
         13    1    3    3    0    0  0.19659553765E+02  0.40477544703E+02 -0.38106388793E+01  0.45160277325E+02  0.00000000000E+00 0. -1.
<mgrwt>
<rscale>  0 0.90763686E+02</rscale>
<asrwt>0</asrwt>
<pdfrwt beam="2">  1        3 0.66697158E-02 0.90763686E+02</pdfrwt>
<pdfrwt beam="1">  1       -3 0.73085330E-02 0.90763686E+02</pdfrwt>
<totfact> 0.35803231E+04</totfact>
</mgrwt>
</event>
<event>
 5    1  0.1227473E+001  0.8798357E+02  0.7546771E-02  0.1307810E+00
          3   -1    0    0  501    0  0.00000000000E+00  0.00000000000E+00  0.28702689767E+02  0.28702689767E+02  0.00000000000E+00 0. -1.
         -3   -1    0    0    0  501 -0.00000000000E+00 -0.00000000000E+00 -0.67424937429E+02  0.67424937429E+02  0.00000000000E+00 0.  1.
         23    2    1    2    0    0  0.00000000000E+00  0.00000000000E+00 -0.38722247662E+02  0.96127627195E+02  0.87983568047E+02 0.  0.
        -13    1    3    3    0    0 -0.55454028334E+01  0.31150651998E+02  0.14032062059E+02  0.34612329857E+02  0.00000000000E+00 0.  1.
         13    1    3    3    0    0  0.55454028334E+01 -0.31150651998E+02 -0.52754309721E+02  0.61515297338E+02  0.00000000000E+00 0. -1.
<mgrwt>
<rscale>  0 0.87983568E+02</rscale>
<asrwt>0</asrwt>
<pdfrwt beam="1">  1        3 0.44157985E-02 0.87983568E+02</pdfrwt>
<pdfrwt beam="2">  1       -3 0.10373067E-01 0.87983568E+02</pdfrwt>
<totfact> 0.38512769E+04</totfact>
</mgrwt>
</event>
<event>
 5    1  0.1227473E+001  0.8002225E+02  0.7546771E-02  0.1328988E+00
         -4   -1    0    0    0  501 -0.00000000000E+00  0.00000000000E+00  0.91586567735E+01  0.91586567735E+01  0.00000000000E+00 0. -1.
          4   -1    0    0  501    0  0.00000000000E+00 -0.00000000000E+00 -0.17479531101E+03  0.17479531101E+03  0.00000000000E+00 0.  1.
         23    2    1    2    0    0  0.00000000000E+00  0.00000000000E+00 -0.16563665424E+03  0.18395396779E+03  0.80022253384E+02 0.  0.
        -11    1    3    3    0    0  0.29451778534E+02 -0.16546704250E+02 -0.13210513736E+03  0.13635603396E+03  0.00000000000E+00 0.  1.
         11    1    3    3    0    0 -0.29451778534E+02  0.16546704250E+02 -0.33531516879E+02  0.47597933827E+02  0.00000000000E+00 0. -1.
<mgrwt>
<rscale>  0 0.80022253E+02</rscale>
<asrwt>0</asrwt>
<pdfrwt beam="2">  1        4 0.26891585E-01 0.80022253E+02</pdfrwt>
<pdfrwt beam="1">  1       -4 0.14090242E-02 0.80022253E+02</pdfrwt>
<totfact> 0.31211841E+04</totfact>
</mgrwt>
</event>
<event>
 5    1  0.1227473E+001  0.8897363E+02  0.7546771E-02  0.1305356E+00
          2   -1    0    0  501    0  0.00000000000E+00  0.00000000000E+00  0.17829992705E+02  0.17829992705E+02  0.00000000000E+00 0. -1.
         -2   -1    0    0    0  501 -0.00000000000E+00 -0.00000000000E+00 -0.11099706038E+03  0.11099706038E+03  0.00000000000E+00 0.  1.
         23    2    1    2    0    0  0.00000000000E+00  0.00000000000E+00 -0.93167067678E+02  0.12882705309E+03  0.88973631531E+02 0.  0.
        -13    1    3    3    0    0  0.13837347918E+02  0.26568082983E+02  0.10384529668E+01  0.29973548595E+02  0.00000000000E+00 0. -1.
         13    1    3    3    0    0 -0.13837347918E+02 -0.26568082983E+02 -0.94205520645E+02  0.98853504494E+02  0.00000000000E+00 0.  1.
<mgrwt>
<rscale>  0 0.88973632E+02</rscale>
<asrwt>0</asrwt>
<pdfrwt beam="1">  1        2 0.27430758E-02 0.88973632E+02</pdfrwt>
<pdfrwt beam="2">  1       -2 0.17076471E-01 0.88973632E+02</pdfrwt>
<totfact> 0.82180268E+04</totfact>
</mgrwt>
</event>
<event>
 5    1  0.1227473E+001  0.8956239E+02  0.7546771E-02  0.1303915E+00
         -3   -1    0    0    0  501 -0.00000000000E+00  0.00000000000E+00  0.60820049438E+01  0.60820049438E+01  0.00000000000E+00 0.  1.
          3   -1    0    0  501    0  0.00000000000E+00 -0.00000000000E+00 -0.32971948705E+03  0.32971948705E+03  0.00000000000E+00 0. -1.
         23    2    1    2    0    0  0.00000000000E+00  0.00000000000E+00 -0.32363748211E+03  0.33580149200E+03  0.89562392785E+02 0.  0.
        -11    1    3    3    0    0 -0.87426384981E+01 -0.43217500263E+02 -0.19114281970E+03  0.19616259475E+03  0.00000000000E+00 0.  1.
         11    1    3    3    0    0  0.87426384981E+01  0.43217500263E+02 -0.13249466241E+03  0.13963889724E+03  0.00000000000E+00 0. -1.
<mgrwt>
<rscale>  0 0.89562393E+02</rscale>
<asrwt>0</asrwt>
<pdfrwt beam="2">  1        3 0.50726079E-01 0.89562393E+02</pdfrwt>
<pdfrwt beam="1">  1       -3 0.93569299E-03 0.89562393E+02</pdfrwt>
<totfact> 0.23820443E+04</totfact>
</mgrwt>
</event>
<event>
 5    1  0.1227473E+001  0.8214411E+02  0.7546771E-02  0.1323075E+00
         -1   -1    0    0    0  501 -0.00000000000E+00  0.00000000000E+00  0.19501900540E+02  0.19501900540E+02  0.00000000000E+00 0.  1.
          1   -1    0    0  501    0  0.00000000000E+00 -0.00000000000E+00 -0.86499970332E+02  0.86499970332E+02  0.00000000000E+00 0. -1.
         23    2    1    2    0    0  0.00000000000E+00  0.00000000000E+00 -0.66998069791E+02  0.10600187087E+03  0.82144112829E+02 0.  0.
        -11    1    3    3    0    0  0.27924384168E+02 -0.27607458493E+02 -0.49036400615E+02  0.62821266948E+02  0.00000000000E+00 0. -1.
         11    1    3    3    0    0 -0.27924384168E+02  0.27607458493E+02 -0.17961669176E+02  0.43180603924E+02  0.00000000000E+00 0.  1.
<mgrwt>
<rscale>  0 0.82144113E+02</rscale>
<asrwt>0</asrwt>
<pdfrwt beam="2">  1        1 0.13307688E-01 0.82144113E+02</pdfrwt>
<pdfrwt beam="1">  1       -1 0.30002924E-02 0.82144113E+02</pdfrwt>
<totfact> 0.13543590E+05</totfact>
</mgrwt>
</event>
<event>
 5    1  0.1227473E+001  0.1244606E+03  0.7546771E-02  0.1235915E+00
          2   -1    0    0  501    0  0.00000000000E+00  0.00000000000E+00  0.60015518555E+02  0.60015518555E+02  0.00000000000E+00 0.  1.
         -2   -1    0    0    0  501 -0.00000000000E+00 -0.00000000000E+00 -0.64526833876E+02  0.64526833876E+02  0.00000000000E+00 0. -1.
         23    2    1    2    0    0  0.00000000000E+00  0.00000000000E+00 -0.45113153217E+01  0.12454235243E+03  0.12446061860E+03 0.  0.
        -13    1    3    3    0    0 -0.35494210105E+02 -0.18732658132E+01 -0.53370151440E+02  0.64122703784E+02  0.00000000000E+00 0. -1.
         13    1    3    3    0    0  0.35494210105E+02  0.18732658132E+01  0.48858836118E+02  0.60419648647E+02  0.00000000000E+00 0.  1.
<mgrwt>
<rscale>  0 0.12446062E+03</rscale>
<asrwt>0</asrwt>
<pdfrwt beam="1">  1        2 0.92331567E-02 0.12446062E+03</pdfrwt>
<pdfrwt beam="2">  1       -2 0.99272052E-02 0.12446062E+03</pdfrwt>
<totfact> 0.42876160E+04</totfact>
</mgrwt>
</event>
<event>
 5    1  0.1227473E+001  0.9204395E+02  0.7546771E-02  0.1297976E+00
         -2   -1    0    0    0  501 -0.00000000000E+00  0.00000000000E+00  0.45512862487E+02  0.45512862487E+02  0.00000000000E+00 0.  1.
          2   -1    0    0  501    0  0.00000000000E+00 -0.00000000000E+00 -0.46536778406E+02  0.46536778406E+02  0.00000000000E+00 0. -1.
         23    2    1    2    0    0  0.00000000000E+00  0.00000000000E+00 -0.10239159192E+01  0.92049640892E+02  0.92043945942E+02 0.  0.
        -13    1    3    3    0    0 -0.35149180249E+02 -0.14614152379E+02  0.25354361059E+02  0.45737095958E+02  0.00000000000E+00 0.  1.
         13    1    3    3    0    0  0.35149180249E+02  0.14614152379E+02 -0.26378276978E+02  0.46312544934E+02  0.00000000000E+00 0. -1.
<mgrwt>
<rscale>  0 0.92043946E+02</rscale>
<asrwt>0</asrwt>
<pdfrwt beam="2">  1        2 0.71595044E-02 0.92043946E+02</pdfrwt>
<pdfrwt beam="1">  1       -2 0.70019788E-02 0.92043946E+02</pdfrwt>
<totfact> 0.96543927E+04</totfact>
</mgrwt>
</event>
<event>
 5    1  0.1227473E+001  0.9185999E+02  0.7546771E-02  0.1298409E+00
          1   -1    0    0  501    0  0.00000000000E+00  0.00000000000E+00  0.16338714310E+03  0.16338714310E+03  0.00000000000E+00 0. -1.
         -1   -1    0    0    0  501 -0.00000000000E+00 -0.00000000000E+00 -0.12911446227E+02  0.12911446227E+02  0.00000000000E+00 0.  1.
         23    2    1    2    0    0  0.00000000000E+00  0.00000000000E+00  0.15047569687E+03  0.17629858932E+03  0.91859987205E+02 0.  0.
        -11    1    3    3    0    0  0.32733740000E+02 -0.28653352297E+02  0.46962736511E+02  0.64015708642E+02  0.00000000000E+00 0.  1.
         11    1    3    3    0    0 -0.32733740000E+02  0.28653352297E+02  0.10351296036E+03  0.11228288068E+03  0.00000000000E+00 0. -1.
<mgrwt>
<rscale>  0 0.91859987E+02</rscale>
<asrwt>0</asrwt>
<pdfrwt beam="1">  1        1 0.25136482E-01 0.91859987E+02</pdfrwt>
<pdfrwt beam="2">  1       -1 0.19863765E-02 0.91859987E+02</pdfrwt>
<totfact> 0.11165474E+05</totfact>
</mgrwt>
</event>
<event>
 5    1  0.1227473E+001  0.9035926E+02  0.7546771E-02  0.1301984E+00
         -1   -1    0    0    0  501 -0.00000000000E+00  0.00000000000E+00  0.36606539130E+02  0.36606539130E+02  0.00000000000E+00 0.  1.
          1   -1    0    0  501    0  0.00000000000E+00 -0.00000000000E+00 -0.55760502802E+02  0.55760502802E+02  0.00000000000E+00 0. -1.
         23    2    1    2    0    0  0.00000000000E+00  0.00000000000E+00 -0.19153963672E+02  0.92367041931E+02  0.90359261345E+02 0.  0.
        -13    1    3    3    0    0 -0.43690970922E+02 -0.51596566546E+01 -0.20085285392E+02  0.48362606280E+02  0.00000000000E+00 0. -1.
         13    1    3    3    0    0  0.43690970922E+02  0.51596566546E+01  0.93132172000E+00  0.44004435652E+02  0.00000000000E+00 0.  1.
<mgrwt>
<rscale>  0 0.90359261E+02</rscale>
<asrwt>0</asrwt>
<pdfrwt beam="2">  1        1 0.85785389E-02 0.90359261E+02</pdfrwt>
<pdfrwt beam="1">  1       -1 0.56317752E-02 0.90359261E+02</pdfrwt>
<totfact> 0.97726969E+04</totfact>
</mgrwt>
</event>
<event>
 5    1  0.1227473E+001  0.1003062E+03  0.7546771E-02  0.1279653E+00
         -1   -1    0    0    0  501 -0.00000000000E+00  0.00000000000E+00  0.83068031230E+02  0.83068031230E+02  0.00000000000E+00 0.  1.
          1   -1    0    0  501    0  0.00000000000E+00 -0.00000000000E+00 -0.30280395562E+02  0.30280395562E+02  0.00000000000E+00 0. -1.
         23    2    1    2    0    0  0.00000000000E+00  0.00000000000E+00  0.52787635668E+02  0.11334842679E+03  0.10030618813E+03 0.  0.
        -11    1    3    3    0    0  0.35147548401E+02  0.28045273337E+02  0.51495758078E+02  0.68364468953E+02  0.00000000000E+00 0.  1.
         11    1    3    3    0    0 -0.35147548401E+02 -0.28045273337E+02  0.12918775895E+01  0.44983957839E+02  0.00000000000E+00 0. -1.
<mgrwt>
<rscale>  0 0.10030619E+03</rscale>
<asrwt>0</asrwt>
<pdfrwt beam="2">  1        1 0.46585224E-02 0.10030619E+03</pdfrwt>
<pdfrwt beam="1">  1       -1 0.12779697E-01 0.10030619E+03</pdfrwt>
<totfact> 0.65837114E+04</totfact>
</mgrwt>
</event>
<event>
 5    1  0.1227473E+001  0.9006266E+02  0.7546771E-02  0.1302700E+00
          3   -1    0    0  501    0  0.00000000000E+00  0.00000000000E+00  0.59556639237E+02  0.59556639237E+02  0.00000000000E+00 0. -1.
         -3   -1    0    0    0  501 -0.00000000000E+00 -0.00000000000E+00 -0.34048610334E+02  0.34048610334E+02  0.00000000000E+00 0.  1.
         23    2    1    2    0    0  0.00000000000E+00  0.00000000000E+00  0.25508028903E+02  0.93605249570E+02  0.90062662678E+02 0.  0.
        -11    1    3    3    0    0 -0.40628890684E+02 -0.31013223237E+01 -0.71702197852E+01  0.41373143585E+02  0.00000000000E+00 0.  1.
         11    1    3    3    0    0  0.40628890684E+02  0.31013223237E+01  0.32678248688E+02  0.52232105985E+02  0.00000000000E+00 0. -1.
<mgrwt>
<rscale>  0 0.90062663E+02</rscale>
<asrwt>0</asrwt>
<pdfrwt beam="1">  1        3 0.91625599E-02 0.90062663E+02</pdfrwt>
<pdfrwt beam="2">  1       -3 0.52382477E-02 0.90062663E+02</pdfrwt>
<totfact> 0.36347176E+04</totfact>
</mgrwt>
</event>
<event>
 5    1  0.1227473E+001  0.8981979E+02  0.7546771E-02  0.1303289E+00
         -1   -1    0    0    0  501 -0.00000000000E+00  0.00000000000E+00  0.14022837976E+02  0.14022837976E+02  0.00000000000E+00 0.  1.
          1   -1    0    0  501    0  0.00000000000E+00 -0.00000000000E+00 -0.14382954840E+03  0.14382954840E+03  0.00000000000E+00 0. -1.
         23    2    1    2    0    0  0.00000000000E+00  0.00000000000E+00 -0.12980671042E+03  0.15785238638E+03  0.89819785202E+02 0.  0.
        -13    1    3    3    0    0 -0.24485285246E+02  0.27074839878E+02 -0.18929652015E+02  0.41120650206E+02  0.00000000000E+00 0.  1.
         13    1    3    3    0    0  0.24485285246E+02 -0.27074839878E+02 -0.11087705841E+03  0.11673173617E+03  0.00000000000E+00 0. -1.
<mgrwt>
<rscale>  0 0.89819785E+02</rscale>
<asrwt>0</asrwt>
<pdfrwt beam="2">  1        1 0.22127620E-01 0.89819785E+02</pdfrwt>
<pdfrwt beam="1">  1       -1 0.21573599E-02 0.89819785E+02</pdfrwt>
<totfact> 0.11586493E+05</totfact>
</mgrwt>
</event>
<event>
 5    1  0.1227473E+001  0.9095081E+02  0.7546771E-02  0.1300565E+00
          2   -1    0    0  501    0  0.00000000000E+00  0.00000000000E+00  0.20838939077E+02  0.20838939077E+02  0.00000000000E+00 0. -1.
         -2   -1    0    0    0  501 -0.00000000000E+00 -0.00000000000E+00 -0.99237888153E+02  0.99237888153E+02  0.00000000000E+00 0.  1.
         23    2    1    2    0    0  0.00000000000E+00  0.00000000000E+00 -0.78398949077E+02  0.12007682723E+03  0.90950806600E+02 0.  0.
        -13    1    3    3    0    0  0.11143637947E+02  0.39865258286E+02 -0.64060418699E+02  0.76270287326E+02  0.00000000000E+00 0.  1.
         13    1    3    3    0    0 -0.11143637947E+02 -0.39865258286E+02 -0.14338530378E+02  0.43806539904E+02  0.00000000000E+00 0. -1.
<mgrwt>
<rscale>  0 0.90950807E+02</rscale>
<asrwt>0</asrwt>
<pdfrwt beam="1">  1        2 0.32059906E-02 0.90950807E+02</pdfrwt>
<pdfrwt beam="2">  1       -2 0.15267367E-01 0.90950807E+02</pdfrwt>
<totfact> 0.80483912E+04</totfact>
</mgrwt>
</event>
<event>
 5    1  0.1227473E+001  0.8191512E+02  0.7546771E-02  0.1323703E+00
         -1   -1    0    0    0  501 -0.00000000000E+00  0.00000000000E+00  0.40426959298E+02  0.40426959298E+02  0.00000000000E+00 0.  1.
          1   -1    0    0  501    0  0.00000000000E+00 -0.00000000000E+00 -0.41495128171E+02  0.41495128171E+02  0.00000000000E+00 0. -1.
         23    2    1    2    0    0  0.00000000000E+00  0.00000000000E+00 -0.10681688729E+01  0.81922087470E+02  0.81915123333E+02 0.  0.
        -11    1    3    3    0    0  0.34407239452E+02  0.20768811689E+02 -0.84290694854E+01  0.41063985170E+02  0.00000000000E+00 0.  1.
         11    1    3    3    0    0 -0.34407239452E+02 -0.20768811689E+02  0.73609006126E+01  0.40858102299E+02  0.00000000000E+00 0. -1.
<mgrwt>
<rscale>  0 0.81915123E+02</rscale>
<asrwt>0</asrwt>
<pdfrwt beam="2">  1        1 0.63838659E-02 0.81915123E+02</pdfrwt>
<pdfrwt beam="1">  1       -1 0.62195322E-02 0.81915123E+02</pdfrwt>
<totfact> 0.12296091E+05</totfact>
</mgrwt>
</event>
<event>
 5    1  0.1227473E+001  0.8256285E+02  0.7546771E-02  0.1321932E+00
         -1   -1    0    0    0  501 -0.00000000000E+00  0.00000000000E+00  0.42884325018E+02  0.42884325018E+02  0.00000000000E+00 0.  1.
          1   -1    0    0  501    0  0.00000000000E+00 -0.00000000000E+00 -0.39738440670E+02  0.39738440670E+02  0.00000000000E+00 0. -1.
         23    2    1    2    0    0  0.00000000000E+00  0.00000000000E+00  0.31458843478E+01  0.82622765689E+02  0.82562853764E+02 0.  0.
        -11    1    3    3    0    0  0.36014942792E+02 -0.12124563720E+01 -0.18581435217E+02  0.40543999426E+02  0.00000000000E+00 0. -1.
         11    1    3    3    0    0 -0.36014942792E+02  0.12124563720E+01  0.21727319564E+02  0.42078766263E+02  0.00000000000E+00 0.  1.
<mgrwt>
<rscale>  0 0.82562854E+02</rscale>
<asrwt>0</asrwt>
<pdfrwt beam="2">  1        1 0.61136063E-02 0.82562854E+02</pdfrwt>
<pdfrwt beam="1">  1       -1 0.65975885E-02 0.82562854E+02</pdfrwt>
<totfact> 0.11958722E+05</totfact>
</mgrwt>
</event>
<event>
 5    1  0.1227473E+001  0.9179360E+02  0.7546771E-02  0.1298565E+00
         -2   -1    0    0    0  501 -0.00000000000E+00  0.00000000000E+00  0.82336548414E+01  0.82336548414E+01  0.00000000000E+00 0.  1.
          2   -1    0    0  501    0  0.00000000000E+00 -0.00000000000E+00 -0.25584217443E+03  0.25584217443E+03  0.00000000000E+00 0. -1.
         23    2    1    2    0    0  0.00000000000E+00  0.00000000000E+00 -0.24760851959E+03  0.26407582928E+03  0.91793597994E+02 0.  0.
        -13    1    3    3    0    0 -0.12794807521E+02 -0.35638747673E+02 -0.19841877693E+03  0.20199960018E+03  0.00000000000E+00 0.  1.
         13    1    3    3    0    0  0.12794807521E+02  0.35638747673E+02 -0.49189742662E+02  0.62076229093E+02  0.00000000000E+00 0. -1.
<mgrwt>
<rscale>  0 0.91793598E+02</rscale>
<asrwt>0</asrwt>
<pdfrwt beam="2">  1        2 0.39360329E-01 0.91793598E+02</pdfrwt>
<pdfrwt beam="1">  1       -2 0.12667163E-02 0.91793598E+02</pdfrwt>
<totfact> 0.16627144E+05</totfact>
</mgrwt>
</event>
<event>
 5    1  0.1227473E+001  0.9514891E+02  0.7546771E-02  0.1290841E+00
          2   -1    0    0  501    0  0.00000000000E+00  0.00000000000E+00  0.19213893505E+03  0.19213893505E+03  0.00000000000E+00 0. -1.
         -2   -1    0    0    0  501 -0.00000000000E+00 -0.00000000000E+00 -0.11779647548E+02  0.11779647548E+02  0.00000000000E+00 0.  1.
         23    2    1    2    0    0  0.00000000000E+00  0.00000000000E+00  0.18035928750E+03  0.20391858260E+03  0.95148913501E+02 0.  0.
        -13    1    3    3    0    0  0.22821075723E+02 -0.30472109712E+02  0.29034876642E+02  0.47878753420E+02  0.00000000000E+00 0.  1.
         13    1    3    3    0    0 -0.22821075723E+02  0.30472109712E+02  0.15132441086E+03  0.15603982918E+03  0.00000000000E+00 0. -1.
<mgrwt>
<rscale>  0 0.95148914E+02</rscale>
<asrwt>0</asrwt>
<pdfrwt beam="1">  1        2 0.29559834E-01 0.95148914E+02</pdfrwt>
<pdfrwt beam="2">  1       -2 0.18122536E-02 0.95148914E+02</pdfrwt>
<totfact> 0.13585634E+05</totfact>
</mgrwt>
</event>
<event>
 5    1  0.1227473E+001  0.9164838E+02  0.7546771E-02  0.1298908E+00
         -1   -1    0    0    0  501 -0.00000000000E+00  0.00000000000E+00  0.11083182836E+03  0.11083182836E+03  0.00000000000E+00 0.  1.
          1   -1    0    0  501    0  0.00000000000E+00 -0.00000000000E+00 -0.18946331774E+02  0.18946331774E+02  0.00000000000E+00 0. -1.
         23    2    1    2    0    0  0.00000000000E+00  0.00000000000E+00  0.91885496591E+02  0.12977816014E+03  0.91648384411E+02 0.  0.
        -11    1    3    3    0    0  0.10088926269E+01  0.24158615872E+02 -0.91775781546E+01  0.25862801975E+02  0.00000000000E+00 0. -1.
         11    1    3    3    0    0 -0.10088926269E+01 -0.24158615872E+02  0.10106307475E+03  0.10391535816E+03  0.00000000000E+00 0.  1.
<mgrwt>
<rscale>  0 0.91648384E+02</rscale>
<asrwt>0</asrwt>
<pdfrwt beam="2">  1        1 0.29148203E-02 0.91648384E+02</pdfrwt>
<pdfrwt beam="1">  1       -1 0.17051050E-01 0.91648384E+02</pdfrwt>
<totfact> 0.78733365E+04</totfact>
</mgrwt>
</event>
<event>
 5    1  0.1227473E+001  0.8960339E+02  0.7546771E-02  0.1303815E+00
          1   -1    0    0  501    0  0.00000000000E+00  0.00000000000E+00  0.30658650493E+02  0.30658650493E+02  0.00000000000E+00 0. -1.
         -1   -1    0    0    0  501 -0.00000000000E+00 -0.00000000000E+00 -0.65469028878E+02  0.65469028878E+02  0.00000000000E+00 0.  1.
         23    2    1    2    0    0  0.00000000000E+00  0.00000000000E+00 -0.34810378385E+02  0.96127679371E+02  0.89603394455E+02 0.  0.
        -13    1    3    3    0    0 -0.49032462728E+01  0.22584525832E+02  0.23770279779E+02  0.33153111948E+02  0.00000000000E+00 0. -1.
         13    1    3    3    0    0  0.49032462728E+01 -0.22584525832E+02 -0.58580658165E+02  0.62974567423E+02  0.00000000000E+00 0.  1.
<mgrwt>
<rscale>  0 0.89603394E+02</rscale>
<asrwt>0</asrwt>
<pdfrwt beam="1">  1        1 0.47167155E-02 0.89603394E+02</pdfrwt>
<pdfrwt beam="2">  1       -1 0.10072158E-01 0.89603394E+02</pdfrwt>
<totfact> 0.91428436E+04</totfact>
</mgrwt>
</event>
<event>
 5    1  0.1227473E+001  0.9279877E+02  0.7546771E-02  0.1296212E+00
         -2   -1    0    0    0  501 -0.00000000000E+00  0.00000000000E+00  0.11542219867E+02  0.11542219867E+02  0.00000000000E+00 0.  1.
          2   -1    0    0  501    0  0.00000000000E+00 -0.00000000000E+00 -0.18652416218E+03  0.18652416218E+03  0.00000000000E+00 0. -1.
         23    2    1    2    0    0  0.00000000000E+00  0.00000000000E+00 -0.17498194231E+03  0.19806638204E+03  0.92798769180E+02 0.  0.
        -11    1    3    3    0    0 -0.41972570755E+02 -0.11211803067E+02 -0.52713165331E+02  0.68308703860E+02  0.00000000000E+00 0.  1.
         11    1    3    3    0    0  0.41972570755E+02  0.11211803067E+02 -0.12226877698E+03  0.12975767818E+03  0.00000000000E+00 0. -1.
<mgrwt>
<rscale>  0 0.92798769E+02</rscale>
<asrwt>0</asrwt>
<pdfrwt beam="2">  1        2 0.28696023E-01 0.92798769E+02</pdfrwt>
<pdfrwt beam="1">  1       -2 0.17757262E-02 0.92798769E+02</pdfrwt>
<totfact> 0.14382920E+05</totfact>
</mgrwt>
</event>
<event>
 5    1  0.1227473E+001  0.9132883E+02  0.7546771E-02  0.1299665E+00
         -1   -1    0    0    0  501 -0.00000000000E+00  0.00000000000E+00  0.94503122728E+01  0.94503122728E+01  0.00000000000E+00 0.  1.
          1   -1    0    0  501    0  0.00000000000E+00 -0.00000000000E+00 -0.22065288370E+03  0.22065288370E+03  0.00000000000E+00 0. -1.
         23    2    1    2    0    0  0.00000000000E+00  0.00000000000E+00 -0.21120257143E+03  0.23010319597E+03  0.91328826881E+02 0.  0.
        -13    1    3    3    0    0 -0.41760333322E+02  0.11612526788E+02 -0.69399057937E+02  0.81823013023E+02  0.00000000000E+00 0.  1.
         13    1    3    3    0    0  0.41760333322E+02 -0.11612526788E+02 -0.14180351349E+03  0.14828018295E+03  0.00000000000E+00 0. -1.
<mgrwt>
<rscale>  0 0.91328827E+02</rscale>
<asrwt>0</asrwt>
<pdfrwt beam="2">  1        1 0.33946599E-01 0.91328827E+02</pdfrwt>
<pdfrwt beam="1">  1       -1 0.14538941E-02 0.91328827E+02</pdfrwt>
<totfact> 0.12015564E+05</totfact>
</mgrwt>
</event>
<event>
 5    1  0.1227473E+001  0.7955982E+02  0.7546771E-02  0.1330305E+00
         -1   -1    0    0    0  501 -0.00000000000E+00  0.00000000000E+00  0.59233163649E+02  0.59233163649E+02  0.00000000000E+00 0. -1.
          1   -1    0    0  501    0  0.00000000000E+00 -0.00000000000E+00 -0.26715460222E+02  0.26715460222E+02  0.00000000000E+00 0.  1.
         23    2    1    2    0    0  0.00000000000E+00  0.00000000000E+00  0.32517703427E+02  0.85948623871E+02  0.79559819690E+02 0.  0.
        -13    1    3    3    0    0 -0.98728582001E+01  0.34813737580E+02 -0.15897356497E+01  0.36221497936E+02  0.00000000000E+00 0.  1.
         13    1    3    3    0    0  0.98728582001E+01 -0.34813737580E+02  0.34107439077E+02  0.49727125935E+02  0.00000000000E+00 0. -1.
<mgrwt>
<rscale>  0 0.79559820E+02</rscale>
<asrwt>0</asrwt>
<pdfrwt beam="2">  1        1 0.41100708E-02 0.79559820E+02</pdfrwt>
<pdfrwt beam="1">  1       -1 0.91127944E-02 0.79559820E+02</pdfrwt>
<totfact> 0.12545913E+05</totfact>
</mgrwt>
</event>
<event>
 5    1  0.1227473E+001  0.9251336E+02  0.7546771E-02  0.1296877E+00
         -1   -1    0    0    0  501 -0.00000000000E+00  0.00000000000E+00  0.84252756422E+01  0.84252756422E+01  0.00000000000E+00 0.  1.
          1   -1    0    0  501    0  0.00000000000E+00 -0.00000000000E+00 -0.25395968115E+03  0.25395968115E+03  0.00000000000E+00 0. -1.
         23    2    1    2    0    0  0.00000000000E+00  0.00000000000E+00 -0.24553440551E+03  0.26238495680E+03  0.92513357214E+02 0.  0.
        -11    1    3    3    0    0  0.66399709388E+00  0.40104436625E+02 -0.18811486410E+03  0.19234346577E+03  0.00000000000E+00 0. -1.
         11    1    3    3    0    0 -0.66399709388E+00 -0.40104436625E+02 -0.57419541408E+02  0.70041491022E+02  0.00000000000E+00 0.  1.
<mgrwt>
<rscale>  0 0.92513357E+02</rscale>
<asrwt>0</asrwt>
<pdfrwt beam="2">  1        1 0.39070719E-01 0.92513357E+02</pdfrwt>
<pdfrwt beam="1">  1       -1 0.12961963E-02 0.92513357E+02</pdfrwt>
<totfact> 0.11931322E+05</totfact>
</mgrwt>
</event>
<event>
 5    1  0.1227473E+001  0.9364018E+02  0.7546771E-02  0.1294268E+00
         -1   -1    0    0    0  501 -0.00000000000E+00  0.00000000000E+00  0.27038807422E+02  0.27038807422E+02  0.00000000000E+00 0.  1.
          1   -1    0    0  501    0  0.00000000000E+00 -0.00000000000E+00 -0.81073131868E+02  0.81073131868E+02  0.00000000000E+00 0. -1.
         23    2    1    2    0    0  0.00000000000E+00  0.00000000000E+00 -0.54034324445E+02  0.10811193929E+03  0.93640179404E+02 0.  0.
        -13    1    3    3    0    0 -0.40062365504E+02 -0.72073000123E+01 -0.53726453920E+02  0.67405268000E+02  0.00000000000E+00 0. -1.
         13    1    3    3    0    0  0.40062365504E+02  0.72073000123E+01 -0.30787052471E+00  0.40706671290E+02  0.00000000000E+00 0.  1.
<mgrwt>
<rscale>  0 0.93640179E+02</rscale>
<asrwt>0</asrwt>
<pdfrwt beam="2">  1        1 0.12472789E-01 0.93640179E+02</pdfrwt>
<pdfrwt beam="1">  1       -1 0.41598166E-02 0.93640179E+02</pdfrwt>
<totfact> 0.93817340E+04</totfact>
</mgrwt>
</event>
<event>
 5    1  0.1227473E+001  0.9039019E+02  0.7546771E-02  0.1301910E+00
         -1   -1    0    0    0  501 -0.00000000000E+00  0.00000000000E+00  0.65174849379E+01  0.65174849379E+01  0.00000000000E+00 0.  1.
          1   -1    0    0  501    0  0.00000000000E+00 -0.00000000000E+00 -0.31340260022E+03  0.31340260022E+03  0.00000000000E+00 0. -1.
         23    2    1    2    0    0  0.00000000000E+00  0.00000000000E+00 -0.30688511528E+03  0.31992008516E+03  0.90390192530E+02 0.  0.
        -11    1    3    3    0    0  0.51710578022E+01 -0.42992553033E+02 -0.19924873639E+03  0.20389987348E+03  0.00000000000E+00 0.  1.
         11    1    3    3    0    0 -0.51710578022E+01  0.42992553033E+02 -0.10763637889E+03  0.11602021167E+03  0.00000000000E+00 0. -1.
<mgrwt>
<rscale>  0 0.90390193E+02</rscale>
<asrwt>0</asrwt>
<pdfrwt beam="2">  1        1 0.48215780E-01 0.90390193E+02</pdfrwt>
<pdfrwt beam="1">  1       -1 0.10026901E-02 0.90390193E+02</pdfrwt>
<totfact> 0.13219963E+05</totfact>
</mgrwt>
</event>
<event>
 5    1  0.1227473E+001  0.9297693E+02  0.7546771E-02  0.1295799E+00
         -2   -1    0    0    0  501 -0.00000000000E+00  0.00000000000E+00  0.16058450468E+02  0.16058450468E+02  0.00000000000E+00 0.  1.
          2   -1    0    0  501    0  0.00000000000E+00 -0.00000000000E+00 -0.13458194214E+03  0.13458194214E+03  0.00000000000E+00 0. -1.
         23    2    1    2    0    0  0.00000000000E+00  0.00000000000E+00 -0.11852349167E+03  0.15064039261E+03  0.92976931586E+02 0.  0.
        -13    1    3    3    0    0 -0.40895001742E+02 -0.18260401556E+01 -0.94959002482E+02  0.10340671034E+03  0.00000000000E+00 0. -1.
         13    1    3    3    0    0  0.40895001742E+02  0.18260401556E+01 -0.23564489188E+02  0.47233682270E+02  0.00000000000E+00 0.  1.
<mgrwt>
<rscale>  0 0.92976932E+02</rscale>
<asrwt>0</asrwt>
<pdfrwt beam="2">  1        2 0.20704915E-01 0.92976932E+02</pdfrwt>
<pdfrwt beam="1">  1       -2 0.24705308E-02 0.92976932E+02</pdfrwt>
<totfact> 0.12780622E+05</totfact>
</mgrwt>
</event>
<event>
 5    1  0.1227473E+001  0.9123805E+02  0.7546771E-02  0.1299881E+00
          2   -1    0    0  501    0  0.00000000000E+00  0.00000000000E+00  0.29170643552E+03  0.29170643552E+03  0.00000000000E+00 0. -1.
         -2   -1    0    0    0  501 -0.00000000000E+00 -0.00000000000E+00 -0.71342111591E+01  0.71342111591E+01  0.00000000000E+00 0.  1.
         23    2    1    2    0    0  0.00000000000E+00  0.00000000000E+00  0.28457222436E+03  0.29884064668E+03  0.91238047052E+02 0.  0.
        -13    1    3    3    0    0  0.14302871459E+01 -0.40564384171E+02  0.74083898796E+02  0.84474487541E+02  0.00000000000E+00 0.  1.
         13    1    3    3    0    0 -0.14302871459E+01  0.40564384171E+02  0.21048832557E+03  0.21436615914E+03  0.00000000000E+00 0. -1.
<mgrwt>
<rscale>  0 0.91238047E+02</rscale>
<asrwt>0</asrwt>
<pdfrwt beam="1">  1        2 0.44877904E-01 0.91238047E+02</pdfrwt>
<pdfrwt beam="2">  1       -2 0.10975712E-02 0.91238047E+02</pdfrwt>
<totfact> 0.17747463E+05</totfact>
</mgrwt>
</event>
<event>
 5    1  0.1227473E+001  0.8667104E+02  0.7546771E-02  0.1311120E+00
          2   -1    0    0  501    0  0.00000000000E+00  0.00000000000E+00  0.25091360677E+03  0.25091360677E+03  0.00000000000E+00 0. -1.
         -2   -1    0    0    0  501 -0.00000000000E+00 -0.00000000000E+00 -0.74845172900E+01  0.74845172900E+01  0.00000000000E+00 0.  1.
         23    2    1    2    0    0  0.00000000000E+00  0.00000000000E+00  0.24342908948E+03  0.25839812406E+03  0.86671038489E+02 0.  0.
        -11    1    3    3    0    0  0.42262882618E+02 -0.20538503229E+01  0.93810853496E+02  0.10291183499E+03  0.00000000000E+00 0. -1.
         11    1    3    3    0    0 -0.42262882618E+02  0.20538503229E+01  0.14961823599E+03  0.15548628907E+03  0.00000000000E+00 0.  1.
<mgrwt>
<rscale>  0 0.86671038E+02</rscale>
<asrwt>0</asrwt>
<pdfrwt beam="1">  1        2 0.38602087E-01 0.86671038E+02</pdfrwt>
<pdfrwt beam="2">  1       -2 0.11514644E-02 0.86671038E+02</pdfrwt>
<totfact> 0.19242943E+05</totfact>
</mgrwt>
</event>
<event>
 5    1  0.1227473E+001  0.9221282E+02  0.7546771E-02  0.1297580E+00
         -1   -1    0    0    0  501 -0.00000000000E+00  0.00000000000E+00  0.41629955731E+02  0.41629955731E+02  0.00000000000E+00 0.  1.
          1   -1    0    0  501    0  0.00000000000E+00 -0.00000000000E+00 -0.51064221129E+02  0.51064221129E+02  0.00000000000E+00 0. -1.
         23    2    1    2    0    0  0.00000000000E+00  0.00000000000E+00 -0.94342653982E+01  0.92694176860E+02  0.92212824814E+02 0.  0.
        -13    1    3    3    0    0  0.92864444848E+01  0.22799692884E+02  0.34470170369E+02  0.42358667260E+02  0.00000000000E+00 0. -1.
         13    1    3    3    0    0 -0.92864444848E+01 -0.22799692884E+02 -0.43904435767E+02  0.50335509601E+02  0.00000000000E+00 0.  1.
<mgrwt>
<rscale>  0 0.92212825E+02</rscale>
<asrwt>0</asrwt>
<pdfrwt beam="2">  1        1 0.78560340E-02 0.92212825E+02</pdfrwt>
<pdfrwt beam="1">  1       -1 0.64046086E-02 0.92212825E+02</pdfrwt>
<totfact> 0.91133882E+04</totfact>
</mgrwt>
</event>
<event>
 5    1  0.1227473E+001  0.9081474E+02  0.7546771E-02  0.1300891E+00
         -1   -1    0    0    0  501 -0.00000000000E+00  0.00000000000E+00  0.14052255424E+02  0.14052255424E+02  0.00000000000E+00 0.  1.
          1   -1    0    0  501    0  0.00000000000E+00 -0.00000000000E+00 -0.14672584312E+03  0.14672584312E+03  0.00000000000E+00 0. -1.
         23    2    1    2    0    0  0.00000000000E+00  0.00000000000E+00 -0.13267358770E+03  0.16077809854E+03  0.90814735035E+02 0.  0.
        -11    1    3    3    0    0  0.39615205832E+02  0.20555642830E+02 -0.81141590785E+02  0.92605921735E+02  0.00000000000E+00 0.  1.
         11    1    3    3    0    0 -0.39615205832E+02 -0.20555642830E+02 -0.51531996910E+02  0.68172176809E+02  0.00000000000E+00 0. -1.
<mgrwt>
<rscale>  0 0.90814735E+02</rscale>
<asrwt>0</asrwt>
<pdfrwt beam="2">  1        1 0.22573207E-01 0.90814735E+02</pdfrwt>
<pdfrwt beam="1">  1       -1 0.21618854E-02 0.90814735E+02</pdfrwt>
<totfact> 0.11288523E+05</totfact>
</mgrwt>
</event>
<event>
 5    1  0.1227473E+001  0.9653879E+02  0.7546771E-02  0.1287747E+00
         -2   -1    0    0    0  501 -0.00000000000E+00  0.00000000000E+00  0.64228419483E+01  0.64228419483E+01  0.00000000000E+00 0.  1.
          2   -1    0    0  501    0  0.00000000000E+00 -0.00000000000E+00 -0.36275755017E+03  0.36275755017E+03  0.00000000000E+00 0. -1.
         23    2    1    2    0    0  0.00000000000E+00  0.00000000000E+00 -0.35633470822E+03  0.36918039212E+03  0.96538788273E+02 0.  0.
        -13    1    3    3    0    0  0.25146746712E+02  0.36764644727E+02 -0.10704028093E+03  0.11593799944E+03  0.00000000000E+00 0.  1.
         13    1    3    3    0    0 -0.25146746712E+02 -0.36764644727E+02 -0.24929442729E+03  0.25324239267E+03  0.00000000000E+00 0. -1.
<mgrwt>
<rscale>  0 0.96538788E+02</rscale>
<asrwt>0</asrwt>
<pdfrwt beam="2">  1        2 0.55808839E-01 0.96538788E+02</pdfrwt>
<pdfrwt beam="1">  1       -2 0.98812980E-03 0.96538788E+02</pdfrwt>
<totfact> 0.16544448E+05</totfact>
</mgrwt>
</event>
<event>
 5    1  0.1227473E+001  0.8978876E+02  0.7546771E-02  0.1303364E+00
          4   -1    0    0  501    0  0.00000000000E+00  0.00000000000E+00  0.10085161923E+03  0.10085161923E+03  0.00000000000E+00 0.  1.
         -4   -1    0    0    0  501 -0.00000000000E+00 -0.00000000000E+00 -0.19984858519E+02  0.19984858519E+02  0.00000000000E+00 0. -1.
         23    2    1    2    0    0  0.00000000000E+00  0.00000000000E+00  0.80866760708E+02  0.12083647775E+03  0.89788759690E+02 0.  0.
        -13    1    3    3    0    0  0.86927953569E+01 -0.39978863103E+02  0.15558853986E+02  0.43771590369E+02  0.00000000000E+00 0.  1.
         13    1    3    3    0    0 -0.86927953569E+01  0.39978863103E+02  0.65307906721E+02  0.77064887377E+02  0.00000000000E+00 0. -1.
<mgrwt>
<rscale>  0 0.89788760E+02</rscale>
<asrwt>0</asrwt>
<pdfrwt beam="1">  1        4 0.15515633E-01 0.89788760E+02</pdfrwt>
<pdfrwt beam="2">  1       -4 0.30745937E-02 0.89788760E+02</pdfrwt>
<totfact> 0.26289802E+04</totfact>
</mgrwt>
</event>
<event>
 5    1  0.1227473E+001  0.9172877E+02  0.7546771E-02  0.1298718E+00
         -2   -1    0    0    0  501 -0.00000000000E+00  0.00000000000E+00  0.58843583734E+02  0.58843583734E+02  0.00000000000E+00 0.  1.
          2   -1    0    0  501    0  0.00000000000E+00 -0.00000000000E+00 -0.35748023319E+02  0.35748023319E+02  0.00000000000E+00 0. -1.
         23    2    1    2    0    0  0.00000000000E+00  0.00000000000E+00  0.23095560415E+02  0.94591607053E+02  0.91728769827E+02 0.  0.
        -11    1    3    3    0    0  0.74276088692E+01 -0.42012552819E+02  0.28905153049E+02  0.51533793192E+02  0.00000000000E+00 0.  1.
         11    1    3    3    0    0 -0.74276088692E+01  0.42012552819E+02 -0.58095926338E+01  0.43057813861E+02  0.00000000000E+00 0. -1.
<mgrwt>
<rscale>  0 0.91728770E+02</rscale>
<asrwt>0</asrwt>
<pdfrwt beam="2">  1        2 0.54996959E-02 0.91728770E+02</pdfrwt>
<pdfrwt beam="1">  1       -2 0.90528590E-02 0.91728770E+02</pdfrwt>
<totfact> 0.91024839E+04</totfact>
</mgrwt>
</event>
<event>
 5    1  0.1227473E+001  0.9146625E+02  0.7546771E-02  0.1299339E+00
          2   -1    0    0  501    0  0.00000000000E+00  0.00000000000E+00  0.11547903115E+03  0.11547903115E+03  0.00000000000E+00 0. -1.
         -2   -1    0    0    0  501 -0.00000000000E+00 -0.00000000000E+00 -0.18111674202E+02  0.18111674202E+02  0.00000000000E+00 0.  1.
         23    2    1    2    0    0  0.00000000000E+00  0.00000000000E+00  0.97367356945E+02  0.13359070535E+03  0.91466247093E+02 0.  0.
        -11    1    3    3    0    0  0.25868695165E+02  0.36602746068E+02  0.35412125683E+02  0.57122404139E+02  0.00000000000E+00 0. -1.
         11    1    3    3    0    0 -0.25868695165E+02 -0.36602746068E+02  0.61955231262E+02  0.76468301211E+02  0.00000000000E+00 0.  1.
<mgrwt>
<rscale>  0 0.91466247E+02</rscale>
<asrwt>0</asrwt>
<pdfrwt beam="1">  1        2 0.17766004E-01 0.91466247E+02</pdfrwt>
<pdfrwt beam="2">  1       -2 0.27864115E-02 0.91466247E+02</pdfrwt>
<totfact> 0.12717587E+05</totfact>
</mgrwt>
</event>
<event>
 5    1  0.1227473E+001  0.8923092E+02  0.7546771E-02  0.1304725E+00
         -2   -1    0    0    0  501 -0.00000000000E+00  0.00000000000E+00  0.61277954811E+02  0.61277954811E+02  0.00000000000E+00 0.  1.
          2   -1    0    0  501    0  0.00000000000E+00 -0.00000000000E+00 -0.32483777688E+02  0.32483777688E+02  0.00000000000E+00 0. -1.
         23    2    1    2    0    0  0.00000000000E+00  0.00000000000E+00  0.28794177123E+02  0.93761732499E+02  0.89230924264E+02 0.  0.
        -11    1    3    3    0    0 -0.42635209516E+02 -0.33898863300E+01  0.27741824045E+02  0.50979027268E+02  0.00000000000E+00 0. -1.
         11    1    3    3    0    0  0.42635209516E+02  0.33898863300E+01  0.10523530774E+01  0.42782705231E+02  0.00000000000E+00 0.  1.
<mgrwt>
<rscale>  0 0.89230924E+02</rscale>
<asrwt>0</asrwt>
<pdfrwt beam="2">  1        2 0.49975043E-02 0.89230924E+02</pdfrwt>
<pdfrwt beam="1">  1       -2 0.94273777E-02 0.89230924E+02</pdfrwt>
<totfact> 0.96261654E+04</totfact>
</mgrwt>
</event>
<event>
 5    1  0.1227473E+001  0.9144835E+02  0.7546771E-02  0.1299382E+00
          1   -1    0    0  501    0  0.00000000000E+00  0.00000000000E+00  0.31940175745E+02  0.31940175745E+02  0.00000000000E+00 0. -1.
         -1   -1    0    0    0  501 -0.00000000000E+00 -0.00000000000E+00 -0.65456753770E+02  0.65456753770E+02  0.00000000000E+00 0.  1.
         23    2    1    2    0    0  0.00000000000E+00  0.00000000000E+00 -0.33516578025E+02  0.97396929514E+02  0.91448350867E+02 0.  0.
        -11    1    3    3    0    0 -0.33047480851E+02 -0.11434936691E+02 -0.48133078814E+02  0.59495269088E+02  0.00000000000E+00 0.  1.
         11    1    3    3    0    0  0.33047480851E+02  0.11434936691E+02  0.14616500789E+02  0.37901660426E+02  0.00000000000E+00 0. -1.
<mgrwt>
<rscale>  0 0.91448351E+02</rscale>
<asrwt>0</asrwt>
<pdfrwt beam="1">  1        1 0.49138733E-02 0.91448351E+02</pdfrwt>
<pdfrwt beam="2">  1       -1 0.10070270E-01 0.91448351E+02</pdfrwt>
<totfact> 0.86815229E+04</totfact>
</mgrwt>
</event>
<event>
 5    1  0.1227473E+001  0.9081247E+02  0.7546771E-02  0.1300896E+00
          3   -1    0    0  501    0  0.00000000000E+00  0.00000000000E+00  0.53107200458E+02  0.53107200458E+02  0.00000000000E+00 0. -1.
         -3   -1    0    0    0  501 -0.00000000000E+00 -0.00000000000E+00 -0.38821968786E+02  0.38821968786E+02  0.00000000000E+00 0.  1.
         23    2    1    2    0    0  0.00000000000E+00  0.00000000000E+00  0.14285231673E+02  0.91929169244E+02  0.90812467833E+02 0.  0.
        -13    1    3    3    0    0 -0.13138296085E+02 -0.25629377212E+02 -0.28392408336E+02  0.40442658807E+02  0.00000000000E+00 0.  1.
         13    1    3    3    0    0  0.13138296085E+02  0.25629377212E+02  0.42677640009E+02  0.51486510437E+02  0.00000000000E+00 0. -1.
<mgrwt>
<rscale>  0 0.90812468E+02</rscale>
<asrwt>0</asrwt>
<pdfrwt beam="1">  1        3 0.81703386E-02 0.90812468E+02</pdfrwt>
<pdfrwt beam="2">  1       -3 0.59726106E-02 0.90812468E+02</pdfrwt>
<totfact> 0.35667820E+04</totfact>
</mgrwt>
</event>
<event>
 5    1  0.1227473E+001  0.8956685E+02  0.7546771E-02  0.1303904E+00
          1   -1    0    0  501    0  0.00000000000E+00  0.00000000000E+00  0.75580977301E+02  0.75580977301E+02  0.00000000000E+00 0. -1.
         -1   -1    0    0    0  501 -0.00000000000E+00 -0.00000000000E+00 -0.26535183437E+02  0.26535183437E+02  0.00000000000E+00 0.  1.
         23    2    1    2    0    0  0.00000000000E+00  0.00000000000E+00  0.49045793864E+02  0.10211616074E+03  0.89566848711E+02 0.  0.
        -11    1    3    3    0    0  0.88773684360E+01 -0.43894068582E+02  0.24247919660E+02  0.50926010396E+02  0.00000000000E+00 0.  1.
         11    1    3    3    0    0 -0.88773684360E+01  0.43894068582E+02  0.24797874205E+02  0.51190150342E+02  0.00000000000E+00 0. -1.
<mgrwt>
<rscale>  0 0.89566849E+02</rscale>
<asrwt>0</asrwt>
<pdfrwt beam="1">  1        1 0.11627843E-01 0.89566849E+02</pdfrwt>
<pdfrwt beam="2">  1       -1 0.40823360E-02 0.89566849E+02</pdfrwt>
<totfact> 0.10485287E+05</totfact>
</mgrwt>
</event>
<event>
 5    1  0.1227473E+001  0.9043922E+02  0.7546771E-02  0.1301792E+00
         -1   -1    0    0    0  501 -0.00000000000E+00  0.00000000000E+00  0.16211870208E+03  0.16211870208E+03  0.00000000000E+00 0.  1.
          1   -1    0    0  501    0  0.00000000000E+00 -0.00000000000E+00 -0.12613061600E+02  0.12613061600E+02  0.00000000000E+00 0. -1.
         23    2    1    2    0    0  0.00000000000E+00  0.00000000000E+00  0.14950564048E+03  0.17473176368E+03  0.90439221047E+02 0.  0.
        -11    1    3    3    0    0  0.94277770490E+01  0.26890869603E+02  0.14258930821E+03  0.14540877781E+03  0.00000000000E+00 0.  1.
         11    1    3    3    0    0 -0.94277770490E+01 -0.26890869603E+02  0.69163322630E+01  0.29322985865E+02  0.00000000000E+00 0. -1.
<mgrwt>
<rscale>  0 0.90439221E+02</rscale>
<asrwt>0</asrwt>
<pdfrwt beam="2">  1        1 0.19404711E-02 0.90439221E+02</pdfrwt>
<pdfrwt beam="1">  1       -1 0.24941337E-01 0.90439221E+02</pdfrwt>
<totfact> 0.74970369E+04</totfact>
</mgrwt>
</event>
<event>
 5    1  0.1227473E+001  0.7825977E+02  0.7546771E-02  0.1334064E+00
          2   -1    0    0  501    0  0.00000000000E+00  0.00000000000E+00  0.12551090841E+03  0.12551090841E+03  0.00000000000E+00 0.  1.
         -2   -1    0    0    0  501 -0.00000000000E+00 -0.00000000000E+00 -0.12199319957E+02  0.12199319957E+02  0.00000000000E+00 0. -1.
         23    2    1    2    0    0  0.00000000000E+00  0.00000000000E+00  0.11331158845E+03  0.13771022837E+03  0.78259765648E+02 0.  0.
        -11    1    3    3    0    0  0.36358783504E+02 -0.12761934488E+02  0.44679839382E+02  0.59000984373E+02  0.00000000000E+00 0.  1.
         11    1    3    3    0    0 -0.36358783504E+02  0.12761934488E+02  0.68631749071E+02  0.78709243995E+02  0.00000000000E+00 0. -1.
<mgrwt>
<rscale>  0 0.78259766E+02</rscale>
<asrwt>0</asrwt>
<pdfrwt beam="1">  1        2 0.19309370E-01 0.78259766E+02</pdfrwt>
<pdfrwt beam="2">  1       -2 0.18768185E-02 0.78259766E+02</pdfrwt>
<totfact> 0.19905145E+05</totfact>
</mgrwt>
</event>
<event>
 5    1  0.1227473E+001  0.8912021E+02  0.7546771E-02  0.1304996E+00
          2   -1    0    0  501    0  0.00000000000E+00  0.00000000000E+00  0.88334837492E+02  0.88334837492E+02  0.00000000000E+00 0.  1.
         -2   -1    0    0    0  501 -0.00000000000E+00 -0.00000000000E+00 -0.22478140397E+02  0.22478140397E+02  0.00000000000E+00 0. -1.
         23    2    1    2    0    0  0.00000000000E+00  0.00000000000E+00  0.65856697095E+02  0.11081297789E+03  0.89120208238E+02 0.  0.
        -11    1    3    3    0    0 -0.51079820758E+01 -0.42766082943E+02  0.18720051255E+02  0.46962428069E+02  0.00000000000E+00 0.  1.
         11    1    3    3    0    0  0.51079820758E+01  0.42766082943E+02  0.47136645840E+02  0.63850549820E+02  0.00000000000E+00 0. -1.
<mgrwt>
<rscale>  0 0.89120208E+02</rscale>
<asrwt>0</asrwt>
<pdfrwt beam="1">  1        2 0.13589975E-01 0.89120208E+02</pdfrwt>
<pdfrwt beam="2">  1       -2 0.34581755E-02 0.89120208E+02</pdfrwt>
<totfact> 0.12588819E+05</totfact>
</mgrwt>
</event>
<event>
 5    1  0.1227473E+001  0.1120378E+03  0.7546771E-02  0.1256842E+00
          4   -1    0    0  501    0  0.00000000000E+00  0.00000000000E+00  0.21025256807E+02  0.21025256807E+02  0.00000000000E+00 0. -1.
         -4   -1    0    0    0  501 -0.00000000000E+00 -0.00000000000E+00 -0.14925473909E+03  0.14925473909E+03  0.00000000000E+00 0.  1.
         23    2    1    2    0    0  0.00000000000E+00  0.00000000000E+00 -0.12822948228E+03  0.17027999589E+03  0.11203783680E+03 0.  0.
        -13    1    3    3    0    0 -0.28463023800E+02  0.43759708369E+02 -0.95003985442E+02  0.10840116720E+03  0.00000000000E+00 0.  1.
         13    1    3    3    0    0  0.28463023800E+02 -0.43759708369E+02 -0.33225496839E+02  0.61878828694E+02  0.00000000000E+00 0. -1.
<mgrwt>
<rscale>  0 0.11203784E+03</rscale>
<asrwt>0</asrwt>
<pdfrwt beam="1">  1        4 0.32346548E-02 0.11203784E+03</pdfrwt>
<pdfrwt beam="2">  1       -4 0.22962268E-01 0.11203784E+03</pdfrwt>
<totfact> 0.12943843E+04</totfact>
</mgrwt>
</event>
<event>
 5    1  0.1227473E+001  0.9053898E+02  0.7546771E-02  0.1301552E+00
          1   -1    0    0  501    0  0.00000000000E+00  0.00000000000E+00  0.43951003572E+02  0.43951003572E+02  0.00000000000E+00 0. -1.
         -1   -1    0    0    0  501 -0.00000000000E+00 -0.00000000000E+00 -0.46627531369E+02  0.46627531369E+02  0.00000000000E+00 0.  1.
         23    2    1    2    0    0  0.00000000000E+00  0.00000000000E+00 -0.26765277970E+01  0.90578534941E+02  0.90538981610E+02 0.  0.
        -11    1    3    3    0    0 -0.15761977400E+02 -0.10214816967E+02 -0.42545387394E+02  0.46506907075E+02  0.00000000000E+00 0.  1.
         11    1    3    3    0    0  0.15761977400E+02  0.10214816967E+02  0.39868859597E+02  0.44071627866E+02  0.00000000000E+00 0. -1.
<mgrwt>
<rscale>  0 0.90538982E+02</rscale>
<asrwt>0</asrwt>
<pdfrwt beam="1">  1        1 0.67616929E-02 0.90538982E+02</pdfrwt>
<pdfrwt beam="2">  1       -1 0.71734663E-02 0.90538982E+02</pdfrwt>
<totfact> 0.93795886E+04</totfact>
</mgrwt>
</event>
<event>
 5    1  0.1227473E+001  0.9083086E+02  0.7546771E-02  0.1300852E+00
          2   -1    0    0  501    0  0.00000000000E+00  0.00000000000E+00  0.33267653880E+02  0.33267653880E+02  0.00000000000E+00 0. -1.
         -2   -1    0    0    0  501 -0.00000000000E+00 -0.00000000000E+00 -0.61999005378E+02  0.61999005378E+02  0.00000000000E+00 0.  1.
         23    2    1    2    0    0  0.00000000000E+00  0.00000000000E+00 -0.28731351498E+02  0.95266659258E+02  0.90830863738E+02 0.  0.
        -13    1    3    3    0    0 -0.15775666770E+02  0.20422394791E+02  0.24830701895E+02  0.35812143578E+02  0.00000000000E+00 0. -1.
         13    1    3    3    0    0  0.15775666770E+02 -0.20422394791E+02 -0.53562053393E+02  0.59454515680E+02  0.00000000000E+00 0.  1.
<mgrwt>
<rscale>  0 0.90830864E+02</rscale>
<asrwt>0</asrwt>
<pdfrwt beam="1">  1        2 0.51181006E-02 0.90830864E+02</pdfrwt>
<pdfrwt beam="2">  1       -2 0.95383084E-02 0.90830864E+02</pdfrwt>
<totfact> 0.91942231E+04</totfact>
</mgrwt>
</event>
<event>
 5    1  0.1227473E+001  0.9198456E+02  0.7546771E-02  0.1298116E+00
          2   -1    0    0  501    0  0.00000000000E+00  0.00000000000E+00  0.10944982891E+02  0.10944982891E+02  0.00000000000E+00 0. -1.
         -2   -1    0    0    0  501 -0.00000000000E+00 -0.00000000000E+00 -0.19326571573E+03  0.19326571573E+03  0.00000000000E+00 0.  1.
         23    2    1    2    0    0  0.00000000000E+00  0.00000000000E+00 -0.18232073284E+03  0.20421069862E+03  0.91984562880E+02 0.  0.
        -13    1    3    3    0    0  0.41471539525E+02 -0.18810500685E+02 -0.10547350518E+03  0.11488421920E+03  0.00000000000E+00 0.  1.
         13    1    3    3    0    0 -0.41471539525E+02  0.18810500685E+02 -0.76847227662E+02  0.89326479422E+02  0.00000000000E+00 0. -1.
<mgrwt>
<rscale>  0 0.91984563E+02</rscale>
<asrwt>0</asrwt>
<pdfrwt beam="1">  1        2 0.16838438E-02 0.91984563E+02</pdfrwt>
<pdfrwt beam="2">  1       -2 0.29733183E-01 0.91984563E+02</pdfrwt>
<totfact> 0.61831906E+04</totfact>
</mgrwt>
</event>
<event>
 5    1  0.1227473E+001  0.9212078E+02  0.7546771E-02  0.1297796E+00
          2   -1    0    0  501    0  0.00000000000E+00  0.00000000000E+00  0.84730002052E+02  0.84730002052E+02  0.00000000000E+00 0. -1.
         -2   -1    0    0    0  501 -0.00000000000E+00 -0.00000000000E+00 -0.25039057394E+02  0.25039057394E+02  0.00000000000E+00 0.  1.
         23    2    1    2    0    0  0.00000000000E+00  0.00000000000E+00  0.59690944658E+02  0.10976905945E+03  0.92120776905E+02 0.  0.
        -13    1    3    3    0    0  0.19887484162E+02  0.80490979345E+01  0.78412449558E+02  0.81294601601E+02  0.00000000000E+00 0. -1.
         13    1    3    3    0    0 -0.19887484162E+02 -0.80490979345E+01 -0.18721504900E+02  0.28474457845E+02  0.00000000000E+00 0.  1.
<mgrwt>
<rscale>  0 0.92120777E+02</rscale>
<asrwt>0</asrwt>
<pdfrwt beam="1">  1        2 0.13035385E-01 0.92120777E+02</pdfrwt>
<pdfrwt beam="2">  1       -2 0.38521627E-02 0.92120777E+02</pdfrwt>
<totfact> 0.11348105E+05</totfact>
</mgrwt>
</event>
<event>
 5    1  0.1227473E+001  0.8999737E+02  0.7546771E-02  0.1302858E+00
          2   -1    0    0  501    0  0.00000000000E+00  0.00000000000E+00  0.12157737621E+03  0.12157737621E+03  0.00000000000E+00 0. -1.
         -2   -1    0    0    0  501 -0.00000000000E+00 -0.00000000000E+00 -0.16655084699E+02  0.16655084699E+02  0.00000000000E+00 0.  1.
         23    2    1    2    0    0  0.00000000000E+00  0.00000000000E+00  0.10492229151E+03  0.13823246090E+03  0.89997366587E+02 0.  0.
        -13    1    3    3    0    0  0.35143631250E+02 -0.16890884563E+02  0.86960649331E+02  0.95302315453E+02  0.00000000000E+00 0. -1.
         13    1    3    3    0    0 -0.35143631250E+02  0.16890884563E+02  0.17961642176E+02  0.42930145451E+02  0.00000000000E+00 0.  1.
<mgrwt>
<rscale>  0 0.89997367E+02</rscale>
<asrwt>0</asrwt>
<pdfrwt beam="1">  1        2 0.18704211E-01 0.89997367E+02</pdfrwt>
<pdfrwt beam="2">  1       -2 0.25623208E-02 0.89997367E+02</pdfrwt>
<totfact> 0.13512541E+05</totfact>
</mgrwt>
</event>
<event>
 5    1  0.1227473E+001  0.9011231E+02  0.7546771E-02  0.1302580E+00
         -1   -1    0    0    0  501 -0.00000000000E+00  0.00000000000E+00  0.13569887439E+02  0.13569887439E+02  0.00000000000E+00 0.  1.
          1   -1    0    0  501    0  0.00000000000E+00 -0.00000000000E+00 -0.14960015413E+03  0.14960015413E+03  0.00000000000E+00 0. -1.
         23    2    1    2    0    0  0.00000000000E+00  0.00000000000E+00 -0.13603026669E+03  0.16317004156E+03  0.90112313306E+02 0.  0.
        -13    1    3    3    0    0 -0.19940496535E+02  0.30499192266E+02 -0.20031079014E+02  0.41582066536E+02  0.00000000000E+00 0.  1.
         13    1    3    3    0    0  0.19940496535E+02 -0.30499192266E+02 -0.11599918767E+03  0.12158797503E+03  0.00000000000E+00 0. -1.
<mgrwt>
<rscale>  0 0.90112313E+02</rscale>
<asrwt>0</asrwt>
<pdfrwt beam="2">  1        1 0.23015408E-01 0.90112313E+02</pdfrwt>
<pdfrwt beam="1">  1       -1 0.20876750E-02 0.90112313E+02</pdfrwt>
<totfact> 0.11568088E+05</totfact>
</mgrwt>
</event>
<event>
 5    1  0.1227473E+001  0.9164745E+02  0.7546771E-02  0.1298910E+00
          1   -1    0    0  501    0  0.00000000000E+00  0.00000000000E+00  0.36602280945E+02  0.36602280945E+02  0.00000000000E+00 0. -1.
         -1   -1    0    0    0  501 -0.00000000000E+00 -0.00000000000E+00 -0.57368388970E+02  0.57368388970E+02  0.00000000000E+00 0.  1.
         23    2    1    2    0    0  0.00000000000E+00  0.00000000000E+00 -0.20766108026E+02  0.93970669915E+02  0.91647452565E+02 0.  0.
        -13    1    3    3    0    0 -0.20284699747E+02 -0.89757457606E+01  0.30730531085E+02  0.37899849558E+02  0.00000000000E+00 0. -1.
         13    1    3    3    0    0  0.20284699747E+02  0.89757457606E+01 -0.51496639111E+02  0.56070820357E+02  0.00000000000E+00 0.  1.
<mgrwt>
<rscale>  0 0.91647453E+02</rscale>
<asrwt>0</asrwt>
<pdfrwt beam="1">  1        1 0.56311201E-02 0.91647453E+02</pdfrwt>
<pdfrwt beam="2">  1       -1 0.88259060E-02 0.91647453E+02</pdfrwt>
<totfact> 0.88142072E+04</totfact>
</mgrwt>
</event>
<event>
 5    1  0.1227473E+001  0.9496561E+02  0.7546771E-02  0.1291254E+00
         -4   -1    0    0    0  501 -0.00000000000E+00  0.00000000000E+00  0.58762493000E+02  0.58762493000E+02  0.00000000000E+00 0.  1.
          4   -1    0    0  501    0  0.00000000000E+00 -0.00000000000E+00 -0.38368297464E+02  0.38368297464E+02  0.00000000000E+00 0. -1.
         23    2    1    2    0    0  0.00000000000E+00  0.00000000000E+00  0.20394195537E+02  0.97130790464E+02  0.94965610853E+02 0.  0.
        -13    1    3    3    0    0  0.23278868043E+02  0.26665700185E+02 -0.22173363658E+02  0.41768688268E+02  0.00000000000E+00 0. -1.
         13    1    3    3    0    0 -0.23278868043E+02 -0.26665700185E+02  0.42567559195E+02  0.55362102196E+02  0.00000000000E+00 0.  1.
<mgrwt>
<rscale>  0 0.94965611E+02</rscale>
<asrwt>0</asrwt>
<pdfrwt beam="2">  1        4 0.59028150E-02 0.94965611E+02</pdfrwt>
<pdfrwt beam="1">  1       -4 0.90403836E-02 0.94965611E+02</pdfrwt>
<totfact> 0.23841534E+04</totfact>
</mgrwt>
</event>
<event>
 5    1  0.1227473E+001  0.1011049E+03  0.7546771E-02  0.1277989E+00
          1   -1    0    0  501    0  0.00000000000E+00  0.00000000000E+00  0.22430823937E+02  0.22430823937E+02  0.00000000000E+00 0. -1.
         -1   -1    0    0    0  501 -0.00000000000E+00 -0.00000000000E+00 -0.11393037685E+03  0.11393037685E+03  0.00000000000E+00 0.  1.
         23    2    1    2    0    0  0.00000000000E+00  0.00000000000E+00 -0.91499552912E+02  0.13636120079E+03  0.10110494002E+03 0.  0.
        -11    1    3    3    0    0 -0.13814046379E+02  0.44165838311E+02 -0.73195372555E+02  0.86596834322E+02  0.00000000000E+00 0.  1.
         11    1    3    3    0    0  0.13814046379E+02 -0.44165838311E+02 -0.18304180356E+02  0.49764366464E+02  0.00000000000E+00 0. -1.
<mgrwt>
<rscale>  0 0.10110494E+03</rscale>
<asrwt>0</asrwt>
<pdfrwt beam="1">  1        1 0.34508960E-02 0.10110494E+03</pdfrwt>
<pdfrwt beam="2">  1       -1 0.17527750E-01 0.10110494E+03</pdfrwt>
<totfact> 0.60726169E+04</totfact>
</mgrwt>
</event>
<event>
 5    1  0.1227473E+001  0.9187926E+02  0.7546771E-02  0.1298364E+00
         -4   -1    0    0    0  501 -0.00000000000E+00  0.00000000000E+00  0.36400019225E+02  0.36400019225E+02  0.00000000000E+00 0.  1.
          4   -1    0    0  501    0  0.00000000000E+00 -0.00000000000E+00 -0.57979349399E+02  0.57979349399E+02  0.00000000000E+00 0. -1.
         23    2    1    2    0    0  0.00000000000E+00  0.00000000000E+00 -0.21579330174E+02  0.94379368624E+02  0.91879256261E+02 0.  0.
        -13    1    3    3    0    0 -0.34896215001E+02  0.13410753403E+02  0.16636197107E+02  0.40918909839E+02  0.00000000000E+00 0.  1.
         13    1    3    3    0    0  0.34896215001E+02 -0.13410753403E+02 -0.38215527281E+02  0.53460458785E+02  0.00000000000E+00 0. -1.
<mgrwt>
<rscale>  0 0.91879256E+02</rscale>
<asrwt>0</asrwt>
<pdfrwt beam="2">  1        4 0.89198998E-02 0.91879256E+02</pdfrwt>
<pdfrwt beam="1">  1       -4 0.56000030E-02 0.91879256E+02</pdfrwt>
<totfact> 0.26257760E+04</totfact>
</mgrwt>
</event>
<event>
 5    1  0.1227473E+001  0.8835954E+02  0.7546771E-02  0.1306874E+00
          1   -1    0    0  501    0  0.00000000000E+00  0.00000000000E+00  0.11904408817E+02  0.11904408817E+02  0.00000000000E+00 0. -1.
         -1   -1    0    0    0  501 -0.00000000000E+00 -0.00000000000E+00 -0.16396042840E+03  0.16396042840E+03  0.00000000000E+00 0.  1.
         23    2    1    2    0    0  0.00000000000E+00  0.00000000000E+00 -0.15205601959E+03  0.17586483722E+03  0.88359537561E+02 0.  0.
        -11    1    3    3    0    0 -0.13862377246E+02  0.28562939188E+02 -0.13717511663E+03  0.14080134808E+03  0.00000000000E+00 0.  1.
         11    1    3    3    0    0  0.13862377246E+02 -0.28562939188E+02 -0.14880902954E+02  0.35063489140E+02  0.00000000000E+00 0. -1.
<mgrwt>
<rscale>  0 0.88359538E+02</rscale>
<asrwt>0</asrwt>
<pdfrwt beam="1">  1        1 0.18314475E-02 0.88359538E+02</pdfrwt>
<pdfrwt beam="2">  1       -1 0.25224681E-01 0.88359538E+02</pdfrwt>
<totfact> 0.79411509E+04</totfact>
</mgrwt>
</event>
<event>
 5    1  0.1227473E+001  0.8888417E+02  0.7546771E-02  0.1305577E+00
         -1   -1    0    0    0  501 -0.00000000000E+00  0.00000000000E+00  0.48570231683E+01  0.48570231683E+01  0.00000000000E+00 0.  1.
          1   -1    0    0  501    0  0.00000000000E+00 -0.00000000000E+00 -0.40664807016E+03  0.40664807016E+03  0.00000000000E+00 0. -1.
         23    2    1    2    0    0  0.00000000000E+00  0.00000000000E+00 -0.40179104699E+03  0.41150509333E+03  0.88884174027E+02 0.  0.
        -11    1    3    3    0    0 -0.57152271230E+01  0.43733565725E+02 -0.17561794614E+03  0.18107167531E+03  0.00000000000E+00 0.  1.
         11    1    3    3    0    0  0.57152271230E+01 -0.43733565725E+02 -0.22617310085E+03  0.23043341802E+03  0.00000000000E+00 0. -1.
<mgrwt>
<rscale>  0 0.88884174E+02</rscale>
<asrwt>0</asrwt>
<pdfrwt beam="2">  1        1 0.62561256E-01 0.88884174E+02</pdfrwt>
<pdfrwt beam="1">  1       -1 0.74723417E-03 0.88884174E+02</pdfrwt>
<totfact> 0.14469773E+05</totfact>
</mgrwt>
</event>
<event>
 5    1  0.1227473E+001  0.8746401E+02  0.7546771E-02  0.1309112E+00
         -3   -1    0    0    0  501 -0.00000000000E+00  0.00000000000E+00  0.52644691112E+02  0.52644691112E+02  0.00000000000E+00 0.  1.
          3   -1    0    0  501    0  0.00000000000E+00 -0.00000000000E+00 -0.36328227299E+02  0.36328227299E+02  0.00000000000E+00 0. -1.
         23    2    1    2    0    0  0.00000000000E+00  0.00000000000E+00  0.16316463813E+02  0.88972918412E+02  0.87464010995E+02 0.  0.
        -13    1    3    3    0    0 -0.38735702578E+02 -0.19978774605E+02  0.45071318653E+01  0.43816895447E+02  0.00000000000E+00 0.  1.
         13    1    3    3    0    0  0.38735702578E+02  0.19978774605E+02  0.11809331948E+02  0.45156022965E+02  0.00000000000E+00 0. -1.
<mgrwt>
<rscale>  0 0.87464011E+02</rscale>
<asrwt>0</asrwt>
<pdfrwt beam="2">  1        3 0.55889581E-02 0.87464011E+02</pdfrwt>
<pdfrwt beam="1">  1       -3 0.80991832E-02 0.87464011E+02</pdfrwt>
<totfact> 0.39751892E+04</totfact>
</mgrwt>
</event>
<event>
 5    1  0.1227473E+001  0.9007937E+02  0.7546771E-02  0.1302660E+00
          2   -1    0    0  501    0  0.00000000000E+00  0.00000000000E+00  0.63337709937E+02  0.63337709937E+02  0.00000000000E+00 0. -1.
         -2   -1    0    0    0  501 -0.00000000000E+00 -0.00000000000E+00 -0.32027886809E+02  0.32027886809E+02  0.00000000000E+00 0.  1.
         23    2    1    2    0    0  0.00000000000E+00  0.00000000000E+00  0.31309823128E+02  0.95365596746E+02  0.90079365109E+02 0.  0.
        -13    1    3    3    0    0  0.37602290388E+02 -0.22356533078E+02  0.26999451631E+02  0.51407365251E+02  0.00000000000E+00 0. -1.
         13    1    3    3    0    0 -0.37602290388E+02  0.22356533078E+02  0.43103714975E+01  0.43958231495E+02  0.00000000000E+00 0.  1.
<mgrwt>
<rscale>  0 0.90079365E+02</rscale>
<asrwt>0</asrwt>
<pdfrwt beam="1">  1        2 0.97442631E-02 0.90079365E+02</pdfrwt>
<pdfrwt beam="2">  1       -2 0.49273672E-02 0.90079365E+02</pdfrwt>
<totfact> 0.11135107E+05</totfact>
</mgrwt>
</event>
<event>
 5    1  0.1227473E+001  0.8428529E+02  0.7546771E-02  0.1317312E+00
          1   -1    0    0  501    0  0.00000000000E+00  0.00000000000E+00  0.11018575516E+03  0.11018575516E+03  0.00000000000E+00 0. -1.
         -1   -1    0    0    0  501 -0.00000000000E+00 -0.00000000000E+00 -0.16118259562E+02  0.16118259562E+02  0.00000000000E+00 0.  1.
         23    2    1    2    0    0  0.00000000000E+00  0.00000000000E+00  0.94067495600E+02  0.12630401472E+03  0.84285291760E+02 0.  0.
        -13    1    3    3    0    0  0.73463354498E+00  0.18443308522E+02  0.10380621990E+03  0.10543446593E+03  0.00000000000E+00 0. -1.
         13    1    3    3    0    0 -0.73463354498E+00 -0.18443308522E+02 -0.97387243045E+01  0.20869548791E+02  0.00000000000E+00 0.  1.
<mgrwt>
<rscale>  0 0.84285292E+02</rscale>
<asrwt>0</asrwt>
<pdfrwt beam="1">  1        1 0.16951654E-01 0.84285292E+02</pdfrwt>
<pdfrwt beam="2">  1       -1 0.24797323E-02 0.84285292E+02</pdfrwt>
<totfact> 0.13129943E+05</totfact>
</mgrwt>
</event>
<event>
 5    1  0.1227473E+001  0.9343194E+02  0.7546771E-02  0.1294747E+00
          1   -1    0    0  501    0  0.00000000000E+00  0.00000000000E+00  0.10278416123E+02  0.10278416123E+02  0.00000000000E+00 0. -1.
         -1   -1    0    0    0  501 -0.00000000000E+00 -0.00000000000E+00 -0.21232666632E+03  0.21232666632E+03  0.00000000000E+00 0.  1.
         23    2    1    2    0    0  0.00000000000E+00  0.00000000000E+00 -0.20204825020E+03  0.22260508245E+03  0.93431939517E+02 0.  0.
        -11    1    3    3    0    0 -0.28009277983E+02  0.22832951806E+02 -0.17156165579E+03  0.17532616769E+03  0.00000000000E+00 0.  1.
         11    1    3    3    0    0  0.28009277983E+02 -0.22832951806E+02 -0.30486594410E+02  0.47278914751E+02  0.00000000000E+00 0. -1.
<mgrwt>
<rscale>  0 0.93431940E+02</rscale>
<asrwt>0</asrwt>
<pdfrwt beam="1">  1        1 0.15812948E-02 0.93431940E+02</pdfrwt>
<pdfrwt beam="2">  1       -1 0.32665641E-01 0.93431940E+02</pdfrwt>
<totfact> 0.64004652E+04</totfact>
</mgrwt>
</event>
<event>
 5    1  0.1227473E+001  0.8684459E+02  0.7546771E-02  0.1310678E+00
          4   -1    0    0  501    0  0.00000000000E+00  0.00000000000E+00  0.20224177967E+02  0.20224177967E+02  0.00000000000E+00 0.  1.
         -4   -1    0    0    0  501 -0.00000000000E+00 -0.00000000000E+00 -0.93229789766E+02  0.93229789766E+02  0.00000000000E+00 0. -1.
         23    2    1    2    0    0  0.00000000000E+00  0.00000000000E+00 -0.73005611799E+02  0.11345396773E+03  0.86844593616E+02 0.  0.
        -11    1    3    3    0    0 -0.35015277956E+02  0.25527800484E+02 -0.40141451969E+02  0.59068387942E+02  0.00000000000E+00 0.  1.
         11    1    3    3    0    0  0.35015277956E+02 -0.25527800484E+02 -0.32864159830E+02  0.54385579791E+02  0.00000000000E+00 0. -1.
<mgrwt>
<rscale>  0 0.86844594E+02</rscale>
<asrwt>0</asrwt>
<pdfrwt beam="1">  1        4 0.31114120E-02 0.86844594E+02</pdfrwt>
<pdfrwt beam="2">  1       -4 0.14343045E-01 0.86844594E+02</pdfrwt>
<totfact> 0.29238678E+04</totfact>
</mgrwt>
</event>
<event>
 5    1  0.1227473E+001  0.9352106E+02  0.7546771E-02  0.1294542E+00
         -2   -1    0    0    0  501 -0.00000000000E+00  0.00000000000E+00  0.47888593667E+02  0.47888593667E+02  0.00000000000E+00 0. -1.
          2   -1    0    0  501    0  0.00000000000E+00 -0.00000000000E+00 -0.45659037698E+02  0.45659037698E+02  0.00000000000E+00 0.  1.
         23    2    1    2    0    0  0.00000000000E+00  0.00000000000E+00  0.22295559685E+01  0.93547631365E+02  0.93521058667E+02 0.  0.
        -11    1    3    3    0    0 -0.26205489028E+02 -0.38152134767E+02  0.77675369348E+01  0.46932373395E+02  0.00000000000E+00 0. -1.
         11    1    3    3    0    0  0.26205489028E+02  0.38152134767E+02 -0.55379809663E+01  0.46615257970E+02  0.00000000000E+00 0.  1.
<mgrwt>
<rscale>  0 0.93521059E+02</rscale>
<asrwt>0</asrwt>
<pdfrwt beam="2">  1        2 0.70244673E-02 0.93521059E+02</pdfrwt>
<pdfrwt beam="1">  1       -2 0.73674760E-02 0.93521059E+02</pdfrwt>
<totfact> 0.91755756E+04</totfact>
</mgrwt>
</event>
<event>
 5    1  0.1227473E+001  0.8769862E+02  0.7546771E-02  0.1308522E+00
          4   -1    0    0  501    0  0.00000000000E+00  0.00000000000E+00  0.72959840687E+02  0.72959840687E+02  0.00000000000E+00 0.  1.
         -4   -1    0    0    0  501 -0.00000000000E+00 -0.00000000000E+00 -0.26353700329E+02  0.26353700329E+02  0.00000000000E+00 0. -1.
         23    2    1    2    0    0  0.00000000000E+00  0.00000000000E+00  0.46606140357E+02  0.99313541016E+02  0.87698615212E+02 0.  0.
        -13    1    3    3    0    0  0.15553435942E+01 -0.36809011186E+02  0.50231358998E+02  0.62293754302E+02  0.00000000000E+00 0.  1.
         13    1    3    3    0    0 -0.15553435942E+01  0.36809011186E+02 -0.36252186410E+01  0.37019786714E+02  0.00000000000E+00 0. -1.
<mgrwt>
<rscale>  0 0.87698615E+02</rscale>
<asrwt>0</asrwt>
<pdfrwt beam="1">  1        4 0.11224591E-01 0.87698615E+02</pdfrwt>
<pdfrwt beam="2">  1       -4 0.40544155E-02 0.87698615E+02</pdfrwt>
<totfact> 0.29433383E+04</totfact>
</mgrwt>
</event>
<event>
 5    1  0.1227473E+001  0.9329235E+02  0.7546771E-02  0.1295069E+00
         -1   -1    0    0    0  501 -0.00000000000E+00  0.00000000000E+00  0.37841938221E+02  0.37841938221E+02  0.00000000000E+00 0.  1.
          1   -1    0    0  501    0  0.00000000000E+00 -0.00000000000E+00 -0.57498795527E+02  0.57498795527E+02  0.00000000000E+00 0. -1.
         23    2    1    2    0    0  0.00000000000E+00  0.00000000000E+00 -0.19656857306E+02  0.95340733747E+02  0.93292354844E+02 0.  0.
        -11    1    3    3    0    0 -0.64054973780E+01  0.29392057190E+02  0.26604608485E+02  0.40158792502E+02  0.00000000000E+00 0.  1.
         11    1    3    3    0    0  0.64054973780E+01 -0.29392057190E+02 -0.46261465791E+02  0.55181941246E+02  0.00000000000E+00 0. -1.
<mgrwt>
<rscale>  0 0.93292355E+02</rscale>
<asrwt>0</asrwt>
<pdfrwt beam="2">  1        1 0.88459685E-02 0.93292355E+02</pdfrwt>
<pdfrwt beam="1">  1       -1 0.58218367E-02 0.93292355E+02</pdfrwt>
<totfact> 0.89825995E+04</totfact>
</mgrwt>
</event>
<event>
 5    1  0.1227473E+001  0.8859421E+02  0.7546771E-02  0.1306292E+00
         -2   -1    0    0    0  501 -0.00000000000E+00  0.00000000000E+00  0.54731607908E+01  0.54731607908E+01  0.00000000000E+00 0.  1.
          2   -1    0    0  501    0  0.00000000000E+00 -0.00000000000E+00 -0.35851928585E+03  0.35851928585E+03  0.00000000000E+00 0. -1.
         23    2    1    2    0    0  0.00000000000E+00  0.00000000000E+00 -0.35304612506E+03  0.36399244664E+03  0.88594214214E+02 0.  0.
        -11    1    3    3    0    0  0.44256190397E+02  0.66503419091E+00 -0.18385082724E+03  0.18910362063E+03  0.00000000000E+00 0.  1.
         11    1    3    3    0    0 -0.44256190397E+02 -0.66503419091E+00 -0.16919529782E+03  0.17488882601E+03  0.00000000000E+00 0. -1.
<mgrwt>
<rscale>  0 0.88594214E+02</rscale>
<asrwt>0</asrwt>
<pdfrwt beam="2">  1        2 0.55156841E-01 0.88594214E+02</pdfrwt>
<pdfrwt beam="1">  1       -2 0.84202431E-03 0.88594214E+02</pdfrwt>
<totfact> 0.20708014E+05</totfact>
</mgrwt>
</event>
<event>
 5    1  0.1227473E+001  0.9034464E+02  0.7546771E-02  0.1302019E+00
         -2   -1    0    0    0  501 -0.00000000000E+00  0.00000000000E+00  0.62360763209E+02  0.62360763209E+02  0.00000000000E+00 0.  1.
          2   -1    0    0  501    0  0.00000000000E+00 -0.00000000000E+00 -0.32721514149E+02  0.32721514149E+02  0.00000000000E+00 0. -1.
         23    2    1    2    0    0  0.00000000000E+00  0.00000000000E+00  0.29639249060E+02  0.95082277357E+02  0.90344642246E+02 0.  0.
        -11    1    3    3    0    0  0.40067299389E+02  0.48765289266E+00 -0.71285306855E+01  0.40699413208E+02  0.00000000000E+00 0. -1.
         11    1    3    3    0    0 -0.40067299389E+02 -0.48765289266E+00  0.36767779746E+02  0.54382864150E+02  0.00000000000E+00 0.  1.
<mgrwt>
<rscale>  0 0.90344642E+02</rscale>
<asrwt>0</asrwt>
<pdfrwt beam="2">  1        2 0.50340791E-02 0.90344642E+02</pdfrwt>
<pdfrwt beam="1">  1       -2 0.95939636E-02 0.90344642E+02</pdfrwt>
<totfact> 0.92999089E+04</totfact>
</mgrwt>
</event>
<event>
 5    1  0.1227473E+001  0.8641566E+02  0.7546771E-02  0.1311771E+00
          1   -1    0    0  501    0  0.00000000000E+00  0.00000000000E+00  0.25903110329E+02  0.25903110329E+02  0.00000000000E+00 0. -1.
         -1   -1    0    0    0  501 -0.00000000000E+00 -0.00000000000E+00 -0.72073072239E+02  0.72073072239E+02  0.00000000000E+00 0.  1.
         23    2    1    2    0    0  0.00000000000E+00  0.00000000000E+00 -0.46169961910E+02  0.97976182568E+02  0.86415663903E+02 0.  0.
        -13    1    3    3    0    0  0.31113086043E+02  0.29980460145E+02 -0.23373211153E+02  0.49123915899E+02  0.00000000000E+00 0.  1.
         13    1    3    3    0    0 -0.31113086043E+02 -0.29980460145E+02 -0.22796750757E+02  0.48852266669E+02  0.00000000000E+00 0. -1.
<mgrwt>
<rscale>  0 0.86415664E+02</rscale>
<asrwt>0</asrwt>
<pdfrwt beam="1">  1        1 0.39850940E-02 0.86415664E+02</pdfrwt>
<pdfrwt beam="2">  1       -1 0.11088165E-01 0.86415664E+02</pdfrwt>
<totfact> 0.98743264E+04</totfact>
</mgrwt>
</event>
<event>
 5    1  0.1227473E+001  0.8538255E+02  0.7546771E-02  0.1314435E+00
         -2   -1    0    0    0  501 -0.00000000000E+00  0.00000000000E+00  0.17023975993E+02  0.17023975993E+02  0.00000000000E+00 0.  1.
          2   -1    0    0  501    0  0.00000000000E+00 -0.00000000000E+00 -0.10705754098E+03  0.10705754098E+03  0.00000000000E+00 0. -1.
         23    2    1    2    0    0  0.00000000000E+00  0.00000000000E+00 -0.90033564989E+02  0.12408151697E+03  0.85382551087E+02 0.  0.
        -13    1    3    3    0    0 -0.12530631669E+02  0.35949138985E+02 -0.16942955524E+02  0.41670385956E+02  0.00000000000E+00 0.  1.
         13    1    3    3    0    0  0.12530631669E+02 -0.35949138985E+02 -0.73090609465E+02  0.82411131019E+02  0.00000000000E+00 0. -1.
<mgrwt>
<rscale>  0 0.85382551E+02</rscale>
<asrwt>0</asrwt>
<pdfrwt beam="2">  1        2 0.16470391E-01 0.85382551E+02</pdfrwt>
<pdfrwt beam="1">  1       -2 0.26190732E-02 0.85382551E+02</pdfrwt>
<totfact> 0.14987542E+05</totfact>
</mgrwt>
</event>
<event>
 5    1  0.1227473E+001  0.9046232E+02  0.7546771E-02  0.1301736E+00
         -2   -1    0    0    0  501 -0.00000000000E+00  0.00000000000E+00  0.10064924316E+03  0.10064924316E+03  0.00000000000E+00 0.  1.
          2   -1    0    0  501    0  0.00000000000E+00 -0.00000000000E+00 -0.20326610086E+02  0.20326610086E+02  0.00000000000E+00 0. -1.
         23    2    1    2    0    0  0.00000000000E+00  0.00000000000E+00  0.80322633069E+02  0.12097585324E+03  0.90462321904E+02 0.  0.
        -13    1    3    3    0    0 -0.38051614247E+02 -0.11661598547E+02  0.68903754600E+02  0.79571638323E+02  0.00000000000E+00 0. -1.
         13    1    3    3    0    0  0.38051614247E+02  0.11661598547E+02  0.11418878469E+02  0.41404214918E+02  0.00000000000E+00 0.  1.
<mgrwt>
<rscale>  0 0.90462322E+02</rscale>
<asrwt>0</asrwt>
<pdfrwt beam="2">  1        2 0.31271708E-02 0.90462322E+02</pdfrwt>
<pdfrwt beam="1">  1       -2 0.15484499E-01 0.90462322E+02</pdfrwt>
<totfact> 0.81226421E+04</totfact>
</mgrwt>
</event>
<event>
 5    1  0.1227473E+001  0.9031704E+02  0.7546771E-02  0.1302086E+00
         -2   -1    0    0    0  501 -0.00000000000E+00  0.00000000000E+00  0.14278497897E+02  0.14278497897E+02  0.00000000000E+00 0.  1.
          2   -1    0    0  501    0  0.00000000000E+00 -0.00000000000E+00 -0.14282258932E+03  0.14282258932E+03  0.00000000000E+00 0. -1.
         23    2    1    2    0    0  0.00000000000E+00  0.00000000000E+00 -0.12854409143E+03  0.15710108722E+03  0.90317042497E+02 0.  0.
        -13    1    3    3    0    0  0.33502731060E+02 -0.85407013980E+01 -0.11480316957E+03  0.11989638991E+03  0.00000000000E+00 0. -1.
         13    1    3    3    0    0 -0.33502731060E+02  0.85407013980E+01 -0.13740921854E+02  0.37204697314E+02  0.00000000000E+00 0.  1.
<mgrwt>
<rscale>  0 0.90317042E+02</rscale>
<asrwt>0</asrwt>
<pdfrwt beam="2">  1        2 0.21972705E-01 0.90317042E+02</pdfrwt>
<pdfrwt beam="1">  1       -2 0.21966921E-02 0.90317042E+02</pdfrwt>
<totfact> 0.14109389E+05</totfact>
</mgrwt>
</event>
<event>
 5    1  0.1227473E+001  0.8956463E+02  0.7546771E-02  0.1303909E+00
          2   -1    0    0  501    0  0.00000000000E+00  0.00000000000E+00  0.28354194096E+03  0.28354194096E+03  0.00000000000E+00 0. -1.
         -2   -1    0    0    0  501 -0.00000000000E+00 -0.00000000000E+00 -0.70728716648E+01  0.70728716648E+01  0.00000000000E+00 0.  1.
         23    2    1    2    0    0  0.00000000000E+00  0.00000000000E+00  0.27646906929E+03  0.29061481262E+03  0.89564630518E+02 0.  0.
        -13    1    3    3    0    0  0.32202304466E+02  0.25409905595E+02  0.79936932542E+02  0.89847453495E+02  0.00000000000E+00 0.  1.
         13    1    3    3    0    0 -0.32202304466E+02 -0.25409905595E+02  0.19653213675E+03  0.20076735913E+03  0.00000000000E+00 0. -1.
<mgrwt>
<rscale>  0 0.89564631E+02</rscale>
<asrwt>0</asrwt>
<pdfrwt beam="1">  1        2 0.43621828E-01 0.89564631E+02</pdfrwt>
<pdfrwt beam="2">  1       -2 0.10881343E-02 0.89564631E+02</pdfrwt>
<totfact> 0.18449296E+05</totfact>
</mgrwt>
</event>
<event>
 5    1  0.1227473E+001  0.9816007E+02  0.7546771E-02  0.1284213E+00
          3   -1    0    0  501    0  0.00000000000E+00  0.00000000000E+00  0.29278813081E+02  0.29278813081E+02  0.00000000000E+00 0. -1.
         -3   -1    0    0    0  501 -0.00000000000E+00 -0.00000000000E+00 -0.82272790500E+02  0.82272790500E+02  0.00000000000E+00 0.  1.
         23    2    1    2    0    0  0.00000000000E+00  0.00000000000E+00 -0.52993977419E+02  0.11155160358E+03  0.98160066314E+02 0.  0.
        -13    1    3    3    0    0 -0.47348339578E+01  0.31023585621E+02 -0.69380576268E+02  0.76148183699E+02  0.00000000000E+00 0.  1.
         13    1    3    3    0    0  0.47348339578E+01 -0.31023585621E+02  0.16386598849E+02  0.35403419881E+02  0.00000000000E+00 0. -1.
<mgrwt>
<rscale>  0 0.98160066E+02</rscale>
<asrwt>0</asrwt>
<pdfrwt beam="1">  1        3 0.45044328E-02 0.98160066E+02</pdfrwt>
<pdfrwt beam="2">  1       -3 0.12657352E-01 0.98160066E+02</pdfrwt>
<totfact> 0.27654759E+04</totfact>
</mgrwt>
</event>
<event>
 5    1  0.1227473E+001  0.9298987E+02  0.7546771E-02  0.1295769E+00
         -1   -1    0    0    0  501 -0.00000000000E+00  0.00000000000E+00  0.13781485389E+03  0.13781485389E+03  0.00000000000E+00 0.  1.
          1   -1    0    0  501    0  0.00000000000E+00 -0.00000000000E+00 -0.15686110553E+02  0.15686110553E+02  0.00000000000E+00 0. -1.
         23    2    1    2    0    0  0.00000000000E+00  0.00000000000E+00  0.12212874334E+03  0.15350096445E+03  0.92989871147E+02 0.  0.
        -11    1    3    3    0    0  0.24054842255E+02  0.14738940196E+02  0.56473074028E-01  0.28211256321E+02  0.00000000000E+00 0. -1.
         11    1    3    3    0    0 -0.24054842255E+02 -0.14738940196E+02  0.12207227027E+03  0.12528970812E+03  0.00000000000E+00 0.  1.
<mgrwt>
<rscale>  0 0.92989871E+02</rscale>
<asrwt>0</asrwt>
<pdfrwt beam="2">  1        1 0.24132479E-02 0.92989871E+02</pdfrwt>
<pdfrwt beam="1">  1       -1 0.21202284E-01 0.92989871E+02</pdfrwt>
<totfact> 0.72448748E+04</totfact>
</mgrwt>
</event>
<event>
 5    1  0.1227473E+001  0.9611609E+02  0.7546771E-02  0.1288682E+00
         -1   -1    0    0    0  501 -0.00000000000E+00  0.00000000000E+00  0.58467361931E+02  0.58467361931E+02  0.00000000000E+00 0.  1.
          1   -1    0    0  501    0  0.00000000000E+00 -0.00000000000E+00 -0.39501964410E+02  0.39501964410E+02  0.00000000000E+00 0. -1.
         23    2    1    2    0    0  0.00000000000E+00  0.00000000000E+00  0.18965397521E+02  0.97969326341E+02  0.96116089186E+02 0.  0.
        -13    1    3    3    0    0 -0.37446367179E+02 -0.26876056369E+02  0.23347277829E+02  0.51668638485E+02  0.00000000000E+00 0.  1.
         13    1    3    3    0    0  0.37446367179E+02  0.26876056369E+02 -0.43818803075E+01  0.46300687856E+02  0.00000000000E+00 0. -1.
<mgrwt>
<rscale>  0 0.96116089E+02</rscale>
<asrwt>0</asrwt>
<pdfrwt beam="2">  1        1 0.60772253E-02 0.96116089E+02</pdfrwt>
<pdfrwt beam="1">  1       -1 0.89949787E-02 0.96116089E+02</pdfrwt>
<totfact> 0.77891634E+04</totfact>
</mgrwt>
</event>
<event>
 5    1  0.1227473E+001  0.9206725E+02  0.7546771E-02  0.1297921E+00
          3   -1    0    0  501    0  0.00000000000E+00  0.00000000000E+00  0.10407396119E+02  0.10407396119E+02  0.00000000000E+00 0.  1.
         -3   -1    0    0    0  501 -0.00000000000E+00 -0.00000000000E+00 -0.20361431099E+03  0.20361431099E+03  0.00000000000E+00 0. -1.
         23    2    1    2    0    0  0.00000000000E+00  0.00000000000E+00 -0.19320691487E+03  0.21402170711E+03  0.92067253462E+02 0.  0.
        -13    1    3    3    0    0 -0.36177398936E+02 -0.19961914675E+02 -0.14377742778E+03  0.14959689492E+03  0.00000000000E+00 0. -1.
         13    1    3    3    0    0  0.36177398936E+02  0.19961914675E+02 -0.49429487092E+02  0.64424812188E+02  0.00000000000E+00 0.  1.
<mgrwt>
<rscale>  0 0.92067253E+02</rscale>
<asrwt>0</asrwt>
<pdfrwt beam="1">  1        3 0.16011379E-02 0.92067253E+02</pdfrwt>
<pdfrwt beam="2">  1       -3 0.31325277E-01 0.92067253E+02</pdfrwt>
<totfact> 0.27067525E+04</totfact>
</mgrwt>
</event>
<event>
 5    1  0.1227473E+001  0.9139240E+02  0.7546771E-02  0.1299514E+00
          1   -1    0    0  501    0  0.00000000000E+00  0.00000000000E+00  0.33626933940E+03  0.33626933940E+03  0.00000000000E+00 0. -1.
         -1   -1    0    0    0  501 -0.00000000000E+00 -0.00000000000E+00 -0.62097325158E+01  0.62097325158E+01  0.00000000000E+00 0.  1.
         23    2    1    2    0    0  0.00000000000E+00  0.00000000000E+00  0.33005960689E+03  0.34247907192E+03  0.91392399049E+02 0.  0.
        -11    1    3    3    0    0 -0.42117238293E+02 -0.16717386715E+02  0.14292049457E+03  0.14993198641E+03  0.00000000000E+00 0.  1.
         11    1    3    3    0    0  0.42117238293E+02  0.16717386715E+02  0.18713911232E+03  0.19254708552E+03  0.00000000000E+00 0. -1.
<mgrwt>
<rscale>  0 0.91392399E+02</rscale>
<asrwt>0</asrwt>
<pdfrwt beam="1">  1        1 0.51733730E-01 0.91392399E+02</pdfrwt>
<pdfrwt beam="2">  1       -1 0.95534373E-03 0.91392399E+02</pdfrwt>
<totfact> 0.13006332E+05</totfact>
</mgrwt>
</event>
<event>
 5    1  0.1227473E+001  0.9767818E+02  0.7546771E-02  0.1285256E+00
         -1   -1    0    0    0  501 -0.00000000000E+00  0.00000000000E+00  0.62058871723E+02  0.62058871723E+02  0.00000000000E+00 0.  1.
          1   -1    0    0  501    0  0.00000000000E+00 -0.00000000000E+00 -0.38435383476E+02  0.38435383476E+02  0.00000000000E+00 0. -1.
         23    2    1    2    0    0  0.00000000000E+00  0.00000000000E+00  0.23623488246E+02  0.10049425520E+03  0.97678176329E+02 0.  0.
        -13    1    3    3    0    0 -0.31275665090E+02  0.27806310048E+02 -0.14091462533E+02  0.44157982536E+02  0.00000000000E+00 0. -1.
         13    1    3    3    0    0  0.31275665090E+02 -0.27806310048E+02  0.37714950779E+02  0.56336272663E+02  0.00000000000E+00 0.  1.
<mgrwt>
<rscale>  0 0.97678176E+02</rscale>
<asrwt>0</asrwt>
<pdfrwt beam="2">  1        1 0.59131359E-02 0.97678176E+02</pdfrwt>
<pdfrwt beam="1">  1       -1 0.95475187E-02 0.97678176E+02</pdfrwt>
<totfact> 0.74051130E+04</totfact>
</mgrwt>
</event>
<event>
 5    1  0.1227473E+001  0.9782006E+02  0.7546771E-02  0.1284948E+00
         -4   -1    0    0    0  501 -0.00000000000E+00  0.00000000000E+00  0.12507186452E+03  0.12507186452E+03  0.00000000000E+00 0.  1.
          4   -1    0    0  501    0  0.00000000000E+00 -0.00000000000E+00 -0.19126531850E+02  0.19126531850E+02  0.00000000000E+00 0. -1.
         23    2    1    2    0    0  0.00000000000E+00  0.00000000000E+00  0.10594533267E+03  0.14419839637E+03  0.97820059296E+02 0.  0.
        -11    1    3    3    0    0 -0.46763742758E+02 -0.74829855121E+00  0.74067684173E+02  0.87598113143E+02  0.00000000000E+00 0.  1.
         11    1    3    3    0    0  0.46763742758E+02  0.74829855121E+00  0.31877648494E+02  0.56600283223E+02  0.00000000000E+00 0. -1.
<mgrwt>
<rscale>  0 0.97820059E+02</rscale>
<asrwt>0</asrwt>
<pdfrwt beam="2">  1        4 0.29425434E-02 0.97820059E+02</pdfrwt>
<pdfrwt beam="1">  1       -4 0.19241825E-01 0.97820059E+02</pdfrwt>
<totfact> 0.19809238E+04</totfact>
</mgrwt>
</event>
<event>
 5    1  0.1227473E+001  0.9085612E+02  0.7546771E-02  0.1300792E+00
         -2   -1    0    0    0  501 -0.00000000000E+00  0.00000000000E+00  0.50390152165E+02  0.50390152165E+02  0.00000000000E+00 0.  1.
          2   -1    0    0  501    0  0.00000000000E+00 -0.00000000000E+00 -0.40954601373E+02  0.40954601373E+02  0.00000000000E+00 0. -1.
         23    2    1    2    0    0  0.00000000000E+00  0.00000000000E+00  0.94355507918E+01  0.91344753538E+02  0.90856119112E+02 0.  0.
        -13    1    3    3    0    0 -0.11453803693E+01  0.33253098825E+02 -0.26377971808E+02  0.42460309400E+02  0.00000000000E+00 0. -1.
         13    1    3    3    0    0  0.11453803693E+01 -0.33253098825E+02  0.35813522599E+02  0.48884444138E+02  0.00000000000E+00 0.  1.
<mgrwt>
<rscale>  0 0.90856119E+02</rscale>
<asrwt>0</asrwt>
<pdfrwt beam="2">  1        2 0.63007079E-02 0.90856119E+02</pdfrwt>
<pdfrwt beam="1">  1       -2 0.77523311E-02 0.90856119E+02</pdfrwt>
<totfact> 0.96954877E+04</totfact>
</mgrwt>
</event>
<event>
 5    1  0.1227473E+001  0.9038667E+02  0.7546771E-02  0.1301918E+00
         -2   -1    0    0    0  501 -0.00000000000E+00  0.00000000000E+00  0.99657223713E+01  0.99657223713E+01  0.00000000000E+00 0. -1.
          2   -1    0    0  501    0  0.00000000000E+00 -0.00000000000E+00 -0.20494627504E+03  0.20494627504E+03  0.00000000000E+00 0.  1.
         23    2    1    2    0    0  0.00000000000E+00  0.00000000000E+00 -0.19498055266E+03  0.21491199741E+03  0.90386673310E+02 0.  0.
        -11    1    3    3    0    0 -0.11858134304E+02  0.41667669214E+02 -0.12809036647E+03  0.13521816442E+03  0.00000000000E+00 0. -1.
         11    1    3    3    0    0  0.11858134304E+02 -0.41667669214E+02 -0.66890186198E+02  0.79693832989E+02  0.00000000000E+00 0.  1.
<mgrwt>
<rscale>  0 0.90386673E+02</rscale>
<asrwt>0</asrwt>
<pdfrwt beam="2">  1        2 0.31530194E-01 0.90386673E+02</pdfrwt>
<pdfrwt beam="1">  1       -2 0.15331881E-02 0.90386673E+02</pdfrwt>
<totfact> 0.15974884E+05</totfact>
</mgrwt>
</event>
<event>
 5    1  0.1227473E+001  0.9212205E+02  0.7546771E-02  0.1297793E+00
          1   -1    0    0  501    0  0.00000000000E+00  0.00000000000E+00  0.19044435507E+02  0.19044435507E+02  0.00000000000E+00 0. -1.
         -1   -1    0    0    0  501 -0.00000000000E+00 -0.00000000000E+00 -0.11140355951E+03  0.11140355951E+03  0.00000000000E+00 0.  1.
         23    2    1    2    0    0  0.00000000000E+00  0.00000000000E+00 -0.92359124004E+02  0.13044799502E+03  0.92122047401E+02 0.  0.
        -13    1    3    3    0    0 -0.20003692356E+02 -0.68272586358E+01 -0.10413082671E+03  0.10625435633E+03  0.00000000000E+00 0.  1.
         13    1    3    3    0    0  0.20003692356E+02  0.68272586358E+01  0.11771702705E+02  0.24193638687E+02  0.00000000000E+00 0. -1.
<mgrwt>
<rscale>  0 0.92122047E+02</rscale>
<asrwt>0</asrwt>
<pdfrwt beam="1">  1        1 0.29299132E-02 0.92122047E+02</pdfrwt>
<pdfrwt beam="2">  1       -1 0.17139009E-01 0.92122047E+02</pdfrwt>
<totfact> 0.77612835E+04</totfact>
</mgrwt>
</event>
<event>
 5    1  0.1227473E+001  0.9774468E+02  0.7546771E-02  0.1285111E+00
         -2   -1    0    0    0  501 -0.00000000000E+00  0.00000000000E+00  0.25925212434E+02  0.25925212434E+02  0.00000000000E+00 0.  1.
          2   -1    0    0  501    0  0.00000000000E+00 -0.00000000000E+00 -0.92130617770E+02  0.92130617770E+02  0.00000000000E+00 0. -1.
         23    2    1    2    0    0  0.00000000000E+00  0.00000000000E+00 -0.66205405336E+02  0.11805583020E+03  0.97744684506E+02 0.  0.
        -11    1    3    3    0    0  0.99398891672E+01  0.27489360264E+02  0.14202898234E+02  0.32499056027E+02  0.00000000000E+00 0.  1.
         11    1    3    3    0    0 -0.99398891672E+01 -0.27489360264E+02 -0.80408303570E+02  0.85556774176E+02  0.00000000000E+00 0. -1.
<mgrwt>
<rscale>  0 0.97744685E+02</rscale>
<asrwt>0</asrwt>
<pdfrwt beam="2">  1        2 0.14173941E-01 0.97744685E+02</pdfrwt>
<pdfrwt beam="1">  1       -2 0.39884942E-02 0.97744685E+02</pdfrwt>
<totfact> 0.98649532E+04</totfact>
</mgrwt>
</event>
<event>
 5    1  0.1227473E+001  0.9354796E+02  0.7546771E-02  0.1294480E+00
         -1   -1    0    0    0  501 -0.00000000000E+00  0.00000000000E+00  0.40150507225E+02  0.40150507225E+02  0.00000000000E+00 0.  1.
          1   -1    0    0  501    0  0.00000000000E+00 -0.00000000000E+00 -0.54490098349E+02  0.54490098349E+02  0.00000000000E+00 0. -1.
         23    2    1    2    0    0  0.00000000000E+00  0.00000000000E+00 -0.14339591124E+02  0.94640605574E+02  0.93547957487E+02 0.  0.
        -13    1    3    3    0    0 -0.42214408067E+02  0.17249919493E+01  0.13133825821E+02  0.44243973899E+02  0.00000000000E+00 0.  1.
         13    1    3    3    0    0  0.42214408067E+02 -0.17249919493E+01 -0.27473416945E+02  0.50396631676E+02  0.00000000000E+00 0. -1.
<mgrwt>
<rscale>  0 0.93547957E+02</rscale>
<asrwt>0</asrwt>
<pdfrwt beam="2">  1        1 0.83830920E-02 0.93547957E+02</pdfrwt>
<pdfrwt beam="1">  1       -1 0.61770011E-02 0.93547957E+02</pdfrwt>
<totfact> 0.88410360E+04</totfact>
</mgrwt>
</event>
<event>
 5    1  0.1227473E+001  0.8770996E+02  0.7546771E-02  0.1308494E+00
          1   -1    0    0  501    0  0.00000000000E+00  0.00000000000E+00  0.70231902138E+01  0.70231902138E+01  0.00000000000E+00 0. -1.
         -1   -1    0    0    0  501 -0.00000000000E+00 -0.00000000000E+00 -0.27384413803E+03  0.27384413803E+03  0.00000000000E+00 0.  1.
         23    2    1    2    0    0  0.00000000000E+00  0.00000000000E+00 -0.26682094782E+03  0.28086732825E+03  0.87709964550E+02 0.  0.
        -13    1    3    3    0    0  0.42446210757E+02 -0.92544585934E+01 -0.11421481573E+03  0.12219799485E+03  0.00000000000E+00 0.  1.
         13    1    3    3    0    0 -0.42446210757E+02  0.92544585934E+01 -0.15260613209E+03  0.15866933340E+03  0.00000000000E+00 0. -1.
<mgrwt>
<rscale>  0 0.87709965E+02</rscale>
<asrwt>0</asrwt>
<pdfrwt beam="1">  1        1 0.10804909E-02 0.87709965E+02</pdfrwt>
<pdfrwt beam="2">  1       -1 0.42129865E-01 0.87709965E+02</pdfrwt>
<totfact> 0.69393527E+04</totfact>
</mgrwt>
</event>
<event>
 5    1  0.1227473E+001  0.9025281E+02  0.7546771E-02  0.1302241E+00
         -3   -1    0    0    0  501 -0.00000000000E+00  0.00000000000E+00  0.43275030614E+02  0.43275030614E+02  0.00000000000E+00 0.  1.
          3   -1    0    0  501    0  0.00000000000E+00 -0.00000000000E+00 -0.47056979472E+02  0.47056979472E+02  0.00000000000E+00 0. -1.
         23    2    1    2    0    0  0.00000000000E+00  0.00000000000E+00 -0.37819488575E+01  0.90332010086E+02  0.90252805546E+02 0.  0.
        -13    1    3    3    0    0 -0.29093312231E+02 -0.35922431072E+01  0.32447547096E+02  0.43728347095E+02  0.00000000000E+00 0. -1.
         13    1    3    3    0    0  0.29093312231E+02  0.35922431072E+01 -0.36229495953E+02  0.46603662991E+02  0.00000000000E+00 0.  1.
<mgrwt>
<rscale>  0 0.90252806E+02</rscale>
<asrwt>0</asrwt>
<pdfrwt beam="2">  1        3 0.72395353E-02 0.90252806E+02</pdfrwt>
<pdfrwt beam="1">  1       -3 0.66576970E-02 0.90252806E+02</pdfrwt>
<totfact> 0.36398376E+04</totfact>
</mgrwt>
</event>
<event>
 5    1  0.1227473E+001  0.9323167E+02  0.7546771E-02  0.1295209E+00
          2   -1    0    0  501    0  0.00000000000E+00  0.00000000000E+00  0.24633471719E+03  0.24633471719E+03  0.00000000000E+00 0. -1.
         -2   -1    0    0    0  501 -0.00000000000E+00 -0.00000000000E+00 -0.88214766542E+01  0.88214766542E+01  0.00000000000E+00 0.  1.
         23    2    1    2    0    0  0.00000000000E+00  0.00000000000E+00  0.23751324053E+03  0.25515619384E+03  0.93231667512E+02 0.  0.
        -13    1    3    3    0    0  0.43375182164E+02 -0.42157086039E+00  0.16547911668E+03  0.17106993368E+03  0.00000000000E+00 0. -1.
         13    1    3    3    0    0 -0.43375182164E+02  0.42157086039E+00  0.72034123847E+02  0.84086260163E+02  0.00000000000E+00 0.  1.
<mgrwt>
<rscale>  0 0.93231668E+02</rscale>
<asrwt>0</asrwt>
<pdfrwt beam="1">  1        2 0.37897643E-01 0.93231668E+02</pdfrwt>
<pdfrwt beam="2">  1       -2 0.13571504E-02 0.93231668E+02</pdfrwt>
<totfact> 0.15725184E+05</totfact>
</mgrwt>
</event>
<event>
 5    1  0.1227473E+001  0.9098229E+02  0.7546771E-02  0.1300490E+00
          2   -1    0    0  501    0  0.00000000000E+00  0.00000000000E+00  0.32388518014E+03  0.32388518014E+03  0.00000000000E+00 0. -1.
         -2   -1    0    0    0  501 -0.00000000000E+00 -0.00000000000E+00 -0.63894383380E+01  0.63894383380E+01  0.00000000000E+00 0.  1.
         23    2    1    2    0    0  0.00000000000E+00  0.00000000000E+00  0.31749574180E+03  0.33027461847E+03  0.90982292499E+02 0.  0.
        -13    1    3    3    0    0  0.39682521595E+02 -0.10885082919E+02  0.22916211539E+03  0.23282710899E+03  0.00000000000E+00 0. -1.
         13    1    3    3    0    0 -0.39682521595E+02  0.10885082919E+02  0.88333626404E+02  0.97447509481E+02  0.00000000000E+00 0.  1.
<mgrwt>
<rscale>  0 0.90982292E+02</rscale>
<asrwt>0</asrwt>
<pdfrwt beam="1">  1        2 0.49828477E-01 0.90982292E+02</pdfrwt>
<pdfrwt beam="2">  1       -2 0.98299076E-03 0.90982292E+02</pdfrwt>
<totfact> 0.18589936E+05</totfact>
</mgrwt>
</event>
<event>
 5    1  0.1227473E+001  0.9227804E+02  0.7546771E-02  0.1297427E+00
         -1   -1    0    0    0  501 -0.00000000000E+00  0.00000000000E+00  0.99223823989E+01  0.99223823989E+01  0.00000000000E+00 0.  1.
          1   -1    0    0  501    0  0.00000000000E+00 -0.00000000000E+00 -0.21454617803E+03  0.21454617803E+03  0.00000000000E+00 0. -1.
         23    2    1    2    0    0  0.00000000000E+00  0.00000000000E+00 -0.20462379563E+03  0.22446856042E+03  0.92278041171E+02 0.  0.
        -11    1    3    3    0    0 -0.32090909211E+02 -0.18413532616E+02 -0.35255163188E+02  0.51105881939E+02  0.00000000000E+00 0.  1.
         11    1    3    3    0    0  0.32090909211E+02  0.18413532616E+02 -0.16936863244E+03  0.17336267848E+03  0.00000000000E+00 0. -1.
<mgrwt>
<rscale>  0 0.92278041E+02</rscale>
<asrwt>0</asrwt>
<pdfrwt beam="2">  1        1 0.33007103E-01 0.92278041E+02</pdfrwt>
<pdfrwt beam="1">  1       -1 0.15265204E-02 0.92278041E+02</pdfrwt>
<totfact> 0.11623034E+05</totfact>
</mgrwt>
</event>
<event>
 5    1  0.1227473E+001  0.9114007E+02  0.7546771E-02  0.1300114E+00
          3   -1    0    0  501    0  0.00000000000E+00  0.00000000000E+00  0.25149390729E+02  0.25149390729E+02  0.00000000000E+00 0. -1.
         -3   -1    0    0    0  501 -0.00000000000E+00 -0.00000000000E+00 -0.82571707770E+02  0.82571707770E+02  0.00000000000E+00 0.  1.
         23    2    1    2    0    0  0.00000000000E+00  0.00000000000E+00 -0.57422317041E+02  0.10772109850E+03  0.91140071141E+02 0.  0.
        -13    1    3    3    0    0 -0.31055651571E+01 -0.28563265521E+02 -0.70517435717E+02  0.76146000632E+02  0.00000000000E+00 0.  1.
         13    1    3    3    0    0  0.31055651571E+01  0.28563265521E+02  0.13095118676E+02  0.31575097867E+02  0.00000000000E+00 0. -1.
<mgrwt>
<rscale>  0 0.91140071E+02</rscale>
<asrwt>0</asrwt>
<pdfrwt beam="1">  1        3 0.38691371E-02 0.91140071E+02</pdfrwt>
<pdfrwt beam="2">  1       -3 0.12703340E-01 0.91140071E+02</pdfrwt>
<totfact> 0.34146978E+04</totfact>
</mgrwt>
</event>
<event>
 5    1  0.1227473E+001  0.9104431E+02  0.7546771E-02  0.1300342E+00
          1   -1    0    0  501    0  0.00000000000E+00  0.00000000000E+00  0.10490062606E+03  0.10490062606E+03  0.00000000000E+00 0. -1.
         -1   -1    0    0    0  501 -0.00000000000E+00 -0.00000000000E+00 -0.19754567534E+02  0.19754567534E+02  0.00000000000E+00 0.  1.
         23    2    1    2    0    0  0.00000000000E+00  0.00000000000E+00  0.85146058531E+02  0.12465519360E+03  0.91044307938E+02 0.  0.
        -13    1    3    3    0    0  0.44217144221E+02 -0.63344026847E+01  0.30559697785E+02  0.54121859069E+02  0.00000000000E+00 0.  1.
         13    1    3    3    0    0 -0.44217144221E+02  0.63344026847E+01  0.54586360746E+02  0.70533334530E+02  0.00000000000E+00 0. -1.
<mgrwt>
<rscale>  0 0.91044308E+02</rscale>
<asrwt>0</asrwt>
<pdfrwt beam="1">  1        1 0.16138557E-01 0.91044308E+02</pdfrwt>
<pdfrwt beam="2">  1       -1 0.30391643E-02 0.91044308E+02</pdfrwt>
<totfact> 0.10570894E+05</totfact>
</mgrwt>
</event>
<event>
 5    1  0.1227473E+001  0.9100281E+02  0.7546771E-02  0.1300441E+00
          2   -1    0    0  501    0  0.00000000000E+00  0.00000000000E+00  0.34497808090E+03  0.34497808090E+03  0.00000000000E+00 0. -1.
         -2   -1    0    0    0  501 -0.00000000000E+00 -0.00000000000E+00 -0.60014766091E+01  0.60014766091E+01  0.00000000000E+00 0.  1.
         23    2    1    2    0    0  0.00000000000E+00  0.00000000000E+00  0.33897660429E+03  0.35097955751E+03  0.91002810576E+02 0.  0.
        -13    1    3    3    0    0  0.41874193098E+02  0.10700790608E+02  0.11461553583E+03  0.12249357543E+03  0.00000000000E+00 0.  1.
         13    1    3    3    0    0 -0.41874193098E+02 -0.10700790608E+02  0.22436106846E+03  0.22848598208E+03  0.00000000000E+00 0. -1.
<mgrwt>
<rscale>  0 0.91002811E+02</rscale>
<asrwt>0</asrwt>
<pdfrwt beam="1">  1        2 0.53073535E-01 0.91002811E+02</pdfrwt>
<pdfrwt beam="2">  1       -2 0.92330437E-03 0.91002811E+02</pdfrwt>
<totfact> 0.19015696E+05</totfact>
</mgrwt>
</event>
<event>
 5    1  0.1227473E+001  0.9245356E+02  0.7546771E-02  0.1297017E+00
         -1   -1    0    0    0  501 -0.00000000000E+00  0.00000000000E+00  0.89256152812E+01  0.89256152812E+01  0.00000000000E+00 0.  1.
          1   -1    0    0  501    0  0.00000000000E+00 -0.00000000000E+00 -0.23941375280E+03  0.23941375280E+03  0.00000000000E+00 0. -1.
         23    2    1    2    0    0  0.00000000000E+00  0.00000000000E+00 -0.23048813752E+03  0.24833936808E+03  0.92453557001E+02 0.  0.
        -13    1    3    3    0    0  0.34183395413E+02  0.50935537590E+01 -0.32781881890E+02  0.47635077329E+02  0.00000000000E+00 0. -1.
         13    1    3    3    0    0 -0.34183395413E+02 -0.50935537590E+01 -0.19770625563E+03  0.20070429075E+03  0.00000000000E+00 0.  1.
<mgrwt>
<rscale>  0 0.92453557E+02</rscale>
<asrwt>0</asrwt>
<pdfrwt beam="2">  1        1 0.36832889E-01 0.92453557E+02</pdfrwt>
<pdfrwt beam="1">  1       -1 0.13731714E-02 0.92453557E+02</pdfrwt>
<totfact> 0.11814998E+05</totfact>
</mgrwt>
</event>
<event>
 5    1  0.1227473E+001  0.9554405E+02  0.7546771E-02  0.1289955E+00
          3   -1    0    0  501    0  0.00000000000E+00  0.00000000000E+00  0.16161350608E+03  0.16161350608E+03  0.00000000000E+00 0. -1.
         -3   -1    0    0    0  501 -0.00000000000E+00 -0.00000000000E+00 -0.14121137918E+02  0.14121137918E+02  0.00000000000E+00 0.  1.
         23    2    1    2    0    0  0.00000000000E+00  0.00000000000E+00  0.14749236816E+03  0.17573464400E+03  0.95544054942E+02 0.  0.
        -13    1    3    3    0    0 -0.19887720851E+02 -0.43013687075E+02  0.84853498062E+02  0.97189582002E+02  0.00000000000E+00 0.  1.
         13    1    3    3    0    0  0.19887720851E+02  0.43013687075E+02  0.62638870099E+02  0.78545061994E+02  0.00000000000E+00 0. -1.
<mgrwt>
<rscale>  0 0.95544055E+02</rscale>
<asrwt>0</asrwt>
<pdfrwt beam="1">  1        3 0.24863615E-01 0.95544055E+02</pdfrwt>
<pdfrwt beam="2">  1       -3 0.21724829E-02 0.95544055E+02</pdfrwt>
<totfact> 0.26249308E+04</totfact>
</mgrwt>
</event>
<event>
 5    1  0.1227473E+001  0.8668295E+02  0.7546771E-02  0.1311089E+00
         -4   -1    0    0    0  501 -0.00000000000E+00  0.00000000000E+00  0.46628099123E+02  0.46628099123E+02  0.00000000000E+00 0.  1.
          4   -1    0    0  501    0  0.00000000000E+00 -0.00000000000E+00 -0.40286515793E+02  0.40286515793E+02  0.00000000000E+00 0. -1.
         23    2    1    2    0    0  0.00000000000E+00  0.00000000000E+00  0.63415833301E+01  0.86914614917E+02  0.86682954535E+02 0.  0.
        -13    1    3    3    0    0  0.15087873581E+02  0.23284994308E+02 -0.30214570596E+02  0.41021398872E+02  0.00000000000E+00 0. -1.
         13    1    3    3    0    0 -0.15087873581E+02 -0.23284994308E+02  0.36556153926E+02  0.45893216045E+02  0.00000000000E+00 0.  1.
<mgrwt>
<rscale>  0 0.86682955E+02</rscale>
<asrwt>0</asrwt>
<pdfrwt beam="2">  1        4 0.61979255E-02 0.86682955E+02</pdfrwt>
<pdfrwt beam="1">  1       -4 0.71735537E-02 0.86682955E+02</pdfrwt>
<totfact> 0.31289112E+04</totfact>
</mgrwt>
</event>
<event>
 5    1  0.1227473E+001  0.9130740E+02  0.7546771E-02  0.1299716E+00
         -1   -1    0    0    0  501 -0.00000000000E+00  0.00000000000E+00  0.44415960845E+02  0.44415960845E+02  0.00000000000E+00 0.  1.
          1   -1    0    0  501    0  0.00000000000E+00 -0.00000000000E+00 -0.46925934610E+02  0.46925934610E+02  0.00000000000E+00 0. -1.
         23    2    1    2    0    0  0.00000000000E+00  0.00000000000E+00 -0.25099737647E+01  0.91341895456E+02  0.91307403299E+02 0.  0.
        -11    1    3    3    0    0  0.40988570225E+02  0.18930593233E+02  0.55173729061E+01  0.45484850808E+02  0.00000000000E+00 0.  1.
         11    1    3    3    0    0 -0.40988570225E+02 -0.18930593233E+02 -0.80273466708E+01  0.45857044648E+02  0.00000000000E+00 0. -1.
<mgrwt>
<rscale>  0 0.91307403E+02</rscale>
<asrwt>0</asrwt>
<pdfrwt beam="2">  1        1 0.72193745E-02 0.91307403E+02</pdfrwt>
<pdfrwt beam="1">  1       -1 0.68332248E-02 0.91307403E+02</pdfrwt>
<totfact> 0.92502781E+04</totfact>
</mgrwt>
</event>
<event>
 5    1  0.1227473E+001  0.9071688E+02  0.7546771E-02  0.1301125E+00
          1   -1    0    0  501    0  0.00000000000E+00  0.00000000000E+00  0.80635063895E+02  0.80635063895E+02  0.00000000000E+00 0. -1.
         -1   -1    0    0    0  501 -0.00000000000E+00 -0.00000000000E+00 -0.25514805440E+02  0.25514805440E+02  0.00000000000E+00 0.  1.
         23    2    1    2    0    0  0.00000000000E+00  0.00000000000E+00  0.55120258455E+02  0.10614986934E+03  0.90716877524E+02 0.  0.
        -13    1    3    3    0    0  0.28070148156E+00 -0.41848850297E+02  0.48028343296E+02  0.63703428670E+02  0.00000000000E+00 0. -1.
         13    1    3    3    0    0 -0.28070148156E+00  0.41848850297E+02  0.70919151587E+01  0.42446440665E+02  0.00000000000E+00 0.  1.
<mgrwt>
<rscale>  0 0.90716878E+02</rscale>
<asrwt>0</asrwt>
<pdfrwt beam="1">  1        1 0.12405394E-01 0.90716878E+02</pdfrwt>
<pdfrwt beam="2">  1       -1 0.39253547E-02 0.90716878E+02</pdfrwt>
<totfact> 0.10227870E+05</totfact>
</mgrwt>
</event>
<event>
 5    1  0.1227473E+001  0.9211295E+02  0.7546771E-02  0.1297814E+00
         -2   -1    0    0    0  501 -0.00000000000E+00  0.00000000000E+00  0.22850467837E+02  0.22850467837E+02  0.00000000000E+00 0.  1.
          2   -1    0    0  501    0  0.00000000000E+00 -0.00000000000E+00 -0.92829557089E+02  0.92829557089E+02  0.00000000000E+00 0. -1.
         23    2    1    2    0    0  0.00000000000E+00  0.00000000000E+00 -0.69979089252E+02  0.11568002493E+03  0.92112948245E+02 0.  0.
        -13    1    3    3    0    0 -0.16174992072E+02 -0.34689646512E+02 -0.28192701595E+01  0.38379033702E+02  0.00000000000E+00 0.  1.
         13    1    3    3    0    0  0.16174992072E+02  0.34689646512E+02 -0.67159819093E+02  0.77300991224E+02  0.00000000000E+00 0. -1.
<mgrwt>
<rscale>  0 0.92112948E+02</rscale>
<asrwt>0</asrwt>
<pdfrwt beam="2">  1        2 0.14281470E-01 0.92112948E+02</pdfrwt>
<pdfrwt beam="1">  1       -2 0.35154566E-02 0.92112948E+02</pdfrwt>
<totfact> 0.11661431E+05</totfact>
</mgrwt>
</event>
<event>
 5    1  0.1227473E+001  0.9043052E+02  0.7546771E-02  0.1301812E+00
         -2   -1    0    0    0  501 -0.00000000000E+00  0.00000000000E+00  0.49777339057E+02  0.49777339057E+02  0.00000000000E+00 0.  1.
          2   -1    0    0  501    0  0.00000000000E+00 -0.00000000000E+00 -0.41071293612E+02  0.41071293612E+02  0.00000000000E+00 0. -1.
         23    2    1    2    0    0  0.00000000000E+00  0.00000000000E+00  0.87060454455E+01  0.90848632669E+02  0.90430519354E+02 0.  0.
        -13    1    3    3    0    0 -0.23147657700E+02 -0.38565013733E+02  0.89944887694E+01  0.45869109098E+02  0.00000000000E+00 0. -1.
         13    1    3    3    0    0  0.23147657700E+02  0.38565013733E+02 -0.28844332391E+00  0.44979523572E+02  0.00000000000E+00 0.  1.
<mgrwt>
<rscale>  0 0.90430519E+02</rscale>
<asrwt>0</asrwt>
<pdfrwt beam="2">  1        2 0.63186605E-02 0.90430519E+02</pdfrwt>
<pdfrwt beam="1">  1       -2 0.76580522E-02 0.90430519E+02</pdfrwt>
<totfact> 0.98349123E+04</totfact>
</mgrwt>
</event>
<event>
 5    1  0.1227473E+001  0.9160181E+02  0.7546771E-02  0.1299018E+00
          1   -1    0    0  501    0  0.00000000000E+00  0.00000000000E+00  0.16788039269E+03  0.16788039269E+03  0.00000000000E+00 0. -1.
         -1   -1    0    0    0  501 -0.00000000000E+00 -0.00000000000E+00 -0.12495342188E+02  0.12495342188E+02  0.00000000000E+00 0.  1.
         23    2    1    2    0    0  0.00000000000E+00  0.00000000000E+00  0.15538505051E+03  0.18037573488E+03  0.91601811192E+02 0.  0.
        -11    1    3    3    0    0  0.29177031252E+02  0.22616684566E+02  0.24311003768E+02  0.44202245166E+02  0.00000000000E+00 0.  1.
         11    1    3    3    0    0 -0.29177031252E+02 -0.22616684566E+02  0.13107404674E+03  0.13617348972E+03  0.00000000000E+00 0. -1.
<mgrwt>
<rscale>  0 0.91601811E+02</rscale>
<asrwt>0</asrwt>
<pdfrwt beam="1">  1        1 0.25827751E-01 0.91601811E+02</pdfrwt>
<pdfrwt beam="2">  1       -1 0.19223605E-02 0.91601811E+02</pdfrwt>
<totfact> 0.11307954E+05</totfact>
</mgrwt>
</event>
<event>
 5    1  0.1227473E+001  0.8992360E+02  0.7546771E-02  0.1303037E+00
         -2   -1    0    0    0  501 -0.00000000000E+00  0.00000000000E+00  0.31030054611E+02  0.31030054611E+02  0.00000000000E+00 0.  1.
          2   -1    0    0  501    0  0.00000000000E+00 -0.00000000000E+00 -0.65148563993E+02  0.65148563993E+02  0.00000000000E+00 0. -1.
         23    2    1    2    0    0  0.00000000000E+00  0.00000000000E+00 -0.34118509382E+02  0.96178618604E+02  0.89923600873E+02 0.  0.
        -13    1    3    3    0    0 -0.54194400560E+01  0.43101294717E+02 -0.29462064100E+02  0.52489095609E+02  0.00000000000E+00 0. -1.
         13    1    3    3    0    0  0.54194400560E+01 -0.43101294717E+02 -0.46564452819E+01  0.43689522995E+02  0.00000000000E+00 0.  1.
<mgrwt>
<rscale>  0 0.89923601E+02</rscale>
<asrwt>0</asrwt>
<pdfrwt beam="2">  1        2 0.10022856E-01 0.89923601E+02</pdfrwt>
<pdfrwt beam="1">  1       -2 0.47738546E-02 0.89923601E+02</pdfrwt>
<totfact> 0.11274699E+05</totfact>
</mgrwt>
</event>
<event>
 5    1  0.1227473E+001  0.9240355E+02  0.7546771E-02  0.1297133E+00
         -1   -1    0    0    0  501 -0.00000000000E+00  0.00000000000E+00  0.27458824471E+02  0.27458824471E+02  0.00000000000E+00 0.  1.
          1   -1    0    0  501    0  0.00000000000E+00 -0.00000000000E+00 -0.77738359308E+02  0.77738359308E+02  0.00000000000E+00 0. -1.
         23    2    1    2    0    0  0.00000000000E+00  0.00000000000E+00 -0.50279534837E+02  0.10519718378E+03  0.92403548913E+02 0.  0.
        -11    1    3    3    0    0 -0.68398130157E+01 -0.32380293108E+02  0.11562573839E+02  0.35056519188E+02  0.00000000000E+00 0. -1.
         11    1    3    3    0    0  0.68398130157E+01  0.32380293108E+02 -0.61842108676E+02  0.70140664591E+02  0.00000000000E+00 0.  1.
<mgrwt>
<rscale>  0 0.92403549E+02</rscale>
<asrwt>0</asrwt>
<pdfrwt beam="2">  1        1 0.11959748E-01 0.92403549E+02</pdfrwt>
<pdfrwt beam="1">  1       -1 0.42244345E-02 0.92403549E+02</pdfrwt>
<totfact> 0.96668150E+04</totfact>
</mgrwt>
</event>
<event>
 5    1  0.1227473E+001  0.8938457E+02  0.7546771E-02  0.1304349E+00
         -1   -1    0    0    0  501 -0.00000000000E+00  0.00000000000E+00  0.14688347312E+02  0.14688347312E+02  0.00000000000E+00 0.  1.
          1   -1    0    0  501    0  0.00000000000E+00 -0.00000000000E+00 -0.13598536267E+03  0.13598536267E+03  0.00000000000E+00 0. -1.
         23    2    1    2    0    0  0.00000000000E+00  0.00000000000E+00 -0.12129701536E+03  0.15067370998E+03  0.89384567712E+02 0.  0.
        -11    1    3    3    0    0  0.42311290099E+02  0.76111209804E+01 -0.40056584886E+02  0.58759717708E+02  0.00000000000E+00 0.  1.
         11    1    3    3    0    0 -0.42311290099E+02 -0.76111209804E+01 -0.81240430473E+02  0.91913992275E+02  0.00000000000E+00 0. -1.
<mgrwt>
<rscale>  0 0.89384568E+02</rscale>
<asrwt>0</asrwt>
<pdfrwt beam="2">  1        1 0.20920826E-01 0.89384568E+02</pdfrwt>
<pdfrwt beam="1">  1       -1 0.22597456E-02 0.89384568E+02</pdfrwt>
<totfact> 0.11621264E+05</totfact>
</mgrwt>
</event>
<event>
 5    1  0.1227473E+001  0.9309079E+02  0.7546771E-02  0.1295535E+00
         -1   -1    0    0    0  501 -0.00000000000E+00  0.00000000000E+00  0.13507819776E+03  0.13507819776E+03  0.00000000000E+00 0.  1.
          1   -1    0    0  501    0  0.00000000000E+00 -0.00000000000E+00 -0.16038663655E+02  0.16038663655E+02  0.00000000000E+00 0. -1.
         23    2    1    2    0    0  0.00000000000E+00  0.00000000000E+00  0.11903953411E+03  0.15111686142E+03  0.93090789684E+02 0.  0.
        -11    1    3    3    0    0  0.24811448911E+02 -0.35167350213E+02  0.88290853416E+02  0.98222325950E+02  0.00000000000E+00 0.  1.
         11    1    3    3    0    0 -0.24811448911E+02  0.35167350213E+02  0.30748680692E+02  0.52894535468E+02  0.00000000000E+00 0. -1.
<mgrwt>
<rscale>  0 0.93090790E+02</rscale>
<asrwt>0</asrwt>
<pdfrwt beam="2">  1        1 0.24674868E-02 0.93090790E+02</pdfrwt>
<pdfrwt beam="1">  1       -1 0.20781260E-01 0.93090790E+02</pdfrwt>
<totfact> 0.72566954E+04</totfact>
</mgrwt>
</event>
<event>
 5    1  0.1227473E+001  0.1004520E+03  0.7546771E-02  0.1279348E+00
         -2   -1    0    0    0  501 -0.00000000000E+00  0.00000000000E+00  0.17292880958E+02  0.17292880958E+02  0.00000000000E+00 0.  1.
          2   -1    0    0  501    0  0.00000000000E+00 -0.00000000000E+00 -0.14587806624E+03  0.14587806624E+03  0.00000000000E+00 0. -1.
         23    2    1    2    0    0  0.00000000000E+00  0.00000000000E+00 -0.12858518528E+03  0.16317094720E+03  0.10045201907E+03 0.  0.
        -11    1    3    3    0    0 -0.24549059577E+02  0.43805668538E+02 -0.65964280033E+02  0.82902829641E+02  0.00000000000E+00 0.  1.
         11    1    3    3    0    0  0.24549059577E+02 -0.43805668538E+02 -0.62620905251E+02  0.80268117560E+02  0.00000000000E+00 0. -1.
<mgrwt>
<rscale>  0 0.10045202E+03</rscale>
<asrwt>0</asrwt>
<pdfrwt beam="2">  1        2 0.22442779E-01 0.10045202E+03</pdfrwt>
<pdfrwt beam="1">  1       -2 0.26604433E-02 0.10045202E+03</pdfrwt>
<totfact> 0.10625238E+05</totfact>
</mgrwt>
</event>
<event>
 5    1  0.1227473E+001  0.9356492E+02  0.7546771E-02  0.1294441E+00
          1   -1    0    0  501    0  0.00000000000E+00  0.00000000000E+00  0.22755335420E+03  0.22755335420E+03  0.00000000000E+00 0. -1.
         -1   -1    0    0    0  501 -0.00000000000E+00 -0.00000000000E+00 -0.96179572419E+01  0.96179572419E+01  0.00000000000E+00 0.  1.
         23    2    1    2    0    0  0.00000000000E+00  0.00000000000E+00  0.21793539696E+03  0.23717131144E+03  0.93564917163E+02 0.  0.
        -11    1    3    3    0    0 -0.29866165107E+02 -0.31560931015E+02  0.65025220835E+02  0.78207157789E+02  0.00000000000E+00 0.  1.
         11    1    3    3    0    0  0.29866165107E+02  0.31560931015E+02  0.15291017612E+03  0.15896415365E+03  0.00000000000E+00 0. -1.
<mgrwt>
<rscale>  0 0.93564917E+02</rscale>
<asrwt>0</asrwt>
<pdfrwt beam="1">  1        1 0.35008204E-01 0.93564917E+02</pdfrwt>
<pdfrwt beam="2">  1       -1 0.14796859E-02 0.93564917E+02</pdfrwt>
<totfact> 0.11328843E+05</totfact>
</mgrwt>
</event>
<event>
 5    1  0.1227473E+001  0.8444179E+02  0.7546771E-02  0.1316899E+00
         -4   -1    0    0    0  501 -0.00000000000E+00  0.00000000000E+00  0.95934695927E+01  0.95934695927E+01  0.00000000000E+00 0.  1.
          4   -1    0    0  501    0  0.00000000000E+00 -0.00000000000E+00 -0.18581430043E+03  0.18581430043E+03  0.00000000000E+00 0. -1.
         23    2    1    2    0    0  0.00000000000E+00  0.00000000000E+00 -0.17622083084E+03  0.19540777003E+03  0.84441786838E+02 0.  0.
        -13    1    3    3    0    0  0.38075549358E+02  0.10894990421E+02 -0.54245570039E+02  0.67164202847E+02  0.00000000000E+00 0. -1.
         13    1    3    3    0    0 -0.38075549358E+02 -0.10894990421E+02 -0.12197526080E+03  0.12824356718E+03  0.00000000000E+00 0.  1.
<mgrwt>
<rscale>  0 0.84441787E+02</rscale>
<asrwt>0</asrwt>
<pdfrwt beam="2">  1        4 0.28586812E-01 0.84441787E+02</pdfrwt>
<pdfrwt beam="1">  1       -4 0.14759186E-02 0.84441787E+02</pdfrwt>
<totfact> 0.26466445E+04</totfact>
</mgrwt>
</event>
<event>
 5    1  0.1227473E+001  0.9069573E+02  0.7546771E-02  0.1301176E+00
         -3   -1    0    0    0  501 -0.00000000000E+00  0.00000000000E+00  0.28985880183E+03  0.28985880183E+03  0.00000000000E+00 0.  1.
          3   -1    0    0  501    0  0.00000000000E+00 -0.00000000000E+00 -0.70945885845E+01  0.70945885845E+01  0.00000000000E+00 0. -1.
         23    2    1    2    0    0  0.00000000000E+00  0.00000000000E+00  0.28276421325E+03  0.29695339042E+03  0.90695731909E+02 0.  0.
        -13    1    3    3    0    0  0.13183846575E+02  0.40855826238E+02  0.18921377563E+03  0.19402284721E+03  0.00000000000E+00 0.  1.
         13    1    3    3    0    0 -0.13183846575E+02 -0.40855826238E+02  0.93550437616E+02  0.10293054321E+03  0.00000000000E+00 0. -1.
<mgrwt>
<rscale>  0 0.90695732E+02</rscale>
<asrwt>0</asrwt>
<pdfrwt beam="2">  1        3 0.10914754E-02 0.90695732E+02</pdfrwt>
<pdfrwt beam="1">  1       -3 0.44593653E-01 0.90695732E+02</pdfrwt>
<totfact> 0.24487044E+04</totfact>
</mgrwt>
</event>
<event>
 5    1  0.1227473E+001  0.7907001E+02  0.7546771E-02  0.1331712E+00
         -3   -1    0    0    0  501 -0.00000000000E+00  0.00000000000E+00  0.15089372254E+03  0.15089372254E+03  0.00000000000E+00 0.  1.
          3   -1    0    0  501    0  0.00000000000E+00 -0.00000000000E+00 -0.10358394749E+02  0.10358394749E+02  0.00000000000E+00 0. -1.
         23    2    1    2    0    0  0.00000000000E+00  0.00000000000E+00  0.14053532779E+03  0.16125211729E+03  0.79070013107E+02 0.  0.
        -13    1    3    3    0    0  0.30568052084E+02  0.19956949021E+02  0.39317003119E+02  0.53651769372E+02  0.00000000000E+00 0. -1.
         13    1    3    3    0    0 -0.30568052084E+02 -0.19956949021E+02  0.10121832467E+03  0.10760034792E+03  0.00000000000E+00 0.  1.
<mgrwt>
<rscale>  0 0.79070013E+02</rscale>
<asrwt>0</asrwt>
<pdfrwt beam="2">  1        3 0.15935993E-02 0.79070013E+02</pdfrwt>
<pdfrwt beam="1">  1       -3 0.23214417E-01 0.79070013E+02</pdfrwt>
<totfact> 0.44876827E+04</totfact>
</mgrwt>
</event>
<event>
 5    1  0.1227473E+001  0.9287746E+02  0.7546771E-02  0.1296029E+00
          2   -1    0    0  501    0  0.00000000000E+00  0.00000000000E+00  0.14325691029E+02  0.14325691029E+02  0.00000000000E+00 0. -1.
         -2   -1    0    0    0  501 -0.00000000000E+00 -0.00000000000E+00 -0.15053763298E+03  0.15053763298E+03  0.00000000000E+00 0.  1.
         23    2    1    2    0    0  0.00000000000E+00  0.00000000000E+00 -0.13621194195E+03  0.16486332401E+03  0.92877459445E+02 0.  0.
        -11    1    3    3    0    0 -0.32336001110E+02 -0.31851018896E+02 -0.85538790951E+02  0.96834854933E+02  0.00000000000E+00 0. -1.
         11    1    3    3    0    0  0.32336001110E+02  0.31851018896E+02 -0.50673151001E+02  0.68028469076E+02  0.00000000000E+00 0.  1.
<mgrwt>
<rscale>  0 0.92877459E+02</rscale>
<asrwt>0</asrwt>
<pdfrwt beam="1">  1        2 0.22039524E-02 0.92877459E+02</pdfrwt>
<pdfrwt beam="2">  1       -2 0.23159636E-01 0.92877459E+02</pdfrwt>
<totfact> 0.66573174E+04</totfact>
</mgrwt>
</event>
<event>
 5    1  0.1227473E+001  0.8686111E+02  0.7546771E-02  0.1310636E+00
         -2   -1    0    0    0  501 -0.00000000000E+00  0.00000000000E+00  0.10064198576E+03  0.10064198576E+03  0.00000000000E+00 0. -1.
          2   -1    0    0  501    0  0.00000000000E+00 -0.00000000000E+00 -0.18741813427E+02  0.18741813427E+02  0.00000000000E+00 0.  1.
         23    2    1    2    0    0  0.00000000000E+00  0.00000000000E+00  0.81900172330E+02  0.11938379918E+03  0.86861114890E+02 0.  0.
        -13    1    3    3    0    0 -0.30105613069E+02 -0.61513338382E+01 -0.12342821356E+01  0.30752403136E+02  0.00000000000E+00 0.  1.
         13    1    3    3    0    0  0.30105613069E+02  0.61513338382E+01  0.83134454466E+02  0.88631396049E+02  0.00000000000E+00 0. -1.
<mgrwt>
<rscale>  0 0.86861115E+02</rscale>
<asrwt>0</asrwt>
<pdfrwt beam="2">  1        2 0.28833560E-02 0.86861115E+02</pdfrwt>
<pdfrwt beam="1">  1       -2 0.15483382E-01 0.86861115E+02</pdfrwt>
<totfact> 0.89867242E+04</totfact>
</mgrwt>
</event>
<event>
 5    1  0.1227473E+001  0.9635119E+02  0.7546771E-02  0.1288162E+00
         -4   -1    0    0    0  501 -0.00000000000E+00  0.00000000000E+00  0.11819653980E+02  0.11819653980E+02  0.00000000000E+00 0. -1.
          4   -1    0    0  501    0  0.00000000000E+00 -0.00000000000E+00 -0.19635835188E+03  0.19635835188E+03  0.00000000000E+00 0.  1.
         23    2    1    2    0    0  0.00000000000E+00  0.00000000000E+00 -0.18453869790E+03  0.20817800586E+03  0.96351186301E+02 0.  0.
        -11    1    3    3    0    0 -0.45480891147E+02  0.13385555369E+02 -0.11075534604E+03  0.12047585330E+03  0.00000000000E+00 0. -1.
         11    1    3    3    0    0  0.45480891147E+02 -0.13385555369E+02 -0.73783351860E+02  0.87702152560E+02  0.00000000000E+00 0.  1.
<mgrwt>
<rscale>  0 0.96351186E+02</rscale>
<asrwt>0</asrwt>
<pdfrwt beam="2">  1        4 0.30208975E-01 0.96351186E+02</pdfrwt>
<pdfrwt beam="1">  1       -4 0.18184084E-02 0.96351186E+02</pdfrwt>
<totfact> 0.18145684E+04</totfact>
</mgrwt>
</event>
<event>
 5    1  0.1227473E+001  0.9013389E+02  0.7546771E-02  0.1302528E+00
         -4   -1    0    0    0  501 -0.00000000000E+00  0.00000000000E+00  0.16637096021E+02  0.16637096021E+02  0.00000000000E+00 0.  1.
          4   -1    0    0  501    0  0.00000000000E+00 -0.00000000000E+00 -0.12207837308E+03  0.12207837308E+03  0.00000000000E+00 0. -1.
         23    2    1    2    0    0  0.00000000000E+00  0.00000000000E+00 -0.10544127706E+03  0.13871546910E+03  0.90133891850E+02 0.  0.
        -11    1    3    3    0    0  0.42916639824E+02 -0.18735552737E+01 -0.73691728792E+02  0.85298411917E+02  0.00000000000E+00 0.  1.
         11    1    3    3    0    0 -0.42916639824E+02  0.18735552737E+01 -0.31749548269E+02  0.53417057186E+02  0.00000000000E+00 0. -1.
<mgrwt>
<rscale>  0 0.90133892E+02</rscale>
<asrwt>0</asrwt>
<pdfrwt beam="2">  1        4 0.18781289E-01 0.90133892E+02</pdfrwt>
<pdfrwt beam="1">  1       -4 0.25595532E-02 0.90133892E+02</pdfrwt>
<totfact> 0.25014350E+04</totfact>
</mgrwt>
</event>
<event>
 5    1  0.1227473E+001  0.9238139E+02  0.7546771E-02  0.1297185E+00
          1   -1    0    0  501    0  0.00000000000E+00  0.00000000000E+00  0.70609974684E+02  0.70609974684E+02  0.00000000000E+00 0. -1.
         -1   -1    0    0    0  501 -0.00000000000E+00 -0.00000000000E+00 -0.30216412739E+02  0.30216412739E+02  0.00000000000E+00 0.  1.
         23    2    1    2    0    0  0.00000000000E+00  0.00000000000E+00  0.40393561944E+02  0.10082638742E+03  0.92381386406E+02 0.  0.
        -13    1    3    3    0    0  0.15260253023E+02  0.15693412213E+02 -0.24196048937E+02  0.32628320419E+02  0.00000000000E+00 0.  1.
         13    1    3    3    0    0 -0.15260253023E+02 -0.15693412213E+02  0.64589610881E+02  0.68198067004E+02  0.00000000000E+00 0. -1.
<mgrwt>
<rscale>  0 0.92381386E+02</rscale>
<asrwt>0</asrwt>
<pdfrwt beam="1">  1        1 0.10863073E-01 0.92381386E+02</pdfrwt>
<pdfrwt beam="2">  1       -1 0.46486789E-02 0.92381386E+02</pdfrwt>
<totfact> 0.95281578E+04</totfact>
</mgrwt>
</event>
<event>
 5    1  0.1227473E+001  0.9048297E+02  0.7546771E-02  0.1301686E+00
         -4   -1    0    0    0  501 -0.00000000000E+00  0.00000000000E+00  0.25146465117E+02  0.25146465117E+02  0.00000000000E+00 0.  1.
          4   -1    0    0  501    0  0.00000000000E+00 -0.00000000000E+00 -0.81394822559E+02  0.81394822559E+02  0.00000000000E+00 0. -1.
         23    2    1    2    0    0  0.00000000000E+00  0.00000000000E+00 -0.56248357441E+02  0.10654128768E+03  0.90482972237E+02 0.  0.
        -13    1    3    3    0    0 -0.29660549862E+02  0.27667427292E+02 -0.45289139958E+01  0.40813549381E+02  0.00000000000E+00 0.  1.
         13    1    3    3    0    0  0.29660549862E+02 -0.27667427292E+02 -0.51719443445E+02  0.65727738295E+02  0.00000000000E+00 0. -1.
<mgrwt>
<rscale>  0 0.90482972E+02</rscale>
<asrwt>0</asrwt>
<pdfrwt beam="2">  1        4 0.12522280E-01 0.90482972E+02</pdfrwt>
<pdfrwt beam="1">  1       -4 0.38686870E-02 0.90482972E+02</pdfrwt>
<totfact> 0.26602757E+04</totfact>
</mgrwt>
</event>
<event>
 5    1  0.1227473E+001  0.9026754E+02  0.7546771E-02  0.1302205E+00
          1   -1    0    0  501    0  0.00000000000E+00  0.00000000000E+00  0.74458477240E+02  0.74458477240E+02  0.00000000000E+00 0. -1.
         -1   -1    0    0    0  501 -0.00000000000E+00 -0.00000000000E+00 -0.27358295085E+02  0.27358295085E+02  0.00000000000E+00 0.  1.
         23    2    1    2    0    0  0.00000000000E+00  0.00000000000E+00  0.47100182154E+02  0.10181677233E+03  0.90267535514E+02 0.  0.
        -13    1    3    3    0    0  0.30925979972E+02 -0.24912933703E+02 -0.64126854928E+00  0.39717524196E+02  0.00000000000E+00 0.  1.
         13    1    3    3    0    0 -0.30925979972E+02  0.24912933703E+02  0.47741450704E+02  0.62099248129E+02  0.00000000000E+00 0. -1.
<mgrwt>
<rscale>  0 0.90267536E+02</rscale>
<asrwt>0</asrwt>
<pdfrwt beam="1">  1        1 0.11455150E-01 0.90267536E+02</pdfrwt>
<pdfrwt beam="2">  1       -1 0.42089685E-02 0.90267536E+02</pdfrwt>
<totfact> 0.10239844E+05</totfact>
</mgrwt>
</event>
<event>
 5    1  0.1227473E+001  0.9098397E+02  0.7546771E-02  0.1300486E+00
          2   -1    0    0  501    0  0.00000000000E+00  0.00000000000E+00  0.20652149065E+02  0.20652149065E+02  0.00000000000E+00 0. -1.
         -2   -1    0    0    0  501 -0.00000000000E+00 -0.00000000000E+00 -0.10020848419E+03  0.10020848419E+03  0.00000000000E+00 0.  1.
         23    2    1    2    0    0  0.00000000000E+00  0.00000000000E+00 -0.79556335122E+02  0.12086063325E+03  0.90983966785E+02 0.  0.
        -13    1    3    3    0    0 -0.34042224346E+02  0.30155468055E+02 -0.41289982478E+02  0.61425466584E+02  0.00000000000E+00 0. -1.
         13    1    3    3    0    0  0.34042224346E+02 -0.30155468055E+02 -0.38266352645E+02  0.59435166667E+02  0.00000000000E+00 0.  1.
<mgrwt>
<rscale>  0 0.90983967E+02</rscale>
<asrwt>0</asrwt>
<pdfrwt beam="1">  1        2 0.31772537E-02 0.90983967E+02</pdfrwt>
<pdfrwt beam="2">  1       -2 0.15416690E-01 0.90983967E+02</pdfrwt>
<totfact> 0.80178329E+04</totfact>
</mgrwt>
</event>
<event>
 5    1  0.1227473E+001  0.8901764E+02  0.7546771E-02  0.1305248E+00
          2   -1    0    0  501    0  0.00000000000E+00  0.00000000000E+00  0.14506722551E+03  0.14506722551E+03  0.00000000000E+00 0.  1.
         -2   -1    0    0    0  501 -0.00000000000E+00 -0.00000000000E+00 -0.13655980522E+02  0.13655980522E+02  0.00000000000E+00 0. -1.
         23    2    1    2    0    0  0.00000000000E+00  0.00000000000E+00  0.13141124499E+03  0.15872320603E+03  0.89017643329E+02 0.  0.
        -13    1    3    3    0    0  0.19599155242E+02 -0.38491431297E+02  0.84853161118E+02  0.95214369300E+02  0.00000000000E+00 0.  1.
         13    1    3    3    0    0 -0.19599155242E+02  0.38491431297E+02  0.46558083872E+02  0.63508836734E+02  0.00000000000E+00 0. -1.
<mgrwt>
<rscale>  0 0.89017643E+02</rscale>
<asrwt>0</asrwt>
<pdfrwt beam="1">  1        2 0.22318034E-01 0.89017643E+02</pdfrwt>
<pdfrwt beam="2">  1       -2 0.21009202E-02 0.89017643E+02</pdfrwt>
<totfact> 0.14751359E+05</totfact>
</mgrwt>
</event>
<event>
 5    1  0.1227473E+001  0.9196207E+02  0.7546771E-02  0.1298169E+00
         -1   -1    0    0    0  501 -0.00000000000E+00  0.00000000000E+00  0.13487134835E+02  0.13487134835E+02  0.00000000000E+00 0.  1.
          1   -1    0    0  501    0  0.00000000000E+00 -0.00000000000E+00 -0.15676092364E+03  0.15676092364E+03  0.00000000000E+00 0. -1.
         23    2    1    2    0    0  0.00000000000E+00  0.00000000000E+00 -0.14327378880E+03  0.17024805847E+03  0.91962072919E+02 0.  0.
        -13    1    3    3    0    0 -0.44082866045E+02 -0.58610457764E+01 -0.49999430323E+02  0.66914826227E+02  0.00000000000E+00 0.  1.
         13    1    3    3    0    0  0.44082866045E+02  0.58610457764E+01 -0.93274358478E+02  0.10333323224E+03  0.00000000000E+00 0. -1.
<mgrwt>
<rscale>  0 0.91962073E+02</rscale>
<asrwt>0</asrwt>
<pdfrwt beam="2">  1        1 0.24117066E-01 0.91962073E+02</pdfrwt>
<pdfrwt beam="1">  1       -1 0.20749438E-02 0.91962073E+02</pdfrwt>
<totfact> 0.11046325E+05</totfact>
</mgrwt>
</event>
<event>
 5    1  0.1227473E+001  0.9092104E+02  0.7546771E-02  0.1300636E+00
          1   -1    0    0  501    0  0.00000000000E+00  0.00000000000E+00  0.80103919428E+02  0.80103919428E+02  0.00000000000E+00 0. -1.
         -1   -1    0    0    0  501 -0.00000000000E+00 -0.00000000000E+00 -0.25799723682E+02  0.25799723682E+02  0.00000000000E+00 0.  1.
         23    2    1    2    0    0  0.00000000000E+00  0.00000000000E+00  0.54304195746E+02  0.10590364311E+03  0.90921042384E+02 0.  0.
        -11    1    3    3    0    0 -0.14650098195E+02  0.39140686419E+02  0.47989751398E+02  0.63636742136E+02  0.00000000000E+00 0. -1.
         11    1    3    3    0    0  0.14650098195E+02 -0.39140686419E+02  0.63144443480E+01  0.42266900973E+02  0.00000000000E+00 0.  1.
<mgrwt>
<rscale>  0 0.90921042E+02</rscale>
<asrwt>0</asrwt>
<pdfrwt beam="1">  1        1 0.12323680E-01 0.90921042E+02</pdfrwt>
<pdfrwt beam="2">  1       -1 0.39691883E-02 0.90921042E+02</pdfrwt>
<totfact> 0.10154477E+05</totfact>
</mgrwt>
</event>
<event>
 5    1  0.1227473E+001  0.8941772E+02  0.7546771E-02  0.1304268E+00
          2   -1    0    0  501    0  0.00000000000E+00  0.00000000000E+00  0.15931930112E+03  0.15931930112E+03  0.00000000000E+00 0.  1.
         -2   -1    0    0    0  501 -0.00000000000E+00 -0.00000000000E+00 -0.12546389400E+02  0.12546389400E+02  0.00000000000E+00 0. -1.
         23    2    1    2    0    0  0.00000000000E+00  0.00000000000E+00  0.14677291172E+03  0.17186569052E+03  0.89417716160E+02 0.  0.
        -13    1    3    3    0    0  0.44280887606E+02  0.76396786636E+00  0.61616116398E+02  0.75881001931E+02  0.00000000000E+00 0.  1.
         13    1    3    3    0    0 -0.44280887606E+02 -0.76396786636E+00  0.85156795319E+02  0.95984688586E+02  0.00000000000E+00 0. -1.
<mgrwt>
<rscale>  0 0.89417716E+02</rscale>
<asrwt>0</asrwt>
<pdfrwt beam="1">  1        2 0.24510660E-01 0.89417716E+02</pdfrwt>
<pdfrwt beam="2">  1       -2 0.19302139E-02 0.89417716E+02</pdfrwt>
<totfact> 0.15044590E+05</totfact>
</mgrwt>
</event>
<event>
 5    1  0.1227473E+001  0.9062644E+02  0.7546771E-02  0.1301342E+00
          1   -1    0    0  501    0  0.00000000000E+00  0.00000000000E+00  0.86893249093E+02  0.86893249093E+02  0.00000000000E+00 0. -1.
         -1   -1    0    0    0  501 -0.00000000000E+00 -0.00000000000E+00 -0.23630002495E+02  0.23630002495E+02  0.00000000000E+00 0.  1.
         23    2    1    2    0    0  0.00000000000E+00  0.00000000000E+00  0.63263246598E+02  0.11052325159E+03  0.90626435279E+02 0.  0.
        -13    1    3    3    0    0  0.62001717785E+01 -0.21561070080E+02 -0.16381484308E+02  0.27779037082E+02  0.00000000000E+00 0.  1.
         13    1    3    3    0    0 -0.62001717785E+01  0.21561070080E+02  0.79644730906E+02  0.82744214506E+02  0.00000000000E+00 0. -1.
<mgrwt>
<rscale>  0 0.90626435E+02</rscale>
<asrwt>0</asrwt>
<pdfrwt beam="1">  1        1 0.13368192E-01 0.90626435E+02</pdfrwt>
<pdfrwt beam="2">  1       -1 0.36353850E-02 0.90626435E+02</pdfrwt>
<totfact> 0.10378414E+05</totfact>
</mgrwt>
</event>
<event>
 5    1  0.1227473E+001  0.9280579E+02  0.7546771E-02  0.1296196E+00
          1   -1    0    0  501    0  0.00000000000E+00  0.00000000000E+00  0.10110488451E+02  0.10110488451E+02  0.00000000000E+00 0. -1.
         -1   -1    0    0    0  501 -0.00000000000E+00 -0.00000000000E+00 -0.21296980477E+03  0.21296980477E+03  0.00000000000E+00 0.  1.
         23    2    1    2    0    0  0.00000000000E+00  0.00000000000E+00 -0.20285931631E+03  0.22308029322E+03  0.92805791878E+02 0.  0.
        -13    1    3    3    0    0 -0.42234160507E+02 -0.17985893256E+01 -0.14743269606E+03  0.15337326724E+03  0.00000000000E+00 0.  1.
         13    1    3    3    0    0  0.42234160507E+02  0.17985893256E+01 -0.55426620256E+02  0.69707025975E+02  0.00000000000E+00 0. -1.
<mgrwt>
<rscale>  0 0.92805792E+02</rscale>
<asrwt>0</asrwt>
<pdfrwt beam="1">  1        1 0.15554597E-02 0.92805792E+02</pdfrwt>
<pdfrwt beam="2">  1       -1 0.32764586E-01 0.92805792E+02</pdfrwt>
<totfact> 0.65079849E+04</totfact>
</mgrwt>
</event>
<event>
 5    1  0.1227473E+001  0.9158036E+02  0.7546771E-02  0.1299069E+00
          1   -1    0    0  501    0  0.00000000000E+00  0.00000000000E+00  0.90053841547E+01  0.90053841547E+01  0.00000000000E+00 0. -1.
         -1   -1    0    0    0  501 -0.00000000000E+00 -0.00000000000E+00 -0.23283186566E+03  0.23283186566E+03  0.00000000000E+00 0.  1.
         23    2    1    2    0    0  0.00000000000E+00  0.00000000000E+00 -0.22382648150E+03  0.24183724981E+03  0.91580355834E+02 0.  0.
        -13    1    3    3    0    0  0.17981347288E+02  0.37715304395E+02 -0.62441837208E+02  0.75131591689E+02  0.00000000000E+00 0. -1.
         13    1    3    3    0    0 -0.17981347288E+02 -0.37715304395E+02 -0.16138464429E+03  0.16670565812E+03  0.00000000000E+00 0.  1.
<mgrwt>
<rscale>  0 0.91580356E+02</rscale>
<asrwt>0</asrwt>
<pdfrwt beam="1">  1        1 0.13854440E-02 0.91580356E+02</pdfrwt>
<pdfrwt beam="2">  1       -1 0.35820281E-01 0.91580356E+02</pdfrwt>
<totfact> 0.65541379E+04</totfact>
</mgrwt>
</event>
<event>
 5    1  0.1227473E+001  0.9246357E+02  0.7546771E-02  0.1296993E+00
         -1   -1    0    0    0  501 -0.00000000000E+00  0.00000000000E+00  0.66571065838E+02  0.66571065838E+02  0.00000000000E+00 0.  1.
          1   -1    0    0  501    0  0.00000000000E+00 -0.00000000000E+00 -0.32106707662E+02  0.32106707662E+02  0.00000000000E+00 0. -1.
         23    2    1    2    0    0  0.00000000000E+00  0.00000000000E+00  0.34464358176E+02  0.98677773500E+02  0.92463565789E+02 0.  0.
        -11    1    3    3    0    0 -0.25482332755E+02  0.13244275131E+02 -0.21432803847E+02  0.35834692508E+02  0.00000000000E+00 0. -1.
         11    1    3    3    0    0  0.25482332755E+02 -0.13244275131E+02  0.55897162024E+02  0.62843080993E+02  0.00000000000E+00 0.  1.
<mgrwt>
<rscale>  0 0.92463566E+02</rscale>
<asrwt>0</asrwt>
<pdfrwt beam="2">  1        1 0.49394935E-02 0.92463566E+02</pdfrwt>
<pdfrwt beam="1">  1       -1 0.10241702E-01 0.92463566E+02</pdfrwt>
<totfact> 0.84180320E+04</totfact>
</mgrwt>
</event>
<event>
 5    1  0.1227473E+001  0.9036861E+02  0.7546771E-02  0.1301962E+00
         -1   -1    0    0    0  501 -0.00000000000E+00  0.00000000000E+00  0.68621721547E+01  0.68621721547E+01  0.00000000000E+00 0.  1.
          1   -1    0    0  501    0  0.00000000000E+00 -0.00000000000E+00 -0.29751823442E+03  0.29751823442E+03  0.00000000000E+00 0. -1.
         23    2    1    2    0    0  0.00000000000E+00  0.00000000000E+00 -0.29065606226E+03  0.30438040657E+03  0.90368608349E+02 0.  0.
        -11    1    3    3    0    0 -0.40362414644E+02  0.90981312953E+01 -0.20648870950E+03  0.21059318047E+03  0.00000000000E+00 0. -1.
         11    1    3    3    0    0  0.40362414644E+02 -0.90981312953E+01 -0.84167352758E+02  0.93787226098E+02  0.00000000000E+00 0.  1.
<mgrwt>
<rscale>  0 0.90368608E+02</rscale>
<asrwt>0</asrwt>
<pdfrwt beam="2">  1        1 0.45772035E-01 0.90368608E+02</pdfrwt>
<pdfrwt beam="1">  1       -1 0.10557188E-02 0.90368608E+02</pdfrwt>
<totfact> 0.13098769E+05</totfact>
</mgrwt>
</event>
<event>
 5    1  0.1227473E+001  0.8576601E+02  0.7546771E-02  0.1313441E+00
         -1   -1    0    0    0  501 -0.00000000000E+00  0.00000000000E+00  0.32992229282E+02  0.32992229282E+02  0.00000000000E+00 0. -1.
          1   -1    0    0  501    0  0.00000000000E+00 -0.00000000000E+00 -0.55738948892E+02  0.55738948892E+02  0.00000000000E+00 0.  1.
         23    2    1    2    0    0  0.00000000000E+00  0.00000000000E+00 -0.22746719610E+02  0.88731178174E+02  0.85766011491E+02 0.  0.
        -13    1    3    3    0    0 -0.92240532402E+01  0.14441059769E+02 -0.52043055581E+02  0.54791486562E+02  0.00000000000E+00 0.  1.
         13    1    3    3    0    0  0.92240532402E+01 -0.14441059769E+02  0.29296335970E+02  0.33939691612E+02  0.00000000000E+00 0. -1.
<mgrwt>
<rscale>  0 0.85766011E+02</rscale>
<asrwt>0</asrwt>
<pdfrwt beam="2">  1        1 0.85752228E-02 0.85766011E+02</pdfrwt>
<pdfrwt beam="1">  1       -1 0.50757277E-02 0.85766011E+02</pdfrwt>
<totfact> 0.11288456E+05</totfact>
</mgrwt>
</event>
<event>
 5    1  0.1227473E+001  0.9098813E+02  0.7546771E-02  0.1300476E+00
         -2   -1    0    0    0  501 -0.00000000000E+00  0.00000000000E+00  0.18266762418E+02  0.18266762418E+02  0.00000000000E+00 0.  1.
          2   -1    0    0  501    0  0.00000000000E+00 -0.00000000000E+00 -0.11330470069E+03  0.11330470069E+03  0.00000000000E+00 0. -1.
         23    2    1    2    0    0  0.00000000000E+00  0.00000000000E+00 -0.95037938273E+02  0.13157146311E+03  0.90988132159E+02 0.  0.
        -13    1    3    3    0    0  0.37480893010E+02  0.13825341704E+02 -0.78993029501E+02  0.88520371236E+02  0.00000000000E+00 0. -1.
         13    1    3    3    0    0 -0.37480893010E+02 -0.13825341704E+02 -0.16044908772E+02  0.43051091874E+02  0.00000000000E+00 0.  1.
<mgrwt>
<rscale>  0 0.90988132E+02</rscale>
<asrwt>0</asrwt>
<pdfrwt beam="2">  1        2 0.17431492E-01 0.90988132E+02</pdfrwt>
<pdfrwt beam="1">  1       -2 0.28102712E-02 0.90988132E+02</pdfrwt>
<totfact> 0.12824322E+05</totfact>
</mgrwt>
</event>
<event>
 5    1  0.1227473E+001  0.9110181E+02  0.7546771E-02  0.1300205E+00
          2   -1    0    0  501    0  0.00000000000E+00  0.00000000000E+00  0.30006829278E+03  0.30006829278E+03  0.00000000000E+00 0. -1.
         -2   -1    0    0    0  501 -0.00000000000E+00 -0.00000000000E+00 -0.69147087612E+01  0.69147087612E+01  0.00000000000E+00 0.  1.
         23    2    1    2    0    0  0.00000000000E+00  0.00000000000E+00  0.29315358402E+03  0.30698300154E+03  0.91101807952E+02 0.  0.
        -11    1    3    3    0    0 -0.99329421910E+01 -0.44452822831E+02  0.14519541320E+03  0.15217235233E+03  0.00000000000E+00 0.  1.
         11    1    3    3    0    0  0.99329421910E+01  0.44452822831E+02  0.14795817081E+03  0.15481064921E+03  0.00000000000E+00 0. -1.
<mgrwt>
<rscale>  0 0.91101808E+02</rscale>
<asrwt>0</asrwt>
<pdfrwt beam="1">  1        2 0.46164343E-01 0.91101808E+02</pdfrwt>
<pdfrwt beam="2">  1       -2 0.10638016E-02 0.91101808E+02</pdfrwt>
<totfact> 0.18007074E+05</totfact>
</mgrwt>
</event>
<event>
 5    1  0.1227473E+001  0.8544544E+02  0.7546771E-02  0.1314272E+00
         -2   -1    0    0    0  501 -0.00000000000E+00  0.00000000000E+00  0.60988826179E+02  0.60988826179E+02  0.00000000000E+00 0.  1.
          2   -1    0    0  501    0  0.00000000000E+00 -0.00000000000E+00 -0.29927297321E+02  0.29927297321E+02  0.00000000000E+00 0. -1.
         23    2    1    2    0    0  0.00000000000E+00  0.00000000000E+00  0.31061528858E+02  0.90916123500E+02  0.85445438364E+02 0.  0.
        -13    1    3    3    0    0  0.35322344553E+02  0.14299790027E+02 -0.50211490859E+01  0.38436492526E+02  0.00000000000E+00 0.  1.
         13    1    3    3    0    0 -0.35322344553E+02 -0.14299790027E+02  0.36082677944E+02  0.52479630974E+02  0.00000000000E+00 0. -1.
<mgrwt>
<rscale>  0 0.85445438E+02</rscale>
<asrwt>0</asrwt>
<pdfrwt beam="2">  1        2 0.46041996E-02 0.85445438E+02</pdfrwt>
<pdfrwt beam="1">  1       -2 0.93828963E-02 0.85445438E+02</pdfrwt>
<totfact> 0.10701974E+05</totfact>
</mgrwt>
</event>
<event>
 5    1  0.1227473E+001  0.9171651E+02  0.7546771E-02  0.1298747E+00
          1   -1    0    0  501    0  0.00000000000E+00  0.00000000000E+00  0.12714355146E+02  0.12714355146E+02  0.00000000000E+00 0. -1.
         -1   -1    0    0    0  501 -0.00000000000E+00 -0.00000000000E+00 -0.16540198847E+03  0.16540198847E+03  0.00000000000E+00 0.  1.
         23    2    1    2    0    0  0.00000000000E+00  0.00000000000E+00 -0.15268763332E+03  0.17811634361E+03  0.91716511563E+02 0.  0.
        -11    1    3    3    0    0  0.29958880614E+02 -0.21890490807E+02 -0.24007908234E+02  0.44193978925E+02  0.00000000000E+00 0. -1.
         11    1    3    3    0    0 -0.29958880614E+02  0.21890490807E+02 -0.12867972509E+03  0.13392236469E+03  0.00000000000E+00 0.  1.
<mgrwt>
<rscale>  0 0.91716512E+02</rscale>
<asrwt>0</asrwt>
<pdfrwt beam="1">  1        1 0.19560547E-02 0.91716512E+02</pdfrwt>
<pdfrwt beam="2">  1       -1 0.25446459E-01 0.91716512E+02</pdfrwt>
<totfact> 0.71928638E+04</totfact>
</mgrwt>
</event>
<event>
 5    1  0.1227473E+001  0.8574862E+02  0.7546771E-02  0.1313486E+00
          2   -1    0    0  501    0  0.00000000000E+00  0.00000000000E+00  0.37802579288E+02  0.37802579288E+02  0.00000000000E+00 0. -1.
         -2   -1    0    0    0  501 -0.00000000000E+00 -0.00000000000E+00 -0.48626482010E+02  0.48626482010E+02  0.00000000000E+00 0.  1.
         23    2    1    2    0    0  0.00000000000E+00  0.00000000000E+00 -0.10823902723E+02  0.86429061298E+02  0.85748619620E+02 0.  0.
        -13    1    3    3    0    0  0.23144765473E+02 -0.22275989442E+02 -0.34032816495E+02  0.46798851193E+02  0.00000000000E+00 0.  1.
         13    1    3    3    0    0 -0.23144765473E+02  0.22275989442E+02  0.23208913773E+02  0.39630210105E+02  0.00000000000E+00 0. -1.
<mgrwt>
<rscale>  0 0.85748620E+02</rscale>
<asrwt>0</asrwt>
<pdfrwt beam="1">  1        2 0.58157814E-02 0.85748620E+02</pdfrwt>
<pdfrwt beam="2">  1       -2 0.74809972E-02 0.85748620E+02</pdfrwt>
<totfact> 0.11223037E+05</totfact>
</mgrwt>
</event>
<event>
 5    1  0.1227473E+001  0.1027706E+03  0.7546771E-02  0.1274575E+00
          4   -1    0    0  501    0  0.00000000000E+00  0.00000000000E+00  0.53363116760E+02  0.53363116760E+02  0.00000000000E+00 0. -1.
         -4   -1    0    0    0  501 -0.00000000000E+00 -0.00000000000E+00 -0.49480773248E+02  0.49480773248E+02  0.00000000000E+00 0.  1.
         23    2    1    2    0    0  0.00000000000E+00  0.00000000000E+00  0.38823435118E+01  0.10284389001E+03  0.10277058490E+03 0.  0.
        -11    1    3    3    0    0  0.15817889785E+02 -0.57608125429E+01 -0.46642975904E+02  0.49587899730E+02  0.00000000000E+00 0.  1.
         11    1    3    3    0    0 -0.15817889785E+02  0.57608125429E+01  0.50525319416E+02  0.53255990278E+02  0.00000000000E+00 0. -1.
<mgrwt>
<rscale>  0 0.10277058E+03</rscale>
<asrwt>0</asrwt>
<pdfrwt beam="1">  1        4 0.82097102E-02 0.10277058E+03</pdfrwt>
<pdfrwt beam="2">  1       -4 0.76124267E-02 0.10277058E+03</pdfrwt>
<totfact> 0.18945973E+04</totfact>
</mgrwt>
</event>
<event>
 5    1  0.1227473E+001  0.9428236E+02  0.7546771E-02  0.1292801E+00
         -3   -1    0    0    0  501 -0.00000000000E+00  0.00000000000E+00  0.93930871488E+02  0.93930871488E+02  0.00000000000E+00 0.  1.
          3   -1    0    0  501    0  0.00000000000E+00 -0.00000000000E+00 -0.23658790176E+02  0.23658790176E+02  0.00000000000E+00 0. -1.
         23    2    1    2    0    0  0.00000000000E+00  0.00000000000E+00  0.70272081312E+02  0.11758966166E+03  0.94282358469E+02 0.  0.
        -11    1    3    3    0    0  0.30105307595E+02 -0.26871433600E+02  0.65530240774E+02  0.76958533932E+02  0.00000000000E+00 0.  1.
         11    1    3    3    0    0 -0.30105307595E+02  0.26871433600E+02  0.47418405379E+01  0.40631127732E+02  0.00000000000E+00 0. -1.
<mgrwt>
<rscale>  0 0.94282358E+02</rscale>
<asrwt>0</asrwt>
<pdfrwt beam="2">  1        3 0.36398139E-02 0.94282358E+02</pdfrwt>
<pdfrwt beam="1">  1       -3 0.14450903E-01 0.94282358E+02</pdfrwt>
<totfact> 0.30498134E+04</totfact>
</mgrwt>
</event>
<event>
 5    1  0.1227473E+001  0.8822340E+02  0.7546771E-02  0.1307212E+00
          1   -1    0    0  501    0  0.00000000000E+00  0.00000000000E+00  0.23605922346E+03  0.23605922346E+03  0.00000000000E+00 0. -1.
         -1   -1    0    0    0  501 -0.00000000000E+00 -0.00000000000E+00 -0.82430241404E+01  0.82430241404E+01  0.00000000000E+00 0.  1.
         23    2    1    2    0    0  0.00000000000E+00  0.00000000000E+00  0.22781619932E+03  0.24430224760E+03  0.88223395481E+02 0.  0.
        -13    1    3    3    0    0 -0.28882010320E+02  0.19473389071E+02  0.38964387971E+02  0.52264777164E+02  0.00000000000E+00 0.  1.
         13    1    3    3    0    0  0.28882010320E+02 -0.19473389071E+02  0.18885181135E+03  0.19203747044E+03  0.00000000000E+00 0. -1.
<mgrwt>
<rscale>  0 0.88223395E+02</rscale>
<asrwt>0</asrwt>
<pdfrwt beam="1">  1        1 0.36316798E-01 0.88223395E+02</pdfrwt>
<pdfrwt beam="2">  1       -1 0.12681577E-02 0.88223395E+02</pdfrwt>
<totfact> 0.13352242E+05</totfact>
</mgrwt>
</event>
<event>
 5    1  0.1227473E+001  0.9105765E+02  0.7546771E-02  0.1300310E+00
         -2   -1    0    0    0  501 -0.00000000000E+00  0.00000000000E+00  0.10153296941E+02  0.10153296941E+02  0.00000000000E+00 0.  1.
          2   -1    0    0  501    0  0.00000000000E+00 -0.00000000000E+00 -0.20415770222E+03  0.20415770222E+03  0.00000000000E+00 0. -1.
         23    2    1    2    0    0  0.00000000000E+00  0.00000000000E+00 -0.19400440528E+03  0.21431099916E+03  0.91057647090E+02 0.  0.
        -11    1    3    3    0    0 -0.19105402709E+02  0.34348981263E+02 -0.42920918946E+02  0.58198575667E+02  0.00000000000E+00 0.  1.
         11    1    3    3    0    0  0.19105402709E+02 -0.34348981263E+02 -0.15108348633E+03  0.15611242349E+03  0.00000000000E+00 0. -1.
<mgrwt>
<rscale>  0 0.91057647E+02</rscale>
<asrwt>0</asrwt>
<pdfrwt beam="2">  1        2 0.31408877E-01 0.91057647E+02</pdfrwt>
<pdfrwt beam="1">  1       -2 0.15620457E-02 0.91057647E+02</pdfrwt>
<totfact> 0.15638650E+05</totfact>
</mgrwt>
</event>
<event>
 5    1  0.1227473E+001  0.9385652E+02  0.7546771E-02  0.1293772E+00
          1   -1    0    0  501    0  0.00000000000E+00  0.00000000000E+00  0.36985860203E+02  0.36985860203E+02  0.00000000000E+00 0. -1.
         -1   -1    0    0    0  501 -0.00000000000E+00 -0.00000000000E+00 -0.59543338798E+02  0.59543338798E+02  0.00000000000E+00 0.  1.
         23    2    1    2    0    0  0.00000000000E+00  0.00000000000E+00 -0.22557478595E+02  0.96529199001E+02  0.93856520388E+02 0.  0.
        -11    1    3    3    0    0 -0.17481675431E+02 -0.29458538756E+02  0.21710300662E+02  0.40555537678E+02  0.00000000000E+00 0. -1.
         11    1    3    3    0    0  0.17481675431E+02  0.29458538756E+02 -0.44267779258E+02  0.55973661323E+02  0.00000000000E+00 0.  1.
<mgrwt>
<rscale>  0 0.93856520E+02</rscale>
<asrwt>0</asrwt>
<pdfrwt beam="1">  1        1 0.56901324E-02 0.93856520E+02</pdfrwt>
<pdfrwt beam="2">  1       -1 0.91605136E-02 0.93856520E+02</pdfrwt>
<totfact> 0.82494790E+04</totfact>
</mgrwt>
</event>
<event>
 5    1  0.1227473E+001  0.9478127E+02  0.7546771E-02  0.1291669E+00
         -2   -1    0    0    0  501 -0.00000000000E+00  0.00000000000E+00  0.27191465781E+02  0.27191465781E+02  0.00000000000E+00 0.  1.
          2   -1    0    0  501    0  0.00000000000E+00 -0.00000000000E+00 -0.82594751456E+02  0.82594751456E+02  0.00000000000E+00 0. -1.
         23    2    1    2    0    0  0.00000000000E+00  0.00000000000E+00 -0.55403285675E+02  0.10978621724E+03  0.94781271524E+02 0.  0.
        -11    1    3    3    0    0  0.93923290493E+01 -0.45311413862E+02 -0.39544337075E+02  0.60869488792E+02  0.00000000000E+00 0. -1.
         11    1    3    3    0    0 -0.93923290493E+01  0.45311413862E+02 -0.15858948600E+02  0.48916728445E+02  0.00000000000E+00 0.  1.
<mgrwt>
<rscale>  0 0.94781272E+02</rscale>
<asrwt>0</asrwt>
<pdfrwt beam="2">  1        2 0.12706885E-01 0.94781272E+02</pdfrwt>
<pdfrwt beam="1">  1       -2 0.41833025E-02 0.94781272E+02</pdfrwt>
<totfact> 0.10404503E+05</totfact>
</mgrwt>
</event>
<event>
 5    1  0.1227473E+001  0.8562450E+02  0.7546771E-02  0.1313807E+00
          1   -1    0    0  501    0  0.00000000000E+00  0.00000000000E+00  0.22197736891E+03  0.22197736891E+03  0.00000000000E+00 0.  1.
         -1   -1    0    0    0  501 -0.00000000000E+00 -0.00000000000E+00 -0.82570966686E+01  0.82570966686E+01  0.00000000000E+00 0. -1.
         23    2    1    2    0    0  0.00000000000E+00  0.00000000000E+00  0.21372027224E+03  0.23023446558E+03  0.85624496339E+02 0.  0.
        -13    1    3    3    0    0  0.25805275188E+02 -0.34160753428E+02  0.10648667125E+03  0.11477055571E+03  0.00000000000E+00 0.  1.
         13    1    3    3    0    0 -0.25805275188E+02  0.34160753428E+02  0.10723360099E+03  0.11546390988E+03  0.00000000000E+00 0. -1.
<mgrwt>
<rscale>  0 0.85624496E+02</rscale>
<asrwt>0</asrwt>
<pdfrwt beam="1">  1        1 0.34150360E-01 0.85624496E+02</pdfrwt>
<pdfrwt beam="2">  1       -1 0.12703227E-02 0.85624496E+02</pdfrwt>
<totfact> 0.14286941E+05</totfact>
</mgrwt>
</event>
<event>
 5    1  0.1227473E+001  0.9054453E+02  0.7546771E-02  0.1301538E+00
          3   -1    0    0  501    0  0.00000000000E+00  0.00000000000E+00  0.13382266319E+02  0.13382266319E+02  0.00000000000E+00 0. -1.
         -3   -1    0    0    0  501 -0.00000000000E+00 -0.00000000000E+00 -0.15315627832E+03  0.15315627832E+03  0.00000000000E+00 0.  1.
         23    2    1    2    0    0  0.00000000000E+00  0.00000000000E+00 -0.13977401200E+03  0.16653854464E+03  0.90544532798E+02 0.  0.
        -11    1    3    3    0    0 -0.29210550064E+02 -0.18254682340E+01 -0.13341583497E+03  0.13658833622E+03  0.00000000000E+00 0.  1.
         11    1    3    3    0    0  0.29210550064E+02  0.18254682340E+01 -0.63581770272E+01  0.29950208420E+02  0.00000000000E+00 0. -1.
<mgrwt>
<rscale>  0 0.90544533E+02</rscale>
<asrwt>0</asrwt>
<pdfrwt beam="1">  1        3 0.20588103E-02 0.90544533E+02</pdfrwt>
<pdfrwt beam="2">  1       -3 0.23562503E-01 0.90544533E+02</pdfrwt>
<totfact> 0.30900774E+04</totfact>
</mgrwt>
</event>
<event>
 5    1  0.1227473E+001  0.8997711E+02  0.7546771E-02  0.1302907E+00
          1   -1    0    0  501    0  0.00000000000E+00  0.00000000000E+00  0.87779797305E+01  0.87779797305E+01  0.00000000000E+00 0. -1.
         -1   -1    0    0    0  501 -0.00000000000E+00 -0.00000000000E+00 -0.23057354108E+03  0.23057354108E+03  0.00000000000E+00 0.  1.
         23    2    1    2    0    0  0.00000000000E+00  0.00000000000E+00 -0.22179556135E+03  0.23935152081E+03  0.89977105309E+02 0.  0.
        -13    1    3    3    0    0 -0.30386130933E+02 -0.14911477460E+02 -0.32061558892E+02  0.46622019173E+02  0.00000000000E+00 0. -1.
         13    1    3    3    0    0  0.30386130933E+02  0.14911477460E+02 -0.18973400245E+03  0.19272950163E+03  0.00000000000E+00 0.  1.
<mgrwt>
<rscale>  0 0.89977105E+02</rscale>
<asrwt>0</asrwt>
<pdfrwt beam="1">  1        1 0.13504587E-02 0.89977105E+02</pdfrwt>
<pdfrwt beam="2">  1       -1 0.35472846E-01 0.89977105E+02</pdfrwt>
<totfact> 0.68844733E+04</totfact>
</mgrwt>
</event>
<event>
 5    1  0.1227473E+001  0.9151888E+02  0.7546771E-02  0.1299215E+00
         -1   -1    0    0    0  501 -0.00000000000E+00  0.00000000000E+00  0.16874739249E+03  0.16874739249E+03  0.00000000000E+00 0.  1.
          1   -1    0    0  501    0  0.00000000000E+00 -0.00000000000E+00 -0.12408644073E+02  0.12408644073E+02  0.00000000000E+00 0. -1.
         23    2    1    2    0    0  0.00000000000E+00  0.00000000000E+00  0.15633874842E+03  0.18115603657E+03  0.91518879619E+02 0.  0.
        -11    1    3    3    0    0  0.23505070542E+02  0.16850902791E+02  0.79764179683E+01  0.30001075142E+02  0.00000000000E+00 0. -1.
         11    1    3    3    0    0 -0.23505070542E+02 -0.16850902791E+02  0.14836233045E+03  0.15115496143E+03  0.00000000000E+00 0.  1.
<mgrwt>
<rscale>  0 0.91518880E+02</rscale>
<asrwt>0</asrwt>
<pdfrwt beam="2">  1        1 0.19090223E-02 0.91518880E+02</pdfrwt>
<pdfrwt beam="1">  1       -1 0.25961136E-01 0.91518880E+02</pdfrwt>
<totfact> 0.71969941E+04</totfact>
</mgrwt>
</event>
<event>
 5    1  0.1227473E+001  0.9203222E+02  0.7546771E-02  0.1298004E+00
          2   -1    0    0  501    0  0.00000000000E+00  0.00000000000E+00  0.16857837501E+03  0.16857837501E+03  0.00000000000E+00 0.  1.
         -2   -1    0    0    0  501 -0.00000000000E+00 -0.00000000000E+00 -0.12560818986E+02  0.12560818986E+02  0.00000000000E+00 0. -1.
         23    2    1    2    0    0  0.00000000000E+00  0.00000000000E+00  0.15601755602E+03  0.18113919400E+03  0.92032221606E+02 0.  0.
        -13    1    3    3    0    0 -0.22114856465E+02 -0.22494179678E+02  0.14394919152E+03  0.14736493727E+03  0.00000000000E+00 0.  1.
         13    1    3    3    0    0  0.22114856465E+02  0.22494179678E+02  0.12068364503E+02  0.33774256729E+02  0.00000000000E+00 0. -1.
<mgrwt>
<rscale>  0 0.92032222E+02</rscale>
<asrwt>0</asrwt>
<pdfrwt beam="1">  1        2 0.25935133E-01 0.92032222E+02</pdfrwt>
<pdfrwt beam="2">  1       -2 0.19324338E-02 0.92032222E+02</pdfrwt>
<totfact> 0.14191597E+05</totfact>
</mgrwt>
</event>
<event>
 5    1  0.1227473E+001  0.8989045E+02  0.7546771E-02  0.1303117E+00
         -2   -1    0    0    0  501 -0.00000000000E+00  0.00000000000E+00  0.19824150419E+02  0.19824150419E+02  0.00000000000E+00 0.  1.
          2   -1    0    0  501    0  0.00000000000E+00 -0.00000000000E+00 -0.10189961886E+03  0.10189961886E+03  0.00000000000E+00 0. -1.
         23    2    1    2    0    0  0.00000000000E+00  0.00000000000E+00 -0.82075468446E+02  0.12172376928E+03  0.89890452708E+02 0.  0.
        -13    1    3    3    0    0 -0.37863533151E+02 -0.56451035177E+01 -0.91491147969E+01  0.39360140218E+02  0.00000000000E+00 0.  1.
         13    1    3    3    0    0  0.37863533151E+02  0.56451035177E+01 -0.72926353649E+02  0.82363629066E+02  0.00000000000E+00 0. -1.
<mgrwt>
<rscale>  0 0.89890453E+02</rscale>
<asrwt>0</asrwt>
<pdfrwt beam="2">  1        2 0.15676864E-01 0.89890453E+02</pdfrwt>
<pdfrwt beam="1">  1       -2 0.30498693E-02 0.89890453E+02</pdfrwt>
<totfact> 0.12829261E+05</totfact>
</mgrwt>
</event>
<event>
 5    1  0.1227473E+001  0.8967636E+02  0.7546771E-02  0.1303637E+00
          2   -1    0    0  501    0  0.00000000000E+00  0.00000000000E+00  0.11842090821E+03  0.11842090821E+03  0.00000000000E+00 0. -1.
         -2   -1    0    0    0  501 -0.00000000000E+00 -0.00000000000E+00 -0.16977256936E+02  0.16977256936E+02  0.00000000000E+00 0.  1.
         23    2    1    2    0    0  0.00000000000E+00  0.00000000000E+00  0.10144365128E+03  0.13539816515E+03  0.89676355531E+02 0.  0.
        -13    1    3    3    0    0  0.27370502013E+02 -0.35272840223E+02  0.56973521509E+02  0.72383007612E+02  0.00000000000E+00 0. -1.
         13    1    3    3    0    0 -0.27370502013E+02  0.35272840223E+02  0.44470129769E+02  0.63015157537E+02  0.00000000000E+00 0.  1.
<mgrwt>
<rscale>  0 0.89676356E+02</rscale>
<asrwt>0</asrwt>
<pdfrwt beam="1">  1        2 0.18218601E-01 0.89676356E+02</pdfrwt>
<pdfrwt beam="2">  1       -2 0.26118858E-02 0.89676356E+02</pdfrwt>
<totfact> 0.13530850E+05</totfact>
</mgrwt>
</event>
<event>
 5    1  0.1227473E+001  0.9140091E+02  0.7546771E-02  0.1299494E+00
          1   -1    0    0  501    0  0.00000000000E+00  0.00000000000E+00  0.57560528549E+02  0.57560528549E+02  0.00000000000E+00 0. -1.
         -1   -1    0    0    0  501 -0.00000000000E+00 -0.00000000000E+00 -0.36284092620E+02  0.36284092620E+02  0.00000000000E+00 0.  1.
         23    2    1    2    0    0  0.00000000000E+00  0.00000000000E+00  0.21276435929E+02  0.93844621169E+02  0.91400909167E+02 0.  0.
        -13    1    3    3    0    0 -0.17244320380E+02 -0.14713523128E+02  0.51381371413E+02  0.56159591135E+02  0.00000000000E+00 0. -1.
         13    1    3    3    0    0  0.17244320380E+02  0.14713523128E+02 -0.30104935483E+02  0.37685030034E+02  0.00000000000E+00 0.  1.
<mgrwt>
<rscale>  0 0.91400909E+02</rscale>
<asrwt>0</asrwt>
<pdfrwt beam="1">  1        1 0.88554659E-02 0.91400909E+02</pdfrwt>
<pdfrwt beam="2">  1       -1 0.55821681E-02 0.91400909E+02</pdfrwt>
<totfact> 0.95117246E+04</totfact>
</mgrwt>
</event>
<event>
 5    1  0.1227473E+001  0.9146461E+02  0.7546771E-02  0.1299343E+00
         -1   -1    0    0    0  501 -0.00000000000E+00  0.00000000000E+00  0.66023719490E+02  0.66023719490E+02  0.00000000000E+00 0.  1.
          1   -1    0    0  501    0  0.00000000000E+00 -0.00000000000E+00 -0.31677158889E+02  0.31677158889E+02  0.00000000000E+00 0. -1.
         23    2    1    2    0    0  0.00000000000E+00  0.00000000000E+00  0.34346560601E+02  0.97700878379E+02  0.91464612888E+02 0.  0.
        -13    1    3    3    0    0 -0.93517749401E+01 -0.11758239232E+02 -0.28965912692E+02  0.32630292405E+02  0.00000000000E+00 0. -1.
         13    1    3    3    0    0  0.93517749401E+01  0.11758239232E+02  0.63312473293E+02  0.65070585973E+02  0.00000000000E+00 0.  1.
<mgrwt>
<rscale>  0 0.91464613E+02</rscale>
<asrwt>0</asrwt>
<pdfrwt beam="2">  1        1 0.48734091E-02 0.91464613E+02</pdfrwt>
<pdfrwt beam="1">  1       -1 0.10157495E-01 0.91464613E+02</pdfrwt>
<totfact> 0.86656787E+04</totfact>
</mgrwt>
</event>
<event>
 5    1  0.1227473E+001  0.9285654E+02  0.7546771E-02  0.1296078E+00
         -2   -1    0    0    0  501 -0.00000000000E+00  0.00000000000E+00  0.34545490928E+02  0.34545490928E+02  0.00000000000E+00 0.  1.
          2   -1    0    0  501    0  0.00000000000E+00 -0.00000000000E+00 -0.62398424629E+02  0.62398424629E+02  0.00000000000E+00 0. -1.
         23    2    1    2    0    0  0.00000000000E+00  0.00000000000E+00 -0.27852933701E+02  0.96943915557E+02  0.92856539068E+02 0.  0.
        -11    1    3    3    0    0 -0.25435319356E+02 -0.29479084962E+02 -0.40330268678E+02  0.56058027905E+02  0.00000000000E+00 0. -1.
         11    1    3    3    0    0  0.25435319356E+02  0.29479084962E+02  0.12477334977E+02  0.40885887652E+02  0.00000000000E+00 0.  1.
<mgrwt>
<rscale>  0 0.92856539E+02</rscale>
<asrwt>0</asrwt>
<pdfrwt beam="2">  1        2 0.95997575E-02 0.92856539E+02</pdfrwt>
<pdfrwt beam="1">  1       -2 0.53146910E-02 0.92856539E+02</pdfrwt>
<totfact> 0.10181296E+05</totfact>
</mgrwt>
</event>
<event>
 5    1  0.1227473E+001  0.9515509E+02  0.7546771E-02  0.1290827E+00
         -2   -1    0    0    0  501 -0.00000000000E+00  0.00000000000E+00  0.14691382560E+02  0.14691382560E+02  0.00000000000E+00 0.  1.
          2   -1    0    0  501    0  0.00000000000E+00 -0.00000000000E+00 -0.15407825991E+03  0.15407825991E+03  0.00000000000E+00 0. -1.
         23    2    1    2    0    0  0.00000000000E+00  0.00000000000E+00 -0.13938687735E+03  0.16876964247E+03  0.95155087315E+02 0.  0.
        -11    1    3    3    0    0 -0.36672863860E+02  0.20444831744E+02 -0.30004888038E+02  0.51606040295E+02  0.00000000000E+00 0.  1.
         11    1    3    3    0    0  0.36672863860E+02 -0.20444831744E+02 -0.10938198931E+03  0.11716360217E+03  0.00000000000E+00 0. -1.
<mgrwt>
<rscale>  0 0.95155087E+02</rscale>
<asrwt>0</asrwt>
<pdfrwt beam="2">  1        2 0.23704348E-01 0.95155087E+02</pdfrwt>
<pdfrwt beam="1">  1       -2 0.22602127E-02 0.95155087E+02</pdfrwt>
<totfact> 0.12561326E+05</totfact>
</mgrwt>
</event>
<event>
 5    1  0.1227473E+001  0.9258072E+02  0.7546771E-02  0.1296720E+00
         -1   -1    0    0    0  501 -0.00000000000E+00  0.00000000000E+00  0.19555708112E+02  0.19555708112E+02  0.00000000000E+00 0.  1.
          1   -1    0    0  501    0  0.00000000000E+00 -0.00000000000E+00 -0.10957401070E+03  0.10957401070E+03  0.00000000000E+00 0. -1.
         23    2    1    2    0    0  0.00000000000E+00  0.00000000000E+00 -0.90018302589E+02  0.12912971881E+03  0.92580718724E+02 0.  0.
        -11    1    3    3    0    0 -0.37806691978E+02 -0.13569144539E+02 -0.12919219057E+02  0.42194476687E+02  0.00000000000E+00 0.  1.
         11    1    3    3    0    0  0.37806691978E+02  0.13569144539E+02 -0.77099083532E+02  0.86935242125E+02  0.00000000000E+00 0. -1.
<mgrwt>
<rscale>  0 0.92580719E+02</rscale>
<asrwt>0</asrwt>
<pdfrwt beam="2">  1        1 0.16857540E-01 0.92580719E+02</pdfrwt>
<pdfrwt beam="1">  1       -1 0.30085705E-02 0.92580719E+02</pdfrwt>
<totfact> 0.10174524E+05</totfact>
</mgrwt>
</event>
<event>
 5    1  0.1227473E+001  0.9248515E+02  0.7546771E-02  0.1296943E+00
          1   -1    0    0  501    0  0.00000000000E+00  0.00000000000E+00  0.26276490940E+03  0.26276490940E+03  0.00000000000E+00 0. -1.
         -1   -1    0    0    0  501 -0.00000000000E+00 -0.00000000000E+00 -0.81379814503E+01  0.81379814503E+01  0.00000000000E+00 0.  1.
         23    2    1    2    0    0  0.00000000000E+00  0.00000000000E+00  0.25462692795E+03  0.27090289085E+03  0.92485154668E+02 0.  0.
        -13    1    3    3    0    0 -0.36601494189E+02 -0.20047330150E+02  0.18566248015E+03  0.19029482746E+03  0.00000000000E+00 0. -1.
         13    1    3    3    0    0  0.36601494189E+02  0.20047330150E+02  0.68964447798E+02  0.80608063388E+02  0.00000000000E+00 0.  1.
<mgrwt>
<rscale>  0 0.92485155E+02</rscale>
<asrwt>0</asrwt>
<pdfrwt beam="1">  1        1 0.40425364E-01 0.92485155E+02</pdfrwt>
<pdfrwt beam="2">  1       -1 0.12519973E-02 0.92485155E+02</pdfrwt>
<totfact> 0.12021128E+05</totfact>
</mgrwt>
</event>
<event>
 5    1  0.1227473E+001  0.9105244E+02  0.7546771E-02  0.1300323E+00
         -2   -1    0    0    0  501 -0.00000000000E+00  0.00000000000E+00  0.18354995129E+02  0.18354995129E+02  0.00000000000E+00 0.  1.
          2   -1    0    0  501    0  0.00000000000E+00 -0.00000000000E+00 -0.11291948445E+03  0.11291948445E+03  0.00000000000E+00 0. -1.
         23    2    1    2    0    0  0.00000000000E+00  0.00000000000E+00 -0.94564489318E+02  0.13127447958E+03  0.91052437353E+02 0.  0.
        -13    1    3    3    0    0  0.14130960459E+01  0.18941426860E+02  0.12369495484E+02  0.22666691652E+02  0.00000000000E+00 0.  1.
         13    1    3    3    0    0 -0.14130960459E+01 -0.18941426860E+02 -0.10693398480E+03  0.10860778792E+03  0.00000000000E+00 0. -1.
<mgrwt>
<rscale>  0 0.91052437E+02</rscale>
<asrwt>0</asrwt>
<pdfrwt beam="2">  1        2 0.17372228E-01 0.91052437E+02</pdfrwt>
<pdfrwt beam="1">  1       -2 0.28238454E-02 0.91052437E+02</pdfrwt>
<totfact> 0.12785821E+05</totfact>
</mgrwt>
</event>
<event>
 5    1  0.1227473E+001  0.9305112E+02  0.7546771E-02  0.1295627E+00
          1   -1    0    0  501    0  0.00000000000E+00  0.00000000000E+00  0.31397424654E+03  0.31397424654E+03  0.00000000000E+00 0. -1.
         -1   -1    0    0    0  501 -0.00000000000E+00 -0.00000000000E+00 -0.68942840712E+01  0.68942840712E+01  0.00000000000E+00 0.  1.
         23    2    1    2    0    0  0.00000000000E+00  0.00000000000E+00  0.30707996246E+03  0.32086853061E+03  0.93051118138E+02 0.  0.
        -13    1    3    3    0    0 -0.39622954712E+02 -0.86685572330E+01  0.74943973256E+02  0.85215735354E+02  0.00000000000E+00 0.  1.
         13    1    3    3    0    0  0.39622954712E+02  0.86685572330E+01  0.23213598921E+03  0.23565279525E+03  0.00000000000E+00 0. -1.
<mgrwt>
<rscale>  0 0.93051118E+02</rscale>
<asrwt>0</asrwt>
<pdfrwt beam="1">  1        1 0.48303719E-01 0.93051118E+02</pdfrwt>
<pdfrwt beam="2">  1       -1 0.10606593E-02 0.93051118E+02</pdfrwt>
<totfact> 0.12240379E+05</totfact>
</mgrwt>
</event>
<event>
 5    1  0.1227473E+001  0.9058327E+02  0.7546771E-02  0.1301445E+00
         -1   -1    0    0    0  501 -0.00000000000E+00  0.00000000000E+00  0.32204081006E+02  0.32204081006E+02  0.00000000000E+00 0.  1.
          1   -1    0    0  501    0  0.00000000000E+00 -0.00000000000E+00 -0.63697890867E+02  0.63697890867E+02  0.00000000000E+00 0. -1.
         23    2    1    2    0    0  0.00000000000E+00  0.00000000000E+00 -0.31493809862E+02  0.95901971873E+02  0.90583266388E+02 0.  0.
        -13    1    3    3    0    0 -0.44002748905E+02 -0.49180897988E+01 -0.25841002977E+02  0.51265845875E+02  0.00000000000E+00 0. -1.
         13    1    3    3    0    0  0.44002748905E+02  0.49180897988E+01 -0.56528068850E+01  0.44636125998E+02  0.00000000000E+00 0.  1.
<mgrwt>
<rscale>  0 0.90583266E+02</rscale>
<asrwt>0</asrwt>
<pdfrwt beam="2">  1        1 0.97996755E-02 0.90583266E+02</pdfrwt>
<pdfrwt beam="1">  1       -1 0.49544740E-02 0.90583266E+02</pdfrwt>
<totfact> 0.99022291E+04</totfact>
</mgrwt>
</event>
<event>
 5    1  0.1227473E+001  0.9177582E+02  0.7546771E-02  0.1298607E+00
          1   -1    0    0  501    0  0.00000000000E+00  0.00000000000E+00  0.17427602670E+02  0.17427602670E+02  0.00000000000E+00 0. -1.
         -1   -1    0    0    0  501 -0.00000000000E+00 -0.00000000000E+00 -0.12082558258E+03  0.12082558258E+03  0.00000000000E+00 0.  1.
         23    2    1    2    0    0  0.00000000000E+00  0.00000000000E+00 -0.10339797991E+03  0.13825318525E+03  0.91775819161E+02 0.  0.
        -13    1    3    3    0    0 -0.34194576487E+02  0.22303953166E+02 -0.20137190720E+02  0.45521883068E+02  0.00000000000E+00 0. -1.
         13    1    3    3    0    0  0.34194576487E+02 -0.22303953166E+02 -0.83260789191E+02  0.92731302183E+02  0.00000000000E+00 0.  1.
<mgrwt>
<rscale>  0 0.91775819E+02</rscale>
<asrwt>0</asrwt>
<pdfrwt beam="1">  1        1 0.26811696E-02 0.91775819E+02</pdfrwt>
<pdfrwt beam="2">  1       -1 0.18588552E-01 0.91775819E+02</pdfrwt>
<totfact> 0.77102524E+04</totfact>
</mgrwt>
</event>
<event>
 5    1  0.1227473E+001  0.9339766E+02  0.7546771E-02  0.1294826E+00
          1   -1    0    0  501    0  0.00000000000E+00  0.00000000000E+00  0.12594035335E+03  0.12594035335E+03  0.00000000000E+00 0. -1.
         -1   -1    0    0    0  501 -0.00000000000E+00 -0.00000000000E+00 -0.17315981260E+02  0.17315981260E+02  0.00000000000E+00 0.  1.
         23    2    1    2    0    0  0.00000000000E+00  0.00000000000E+00  0.10862437209E+03  0.14325633461E+03  0.93397661610E+02 0.  0.
        -11    1    3    3    0    0 -0.34193102168E+02  0.25512182069E+02  0.83444545637E+02  0.93717831102E+02  0.00000000000E+00 0. -1.
         11    1    3    3    0    0  0.34193102168E+02 -0.25512182069E+02  0.25179826457E+02  0.49538503512E+02  0.00000000000E+00 0.  1.
<mgrwt>
<rscale>  0 0.93397662E+02</rscale>
<asrwt>0</asrwt>
<pdfrwt beam="1">  1        1 0.19375438E-01 0.93397662E+02</pdfrwt>
<pdfrwt beam="2">  1       -1 0.26639972E-02 0.93397662E+02</pdfrwt>
<totfact> 0.10178215E+05</totfact>
</mgrwt>
</event>
<event>
 5    1  0.1227473E+001  0.9083102E+02  0.7546771E-02  0.1300852E+00
         -3   -1    0    0    0  501 -0.00000000000E+00  0.00000000000E+00  0.29638306974E+02  0.29638306974E+02  0.00000000000E+00 0.  1.
          3   -1    0    0  501    0  0.00000000000E+00 -0.00000000000E+00 -0.69591303801E+02  0.69591303801E+02  0.00000000000E+00 0. -1.
         23    2    1    2    0    0  0.00000000000E+00  0.00000000000E+00 -0.39952996826E+02  0.99229610775E+02  0.90831017275E+02 0.  0.
        -11    1    3    3    0    0  0.41175730010E+02 -0.11429212841E+02 -0.36777044389E+02  0.56379239459E+02  0.00000000000E+00 0. -1.
         11    1    3    3    0    0 -0.41175730010E+02  0.11429212841E+02 -0.31759524375E+01  0.42850371316E+02  0.00000000000E+00 0.  1.
<mgrwt>
<rscale>  0 0.90831017E+02</rscale>
<asrwt>0</asrwt>
<pdfrwt beam="2">  1        3 0.10706354E-01 0.90831017E+02</pdfrwt>
<pdfrwt beam="1">  1       -3 0.45597396E-02 0.90831017E+02</pdfrwt>
<totfact> 0.35089128E+04</totfact>
</mgrwt>
</event>
<event>
 5    1  0.1227473E+001  0.8983121E+02  0.7546771E-02  0.1303261E+00
          1   -1    0    0  501    0  0.00000000000E+00  0.00000000000E+00  0.14077845655E+03  0.14077845655E+03  0.00000000000E+00 0. -1.
         -1   -1    0    0    0  501 -0.00000000000E+00 -0.00000000000E+00 -0.14330398617E+02  0.14330398617E+02  0.00000000000E+00 0.  1.
         23    2    1    2    0    0  0.00000000000E+00  0.00000000000E+00  0.12644805793E+03  0.15510885516E+03  0.89831206137E+02 0.  0.
        -11    1    3    3    0    0  0.25857632620E+02 -0.11941721221E+02  0.32563640072E+01  0.28667503850E+02  0.00000000000E+00 0.  1.
         11    1    3    3    0    0 -0.25857632620E+02  0.11941721221E+02  0.12319169392E+03  0.12644135131E+03  0.00000000000E+00 0. -1.
<mgrwt>
<rscale>  0 0.89831206E+02</rscale>
<asrwt>0</asrwt>
<pdfrwt beam="1">  1        1 0.21658223E-01 0.89831206E+02</pdfrwt>
<pdfrwt beam="2">  1       -1 0.22046768E-02 0.89831206E+02</pdfrwt>
<totfact> 0.11537710E+05</totfact>
</mgrwt>
</event>
<event>
 5    1  0.1227473E+001  0.9266478E+02  0.7546771E-02  0.1296524E+00
          1   -1    0    0  501    0  0.00000000000E+00  0.00000000000E+00  0.12224947442E+03  0.12224947442E+03  0.00000000000E+00 0. -1.
         -1   -1    0    0    0  501 -0.00000000000E+00 -0.00000000000E+00 -0.17559916362E+02  0.17559916362E+02  0.00000000000E+00 0.  1.
         23    2    1    2    0    0  0.00000000000E+00  0.00000000000E+00  0.10468955806E+03  0.13980939079E+03  0.92664783951E+02 0.  0.
        -13    1    3    3    0    0  0.41521393433E+02 -0.11353830220E+02  0.26485629382E+02  0.50541311192E+02  0.00000000000E+00 0. -1.
         13    1    3    3    0    0 -0.41521393433E+02  0.11353830220E+02  0.78203928681E+02  0.89268079594E+02  0.00000000000E+00 0.  1.
<mgrwt>
<rscale>  0 0.92664784E+02</rscale>
<asrwt>0</asrwt>
<pdfrwt beam="1">  1        1 0.18807611E-01 0.92664784E+02</pdfrwt>
<pdfrwt beam="2">  1       -1 0.27015257E-02 0.92664784E+02</pdfrwt>
<totfact> 0.10343895E+05</totfact>
</mgrwt>
</event>
<event>
 5    1  0.1227473E+001  0.9002718E+02  0.7546771E-02  0.1302786E+00
          1   -1    0    0  501    0  0.00000000000E+00  0.00000000000E+00  0.40310667761E+02  0.40310667761E+02  0.00000000000E+00 0. -1.
         -1   -1    0    0    0  501 -0.00000000000E+00 -0.00000000000E+00 -0.50265190971E+02  0.50265190971E+02  0.00000000000E+00 0.  1.
         23    2    1    2    0    0  0.00000000000E+00  0.00000000000E+00 -0.99545232107E+01  0.90575858732E+02  0.90027182854E+02 0.  0.
        -13    1    3    3    0    0  0.13375207391E+02 -0.39340391183E+02 -0.22393477997E+02  0.47202016991E+02  0.00000000000E+00 0.  1.
         13    1    3    3    0    0 -0.13375207391E+02  0.39340391183E+02  0.12438954786E+02  0.43373841741E+02  0.00000000000E+00 0. -1.
<mgrwt>
<rscale>  0 0.90027183E+02</rscale>
<asrwt>0</asrwt>
<pdfrwt beam="1">  1        1 0.62016412E-02 0.90027183E+02</pdfrwt>
<pdfrwt beam="2">  1       -1 0.77331063E-02 0.90027183E+02</pdfrwt>
<totfact> 0.94075415E+04</totfact>
</mgrwt>
</event>
<event>
 5    1  0.1227473E+001  0.9222430E+02  0.7546771E-02  0.1297553E+00
         -2   -1    0    0    0  501 -0.00000000000E+00  0.00000000000E+00  0.18334862904E+02  0.18334862904E+02  0.00000000000E+00 0.  1.
          2   -1    0    0  501    0  0.00000000000E+00 -0.00000000000E+00 -0.11597198819E+03  0.11597198819E+03  0.00000000000E+00 0. -1.
         23    2    1    2    0    0  0.00000000000E+00  0.00000000000E+00 -0.97637125290E+02  0.13430685110E+03  0.92224302745E+02 0.  0.
        -11    1    3    3    0    0  0.30564145447E+02  0.23058349541E+02 -0.11391881425E+02  0.39945330551E+02  0.00000000000E+00 0.  1.
         11    1    3    3    0    0 -0.30564145447E+02 -0.23058349541E+02 -0.86245243865E+02  0.94361520546E+02  0.00000000000E+00 0. -1.
<mgrwt>
<rscale>  0 0.92224303E+02</rscale>
<asrwt>0</asrwt>
<pdfrwt beam="2">  1        2 0.17841844E-01 0.92224303E+02</pdfrwt>
<pdfrwt beam="1">  1       -2 0.28207481E-02 0.92224303E+02</pdfrwt>
<totfact> 0.12449770E+05</totfact>
</mgrwt>
</event>
<event>
 5    1  0.1227473E+001  0.9303624E+02  0.7546771E-02  0.1295661E+00
          1   -1    0    0  501    0  0.00000000000E+00  0.00000000000E+00  0.80182097182E+02  0.80182097182E+02  0.00000000000E+00 0. -1.
         -1   -1    0    0    0  501 -0.00000000000E+00 -0.00000000000E+00 -0.26987766351E+02  0.26987766351E+02  0.00000000000E+00 0.  1.
         23    2    1    2    0    0  0.00000000000E+00  0.00000000000E+00  0.53194330831E+02  0.10716986353E+03  0.93036244643E+02 0.  0.
        -11    1    3    3    0    0 -0.33746958180E+02  0.18705728728E+02 -0.33343313454E+01  0.38728274415E+02  0.00000000000E+00 0.  1.
         11    1    3    3    0    0  0.33746958180E+02 -0.18705728728E+02  0.56528662176E+02  0.68441589119E+02  0.00000000000E+00 0. -1.
<mgrwt>
<rscale>  0 0.93036245E+02</rscale>
<asrwt>0</asrwt>
<pdfrwt beam="1">  1        1 0.12335707E-01 0.93036245E+02</pdfrwt>
<pdfrwt beam="2">  1       -1 0.41519641E-02 0.93036245E+02</pdfrwt>
<totfact> 0.95335907E+04</totfact>
</mgrwt>
</event>
<event>
 5    1  0.1227473E+001  0.8845712E+02  0.7546771E-02  0.1306632E+00
         -3   -1    0    0    0  501 -0.00000000000E+00  0.00000000000E+00  0.30490391163E+02  0.30490391163E+02  0.00000000000E+00 0.  1.
          3   -1    0    0  501    0  0.00000000000E+00 -0.00000000000E+00 -0.64156793633E+02  0.64156793633E+02  0.00000000000E+00 0. -1.
         23    2    1    2    0    0  0.00000000000E+00  0.00000000000E+00 -0.33666402470E+02  0.94647184796E+02  0.88457124838E+02 0.  0.
        -11    1    3    3    0    0 -0.15561916095E+02  0.12580802674E+02  0.25369478435E+02  0.32311921400E+02  0.00000000000E+00 0.  1.
         11    1    3    3    0    0  0.15561916095E+02 -0.12580802674E+02 -0.59035880905E+02  0.62335263396E+02  0.00000000000E+00 0. -1.
<mgrwt>
<rscale>  0 0.88457125E+02</rscale>
<asrwt>0</asrwt>
<pdfrwt beam="2">  1        3 0.98702759E-02 0.88457125E+02</pdfrwt>
<pdfrwt beam="1">  1       -3 0.46908294E-02 0.88457125E+02</pdfrwt>
<totfact> 0.38077594E+04</totfact>
</mgrwt>
</event>
<event>
 5    1  0.1227473E+001  0.9419112E+02  0.7546771E-02  0.1293008E+00
          3   -1    0    0  501    0  0.00000000000E+00  0.00000000000E+00  0.92978226848E+02  0.92978226848E+02  0.00000000000E+00 0. -1.
         -3   -1    0    0    0  501 -0.00000000000E+00 -0.00000000000E+00 -0.23854957430E+02  0.23854957430E+02  0.00000000000E+00 0.  1.
         23    2    1    2    0    0  0.00000000000E+00  0.00000000000E+00  0.69123269418E+02  0.11683318428E+03  0.94191117276E+02 0.  0.
        -13    1    3    3    0    0 -0.16176861961E+02  0.16184939689E+02  0.85618910315E+02  0.88624155507E+02  0.00000000000E+00 0. -1.
         13    1    3    3    0    0  0.16176861961E+02 -0.16184939689E+02 -0.16495640897E+02  0.28209028772E+02  0.00000000000E+00 0.  1.
<mgrwt>
<rscale>  0 0.94191117E+02</rscale>
<asrwt>0</asrwt>
<pdfrwt beam="1">  1        3 0.14304342E-01 0.94191117E+02</pdfrwt>
<pdfrwt beam="2">  1       -3 0.36699935E-02 0.94191117E+02</pdfrwt>
<totfact> 0.30625131E+04</totfact>
</mgrwt>
</event>
<event>
 5    1  0.1227473E+001  0.9158707E+02  0.7546771E-02  0.1299053E+00
         -2   -1    0    0    0  501 -0.00000000000E+00  0.00000000000E+00  0.63808308019E+02  0.63808308019E+02  0.00000000000E+00 0.  1.
          2   -1    0    0  501    0  0.00000000000E+00 -0.00000000000E+00 -0.32864807988E+02  0.32864807988E+02  0.00000000000E+00 0. -1.
         23    2    1    2    0    0  0.00000000000E+00  0.00000000000E+00  0.30943500031E+02  0.96673116008E+02  0.91587068762E+02 0.  0.
        -11    1    3    3    0    0  0.20773105026E+00 -0.45559666656E+02  0.20345682964E+02  0.49896625069E+02  0.00000000000E+00 0. -1.
         11    1    3    3    0    0 -0.20773105026E+00  0.45559666656E+02  0.10597817067E+02  0.46776490939E+02  0.00000000000E+00 0.  1.
<mgrwt>
<rscale>  0 0.91587069E+02</rscale>
<asrwt>0</asrwt>
<pdfrwt beam="2">  1        2 0.50561243E-02 0.91587069E+02</pdfrwt>
<pdfrwt beam="1">  1       -2 0.98166628E-02 0.91587069E+02</pdfrwt>
<totfact> 0.89438325E+04</totfact>
</mgrwt>
</event>
<event>
 5    1  0.1227473E+001  0.7884638E+02  0.7546771E-02  0.1332357E+00
         -2   -1    0    0    0  501 -0.00000000000E+00  0.00000000000E+00  0.11155106438E+03  0.11155106438E+03  0.00000000000E+00 0. -1.
          2   -1    0    0  501    0  0.00000000000E+00 -0.00000000000E+00 -0.13932524969E+02  0.13932524969E+02  0.00000000000E+00 0.  1.
         23    2    1    2    0    0  0.00000000000E+00  0.00000000000E+00  0.97618539407E+02  0.12548358935E+03  0.78846382030E+02 0.  0.
        -11    1    3    3    0    0  0.11423813689E+02 -0.36723006498E+02  0.62601685854E+02  0.73471448858E+02  0.00000000000E+00 0.  1.
         11    1    3    3    0    0 -0.11423813689E+02  0.36723006498E+02  0.35016853552E+02  0.52012140488E+02  0.00000000000E+00 0. -1.
<mgrwt>
<rscale>  0 0.78846382E+02</rscale>
<asrwt>0</asrwt>
<pdfrwt beam="2">  1        2 0.21434655E-02 0.78846382E+02</pdfrwt>
<pdfrwt beam="1">  1       -2 0.17161702E-01 0.78846382E+02</pdfrwt>
<totfact> 0.11100511E+05</totfact>
</mgrwt>
</event>
<event>
 5    1  0.1227473E+001  0.9261860E+02  0.7546771E-02  0.1296631E+00
          1   -1    0    0  501    0  0.00000000000E+00  0.00000000000E+00  0.85321237039E+02  0.85321237039E+02  0.00000000000E+00 0. -1.
         -1   -1    0    0    0  501 -0.00000000000E+00 -0.00000000000E+00 -0.25135021873E+02  0.25135021873E+02  0.00000000000E+00 0.  1.
         23    2    1    2    0    0  0.00000000000E+00  0.00000000000E+00  0.60186215166E+02  0.11045625891E+03  0.92618597684E+02 0.  0.
        -11    1    3    3    0    0 -0.33423857088E+02 -0.23822474932E+02  0.55668218039E+02  0.69163682914E+02  0.00000000000E+00 0.  1.
         11    1    3    3    0    0  0.33423857088E+02  0.23822474932E+02  0.45179971269E+01  0.41292575999E+02  0.00000000000E+00 0. -1.
<mgrwt>
<rscale>  0 0.92618598E+02</rscale>
<asrwt>0</asrwt>
<pdfrwt beam="1">  1        1 0.13126344E-01 0.92618598E+02</pdfrwt>
<pdfrwt beam="2">  1       -1 0.38669265E-02 0.92618598E+02</pdfrwt>
<totfact> 0.97491104E+04</totfact>
</mgrwt>
</event>
<event>
 5    1  0.1227473E+001  0.8960429E+02  0.7546771E-02  0.1303813E+00
         -3   -1    0    0    0  501 -0.00000000000E+00  0.00000000000E+00  0.66866202378E+01  0.66866202378E+01  0.00000000000E+00 0.  1.
          3   -1    0    0  501    0  0.00000000000E+00 -0.00000000000E+00 -0.30018635541E+03  0.30018635541E+03  0.00000000000E+00 0. -1.
         23    2    1    2    0    0  0.00000000000E+00  0.00000000000E+00 -0.29349973517E+03  0.30687297564E+03  0.89604289164E+02 0.  0.
        -13    1    3    3    0    0 -0.39221628802E+02  0.34145023634E+01 -0.73517915958E+02  0.83395916921E+02  0.00000000000E+00 0.  1.
         13    1    3    3    0    0  0.39221628802E+02 -0.34145023634E+01 -0.21998181921E+03  0.22347705872E+03  0.00000000000E+00 0. -1.
<mgrwt>
<rscale>  0 0.89604289E+02</rscale>
<asrwt>0</asrwt>
<pdfrwt beam="2">  1        3 0.46182515E-01 0.89604289E+02</pdfrwt>
<pdfrwt beam="1">  1       -3 0.10287108E-02 0.89604289E+02</pdfrwt>
<totfact> 0.24901045E+04</totfact>
</mgrwt>
</event>
<event>
 5    1  0.1227473E+001  0.9108313E+02  0.7546771E-02  0.1300250E+00
         -1   -1    0    0    0  501 -0.00000000000E+00  0.00000000000E+00  0.29638836397E+02  0.29638836397E+02  0.00000000000E+00 0.  1.
          1   -1    0    0  501    0  0.00000000000E+00 -0.00000000000E+00 -0.69976915413E+02  0.69976915413E+02  0.00000000000E+00 0. -1.
         23    2    1    2    0    0  0.00000000000E+00  0.00000000000E+00 -0.40338079017E+02  0.99615751810E+02  0.91083134498E+02 0.  0.
        -11    1    3    3    0    0  0.44095804904E+02  0.98658353366E+01 -0.26380872102E+02  0.52323275222E+02  0.00000000000E+00 0. -1.
         11    1    3    3    0    0 -0.44095804904E+02 -0.98658353366E+01 -0.13957206915E+02  0.47292476589E+02  0.00000000000E+00 0.  1.
<mgrwt>
<rscale>  0 0.91083134E+02</rscale>
<asrwt>0</asrwt>
<pdfrwt beam="2">  1        1 0.10765679E-01 0.91083134E+02</pdfrwt>
<pdfrwt beam="1">  1       -1 0.45598210E-02 0.91083134E+02</pdfrwt>
<totfact> 0.98942393E+04</totfact>
</mgrwt>
</event>
<event>
 5    1  0.1227473E+001  0.9351980E+02  0.7546771E-02  0.1294545E+00
          1   -1    0    0  501    0  0.00000000000E+00  0.00000000000E+00  0.48170188321E+01  0.48170188321E+01  0.00000000000E+00 0. -1.
         -1   -1    0    0    0  501 -0.00000000000E+00 -0.00000000000E+00 -0.45390896931E+03  0.45390896931E+03  0.00000000000E+00 0.  1.
         23    2    1    2    0    0  0.00000000000E+00  0.00000000000E+00 -0.44909195048E+03  0.45872598815E+03  0.93519795835E+02 0.  0.
        -11    1    3    3    0    0  0.13088111174E+02  0.44876450748E+02 -0.23012482060E+03  0.23482467405E+03  0.00000000000E+00 0. -1.
         11    1    3    3    0    0 -0.13088111174E+02 -0.44876450748E+02 -0.21896712988E+03  0.22390131409E+03  0.00000000000E+00 0.  1.
<mgrwt>
<rscale>  0 0.93519796E+02</rscale>
<asrwt>0</asrwt>
<pdfrwt beam="1">  1        1 0.74107975E-03 0.93519796E+02</pdfrwt>
<pdfrwt beam="2">  1       -1 0.69832156E-01 0.93519796E+02</pdfrwt>
<totfact> 0.46597740E+04</totfact>
</mgrwt>
</event>
<event>
 5    1  0.1227473E+001  0.1035045E+03  0.7546771E-02  0.1273094E+00
          1   -1    0    0  501    0  0.00000000000E+00  0.00000000000E+00  0.19603953080E+02  0.19603953080E+02  0.00000000000E+00 0. -1.
         -1   -1    0    0    0  501 -0.00000000000E+00 -0.00000000000E+00 -0.13662027362E+03  0.13662027362E+03  0.00000000000E+00 0.  1.
         23    2    1    2    0    0  0.00000000000E+00  0.00000000000E+00 -0.11701632054E+03  0.15622422670E+03  0.10350453969E+03 0.  0.
        -11    1    3    3    0    0  0.97112776053E+01 -0.50247375567E+02 -0.46896019002E+02  0.69414294366E+02  0.00000000000E+00 0. -1.
         11    1    3    3    0    0 -0.97112776053E+01  0.50247375567E+02 -0.70120301540E+02  0.86809932336E+02  0.00000000000E+00 0.  1.
<mgrwt>
<rscale>  0 0.10350454E+03</rscale>
<asrwt>0</asrwt>
<pdfrwt beam="1">  1        1 0.30159928E-02 0.10350454E+03</pdfrwt>
<pdfrwt beam="2">  1       -1 0.21018503E-01 0.10350454E+03</pdfrwt>
<totfact> 0.54940061E+04</totfact>
</mgrwt>
</event>
<event>
 5    1  0.1227473E+001  0.9062418E+02  0.7546771E-02  0.1301347E+00
          1   -1    0    0  501    0  0.00000000000E+00  0.00000000000E+00  0.11859912915E+02  0.11859912915E+02  0.00000000000E+00 0. -1.
         -1   -1    0    0    0  501 -0.00000000000E+00 -0.00000000000E+00 -0.17311978062E+03  0.17311978062E+03  0.00000000000E+00 0.  1.
         23    2    1    2    0    0  0.00000000000E+00  0.00000000000E+00 -0.16125986771E+03  0.18497969354E+03  0.90624180483E+02 0.  0.
        -11    1    3    3    0    0  0.14914310090E+02 -0.24245891724E+02 -0.86692066570E+01  0.29756596832E+02  0.00000000000E+00 0. -1.
         11    1    3    3    0    0 -0.14914310090E+02  0.24245891724E+02 -0.15259066105E+03  0.15522309671E+03  0.00000000000E+00 0.  1.
<mgrwt>
<rscale>  0 0.90624180E+02</rscale>
<asrwt>0</asrwt>
<pdfrwt beam="1">  1        1 0.18246019E-02 0.90624180E+02</pdfrwt>
<pdfrwt beam="2">  1       -1 0.26633813E-01 0.90624180E+02</pdfrwt>
<totfact> 0.73351332E+04</totfact>
</mgrwt>
</event>
<event>
 5    1  0.1227473E+001  0.9343165E+02  0.7546771E-02  0.1294748E+00
         -1   -1    0    0    0  501 -0.00000000000E+00  0.00000000000E+00  0.22860461329E+02  0.22860461329E+02  0.00000000000E+00 0.  1.
          1   -1    0    0  501    0  0.00000000000E+00 -0.00000000000E+00 -0.95464750244E+02  0.95464750244E+02  0.00000000000E+00 0. -1.
         23    2    1    2    0    0  0.00000000000E+00  0.00000000000E+00 -0.72604288915E+02  0.11832521157E+03  0.93431648412E+02 0.  0.
        -13    1    3    3    0    0  0.25599130144E+02  0.23913296774E+02 -0.75443154431E+02  0.83179509359E+02  0.00000000000E+00 0.  1.
         13    1    3    3    0    0 -0.25599130144E+02 -0.23913296774E+02  0.28388655154E+01  0.35145702214E+02  0.00000000000E+00 0. -1.
<mgrwt>
<rscale>  0 0.93431648E+02</rscale>
<asrwt>0</asrwt>
<pdfrwt beam="2">  1        1 0.14686885E-01 0.93431648E+02</pdfrwt>
<pdfrwt beam="1">  1       -1 0.35169940E-02 0.93431648E+02</pdfrwt>
<totfact> 0.96950371E+04</totfact>
</mgrwt>
</event>
<event>
 5    1  0.1227473E+001  0.9381413E+02  0.7546771E-02  0.1293870E+00
          2   -1    0    0  501    0  0.00000000000E+00  0.00000000000E+00  0.18096377358E+02  0.18096377358E+02  0.00000000000E+00 0. -1.
         -2   -1    0    0    0  501 -0.00000000000E+00 -0.00000000000E+00 -0.12158637696E+03  0.12158637696E+03  0.00000000000E+00 0.  1.
         23    2    1    2    0    0  0.00000000000E+00  0.00000000000E+00 -0.10348999960E+03  0.13968275432E+03  0.93814134521E+02 0.  0.
        -13    1    3    3    0    0 -0.34122068980E+02 -0.12417557058E+02 -0.75319864450E+01  0.37084257234E+02  0.00000000000E+00 0. -1.
         13    1    3    3    0    0  0.34122068980E+02  0.12417557058E+02 -0.95958013155E+02  0.10259849708E+03  0.00000000000E+00 0.  1.
<mgrwt>
<rscale>  0 0.93814135E+02</rscale>
<asrwt>0</asrwt>
<pdfrwt beam="1">  1        2 0.27840581E-02 0.93814135E+02</pdfrwt>
<pdfrwt beam="2">  1       -2 0.18705596E-01 0.93814135E+02</pdfrwt>
<totfact> 0.69903094E+04</totfact>
</mgrwt>
</event>
<event>
 5    1  0.1227473E+001  0.9310239E+02  0.7546771E-02  0.1295508E+00
         -2   -1    0    0    0  501 -0.00000000000E+00  0.00000000000E+00  0.34130472130E+02  0.34130472130E+02  0.00000000000E+00 0.  1.
          2   -1    0    0  501    0  0.00000000000E+00 -0.00000000000E+00 -0.63492057751E+02  0.63492057751E+02  0.00000000000E+00 0. -1.
         23    2    1    2    0    0  0.00000000000E+00  0.00000000000E+00 -0.29361585621E+02  0.97622529881E+02  0.93102393257E+02 0.  0.
        -11    1    3    3    0    0  0.15784234424E+02  0.36437851334E+02 -0.40153329730E+02  0.56472550452E+02  0.00000000000E+00 0. -1.
         11    1    3    3    0    0 -0.15784234424E+02 -0.36437851334E+02  0.10791744108E+02  0.41149979430E+02  0.00000000000E+00 0.  1.
<mgrwt>
<rscale>  0 0.93102393E+02</rscale>
<asrwt>0</asrwt>
<pdfrwt beam="2">  1        2 0.97680088E-02 0.93102393E+02</pdfrwt>
<pdfrwt beam="1">  1       -2 0.52508419E-02 0.93102393E+02</pdfrwt>
<totfact> 0.10153705E+05</totfact>
</mgrwt>
</event>
<event>
 5    1  0.1227473E+001  0.9511685E+02  0.7546771E-02  0.1290913E+00
         -1   -1    0    0    0  501 -0.00000000000E+00  0.00000000000E+00  0.11161541698E+03  0.11161541698E+03  0.00000000000E+00 0.  1.
          1   -1    0    0  501    0  0.00000000000E+00 -0.00000000000E+00 -0.20264257839E+02  0.20264257839E+02  0.00000000000E+00 0. -1.
         23    2    1    2    0    0  0.00000000000E+00  0.00000000000E+00  0.91351159144E+02  0.13187967482E+03  0.95116845795E+02 0.  0.
        -13    1    3    3    0    0  0.22691381649E+02  0.13978340977E+01  0.10359337553E+03  0.10605866393E+03  0.00000000000E+00 0.  1.
         13    1    3    3    0    0 -0.22691381649E+02 -0.13978340977E+01 -0.12242216386E+02  0.25821010889E+02  0.00000000000E+00 0. -1.
<mgrwt>
<rscale>  0 0.95116846E+02</rscale>
<asrwt>0</asrwt>
<pdfrwt beam="2">  1        1 0.31175782E-02 0.95116846E+02</pdfrwt>
<pdfrwt beam="1">  1       -1 0.17171602E-01 0.95116846E+02</pdfrwt>
<totfact> 0.71423226E+04</totfact>
</mgrwt>
</event>
<event>
 5    1  0.1227473E+001  0.9277110E+02  0.7546771E-02  0.1296277E+00
         -2   -1    0    0    0  501 -0.00000000000E+00  0.00000000000E+00  0.17766580140E+02  0.17766580140E+02  0.00000000000E+00 0.  1.
          2   -1    0    0  501    0  0.00000000000E+00 -0.00000000000E+00 -0.12110486820E+03  0.12110486820E+03  0.00000000000E+00 0. -1.
         23    2    1    2    0    0  0.00000000000E+00  0.00000000000E+00 -0.10333828806E+03  0.13887144834E+03  0.92771102099E+02 0.  0.
        -13    1    3    3    0    0 -0.28270473281E+01  0.21150965038E+02 -0.11332111276E+03  0.11531274915E+03  0.00000000000E+00 0. -1.
         13    1    3    3    0    0  0.28270473281E+01 -0.21150965038E+02  0.99828247007E+01  0.23558699192E+02  0.00000000000E+00 0.  1.
<mgrwt>
<rscale>  0 0.92771102E+02</rscale>
<asrwt>0</asrwt>
<pdfrwt beam="2">  1        2 0.18631518E-01 0.92771102E+02</pdfrwt>
<pdfrwt beam="1">  1       -2 0.27333201E-02 0.92771102E+02</pdfrwt>
<totfact> 0.12420751E+05</totfact>
</mgrwt>
</event>
<event>
 5    1  0.1227473E+001  0.9544712E+02  0.7546771E-02  0.1290172E+00
         -4   -1    0    0    0  501 -0.00000000000E+00  0.00000000000E+00  0.96257280792E+02  0.96257280792E+02  0.00000000000E+00 0.  1.
          4   -1    0    0  501    0  0.00000000000E+00 -0.00000000000E+00 -0.23660946269E+02  0.23660946269E+02  0.00000000000E+00 0. -1.
         23    2    1    2    0    0  0.00000000000E+00  0.00000000000E+00  0.72596334523E+02  0.11991822706E+03  0.95447123558E+02 0.  0.
        -13    1    3    3    0    0 -0.40501355317E+02 -0.15518875825E+02  0.11285616503E+02  0.44816965864E+02  0.00000000000E+00 0. -1.
         13    1    3    3    0    0  0.40501355317E+02  0.15518875825E+02  0.61310718020E+02  0.75101261198E+02  0.00000000000E+00 0.  1.
<mgrwt>
<rscale>  0 0.95447124E+02</rscale>
<asrwt>0</asrwt>
<pdfrwt beam="2">  1        4 0.36401456E-02 0.95447124E+02</pdfrwt>
<pdfrwt beam="1">  1       -4 0.14808812E-01 0.95447124E+02</pdfrwt>
<totfact> 0.22323723E+04</totfact>
</mgrwt>
</event>
<event>
 5    1  0.1227473E+001  0.9293252E+02  0.7546771E-02  0.1295902E+00
          2   -1    0    0  501    0  0.00000000000E+00  0.00000000000E+00  0.21266579016E+03  0.21266579016E+03  0.00000000000E+00 0. -1.
         -2   -1    0    0    0  501 -0.00000000000E+00 -0.00000000000E+00 -0.10152612348E+02  0.10152612348E+02  0.00000000000E+00 0.  1.
         23    2    1    2    0    0  0.00000000000E+00  0.00000000000E+00  0.20251317782E+03  0.22281840251E+03  0.92932520188E+02 0.  0.
        -11    1    3    3    0    0 -0.44033374776E+02  0.13806581069E+02  0.88222274719E+02  0.99562691464E+02  0.00000000000E+00 0. -1.
         11    1    3    3    0    0  0.44033374776E+02 -0.13806581069E+02  0.11429090310E+03  0.12325571105E+03  0.00000000000E+00 0.  1.
<mgrwt>
<rscale>  0 0.92932520E+02</rscale>
<asrwt>0</asrwt>
<pdfrwt beam="1">  1        2 0.32717811E-01 0.92932520E+02</pdfrwt>
<pdfrwt beam="2">  1       -2 0.15619405E-02 0.92932520E+02</pdfrwt>
<totfact> 0.15024838E+05</totfact>
</mgrwt>
</event>
<event>
 5    1  0.1227473E+001  0.8978380E+02  0.7546771E-02  0.1303376E+00
          2   -1    0    0  501    0  0.00000000000E+00  0.00000000000E+00  0.14890575582E+03  0.14890575582E+03  0.00000000000E+00 0. -1.
         -2   -1    0    0    0  501 -0.00000000000E+00 -0.00000000000E+00 -0.13533946640E+02  0.13533946640E+02  0.00000000000E+00 0.  1.
         23    2    1    2    0    0  0.00000000000E+00  0.00000000000E+00  0.13537180918E+03  0.16243970246E+03  0.89783797062E+02 0.  0.
        -13    1    3    3    0    0 -0.52911413867E+01  0.43575909693E+02  0.50672729810E+02  0.67041641009E+02  0.00000000000E+00 0. -1.
         13    1    3    3    0    0  0.52911413867E+01 -0.43575909693E+02  0.84699079372E+02  0.95398061454E+02  0.00000000000E+00 0.  1.
<mgrwt>
<rscale>  0 0.89783797E+02</rscale>
<asrwt>0</asrwt>
<pdfrwt beam="1">  1        2 0.22908577E-01 0.89783797E+02</pdfrwt>
<pdfrwt beam="2">  1       -2 0.20821457E-02 0.89783797E+02</pdfrwt>
<totfact> 0.14540479E+05</totfact>
</mgrwt>
</event>
<event>
 5    1  0.1227473E+001  0.9343717E+02  0.7546771E-02  0.1294735E+00
          2   -1    0    0  501    0  0.00000000000E+00  0.00000000000E+00  0.46451042459E+02  0.46451042459E+02  0.00000000000E+00 0. -1.
         -2   -1    0    0    0  501 -0.00000000000E+00 -0.00000000000E+00 -0.46987669794E+02  0.46987669794E+02  0.00000000000E+00 0.  1.
         23    2    1    2    0    0  0.00000000000E+00  0.00000000000E+00 -0.53662733487E+00  0.93438712253E+02  0.93437171290E+02 0.  0.
        -11    1    3    3    0    0  0.33296796437E+02 -0.21544029028E+02 -0.24962938970E+02  0.46861179688E+02  0.00000000000E+00 0.  1.
         11    1    3    3    0    0 -0.33296796437E+02  0.21544029028E+02  0.24426311635E+02  0.46577532565E+02  0.00000000000E+00 0. -1.
<mgrwt>
<rscale>  0 0.93437171E+02</rscale>
<asrwt>0</asrwt>
<pdfrwt beam="1">  1        2 0.71463142E-02 0.93437171E+02</pdfrwt>
<pdfrwt beam="2">  1       -2 0.72288723E-02 0.93437171E+02</pdfrwt>
<totfact> 0.92413268E+04</totfact>
</mgrwt>
</event>
<event>
 5    1  0.1227473E+001  0.9265081E+02  0.7546771E-02  0.1296556E+00
         -1   -1    0    0    0  501 -0.00000000000E+00  0.00000000000E+00  0.24605689978E+02  0.24605689978E+02  0.00000000000E+00 0.  1.
          1   -1    0    0  501    0  0.00000000000E+00 -0.00000000000E+00 -0.87217357193E+02  0.87217357193E+02  0.00000000000E+00 0. -1.
         23    2    1    2    0    0  0.00000000000E+00  0.00000000000E+00 -0.62611667215E+02  0.11182304717E+03  0.92650812232E+02 0.  0.
        -11    1    3    3    0    0 -0.10050048415E+02 -0.28153385487E+02  0.11406986267E+02  0.31995873534E+02  0.00000000000E+00 0.  1.
         11    1    3    3    0    0  0.10050048415E+02  0.28153385487E+02 -0.74018653482E+02  0.79827173637E+02  0.00000000000E+00 0. -1.
<mgrwt>
<rscale>  0 0.92650812E+02</rscale>
<asrwt>0</asrwt>
<pdfrwt beam="2">  1        1 0.13418055E-01 0.92650812E+02</pdfrwt>
<pdfrwt beam="1">  1       -1 0.37854908E-02 0.92650812E+02</pdfrwt>
<totfact> 0.97745473E+04</totfact>
</mgrwt>
</event>
<event>
 5    1  0.1227473E+001  0.9030014E+02  0.7546771E-02  0.1302126E+00
          3   -1    0    0  501    0  0.00000000000E+00  0.00000000000E+00  0.54247894592E+02  0.54247894592E+02  0.00000000000E+00 0. -1.
         -3   -1    0    0    0  501 -0.00000000000E+00 -0.00000000000E+00 -0.37578027695E+02  0.37578027695E+02  0.00000000000E+00 0.  1.
         23    2    1    2    0    0  0.00000000000E+00  0.00000000000E+00  0.16669866898E+02  0.91825922287E+02  0.90300141425E+02 0.  0.
        -11    1    3    3    0    0  0.27259931225E+02  0.25174302750E+02 -0.17822836360E+02  0.41164339728E+02  0.00000000000E+00 0.  1.
         11    1    3    3    0    0 -0.27259931225E+02 -0.25174302750E+02  0.34492703258E+02  0.50661582559E+02  0.00000000000E+00 0. -1.
<mgrwt>
<rscale>  0 0.90300141E+02</rscale>
<asrwt>0</asrwt>
<pdfrwt beam="1">  1        3 0.83458300E-02 0.90300141E+02</pdfrwt>
<pdfrwt beam="2">  1       -3 0.57812350E-02 0.90300141E+02</pdfrwt>
<totfact> 0.36228398E+04</totfact>
</mgrwt>
</event>
<event>
 5    1  0.1227473E+001  0.9068169E+02  0.7546771E-02  0.1301209E+00
         -1   -1    0    0    0  501 -0.00000000000E+00  0.00000000000E+00  0.33858846319E+02  0.33858846319E+02  0.00000000000E+00 0.  1.
          1   -1    0    0  501    0  0.00000000000E+00 -0.00000000000E+00 -0.60716542764E+02  0.60716542764E+02  0.00000000000E+00 0. -1.
         23    2    1    2    0    0  0.00000000000E+00  0.00000000000E+00 -0.26857696445E+02  0.94575389083E+02  0.90681687026E+02 0.  0.
        -11    1    3    3    0    0  0.28962133936E+02 -0.24713291052E+02  0.12250316163E+02  0.39995277257E+02  0.00000000000E+00 0.  1.
         11    1    3    3    0    0 -0.28962133936E+02  0.24713291052E+02 -0.39108012608E+02  0.54580111826E+02  0.00000000000E+00 0. -1.
<mgrwt>
<rscale>  0 0.90681687E+02</rscale>
<asrwt>0</asrwt>
<pdfrwt beam="2">  1        1 0.93410064E-02 0.90681687E+02</pdfrwt>
<pdfrwt beam="1">  1       -1 0.52090534E-02 0.90681687E+02</pdfrwt>
<totfact> 0.98012095E+04</totfact>
</mgrwt>
</event>
<event>
 5    1  0.1227473E+001  0.9034717E+02  0.7546771E-02  0.1302013E+00
          1   -1    0    0  501    0  0.00000000000E+00  0.00000000000E+00  0.61477516744E+02  0.61477516744E+02  0.00000000000E+00 0. -1.
         -1   -1    0    0    0  501 -0.00000000000E+00 -0.00000000000E+00 -0.33193481785E+02  0.33193481785E+02  0.00000000000E+00 0.  1.
         23    2    1    2    0    0  0.00000000000E+00  0.00000000000E+00  0.28284034960E+02  0.94670998529E+02  0.90347171117E+02 0.  0.
        -13    1    3    3    0    0  0.31953927554E+02  0.40130617822E+01  0.47336043988E+02  0.57252591307E+02  0.00000000000E+00 0. -1.
         13    1    3    3    0    0 -0.31953927554E+02 -0.40130617822E+01 -0.19052009028E+02  0.37418407222E+02  0.00000000000E+00 0.  1.
<mgrwt>
<rscale>  0 0.90347171E+02</rscale>
<asrwt>0</asrwt>
<pdfrwt beam="1">  1        1 0.94580795E-02 0.90347171E+02</pdfrwt>
<pdfrwt beam="2">  1       -1 0.51066895E-02 0.90347171E+02</pdfrwt>
<totfact> 0.99205373E+04</totfact>
</mgrwt>
</event>
<event>
 5    1  0.1227473E+001  0.9523120E+02  0.7546771E-02  0.1290656E+00
          1   -1    0    0  501    0  0.00000000000E+00  0.00000000000E+00  0.96160359988E+02  0.96160359988E+02  0.00000000000E+00 0. -1.
         -1   -1    0    0    0  501 -0.00000000000E+00 -0.00000000000E+00 -0.23577754601E+02  0.23577754601E+02  0.00000000000E+00 0.  1.
         23    2    1    2    0    0  0.00000000000E+00  0.00000000000E+00  0.72582605387E+02  0.11973811459E+03  0.95231200141E+02 0.  0.
        -13    1    3    3    0    0  0.22965688446E+02  0.13384406547E+02 -0.13380522242E+02  0.29759092054E+02  0.00000000000E+00 0.  1.
         13    1    3    3    0    0 -0.22965688446E+02 -0.13384406547E+02  0.85963127629E+02  0.89979022534E+02  0.00000000000E+00 0. -1.
<mgrwt>
<rscale>  0 0.95231200E+02</rscale>
<asrwt>0</asrwt>
<pdfrwt beam="1">  1        1 0.14793901E-01 0.95231200E+02</pdfrwt>
<pdfrwt beam="2">  1       -1 0.36273469E-02 0.95231200E+02</pdfrwt>
<totfact> 0.92118055E+04</totfact>
</mgrwt>
</event>
<event>
 5    1  0.1227473E+001  0.9209706E+02  0.7546771E-02  0.1297851E+00
         -2   -1    0    0    0  501 -0.00000000000E+00  0.00000000000E+00  0.16154963690E+02  0.16154963690E+02  0.00000000000E+00 0.  1.
          2   -1    0    0  501    0  0.00000000000E+00 -0.00000000000E+00 -0.13125793248E+03  0.13125793248E+03  0.00000000000E+00 0. -1.
         23    2    1    2    0    0  0.00000000000E+00  0.00000000000E+00 -0.11510296879E+03  0.14741289617E+03  0.92097060392E+02 0.  0.
        -11    1    3    3    0    0 -0.43021772898E+02 -0.16184474135E+02 -0.53122351994E+02  0.70248091986E+02  0.00000000000E+00 0. -1.
         11    1    3    3    0    0  0.43021772898E+02  0.16184474135E+02 -0.61980616795E+02  0.77164804183E+02  0.00000000000E+00 0.  1.
<mgrwt>
<rscale>  0 0.92097060E+02</rscale>
<asrwt>0</asrwt>
<pdfrwt beam="2">  1        2 0.20193528E-01 0.92097060E+02</pdfrwt>
<pdfrwt beam="1">  1       -2 0.24853791E-02 0.92097060E+02</pdfrwt>
<totfact> 0.13008742E+05</totfact>
</mgrwt>
</event>
<event>
 5    1  0.1227473E+001  0.1022909E+03  0.7546771E-02  0.1275551E+00
          3   -1    0    0  501    0  0.00000000000E+00  0.00000000000E+00  0.16310425721E+03  0.16310425721E+03  0.00000000000E+00 0. -1.
         -3   -1    0    0    0  501 -0.00000000000E+00 -0.00000000000E+00 -0.16037952507E+02  0.16037952507E+02  0.00000000000E+00 0.  1.
         23    2    1    2    0    0  0.00000000000E+00  0.00000000000E+00  0.14706630471E+03  0.17914220972E+03  0.10229092493E+03 0.  0.
        -11    1    3    3    0    0 -0.26641486885E+02  0.40494362544E+02  0.44954402168E+02  0.66109458442E+02  0.00000000000E+00 0.  1.
         11    1    3    3    0    0  0.26641486885E+02 -0.40494362544E+02  0.10211190254E+03  0.11303275128E+03  0.00000000000E+00 0. -1.
<mgrwt>
<rscale>  0 0.10229092E+03</rscale>
<asrwt>0</asrwt>
<pdfrwt beam="1">  1        3 0.25092962E-01 0.10229092E+03</pdfrwt>
<pdfrwt beam="2">  1       -3 0.24673774E-02 0.10229092E+03</pdfrwt>
<totfact> 0.21650732E+04</totfact>
</mgrwt>
</event>
<event>
 5    1  0.1227473E+001  0.9347495E+02  0.7546771E-02  0.1294648E+00
          1   -1    0    0  501    0  0.00000000000E+00  0.00000000000E+00  0.35105761064E+02  0.35105761064E+02  0.00000000000E+00 0. -1.
         -1   -1    0    0    0  501 -0.00000000000E+00 -0.00000000000E+00 -0.62223167705E+02  0.62223167705E+02  0.00000000000E+00 0.  1.
         23    2    1    2    0    0  0.00000000000E+00  0.00000000000E+00 -0.27117406641E+02  0.97328928769E+02  0.93474951899E+02 0.  0.
        -13    1    3    3    0    0  0.88267812350E+01  0.39233604343E+02 -0.38356682449E+02  0.55573580640E+02  0.00000000000E+00 0.  1.
         13    1    3    3    0    0 -0.88267812350E+01 -0.39233604343E+02  0.11239275807E+02  0.41755348129E+02  0.00000000000E+00 0. -1.
<mgrwt>
<rscale>  0 0.93474952E+02</rscale>
<asrwt>0</asrwt>
<pdfrwt beam="1">  1        1 0.54008864E-02 0.93474952E+02</pdfrwt>
<pdfrwt beam="2">  1       -1 0.95727949E-02 0.93474952E+02</pdfrwt>
<totfact> 0.82771701E+04</totfact>
</mgrwt>
</event>
<event>
 5    1  0.1227473E+001  0.9270544E+02  0.7546771E-02  0.1296429E+00
         -1   -1    0    0    0  501 -0.00000000000E+00  0.00000000000E+00  0.79963151564E+01  0.79963151564E+01  0.00000000000E+00 0.  1.
          1   -1    0    0  501    0  0.00000000000E+00 -0.00000000000E+00 -0.26869558279E+03  0.26869558279E+03  0.00000000000E+00 0. -1.
         23    2    1    2    0    0  0.00000000000E+00  0.00000000000E+00 -0.26069926763E+03  0.27669189794E+03  0.92705438052E+02 0.  0.
        -13    1    3    3    0    0 -0.41691087373E+02  0.19390770931E+02 -0.11283773509E+03  0.12184622778E+03  0.00000000000E+00 0.  1.
         13    1    3    3    0    0  0.41691087373E+02 -0.19390770931E+02 -0.14786153254E+03  0.15484567016E+03  0.00000000000E+00 0. -1.
<mgrwt>
<rscale>  0 0.92705438E+02</rscale>
<asrwt>0</asrwt>
<pdfrwt beam="2">  1        1 0.41337782E-01 0.92705438E+02</pdfrwt>
<pdfrwt beam="1">  1       -1 0.12302023E-02 0.92705438E+02</pdfrwt>
<totfact> 0.11997239E+05</totfact>
</mgrwt>
</event>
<event>
 5    1  0.1227473E+001  0.8940294E+02  0.7546771E-02  0.1304304E+00
         -3   -1    0    0    0  501 -0.00000000000E+00  0.00000000000E+00  0.70112233534E+02  0.70112233534E+02  0.00000000000E+00 0.  1.
          3   -1    0    0  501    0  0.00000000000E+00 -0.00000000000E+00 -0.28500323422E+02  0.28500323422E+02  0.00000000000E+00 0. -1.
         23    2    1    2    0    0  0.00000000000E+00  0.00000000000E+00  0.41611910112E+02  0.98612556956E+02  0.89402938018E+02 0.  0.
        -13    1    3    3    0    0  0.12430718435E+02 -0.31057562272E+02 -0.11898437643E+02  0.35505883364E+02  0.00000000000E+00 0. -1.
         13    1    3    3    0    0 -0.12430718435E+02  0.31057562272E+02  0.53510347754E+02  0.63106673592E+02  0.00000000000E+00 0.  1.
<mgrwt>
<rscale>  0 0.89402938E+02</rscale>
<asrwt>0</asrwt>
<pdfrwt beam="2">  1        3 0.43846651E-02 0.89402938E+02</pdfrwt>
<pdfrwt beam="1">  1       -3 0.10786497E-01 0.89402938E+02</pdfrwt>
<totfact> 0.36681157E+04</totfact>
</mgrwt>
</event>
<event>
 5    1  0.1227473E+001  0.9178136E+02  0.7546771E-02  0.1298594E+00
         -1   -1    0    0    0  501 -0.00000000000E+00  0.00000000000E+00  0.33446950539E+02  0.33446950539E+02  0.00000000000E+00 0.  1.
          1   -1    0    0  501    0  0.00000000000E+00 -0.00000000000E+00 -0.62964026050E+02  0.62964026050E+02  0.00000000000E+00 0. -1.
         23    2    1    2    0    0  0.00000000000E+00  0.00000000000E+00 -0.29517075511E+02  0.96410976589E+02  0.91781363359E+02 0.  0.
        -13    1    3    3    0    0 -0.66486972238E+01 -0.41521452940E+02 -0.34062629018E+02  0.54115607034E+02  0.00000000000E+00 0. -1.
         13    1    3    3    0    0  0.66486972238E+01  0.41521452940E+02  0.45455535073E+01  0.42295369554E+02  0.00000000000E+00 0.  1.
<mgrwt>
<rscale>  0 0.91781363E+02</rscale>
<asrwt>0</asrwt>
<pdfrwt beam="2">  1        1 0.96867731E-02 0.91781363E+02</pdfrwt>
<pdfrwt beam="1">  1       -1 0.51456848E-02 0.91781363E+02</pdfrwt>
<totfact> 0.95316273E+04</totfact>
</mgrwt>
</event>
<event>
 5    1  0.1227473E+001  0.9224376E+02  0.7546771E-02  0.1297507E+00
         -1   -1    0    0    0  501 -0.00000000000E+00  0.00000000000E+00  0.24873782703E+03  0.24873782703E+03  0.00000000000E+00 0.  1.
          1   -1    0    0  501    0  0.00000000000E+00 -0.00000000000E+00 -0.85520885907E+01  0.85520885907E+01  0.00000000000E+00 0. -1.
         23    2    1    2    0    0  0.00000000000E+00  0.00000000000E+00  0.24018573844E+03  0.25728991562E+03  0.92243762556E+02 0.  0.
        -13    1    3    3    0    0  0.43195941719E+02  0.33794049646E+01  0.16418739483E+03  0.16980815758E+03  0.00000000000E+00 0.  1.
         13    1    3    3    0    0 -0.43195941719E+02 -0.33794049646E+01  0.75998343610E+02  0.87481758044E+02  0.00000000000E+00 0. -1.
<mgrwt>
<rscale>  0 0.92243763E+02</rscale>
<asrwt>0</asrwt>
<pdfrwt beam="2">  1        1 0.13157061E-02 0.92243763E+02</pdfrwt>
<pdfrwt beam="1">  1       -1 0.38267353E-01 0.92243763E+02</pdfrwt>
<totfact> 0.62932718E+04</totfact>
</mgrwt>
</event>
<event>
 5    1  0.1227473E+001  0.9125526E+02  0.7546771E-02  0.1299840E+00
          1   -1    0    0  501    0  0.00000000000E+00  0.00000000000E+00  0.50002130338E+02  0.50002130338E+02  0.00000000000E+00 0. -1.
         -1   -1    0    0    0  501 -0.00000000000E+00 -0.00000000000E+00 -0.41635838796E+02  0.41635838796E+02  0.00000000000E+00 0.  1.
         23    2    1    2    0    0  0.00000000000E+00  0.00000000000E+00  0.83662915420E+01  0.91637969134E+02  0.91255260412E+02 0.  0.
        -13    1    3    3    0    0  0.15437639567E+01  0.45440953977E+02  0.34387589139E+00  0.45468469912E+02  0.00000000000E+00 0.  1.
         13    1    3    3    0    0 -0.15437639567E+01 -0.45440953977E+02  0.80224156506E+01  0.46169499222E+02  0.00000000000E+00 0. -1.
<mgrwt>
<rscale>  0 0.91255260E+02</rscale>
<asrwt>0</asrwt>
<pdfrwt beam="1">  1        1 0.76926355E-02 0.91255260E+02</pdfrwt>
<pdfrwt beam="2">  1       -1 0.64055136E-02 0.91255260E+02</pdfrwt>
<totfact> 0.93539196E+04</totfact>
</mgrwt>
</event>
<event>
 5    1  0.1227473E+001  0.9046948E+02  0.7546771E-02  0.1301719E+00
         -2   -1    0    0    0  501 -0.00000000000E+00  0.00000000000E+00  0.77363545264E+01  0.77363545264E+01  0.00000000000E+00 0.  1.
          2   -1    0    0  501    0  0.00000000000E+00 -0.00000000000E+00 -0.26448916230E+03  0.26448916230E+03  0.00000000000E+00 0. -1.
         23    2    1    2    0    0  0.00000000000E+00  0.00000000000E+00 -0.25675280777E+03  0.27222551682E+03  0.90469484975E+02 0.  0.
        -13    1    3    3    0    0  0.41112379953E+02 -0.48155028691E+01 -0.73486106677E+02  0.84342306868E+02  0.00000000000E+00 0.  1.
         13    1    3    3    0    0 -0.41112379953E+02  0.48155028691E+01 -0.18326670109E+03  0.18788320996E+03  0.00000000000E+00 0. -1.
<mgrwt>
<rscale>  0 0.90469485E+02</rscale>
<asrwt>0</asrwt>
<pdfrwt beam="2">  1        2 0.40690641E-01 0.90469485E+02</pdfrwt>
<pdfrwt beam="1">  1       -2 0.11902084E-02 0.90469485E+02</pdfrwt>
<totfact> 0.17501791E+05</totfact>
</mgrwt>
</event>
<event>
 5    1  0.1227473E+001  0.9364929E+02  0.7546771E-02  0.1294248E+00
          3   -1    0    0  501    0  0.00000000000E+00  0.00000000000E+00  0.20734613437E+02  0.20734613437E+02  0.00000000000E+00 0.  1.
         -3   -1    0    0    0  501 -0.00000000000E+00 -0.00000000000E+00 -0.10574333682E+03  0.10574333682E+03  0.00000000000E+00 0. -1.
         23    2    1    2    0    0  0.00000000000E+00  0.00000000000E+00 -0.85008723387E+02  0.12647795026E+03  0.93649286437E+02 0.  0.
        -13    1    3    3    0    0  0.12480742817E+02 -0.33262288091E+02 -0.13093303125E+01  0.35550852257E+02  0.00000000000E+00 0.  1.
         13    1    3    3    0    0 -0.12480742817E+02  0.33262288091E+02 -0.83699393075E+02  0.90927098004E+02  0.00000000000E+00 0. -1.
<mgrwt>
<rscale>  0 0.93649286E+02</rscale>
<asrwt>0</asrwt>
<pdfrwt beam="1">  1        3 0.31899405E-02 0.93649286E+02</pdfrwt>
<pdfrwt beam="2">  1       -3 0.16268206E-01 0.93649286E+02</pdfrwt>
<totfact> 0.30505429E+04</totfact>
</mgrwt>
</event>
<event>
 5    1  0.1227473E+001  0.9480355E+02  0.7546771E-02  0.1291619E+00
         -3   -1    0    0    0  501 -0.00000000000E+00  0.00000000000E+00  0.29090611685E+02  0.29090611685E+02  0.00000000000E+00 0.  1.
          3   -1    0    0  501    0  0.00000000000E+00 -0.00000000000E+00 -0.77238953920E+02  0.77238953920E+02  0.00000000000E+00 0. -1.
         23    2    1    2    0    0  0.00000000000E+00  0.00000000000E+00 -0.48148342235E+02  0.10632956560E+03  0.94803553001E+02 0.  0.
        -11    1    3    3    0    0 -0.91952830654E+01 -0.36282207641E+02 -0.56696022082E+02  0.67936667138E+02  0.00000000000E+00 0. -1.
         11    1    3    3    0    0  0.91952830654E+01  0.36282207641E+02  0.85476798461E+01  0.38392898467E+02  0.00000000000E+00 0.  1.
<mgrwt>
<rscale>  0 0.94803553E+02</rscale>
<asrwt>0</asrwt>
<pdfrwt beam="2">  1        3 0.11882916E-01 0.94803553E+02</pdfrwt>
<pdfrwt beam="1">  1       -3 0.44754787E-02 0.94803553E+02</pdfrwt>
<totfact> 0.30752372E+04</totfact>
</mgrwt>
</event>
<event>
 5    1  0.1227473E+001  0.9098937E+02  0.7546771E-02  0.1300473E+00
         -1   -1    0    0    0  501 -0.00000000000E+00  0.00000000000E+00  0.14779702494E+02  0.14779702494E+02  0.00000000000E+00 0.  1.
          1   -1    0    0  501    0  0.00000000000E+00 -0.00000000000E+00 -0.14004114328E+03  0.14004114328E+03  0.00000000000E+00 0. -1.
         23    2    1    2    0    0  0.00000000000E+00  0.00000000000E+00 -0.12526144078E+03  0.15482084577E+03  0.90989371569E+02 0.  0.
        -13    1    3    3    0    0  0.33042478996E+02 -0.19744241965E+02 -0.21366472646E+02  0.44024614278E+02  0.00000000000E+00 0.  1.
         13    1    3    3    0    0 -0.33042478996E+02  0.19744241965E+02 -0.10389496814E+03  0.11079623150E+03  0.00000000000E+00 0. -1.
<mgrwt>
<rscale>  0 0.90989372E+02</rscale>
<asrwt>0</asrwt>
<pdfrwt beam="2">  1        1 0.21544791E-01 0.90989372E+02</pdfrwt>
<pdfrwt beam="1">  1       -1 0.22738004E-02 0.90989372E+02</pdfrwt>
<totfact> 0.11135370E+05</totfact>
</mgrwt>
</event>
<event>
 5    1  0.1227473E+001  0.8492858E+02  0.7546771E-02  0.1315619E+00
          3   -1    0    0  501    0  0.00000000000E+00  0.00000000000E+00  0.21537262384E+02  0.21537262384E+02  0.00000000000E+00 0. -1.
         -3   -1    0    0    0  501 -0.00000000000E+00 -0.00000000000E+00 -0.83725393335E+02  0.83725393335E+02  0.00000000000E+00 0.  1.
         23    2    1    2    0    0  0.00000000000E+00  0.00000000000E+00 -0.62188130951E+02  0.10526265572E+03  0.84928576215E+02 0.  0.
        -13    1    3    3    0    0  0.33288938286E+02 -0.20388545065E+02 -0.51810262781E+02  0.64870251360E+02  0.00000000000E+00 0. -1.
         13    1    3    3    0    0 -0.33288938286E+02  0.20388545065E+02 -0.10377868170E+02  0.40392404359E+02  0.00000000000E+00 0.  1.
<mgrwt>
<rscale>  0 0.84928576E+02</rscale>
<asrwt>0</asrwt>
<pdfrwt beam="1">  1        3 0.33134250E-02 0.84928576E+02</pdfrwt>
<pdfrwt beam="2">  1       -3 0.12880830E-01 0.84928576E+02</pdfrwt>
<totfact> 0.41545470E+04</totfact>
</mgrwt>
</event>
<event>
 5    1  0.1227473E+001  0.7519156E+02  0.7546771E-02  0.1343279E+00
          1   -1    0    0  501    0  0.00000000000E+00  0.00000000000E+00  0.65295352204E+02  0.65295352204E+02  0.00000000000E+00 0. -1.
         -1   -1    0    0    0  501 -0.00000000000E+00 -0.00000000000E+00 -0.21646912036E+02  0.21646912036E+02  0.00000000000E+00 0.  1.
         23    2    1    2    0    0  0.00000000000E+00  0.00000000000E+00  0.43648440168E+02  0.86942264239E+02  0.75191561907E+02 0.  0.
        -13    1    3    3    0    0 -0.14591479146E+02 -0.93401619094E+01  0.60404604572E+02  0.62840004310E+02  0.00000000000E+00 0. -1.
         13    1    3    3    0    0  0.14591479146E+02  0.93401619094E+01 -0.16756164404E+02  0.24102259929E+02  0.00000000000E+00 0.  1.
<mgrwt>
<rscale>  0 0.75191562E+02</rscale>
<asrwt>0</asrwt>
<pdfrwt beam="1">  1        1 0.10045439E-01 0.75191562E+02</pdfrwt>
<pdfrwt beam="2">  1       -1 0.33302942E-02 0.75191562E+02</pdfrwt>
<totfact> 0.16508917E+05</totfact>
</mgrwt>
</event>
<event>
 5    1  0.1227473E+001  0.9354153E+02  0.7546771E-02  0.1294495E+00
         -3   -1    0    0    0  501 -0.00000000000E+00  0.00000000000E+00  0.18094495293E+02  0.18094495293E+02  0.00000000000E+00 0.  1.
          3   -1    0    0  501    0  0.00000000000E+00 -0.00000000000E+00 -0.12089337948E+03  0.12089337948E+03  0.00000000000E+00 0. -1.
         23    2    1    2    0    0  0.00000000000E+00  0.00000000000E+00 -0.10279888419E+03  0.13898787478E+03  0.93541534859E+02 0.  0.
        -13    1    3    3    0    0 -0.38243170994E+02 -0.15622242222E+01 -0.11460315295E+02  0.39953967248E+02  0.00000000000E+00 0.  1.
         13    1    3    3    0    0  0.38243170994E+02  0.15622242222E+01 -0.91338568896E+02  0.99033907527E+02  0.00000000000E+00 0. -1.
<mgrwt>
<rscale>  0 0.93541535E+02</rscale>
<asrwt>0</asrwt>
<pdfrwt beam="2">  1        3 0.18598982E-01 0.93541535E+02</pdfrwt>
<pdfrwt beam="1">  1       -3 0.27837685E-02 0.93541535E+02</pdfrwt>
<totfact> 0.29843114E+04</totfact>
</mgrwt>
</event>
<event>
 5    1  0.1227473E+001  0.9377325E+02  0.7546771E-02  0.1293963E+00
          2   -1    0    0  501    0  0.00000000000E+00  0.00000000000E+00  0.96027371291E+01  0.96027371291E+01  0.00000000000E+00 0. -1.
         -2   -1    0    0    0  501 -0.00000000000E+00 -0.00000000000E+00 -0.22893010212E+03  0.22893010212E+03  0.00000000000E+00 0.  1.
         23    2    1    2    0    0  0.00000000000E+00  0.00000000000E+00 -0.21932736499E+03  0.23853283925E+03  0.93773249739E+02 0.  0.
        -13    1    3    3    0    0  0.19144128556E+02 -0.27155906800E+02 -0.19381485307E+03  0.19664215775E+03  0.00000000000E+00 0.  1.
         13    1    3    3    0    0 -0.19144128556E+02  0.27155906800E+02 -0.25512511921E+02  0.41890681503E+02  0.00000000000E+00 0. -1.
<mgrwt>
<rscale>  0 0.93773250E+02</rscale>
<asrwt>0</asrwt>
<pdfrwt beam="1">  1        2 0.14773443E-02 0.93773250E+02</pdfrwt>
<pdfrwt beam="2">  1       -2 0.35220014E-01 0.93773250E+02</pdfrwt>
<totfact> 0.54554213E+04</totfact>
</mgrwt>
</event>
<event>
 5    1  0.1227473E+001  0.8922763E+02  0.7546771E-02  0.1304733E+00
         -1   -1    0    0    0  501 -0.00000000000E+00  0.00000000000E+00  0.16220203787E+02  0.16220203787E+02  0.00000000000E+00 0.  1.
          1   -1    0    0  501    0  0.00000000000E+00 -0.00000000000E+00 -0.12271069462E+03  0.12271069462E+03  0.00000000000E+00 0. -1.
         23    2    1    2    0    0  0.00000000000E+00  0.00000000000E+00 -0.10649049084E+03  0.13893089841E+03  0.89227629659E+02 0.  0.
        -13    1    3    3    0    0  0.27753014131E+02 -0.34841580948E+02 -0.49359842705E+02  0.66487289223E+02  0.00000000000E+00 0.  1.
         13    1    3    3    0    0 -0.27753014131E+02  0.34841580948E+02 -0.57130648130E+02  0.72443609187E+02  0.00000000000E+00 0. -1.
<mgrwt>
<rscale>  0 0.89227630E+02</rscale>
<asrwt>0</asrwt>
<pdfrwt beam="2">  1        1 0.18878568E-01 0.89227630E+02</pdfrwt>
<pdfrwt beam="1">  1       -1 0.24954160E-02 0.89227630E+02</pdfrwt>
<totfact> 0.11467021E+05</totfact>
</mgrwt>
</event>
<event>
 5    1  0.1227473E+001  0.9078938E+02  0.7546771E-02  0.1300951E+00
          1   -1    0    0  501    0  0.00000000000E+00  0.00000000000E+00  0.23236675665E+03  0.23236675665E+03  0.00000000000E+00 0. -1.
         -1   -1    0    0    0  501 -0.00000000000E+00 -0.00000000000E+00 -0.88682122036E+01  0.88682122036E+01  0.00000000000E+00 0.  1.
         23    2    1    2    0    0  0.00000000000E+00  0.00000000000E+00  0.22349854444E+03  0.24123496885E+03  0.90789376185E+02 0.  0.
        -11    1    3    3    0    0  0.12739599412E+01 -0.44913184842E+02  0.94558010613E+02  0.10469018348E+03  0.00000000000E+00 0. -1.
         11    1    3    3    0    0 -0.12739599412E+01  0.44913184842E+02  0.12894053383E+03  0.13654478537E+03  0.00000000000E+00 0.  1.
<mgrwt>
<rscale>  0 0.90789376E+02</rscale>
<asrwt>0</asrwt>
<pdfrwt beam="1">  1        1 0.35748727E-01 0.90789376E+02</pdfrwt>
<pdfrwt beam="2">  1       -1 0.13643405E-02 0.90789376E+02</pdfrwt>
<totfact> 0.12331442E+05</totfact>
</mgrwt>
</event>
<event>
 5    1  0.1227473E+001  0.9090825E+02  0.7546771E-02  0.1300667E+00
         -1   -1    0    0    0  501 -0.00000000000E+00  0.00000000000E+00  0.48740121239E+02  0.48740121239E+02  0.00000000000E+00 0.  1.
          1   -1    0    0  501    0  0.00000000000E+00 -0.00000000000E+00 -0.42389670710E+02  0.42389670710E+02  0.00000000000E+00 0. -1.
         23    2    1    2    0    0  0.00000000000E+00  0.00000000000E+00  0.63504505288E+01  0.91129791949E+02  0.90908254624E+02 0.  0.
        -11    1    3    3    0    0  0.21844220781E+02 -0.39009624861E+02  0.11390125679E+02  0.46137357708E+02  0.00000000000E+00 0.  1.
         11    1    3    3    0    0 -0.21844220781E+02  0.39009624861E+02 -0.50396751501E+01  0.44992434241E+02  0.00000000000E+00 0. -1.
<mgrwt>
<rscale>  0 0.90908255E+02</rscale>
<asrwt>0</asrwt>
<pdfrwt beam="2">  1        1 0.65214878E-02 0.90908255E+02</pdfrwt>
<pdfrwt beam="1">  1       -1 0.74984801E-02 0.90908255E+02</pdfrwt>
<totfact> 0.92227241E+04</totfact>
</mgrwt>
</event>
<event>
 5    1  0.1227473E+001  0.9042295E+02  0.7546771E-02  0.1301831E+00
         -2   -1    0    0    0  501 -0.00000000000E+00  0.00000000000E+00  0.17941863961E+02  0.17941863961E+02  0.00000000000E+00 0. -1.
          2   -1    0    0  501    0  0.00000000000E+00 -0.00000000000E+00 -0.11392783083E+03  0.11392783083E+03  0.00000000000E+00 0.  1.
         23    2    1    2    0    0  0.00000000000E+00  0.00000000000E+00 -0.95985966866E+02  0.13186969479E+03  0.90422953769E+02 0.  0.
        -13    1    3    3    0    0 -0.42203097394E+02  0.47366097229E+01 -0.70611318500E+02  0.82398393199E+02  0.00000000000E+00 0. -1.
         13    1    3    3    0    0  0.42203097394E+02 -0.47366097229E+01 -0.25374648365E+02  0.49471301590E+02  0.00000000000E+00 0.  1.
<mgrwt>
<rscale>  0 0.90422954E+02</rscale>
<asrwt>0</asrwt>
<pdfrwt beam="2">  1        2 0.17527359E-01 0.90422954E+02</pdfrwt>
<pdfrwt beam="1">  1       -2 0.27602868E-02 0.90422954E+02</pdfrwt>
<totfact> 0.13067266E+05</totfact>
</mgrwt>
</event>
<event>
 5    1  0.1227473E+001  0.8066700E+02  0.7546771E-02  0.1327169E+00
         -1   -1    0    0    0  501 -0.00000000000E+00  0.00000000000E+00  0.96332570225E+02  0.96332570225E+02  0.00000000000E+00 0.  1.
          1   -1    0    0  501    0  0.00000000000E+00 -0.00000000000E+00 -0.16887239802E+02  0.16887239802E+02  0.00000000000E+00 0. -1.
         23    2    1    2    0    0  0.00000000000E+00  0.00000000000E+00  0.79445330423E+02  0.11321981003E+03  0.80666999798E+02 0.  0.
        -11    1    3    3    0    0  0.36793763973E+02  0.16188492575E+02  0.44365592040E+02  0.59867805339E+02  0.00000000000E+00 0.  1.
         11    1    3    3    0    0 -0.36793763973E+02 -0.16188492575E+02  0.35079738384E+02  0.53352004688E+02  0.00000000000E+00 0. -1.
<mgrwt>
<rscale>  0 0.80667000E+02</rscale>
<asrwt>0</asrwt>
<pdfrwt beam="2">  1        1 0.25980369E-02 0.80667000E+02</pdfrwt>
<pdfrwt beam="1">  1       -1 0.14820395E-01 0.80667000E+02</pdfrwt>
<totfact> 0.11218094E+05</totfact>
</mgrwt>
</event>
<event>
 5    1  0.1227473E+001  0.8955223E+02  0.7546771E-02  0.1303940E+00
          4   -1    0    0  501    0  0.00000000000E+00  0.00000000000E+00  0.91430688195E+02  0.91430688195E+02  0.00000000000E+00 0. -1.
         -4   -1    0    0    0  501 -0.00000000000E+00 -0.00000000000E+00 -0.21928089617E+02  0.21928089617E+02  0.00000000000E+00 0.  1.
         23    2    1    2    0    0  0.00000000000E+00  0.00000000000E+00  0.69502598578E+02  0.11335877781E+03  0.89552226651E+02 0.  0.
        -13    1    3    3    0    0  0.55409036532E+01 -0.22661349701E+02 -0.13627337076E+02  0.27017451755E+02  0.00000000000E+00 0.  1.
         13    1    3    3    0    0 -0.55409036532E+01  0.22661349701E+02  0.83129935653E+02  0.86341326057E+02  0.00000000000E+00 0. -1.
<mgrwt>
<rscale>  0 0.89552227E+02</rscale>
<asrwt>0</asrwt>
<pdfrwt beam="1">  1        4 0.14066260E-01 0.89552227E+02</pdfrwt>
<pdfrwt beam="2">  1       -4 0.33735523E-02 0.89552227E+02</pdfrwt>
<totfact> 0.26929204E+04</totfact>
</mgrwt>
</event>
<event>
 5    1  0.1227473E+001  0.9201457E+02  0.7546771E-02  0.1298045E+00
         -4   -1    0    0    0  501 -0.00000000000E+00  0.00000000000E+00  0.79238123027E+02  0.79238123027E+02  0.00000000000E+00 0.  1.
          4   -1    0    0  501    0  0.00000000000E+00 -0.00000000000E+00 -0.26712773807E+02  0.26712773807E+02  0.00000000000E+00 0. -1.
         23    2    1    2    0    0  0.00000000000E+00  0.00000000000E+00  0.52525349220E+02  0.10595089683E+03  0.92014565310E+02 0.  0.
        -11    1    3    3    0    0 -0.41516313784E+02 -0.19111048184E+01  0.35403103067E+01  0.41710795113E+02  0.00000000000E+00 0. -1.
         11    1    3    3    0    0  0.41516313784E+02  0.19111048184E+01  0.48985038914E+02  0.64240101722E+02  0.00000000000E+00 0.  1.
<mgrwt>
<rscale>  0 0.92014565E+02</rscale>
<asrwt>0</asrwt>
<pdfrwt beam="2">  1        4 0.41096575E-02 0.92014565E+02</pdfrwt>
<pdfrwt beam="1">  1       -4 0.12190480E-01 0.92014565E+02</pdfrwt>
<totfact> 0.25454977E+04</totfact>
</mgrwt>
</event>
<event>
 5    1  0.1227473E+001  0.8990890E+02  0.7546771E-02  0.1303072E+00
          1   -1    0    0  501    0  0.00000000000E+00  0.00000000000E+00  0.16297662679E+03  0.16297662679E+03  0.00000000000E+00 0. -1.
         -1   -1    0    0    0  501 -0.00000000000E+00 -0.00000000000E+00 -0.12399954365E+02  0.12399954365E+02  0.00000000000E+00 0.  1.
         23    2    1    2    0    0  0.00000000000E+00  0.00000000000E+00  0.15057667243E+03  0.17537658116E+03  0.89908903558E+02 0.  0.
        -13    1    3    3    0    0 -0.34373917726E+02 -0.13061408272E+01  0.13174239125E+03  0.13615920782E+03  0.00000000000E+00 0. -1.
         13    1    3    3    0    0  0.34373917726E+02  0.13061408272E+01  0.18834281184E+02  0.39217373336E+02  0.00000000000E+00 0.  1.
<mgrwt>
<rscale>  0 0.89908904E+02</rscale>
<asrwt>0</asrwt>
<pdfrwt beam="1">  1        1 0.25073326E-01 0.89908904E+02</pdfrwt>
<pdfrwt beam="2">  1       -1 0.19076854E-02 0.89908904E+02</pdfrwt>
<totfact> 0.11824001E+05</totfact>
</mgrwt>
</event>
<event>
 5    1  0.1227473E+001  0.9334144E+02  0.7546771E-02  0.1294956E+00
          1   -1    0    0  501    0  0.00000000000E+00  0.00000000000E+00  0.39316901365E+02  0.39316901365E+02  0.00000000000E+00 0.  1.
         -1   -1    0    0    0  501 -0.00000000000E+00 -0.00000000000E+00 -0.55399992296E+02  0.55399992296E+02  0.00000000000E+00 0. -1.
         23    2    1    2    0    0  0.00000000000E+00  0.00000000000E+00 -0.16083090930E+02  0.94716893661E+02  0.93341438445E+02 0.  0.
        -13    1    3    3    0    0  0.44891164201E+01  0.11835516009E+02  0.37541717089E+02  0.39618330699E+02  0.00000000000E+00 0.  1.
         13    1    3    3    0    0 -0.44891164201E+01 -0.11835516009E+02 -0.53624808019E+02  0.55098562962E+02  0.00000000000E+00 0. -1.
<mgrwt>
<rscale>  0 0.93341438E+02</rscale>
<asrwt>0</asrwt>
<pdfrwt beam="1">  1        1 0.60487541E-02 0.93341438E+02</pdfrwt>
<pdfrwt beam="2">  1       -1 0.85230757E-02 0.93341438E+02</pdfrwt>
<totfact> 0.84605781E+04</totfact>
</mgrwt>
</event>
<event>
 5    1  0.1227473E+001  0.9158212E+02  0.7546771E-02  0.1299065E+00
         -4   -1    0    0    0  501 -0.00000000000E+00  0.00000000000E+00  0.75619761110E+02  0.75619761110E+02  0.00000000000E+00 0.  1.
          4   -1    0    0  501    0  0.00000000000E+00 -0.00000000000E+00 -0.27728482132E+02  0.27728482132E+02  0.00000000000E+00 0. -1.
         23    2    1    2    0    0  0.00000000000E+00  0.00000000000E+00  0.47891278978E+02  0.10334824324E+03  0.91582120412E+02 0.  0.
        -13    1    3    3    0    0  0.16070977924E+02 -0.20343192906E+02 -0.18648909059E+02  0.31935930207E+02  0.00000000000E+00 0. -1.
         13    1    3    3    0    0 -0.16070977924E+02  0.20343192906E+02  0.66540188037E+02  0.71412313036E+02  0.00000000000E+00 0.  1.
<mgrwt>
<rscale>  0 0.91582120E+02</rscale>
<asrwt>0</asrwt>
<pdfrwt beam="2">  1        4 0.42659203E-02 0.91582120E+02</pdfrwt>
<pdfrwt beam="1">  1       -4 0.11633809E-01 0.91582120E+02</pdfrwt>
<totfact> 0.25938450E+04</totfact>
</mgrwt>
</event>
<event>
 5    1  0.1227473E+001  0.9055117E+02  0.7546771E-02  0.1301522E+00
         -4   -1    0    0    0  501 -0.00000000000E+00  0.00000000000E+00  0.30134766677E+03  0.30134766677E+03  0.00000000000E+00 0.  1.
          4   -1    0    0  501    0  0.00000000000E+00 -0.00000000000E+00 -0.68023705531E+01  0.68023705531E+01  0.00000000000E+00 0. -1.
         23    2    1    2    0    0  0.00000000000E+00  0.00000000000E+00  0.29454529622E+03  0.30815003732E+03  0.90551167738E+02 0.  0.
        -11    1    3    3    0    0  0.30776208677E+02 -0.28840178276E+02  0.20328848341E+03  0.20761776993E+03  0.00000000000E+00 0.  1.
         11    1    3    3    0    0 -0.30776208677E+02  0.28840178276E+02  0.91256812809E+02  0.10053226740E+03  0.00000000000E+00 0. -1.
<mgrwt>
<rscale>  0 0.90551168E+02</rscale>
<asrwt>0</asrwt>
<pdfrwt beam="2">  1        4 0.10465188E-02 0.90551168E+02</pdfrwt>
<pdfrwt beam="1">  1       -4 0.46361169E-01 0.90551168E+02</pdfrwt>
<totfact> 0.17898386E+04</totfact>
</mgrwt>
</event>
<event>
 5    1  0.1227473E+001  0.9204709E+02  0.7546771E-02  0.1297969E+00
         -1   -1    0    0    0  501 -0.00000000000E+00  0.00000000000E+00  0.16421213367E+02  0.16421213367E+02  0.00000000000E+00 0. -1.
          1   -1    0    0  501    0  0.00000000000E+00 -0.00000000000E+00 -0.12898965353E+03  0.12898965353E+03  0.00000000000E+00 0.  1.
         23    2    1    2    0    0  0.00000000000E+00  0.00000000000E+00 -0.11256844016E+03  0.14541086689E+03  0.92047088442E+02 0.  0.
        -13    1    3    3    0    0 -0.23566360624E+02 -0.10104680360E+02  0.40919615115E+01  0.25965786474E+02  0.00000000000E+00 0. -1.
         13    1    3    3    0    0  0.23566360624E+02  0.10104680360E+02 -0.11666040167E+03  0.11944508042E+03  0.00000000000E+00 0.  1.
<mgrwt>
<rscale>  0 0.92047088E+02</rscale>
<asrwt>0</asrwt>
<pdfrwt beam="2">  1        1 0.19844563E-01 0.92047088E+02</pdfrwt>
<pdfrwt beam="1">  1       -1 0.25263404E-02 0.92047088E+02</pdfrwt>
<totfact> 0.10634139E+05</totfact>
</mgrwt>
</event>
<event>
 5    1  0.1227473E+001  0.8962218E+02  0.7546771E-02  0.1303769E+00
         -1   -1    0    0    0  501 -0.00000000000E+00  0.00000000000E+00  0.19736763444E+03  0.19736763444E+03  0.00000000000E+00 0.  1.
          1   -1    0    0  501    0  0.00000000000E+00 -0.00000000000E+00 -0.10174077609E+02  0.10174077609E+02  0.00000000000E+00 0. -1.
         23    2    1    2    0    0  0.00000000000E+00  0.00000000000E+00  0.18719355683E+03  0.20754171205E+03  0.89622176505E+02 0.  0.
        -11    1    3    3    0    0  0.35442291083E+02  0.91472006016E+01  0.33735607321E+02  0.49778695015E+02  0.00000000000E+00 0. -1.
         11    1    3    3    0    0 -0.35442291083E+02 -0.91472006016E+01  0.15345794951E+03  0.15776301704E+03  0.00000000000E+00 0.  1.
<mgrwt>
<rscale>  0 0.89622177E+02</rscale>
<asrwt>0</asrwt>
<pdfrwt beam="2">  1        1 0.15652429E-02 0.89622177E+02</pdfrwt>
<pdfrwt beam="1">  1       -1 0.30364249E-01 0.89622177E+02</pdfrwt>
<totfact> 0.72876165E+04</totfact>
</mgrwt>
</event>
<event>
 5    1  0.1227473E+001  0.9091047E+02  0.7546771E-02  0.1300662E+00
          1   -1    0    0  501    0  0.00000000000E+00  0.00000000000E+00  0.44862676980E+03  0.44862676980E+03  0.00000000000E+00 0. -1.
         -1   -1    0    0    0  501 -0.00000000000E+00 -0.00000000000E+00 -0.46055622126E+01  0.46055622126E+01  0.00000000000E+00 0.  1.
         23    2    1    2    0    0  0.00000000000E+00  0.00000000000E+00  0.44402120758E+03  0.45323233201E+03  0.90910472412E+02 0.  0.
        -11    1    3    3    0    0 -0.42049531659E+02  0.16735351353E+02  0.20089228466E+03  0.20592703837E+03  0.00000000000E+00 0.  1.
         11    1    3    3    0    0  0.42049531659E+02 -0.16735351353E+02  0.24312892293E+03  0.24730529364E+03  0.00000000000E+00 0. -1.
<mgrwt>
<rscale>  0 0.90910472E+02</rscale>
<asrwt>0</asrwt>
<pdfrwt beam="1">  1        1 0.69019469E-01 0.90910472E+02</pdfrwt>
<pdfrwt beam="2">  1       -1 0.70854839E-03 0.90910472E+02</pdfrwt>
<totfact> 0.13836687E+05</totfact>
</mgrwt>
</event>
<event>
 5    1  0.1227473E+001  0.8915826E+02  0.7546771E-02  0.1304903E+00
          1   -1    0    0  501    0  0.00000000000E+00  0.00000000000E+00  0.37358100302E+02  0.37358100302E+02  0.00000000000E+00 0. -1.
         -1   -1    0    0    0  501 -0.00000000000E+00 -0.00000000000E+00 -0.53195929560E+02  0.53195929560E+02  0.00000000000E+00 0.  1.
         23    2    1    2    0    0  0.00000000000E+00  0.00000000000E+00 -0.15837829258E+02  0.90554029862E+02  0.89158260911E+02 0.  0.
        -13    1    3    3    0    0 -0.41358520290E+02  0.12094639942E+02  0.36831977036E+01  0.43247814525E+02  0.00000000000E+00 0. -1.
         13    1    3    3    0    0  0.41358520290E+02 -0.12094639942E+02 -0.19521026962E+02  0.47306215337E+02  0.00000000000E+00 0.  1.
<mgrwt>
<rscale>  0 0.89158261E+02</rscale>
<asrwt>0</asrwt>
<pdfrwt beam="1">  1        1 0.57474001E-02 0.89158261E+02</pdfrwt>
<pdfrwt beam="2">  1       -1 0.81839891E-02 0.89158261E+02</pdfrwt>
<totfact> 0.95584438E+04</totfact>
</mgrwt>
</event>
<event>
 5    1  0.1227473E+001  0.9186788E+02  0.7546771E-02  0.1298390E+00
         -2   -1    0    0    0  501 -0.00000000000E+00  0.00000000000E+00  0.45805337715E+01  0.45805337715E+01  0.00000000000E+00 0.  1.
          2   -1    0    0  501    0  0.00000000000E+00 -0.00000000000E+00 -0.46062908236E+03  0.46062908236E+03  0.00000000000E+00 0. -1.
         23    2    1    2    0    0  0.00000000000E+00  0.00000000000E+00 -0.45604854859E+03  0.46520961613E+03  0.91867884876E+02 0.  0.
        -13    1    3    3    0    0 -0.18570307247E+02 -0.41214031748E+02 -0.18673740096E+03  0.19213097003E+03  0.00000000000E+00 0.  1.
         13    1    3    3    0    0  0.18570307247E+02  0.41214031748E+02 -0.26931114762E+03  0.27307864610E+03  0.00000000000E+00 0. -1.
<mgrwt>
<rscale>  0 0.91867885E+02</rscale>
<asrwt>0</asrwt>
<pdfrwt beam="2">  1        2 0.70866039E-01 0.91867885E+02</pdfrwt>
<pdfrwt beam="1">  1       -2 0.70469724E-03 0.91867885E+02</pdfrwt>
<totfact> 0.20554579E+05</totfact>
</mgrwt>
</event>
<event>
 5    1  0.1227473E+001  0.9312682E+02  0.7546771E-02  0.1295452E+00
          1   -1    0    0  501    0  0.00000000000E+00  0.00000000000E+00  0.78492255715E+02  0.78492255715E+02  0.00000000000E+00 0. -1.
         -1   -1    0    0    0  501 -0.00000000000E+00 -0.00000000000E+00 -0.27622487353E+02  0.27622487353E+02  0.00000000000E+00 0.  1.
         23    2    1    2    0    0  0.00000000000E+00  0.00000000000E+00  0.50869768363E+02  0.10611474307E+03  0.93126824080E+02 0.  0.
        -13    1    3    3    0    0  0.31129649003E+02 -0.30628960703E+02  0.70275688344E+01  0.44233188948E+02  0.00000000000E+00 0.  1.
         13    1    3    3    0    0 -0.31129649003E+02  0.30628960703E+02  0.43842199528E+02  0.61881554120E+02  0.00000000000E+00 0. -1.
<mgrwt>
<rscale>  0 0.93126824E+02</rscale>
<asrwt>0</asrwt>
<pdfrwt beam="1">  1        1 0.12075732E-01 0.93126824E+02</pdfrwt>
<pdfrwt beam="2">  1       -1 0.42496135E-02 0.93126824E+02</pdfrwt>
<totfact> 0.94758024E+04</totfact>
</mgrwt>
</event>
<event>
 5    1  0.1227473E+001  0.9116762E+02  0.7546771E-02  0.1300049E+00
         -1   -1    0    0    0  501 -0.00000000000E+00  0.00000000000E+00  0.88028569004E+01  0.88028569004E+01  0.00000000000E+00 0.  1.
          1   -1    0    0  501    0  0.00000000000E+00 -0.00000000000E+00 -0.23604653501E+03  0.23604653501E+03  0.00000000000E+00 0. -1.
         23    2    1    2    0    0  0.00000000000E+00  0.00000000000E+00 -0.22724367810E+03  0.24484939191E+03  0.91167622970E+02 0.  0.
        -11    1    3    3    0    0  0.28630548859E+02  0.18602005309E+02 -0.19473463517E+03  0.19770513667E+03  0.00000000000E+00 0. -1.
         11    1    3    3    0    0 -0.28630548859E+02 -0.18602005309E+02 -0.32509042934E+02  0.47144255239E+02  0.00000000000E+00 0.  1.
<mgrwt>
<rscale>  0 0.91167623E+02</rscale>
<asrwt>0</asrwt>
<pdfrwt beam="2">  1        1 0.36314850E-01 0.91167623E+02</pdfrwt>
<pdfrwt beam="1">  1       -1 0.13542857E-02 0.91167623E+02</pdfrwt>
<totfact> 0.12232593E+05</totfact>
</mgrwt>
</event>
<event>
 5    1  0.1227473E+001  0.9299561E+02  0.7546771E-02  0.1295755E+00
          2   -1    0    0  501    0  0.00000000000E+00  0.00000000000E+00  0.14451887792E+03  0.14451887792E+03  0.00000000000E+00 0. -1.
         -2   -1    0    0    0  501 -0.00000000000E+00 -0.00000000000E+00 -0.14960299113E+02  0.14960299113E+02  0.00000000000E+00 0.  1.
         23    2    1    2    0    0  0.00000000000E+00  0.00000000000E+00  0.12955857881E+03  0.15947917704E+03  0.92995605084E+02 0.  0.
        -13    1    3    3    0    0 -0.31297531609E+02  0.32446876339E+02  0.45248089990E+02  0.63872724357E+02  0.00000000000E+00 0. -1.
         13    1    3    3    0    0  0.31297531609E+02 -0.32446876339E+02  0.84310488820E+02  0.95606452680E+02  0.00000000000E+00 0.  1.
<mgrwt>
<rscale>  0 0.92995605E+02</rscale>
<asrwt>0</asrwt>
<pdfrwt beam="1">  1        2 0.22233673E-01 0.92995605E+02</pdfrwt>
<pdfrwt beam="2">  1       -2 0.23015846E-02 0.92995605E+02</pdfrwt>
<totfact> 0.13082915E+05</totfact>
</mgrwt>
</event>
<event>
 5    1  0.1227473E+001  0.9225095E+02  0.7546771E-02  0.1297490E+00
          1   -1    0    0  501    0  0.00000000000E+00  0.00000000000E+00  0.63401664532E+02  0.63401664532E+02  0.00000000000E+00 0. -1.
         -1   -1    0    0    0  501 -0.00000000000E+00 -0.00000000000E+00 -0.33556836036E+02  0.33556836036E+02  0.00000000000E+00 0.  1.
         23    2    1    2    0    0  0.00000000000E+00  0.00000000000E+00  0.29844828495E+02  0.96958500568E+02  0.92250946035E+02 0.  0.
        -11    1    3    3    0    0 -0.87660972239E+01  0.15168504214E+02  0.59768656869E+02  0.62283387228E+02  0.00000000000E+00 0. -1.
         11    1    3    3    0    0  0.87660972239E+01 -0.15168504214E+02 -0.29923828374E+02  0.34675113340E+02  0.00000000000E+00 0.  1.
<mgrwt>
<rscale>  0 0.92250946E+02</rscale>
<asrwt>0</asrwt>
<pdfrwt beam="1">  1        1 0.97541022E-02 0.92250946E+02</pdfrwt>
<pdfrwt beam="2">  1       -1 0.51625902E-02 0.92250946E+02</pdfrwt>
<totfact> 0.94075858E+04</totfact>
</mgrwt>
</event>
<event>
 5    1  0.1227473E+001  0.9262317E+02  0.7546771E-02  0.1296621E+00
         -1   -1    0    0    0  501 -0.00000000000E+00  0.00000000000E+00  0.56648638612E+01  0.56648638612E+01  0.00000000000E+00 0.  1.
          1   -1    0    0  501    0  0.00000000000E+00 -0.00000000000E+00 -0.37860801572E+03  0.37860801572E+03  0.00000000000E+00 0. -1.
         23    2    1    2    0    0  0.00000000000E+00  0.00000000000E+00 -0.37294315185E+03  0.38427287958E+03  0.92623169149E+02 0.  0.
        -11    1    3    3    0    0 -0.30834784285E+01 -0.43976851315E+02 -0.24533328899E+03  0.24926270074E+03  0.00000000000E+00 0.  1.
         11    1    3    3    0    0  0.30834784285E+01  0.43976851315E+02 -0.12760986286E+03  0.13501017884E+03  0.00000000000E+00 0. -1.
<mgrwt>
<rscale>  0 0.92623169E+02</rscale>
<asrwt>0</asrwt>
<pdfrwt beam="2">  1        1 0.58247385E-01 0.92623169E+02</pdfrwt>
<pdfrwt beam="1">  1       -1 0.87151755E-03 0.92623169E+02</pdfrwt>
<totfact> 0.12817375E+05</totfact>
</mgrwt>
</event>
<event>
 5    1  0.1227473E+001  0.8989993E+02  0.7546771E-02  0.1303094E+00
         -1   -1    0    0    0  501 -0.00000000000E+00  0.00000000000E+00  0.42814080874E+02  0.42814080874E+02  0.00000000000E+00 0.  1.
          1   -1    0    0  501    0  0.00000000000E+00 -0.00000000000E+00 -0.47192401285E+02  0.47192401285E+02  0.00000000000E+00 0. -1.
         23    2    1    2    0    0  0.00000000000E+00  0.00000000000E+00 -0.43783204119E+01  0.90006482159E+02  0.89899928482E+02 0.  0.
        -11    1    3    3    0    0  0.17909661096E+02 -0.40495315236E+02  0.55577605257E+01  0.44626395986E+02  0.00000000000E+00 0.  1.
         11    1    3    3    0    0 -0.17909661096E+02  0.40495315236E+02 -0.99360809377E+01  0.45380086173E+02  0.00000000000E+00 0. -1.
<mgrwt>
<rscale>  0 0.89899928E+02</rscale>
<asrwt>0</asrwt>
<pdfrwt beam="2">  1        1 0.72603694E-02 0.89899928E+02</pdfrwt>
<pdfrwt beam="1">  1       -1 0.65867817E-02 0.89899928E+02</pdfrwt>
<totfact> 0.96694271E+04</totfact>
</mgrwt>
</event>
<event>
 5    1  0.1227473E+001  0.9131159E+02  0.7546771E-02  0.1299706E+00
          1   -1    0    0  501    0  0.00000000000E+00  0.00000000000E+00  0.86321519206E+02  0.86321519206E+02  0.00000000000E+00 0. -1.
         -1   -1    0    0    0  501 -0.00000000000E+00 -0.00000000000E+00 -0.24147530022E+02  0.24147530022E+02  0.00000000000E+00 0.  1.
         23    2    1    2    0    0  0.00000000000E+00  0.00000000000E+00  0.62173989184E+02  0.11046904923E+03  0.91311586922E+02 0.  0.
        -13    1    3    3    0    0  0.18510499891E+02  0.40483213889E+02  0.18813467373E+02  0.48326760368E+02  0.00000000000E+00 0.  1.
         13    1    3    3    0    0 -0.18510499891E+02 -0.40483213889E+02  0.43360521811E+02  0.62142288860E+02  0.00000000000E+00 0. -1.
<mgrwt>
<rscale>  0 0.91311587E+02</rscale>
<asrwt>0</asrwt>
<pdfrwt beam="1">  1        1 0.13280234E-01 0.91311587E+02</pdfrwt>
<pdfrwt beam="2">  1       -1 0.37150047E-02 0.91311587E+02</pdfrwt>
<totfact> 0.10155931E+05</totfact>
</mgrwt>
</event>
<event>
 5    1  0.1227473E+001  0.9219019E+02  0.7546771E-02  0.1297633E+00
          2   -1    0    0  501    0  0.00000000000E+00  0.00000000000E+00  0.11563873348E+03  0.11563873348E+03  0.00000000000E+00 0.  1.
         -2   -1    0    0    0  501 -0.00000000000E+00 -0.00000000000E+00 -0.18374100080E+02  0.18374100080E+02  0.00000000000E+00 0. -1.
         23    2    1    2    0    0  0.00000000000E+00  0.00000000000E+00  0.97264633401E+02  0.13401283356E+03  0.92190187376E+02 0.  0.
        -11    1    3    3    0    0  0.94834507124E+01  0.33738824274E+02  0.92157451419E+02  0.98596348578E+02  0.00000000000E+00 0. -1.
         11    1    3    3    0    0 -0.94834507124E+01 -0.33738824274E+02  0.51071819815E+01  0.35416484983E+02  0.00000000000E+00 0.  1.
<mgrwt>
<rscale>  0 0.92190187E+02</rscale>
<asrwt>0</asrwt>
<pdfrwt beam="1">  1        2 0.17790574E-01 0.92190187E+02</pdfrwt>
<pdfrwt beam="2">  1       -2 0.28267847E-02 0.92190187E+02</pdfrwt>
<totfact> 0.12451010E+05</totfact>
</mgrwt>
</event>
<event>
 5    1  0.1227473E+001  0.9171222E+02  0.7546771E-02  0.1298757E+00
          4   -1    0    0  501    0  0.00000000000E+00  0.00000000000E+00  0.11485999059E+02  0.11485999059E+02  0.00000000000E+00 0. -1.
         -4   -1    0    0    0  501 -0.00000000000E+00 -0.00000000000E+00 -0.18307357688E+03  0.18307357688E+03  0.00000000000E+00 0.  1.
         23    2    1    2    0    0  0.00000000000E+00  0.00000000000E+00 -0.17158757782E+03  0.19455957594E+03  0.91712222342E+02 0.  0.
        -13    1    3    3    0    0 -0.33214164149E+02 -0.25749571844E+02 -0.46875136629E+02  0.62956330772E+02  0.00000000000E+00 0. -1.
         13    1    3    3    0    0  0.33214164149E+02  0.25749571844E+02 -0.12471244120E+03  0.13160324517E+03  0.00000000000E+00 0.  1.
<mgrwt>
<rscale>  0 0.91712222E+02</rscale>
<asrwt>0</asrwt>
<pdfrwt beam="1">  1        4 0.17670767E-02 0.91712222E+02</pdfrwt>
<pdfrwt beam="2">  1       -4 0.28165166E-01 0.91712222E+02</pdfrwt>
<totfact> 0.21278566E+04</totfact>
</mgrwt>
</event>
<event>
 4    1  0.1227473E+001  0.1862848E+03  0.7546771E-02  0.1161856E+00
          4   -1    0    0  501    0  0.00000000000E+00  0.00000000000E+00  0.47000800697E+02  0.47000800697E+02  0.00000000000E+00 0. -1.
         -4   -1    0    0    0  501 -0.00000000000E+00 -0.00000000000E+00 -0.18458207476E+03  0.18458207476E+03  0.00000000000E+00 0.  1.
        -11    1    1    2    0    0  0.29837408777E+02 -0.45893426461E+02 -0.16247477220E+03  0.17144832795E+03  0.00000000000E+00 0.  1.
         11    1    1    2    0    0 -0.29837408777E+02  0.45893426461E+02  0.24893498136E+02  0.60134547510E+02  0.00000000000E+00 0. -1.
<mgrwt>
<rscale>  0 0.18628479E+03</rscale>
<asrwt>0</asrwt>
<pdfrwt beam="1">  1        4 0.72308927E-02 0.18628479E+03</pdfrwt>
<pdfrwt beam="2">  1       -4 0.28397241E-01 0.18628479E+03</pdfrwt>
<totfact> 0.27085641E+03</totfact>
</mgrwt>
</event>
<event>
 5    1  0.1227473E+001  0.9284010E+02  0.7546771E-02  0.1296116E+00
          1   -1    0    0  501    0  0.00000000000E+00  0.00000000000E+00  0.23459225779E+03  0.23459225779E+03  0.00000000000E+00 0.  1.
         -1   -1    0    0    0  501 -0.00000000000E+00 -0.00000000000E+00 -0.91853878446E+01  0.91853878446E+01  0.00000000000E+00 0. -1.
         23    2    1    2    0    0  0.00000000000E+00  0.00000000000E+00  0.22540686994E+03  0.24377764563E+03  0.92840096362E+02 0.  0.
        -11    1    3    3    0    0 -0.44571905628E+02  0.12535242346E+02  0.10398133876E+03  0.11382401276E+03  0.00000000000E+00 0.  1.
         11    1    3    3    0    0  0.44571905628E+02 -0.12535242346E+02  0.12142553119E+03  0.12995363287E+03  0.00000000000E+00 0. -1.
<mgrwt>
<rscale>  0 0.92840096E+02</rscale>
<asrwt>0</asrwt>
<pdfrwt beam="1">  1        1 0.36091112E-01 0.92840096E+02</pdfrwt>
<pdfrwt beam="2">  1       -1 0.14131368E-02 0.92840096E+02</pdfrwt>
<totfact> 0.11637123E+05</totfact>
</mgrwt>
</event>
<event>
 5    1  0.1227473E+001  0.9220793E+02  0.7546771E-02  0.1297591E+00
          2   -1    0    0  501    0  0.00000000000E+00  0.00000000000E+00  0.52065456216E+03  0.52065456216E+03  0.00000000000E+00 0.  1.
         -2   -1    0    0    0  501 -0.00000000000E+00 -0.00000000000E+00 -0.40825060451E+01  0.40825060451E+01  0.00000000000E+00 0. -1.
         23    2    1    2    0    0  0.00000000000E+00  0.00000000000E+00  0.51657205611E+03  0.52473706820E+03  0.92207925851E+02 0.  0.
        -13    1    3    3    0    0  0.19018302905E+02 -0.41964232587E+02  0.26794822496E+03  0.27188038531E+03  0.00000000000E+00 0.  1.
         13    1    3    3    0    0 -0.19018302905E+02  0.41964232587E+02  0.24862383116E+03  0.25285668289E+03  0.00000000000E+00 0. -1.
<mgrwt>
<rscale>  0 0.92207926E+02</rscale>
<asrwt>0</asrwt>
<pdfrwt beam="1">  1        2 0.80100650E-01 0.92207926E+02</pdfrwt>
<pdfrwt beam="2">  1       -2 0.62807826E-03 0.92207926E+02</pdfrwt>
<totfact> 0.21191046E+05</totfact>
</mgrwt>
</event>
<event>
 5    1  0.1227473E+001  0.9510709E+02  0.7546771E-02  0.1290935E+00
          1   -1    0    0  501    0  0.00000000000E+00  0.00000000000E+00  0.78969816154E+01  0.78969816154E+01  0.00000000000E+00 0. -1.
         -1   -1    0    0    0  501 -0.00000000000E+00 -0.00000000000E+00 -0.28635494057E+03  0.28635494057E+03  0.00000000000E+00 0.  1.
         23    2    1    2    0    0  0.00000000000E+00  0.00000000000E+00 -0.27845795895E+03  0.29425192218E+03  0.95107091242E+02 0.  0.
        -11    1    3    3    0    0 -0.47448680963E+02  0.31112066465E+01 -0.14087419371E+03  0.14868286850E+03  0.00000000000E+00 0.  1.
         11    1    3    3    0    0  0.47448680963E+02 -0.31112066465E+01 -0.13758376524E+03  0.14556905368E+03  0.00000000000E+00 0. -1.
<mgrwt>
<rscale>  0 0.95107091E+02</rscale>
<asrwt>0</asrwt>
<pdfrwt beam="1">  1        1 0.12149205E-02 0.95107091E+02</pdfrwt>
<pdfrwt beam="2">  1       -1 0.44054599E-01 0.95107091E+02</pdfrwt>
<totfact> 0.55229727E+04</totfact>
</mgrwt>
</event>
<event>
 5    1  0.1227473E+001  0.9056124E+02  0.7546771E-02  0.1301498E+00
         -1   -1    0    0    0  501 -0.00000000000E+00  0.00000000000E+00  0.18988218837E+03  0.18988218837E+03  0.00000000000E+00 0.  1.
          1   -1    0    0  501    0  0.00000000000E+00 -0.00000000000E+00 -0.10797929559E+02  0.10797929559E+02  0.00000000000E+00 0. -1.
         23    2    1    2    0    0  0.00000000000E+00  0.00000000000E+00  0.17908425881E+03  0.20068011793E+03  0.90561238830E+02 0.  0.
        -11    1    3    3    0    0 -0.45165505171E+02 -0.29740736586E+01  0.92315643664E+02  0.10281510607E+03  0.00000000000E+00 0.  1.
         11    1    3    3    0    0  0.45165505171E+02  0.29740736586E+01  0.86768615147E+02  0.97865011858E+02  0.00000000000E+00 0. -1.
<mgrwt>
<rscale>  0 0.90561239E+02</rscale>
<asrwt>0</asrwt>
<pdfrwt beam="2">  1        1 0.16612201E-02 0.90561239E+02</pdfrwt>
<pdfrwt beam="1">  1       -1 0.29212642E-01 0.90561239E+02</pdfrwt>
<totfact> 0.71696695E+04</totfact>
</mgrwt>
</event>
<event>
 5    1  0.1227473E+001  0.8996346E+02  0.7546771E-02  0.1302940E+00
         -3   -1    0    0    0  501 -0.00000000000E+00  0.00000000000E+00  0.15663819790E+02  0.15663819790E+02  0.00000000000E+00 0.  1.
          3   -1    0    0  501    0  0.00000000000E+00 -0.00000000000E+00 -0.12917386600E+03  0.12917386600E+03  0.00000000000E+00 0. -1.
         23    2    1    2    0    0  0.00000000000E+00  0.00000000000E+00 -0.11351004621E+03  0.14483768579E+03  0.89963462775E+02 0.  0.
        -11    1    3    3    0    0  0.37535046455E+01 -0.40522585245E+02 -0.25904727760E+02  0.48241306288E+02  0.00000000000E+00 0.  1.
         11    1    3    3    0    0 -0.37535046455E+01  0.40522585245E+02 -0.87605318453E+02  0.96596379504E+02  0.00000000000E+00 0. -1.
<mgrwt>
<rscale>  0 0.89963463E+02</rscale>
<asrwt>0</asrwt>
<pdfrwt beam="2">  1        3 0.19872902E-01 0.89963463E+02</pdfrwt>
<pdfrwt beam="1">  1       -3 0.24098185E-02 0.89963463E+02</pdfrwt>
<totfact> 0.32792285E+04</totfact>
</mgrwt>
</event>
<event>
 5    1  0.1227473E+001  0.9175455E+02  0.7546771E-02  0.1298658E+00
         -3   -1    0    0    0  501 -0.00000000000E+00  0.00000000000E+00  0.45775500488E+02  0.45775500488E+02  0.00000000000E+00 0.  1.
          3   -1    0    0  501    0  0.00000000000E+00 -0.00000000000E+00 -0.45979277743E+02  0.45979277743E+02  0.00000000000E+00 0. -1.
         23    2    1    2    0    0  0.00000000000E+00  0.00000000000E+00 -0.20377725480E+00  0.91754778231E+02  0.91754551947E+02 0.  0.
        -11    1    3    3    0    0  0.58853259230E+01  0.11258067563E+02  0.43981587751E+02  0.45779484571E+02  0.00000000000E+00 0.  1.
         11    1    3    3    0    0 -0.58853259230E+01 -0.11258067563E+02 -0.44185365006E+02  0.45975293660E+02  0.00000000000E+00 0. -1.
<mgrwt>
<rscale>  0 0.91754552E+02</rscale>
<asrwt>0</asrwt>
<pdfrwt beam="2">  1        3 0.70737350E-02 0.91754552E+02</pdfrwt>
<pdfrwt beam="1">  1       -3 0.70423847E-02 0.91754552E+02</pdfrwt>
<totfact> 0.34690682E+04</totfact>
</mgrwt>
</event>
<event>
 5    1  0.1227473E+001  0.9327411E+02  0.7546771E-02  0.1295111E+00
          2   -1    0    0  501    0  0.00000000000E+00  0.00000000000E+00  0.19975963261E+03  0.19975963261E+03  0.00000000000E+00 0. -1.
         -2   -1    0    0    0  501 -0.00000000000E+00 -0.00000000000E+00 -0.10888161254E+02  0.10888161254E+02  0.00000000000E+00 0.  1.
         23    2    1    2    0    0  0.00000000000E+00  0.00000000000E+00  0.18887147136E+03  0.21064779386E+03  0.93274114136E+02 0.  0.
        -11    1    3    3    0    0 -0.51091144754E+01 -0.45308320183E+02  0.72300429882E+02  0.85476892138E+02  0.00000000000E+00 0.  1.
         11    1    3    3    0    0  0.51091144754E+01  0.45308320183E+02  0.11657104147E+03  0.12517090173E+03  0.00000000000E+00 0. -1.
<mgrwt>
<rscale>  0 0.93274114E+02</rscale>
<asrwt>0</asrwt>
<pdfrwt beam="1">  1        2 0.30732248E-01 0.93274114E+02</pdfrwt>
<pdfrwt beam="2">  1       -2 0.16751019E-02 0.93274114E+02</pdfrwt>
<totfact> 0.14541059E+05</totfact>
</mgrwt>
</event>
<event>
 5    1  0.1227473E+001  0.9158556E+02  0.7546771E-02  0.1299057E+00
          3   -1    0    0  501    0  0.00000000000E+00  0.00000000000E+00  0.44499168477E+02  0.44499168477E+02  0.00000000000E+00 0. -1.
         -3   -1    0    0    0  501 -0.00000000000E+00 -0.00000000000E+00 -0.47123998722E+02  0.47123998722E+02  0.00000000000E+00 0.  1.
         23    2    1    2    0    0  0.00000000000E+00  0.00000000000E+00 -0.26248302453E+01  0.91623167199E+02  0.91585561273E+02 0.  0.
        -11    1    3    3    0    0  0.21746481805E+02  0.23189410605E+01  0.38937073993E+02  0.44658511951E+02  0.00000000000E+00 0. -1.
         11    1    3    3    0    0 -0.21746481805E+02 -0.23189410605E+01 -0.41561904239E+02  0.46964655247E+02  0.00000000000E+00 0.  1.
<mgrwt>
<rscale>  0 0.91585561E+02</rscale>
<asrwt>0</asrwt>
<pdfrwt beam="1">  1        3 0.68460259E-02 0.91585561E+02</pdfrwt>
<pdfrwt beam="2">  1       -3 0.72498459E-02 0.91585561E+02</pdfrwt>
<totfact> 0.34875836E+04</totfact>
</mgrwt>
</event>
<event>
 4    1  0.1227473E+001  0.5212539E+02  0.7546771E-02  0.1434204E+00
         -3   -1    0    0    0  501 -0.00000000000E+00  0.00000000000E+00  0.24826014640E+02  0.24826014640E+02  0.00000000000E+00 0. -1.
          3   -1    0    0  501    0  0.00000000000E+00 -0.00000000000E+00 -0.27360975029E+02  0.27360975029E+02  0.00000000000E+00 0.  1.
        -13    1    1    2    0    0  0.74666434682E+01  0.24048567799E+02  0.54620399659E+01  0.25766611311E+02  0.00000000000E+00 0. -1.
         13    1    1    2    0    0 -0.74666434682E+01 -0.24048567799E+02 -0.79970003556E+01  0.26420378358E+02  0.00000000000E+00 0.  1.
<mgrwt>
<rscale>  0 0.52125386E+02</rscale>
<asrwt>0</asrwt>
<pdfrwt beam="2">  1        3 0.42093808E-02 0.52125386E+02</pdfrwt>
<pdfrwt beam="1">  1       -3 0.38193868E-02 0.52125386E+02</pdfrwt>
<totfact> 0.16915113E+05</totfact>
</mgrwt>
</event>
<event>
 5    1  0.1227473E+001  0.9157259E+02  0.7546771E-02  0.1299088E+00
         -2   -1    0    0    0  501 -0.00000000000E+00  0.00000000000E+00  0.34394394733E+02  0.34394394733E+02  0.00000000000E+00 0. -1.
          2   -1    0    0  501    0  0.00000000000E+00 -0.00000000000E+00 -0.60951353936E+02  0.60951353936E+02  0.00000000000E+00 0.  1.
         23    2    1    2    0    0  0.00000000000E+00  0.00000000000E+00 -0.26556959203E+02  0.95345748669E+02  0.91572592555E+02 0.  0.
        -13    1    3    3    0    0  0.43633694005E+02  0.13314959647E+02 -0.17337509413E+02  0.48803449013E+02  0.00000000000E+00 0. -1.
         13    1    3    3    0    0 -0.43633694005E+02 -0.13314959647E+02 -0.92194497897E+01  0.46542299657E+02  0.00000000000E+00 0.  1.
<mgrwt>
<rscale>  0 0.91572593E+02</rscale>
<asrwt>0</asrwt>
<pdfrwt beam="2">  1        2 0.93771312E-02 0.91572593E+02</pdfrwt>
<pdfrwt beam="1">  1       -2 0.52914454E-02 0.91572593E+02</pdfrwt>
<totfact> 0.10522462E+05</totfact>
</mgrwt>
</event>
<event>
 5    1  0.1227473E+001  0.9146296E+02  0.7546771E-02  0.1299347E+00
          3   -1    0    0  501    0  0.00000000000E+00  0.00000000000E+00  0.70335632334E+02  0.70335632334E+02  0.00000000000E+00 0. -1.
         -3   -1    0    0    0  501 -0.00000000000E+00 -0.00000000000E+00 -0.29734121969E+02  0.29734121969E+02  0.00000000000E+00 0.  1.
         23    2    1    2    0    0  0.00000000000E+00  0.00000000000E+00  0.40601510365E+02  0.10006975430E+03  0.91462960166E+02 0.  0.
        -11    1    3    3    0    0  0.42949790402E+02 -0.12193308180E+02  0.31132194022E+02  0.54429539448E+02  0.00000000000E+00 0.  1.
         11    1    3    3    0    0 -0.42949790402E+02  0.12193308180E+02  0.94693163432E+01  0.45640214854E+02  0.00000000000E+00 0. -1.
<mgrwt>
<rscale>  0 0.91462960E+02</rscale>
<asrwt>0</asrwt>
<pdfrwt beam="1">  1        3 0.10820867E-01 0.91462960E+02</pdfrwt>
<pdfrwt beam="2">  1       -3 0.45744803E-02 0.91462960E+02</pdfrwt>
<totfact> 0.34370912E+04</totfact>
</mgrwt>
</event>
<event>
 5    1  0.1227473E+001  0.9487079E+02  0.7546771E-02  0.1291467E+00
          1   -1    0    0  501    0  0.00000000000E+00  0.00000000000E+00  0.18015212835E+03  0.18015212835E+03  0.00000000000E+00 0. -1.
         -1   -1    0    0    0  501 -0.00000000000E+00 -0.00000000000E+00 -0.12490091588E+02  0.12490091588E+02  0.00000000000E+00 0.  1.
         23    2    1    2    0    0  0.00000000000E+00  0.00000000000E+00  0.16766203676E+03  0.19264221994E+03  0.94870787557E+02 0.  0.
        -13    1    3    3    0    0 -0.21063773421E+02 -0.17389807019E+02  0.16258037642E+03  0.16485892980E+03  0.00000000000E+00 0. -1.
         13    1    3    3    0    0  0.21063773421E+02  0.17389807019E+02  0.50816603411E+01  0.27783290135E+02  0.00000000000E+00 0.  1.
<mgrwt>
<rscale>  0 0.94870788E+02</rscale>
<asrwt>0</asrwt>
<pdfrwt beam="1">  1        1 0.27715710E-01 0.94870788E+02</pdfrwt>
<pdfrwt beam="2">  1       -1 0.19215527E-02 0.94870788E+02</pdfrwt>
<totfact> 0.10426568E+05</totfact>
</mgrwt>
</event>
<event>
 5    1  0.1227473E+001  0.8875930E+02  0.7546771E-02  0.1305884E+00
          3   -1    0    0  501    0  0.00000000000E+00  0.00000000000E+00  0.10697643112E+03  0.10697643112E+03  0.00000000000E+00 0. -1.
         -3   -1    0    0    0  501 -0.00000000000E+00 -0.00000000000E+00 -0.18411097906E+02  0.18411097906E+02  0.00000000000E+00 0.  1.
         23    2    1    2    0    0  0.00000000000E+00  0.00000000000E+00  0.88565333212E+02  0.12538752902E+03  0.88759304795E+02 0.  0.
        -13    1    3    3    0    0 -0.28452963075E+02  0.22915433725E+02  0.86883007843E+01  0.37552293953E+02  0.00000000000E+00 0.  1.
         13    1    3    3    0    0  0.28452963075E+02 -0.22915433725E+02  0.79877032427E+02  0.87835235071E+02  0.00000000000E+00 0. -1.
<mgrwt>
<rscale>  0 0.88759305E+02</rscale>
<asrwt>0</asrwt>
<pdfrwt beam="1">  1        3 0.16457912E-01 0.88759305E+02</pdfrwt>
<pdfrwt beam="2">  1       -3 0.28324767E-02 0.88759305E+02</pdfrwt>
<totfact> 0.35361948E+04</totfact>
</mgrwt>
</event>
<event>
 5    1  0.1227473E+001  0.9144694E+02  0.7546771E-02  0.1299385E+00
          3   -1    0    0  501    0  0.00000000000E+00  0.00000000000E+00  0.52000044998E+02  0.52000044998E+02  0.00000000000E+00 0. -1.
         -3   -1    0    0    0  501 -0.00000000000E+00 -0.00000000000E+00 -0.40204502276E+02  0.40204502276E+02  0.00000000000E+00 0.  1.
         23    2    1    2    0    0  0.00000000000E+00  0.00000000000E+00  0.11795542723E+02  0.92204547274E+02  0.91446944781E+02 0.  0.
        -11    1    3    3    0    0 -0.39586074129E+02 -0.87947019294E+00  0.28952132209E+02  0.49051571761E+02  0.00000000000E+00 0. -1.
         11    1    3    3    0    0  0.39586074129E+02  0.87947019294E+00 -0.17156589487E+02  0.43152975513E+02  0.00000000000E+00 0.  1.
<mgrwt>
<rscale>  0 0.91446945E+02</rscale>
<asrwt>0</asrwt>
<pdfrwt beam="1">  1        3 0.80000069E-02 0.91446945E+02</pdfrwt>
<pdfrwt beam="2">  1       -3 0.61853081E-02 0.91446945E+02</pdfrwt>
<totfact> 0.34976504E+04</totfact>
</mgrwt>
</event>
<event>
 5    1  0.1227473E+001  0.9129040E+02  0.7546771E-02  0.1299757E+00
         -4   -1    0    0    0  501 -0.00000000000E+00  0.00000000000E+00  0.18127579326E+02  0.18127579326E+02  0.00000000000E+00 0.  1.
          4   -1    0    0  501    0  0.00000000000E+00 -0.00000000000E+00 -0.11493449765E+03  0.11493449765E+03  0.00000000000E+00 0. -1.
         23    2    1    2    0    0  0.00000000000E+00  0.00000000000E+00 -0.96806918327E+02  0.13306207698E+03  0.91290398694E+02 0.  0.
        -11    1    3    3    0    0  0.38393451881E+02  0.23736752925E+02 -0.38518427393E+02  0.59339361604E+02  0.00000000000E+00 0.  1.
         11    1    3    3    0    0 -0.38393451881E+02 -0.23736752925E+02 -0.58288490934E+02  0.73722715374E+02  0.00000000000E+00 0. -1.
<mgrwt>
<rscale>  0 0.91290399E+02</rscale>
<asrwt>0</asrwt>
<pdfrwt beam="2">  1        4 0.17682230E-01 0.91290399E+02</pdfrwt>
<pdfrwt beam="1">  1       -4 0.27888584E-02 0.91290399E+02</pdfrwt>
<totfact> 0.24469990E+04</totfact>
</mgrwt>
</event>
<event>
 5    1  0.1227473E+001  0.9821542E+02  0.7546771E-02  0.1284094E+00
          2   -1    0    0  501    0  0.00000000000E+00  0.00000000000E+00  0.15668577482E+02  0.15668577482E+02  0.00000000000E+00 0. -1.
         -2   -1    0    0    0  501 -0.00000000000E+00 -0.00000000000E+00 -0.15391105384E+03  0.15391105384E+03  0.00000000000E+00 0.  1.
         23    2    1    2    0    0  0.00000000000E+00  0.00000000000E+00 -0.13824247636E+03  0.16957963132E+03  0.98215421853E+02 0.  0.
        -13    1    3    3    0    0 -0.47441986956E+02  0.12513696696E+02 -0.65569061234E+02  0.81894056698E+02  0.00000000000E+00 0. -1.
         13    1    3    3    0    0  0.47441986956E+02 -0.12513696696E+02 -0.72673415123E+02  0.87685574623E+02  0.00000000000E+00 0.  1.
<mgrwt>
<rscale>  0 0.98215422E+02</rscale>
<asrwt>0</asrwt>
<pdfrwt beam="1">  1        2 0.24105504E-02 0.98215422E+02</pdfrwt>
<pdfrwt beam="2">  1       -2 0.23678624E-01 0.98215422E+02</pdfrwt>
<totfact> 0.57304990E+04</totfact>
</mgrwt>
</event>
<event>
 5    1  0.1227473E+001  0.9063047E+02  0.7546771E-02  0.1301332E+00
          1   -1    0    0  501    0  0.00000000000E+00  0.00000000000E+00  0.15084541742E+03  0.15084541742E+03  0.00000000000E+00 0. -1.
         -1   -1    0    0    0  501 -0.00000000000E+00 -0.00000000000E+00 -0.13613079582E+02  0.13613079582E+02  0.00000000000E+00 0.  1.
         23    2    1    2    0    0  0.00000000000E+00  0.00000000000E+00  0.13723233784E+03  0.16445849700E+03  0.90630473284E+02 0.  0.
        -13    1    3    3    0    0 -0.95153430848E+01  0.30258943364E+02  0.12734114641E+03  0.13123228633E+03  0.00000000000E+00 0. -1.
         13    1    3    3    0    0  0.95153430848E+01 -0.30258943364E+02  0.98911914300E+01  0.33226210669E+02  0.00000000000E+00 0.  1.
<mgrwt>
<rscale>  0 0.90630473E+02</rscale>
<asrwt>0</asrwt>
<pdfrwt beam="1">  1        1 0.23206986E-01 0.90630473E+02</pdfrwt>
<pdfrwt beam="2">  1       -1 0.20943200E-02 0.90630473E+02</pdfrwt>
<totfact> 0.11408197E+05</totfact>
</mgrwt>
</event>
<event>
 5    1  0.1227473E+001  0.9350344E+02  0.7546771E-02  0.1294583E+00
         -2   -1    0    0    0  501 -0.00000000000E+00  0.00000000000E+00  0.18303560427E+02  0.18303560427E+02  0.00000000000E+00 0.  1.
          2   -1    0    0  501    0  0.00000000000E+00 -0.00000000000E+00 -0.11941519165E+03  0.11941519165E+03  0.00000000000E+00 0. -1.
         23    2    1    2    0    0  0.00000000000E+00  0.00000000000E+00 -0.10111163122E+03  0.13771875207E+03  0.93503436861E+02 0.  0.
        -13    1    3    3    0    0  0.42767670422E+01  0.45001351852E+02 -0.32985304669E+02  0.55959295286E+02  0.00000000000E+00 0.  1.
         13    1    3    3    0    0 -0.42767670422E+01 -0.45001351852E+02 -0.68126326552E+02  0.81759456788E+02  0.00000000000E+00 0. -1.
<mgrwt>
<rscale>  0 0.93503437E+02</rscale>
<asrwt>0</asrwt>
<pdfrwt beam="2">  1        2 0.18371569E-01 0.93503437E+02</pdfrwt>
<pdfrwt beam="1">  1       -2 0.28159323E-02 0.93503437E+02</pdfrwt>
<totfact> 0.12100678E+05</totfact>
</mgrwt>
</event>
<event>
 5    1  0.1227473E+001  0.9075688E+02  0.7546771E-02  0.1301029E+00
         -1   -1    0    0    0  501 -0.00000000000E+00  0.00000000000E+00  0.10633292876E+03  0.10633292876E+03  0.00000000000E+00 0.  1.
          1   -1    0    0  501    0  0.00000000000E+00 -0.00000000000E+00 -0.19365618251E+02  0.19365618251E+02  0.00000000000E+00 0. -1.
         23    2    1    2    0    0  0.00000000000E+00  0.00000000000E+00  0.86967310510E+02  0.12569854701E+03  0.90756881964E+02 0.  0.
        -11    1    3    3    0    0 -0.25797192960E+02 -0.32926166053E+02  0.67852439522E+02  0.79709354060E+02  0.00000000000E+00 0.  1.
         11    1    3    3    0    0  0.25797192960E+02  0.32926166053E+02  0.19114870988E+02  0.45989192953E+02  0.00000000000E+00 0. -1.
<mgrwt>
<rscale>  0 0.90756882E+02</rscale>
<asrwt>0</asrwt>
<pdfrwt beam="2">  1        1 0.29793259E-02 0.90756882E+02</pdfrwt>
<pdfrwt beam="1">  1       -1 0.16358912E-01 0.90756882E+02</pdfrwt>
<totfact> 0.81395774E+04</totfact>
</mgrwt>
</event>
<event>
 5    1  0.1227473E+001  0.8732590E+02  0.7546771E-02  0.1309460E+00
          1   -1    0    0  501    0  0.00000000000E+00  0.00000000000E+00  0.99987127213E+02  0.99987127213E+02  0.00000000000E+00 0. -1.
         -1   -1    0    0    0  501 -0.00000000000E+00 -0.00000000000E+00 -0.19066986477E+02  0.19066986477E+02  0.00000000000E+00 0.  1.
         23    2    1    2    0    0  0.00000000000E+00  0.00000000000E+00  0.80920140736E+02  0.11905411369E+03  0.87325899994E+02 0.  0.
        -11    1    3    3    0    0 -0.31203089656E+02  0.30311143518E+02  0.45571194227E+02  0.63001047362E+02  0.00000000000E+00 0. -1.
         11    1    3    3    0    0  0.31203089656E+02 -0.30311143518E+02  0.35348946510E+02  0.56053066328E+02  0.00000000000E+00 0.  1.
<mgrwt>
<rscale>  0 0.87325900E+02</rscale>
<asrwt>0</asrwt>
<pdfrwt beam="1">  1        1 0.15382635E-01 0.87325900E+02</pdfrwt>
<pdfrwt beam="2">  1       -1 0.29333826E-02 0.87325900E+02</pdfrwt>
<totfact> 0.11743952E+05</totfact>
</mgrwt>
</event>
<event>
 5    1  0.1227473E+001  0.9326783E+02  0.7546771E-02  0.1295126E+00
          1   -1    0    0  501    0  0.00000000000E+00  0.00000000000E+00  0.53835284385E+02  0.53835284385E+02  0.00000000000E+00 0. -1.
         -1   -1    0    0    0  501 -0.00000000000E+00 -0.00000000000E+00 -0.40395849979E+02  0.40395849979E+02  0.00000000000E+00 0.  1.
         23    2    1    2    0    0  0.00000000000E+00  0.00000000000E+00  0.13439434405E+02  0.94231134364E+02  0.93267830930E+02 0.  0.
        -11    1    3    3    0    0  0.33916125277E+01 -0.11450642936E+02  0.52264147508E+02  0.53611205675E+02  0.00000000000E+00 0. -1.
         11    1    3    3    0    0 -0.33916125277E+01  0.11450642936E+02 -0.38824713103E+02  0.40619928689E+02  0.00000000000E+00 0.  1.
<mgrwt>
<rscale>  0 0.93267831E+02</rscale>
<asrwt>0</asrwt>
<pdfrwt beam="1">  1        1 0.82823515E-02 0.93267831E+02</pdfrwt>
<pdfrwt beam="2">  1       -1 0.62147461E-02 0.93267831E+02</pdfrwt>
<totfact> 0.88990449E+04</totfact>
</mgrwt>
</event>
<event>
 5    1  0.1227473E+001  0.9125839E+02  0.7546771E-02  0.1299833E+00
          1   -1    0    0  501    0  0.00000000000E+00  0.00000000000E+00  0.10395740471E+03  0.10395740471E+03  0.00000000000E+00 0. -1.
         -1   -1    0    0    0  501 -0.00000000000E+00 -0.00000000000E+00 -0.20027657856E+02  0.20027657856E+02  0.00000000000E+00 0.  1.
         23    2    1    2    0    0  0.00000000000E+00  0.00000000000E+00  0.83929746856E+02  0.12398506257E+03  0.91258387738E+02 0.  0.
        -11    1    3    3    0    0 -0.30049900006E+02 -0.11833222585E+02 -0.18281268437E+01  0.32347545422E+02  0.00000000000E+00 0.  1.
         11    1    3    3    0    0  0.30049900006E+02  0.11833222585E+02  0.85757873700E+02  0.91637517146E+02  0.00000000000E+00 0. -1.
<mgrwt>
<rscale>  0 0.91258388E+02</rscale>
<asrwt>0</asrwt>
<pdfrwt beam="1">  1        1 0.15993447E-01 0.91258388E+02</pdfrwt>
<pdfrwt beam="2">  1       -1 0.30811782E-02 0.91258388E+02</pdfrwt>
<totfact> 0.10487524E+05</totfact>
</mgrwt>
</event>
<event>
 5    1  0.1227473E+001  0.9078175E+02  0.7546771E-02  0.1300970E+00
          1   -1    0    0  501    0  0.00000000000E+00  0.00000000000E+00  0.19415338615E+03  0.19415338615E+03  0.00000000000E+00 0. -1.
         -1   -1    0    0    0  501 -0.00000000000E+00 -0.00000000000E+00 -0.10611875915E+02  0.10611875915E+02  0.00000000000E+00 0.  1.
         23    2    1    2    0    0  0.00000000000E+00  0.00000000000E+00  0.18354151023E+03  0.20476526207E+03  0.90781752404E+02 0.  0.
        -13    1    3    3    0    0 -0.38954658594E+02  0.21367301679E+02  0.70816376819E+02  0.83600156896E+02  0.00000000000E+00 0.  1.
         13    1    3    3    0    0  0.38954658594E+02 -0.21367301679E+02  0.11272513342E+03  0.12116510517E+03  0.00000000000E+00 0. -1.
<mgrwt>
<rscale>  0 0.90781752E+02</rscale>
<asrwt>0</asrwt>
<pdfrwt beam="1">  1        1 0.29869749E-01 0.90781752E+02</pdfrwt>
<pdfrwt beam="2">  1       -1 0.16325964E-02 0.90781752E+02</pdfrwt>
<totfact> 0.11910696E+05</totfact>
</mgrwt>
</event>
<event>
 5    1  0.1227473E+001  0.7256817E+02  0.7546771E-02  0.1351571E+00
         -4   -1    0    0    0  501 -0.00000000000E+00  0.00000000000E+00  0.94270148667E+02  0.94270148667E+02  0.00000000000E+00 0.  1.
          4   -1    0    0  501    0  0.00000000000E+00 -0.00000000000E+00 -0.13965554671E+02  0.13965554671E+02  0.00000000000E+00 0. -1.
         23    2    1    2    0    0  0.00000000000E+00  0.00000000000E+00  0.80304593996E+02  0.10823570334E+03  0.72568172503E+02 0.  0.
        -11    1    3    3    0    0  0.28411615307E+02  0.17440278617E+02  0.61515281756E+02  0.69967943317E+02  0.00000000000E+00 0. -1.
         11    1    3    3    0    0 -0.28411615307E+02 -0.17440278617E+02  0.18789312240E+02  0.38267760021E+02  0.00000000000E+00 0.  1.
<mgrwt>
<rscale>  0 0.72568173E+02</rscale>
<asrwt>0</asrwt>
<pdfrwt beam="2">  1        4 0.21485469E-02 0.72568173E+02</pdfrwt>
<pdfrwt beam="1">  1       -4 0.14503099E-01 0.72568173E+02</pdfrwt>
<totfact> 0.47637280E+04</totfact>
</mgrwt>
</event>
<event>
 5    1  0.1227473E+001  0.8596811E+02  0.7546771E-02  0.1312920E+00
         -1   -1    0    0    0  501 -0.00000000000E+00  0.00000000000E+00  0.36658376528E+02  0.36658376528E+02  0.00000000000E+00 0.  1.
          1   -1    0    0  501    0  0.00000000000E+00 -0.00000000000E+00 -0.50401281923E+02  0.50401281923E+02  0.00000000000E+00 0. -1.
         23    2    1    2    0    0  0.00000000000E+00  0.00000000000E+00 -0.13742905395E+02  0.87059658451E+02  0.85968114327E+02 0.  0.
        -13    1    3    3    0    0 -0.41677219842E+02  0.10192615048E+02 -0.95023444037E+01  0.43945131749E+02  0.00000000000E+00 0.  1.
         13    1    3    3    0    0  0.41677219842E+02 -0.10192615048E+02 -0.42405609909E+01  0.43114526702E+02  0.00000000000E+00 0. -1.
<mgrwt>
<rscale>  0 0.85968114E+02</rscale>
<asrwt>0</asrwt>
<pdfrwt beam="2">  1        1 0.77540433E-02 0.85968114E+02</pdfrwt>
<pdfrwt beam="1">  1       -1 0.56397503E-02 0.85968114E+02</pdfrwt>
<totfact> 0.11054707E+05</totfact>
</mgrwt>
</event>
<event>
 5    1  0.1227473E+001  0.9078685E+02  0.7546771E-02  0.1300957E+00
          1   -1    0    0  501    0  0.00000000000E+00  0.00000000000E+00  0.14512565860E+03  0.14512565860E+03  0.00000000000E+00 0. -1.
         -1   -1    0    0    0  501 -0.00000000000E+00 -0.00000000000E+00 -0.14198476339E+02  0.14198476339E+02  0.00000000000E+00 0.  1.
         23    2    1    2    0    0  0.00000000000E+00  0.00000000000E+00  0.13092718226E+03  0.15932413494E+03  0.90786854329E+02 0.  0.
        -13    1    3    3    0    0  0.44268895314E+02 -0.97833274202E+01  0.69432455167E+02  0.82923545620E+02  0.00000000000E+00 0.  1.
         13    1    3    3    0    0 -0.44268895314E+02  0.97833274202E+01  0.61494727091E+02  0.76400589316E+02  0.00000000000E+00 0. -1.
<mgrwt>
<rscale>  0 0.90786854E+02</rscale>
<asrwt>0</asrwt>
<pdfrwt beam="1">  1        1 0.22327023E-01 0.90786854E+02</pdfrwt>
<pdfrwt beam="2">  1       -1 0.21843811E-02 0.90786854E+02</pdfrwt>
<totfact> 0.11275284E+05</totfact>
</mgrwt>
</event>
<event>
 5    1  0.1227473E+001  0.9222044E+02  0.7546771E-02  0.1297562E+00
          1   -1    0    0  501    0  0.00000000000E+00  0.00000000000E+00  0.13743744923E+02  0.13743744923E+02  0.00000000000E+00 0. -1.
         -1   -1    0    0    0  501 -0.00000000000E+00 -0.00000000000E+00 -0.15469963281E+03  0.15469963281E+03  0.00000000000E+00 0.  1.
         23    2    1    2    0    0  0.00000000000E+00  0.00000000000E+00 -0.14095588789E+03  0.16844337773E+03  0.92220437929E+02 0.  0.
        -11    1    3    3    0    0  0.22505162558E+02 -0.15307672443E+02 -0.13846179312E+03  0.14111157051E+03  0.00000000000E+00 0.  1.
         11    1    3    3    0    0 -0.22505162558E+02  0.15307672443E+02 -0.24940947668E+01  0.27331807223E+02  0.00000000000E+00 0. -1.
<mgrwt>
<rscale>  0 0.92220438E+02</rscale>
<asrwt>0</asrwt>
<pdfrwt beam="1">  1        1 0.21144223E-02 0.92220438E+02</pdfrwt>
<pdfrwt beam="2">  1       -1 0.23799943E-01 0.92220438E+02</pdfrwt>
<totfact> 0.72080250E+04</totfact>
</mgrwt>
</event>
<event>
 5    1  0.1227473E+001  0.8892656E+02  0.7546771E-02  0.1305472E+00
          3   -1    0    0  501    0  0.00000000000E+00  0.00000000000E+00  0.15592200747E+03  0.15592200747E+03  0.00000000000E+00 0. -1.
         -3   -1    0    0    0  501 -0.00000000000E+00 -0.00000000000E+00 -0.12679309808E+02  0.12679309808E+02  0.00000000000E+00 0.  1.
         23    2    1    2    0    0  0.00000000000E+00  0.00000000000E+00  0.14324269766E+03  0.16860131728E+03  0.88926563828E+02 0.  0.
        -13    1    3    3    0    0 -0.24250730198E+02  0.55434169138E+01  0.14149352810E+03  0.14366365539E+03  0.00000000000E+00 0. -1.
         13    1    3    3    0    0  0.24250730198E+02 -0.55434169138E+01  0.17491695631E+01  0.24937661887E+02  0.00000000000E+00 0.  1.
<mgrwt>
<rscale>  0 0.88926564E+02</rscale>
<asrwt>0</asrwt>
<pdfrwt beam="1">  1        3 0.23988000E-01 0.88926564E+02</pdfrwt>
<pdfrwt beam="2">  1       -3 0.19506632E-02 0.88926564E+02</pdfrwt>
<totfact> 0.32311743E+04</totfact>
</mgrwt>
</event>
<event>
 5    1  0.1227473E+001  0.9176365E+02  0.7546771E-02  0.1298636E+00
         -2   -1    0    0    0  501 -0.00000000000E+00  0.00000000000E+00  0.17911558605E+03  0.17911558605E+03  0.00000000000E+00 0.  1.
          2   -1    0    0  501    0  0.00000000000E+00 -0.00000000000E+00 -0.11752979558E+02  0.11752979558E+02  0.00000000000E+00 0. -1.
         23    2    1    2    0    0  0.00000000000E+00  0.00000000000E+00  0.16736260649E+03  0.19086856561E+03  0.91763649041E+02 0.  0.
        -11    1    3    3    0    0  0.17731924978E+02  0.38682696282E+02  0.11936832144E+03  0.12672635211E+03  0.00000000000E+00 0.  1.
         11    1    3    3    0    0 -0.17731924978E+02 -0.38682696282E+02  0.47994285051E+02  0.64142213500E+02  0.00000000000E+00 0. -1.
<mgrwt>
<rscale>  0 0.91763649E+02</rscale>
<asrwt>0</asrwt>
<pdfrwt beam="2">  1        2 0.18081508E-02 0.91763649E+02</pdfrwt>
<pdfrwt beam="1">  1       -2 0.27556242E-01 0.91763649E+02</pdfrwt>
<totfact> 0.64205448E+04</totfact>
</mgrwt>
</event>
<event>
 5    1  0.1227473E+001  0.9095609E+02  0.7546771E-02  0.1300553E+00
          1   -1    0    0  501    0  0.00000000000E+00  0.00000000000E+00  0.85562178825E+01  0.85562178825E+01  0.00000000000E+00 0. -1.
         -1   -1    0    0    0  501 -0.00000000000E+00 -0.00000000000E+00 -0.24172511058E+03  0.24172511058E+03  0.00000000000E+00 0.  1.
         23    2    1    2    0    0  0.00000000000E+00  0.00000000000E+00 -0.23316889269E+03  0.25028132846E+03  0.90956093007E+02 0.  0.
        -13    1    3    3    0    0  0.29456816419E+02  0.29780762013E+02 -0.67851497814E+02  0.79739723948E+02  0.00000000000E+00 0. -1.
         13    1    3    3    0    0 -0.29456816419E+02 -0.29780762013E+02 -0.16531739488E+03  0.17054160451E+03  0.00000000000E+00 0.  1.
<mgrwt>
<rscale>  0 0.90956093E+02</rscale>
<asrwt>0</asrwt>
<pdfrwt beam="1">  1        1 0.13163413E-02 0.90956093E+02</pdfrwt>
<pdfrwt beam="2">  1       -1 0.37188477E-01 0.90956093E+02</pdfrwt>
<totfact> 0.65913961E+04</totfact>
</mgrwt>
</event>
<event>
 5    1  0.1227473E+001  0.9014887E+02  0.7546771E-02  0.1302492E+00
         -2   -1    0    0    0  501 -0.00000000000E+00  0.00000000000E+00  0.47489525403E+02  0.47489525403E+02  0.00000000000E+00 0. -1.
          2   -1    0    0  501    0  0.00000000000E+00 -0.00000000000E+00 -0.42782169018E+02  0.42782169018E+02  0.00000000000E+00 0.  1.
         23    2    1    2    0    0  0.00000000000E+00  0.00000000000E+00  0.47073563850E+01  0.90271694421E+02  0.90148874699E+02 0.  0.
        -11    1    3    3    0    0  0.13292386389E+02  0.54690618056E+01 -0.40425793569E+02  0.42905045841E+02  0.00000000000E+00 0.  1.
         11    1    3    3    0    0 -0.13292386389E+02 -0.54690618056E+01  0.45133149954E+02  0.47366648580E+02  0.00000000000E+00 0. -1.
<mgrwt>
<rscale>  0 0.90148875E+02</rscale>
<asrwt>0</asrwt>
<pdfrwt beam="2">  1        2 0.65818721E-02 0.90148875E+02</pdfrwt>
<pdfrwt beam="1">  1       -2 0.73060808E-02 0.90148875E+02</pdfrwt>
<totfact> 0.10028155E+05</totfact>
</mgrwt>
</event>
<event>
 5    1  0.1227473E+001  0.8894312E+02  0.7546771E-02  0.1305431E+00
         -2   -1    0    0    0  501 -0.00000000000E+00  0.00000000000E+00  0.20012707870E+02  0.20012707870E+02  0.00000000000E+00 0.  1.
          2   -1    0    0  501    0  0.00000000000E+00 -0.00000000000E+00 -0.98823199059E+02  0.98823199059E+02  0.00000000000E+00 0. -1.
         23    2    1    2    0    0  0.00000000000E+00  0.00000000000E+00 -0.78810491189E+02  0.11883590693E+03  0.88943123704E+02 0.  0.
        -11    1    3    3    0    0 -0.13076537400E+02 -0.40767836813E+02 -0.23332844035E+02  0.48758937227E+02  0.00000000000E+00 0.  1.
         11    1    3    3    0    0  0.13076537400E+02  0.40767836813E+02 -0.55477647154E+02  0.70076969702E+02  0.00000000000E+00 0. -1.
<mgrwt>
<rscale>  0 0.88943124E+02</rscale>
<asrwt>0</asrwt>
<pdfrwt beam="2">  1        2 0.15203569E-01 0.88943124E+02</pdfrwt>
<pdfrwt beam="1">  1       -2 0.30788782E-02 0.88943124E+02</pdfrwt>
<totfact> 0.13085474E+05</totfact>
</mgrwt>
</event>
<event>
 5    1  0.1227473E+001  0.9402869E+02  0.7546771E-02  0.1293379E+00
         -3   -1    0    0    0  501 -0.00000000000E+00  0.00000000000E+00  0.15918139719E+03  0.15918139719E+03  0.00000000000E+00 0.  1.
          3   -1    0    0  501    0  0.00000000000E+00 -0.00000000000E+00 -0.13885722322E+02  0.13885722322E+02  0.00000000000E+00 0. -1.
         23    2    1    2    0    0  0.00000000000E+00  0.00000000000E+00  0.14529567487E+03  0.17306711951E+03  0.94028690943E+02 0.  0.
        -13    1    3    3    0    0 -0.14064349517E+02 -0.44845717832E+02  0.70466659597E+02  0.84702387510E+02  0.00000000000E+00 0. -1.
         13    1    3    3    0    0  0.14064349517E+02  0.44845717832E+02  0.74829015272E+02  0.88364732001E+02  0.00000000000E+00 0.  1.
<mgrwt>
<rscale>  0 0.94028691E+02</rscale>
<asrwt>0</asrwt>
<pdfrwt beam="2">  1        3 0.21362651E-02 0.94028691E+02</pdfrwt>
<pdfrwt beam="1">  1       -3 0.24489444E-01 0.94028691E+02</pdfrwt>
<totfact> 0.27552541E+04</totfact>
</mgrwt>
</event>
<event>
 5    1  0.1227473E+001  0.9012501E+02  0.7546771E-02  0.1302549E+00
          2   -1    0    0  501    0  0.00000000000E+00  0.00000000000E+00  0.44305476928E+02  0.44305476928E+02  0.00000000000E+00 0. -1.
         -2   -1    0    0    0  501 -0.00000000000E+00 -0.00000000000E+00 -0.45832463283E+02  0.45832463283E+02  0.00000000000E+00 0.  1.
         23    2    1    2    0    0  0.00000000000E+00  0.00000000000E+00 -0.15269863544E+01  0.90137940211E+02  0.90125005288E+02 0.  0.
        -11    1    3    3    0    0  0.18083793600E+02 -0.33371799057E+02 -0.25055424531E+02  0.45480488803E+02  0.00000000000E+00 0.  1.
         11    1    3    3    0    0 -0.18083793600E+02  0.33371799057E+02  0.23528438176E+02  0.44657451409E+02  0.00000000000E+00 0. -1.
<mgrwt>
<rscale>  0 0.90125005E+02</rscale>
<asrwt>0</asrwt>
<pdfrwt beam="1">  1        2 0.68162273E-02 0.90125005E+02</pdfrwt>
<pdfrwt beam="2">  1       -2 0.70511481E-02 0.90125005E+02</pdfrwt>
<totfact> 0.10126329E+05</totfact>
</mgrwt>
</event>
<event>
 5    1  0.1227473E+001  0.9017653E+02  0.7546771E-02  0.1302425E+00
          1   -1    0    0  501    0  0.00000000000E+00  0.00000000000E+00  0.14910950588E+02  0.14910950588E+02  0.00000000000E+00 0. -1.
         -1   -1    0    0    0  501 -0.00000000000E+00 -0.00000000000E+00 -0.13633949698E+03  0.13633949698E+03  0.00000000000E+00 0.  1.
         23    2    1    2    0    0  0.00000000000E+00  0.00000000000E+00 -0.12142854639E+03  0.15125044757E+03  0.90176526938E+02 0.  0.
        -11    1    3    3    0    0 -0.41637924611E+02 -0.10964435137E+02 -0.38272923911E+02  0.57608613145E+02  0.00000000000E+00 0.  1.
         11    1    3    3    0    0  0.41637924611E+02  0.10964435137E+02 -0.83155622484E+02  0.93641834425E+02  0.00000000000E+00 0. -1.
<mgrwt>
<rscale>  0 0.90176527E+02</rscale>
<asrwt>0</asrwt>
<pdfrwt beam="1">  1        1 0.22939924E-02 0.90176527E+02</pdfrwt>
<pdfrwt beam="2">  1       -1 0.20975307E-01 0.90176527E+02</pdfrwt>
<totfact> 0.78643463E+04</totfact>
</mgrwt>
</event>
<event>
 5    1  0.1227473E+001  0.9123514E+02  0.7546771E-02  0.1299888E+00
         -2   -1    0    0    0  501 -0.00000000000E+00  0.00000000000E+00  0.49587464835E+02  0.49587464835E+02  0.00000000000E+00 0.  1.
          2   -1    0    0  501    0  0.00000000000E+00 -0.00000000000E+00 -0.41965499627E+02  0.41965499627E+02  0.00000000000E+00 0. -1.
         23    2    1    2    0    0  0.00000000000E+00  0.00000000000E+00  0.76219652078E+01  0.91552964462E+02  0.91235140972E+02 0.  0.
        -11    1    3    3    0    0 -0.16314517965E+02  0.35586333201E+02 -0.19688797032E+02  0.43820079139E+02  0.00000000000E+00 0. -1.
         11    1    3    3    0    0  0.16314517965E+02 -0.35586333201E+02  0.27310762240E+02  0.47732885323E+02  0.00000000000E+00 0.  1.
<mgrwt>
<rscale>  0 0.91235141E+02</rscale>
<asrwt>0</asrwt>
<pdfrwt beam="2">  1        2 0.64562307E-02 0.91235141E+02</pdfrwt>
<pdfrwt beam="1">  1       -2 0.76288407E-02 0.91235141E+02</pdfrwt>
<totfact> 0.96401760E+04</totfact>
</mgrwt>
</event>
<event>
 5    1  0.1227473E+001  0.8771967E+02  0.7546771E-02  0.1308470E+00
          4   -1    0    0  501    0  0.00000000000E+00  0.00000000000E+00  0.82726770036E+01  0.82726770036E+01  0.00000000000E+00 0. -1.
         -4   -1    0    0    0  501 -0.00000000000E+00 -0.00000000000E+00 -0.23253479949E+03  0.23253479949E+03  0.00000000000E+00 0.  1.
         23    2    1    2    0    0  0.00000000000E+00  0.00000000000E+00 -0.22426212249E+03  0.24080747650E+03  0.87719673695E+02 0.  0.
        -13    1    3    3    0    0  0.88428444137E+01  0.32382824981E+02 -0.18962345520E+03  0.19257179963E+03  0.00000000000E+00 0.  1.
         13    1    3    3    0    0 -0.88428444137E+01 -0.32382824981E+02 -0.34638667287E+02  0.48235676864E+02  0.00000000000E+00 0. -1.
<mgrwt>
<rscale>  0 0.87719674E+02</rscale>
<asrwt>0</asrwt>
<pdfrwt beam="1">  1        4 0.12727197E-02 0.87719674E+02</pdfrwt>
<pdfrwt beam="2">  1       -4 0.35774579E-01 0.87719674E+02</pdfrwt>
<totfact> 0.21934882E+04</totfact>
</mgrwt>
</event>
<event>
 5    1  0.1227473E+001  0.7997779E+02  0.7546771E-02  0.1329114E+00
          3   -1    0    0  501    0  0.00000000000E+00  0.00000000000E+00  0.45319145158E+02  0.45319145158E+02  0.00000000000E+00 0. -1.
         -3   -1    0    0    0  501 -0.00000000000E+00 -0.00000000000E+00 -0.35285569724E+02  0.35285569724E+02  0.00000000000E+00 0.  1.
         23    2    1    2    0    0  0.00000000000E+00  0.00000000000E+00  0.10033575434E+02  0.80604714882E+02  0.79977793325E+02 0.  0.
        -11    1    3    3    0    0 -0.16117501103E+02 -0.78242375075E+01 -0.31014246575E+02  0.35817258758E+02  0.00000000000E+00 0.  1.
         11    1    3    3    0    0  0.16117501103E+02  0.78242375075E+01  0.41047822009E+02  0.44787456123E+02  0.00000000000E+00 0. -1.
<mgrwt>
<rscale>  0 0.79977793E+02</rscale>
<asrwt>0</asrwt>
<pdfrwt beam="1">  1        3 0.69721762E-02 0.79977793E+02</pdfrwt>
<pdfrwt beam="2">  1       -3 0.54285492E-02 0.79977793E+02</pdfrwt>
<totfact> 0.51554855E+04</totfact>
</mgrwt>
</event>
<event>
 5    1  0.1227473E+001  0.9152887E+02  0.7546771E-02  0.1299191E+00
         -1   -1    0    0    0  501 -0.00000000000E+00  0.00000000000E+00  0.12777907589E+02  0.12777907589E+02  0.00000000000E+00 0.  1.
          1   -1    0    0  501    0  0.00000000000E+00 -0.00000000000E+00 -0.16390660946E+03  0.16390660946E+03  0.00000000000E+00 0. -1.
         23    2    1    2    0    0  0.00000000000E+00  0.00000000000E+00 -0.15112870187E+03  0.17668451704E+03  0.91528869954E+02 0.  0.
        -13    1    3    3    0    0  0.44286708678E+02 -0.11435680685E+02 -0.72639251904E+02  0.85840248575E+02  0.00000000000E+00 0.  1.
         13    1    3    3    0    0 -0.44286708678E+02  0.11435680685E+02 -0.78489449962E+02  0.90844268469E+02  0.00000000000E+00 0. -1.
<mgrwt>
<rscale>  0 0.91528870E+02</rscale>
<asrwt>0</asrwt>
<pdfrwt beam="2">  1        1 0.25216400E-01 0.91528870E+02</pdfrwt>
<pdfrwt beam="1">  1       -1 0.19658320E-02 0.91528870E+02</pdfrwt>
<totfact> 0.11281424E+05</totfact>
</mgrwt>
</event>
<event>
 5    1  0.1227473E+001  0.8770622E+02  0.7546771E-02  0.1308503E+00
          3   -1    0    0  501    0  0.00000000000E+00  0.00000000000E+00  0.19435701845E+03  0.19435701845E+03  0.00000000000E+00 0. -1.
         -3   -1    0    0    0  501 -0.00000000000E+00 -0.00000000000E+00 -0.98946529155E+01  0.98946529155E+01  0.00000000000E+00 0.  1.
         23    2    1    2    0    0  0.00000000000E+00  0.00000000000E+00  0.18446236553E+03  0.20425167136E+03  0.87706219603E+02 0.  0.
        -13    1    3    3    0    0  0.30199952663E+02 -0.22526972622E+02  0.39970469920E+02  0.54928499906E+02  0.00000000000E+00 0.  1.
         13    1    3    3    0    0 -0.30199952663E+02  0.22526972622E+02  0.14449189561E+03  0.14932317146E+03  0.00000000000E+00 0. -1.
<mgrwt>
<rscale>  0 0.87706220E+02</rscale>
<asrwt>0</asrwt>
<pdfrwt beam="1">  1        3 0.29901077E-01 0.87706220E+02</pdfrwt>
<pdfrwt beam="2">  1       -3 0.15222544E-02 0.87706220E+02</pdfrwt>
<totfact> 0.31388995E+04</totfact>
</mgrwt>
</event>
<event>
 5    1  0.1227473E+001  0.9248232E+02  0.7546771E-02  0.1296949E+00
         -1   -1    0    0    0  501 -0.00000000000E+00  0.00000000000E+00  0.24079669194E+03  0.24079669194E+03  0.00000000000E+00 0.  1.
          1   -1    0    0  501    0  0.00000000000E+00 -0.00000000000E+00 -0.88798769197E+01  0.88798769197E+01  0.00000000000E+00 0. -1.
         23    2    1    2    0    0  0.00000000000E+00  0.00000000000E+00  0.23191681502E+03  0.24967656886E+03  0.92482322356E+02 0.  0.
        -13    1    3    3    0    0 -0.85975905593E+01 -0.40750833213E+02  0.17020173118E+03  0.17522322411E+03  0.00000000000E+00 0.  1.
         13    1    3    3    0    0  0.85975905593E+01  0.40750833213E+02  0.61715083843E+02  0.74453344752E+02  0.00000000000E+00 0. -1.
<mgrwt>
<rscale>  0 0.92482322E+02</rscale>
<asrwt>0</asrwt>
<pdfrwt beam="2">  1        1 0.13661351E-02 0.92482322E+02</pdfrwt>
<pdfrwt beam="1">  1       -1 0.37045640E-01 0.92482322E+02</pdfrwt>
<totfact> 0.63189354E+04</totfact>
</mgrwt>
</event>
<event>
 5    1  0.1227473E+001  0.8912708E+02  0.7546771E-02  0.1304979E+00
         -1   -1    0    0    0  501 -0.00000000000E+00  0.00000000000E+00  0.69538562395E+01  0.69538562395E+01  0.00000000000E+00 0.  1.
          1   -1    0    0  501    0  0.00000000000E+00 -0.00000000000E+00 -0.28558387825E+03  0.28558387825E+03  0.00000000000E+00 0. -1.
         23    2    1    2    0    0  0.00000000000E+00  0.00000000000E+00 -0.27863002201E+03  0.29253773449E+03  0.89127083060E+02 0.  0.
        -13    1    3    3    0    0  0.43092457568E+02  0.99478240267E+01 -0.12134032196E+03  0.12914872371E+03  0.00000000000E+00 0. -1.
         13    1    3    3    0    0 -0.43092457568E+02 -0.99478240267E+01 -0.15728970005E+03  0.16338901078E+03  0.00000000000E+00 0.  1.
<mgrwt>
<rscale>  0 0.89127083E+02</rscale>
<asrwt>0</asrwt>
<pdfrwt beam="2">  1        1 0.43935985E-01 0.89127083E+02</pdfrwt>
<pdfrwt beam="1">  1       -1 0.10698239E-02 0.89127083E+02</pdfrwt>
<totfact> 0.13483529E+05</totfact>
</mgrwt>
</event>
<event>
 5    1  0.1227473E+001  0.9136413E+02  0.7546771E-02  0.1299581E+00
          3   -1    0    0  501    0  0.00000000000E+00  0.00000000000E+00  0.43435673782E+02  0.43435673782E+02  0.00000000000E+00 0. -1.
         -3   -1    0    0    0  501 -0.00000000000E+00 -0.00000000000E+00 -0.48044632772E+02  0.48044632772E+02  0.00000000000E+00 0.  1.
         23    2    1    2    0    0  0.00000000000E+00  0.00000000000E+00 -0.46089589898E+01  0.91480306553E+02  0.91364128541E+02 0.  0.
        -13    1    3    3    0    0  0.11865638829E+01  0.35969962162E+02 -0.30475730144E+02  0.47159476668E+02  0.00000000000E+00 0.  1.
         13    1    3    3    0    0 -0.11865638829E+01 -0.35969962162E+02  0.25866771154E+02  0.44320829885E+02  0.00000000000E+00 0. -1.
<mgrwt>
<rscale>  0 0.91364129E+02</rscale>
<asrwt>0</asrwt>
<pdfrwt beam="1">  1        3 0.66824114E-02 0.91364129E+02</pdfrwt>
<pdfrwt beam="2">  1       -3 0.73914819E-02 0.91364129E+02</pdfrwt>
<totfact> 0.35118132E+04</totfact>
</mgrwt>
</event>
<event>
 5    1  0.1227473E+001  0.9133363E+02  0.7546771E-02  0.1299654E+00
         -1   -1    0    0    0  501 -0.00000000000E+00  0.00000000000E+00  0.10589301869E+02  0.10589301869E+02  0.00000000000E+00 0.  1.
          1   -1    0    0  501    0  0.00000000000E+00 -0.00000000000E+00 -0.19694009718E+03  0.19694009718E+03  0.00000000000E+00 0. -1.
         23    2    1    2    0    0  0.00000000000E+00  0.00000000000E+00 -0.18635079531E+03  0.20752939905E+03  0.91333633218E+02 0.  0.
        -11    1    3    3    0    0 -0.42167872097E+02  0.16554542734E+02 -0.80068097113E+02  0.91995013439E+02  0.00000000000E+00 0.  1.
         11    1    3    3    0    0  0.42167872097E+02 -0.16554542734E+02 -0.10628269819E+03  0.11553438561E+03  0.00000000000E+00 0. -1.
<mgrwt>
<rscale>  0 0.91333633E+02</rscale>
<asrwt>0</asrwt>
<pdfrwt beam="2">  1        1 0.30298477E-01 0.91333633E+02</pdfrwt>
<pdfrwt beam="1">  1       -1 0.16291233E-02 0.91333633E+02</pdfrwt>
<totfact> 0.11750942E+05</totfact>
</mgrwt>
</event>
<event>
 5    1  0.1227473E+001  0.8833070E+02  0.7546771E-02  0.1306945E+00
          2   -1    0    0  501    0  0.00000000000E+00  0.00000000000E+00  0.16662171445E+03  0.16662171445E+03  0.00000000000E+00 0. -1.
         -2   -1    0    0    0  501 -0.00000000000E+00 -0.00000000000E+00 -0.11706626125E+02  0.11706626125E+02  0.00000000000E+00 0.  1.
         23    2    1    2    0    0  0.00000000000E+00  0.00000000000E+00  0.15491508832E+03  0.17832834057E+03  0.88330699427E+02 0.  0.
        -11    1    3    3    0    0 -0.33021310042E+02 -0.15890049807E+02  0.27690106321E+02  0.45930845712E+02  0.00000000000E+00 0.  1.
         11    1    3    3    0    0  0.33021310042E+02  0.15890049807E+02  0.12722498200E+03  0.13239749486E+03  0.00000000000E+00 0. -1.
<mgrwt>
<rscale>  0 0.88330699E+02</rscale>
<asrwt>0</asrwt>
<pdfrwt beam="1">  1        2 0.25634108E-01 0.88330699E+02</pdfrwt>
<pdfrwt beam="2">  1       -2 0.18010195E-02 0.88330699E+02</pdfrwt>
<totfact> 0.15790994E+05</totfact>
</mgrwt>
</event>
<event>
 5    1  0.1227473E+001  0.1038853E+03  0.7546771E-02  0.1272331E+00
         -2   -1    0    0    0  501 -0.00000000000E+00  0.00000000000E+00  0.91874189060E+01  0.91874189060E+01  0.00000000000E+00 0.  1.
          2   -1    0    0  501    0  0.00000000000E+00 -0.00000000000E+00 -0.29366688455E+03  0.29366688455E+03  0.00000000000E+00 0. -1.
         23    2    1    2    0    0  0.00000000000E+00  0.00000000000E+00 -0.28447946565E+03  0.30285430346E+03  0.10388533462E+03 0.  0.
        -11    1    3    3    0    0 -0.25886072376E+01 -0.51854367792E+02 -0.14681619503E+03  0.15572594989E+03  0.00000000000E+00 0.  1.
         11    1    3    3    0    0  0.25886072376E+01  0.51854367792E+02 -0.13766327062E+03  0.14712835357E+03  0.00000000000E+00 0. -1.
<mgrwt>
<rscale>  0 0.10388533E+03</rscale>
<asrwt>0</asrwt>
<pdfrwt beam="2">  1        2 0.45179526E-01 0.10388533E+03</pdfrwt>
<pdfrwt beam="1">  1       -2 0.14134489E-02 0.10388533E+03</pdfrwt>
<totfact> 0.12547904E+05</totfact>
</mgrwt>
</event>
<event>
 5    1  0.1227473E+001  0.9788940E+02  0.7546771E-02  0.1284798E+00
         -2   -1    0    0    0  501 -0.00000000000E+00  0.00000000000E+00  0.84220288391E+02  0.84220288391E+02  0.00000000000E+00 0.  1.
          2   -1    0    0  501    0  0.00000000000E+00 -0.00000000000E+00 -0.28444257494E+02  0.28444257494E+02  0.00000000000E+00 0. -1.
         23    2    1    2    0    0  0.00000000000E+00  0.00000000000E+00  0.55776030897E+02  0.11266454588E+03  0.97889398184E+02 0.  0.
        -13    1    3    3    0    0  0.21077008174E+02 -0.11453523609E+02  0.76990832226E+02  0.80641253236E+02  0.00000000000E+00 0.  1.
         13    1    3    3    0    0 -0.21077008174E+02  0.11453523609E+02 -0.21214801329E+02  0.32023292649E+02  0.00000000000E+00 0. -1.
<mgrwt>
<rscale>  0 0.97889398E+02</rscale>
<asrwt>0</asrwt>
<pdfrwt beam="2">  1        2 0.43760396E-02 0.97889398E+02</pdfrwt>
<pdfrwt beam="1">  1       -2 0.12956967E-01 0.97889398E+02</pdfrwt>
<totfact> 0.70408524E+04</totfact>
</mgrwt>
</event>
<event>
 5    1  0.1227473E+001  0.8982391E+02  0.7546771E-02  0.1303279E+00
          2   -1    0    0  501    0  0.00000000000E+00  0.00000000000E+00  0.88121876044E+02  0.88121876044E+02  0.00000000000E+00 0.  1.
         -2   -1    0    0    0  501 -0.00000000000E+00 -0.00000000000E+00 -0.22889705027E+02  0.22889705027E+02  0.00000000000E+00 0. -1.
         23    2    1    2    0    0  0.00000000000E+00  0.00000000000E+00  0.65232171016E+02  0.11101158107E+03  0.89823911050E+02 0.  0.
        -13    1    3    3    0    0 -0.97983470718E+01 -0.31934217627E+02  0.69718882414E+02  0.77307984231E+02  0.00000000000E+00 0.  1.
         13    1    3    3    0    0  0.97983470718E+01  0.31934217627E+02 -0.44867113980E+01  0.33703596840E+02  0.00000000000E+00 0. -1.
<mgrwt>
<rscale>  0 0.89823911E+02</rscale>
<asrwt>0</asrwt>
<pdfrwt beam="1">  1        2 0.13557212E-01 0.89823911E+02</pdfrwt>
<pdfrwt beam="2">  1       -2 0.35214931E-02 0.89823911E+02</pdfrwt>
<totfact> 0.12310127E+05</totfact>
</mgrwt>
</event>
<event>
 5    1  0.1227473E+001  0.9571304E+02  0.7546771E-02  0.1289578E+00
         -1   -1    0    0    0  501 -0.00000000000E+00  0.00000000000E+00  0.19479515535E+02  0.19479515535E+02  0.00000000000E+00 0.  1.
          1   -1    0    0  501    0  0.00000000000E+00 -0.00000000000E+00 -0.11757203451E+03  0.11757203451E+03  0.00000000000E+00 0. -1.
         23    2    1    2    0    0  0.00000000000E+00  0.00000000000E+00 -0.98092518979E+02  0.13705155005E+03  0.95713035117E+02 0.  0.
        -11    1    3    3    0    0  0.33473957833E+02  0.18309279777E+02 -0.76816606571E+01  0.38919705669E+02  0.00000000000E+00 0. -1.
         11    1    3    3    0    0 -0.33473957833E+02 -0.18309279777E+02 -0.90410858322E+02  0.98131844380E+02  0.00000000000E+00 0.  1.
<mgrwt>
<rscale>  0 0.95713035E+02</rscale>
<asrwt>0</asrwt>
<pdfrwt beam="2">  1        1 0.18088005E-01 0.95713035E+02</pdfrwt>
<pdfrwt beam="1">  1       -1 0.29968486E-02 0.95713035E+02</pdfrwt>
<totfact> 0.94057380E+04</totfact>
</mgrwt>
</event>
<event>
 5    1  0.1227473E+001  0.9174155E+02  0.7546771E-02  0.1298688E+00
          2   -1    0    0  501    0  0.00000000000E+00  0.00000000000E+00  0.22960358622E+03  0.22960358622E+03  0.00000000000E+00 0. -1.
         -2   -1    0    0    0  501 -0.00000000000E+00 -0.00000000000E+00 -0.91641777279E+01  0.91641777279E+01  0.00000000000E+00 0.  1.
         23    2    1    2    0    0  0.00000000000E+00  0.00000000000E+00  0.22043940849E+03  0.23876776395E+03  0.91741551569E+02 0.  0.
        -13    1    3    3    0    0 -0.24825314334E+02 -0.24031934224E+02  0.18874352087E+03  0.19188003222E+03  0.00000000000E+00 0. -1.
         13    1    3    3    0    0  0.24825314334E+02  0.24031934224E+02  0.31695887619E+02  0.46887731725E+02  0.00000000000E+00 0.  1.
<mgrwt>
<rscale>  0 0.91741552E+02</rscale>
<asrwt>0</asrwt>
<pdfrwt beam="1">  1        2 0.35323624E-01 0.91741552E+02</pdfrwt>
<pdfrwt beam="2">  1       -2 0.14098737E-02 0.91741552E+02</pdfrwt>
<totfact> 0.15999527E+05</totfact>
</mgrwt>
</event>
<event>
 5    1  0.1227473E+001  0.9077327E+02  0.7546771E-02  0.1300990E+00
         -2   -1    0    0    0  501 -0.00000000000E+00  0.00000000000E+00  0.98060688024E+01  0.98060688024E+01  0.00000000000E+00 0.  1.
          2   -1    0    0  501    0  0.00000000000E+00 -0.00000000000E+00 -0.21006854918E+03  0.21006854918E+03  0.00000000000E+00 0. -1.
         23    2    1    2    0    0  0.00000000000E+00  0.00000000000E+00 -0.20026248037E+03  0.21987461798E+03  0.90773270216E+02 0.  0.
        -13    1    3    3    0    0  0.12103203578E+02 -0.42267484344E+02 -0.72842704855E+02  0.85082826823E+02  0.00000000000E+00 0. -1.
         13    1    3    3    0    0 -0.12103203578E+02  0.42267484344E+02 -0.12741977552E+03  0.13479179115E+03  0.00000000000E+00 0.  1.
<mgrwt>
<rscale>  0 0.90773270E+02</rscale>
<asrwt>0</asrwt>
<pdfrwt beam="2">  1        2 0.32318237E-01 0.90773270E+02</pdfrwt>
<pdfrwt beam="1">  1       -2 0.15086260E-02 0.90773270E+02</pdfrwt>
<totfact> 0.15935011E+05</totfact>
</mgrwt>
</event>
<event>
 5    1  0.1227473E+001  0.9190128E+02  0.7546771E-02  0.1298312E+00
         -4   -1    0    0    0  501 -0.00000000000E+00  0.00000000000E+00  0.20111869696E+02  0.20111869696E+02  0.00000000000E+00 0.  1.
          4   -1    0    0  501    0  0.00000000000E+00 -0.00000000000E+00 -0.10498581806E+03  0.10498581806E+03  0.00000000000E+00 0. -1.
         23    2    1    2    0    0  0.00000000000E+00  0.00000000000E+00 -0.84873948367E+02  0.12509768776E+03  0.91901275134E+02 0.  0.
        -11    1    3    3    0    0 -0.44523615681E+02 -0.18700980592E+01 -0.27180913797E+02  0.52198196280E+02  0.00000000000E+00 0.  1.
         11    1    3    3    0    0  0.44523615681E+02  0.18700980592E+01 -0.57693034570E+02  0.72899491479E+02  0.00000000000E+00 0. -1.
<mgrwt>
<rscale>  0 0.91901275E+02</rscale>
<asrwt>0</asrwt>
<pdfrwt beam="2">  1        4 0.16151664E-01 0.91901275E+02</pdfrwt>
<pdfrwt beam="1">  1       -4 0.30941339E-02 0.91901275E+02</pdfrwt>
<totfact> 0.24457372E+04</totfact>
</mgrwt>
</event>
<event>
 5    1  0.1227473E+001  0.8396532E+02  0.7546771E-02  0.1318161E+00
         -1   -1    0    0    0  501 -0.00000000000E+00  0.00000000000E+00  0.21630258204E+02  0.21630258204E+02  0.00000000000E+00 0.  1.
          1   -1    0    0  501    0  0.00000000000E+00 -0.00000000000E+00 -0.81485090378E+02  0.81485090378E+02  0.00000000000E+00 0. -1.
         23    2    1    2    0    0  0.00000000000E+00  0.00000000000E+00 -0.59854832174E+02  0.10311534858E+03  0.83965315330E+02 0.  0.
        -11    1    3    3    0    0  0.22382743768E+02 -0.19670177119E+02  0.63919426765E+01  0.30475564272E+02  0.00000000000E+00 0.  1.
         11    1    3    3    0    0 -0.22382743768E+02  0.19670177119E+02 -0.66246774851E+02  0.72639784310E+02  0.00000000000E+00 0. -1.
<mgrwt>
<rscale>  0 0.83965315E+02</rscale>
<asrwt>0</asrwt>
<pdfrwt beam="2">  1        1 0.12536168E-01 0.83965315E+02</pdfrwt>
<pdfrwt beam="1">  1       -1 0.33277320E-02 0.83965315E+02</pdfrwt>
<totfact> 0.12648179E+05</totfact>
</mgrwt>
</event>
<event>
 5    1  0.1227473E+001  0.9659724E+02  0.7546771E-02  0.1287619E+00
         -2   -1    0    0    0  501 -0.00000000000E+00  0.00000000000E+00  0.27503455762E+02  0.27503455762E+02  0.00000000000E+00 0.  1.
          2   -1    0    0  501    0  0.00000000000E+00 -0.00000000000E+00 -0.84816858201E+02  0.84816858201E+02  0.00000000000E+00 0. -1.
         23    2    1    2    0    0  0.00000000000E+00  0.00000000000E+00 -0.57313402438E+02  0.11232031396E+03  0.96597240280E+02 0.  0.
        -11    1    3    3    0    0 -0.47840313640E+02 -0.22303883112E+01 -0.35926238926E+02  0.59869565596E+02  0.00000000000E+00 0.  1.
         11    1    3    3    0    0  0.47840313640E+02  0.22303883112E+01 -0.21387163512E+02  0.52450748367E+02  0.00000000000E+00 0. -1.
<mgrwt>
<rscale>  0 0.96597240E+02</rscale>
<asrwt>0</asrwt>
<pdfrwt beam="2">  1        2 0.13048748E-01 0.96597240E+02</pdfrwt>
<pdfrwt beam="1">  1       -2 0.42313008E-02 0.96597240E+02</pdfrwt>
<totfact> 0.99444396E+04</totfact>
</mgrwt>
</event>
<event>
 5    1  0.1227473E+001  0.1073516E+03  0.7546771E-02  0.1265554E+00
         -1   -1    0    0    0  501 -0.00000000000E+00  0.00000000000E+00  0.21463761647E+03  0.21463761647E+03  0.00000000000E+00 0.  1.
          1   -1    0    0  501    0  0.00000000000E+00 -0.00000000000E+00 -0.13423044556E+02  0.13423044556E+02  0.00000000000E+00 0. -1.
         23    2    1    2    0    0  0.00000000000E+00  0.00000000000E+00  0.20121457191E+03  0.22806066102E+03  0.10735157734E+03 0.  0.
        -13    1    3    3    0    0  0.42447859269E+02  0.61246268979E+01  0.32038656239E+02  0.53533235515E+02  0.00000000000E+00 0. -1.
         13    1    3    3    0    0 -0.42447859269E+02 -0.61246268979E+01  0.16917591567E+03  0.17452742551E+03  0.00000000000E+00 0.  1.
<mgrwt>
<rscale>  0 0.10735158E+03</rscale>
<asrwt>0</asrwt>
<pdfrwt beam="2">  1        1 0.20650839E-02 0.10735158E+03</pdfrwt>
<pdfrwt beam="1">  1       -1 0.33021169E-01 0.10735158E+03</pdfrwt>
<totfact> 0.44326988E+04</totfact>
</mgrwt>
</event>
<event>
 5    1  0.1227473E+001  0.9122072E+02  0.7546771E-02  0.1299922E+00
          3   -1    0    0  501    0  0.00000000000E+00  0.00000000000E+00  0.28311970114E+02  0.28311970114E+02  0.00000000000E+00 0. -1.
         -3   -1    0    0    0  501 -0.00000000000E+00 -0.00000000000E+00 -0.73477923340E+02  0.73477923340E+02  0.00000000000E+00 0.  1.
         23    2    1    2    0    0  0.00000000000E+00  0.00000000000E+00 -0.45165953225E+02  0.10178989345E+03  0.91220716280E+02 0.  0.
        -13    1    3    3    0    0  0.47594128949E+00 -0.21089927367E+02 -0.67707122941E+02  0.70917318431E+02  0.00000000000E+00 0.  1.
         13    1    3    3    0    0 -0.47594128949E+00  0.21089927367E+02  0.22541169716E+02  0.30872575024E+02  0.00000000000E+00 0. -1.
<mgrwt>
<rscale>  0 0.91220716E+02</rscale>
<asrwt>0</asrwt>
<pdfrwt beam="1">  1        3 0.43556878E-02 0.91220716E+02</pdfrwt>
<pdfrwt beam="2">  1       -3 0.11304296E-01 0.91220716E+02</pdfrwt>
<totfact> 0.34495090E+04</totfact>
</mgrwt>
</event>
<event>
 5    1  0.1227473E+001  0.8047166E+02  0.7546771E-02  0.1327718E+00
          1   -1    0    0  501    0  0.00000000000E+00  0.00000000000E+00  0.63295177685E+02  0.63295177685E+02  0.00000000000E+00 0. -1.
         -1   -1    0    0    0  501 -0.00000000000E+00 -0.00000000000E+00 -0.25577337062E+02  0.25577337062E+02  0.00000000000E+00 0.  1.
         23    2    1    2    0    0  0.00000000000E+00  0.00000000000E+00  0.37717840624E+02  0.88872514747E+02  0.80471661944E+02 0.  0.
        -11    1    3    3    0    0 -0.38352708590E+02 -0.11960696404E+02  0.21311965547E+02  0.45477339304E+02  0.00000000000E+00 0. -1.
         11    1    3    3    0    0  0.38352708590E+02  0.11960696404E+02  0.16405875077E+02  0.43395175443E+02  0.00000000000E+00 0.  1.
<mgrwt>
<rscale>  0 0.80471662E+02</rscale>
<asrwt>0</asrwt>
<pdfrwt beam="1">  1        1 0.97377196E-02 0.80471662E+02</pdfrwt>
<pdfrwt beam="2">  1       -1 0.39349750E-02 0.80471662E+02</pdfrwt>
<totfact> 0.13682511E+05</totfact>
</mgrwt>
</event>
<event>
 5    1  0.1227473E+001  0.9255234E+02  0.7546771E-02  0.1296786E+00
          1   -1    0    0  501    0  0.00000000000E+00  0.00000000000E+00  0.25779084314E+03  0.25779084314E+03  0.00000000000E+00 0. -1.
         -1   -1    0    0    0  501 -0.00000000000E+00 -0.00000000000E+00 -0.83070595449E+01  0.83070595449E+01  0.00000000000E+00 0.  1.
         23    2    1    2    0    0  0.00000000000E+00  0.00000000000E+00  0.24948378360E+03  0.26609790269E+03  0.92552339444E+02 0.  0.
        -13    1    3    3    0    0 -0.31610450507E+02 -0.32631998845E+02  0.99444876326E+02  0.10933138322E+03  0.00000000000E+00 0.  1.
         13    1    3    3    0    0  0.31610450507E+02  0.32631998845E+02  0.15003890727E+03  0.15676651947E+03  0.00000000000E+00 0. -1.
<mgrwt>
<rscale>  0 0.92552339E+02</rscale>
<asrwt>0</asrwt>
<pdfrwt beam="1">  1        1 0.39660124E-01 0.92552339E+02</pdfrwt>
<pdfrwt beam="2">  1       -1 0.12780094E-02 0.92552339E+02</pdfrwt>
<totfact> 0.11952840E+05</totfact>
</mgrwt>
</event>
<event>
 5    1  0.1227473E+001  0.9314288E+02  0.7546771E-02  0.1295414E+00
          1   -1    0    0  501    0  0.00000000000E+00  0.00000000000E+00  0.57793003062E+01  0.57793003062E+01  0.00000000000E+00 0. -1.
         -1   -1    0    0    0  501 -0.00000000000E+00 -0.00000000000E+00 -0.37528744008E+03  0.37528744008E+03  0.00000000000E+00 0.  1.
         23    2    1    2    0    0  0.00000000000E+00  0.00000000000E+00 -0.36950813978E+03  0.38106674039E+03  0.93142875571E+02 0.  0.
        -11    1    3    3    0    0 -0.18448647041E+02 -0.42061394264E+02 -0.15322645824E+03  0.15996206104E+03  0.00000000000E+00 0. -1.
         11    1    3    3    0    0  0.18448647041E+02  0.42061394264E+02 -0.21628168153E+03  0.22110467935E+03  0.00000000000E+00 0.  1.
<mgrwt>
<rscale>  0 0.93142876E+02</rscale>
<asrwt>0</asrwt>
<pdfrwt beam="1">  1        1 0.88912324E-03 0.93142876E+02</pdfrwt>
<pdfrwt beam="2">  1       -1 0.57736522E-01 0.93142876E+02</pdfrwt>
<totfact> 0.51994104E+04</totfact>
</mgrwt>
</event>
<event>
 5    1  0.1227473E+001  0.9168798E+02  0.7546771E-02  0.1298815E+00
          1   -1    0    0  501    0  0.00000000000E+00  0.00000000000E+00  0.18079557663E+02  0.18079557663E+02  0.00000000000E+00 0. -1.
         -1   -1    0    0    0  501 -0.00000000000E+00 -0.00000000000E+00 -0.11624572620E+03  0.11624572620E+03  0.00000000000E+00 0.  1.
         23    2    1    2    0    0  0.00000000000E+00  0.00000000000E+00 -0.98166168536E+02  0.13432528386E+03  0.91687977616E+02 0.  0.
        -13    1    3    3    0    0  0.82729058200E+01 -0.16909542953E+02  0.12156019427E+02  0.22408534577E+02  0.00000000000E+00 0. -1.
         13    1    3    3    0    0 -0.82729058200E+01  0.16909542953E+02 -0.11032218796E+03  0.11191674928E+03  0.00000000000E+00 0.  1.
<mgrwt>
<rscale>  0 0.91687978E+02</rscale>
<asrwt>0</asrwt>
<pdfrwt beam="1">  1        1 0.27814705E-02 0.91687978E+02</pdfrwt>
<pdfrwt beam="2">  1       -1 0.17883957E-01 0.91687978E+02</pdfrwt>
<totfact> 0.77903753E+04</totfact>
</mgrwt>
</event>
<event>
 5    1  0.1227473E+001  0.9133908E+02  0.7546771E-02  0.1299641E+00
          2   -1    0    0  501    0  0.00000000000E+00  0.00000000000E+00  0.16850321903E+03  0.16850321903E+03  0.00000000000E+00 0. -1.
         -2   -1    0    0    0  501 -0.00000000000E+00 -0.00000000000E+00 -0.12377846473E+02  0.12377846473E+02  0.00000000000E+00 0.  1.
         23    2    1    2    0    0  0.00000000000E+00  0.00000000000E+00  0.15612537256E+03  0.18088106551E+03  0.91339082006E+02 0.  0.
        -13    1    3    3    0    0 -0.14241895382E+02  0.43234811599E+02  0.70752508380E+02  0.84130838342E+02  0.00000000000E+00 0.  1.
         13    1    3    3    0    0  0.14241895382E+02 -0.43234811599E+02  0.85372864180E+02  0.96750227164E+02  0.00000000000E+00 0. -1.
<mgrwt>
<rscale>  0 0.91339082E+02</rscale>
<asrwt>0</asrwt>
<pdfrwt beam="1">  1        2 0.25923571E-01 0.91339082E+02</pdfrwt>
<pdfrwt beam="2">  1       -2 0.19042842E-02 0.91339082E+02</pdfrwt>
<totfact> 0.14482947E+05</totfact>
</mgrwt>
</event>
<event>
 5    1  0.1227473E+001  0.8354928E+02  0.7546771E-02  0.1319271E+00
          2   -1    0    0  501    0  0.00000000000E+00  0.00000000000E+00  0.22141683859E+03  0.22141683859E+03  0.00000000000E+00 0.  1.
         -2   -1    0    0    0  501 -0.00000000000E+00 -0.00000000000E+00 -0.78816066281E+01  0.78816066281E+01  0.00000000000E+00 0. -1.
         23    2    1    2    0    0  0.00000000000E+00  0.00000000000E+00  0.21353523196E+03  0.22929844522E+03  0.83549277020E+02 0.  0.
        -13    1    3    3    0    0  0.16231099339E+02  0.34254807331E+02  0.15495475002E+03  0.15952371286E+03  0.00000000000E+00 0.  1.
         13    1    3    3    0    0 -0.16231099339E+02 -0.34254807331E+02  0.58580481940E+02  0.69774732356E+02  0.00000000000E+00 0. -1.
<mgrwt>
<rscale>  0 0.83549277E+02</rscale>
<asrwt>0</asrwt>
<pdfrwt beam="1">  1        2 0.34064124E-01 0.83549277E+02</pdfrwt>
<pdfrwt beam="2">  1       -2 0.12125550E-02 0.83549277E+02</pdfrwt>
<totfact> 0.20269480E+05</totfact>
</mgrwt>
</event>
<event>
 5    1  0.1227473E+001  0.9177762E+02  0.7546771E-02  0.1298603E+00
          4   -1    0    0  501    0  0.00000000000E+00  0.00000000000E+00  0.23825561151E+02  0.23825561151E+02  0.00000000000E+00 0. -1.
         -4   -1    0    0    0  501 -0.00000000000E+00 -0.00000000000E+00 -0.88383352123E+02  0.88383352123E+02  0.00000000000E+00 0.  1.
         23    2    1    2    0    0  0.00000000000E+00  0.00000000000E+00 -0.64557790973E+02  0.11220891327E+03  0.91777621689E+02 0.  0.
        -11    1    3    3    0    0  0.33179808071E+02  0.22347144339E+02 -0.47907038532E+01  0.40289519322E+02  0.00000000000E+00 0. -1.
         11    1    3    3    0    0 -0.33179808071E+02 -0.22347144339E+02 -0.59767087119E+02  0.71919393953E+02  0.00000000000E+00 0.  1.
<mgrwt>
<rscale>  0 0.91777622E+02</rscale>
<asrwt>0</asrwt>
<pdfrwt beam="1">  1        4 0.36654709E-02 0.91777622E+02</pdfrwt>
<pdfrwt beam="2">  1       -4 0.13597439E-01 0.91777622E+02</pdfrwt>
<totfact> 0.25268380E+04</totfact>
</mgrwt>
</event>
<event>
 5    1  0.1227473E+001  0.9220803E+02  0.7546771E-02  0.1297591E+00
          1   -1    0    0  501    0  0.00000000000E+00  0.00000000000E+00  0.67919294080E+02  0.67919294080E+02  0.00000000000E+00 0. -1.
         -1   -1    0    0    0  501 -0.00000000000E+00 -0.00000000000E+00 -0.31295678467E+02  0.31295678467E+02  0.00000000000E+00 0.  1.
         23    2    1    2    0    0  0.00000000000E+00  0.00000000000E+00  0.36623615613E+02  0.99214972547E+02  0.92208034123E+02 0.  0.
        -11    1    3    3    0    0  0.38439808981E+02  0.11522887272E+02 -0.61106780126E+01  0.40592317393E+02  0.00000000000E+00 0.  1.
         11    1    3    3    0    0 -0.38439808981E+02 -0.11522887272E+02  0.42734293626E+02  0.58622655154E+02  0.00000000000E+00 0. -1.
<mgrwt>
<rscale>  0 0.92208034E+02</rscale>
<asrwt>0</asrwt>
<pdfrwt beam="1">  1        1 0.10449122E-01 0.92208034E+02</pdfrwt>
<pdfrwt beam="2">  1       -1 0.48147198E-02 0.92208034E+02</pdfrwt>
<totfact> 0.95201742E+04</totfact>
</mgrwt>
</event>
<event>
 5    1  0.1227473E+001  0.9267276E+02  0.7546771E-02  0.1296505E+00
         -1   -1    0    0    0  501 -0.00000000000E+00  0.00000000000E+00  0.11616871649E+02  0.11616871649E+02  0.00000000000E+00 0.  1.
          1   -1    0    0  501    0  0.00000000000E+00 -0.00000000000E+00 -0.18482255629E+03  0.18482255629E+03  0.00000000000E+00 0. -1.
         23    2    1    2    0    0  0.00000000000E+00  0.00000000000E+00 -0.17320568464E+03  0.19643942794E+03  0.92672755743E+02 0.  0.
        -13    1    3    3    0    0 -0.30952509878E+02 -0.71650952130E+01 -0.15106555468E+02  0.35179603114E+02  0.00000000000E+00 0.  1.
         13    1    3    3    0    0  0.30952509878E+02  0.71650952130E+01 -0.15809912917E+03  0.16125982482E+03  0.00000000000E+00 0. -1.
<mgrwt>
<rscale>  0 0.92672756E+02</rscale>
<asrwt>0</asrwt>
<pdfrwt beam="2">  1        1 0.28434239E-01 0.92672756E+02</pdfrwt>
<pdfrwt beam="1">  1       -1 0.17872110E-02 0.92672756E+02</pdfrwt>
<totfact> 0.11162017E+05</totfact>
</mgrwt>
</event>
<event>
 5    1  0.1227473E+001  0.9085597E+02  0.7546771E-02  0.1300792E+00
         -1   -1    0    0    0  501 -0.00000000000E+00  0.00000000000E+00  0.14071735433E+02  0.14071735433E+02  0.00000000000E+00 0.  1.
          1   -1    0    0  501    0  0.00000000000E+00 -0.00000000000E+00 -0.14665582279E+03  0.14665582279E+03  0.00000000000E+00 0. -1.
         23    2    1    2    0    0  0.00000000000E+00  0.00000000000E+00 -0.13258408736E+03  0.16072755822E+03  0.90855972570E+02 0.  0.
        -11    1    3    3    0    0 -0.32975744477E+02  0.17434800205E+02 -0.11216197567E+03  0.11820186448E+03  0.00000000000E+00 0. -1.
         11    1    3    3    0    0  0.32975744477E+02 -0.17434800205E+02 -0.20422111690E+02  0.42525693738E+02  0.00000000000E+00 0.  1.
<mgrwt>
<rscale>  0 0.90855973E+02</rscale>
<asrwt>0</asrwt>
<pdfrwt beam="2">  1        1 0.22562433E-01 0.90855973E+02</pdfrwt>
<pdfrwt beam="1">  1       -1 0.21648825E-02 0.90855973E+02</pdfrwt>
<totfact> 0.11273734E+05</totfact>
</mgrwt>
</event>
<event>
 5    1  0.1227473E+001  0.9224580E+02  0.7546771E-02  0.1297503E+00
         -1   -1    0    0    0  501 -0.00000000000E+00  0.00000000000E+00  0.82042660404E+02  0.82042660404E+02  0.00000000000E+00 0.  1.
          1   -1    0    0  501    0  0.00000000000E+00 -0.00000000000E+00 -0.25929458899E+02  0.25929458899E+02  0.00000000000E+00 0. -1.
         23    2    1    2    0    0  0.00000000000E+00  0.00000000000E+00  0.56113201504E+02  0.10797211930E+03  0.92245797540E+02 0.  0.
        -13    1    3    3    0    0  0.31032708414E+02  0.30898937929E+02  0.45000261450E+02  0.62791694412E+02  0.00000000000E+00 0.  1.
         13    1    3    3    0    0 -0.31032708414E+02 -0.30898937929E+02  0.11112940055E+02  0.45180424891E+02  0.00000000000E+00 0. -1.
<mgrwt>
<rscale>  0 0.92245798E+02</rscale>
<asrwt>0</asrwt>
<pdfrwt beam="2">  1        1 0.39891475E-02 0.92245798E+02</pdfrwt>
<pdfrwt beam="1">  1       -1 0.12621948E-01 0.92245798E+02</pdfrwt>
<totfact> 0.81806430E+04</totfact>
</mgrwt>
</event>
<event>
 5    1  0.1227473E+001  0.8836554E+02  0.7546771E-02  0.1306859E+00
         -1   -1    0    0    0  501 -0.00000000000E+00  0.00000000000E+00  0.93479253143E+01  0.93479253143E+01  0.00000000000E+00 0.  1.
          1   -1    0    0  501    0  0.00000000000E+00 -0.00000000000E+00 -0.20882891081E+03  0.20882891081E+03  0.00000000000E+00 0. -1.
         23    2    1    2    0    0  0.00000000000E+00  0.00000000000E+00 -0.19948098550E+03  0.21817683613E+03  0.88365537666E+02 0.  0.
        -11    1    3    3    0    0 -0.64557580305E+01  0.33727850031E+02 -0.31100123748E+02  0.46329929599E+02  0.00000000000E+00 0.  1.
         11    1    3    3    0    0  0.64557580305E+01 -0.33727850031E+02 -0.16838086175E+03  0.17184690653E+03  0.00000000000E+00 0. -1.
<mgrwt>
<rscale>  0 0.88365538E+02</rscale>
<asrwt>0</asrwt>
<pdfrwt beam="2">  1        1 0.32127521E-01 0.88365538E+02</pdfrwt>
<pdfrwt beam="1">  1       -1 0.14381425E-02 0.88365538E+02</pdfrwt>
<totfact> 0.12983230E+05</totfact>
</mgrwt>
</event>
<event>
 5    1  0.1227473E+001  0.9046583E+02  0.7546771E-02  0.1301728E+00
          3   -1    0    0  501    0  0.00000000000E+00  0.00000000000E+00  0.10106627038E+03  0.10106627038E+03  0.00000000000E+00 0. -1.
         -3   -1    0    0    0  501 -0.00000000000E+00 -0.00000000000E+00 -0.20244305690E+02  0.20244305690E+02  0.00000000000E+00 0.  1.
         23    2    1    2    0    0  0.00000000000E+00  0.00000000000E+00  0.80821964692E+02  0.12131057607E+03  0.90465827197E+02 0.  0.
        -13    1    3    3    0    0  0.17410432804E+02 -0.79205486546E+00 -0.15561082828E+02  0.23364456341E+02  0.00000000000E+00 0.  1.
         13    1    3    3    0    0 -0.17410432804E+02  0.79205486546E+00  0.96383047520E+02  0.97946119732E+02  0.00000000000E+00 0. -1.
<mgrwt>
<rscale>  0 0.90465827E+02</rscale>
<asrwt>0</asrwt>
<pdfrwt beam="1">  1        3 0.15548657E-01 0.90465827E+02</pdfrwt>
<pdfrwt beam="2">  1       -3 0.31145086E-02 0.90465827E+02</pdfrwt>
<totfact> 0.33868218E+04</totfact>
</mgrwt>
</event>
<event>
 5    1  0.1227473E+001  0.8935758E+02  0.7546771E-02  0.1304415E+00
         -2   -1    0    0    0  501 -0.00000000000E+00  0.00000000000E+00  0.89181337986E+02  0.89181337986E+02  0.00000000000E+00 0.  1.
          2   -1    0    0  501    0  0.00000000000E+00 -0.00000000000E+00 -0.22383544821E+02  0.22383544821E+02  0.00000000000E+00 0. -1.
         23    2    1    2    0    0  0.00000000000E+00  0.00000000000E+00  0.66797793165E+02  0.11156488281E+03  0.89357584481E+02 0.  0.
        -11    1    3    3    0    0 -0.37805102792E+01 -0.38315584267E+02  0.61699835466E+02  0.72727202285E+02  0.00000000000E+00 0.  1.
         11    1    3    3    0    0  0.37805102792E+01  0.38315584267E+02  0.50979576992E+01  0.38837680523E+02  0.00000000000E+00 0. -1.
<mgrwt>
<rscale>  0 0.89357584E+02</rscale>
<asrwt>0</asrwt>
<pdfrwt beam="2">  1        2 0.34436223E-02 0.89357584E+02</pdfrwt>
<pdfrwt beam="1">  1       -2 0.13720206E-01 0.89357584E+02</pdfrwt>
<totfact> 0.86734795E+04</totfact>
</mgrwt>
</event>
<event>
 5    1  0.1227473E+001  0.8886312E+02  0.7546771E-02  0.1305628E+00
         -3   -1    0    0    0  501 -0.00000000000E+00  0.00000000000E+00  0.89924937149E+01  0.89924937149E+01  0.00000000000E+00 0.  1.
          3   -1    0    0  501    0  0.00000000000E+00 -0.00000000000E+00 -0.21953460613E+03  0.21953460613E+03  0.00000000000E+00 0. -1.
         23    2    1    2    0    0  0.00000000000E+00  0.00000000000E+00 -0.21054211242E+03  0.22852709985E+03  0.88863120941E+02 0.  0.
        -11    1    3    3    0    0 -0.43081028991E+02 -0.32822210492E+01 -0.78617835972E+02  0.89707927002E+02  0.00000000000E+00 0.  1.
         11    1    3    3    0    0  0.43081028991E+02  0.32822210492E+01 -0.13192427644E+03  0.13881917284E+03  0.00000000000E+00 0. -1.
<mgrwt>
<rscale>  0 0.88863121E+02</rscale>
<asrwt>0</asrwt>
<pdfrwt beam="2">  1        3 0.33774556E-01 0.88863121E+02</pdfrwt>
<pdfrwt beam="1">  1       -3 0.13834605E-02 0.88863121E+02</pdfrwt>
<totfact> 0.29024069E+04</totfact>
</mgrwt>
</event>
<event>
 5    1  0.1227473E+001  0.9075419E+02  0.7546771E-02  0.1301036E+00
         -1   -1    0    0    0  501 -0.00000000000E+00  0.00000000000E+00  0.42050782499E+02  0.42050782499E+02  0.00000000000E+00 0.  1.
          1   -1    0    0  501    0  0.00000000000E+00 -0.00000000000E+00 -0.48966529784E+02  0.48966529784E+02  0.00000000000E+00 0. -1.
         23    2    1    2    0    0  0.00000000000E+00  0.00000000000E+00 -0.69157472848E+01  0.91017312282E+02  0.90754193152E+02 0.  0.
        -11    1    3    3    0    0 -0.41285961314E+02 -0.89365512303E+01 -0.20079649531E+02  0.46771624675E+02  0.00000000000E+00 0.  1.
         11    1    3    3    0    0  0.41285961314E+02  0.89365512303E+01  0.13163902246E+02  0.44245687607E+02  0.00000000000E+00 0. -1.
<mgrwt>
<rscale>  0 0.90754193E+02</rscale>
<asrwt>0</asrwt>
<pdfrwt beam="2">  1        1 0.75333123E-02 0.90754193E+02</pdfrwt>
<pdfrwt beam="1">  1       -1 0.64693511E-02 0.90754193E+02</pdfrwt>
<totfact> 0.94692556E+04</totfact>
</mgrwt>
</event>
<event>
 5    1  0.1227473E+001  0.9103410E+02  0.7546771E-02  0.1300367E+00
          1   -1    0    0  501    0  0.00000000000E+00  0.00000000000E+00  0.27421202686E+02  0.27421202686E+02  0.00000000000E+00 0. -1.
         -1   -1    0    0    0  501 -0.00000000000E+00 -0.00000000000E+00 -0.75554747440E+02  0.75554747440E+02  0.00000000000E+00 0.  1.
         23    2    1    2    0    0  0.00000000000E+00  0.00000000000E+00 -0.48133544753E+02  0.10297595013E+03  0.91034104455E+02 0.  0.
        -13    1    3    3    0    0  0.27367869520E+02  0.35897226244E+02 -0.17452424846E+02  0.48396262945E+02  0.00000000000E+00 0. -1.
         13    1    3    3    0    0 -0.27367869520E+02 -0.35897226244E+02 -0.30681119908E+02  0.54579687181E+02  0.00000000000E+00 0.  1.
<mgrwt>
<rscale>  0 0.91034104E+02</rscale>
<asrwt>0</asrwt>
<pdfrwt beam="1">  1        1 0.42186466E-02 0.91034104E+02</pdfrwt>
<pdfrwt beam="2">  1       -1 0.11623807E-01 0.91034104E+02</pdfrwt>
<totfact> 0.85807809E+04</totfact>
</mgrwt>
</event>
<event>
 5    1  0.1227473E+001  0.8549994E+02  0.7546771E-02  0.1314130E+00
         -2   -1    0    0    0  501 -0.00000000000E+00  0.00000000000E+00  0.11068122003E+02  0.11068122003E+02  0.00000000000E+00 0.  1.
          2   -1    0    0  501    0  0.00000000000E+00 -0.00000000000E+00 -0.16511922971E+03  0.16511922971E+03  0.00000000000E+00 0. -1.
         23    2    1    2    0    0  0.00000000000E+00  0.00000000000E+00 -0.15405110771E+03  0.17618735171E+03  0.85499936360E+02 0.  0.
        -13    1    3    3    0    0  0.30899001454E+02 -0.28141163893E+02 -0.95558593075E+02  0.10429821718E+03  0.00000000000E+00 0. -1.
         13    1    3    3    0    0 -0.30899001454E+02  0.28141163893E+02 -0.58492514631E+02  0.71889134533E+02  0.00000000000E+00 0.  1.
<mgrwt>
<rscale>  0 0.85499936E+02</rscale>
<asrwt>0</asrwt>
<pdfrwt beam="2">  1        2 0.25402957E-01 0.85499936E+02</pdfrwt>
<pdfrwt beam="1">  1       -2 0.17027881E-02 0.85499936E+02</pdfrwt>
<totfact> 0.17182247E+05</totfact>
</mgrwt>
</event>
<event>
 5    1  0.1227473E+001  0.9155958E+02  0.7546771E-02  0.1299118E+00
          3   -1    0    0  501    0  0.00000000000E+00  0.00000000000E+00  0.85274551277E+02  0.85274551277E+02  0.00000000000E+00 0. -1.
         -3   -1    0    0    0  501 -0.00000000000E+00 -0.00000000000E+00 -0.24576957119E+02  0.24576957119E+02  0.00000000000E+00 0.  1.
         23    2    1    2    0    0  0.00000000000E+00  0.00000000000E+00  0.60697594157E+02  0.10985150840E+03  0.91559576017E+02 0.  0.
        -11    1    3    3    0    0 -0.91388322203E+01  0.23635299499E+02 -0.15394891903E+02  0.29650435637E+02  0.00000000000E+00 0.  1.
         11    1    3    3    0    0  0.91388322203E+01 -0.23635299499E+02  0.76092486060E+02  0.80201072759E+02  0.00000000000E+00 0. -1.
<mgrwt>
<rscale>  0 0.91559576E+02</rscale>
<asrwt>0</asrwt>
<pdfrwt beam="1">  1        3 0.13119162E-01 0.91559576E+02</pdfrwt>
<pdfrwt beam="2">  1       -3 0.37810704E-02 0.91559576E+02</pdfrwt>
<totfact> 0.33570160E+04</totfact>
</mgrwt>
</event>
<event>
 5    1  0.1227473E+001  0.8690853E+02  0.7546771E-02  0.1310516E+00
          4   -1    0    0  501    0  0.00000000000E+00  0.00000000000E+00  0.63120320796E+01  0.63120320796E+01  0.00000000000E+00 0. -1.
         -4   -1    0    0    0  501 -0.00000000000E+00 -0.00000000000E+00 -0.29915455235E+03  0.29915455235E+03  0.00000000000E+00 0.  1.
         23    2    1    2    0    0  0.00000000000E+00  0.00000000000E+00 -0.29284252027E+03  0.30546658443E+03  0.86908529644E+02 0.  0.
        -11    1    3    3    0    0  0.10020105293E+02 -0.42246046477E+02 -0.14019084892E+03  0.14676036616E+03  0.00000000000E+00 0.  1.
         11    1    3    3    0    0 -0.10020105293E+02  0.42246046477E+02 -0.15265167135E+03  0.15870621828E+03  0.00000000000E+00 0. -1.
<mgrwt>
<rscale>  0 0.86908530E+02</rscale>
<asrwt>0</asrwt>
<pdfrwt beam="1">  1        4 0.97108167E-03 0.86908530E+02</pdfrwt>
<pdfrwt beam="2">  1       -4 0.46023786E-01 0.86908530E+02</pdfrwt>
<totfact> 0.20041414E+04</totfact>
</mgrwt>
</event>
<event>
 5    1  0.1227473E+001  0.9081495E+02  0.7546771E-02  0.1300890E+00
          1   -1    0    0  501    0  0.00000000000E+00  0.00000000000E+00  0.10043690904E+03  0.10043690904E+03  0.00000000000E+00 0. -1.
         -1   -1    0    0    0  501 -0.00000000000E+00 -0.00000000000E+00 -0.20528694441E+02  0.20528694441E+02  0.00000000000E+00 0.  1.
         23    2    1    2    0    0  0.00000000000E+00  0.00000000000E+00  0.79908214596E+02  0.12096560348E+03  0.90814946264E+02 0.  0.
        -13    1    3    3    0    0  0.16620035424E+02  0.24614899858E+02  0.85704411909E+02  0.90704823980E+02  0.00000000000E+00 0. -1.
         13    1    3    3    0    0 -0.16620035424E+02 -0.24614899858E+02 -0.57961973134E+01  0.30260779498E+02  0.00000000000E+00 0.  1.
<mgrwt>
<rscale>  0 0.90814946E+02</rscale>
<asrwt>0</asrwt>
<pdfrwt beam="1">  1        1 0.15451832E-01 0.90814946E+02</pdfrwt>
<pdfrwt beam="2">  1       -1 0.31582607E-02 0.90814946E+02</pdfrwt>
<totfact> 0.10566626E+05</totfact>
</mgrwt>
</event>
<event>
 5    1  0.1227473E+001  0.8589559E+02  0.7546771E-02  0.1313107E+00
         -1   -1    0    0    0  501 -0.00000000000E+00  0.00000000000E+00  0.23018308818E+02  0.23018308818E+02  0.00000000000E+00 0.  1.
          1   -1    0    0  501    0  0.00000000000E+00 -0.00000000000E+00 -0.80132436311E+02  0.80132436311E+02  0.00000000000E+00 0. -1.
         23    2    1    2    0    0  0.00000000000E+00  0.00000000000E+00 -0.57114127493E+02  0.10315074513E+03  0.85895591629E+02 0.  0.
        -13    1    3    3    0    0 -0.21581050721E+02  0.25096760892E+02  0.43069323672E+01  0.33378718128E+02  0.00000000000E+00 0.  1.
         13    1    3    3    0    0  0.21581050721E+02 -0.25096760892E+02 -0.61421059860E+02  0.69772027001E+02  0.00000000000E+00 0. -1.
<mgrwt>
<rscale>  0 0.85895592E+02</rscale>
<asrwt>0</asrwt>
<pdfrwt beam="2">  1        1 0.12328067E-01 0.85895592E+02</pdfrwt>
<pdfrwt beam="1">  1       -1 0.35412782E-02 0.85895592E+02</pdfrwt>
<totfact> 0.11860744E+05</totfact>
</mgrwt>
</event>
<event>
 5    1  0.1227473E+001  0.9066474E+02  0.7546771E-02  0.1301250E+00
         -1   -1    0    0    0  501 -0.00000000000E+00  0.00000000000E+00  0.10799994842E+02  0.10799994842E+02  0.00000000000E+00 0.  1.
          1   -1    0    0  501    0  0.00000000000E+00 -0.00000000000E+00 -0.19028008519E+03  0.19028008519E+03  0.00000000000E+00 0. -1.
         23    2    1    2    0    0  0.00000000000E+00  0.00000000000E+00 -0.17948009034E+03  0.20108008003E+03  0.90664743722E+02 0.  0.
        -13    1    3    3    0    0 -0.18038048092E+02  0.21790895645E+02 -0.11176778709E+02  0.30416026932E+02  0.00000000000E+00 0.  1.
         13    1    3    3    0    0  0.18038048092E+02 -0.21790895645E+02 -0.16830331163E+03  0.17066405310E+03  0.00000000000E+00 0. -1.
<mgrwt>
<rscale>  0 0.90664744E+02</rscale>
<asrwt>0</asrwt>
<pdfrwt beam="2">  1        1 0.29273856E-01 0.90664744E+02</pdfrwt>
<pdfrwt beam="1">  1       -1 0.16615379E-02 0.90664744E+02</pdfrwt>
<totfact> 0.11905585E+05</totfact>
</mgrwt>
</event>
<event>
 5    1  0.1227473E+001  0.9081959E+02  0.7546771E-02  0.1300879E+00
         -4   -1    0    0    0  501 -0.00000000000E+00  0.00000000000E+00  0.14389157962E+02  0.14389157962E+02  0.00000000000E+00 0.  1.
          4   -1    0    0  501    0  0.00000000000E+00 -0.00000000000E+00 -0.14330577616E+03  0.14330577616E+03  0.00000000000E+00 0. -1.
         23    2    1    2    0    0  0.00000000000E+00  0.00000000000E+00 -0.12891661820E+03  0.15769493412E+03  0.90819589298E+02 0.  0.
        -13    1    3    3    0    0 -0.26108081446E+01  0.33256930986E+02 -0.10962558448E+02  0.35114348427E+02  0.00000000000E+00 0.  1.
         13    1    3    3    0    0  0.26108081446E+01 -0.33256930986E+02 -0.11795405975E+03  0.12258058570E+03  0.00000000000E+00 0. -1.
<mgrwt>
<rscale>  0 0.90819589E+02</rscale>
<asrwt>0</asrwt>
<pdfrwt beam="2">  1        4 0.22047042E-01 0.90819589E+02</pdfrwt>
<pdfrwt beam="1">  1       -4 0.22137167E-02 0.90819589E+02</pdfrwt>
<totfact> 0.23539719E+04</totfact>
</mgrwt>
</event>
<event>
 5    1  0.1227473E+001  0.9088035E+02  0.7546771E-02  0.1300734E+00
         -1   -1    0    0    0  501 -0.00000000000E+00  0.00000000000E+00  0.32162295165E+02  0.32162295165E+02  0.00000000000E+00 0.  1.
          1   -1    0    0  501    0  0.00000000000E+00 -0.00000000000E+00 -0.64199690388E+02  0.64199690388E+02  0.00000000000E+00 0. -1.
         23    2    1    2    0    0  0.00000000000E+00  0.00000000000E+00 -0.32037395223E+02  0.96361985553E+02  0.90880347529E+02 0.  0.
        -11    1    3    3    0    0 -0.39714585351E+02 -0.20819657646E+02 -0.23817829502E+02  0.50773964157E+02  0.00000000000E+00 0. -1.
         11    1    3    3    0    0  0.39714585351E+02  0.20819657646E+02 -0.82195657210E+01  0.45588021395E+02  0.00000000000E+00 0.  1.
<mgrwt>
<rscale>  0 0.90880348E+02</rscale>
<asrwt>0</asrwt>
<pdfrwt beam="2">  1        1 0.98768754E-02 0.90880348E+02</pdfrwt>
<pdfrwt beam="1">  1       -1 0.49480454E-02 0.90880348E+02</pdfrwt>
<totfact> 0.98247785E+04</totfact>
</mgrwt>
</event>
<event>
 5    1  0.1227473E+001  0.1083196E+03  0.7546771E-02  0.1263714E+00
         -2   -1    0    0    0  501 -0.00000000000E+00  0.00000000000E+00  0.45944878658E+02  0.45944878658E+02  0.00000000000E+00 0.  1.
          2   -1    0    0  501    0  0.00000000000E+00 -0.00000000000E+00 -0.63843552359E+02  0.63843552359E+02  0.00000000000E+00 0. -1.
         23    2    1    2    0    0  0.00000000000E+00  0.00000000000E+00 -0.17898673701E+02  0.10978843102E+03  0.10831960610E+03 0.  0.
        -13    1    3    3    0    0  0.29943967844E+02 -0.23309343945E+01  0.36730747618E+02  0.47447047178E+02  0.00000000000E+00 0.  1.
         13    1    3    3    0    0 -0.29943967844E+02  0.23309343945E+01 -0.54629421318E+02  0.62341383839E+02  0.00000000000E+00 0. -1.
<mgrwt>
<rscale>  0 0.10831961E+03</rscale>
<asrwt>0</asrwt>
<pdfrwt beam="2">  1        2 0.98220850E-02 0.10831961E+03</pdfrwt>
<pdfrwt beam="1">  1       -2 0.70684429E-02 0.10831961E+03</pdfrwt>
<totfact> 0.65929038E+04</totfact>
</mgrwt>
</event>
<event>
 5    1  0.1227473E+001  0.9133411E+02  0.7546771E-02  0.1299653E+00
          1   -1    0    0  501    0  0.00000000000E+00  0.00000000000E+00  0.15791403309E+03  0.15791403309E+03  0.00000000000E+00 0. -1.
         -1   -1    0    0    0  501 -0.00000000000E+00 -0.00000000000E+00 -0.13206424297E+02  0.13206424297E+02  0.00000000000E+00 0.  1.
         23    2    1    2    0    0  0.00000000000E+00  0.00000000000E+00  0.14470760880E+03  0.17112045739E+03  0.91334105865E+02 0.  0.
        -11    1    3    3    0    0  0.22673416818E+02  0.30123396309E+02  0.24076231068E+02  0.44734413351E+02  0.00000000000E+00 0.  1.
         11    1    3    3    0    0 -0.22673416818E+02 -0.30123396309E+02  0.12063137773E+03  0.12638604404E+03  0.00000000000E+00 0. -1.
<mgrwt>
<rscale>  0 0.91334106E+02</rscale>
<asrwt>0</asrwt>
<pdfrwt beam="1">  1        1 0.24294465E-01 0.91334106E+02</pdfrwt>
<pdfrwt beam="2">  1       -1 0.20317577E-02 0.91334106E+02</pdfrwt>
<totfact> 0.11267847E+05</totfact>
</mgrwt>
</event>
<event>
 5    1  0.1227473E+001  0.8841346E+02  0.7546771E-02  0.1306740E+00
          2   -1    0    0  501    0  0.00000000000E+00  0.00000000000E+00  0.27214494227E+02  0.27214494227E+02  0.00000000000E+00 0. -1.
         -2   -1    0    0    0  501 -0.00000000000E+00 -0.00000000000E+00 -0.71808605674E+02  0.71808605674E+02  0.00000000000E+00 0.  1.
         23    2    1    2    0    0  0.00000000000E+00  0.00000000000E+00 -0.44594111447E+02  0.99023099900E+02  0.88413457902E+02 0.  0.
        -13    1    3    3    0    0 -0.82011783798E+01  0.39890284343E+02 -0.30362813866E+01  0.40837643375E+02  0.00000000000E+00 0. -1.
         13    1    3    3    0    0  0.82011783798E+01 -0.39890284343E+02 -0.41557830060E+02  0.58185456525E+02  0.00000000000E+00 0.  1.
<mgrwt>
<rscale>  0 0.88413458E+02</rscale>
<asrwt>0</asrwt>
<pdfrwt beam="1">  1        2 0.41868453E-02 0.88413458E+02</pdfrwt>
<pdfrwt beam="2">  1       -2 0.11047478E-01 0.88413458E+02</pdfrwt>
<totfact> 0.94450626E+04</totfact>
</mgrwt>
</event>
<event>
 5    1  0.1227473E+001  0.9124648E+02  0.7546771E-02  0.1299861E+00
         -1   -1    0    0    0  501 -0.00000000000E+00  0.00000000000E+00  0.17004501238E+03  0.17004501238E+03  0.00000000000E+00 0.  1.
          1   -1    0    0  501    0  0.00000000000E+00 -0.00000000000E+00 -0.12240758678E+02  0.12240758678E+02  0.00000000000E+00 0. -1.
         23    2    1    2    0    0  0.00000000000E+00  0.00000000000E+00  0.15780425370E+03  0.18228577106E+03  0.91246478529E+02 0.  0.
        -11    1    3    3    0    0 -0.18262292664E+02 -0.35145817025E+02  0.33666008691E+02  0.51982111624E+02  0.00000000000E+00 0. -1.
         11    1    3    3    0    0  0.18262292664E+02  0.35145817025E+02  0.12413824501E+03  0.13030365944E+03  0.00000000000E+00 0.  1.
<mgrwt>
<rscale>  0 0.91246479E+02</rscale>
<asrwt>0</asrwt>
<pdfrwt beam="2">  1        1 0.18831938E-02 0.91246479E+02</pdfrwt>
<pdfrwt beam="1">  1       -1 0.26160770E-01 0.91246479E+02</pdfrwt>
<totfact> 0.72389490E+04</totfact>
</mgrwt>
</event>
<event>
 5    1  0.1227473E+001  0.9232410E+02  0.7546771E-02  0.1297319E+00
         -2   -1    0    0    0  501 -0.00000000000E+00  0.00000000000E+00  0.75924053098E+02  0.75924053098E+02  0.00000000000E+00 0.  1.
          2   -1    0    0  501    0  0.00000000000E+00 -0.00000000000E+00 -0.28066663630E+02  0.28066663630E+02  0.00000000000E+00 0. -1.
         23    2    1    2    0    0  0.00000000000E+00  0.00000000000E+00  0.47857389468E+02  0.10399071673E+03  0.92324099989E+02 0.  0.
        -13    1    3    3    0    0  0.10144863067E+02  0.29222562776E+02  0.62523099374E+02  0.69756823159E+02  0.00000000000E+00 0.  1.
         13    1    3    3    0    0 -0.10144863067E+02 -0.29222562776E+02 -0.14665709906E+02  0.34233893569E+02  0.00000000000E+00 0. -1.
<mgrwt>
<rscale>  0 0.92324100E+02</rscale>
<asrwt>0</asrwt>
<pdfrwt beam="2">  1        2 0.43179483E-02 0.92324100E+02</pdfrwt>
<pdfrwt beam="1">  1       -2 0.11680623E-01 0.92324100E+02</pdfrwt>
<totfact> 0.83703037E+04</totfact>
</mgrwt>
</event>
<event>
 5    1  0.1227473E+001  0.9412240E+02  0.7546771E-02  0.1293165E+00
          1   -1    0    0  501    0  0.00000000000E+00  0.00000000000E+00  0.12473851621E+02  0.12473851621E+02  0.00000000000E+00 0. -1.
         -1   -1    0    0    0  501 -0.00000000000E+00 -0.00000000000E+00 -0.17755195757E+03  0.17755195757E+03  0.00000000000E+00 0.  1.
         23    2    1    2    0    0  0.00000000000E+00  0.00000000000E+00 -0.16507810595E+03  0.19002580919E+03  0.94122404851E+02 0.  0.
        -13    1    3    3    0    0  0.41163849145E+02  0.22605633209E+02 -0.76388909518E+02  0.89670188059E+02  0.00000000000E+00 0. -1.
         13    1    3    3    0    0 -0.41163849145E+02 -0.22605633209E+02 -0.88689196429E+02  0.10035562113E+03  0.00000000000E+00 0.  1.
<mgrwt>
<rscale>  0 0.94122405E+02</rscale>
<asrwt>0</asrwt>
<pdfrwt beam="1">  1        1 0.19190542E-02 0.94122405E+02</pdfrwt>
<pdfrwt beam="2">  1       -1 0.27315685E-01 0.94122405E+02</pdfrwt>
<totfact> 0.66024819E+04</totfact>
</mgrwt>
</event>
<event>
 5    1  0.1227473E+001  0.9151044E+02  0.7546771E-02  0.1299235E+00
         -3   -1    0    0    0  501 -0.00000000000E+00  0.00000000000E+00  0.14679395026E+02  0.14679395026E+02  0.00000000000E+00 0.  1.
          3   -1    0    0  501    0  0.00000000000E+00 -0.00000000000E+00 -0.14261761045E+03  0.14261761045E+03  0.00000000000E+00 0. -1.
         23    2    1    2    0    0  0.00000000000E+00  0.00000000000E+00 -0.12793821542E+03  0.15729700547E+03  0.91510441841E+02 0.  0.
        -11    1    3    3    0    0 -0.39768594468E+02 -0.21116470618E+02 -0.77943411405E+02  0.90014564482E+02  0.00000000000E+00 0. -1.
         11    1    3    3    0    0  0.39768594468E+02  0.21116470618E+02 -0.49994804016E+02  0.67282440992E+02  0.00000000000E+00 0.  1.
<mgrwt>
<rscale>  0 0.91510442E+02</rscale>
<asrwt>0</asrwt>
<pdfrwt beam="2">  1        3 0.21941171E-01 0.91510442E+02</pdfrwt>
<pdfrwt beam="1">  1       -3 0.22583685E-02 0.91510442E+02</pdfrwt>
<totfact> 0.30562362E+04</totfact>
</mgrwt>
</event>
<event>
 5    1  0.1227473E+001  0.9895141E+02  0.7546771E-02  0.1282517E+00
          3   -1    0    0  501    0  0.00000000000E+00  0.00000000000E+00  0.45215909227E+02  0.45215909227E+02  0.00000000000E+00 0. -1.
         -3   -1    0    0    0  501 -0.00000000000E+00 -0.00000000000E+00 -0.54136816843E+02  0.54136816843E+02  0.00000000000E+00 0.  1.
         23    2    1    2    0    0  0.00000000000E+00  0.00000000000E+00 -0.89209076153E+01  0.99352726070E+02  0.98951410222E+02 0.  0.
        -11    1    3    3    0    0  0.49731260755E+01  0.37796976898E+02 -0.36124077796E+02  0.52519448228E+02  0.00000000000E+00 0.  1.
         11    1    3    3    0    0 -0.49731260755E+01 -0.37796976898E+02  0.27203170181E+02  0.46833277842E+02  0.00000000000E+00 0. -1.
<mgrwt>
<rscale>  0 0.98951410E+02</rscale>
<asrwt>0</asrwt>
<pdfrwt beam="1">  1        3 0.69562938E-02 0.98951410E+02</pdfrwt>
<pdfrwt beam="2">  1       -3 0.83287410E-02 0.98951410E+02</pdfrwt>
<totfact> 0.27749662E+04</totfact>
</mgrwt>
</event>
<event>
 5    1  0.1227473E+001  0.9944367E+02  0.7546771E-02  0.1281470E+00
         -2   -1    0    0    0  501 -0.00000000000E+00  0.00000000000E+00  0.55445547164E+02  0.55445547164E+02  0.00000000000E+00 0.  1.
          2   -1    0    0  501    0  0.00000000000E+00 -0.00000000000E+00 -0.44588989861E+02  0.44588989861E+02  0.00000000000E+00 0. -1.
         23    2    1    2    0    0  0.00000000000E+00  0.00000000000E+00  0.10856557303E+02  0.10003453703E+03  0.99443671299E+02 0.  0.
        -13    1    3    3    0    0  0.50413517764E+01  0.40633776335E+02  0.33804785944E+02  0.53096916669E+02  0.00000000000E+00 0.  1.
         13    1    3    3    0    0 -0.50413517764E+01 -0.40633776335E+02 -0.22948228641E+02  0.46937620357E+02  0.00000000000E+00 0. -1.
<mgrwt>
<rscale>  0 0.99443671E+02</rscale>
<asrwt>0</asrwt>
<pdfrwt beam="2">  1        2 0.68598446E-02 0.99443671E+02</pdfrwt>
<pdfrwt beam="1">  1       -2 0.85300842E-02 0.99443671E+02</pdfrwt>
<totfact> 0.76260769E+04</totfact>
</mgrwt>
</event>
<event>
 5    1  0.1227473E+001  0.1126649E+03  0.7546771E-02  0.1255713E+00
          1   -1    0    0  501    0  0.00000000000E+00  0.00000000000E+00  0.19355121804E+02  0.19355121804E+02  0.00000000000E+00 0. -1.
         -1   -1    0    0    0  501 -0.00000000000E+00 -0.00000000000E+00 -0.16395372573E+03  0.16395372573E+03  0.00000000000E+00 0.  1.
         23    2    1    2    0    0  0.00000000000E+00  0.00000000000E+00 -0.14459860393E+03  0.18330884753E+03  0.11266488950E+03 0.  0.
        -11    1    3    3    0    0  0.21797780889E+02  0.42632453926E+02 -0.24015367234E+02  0.53566848356E+02  0.00000000000E+00 0. -1.
         11    1    3    3    0    0 -0.21797780889E+02 -0.42632453926E+02 -0.12058323669E+03  0.12974199918E+03  0.00000000000E+00 0.  1.
<mgrwt>
<rscale>  0 0.11266489E+03</rscale>
<asrwt>0</asrwt>
<pdfrwt beam="1">  1        1 0.29777110E-02 0.11266489E+03</pdfrwt>
<pdfrwt beam="2">  1       -1 0.25223651E-01 0.11266489E+03</pdfrwt>
<totfact> 0.42113250E+04</totfact>
</mgrwt>
</event>
<event>
 5    1  0.1227473E+001  0.9111281E+02  0.7546771E-02  0.1300179E+00
          1   -1    0    0  501    0  0.00000000000E+00  0.00000000000E+00  0.20077235281E+02  0.20077235281E+02  0.00000000000E+00 0. -1.
         -1   -1    0    0    0  501 -0.00000000000E+00 -0.00000000000E+00 -0.10337010759E+03  0.10337010759E+03  0.00000000000E+00 0.  1.
         23    2    1    2    0    0  0.00000000000E+00  0.00000000000E+00 -0.83292872305E+02  0.12344734287E+03  0.91112808564E+02 0.  0.
        -13    1    3    3    0    0 -0.33500971812E+01  0.45042874753E+02 -0.49696577943E+02  0.67155294478E+02  0.00000000000E+00 0.  1.
         13    1    3    3    0    0  0.33500971812E+01 -0.45042874753E+02 -0.33596294362E+02  0.56292048390E+02  0.00000000000E+00 0. -1.
<mgrwt>
<rscale>  0 0.91112809E+02</rscale>
<asrwt>0</asrwt>
<pdfrwt beam="1">  1        1 0.30888054E-02 0.91112809E+02</pdfrwt>
<pdfrwt beam="2">  1       -1 0.15903093E-01 0.91112809E+02</pdfrwt>
<totfact> 0.81013259E+04</totfact>
</mgrwt>
</event>
<event>
 5    1  0.1227473E+001  0.9170830E+02  0.7546771E-02  0.1298767E+00
          1   -1    0    0  501    0  0.00000000000E+00  0.00000000000E+00  0.25010497933E+03  0.25010497933E+03  0.00000000000E+00 0. -1.
         -1   -1    0    0    0  501 -0.00000000000E+00 -0.00000000000E+00 -0.84068828476E+01  0.84068828476E+01  0.00000000000E+00 0.  1.
         23    2    1    2    0    0  0.00000000000E+00  0.00000000000E+00  0.24169809649E+03  0.25851186218E+03  0.91708304114E+02 0.  0.
        -13    1    3    3    0    0  0.26450673998E+02  0.31573388195E+02  0.64044780819E+02  0.76146247098E+02  0.00000000000E+00 0.  1.
         13    1    3    3    0    0 -0.26450673998E+02 -0.31573388195E+02  0.17765331567E+03  0.18236561508E+03  0.00000000000E+00 0. -1.
<mgrwt>
<rscale>  0 0.91708304E+02</rscale>
<asrwt>0</asrwt>
<pdfrwt beam="1">  1        1 0.38477683E-01 0.91708304E+02</pdfrwt>
<pdfrwt beam="2">  1       -1 0.12933668E-02 0.91708304E+02</pdfrwt>
<totfact> 0.12177267E+05</totfact>
</mgrwt>
</event>
<event>
 5    1  0.1227473E+001  0.9058553E+02  0.7546771E-02  0.1301440E+00
          1   -1    0    0  501    0  0.00000000000E+00  0.00000000000E+00  0.38227519661E+02  0.38227519661E+02  0.00000000000E+00 0. -1.
         -1   -1    0    0    0  501 -0.00000000000E+00 -0.00000000000E+00 -0.53663814730E+02  0.53663814730E+02  0.00000000000E+00 0.  1.
         23    2    1    2    0    0  0.00000000000E+00  0.00000000000E+00 -0.15436295069E+02  0.91891334390E+02  0.90585529366E+02 0.  0.
        -11    1    3    3    0    0 -0.17311538286E+02 -0.26906654714E+02 -0.40239245633E+02  0.51408698824E+02  0.00000000000E+00 0.  1.
         11    1    3    3    0    0  0.17311538286E+02  0.26906654714E+02  0.24802950564E+02  0.40482635566E+02  0.00000000000E+00 0. -1.
<mgrwt>
<rscale>  0 0.90585529E+02</rscale>
<asrwt>0</asrwt>
<pdfrwt beam="1">  1        1 0.58811569E-02 0.90585529E+02</pdfrwt>
<pdfrwt beam="2">  1       -1 0.82559715E-02 0.90585529E+02</pdfrwt>
<totfact> 0.91711644E+04</totfact>
</mgrwt>
</event>
<event>
 5    1  0.1227473E+001  0.9043212E+02  0.7546771E-02  0.1301809E+00
         -4   -1    0    0    0  501 -0.00000000000E+00  0.00000000000E+00  0.16961484825E+03  0.16961484825E+03  0.00000000000E+00 0.  1.
          4   -1    0    0  501    0  0.00000000000E+00 -0.00000000000E+00 -0.12053732753E+02  0.12053732753E+02  0.00000000000E+00 0. -1.
         23    2    1    2    0    0  0.00000000000E+00  0.00000000000E+00  0.15756111550E+03  0.18166858101E+03  0.90432119334E+02 0.  0.
        -13    1    3    3    0    0 -0.40914510748E+02  0.58187147957E+01  0.11563911316E+03  0.12280170652E+03  0.00000000000E+00 0.  1.
         13    1    3    3    0    0  0.40914510748E+02 -0.58187147957E+01  0.41922002337E+02  0.58866874484E+02  0.00000000000E+00 0. -1.
<mgrwt>
<rscale>  0 0.90432119E+02</rscale>
<asrwt>0</asrwt>
<pdfrwt beam="2">  1        4 0.18544205E-02 0.90432119E+02</pdfrwt>
<pdfrwt beam="1">  1       -4 0.26094590E-01 0.90432119E+02</pdfrwt>
<totfact> 0.22669003E+04</totfact>
</mgrwt>
</event>
<event>
 5    1  0.1227473E+001  0.9233079E+02  0.7546771E-02  0.1297304E+00
         -4   -1    0    0    0  501 -0.00000000000E+00  0.00000000000E+00  0.10712627792E+03  0.10712627792E+03  0.00000000000E+00 0.  1.
          4   -1    0    0  501    0  0.00000000000E+00 -0.00000000000E+00 -0.19894688031E+02  0.19894688031E+02  0.00000000000E+00 0. -1.
         23    2    1    2    0    0  0.00000000000E+00  0.00000000000E+00  0.87231589887E+02  0.12702096595E+03  0.92330793976E+02 0.  0.
        -13    1    3    3    0    0 -0.23334230790E+02  0.11040347084E+01 -0.11163603502E+02  0.25890756311E+02  0.00000000000E+00 0. -1.
         13    1    3    3    0    0  0.23334230790E+02 -0.11040347084E+01  0.98395193390E+02  0.10113020964E+03  0.00000000000E+00 0.  1.
<mgrwt>
<rscale>  0 0.92330794E+02</rscale>
<asrwt>0</asrwt>
<pdfrwt beam="2">  1        4 0.30607213E-02 0.92330794E+02</pdfrwt>
<pdfrwt beam="1">  1       -4 0.16480966E-01 0.92330794E+02</pdfrwt>
<totfact> 0.24047989E+04</totfact>
</mgrwt>
</event>
<event>
 5    1  0.1227473E+001  0.8662114E+02  0.7546771E-02  0.1311247E+00
          1   -1    0    0  501    0  0.00000000000E+00  0.00000000000E+00  0.16624564423E+02  0.16624564423E+02  0.00000000000E+00 0. -1.
         -1   -1    0    0    0  501 -0.00000000000E+00 -0.00000000000E+00 -0.11283335830E+03  0.11283335830E+03  0.00000000000E+00 0.  1.
         23    2    1    2    0    0  0.00000000000E+00  0.00000000000E+00 -0.96208793874E+02  0.12945792272E+03  0.86621139084E+02 0.  0.
        -11    1    3    3    0    0  0.31208291517E+02 -0.15631104398E+02 -0.86427272404E+02  0.93209239345E+02  0.00000000000E+00 0.  1.
         11    1    3    3    0    0 -0.31208291517E+02  0.15631104398E+02 -0.97815214701E+01  0.36248683375E+02  0.00000000000E+00 0. -1.
<mgrwt>
<rscale>  0 0.86621139E+02</rscale>
<asrwt>0</asrwt>
<pdfrwt beam="1">  1        1 0.25576253E-02 0.86621139E+02</pdfrwt>
<pdfrwt beam="2">  1       -1 0.17358978E-01 0.86621139E+02</pdfrwt>
<totfact> 0.90737408E+04</totfact>
</mgrwt>
</event>
<event>
 5    1  0.1227473E+001  0.8651913E+02  0.7546771E-02  0.1311507E+00
         -3   -1    0    0    0  501 -0.00000000000E+00  0.00000000000E+00  0.74877265690E+02  0.74877265690E+02  0.00000000000E+00 0.  1.
          3   -1    0    0  501    0  0.00000000000E+00 -0.00000000000E+00 -0.24992765189E+02  0.24992765189E+02  0.00000000000E+00 0. -1.
         23    2    1    2    0    0  0.00000000000E+00  0.00000000000E+00  0.49884500501E+02  0.99870030879E+02  0.86519128969E+02 0.  0.
        -13    1    3    3    0    0  0.25171295560E+02  0.94865242041E+01 -0.14164926971E+02  0.30401207504E+02  0.00000000000E+00 0. -1.
         13    1    3    3    0    0 -0.25171295560E+02 -0.94865242041E+01  0.64049427472E+02  0.69468823375E+02  0.00000000000E+00 0.  1.
<mgrwt>
<rscale>  0 0.86519129E+02</rscale>
<asrwt>0</asrwt>
<pdfrwt beam="2">  1        3 0.38450408E-02 0.86519129E+02</pdfrwt>
<pdfrwt beam="1">  1       -3 0.11519579E-01 0.86519129E+02</pdfrwt>
<totfact> 0.39976375E+04</totfact>
</mgrwt>
</event>
<event>
 5    1  0.1227473E+001  0.8966749E+02  0.7546771E-02  0.1303659E+00
          2   -1    0    0  501    0  0.00000000000E+00  0.00000000000E+00  0.12001534960E+03  0.12001534960E+03  0.00000000000E+00 0. -1.
         -2   -1    0    0    0  501 -0.00000000000E+00 -0.00000000000E+00 -0.16748398361E+02  0.16748398361E+02  0.00000000000E+00 0.  1.
         23    2    1    2    0    0  0.00000000000E+00  0.00000000000E+00  0.10326695124E+03  0.13676374796E+03  0.89667494324E+02 0.  0.
        -13    1    3    3    0    0 -0.54765957182E+01 -0.32641014665E+02  0.55059570165E+01  0.33552116202E+02  0.00000000000E+00 0.  1.
         13    1    3    3    0    0  0.54765957182E+01  0.32641014665E+02  0.97760994224E+02  0.10321163176E+03  0.00000000000E+00 0. -1.
<mgrwt>
<rscale>  0 0.89667494E+02</rscale>
<asrwt>0</asrwt>
<pdfrwt beam="1">  1        2 0.18463899E-01 0.89667494E+02</pdfrwt>
<pdfrwt beam="2">  1       -2 0.25766767E-02 0.89667494E+02</pdfrwt>
<totfact> 0.13592193E+05</totfact>
</mgrwt>
</event>
<event>
 5    1  0.1227473E+001  0.9217094E+02  0.7546771E-02  0.1297678E+00
          2   -1    0    0  501    0  0.00000000000E+00  0.00000000000E+00  0.36493295349E+02  0.36493295349E+02  0.00000000000E+00 0. -1.
         -2   -1    0    0    0  501 -0.00000000000E+00 -0.00000000000E+00 -0.58198930829E+02  0.58198930829E+02  0.00000000000E+00 0.  1.
         23    2    1    2    0    0  0.00000000000E+00  0.00000000000E+00 -0.21705635480E+02  0.94692226177E+02  0.92170944917E+02 0.  0.
        -11    1    3    3    0    0  0.81935023244E+01  0.20506450396E+02 -0.52409560961E+02  0.56871874141E+02  0.00000000000E+00 0.  1.
         11    1    3    3    0    0 -0.81935023244E+01 -0.20506450396E+02  0.30703925481E+02  0.37820352036E+02  0.00000000000E+00 0. -1.
<mgrwt>
<rscale>  0 0.92170945E+02</rscale>
<asrwt>0</asrwt>
<pdfrwt beam="1">  1        2 0.56143532E-02 0.92170945E+02</pdfrwt>
<pdfrwt beam="2">  1       -2 0.89536816E-02 0.92170945E+02</pdfrwt>
<totfact> 0.90239205E+04</totfact>
</mgrwt>
</event>
<event>
 5    1  0.1227473E+001  0.8828964E+02  0.7546771E-02  0.1307047E+00
         -2   -1    0    0    0  501 -0.00000000000E+00  0.00000000000E+00  0.91381935886E+01  0.91381935886E+01  0.00000000000E+00 0.  1.
          2   -1    0    0  501    0  0.00000000000E+00 -0.00000000000E+00 -0.21325495809E+03  0.21325495809E+03  0.00000000000E+00 0. -1.
         23    2    1    2    0    0  0.00000000000E+00  0.00000000000E+00 -0.20411676451E+03  0.22239315168E+03  0.88289639048E+02 0.  0.
        -13    1    3    3    0    0 -0.24532350842E+02  0.34777715365E+02 -0.13158864026E+03  0.13830002158E+03  0.00000000000E+00 0. -1.
         13    1    3    3    0    0  0.24532350842E+02 -0.34777715365E+02 -0.72528124249E+02  0.84093130105E+02  0.00000000000E+00 0.  1.
<mgrwt>
<rscale>  0 0.88289639E+02</rscale>
<asrwt>0</asrwt>
<pdfrwt beam="2">  1        2 0.32808454E-01 0.88289639E+02</pdfrwt>
<pdfrwt beam="1">  1       -2 0.14058760E-02 0.88289639E+02</pdfrwt>
<totfact> 0.17259477E+05</totfact>
</mgrwt>
</event>
<event>
 5    1  0.1227473E+001  0.9060181E+02  0.7546771E-02  0.1301401E+00
          1   -1    0    0  501    0  0.00000000000E+00  0.00000000000E+00  0.10580965382E+03  0.10580965382E+03  0.00000000000E+00 0. -1.
         -1   -1    0    0    0  501 -0.00000000000E+00 -0.00000000000E+00 -0.19394941366E+02  0.19394941366E+02  0.00000000000E+00 0.  1.
         23    2    1    2    0    0  0.00000000000E+00  0.00000000000E+00  0.86414712456E+02  0.12520459519E+03  0.90601810838E+02 0.  0.
        -13    1    3    3    0    0 -0.17512610387E+02 -0.27427405188E+02 -0.34439985554E+00  0.32543397013E+02  0.00000000000E+00 0. -1.
         13    1    3    3    0    0  0.17512610387E+02  0.27427405188E+02  0.86759112311E+02  0.92661198174E+02  0.00000000000E+00 0.  1.
<mgrwt>
<rscale>  0 0.90601811E+02</rscale>
<asrwt>0</asrwt>
<pdfrwt beam="1">  1        1 0.16278408E-01 0.90601811E+02</pdfrwt>
<pdfrwt beam="2">  1       -1 0.29838372E-02 0.90601811E+02</pdfrwt>
<totfact> 0.10727367E+05</totfact>
</mgrwt>
</event>
<event>
 5    1  0.1227473E+001  0.8793595E+02  0.7546771E-02  0.1307928E+00
          1   -1    0    0  501    0  0.00000000000E+00  0.00000000000E+00  0.36336055083E+03  0.36336055083E+03  0.00000000000E+00 0. -1.
         -1   -1    0    0    0  501 -0.00000000000E+00 -0.00000000000E+00 -0.53202882353E+01  0.53202882353E+01  0.00000000000E+00 0.  1.
         23    2    1    2    0    0  0.00000000000E+00  0.00000000000E+00  0.35804026260E+03  0.36868083907E+03  0.87935950868E+02 0.  0.
        -13    1    3    3    0    0 -0.38053773396E+02  0.16250381248E+02  0.24135028869E+03  0.24487165294E+03  0.00000000000E+00 0.  1.
         13    1    3    3    0    0  0.38053773396E+02 -0.16250381248E+02  0.11668997390E+03  0.12380918613E+03  0.00000000000E+00 0. -1.
<mgrwt>
<rscale>  0 0.87935951E+02</rscale>
<asrwt>0</asrwt>
<pdfrwt beam="1">  1        1 0.55901604E-01 0.87935951E+02</pdfrwt>
<pdfrwt beam="2">  1       -1 0.81850617E-03 0.87935951E+02</pdfrwt>
<totfact> 0.14607622E+05</totfact>
</mgrwt>
</event>
<event>
 5    1  0.1227473E+001  0.9022151E+02  0.7546771E-02  0.1302316E+00
          2   -1    0    0  501    0  0.00000000000E+00  0.00000000000E+00  0.99318962473E+02  0.99318962473E+02  0.00000000000E+00 0. -1.
         -2   -1    0    0    0  501 -0.00000000000E+00 -0.00000000000E+00 -0.20489344509E+02  0.20489344509E+02  0.00000000000E+00 0.  1.
         23    2    1    2    0    0  0.00000000000E+00  0.00000000000E+00  0.78829617964E+02  0.11980830698E+03  0.90221514916E+02 0.  0.
        -13    1    3    3    0    0 -0.40758598193E+01  0.29513733060E+02  0.84394524778E+02  0.89499211644E+02  0.00000000000E+00 0. -1.
         13    1    3    3    0    0  0.40758598193E+01 -0.29513733060E+02 -0.55649068137E+01  0.30309095339E+02  0.00000000000E+00 0.  1.
<mgrwt>
<rscale>  0 0.90221515E+02</rscale>
<asrwt>0</asrwt>
<pdfrwt beam="1">  1        2 0.15279840E-01 0.90221515E+02</pdfrwt>
<pdfrwt beam="2">  1       -2 0.31522069E-02 0.90221515E+02</pdfrwt>
<totfact> 0.12601901E+05</totfact>
</mgrwt>
</event>
<event>
 5    1  0.1227473E+001  0.9149796E+02  0.7546771E-02  0.1299264E+00
          1   -1    0    0  501    0  0.00000000000E+00  0.00000000000E+00  0.43421140157E+02  0.43421140157E+02  0.00000000000E+00 0. -1.
         -1   -1    0    0    0  501 -0.00000000000E+00 -0.00000000000E+00 -0.48201619623E+02  0.48201619623E+02  0.00000000000E+00 0.  1.
         23    2    1    2    0    0  0.00000000000E+00  0.00000000000E+00 -0.47804794666E+01  0.91622759780E+02  0.91497962414E+02 0.  0.
        -11    1    3    3    0    0 -0.95448997159E+01  0.37339211213E+02 -0.27074368073E+02  0.47099290983E+02  0.00000000000E+00 0.  1.
         11    1    3    3    0    0  0.95448997159E+01 -0.37339211213E+02  0.22293888606E+02  0.44523468797E+02  0.00000000000E+00 0. -1.
<mgrwt>
<rscale>  0 0.91497962E+02</rscale>
<asrwt>0</asrwt>
<pdfrwt beam="1">  1        1 0.66801755E-02 0.91497962E+02</pdfrwt>
<pdfrwt beam="2">  1       -1 0.74156337E-02 0.91497962E+02</pdfrwt>
<totfact> 0.90891978E+04</totfact>
</mgrwt>
</event>
<event>
 5    1  0.1227473E+001  0.8774207E+02  0.7546771E-02  0.1308414E+00
         -1   -1    0    0    0  501 -0.00000000000E+00  0.00000000000E+00  0.26235178941E+02  0.26235178941E+02  0.00000000000E+00 0.  1.
          1   -1    0    0  501    0  0.00000000000E+00 -0.00000000000E+00 -0.73362094818E+02  0.73362094818E+02  0.00000000000E+00 0. -1.
         23    2    1    2    0    0  0.00000000000E+00  0.00000000000E+00 -0.47126915877E+02  0.99597273759E+02  0.87742069386E+02 0.  0.
        -11    1    3    3    0    0 -0.13048858986E+02 -0.15756027872E+02  0.20489250704E+02  0.28954007142E+02  0.00000000000E+00 0.  1.
         11    1    3    3    0    0  0.13048858986E+02  0.15756027872E+02 -0.67616166582E+02  0.70643266617E+02  0.00000000000E+00 0. -1.
<mgrwt>
<rscale>  0 0.87742069E+02</rscale>
<asrwt>0</asrwt>
<pdfrwt beam="2">  1        1 0.11286476E-01 0.87742069E+02</pdfrwt>
<pdfrwt beam="1">  1       -1 0.40361815E-02 0.87742069E+02</pdfrwt>
<totfact> 0.11042754E+05</totfact>
</mgrwt>
</event>
<event>
 5    1  0.1227473E+001  0.1012842E+03  0.7546771E-02  0.1277618E+00
          4   -1    0    0  501    0  0.00000000000E+00  0.00000000000E+00  0.13617574476E+02  0.13617574476E+02  0.00000000000E+00 0. -1.
         -4   -1    0    0    0  501 -0.00000000000E+00 -0.00000000000E+00 -0.18833187604E+03  0.18833187604E+03  0.00000000000E+00 0.  1.
         23    2    1    2    0    0  0.00000000000E+00  0.00000000000E+00 -0.17471430157E+03  0.20194945052E+03  0.10128422085E+03 0.  0.
        -11    1    3    3    0    0  0.18687281462E+02 -0.44160563403E+02 -0.11983082621E+03  0.12906896125E+03  0.00000000000E+00 0. -1.
         11    1    3    3    0    0 -0.18687281462E+02  0.44160563403E+02 -0.54883475361E+02  0.72880489270E+02  0.00000000000E+00 0.  1.
<mgrwt>
<rscale>  0 0.10128422E+03</rscale>
<asrwt>0</asrwt>
<pdfrwt beam="1">  1        4 0.20950117E-02 0.10128422E+03</pdfrwt>
<pdfrwt beam="2">  1       -4 0.28974131E-01 0.10128422E+03</pdfrwt>
<totfact> 0.16042081E+04</totfact>
</mgrwt>
</event>
<event>
 5    1  0.1227473E+001  0.9125444E+02  0.7546771E-02  0.1299842E+00
         -1   -1    0    0    0  501 -0.00000000000E+00  0.00000000000E+00  0.10322967558E+03  0.10322967558E+03  0.00000000000E+00 0.  1.
          1   -1    0    0  501    0  0.00000000000E+00 -0.00000000000E+00 -0.20167099283E+02  0.20167099283E+02  0.00000000000E+00 0. -1.
         23    2    1    2    0    0  0.00000000000E+00  0.00000000000E+00  0.83062576292E+02  0.12339677486E+03  0.91254438058E+02 0.  0.
        -13    1    3    3    0    0  0.14985309646E+02 -0.12672265218E+02 -0.14168301928E+02  0.24205094309E+02  0.00000000000E+00 0. -1.
         13    1    3    3    0    0 -0.14985309646E+02  0.12672265218E+02  0.97230878220E+02  0.99191680550E+02  0.00000000000E+00 0.  1.
<mgrwt>
<rscale>  0 0.91254438E+02</rscale>
<asrwt>0</asrwt>
<pdfrwt beam="2">  1        1 0.31026307E-02 0.91254438E+02</pdfrwt>
<pdfrwt beam="1">  1       -1 0.15881488E-01 0.91254438E+02</pdfrwt>
<totfact> 0.80710005E+04</totfact>
</mgrwt>
</event>
<event>
 5    1  0.1227473E+001  0.9154086E+02  0.7546771E-02  0.1299163E+00
         -1   -1    0    0    0  501 -0.00000000000E+00  0.00000000000E+00  0.40453131272E+02  0.40453131272E+02  0.00000000000E+00 0.  1.
          1   -1    0    0  501    0  0.00000000000E+00 -0.00000000000E+00 -0.51786654125E+02  0.51786654125E+02  0.00000000000E+00 0. -1.
         23    2    1    2    0    0  0.00000000000E+00  0.00000000000E+00 -0.11333522853E+02  0.92239785397E+02  0.91540861203E+02 0.  0.
        -11    1    3    3    0    0 -0.17939690896E+02 -0.25280342931E+02 -0.39598850352E+02  0.50289135977E+02  0.00000000000E+00 0. -1.
         11    1    3    3    0    0  0.17939690896E+02  0.25280342931E+02  0.28265327498E+02  0.41950649420E+02  0.00000000000E+00 0.  1.
<mgrwt>
<rscale>  0 0.91540861E+02</rscale>
<asrwt>0</asrwt>
<pdfrwt beam="2">  1        1 0.79671776E-02 0.91540861E+02</pdfrwt>
<pdfrwt beam="1">  1       -1 0.62235587E-02 0.91540861E+02</pdfrwt>
<totfact> 0.93215588E+04</totfact>
</mgrwt>
</event>
<event>
 5    1  0.1227473E+001  0.9179355E+02  0.7546771E-02  0.1298566E+00
         -2   -1    0    0    0  501 -0.00000000000E+00  0.00000000000E+00  0.51105281798E+02  0.51105281798E+02  0.00000000000E+00 0.  1.
          2   -1    0    0  501    0  0.00000000000E+00 -0.00000000000E+00 -0.41219103741E+02  0.41219103741E+02  0.00000000000E+00 0. -1.
         23    2    1    2    0    0  0.00000000000E+00  0.00000000000E+00  0.98861780566E+01  0.92324385539E+02  0.91793549057E+02 0.  0.
        -13    1    3    3    0    0  0.17452916730E+02  0.65528460121E+01 -0.37239521996E+02  0.41645240926E+02  0.00000000000E+00 0. -1.
         13    1    3    3    0    0 -0.17452916730E+02 -0.65528460121E+01  0.47125700053E+02  0.50679144613E+02  0.00000000000E+00 0.  1.
<mgrwt>
<rscale>  0 0.91793549E+02</rscale>
<asrwt>0</asrwt>
<pdfrwt beam="2">  1        2 0.63414006E-02 0.91793549E+02</pdfrwt>
<pdfrwt beam="1">  1       -2 0.78623510E-02 0.91793549E+02</pdfrwt>
<totfact> 0.94274504E+04</totfact>
</mgrwt>
</event>
<event>
 5    1  0.1227473E+001  0.9270364E+02  0.7546771E-02  0.1296433E+00
          1   -1    0    0  501    0  0.00000000000E+00  0.00000000000E+00  0.14114710550E+02  0.14114710550E+02  0.00000000000E+00 0. -1.
         -1   -1    0    0    0  501 -0.00000000000E+00 -0.00000000000E+00 -0.15221645303E+03  0.15221645303E+03  0.00000000000E+00 0.  1.
         23    2    1    2    0    0  0.00000000000E+00  0.00000000000E+00 -0.13810174248E+03  0.16633116358E+03  0.92703639097E+02 0.  0.
        -11    1    3    3    0    0 -0.13999956151E+02  0.29628010346E+02 -0.12786952685E+03  0.13200164267E+03  0.00000000000E+00 0.  1.
         11    1    3    3    0    0  0.13999956151E+02 -0.29628010346E+02 -0.10232215623E+02  0.34329520909E+02  0.00000000000E+00 0. -1.
<mgrwt>
<rscale>  0 0.92703639E+02</rscale>
<asrwt>0</asrwt>
<pdfrwt beam="1">  1        1 0.21714940E-02 0.92703639E+02</pdfrwt>
<pdfrwt beam="2">  1       -1 0.23417915E-01 0.92703639E+02</pdfrwt>
<totfact> 0.71381877E+04</totfact>
</mgrwt>
</event>
<event>
 5    1  0.1227473E+001  0.8735242E+02  0.7546771E-02  0.1309393E+00
          3   -1    0    0  501    0  0.00000000000E+00  0.00000000000E+00  0.99943558263E+02  0.99943558263E+02  0.00000000000E+00 0. -1.
         -3   -1    0    0    0  501 -0.00000000000E+00 -0.00000000000E+00 -0.19086885655E+02  0.19086885655E+02  0.00000000000E+00 0.  1.
         23    2    1    2    0    0  0.00000000000E+00  0.00000000000E+00  0.80856672608E+02  0.11903044392E+03  0.87352418822E+02 0.  0.
        -11    1    3    3    0    0  0.15836177758E+02  0.32702469093E+02  0.73453193041E+02  0.81948810722E+02  0.00000000000E+00 0. -1.
         11    1    3    3    0    0 -0.15836177758E+02 -0.32702469093E+02  0.74034795669E+01  0.37081633196E+02  0.00000000000E+00 0.  1.
<mgrwt>
<rscale>  0 0.87352419E+02</rscale>
<asrwt>0</asrwt>
<pdfrwt beam="1">  1        3 0.15375932E-01 0.87352419E+02</pdfrwt>
<pdfrwt beam="2">  1       -3 0.29364440E-02 0.87352419E+02</pdfrwt>
<totfact> 0.37407144E+04</totfact>
</mgrwt>
</event>
<event>
 5    1  0.1227473E+001  0.9212367E+02  0.7546771E-02  0.1297789E+00
          1   -1    0    0  501    0  0.00000000000E+00  0.00000000000E+00  0.13392595811E+03  0.13392595811E+03  0.00000000000E+00 0. -1.
         -1   -1    0    0    0  501 -0.00000000000E+00 -0.00000000000E+00 -0.15842282315E+02  0.15842282315E+02  0.00000000000E+00 0.  1.
         23    2    1    2    0    0  0.00000000000E+00  0.00000000000E+00  0.11808367580E+03  0.14976824043E+03  0.92123674215E+02 0.  0.
        -13    1    3    3    0    0 -0.35399549158E+02  0.18852404939E+02  0.95869259532E+02  0.10392043195E+03  0.00000000000E+00 0. -1.
         13    1    3    3    0    0  0.35399549158E+02 -0.18852404939E+02  0.22214416267E+02  0.45847808483E+02  0.00000000000E+00 0.  1.
<mgrwt>
<rscale>  0 0.92123674E+02</rscale>
<asrwt>0</asrwt>
<pdfrwt beam="1">  1        1 0.20603993E-01 0.92123674E+02</pdfrwt>
<pdfrwt beam="2">  1       -1 0.24372743E-02 0.92123674E+02</pdfrwt>
<totfact> 0.10681746E+05</totfact>
</mgrwt>
</event>
<event>
 5    1  0.1227473E+001  0.9087988E+02  0.7546771E-02  0.1300735E+00
          1   -1    0    0  501    0  0.00000000000E+00  0.00000000000E+00  0.30753991040E+02  0.30753991040E+02  0.00000000000E+00 0. -1.
         -1   -1    0    0    0  501 -0.00000000000E+00 -0.00000000000E+00 -0.67138873473E+02  0.67138873473E+02  0.00000000000E+00 0.  1.
         23    2    1    2    0    0  0.00000000000E+00  0.00000000000E+00 -0.36384882433E+02  0.97892864513E+02  0.90879883654E+02 0.  0.
        -11    1    3    3    0    0  0.19158912463E+02  0.16546663486E+01 -0.62539660354E+02  0.65429435002E+02  0.00000000000E+00 0.  1.
         11    1    3    3    0    0 -0.19158912463E+02 -0.16546663486E+01  0.26154777922E+02  0.32463429511E+02  0.00000000000E+00 0. -1.
<mgrwt>
<rscale>  0 0.90879884E+02</rscale>
<asrwt>0</asrwt>
<pdfrwt beam="1">  1        1 0.47313832E-02 0.90879884E+02</pdfrwt>
<pdfrwt beam="2">  1       -1 0.10329057E-01 0.90879884E+02</pdfrwt>
<totfact> 0.87848522E+04</totfact>
</mgrwt>
</event>
<event>
 5    1  0.1227473E+001  0.9308941E+02  0.7546771E-02  0.1295538E+00
         -2   -1    0    0    0  501 -0.00000000000E+00  0.00000000000E+00  0.10033614660E+02  0.10033614660E+02  0.00000000000E+00 0.  1.
          2   -1    0    0  501    0  0.00000000000E+00 -0.00000000000E+00 -0.21591514250E+03  0.21591514250E+03  0.00000000000E+00 0. -1.
         23    2    1    2    0    0  0.00000000000E+00  0.00000000000E+00 -0.20588152784E+03  0.22594875716E+03  0.93089405178E+02 0.  0.
        -13    1    3    3    0    0 -0.40839883632E+02  0.20140338319E+02 -0.12633295179E+03  0.13428903168E+03  0.00000000000E+00 0. -1.
         13    1    3    3    0    0  0.40839883632E+02 -0.20140338319E+02 -0.79548576048E+02  0.91659725474E+02  0.00000000000E+00 0.  1.
<mgrwt>
<rscale>  0 0.93089405E+02</rscale>
<asrwt>0</asrwt>
<pdfrwt beam="2">  1        2 0.33217714E-01 0.93089405E+02</pdfrwt>
<pdfrwt beam="1">  1       -2 0.15436330E-02 0.93089405E+02</pdfrwt>
<totfact> 0.15039993E+05</totfact>
</mgrwt>
</event>
<event>
 5    1  0.1227473E+001  0.9174041E+02  0.7546771E-02  0.1298691E+00
         -1   -1    0    0    0  501 -0.00000000000E+00  0.00000000000E+00  0.75508997146E+02  0.75508997146E+02  0.00000000000E+00 0.  1.
          1   -1    0    0  501    0  0.00000000000E+00 -0.00000000000E+00 -0.27865228764E+02  0.27865228764E+02  0.00000000000E+00 0. -1.
         23    2    1    2    0    0  0.00000000000E+00  0.00000000000E+00  0.47643768382E+02  0.10337422591E+03  0.91740405039E+02 0.  0.
        -11    1    3    3    0    0  0.38395862010E+02  0.14506659473E+02  0.46897893186E+02  0.62322530227E+02  0.00000000000E+00 0.  1.
         11    1    3    3    0    0 -0.38395862010E+02 -0.14506659473E+02  0.74587519605E+00  0.41051695683E+02  0.00000000000E+00 0. -1.
<mgrwt>
<rscale>  0 0.91740405E+02</rscale>
<asrwt>0</asrwt>
<pdfrwt beam="2">  1        1 0.42869583E-02 0.91740405E+02</pdfrwt>
<pdfrwt beam="1">  1       -1 0.11616769E-01 0.91740405E+02</pdfrwt>
<totfact> 0.84136224E+04</totfact>
</mgrwt>
</event>
<event>
 5    1  0.1227473E+001  0.9030274E+02  0.7546771E-02  0.1302120E+00
          4   -1    0    0  501    0  0.00000000000E+00  0.00000000000E+00  0.10455463336E+02  0.10455463336E+02  0.00000000000E+00 0. -1.
         -4   -1    0    0    0  501 -0.00000000000E+00 -0.00000000000E+00 -0.19498380860E+03  0.19498380860E+03  0.00000000000E+00 0.  1.
         23    2    1    2    0    0  0.00000000000E+00  0.00000000000E+00 -0.18452834526E+03  0.20543927194E+03  0.90302736657E+02 0.  0.
        -11    1    3    3    0    0 -0.32286384108E+02 -0.27334940781E+02 -0.12816579183E+03  0.13496695811E+03  0.00000000000E+00 0.  1.
         11    1    3    3    0    0  0.32286384108E+02  0.27334940781E+02 -0.56362553428E+02  0.70472313820E+02  0.00000000000E+00 0. -1.
<mgrwt>
<rscale>  0 0.90302737E+02</rscale>
<asrwt>0</asrwt>
<pdfrwt beam="1">  1        4 0.16085329E-02 0.90302737E+02</pdfrwt>
<pdfrwt beam="2">  1       -4 0.29997507E-01 0.90302737E+02</pdfrwt>
<totfact> 0.21712521E+04</totfact>
</mgrwt>
</event>
<event>
 5    1  0.1227473E+001  0.9133977E+02  0.7546771E-02  0.1299639E+00
         -2   -1    0    0    0  501 -0.00000000000E+00  0.00000000000E+00  0.11969496423E+02  0.11969496423E+02  0.00000000000E+00 0.  1.
          2   -1    0    0  501    0  0.00000000000E+00 -0.00000000000E+00 -0.17425449318E+03  0.17425449318E+03  0.00000000000E+00 0. -1.
         23    2    1    2    0    0  0.00000000000E+00  0.00000000000E+00 -0.16228499676E+03  0.18622398960E+03  0.91339772997E+02 0.  0.
        -13    1    3    3    0    0  0.25136443444E+02 -0.14658820664E+02 -0.93772351294E+01  0.30572117214E+02  0.00000000000E+00 0.  1.
         13    1    3    3    0    0 -0.25136443444E+02  0.14658820664E+02 -0.15290776163E+03  0.15565187239E+03  0.00000000000E+00 0. -1.
<mgrwt>
<rscale>  0 0.91339773E+02</rscale>
<asrwt>0</asrwt>
<pdfrwt beam="2">  1        2 0.26808383E-01 0.91339773E+02</pdfrwt>
<pdfrwt beam="1">  1       -2 0.18414611E-02 0.91339773E+02</pdfrwt>
<totfact> 0.14653954E+05</totfact>
</mgrwt>
</event>
<event>
 5    1  0.1227473E+001  0.9104474E+02  0.7546771E-02  0.1300341E+00
         -1   -1    0    0    0  501 -0.00000000000E+00  0.00000000000E+00  0.27701168156E+02  0.27701168156E+02  0.00000000000E+00 0.  1.
          1   -1    0    0  501    0  0.00000000000E+00 -0.00000000000E+00 -0.74808623136E+02  0.74808623136E+02  0.00000000000E+00 0. -1.
         23    2    1    2    0    0  0.00000000000E+00  0.00000000000E+00 -0.47107454980E+02  0.10250979129E+03  0.91044741726E+02 0.  0.
        -13    1    3    3    0    0  0.21761348888E+01  0.37658049802E+02 -0.52246596110E+02  0.64440446018E+02  0.00000000000E+00 0. -1.
         13    1    3    3    0    0 -0.21761348888E+01 -0.37658049802E+02  0.51391411296E+01  0.38069345273E+02  0.00000000000E+00 0.  1.
<mgrwt>
<rscale>  0 0.91044742E+02</rscale>
<asrwt>0</asrwt>
<pdfrwt beam="2">  1        1 0.11509019E-01 0.91044742E+02</pdfrwt>
<pdfrwt beam="1">  1       -1 0.42617183E-02 0.91044742E+02</pdfrwt>
<totfact> 0.10008836E+05</totfact>
</mgrwt>
</event>
<event>
 5    1  0.1227473E+001  0.9287402E+02  0.7546771E-02  0.1296037E+00
         -4   -1    0    0    0  501 -0.00000000000E+00  0.00000000000E+00  0.13944960405E+03  0.13944960405E+03  0.00000000000E+00 0.  1.
          4   -1    0    0  501    0  0.00000000000E+00 -0.00000000000E+00 -0.15463622956E+02  0.15463622956E+02  0.00000000000E+00 0. -1.
         23    2    1    2    0    0  0.00000000000E+00  0.00000000000E+00  0.12398598109E+03  0.15491322701E+03  0.92874024321E+02 0.  0.
        -11    1    3    3    0    0 -0.23430320380E+02 -0.89172144995E+01 -0.32061133432E+01  0.25274014131E+02  0.00000000000E+00 0. -1.
         11    1    3    3    0    0  0.23430320380E+02  0.89172144995E+01  0.12719209444E+03  0.12963921287E+03  0.00000000000E+00 0.  1.
<mgrwt>
<rscale>  0 0.92874024E+02</rscale>
<asrwt>0</asrwt>
<pdfrwt beam="2">  1        4 0.23790190E-02 0.92874024E+02</pdfrwt>
<pdfrwt beam="1">  1       -4 0.21453784E-01 0.92874024E+02</pdfrwt>
<totfact> 0.22291773E+04</totfact>
</mgrwt>
</event>
<event>
 5    1  0.1227473E+001  0.9026863E+02  0.7546771E-02  0.1302202E+00
         -1   -1    0    0    0  501 -0.00000000000E+00  0.00000000000E+00  0.46030419708E+01  0.46030419708E+01  0.00000000000E+00 0.  1.
          1   -1    0    0  501    0  0.00000000000E+00 -0.00000000000E+00 -0.44255656223E+03  0.44255656223E+03  0.00000000000E+00 0. -1.
         23    2    1    2    0    0  0.00000000000E+00  0.00000000000E+00 -0.43795352026E+03  0.44715960420E+03  0.90268630883E+02 0.  0.
        -13    1    3    3    0    0  0.37288284404E+02 -0.25215099188E+02 -0.23532310642E+03  0.23958961120E+03  0.00000000000E+00 0.  1.
         13    1    3    3    0    0 -0.37288284404E+02  0.25215099188E+02 -0.20263041384E+03  0.20756999300E+03  0.00000000000E+00 0. -1.
<mgrwt>
<rscale>  0 0.90268631E+02</rscale>
<asrwt>0</asrwt>
<pdfrwt beam="2">  1        1 0.68085684E-01 0.90268631E+02</pdfrwt>
<pdfrwt beam="1">  1       -1 0.70815969E-03 0.90268631E+02</pdfrwt>
<totfact> 0.14071154E+05</totfact>
</mgrwt>
</event>
<event>
 5    1  0.1227473E+001  0.8910036E+02  0.7546771E-02  0.1305045E+00
         -3   -1    0    0    0  501 -0.00000000000E+00  0.00000000000E+00  0.15980638833E+02  0.15980638833E+02  0.00000000000E+00 0.  1.
          3   -1    0    0  501    0  0.00000000000E+00 -0.00000000000E+00 -0.12419519518E+03  0.12419519518E+03  0.00000000000E+00 0. -1.
         23    2    1    2    0    0  0.00000000000E+00  0.00000000000E+00 -0.10821455635E+03  0.14017583401E+03  0.89100360469E+02 0.  0.
        -11    1    3    3    0    0  0.18616156697E+02 -0.28288499579E+02 -0.99647428858E+02  0.10524452754E+03  0.00000000000E+00 0. -1.
         11    1    3    3    0    0 -0.18616156697E+02  0.28288499579E+02 -0.85671274879E+01  0.34931306474E+02  0.00000000000E+00 0.  1.
<mgrwt>
<rscale>  0 0.89100360E+02</rscale>
<asrwt>0</asrwt>
<pdfrwt beam="2">  1        3 0.19106953E-01 0.89100360E+02</pdfrwt>
<pdfrwt beam="1">  1       -3 0.24585598E-02 0.89100360E+02</pdfrwt>
<totfact> 0.33969563E+04</totfact>
</mgrwt>
</event>
<event>
 5    1  0.1227473E+001  0.9320381E+02  0.7546771E-02  0.1295274E+00
          4   -1    0    0  501    0  0.00000000000E+00  0.00000000000E+00  0.43966474892E+02  0.43966474892E+02  0.00000000000E+00 0.  1.
         -4   -1    0    0    0  501 -0.00000000000E+00 -0.00000000000E+00 -0.49395305392E+02  0.49395305392E+02  0.00000000000E+00 0. -1.
         23    2    1    2    0    0  0.00000000000E+00  0.00000000000E+00 -0.54288305007E+01  0.93361780284E+02  0.93203807955E+02 0.  0.
        -13    1    3    3    0    0 -0.82139590431E+01  0.32346602306E+02 -0.35295928548E+02  0.48575450342E+02  0.00000000000E+00 0. -1.
         13    1    3    3    0    0  0.82139590431E+01 -0.32346602306E+02  0.29867098047E+02  0.44786329942E+02  0.00000000000E+00 0.  1.
<mgrwt>
<rscale>  0 0.93203808E+02</rscale>
<asrwt>0</asrwt>
<pdfrwt beam="1">  1        4 0.67640731E-02 0.93203808E+02</pdfrwt>
<pdfrwt beam="2">  1       -4 0.75992777E-02 0.93203808E+02</pdfrwt>
<totfact> 0.25314196E+04</totfact>
</mgrwt>
</event>
<event>
 5    1  0.1227473E+001  0.9227006E+02  0.7546771E-02  0.1297446E+00
          1   -1    0    0  501    0  0.00000000000E+00  0.00000000000E+00  0.13650288901E+03  0.13650288901E+03  0.00000000000E+00 0. -1.
         -1   -1    0    0    0  501 -0.00000000000E+00 -0.00000000000E+00 -0.15592644076E+02  0.15592644076E+02  0.00000000000E+00 0.  1.
         23    2    1    2    0    0  0.00000000000E+00  0.00000000000E+00  0.12091024494E+03  0.15209553309E+03  0.92270059363E+02 0.  0.
        -11    1    3    3    0    0 -0.22359396891E+02 -0.13927661933E+01 -0.60248005744E+01  0.23198720847E+02  0.00000000000E+00 0.  1.
         11    1    3    3    0    0  0.22359396891E+02  0.13927661933E+01  0.12693504551E+03  0.12889681224E+03  0.00000000000E+00 0. -1.
<mgrwt>
<rscale>  0 0.92270059E+02</rscale>
<asrwt>0</asrwt>
<pdfrwt beam="1">  1        1 0.21000444E-01 0.92270059E+02</pdfrwt>
<pdfrwt beam="2">  1       -1 0.23988684E-02 0.92270059E+02</pdfrwt>
<totfact> 0.10672488E+05</totfact>
</mgrwt>
</event>
<event>
 5    1  0.1227473E+001  0.9300123E+02  0.7546771E-02  0.1295742E+00
         -1   -1    0    0    0  501 -0.00000000000E+00  0.00000000000E+00  0.18957881636E+03  0.18957881636E+03  0.00000000000E+00 0.  1.
          1   -1    0    0  501    0  0.00000000000E+00 -0.00000000000E+00 -0.11405848015E+02  0.11405848015E+02  0.00000000000E+00 0. -1.
         23    2    1    2    0    0  0.00000000000E+00  0.00000000000E+00  0.17817296835E+03  0.20098466438E+03  0.93001229375E+02 0.  0.
        -13    1    3    3    0    0  0.22248273759E+02  0.18347604714E+02  0.10252737162E+02  0.30606190604E+02  0.00000000000E+00 0. -1.
         13    1    3    3    0    0 -0.22248273759E+02 -0.18347604714E+02  0.16792023118E+03  0.17037847377E+03  0.00000000000E+00 0.  1.
<mgrwt>
<rscale>  0 0.93001229E+02</rscale>
<asrwt>0</asrwt>
<pdfrwt beam="2">  1        1 0.17547460E-02 0.93001229E+02</pdfrwt>
<pdfrwt beam="1">  1       -1 0.29165970E-01 0.93001229E+02</pdfrwt>
<totfact> 0.66926878E+04</totfact>
</mgrwt>
</event>
<event>
 5    1  0.1227473E+001  0.9163455E+02  0.7546771E-02  0.1298941E+00
         -3   -1    0    0    0  501 -0.00000000000E+00  0.00000000000E+00  0.16456806965E+02  0.16456806965E+02  0.00000000000E+00 0.  1.
          3   -1    0    0  501    0  0.00000000000E+00 -0.00000000000E+00 -0.12755953096E+03  0.12755953096E+03  0.00000000000E+00 0. -1.
         23    2    1    2    0    0  0.00000000000E+00  0.00000000000E+00 -0.11110272400E+03  0.14401633793E+03  0.91634547581E+02 0.  0.
        -13    1    3    3    0    0  0.29238988451E+02  0.23728229985E+02 -0.14529645949E+02  0.40361590098E+02  0.00000000000E+00 0.  1.
         13    1    3    3    0    0 -0.29238988451E+02 -0.23728229985E+02 -0.96573078046E+02  0.10365474783E+03  0.00000000000E+00 0. -1.
<mgrwt>
<rscale>  0 0.91634548E+02</rscale>
<asrwt>0</asrwt>
<pdfrwt beam="2">  1        3 0.19624543E-01 0.91634548E+02</pdfrwt>
<pdfrwt beam="1">  1       -3 0.25318165E-02 0.91634548E+02</pdfrwt>
<totfact> 0.31249445E+04</totfact>
</mgrwt>
</event>
<event>
 5    1  0.1227473E+001  0.9156892E+02  0.7546771E-02  0.1299096E+00
          3   -1    0    0  501    0  0.00000000000E+00  0.00000000000E+00  0.20594922276E+02  0.20594922276E+02  0.00000000000E+00 0. -1.
         -3   -1    0    0    0  501 -0.00000000000E+00 -0.00000000000E+00 -0.10178319232E+03  0.10178319232E+03  0.00000000000E+00 0.  1.
         23    2    1    2    0    0  0.00000000000E+00  0.00000000000E+00 -0.81188270045E+02  0.12237811460E+03  0.91568923438E+02 0.  0.
        -11    1    3    3    0    0 -0.18149780427E+02  0.38913308290E+02 -0.61833191514E+02  0.75279503614E+02  0.00000000000E+00 0.  1.
         11    1    3    3    0    0  0.18149780427E+02 -0.38913308290E+02 -0.19355078532E+02  0.47098610984E+02  0.00000000000E+00 0. -1.
<mgrwt>
<rscale>  0 0.91568923E+02</rscale>
<asrwt>0</asrwt>
<pdfrwt beam="1">  1        3 0.31684496E-02 0.91568923E+02</pdfrwt>
<pdfrwt beam="2">  1       -3 0.15658953E-01 0.91568923E+02</pdfrwt>
<totfact> 0.32702137E+04</totfact>
</mgrwt>
</event>
<event>
 4    1  0.1227473E+001  0.1300394E+03  0.7546771E-02  0.1227397E+00
         -2   -1    0    0    0  501 -0.00000000000E+00  0.00000000000E+00  0.14309058890E+03  0.14309058890E+03  0.00000000000E+00 0. -1.
          2   -1    0    0  501    0  0.00000000000E+00 -0.00000000000E+00 -0.29544657794E+02  0.29544657794E+02  0.00000000000E+00 0.  1.
        -13    1    1    2    0    0 -0.25682131391E+02  0.45498145277E+02  0.10815333558E+03  0.12011160266E+03  0.00000000000E+00 0. -1.
         13    1    1    2    0    0  0.25682131391E+02 -0.45498145277E+02  0.53925955284E+01  0.52523644037E+02  0.00000000000E+00 0.  1.
<mgrwt>
<rscale>  0 0.13003942E+03</rscale>
<asrwt>0</asrwt>
<pdfrwt beam="2">  1        2 0.45453321E-02 0.13003942E+03</pdfrwt>
<pdfrwt beam="1">  1       -2 0.22013936E-01 0.13003942E+03</pdfrwt>
<totfact> 0.29013862E+04</totfact>
</mgrwt>
</event>
<event>
 5    1  0.1227473E+001  0.8981454E+02  0.7546771E-02  0.1303301E+00
          2   -1    0    0  501    0  0.00000000000E+00  0.00000000000E+00  0.39498648932E+02  0.39498648932E+02  0.00000000000E+00 0. -1.
         -2   -1    0    0    0  501 -0.00000000000E+00 -0.00000000000E+00 -0.51056497803E+02  0.51056497803E+02  0.00000000000E+00 0.  1.
         23    2    1    2    0    0  0.00000000000E+00  0.00000000000E+00 -0.11557848871E+02  0.90555146734E+02  0.89814535180E+02 0.  0.
        -11    1    3    3    0    0 -0.30185688396E+02 -0.11976757432E+02 -0.37051526622E+02  0.49268997631E+02  0.00000000000E+00 0.  1.
         11    1    3    3    0    0  0.30185688396E+02  0.11976757432E+02  0.25493677751E+02  0.41286149103E+02  0.00000000000E+00 0. -1.
<mgrwt>
<rscale>  0 0.89814535E+02</rscale>
<asrwt>0</asrwt>
<pdfrwt beam="1">  1        2 0.60767152E-02 0.89814535E+02</pdfrwt>
<pdfrwt beam="2">  1       -2 0.78548458E-02 0.89814535E+02</pdfrwt>
<totfact> 0.99308928E+04</totfact>
</mgrwt>
</event>
<event>
 5    1  0.1227473E+001  0.9050557E+02  0.7546771E-02  0.1301632E+00
          2   -1    0    0  501    0  0.00000000000E+00  0.00000000000E+00  0.11847754512E+02  0.11847754512E+02  0.00000000000E+00 0. -1.
         -2   -1    0    0    0  501 -0.00000000000E+00 -0.00000000000E+00 -0.17284410254E+03  0.17284410254E+03  0.00000000000E+00 0.  1.
         23    2    1    2    0    0  0.00000000000E+00  0.00000000000E+00 -0.16099634803E+03  0.18469185706E+03  0.90505568798E+02 0.  0.
        -11    1    3    3    0    0 -0.22353758282E+02 -0.27738348455E+02 -0.23552627225E+02  0.42706354721E+02  0.00000000000E+00 0. -1.
         11    1    3    3    0    0  0.22353758282E+02  0.27738348455E+02 -0.13744372081E+03  0.14198550233E+03  0.00000000000E+00 0.  1.
<mgrwt>
<rscale>  0 0.90505569E+02</rscale>
<asrwt>0</asrwt>
<pdfrwt beam="1">  1        2 0.18227316E-02 0.90505569E+02</pdfrwt>
<pdfrwt beam="2">  1       -2 0.26591399E-01 0.90505569E+02</pdfrwt>
<totfact> 0.67455310E+04</totfact>
</mgrwt>
</event>
<event>
 5    1  0.1227473E+001  0.8988860E+02  0.7546771E-02  0.1303122E+00
         -1   -1    0    0    0  501 -0.00000000000E+00  0.00000000000E+00  0.93161698425E+02  0.93161698425E+02  0.00000000000E+00 0.  1.
          1   -1    0    0  501    0  0.00000000000E+00 -0.00000000000E+00 -0.21682625890E+02  0.21682625890E+02  0.00000000000E+00 0. -1.
         23    2    1    2    0    0  0.00000000000E+00  0.00000000000E+00  0.71479072535E+02  0.11484432432E+03  0.89888603377E+02 0.  0.
        -13    1    3    3    0    0 -0.73985244033E+01 -0.28933058524E+02  0.78652105774E+02  0.84130932371E+02  0.00000000000E+00 0.  1.
         13    1    3    3    0    0  0.73985244033E+01  0.28933058524E+02 -0.71730332389E+01  0.30713391945E+02  0.00000000000E+00 0. -1.
<mgrwt>
<rscale>  0 0.89888603E+02</rscale>
<asrwt>0</asrwt>
<pdfrwt beam="2">  1        1 0.33357886E-02 0.89888603E+02</pdfrwt>
<pdfrwt beam="1">  1       -1 0.14332569E-01 0.89888603E+02</pdfrwt>
<totfact> 0.85499881E+04</totfact>
</mgrwt>
</event>
<event>
 5    1  0.1227473E+001  0.8894691E+02  0.7546771E-02  0.1305422E+00
         -1   -1    0    0    0  501 -0.00000000000E+00  0.00000000000E+00  0.21333262843E+02  0.21333262843E+02  0.00000000000E+00 0.  1.
          1   -1    0    0  501    0  0.00000000000E+00 -0.00000000000E+00 -0.92713818317E+02  0.92713818317E+02  0.00000000000E+00 0. -1.
         23    2    1    2    0    0  0.00000000000E+00  0.00000000000E+00 -0.71380555474E+02  0.11404708116E+03  0.88946911253E+02 0.  0.
        -11    1    3    3    0    0  0.20947650580E+02  0.40673824165E+00 -0.85989486040E+02  0.88505147931E+02  0.00000000000E+00 0. -1.
         11    1    3    3    0    0 -0.20947650580E+02 -0.40673824165E+00  0.14608930566E+02  0.25541933230E+02  0.00000000000E+00 0.  1.
<mgrwt>
<rscale>  0 0.88946911E+02</rscale>
<asrwt>0</asrwt>
<pdfrwt beam="2">  1        1 0.14263665E-01 0.88946911E+02</pdfrwt>
<pdfrwt beam="1">  1       -1 0.32820404E-02 0.88946911E+02</pdfrwt>
<totfact> 0.11035982E+05</totfact>
</mgrwt>
</event>
<event>
 5    1  0.1227473E+001  0.1020751E+03  0.7546771E-02  0.1275992E+00
         -4   -1    0    0    0  501 -0.00000000000E+00  0.00000000000E+00  0.26270564995E+02  0.26270564995E+02  0.00000000000E+00 0.  1.
          4   -1    0    0  501    0  0.00000000000E+00 -0.00000000000E+00 -0.99154027678E+02  0.99154027678E+02  0.00000000000E+00 0. -1.
         23    2    1    2    0    0  0.00000000000E+00  0.00000000000E+00 -0.72883462683E+02  0.12542459267E+03  0.10207511604E+03 0.  0.
        -13    1    3    3    0    0 -0.14400129932E+02 -0.22558568155E+02  0.16956941448E+02  0.31682654600E+02  0.00000000000E+00 0.  1.
         13    1    3    3    0    0  0.14400129932E+02  0.22558568155E+02 -0.89840404131E+02  0.93741938073E+02  0.00000000000E+00 0. -1.
<mgrwt>
<rscale>  0 0.10207512E+03</rscale>
<asrwt>0</asrwt>
<pdfrwt beam="2">  1        4 0.15254466E-01 0.10207512E+03</pdfrwt>
<pdfrwt beam="1">  1       -4 0.40416252E-02 0.10207512E+03</pdfrwt>
<totfact> 0.18358209E+04</totfact>
</mgrwt>
</event>
<event>
 5    1  0.1227473E+001  0.9717001E+02  0.7546771E-02  0.1286362E+00
         -2   -1    0    0    0  501 -0.00000000000E+00  0.00000000000E+00  0.69875015818E+01  0.69875015818E+01  0.00000000000E+00 0.  1.
          2   -1    0    0  501    0  0.00000000000E+00 -0.00000000000E+00 -0.33781781387E+03  0.33781781387E+03  0.00000000000E+00 0. -1.
         23    2    1    2    0    0  0.00000000000E+00  0.00000000000E+00 -0.33083031229E+03  0.34480531545E+03  0.97170005841E+02 0.  0.
        -11    1    3    3    0    0  0.29426364412E+02 -0.38264041442E+02 -0.18499769604E+03  0.19119151480E+03  0.00000000000E+00 0.  1.
         11    1    3    3    0    0 -0.29426364412E+02  0.38264041442E+02 -0.14583261625E+03  0.15361380065E+03  0.00000000000E+00 0. -1.
<mgrwt>
<rscale>  0 0.97170006E+02</rscale>
<asrwt>0</asrwt>
<pdfrwt beam="2">  1        2 0.51971975E-01 0.97170006E+02</pdfrwt>
<pdfrwt beam="1">  1       -2 0.10750002E-02 0.97170006E+02</pdfrwt>
<totfact> 0.15836420E+05</totfact>
</mgrwt>
</event>
<event>
 5    1  0.1227473E+001  0.9929038E+02  0.7546771E-02  0.1281795E+00
          2   -1    0    0  501    0  0.00000000000E+00  0.00000000000E+00  0.34289839759E+03  0.34289839759E+03  0.00000000000E+00 0. -1.
         -2   -1    0    0    0  501 -0.00000000000E+00 -0.00000000000E+00 -0.71876828251E+01  0.71876828251E+01  0.00000000000E+00 0.  1.
         23    2    1    2    0    0  0.00000000000E+00  0.00000000000E+00  0.33571071476E+03  0.35008608041E+03  0.99290380664E+02 0.  0.
        -13    1    3    3    0    0 -0.41959792235E+02 -0.19480458988E+02  0.23137334780E+03  0.23595283114E+03  0.00000000000E+00 0. -1.
         13    1    3    3    0    0  0.41959792235E+02  0.19480458988E+02  0.10433736696E+03  0.11413324928E+03  0.00000000000E+00 0.  1.
<mgrwt>
<rscale>  0 0.99290381E+02</rscale>
<asrwt>0</asrwt>
<pdfrwt beam="1">  1        2 0.52753587E-01 0.99290381E+02</pdfrwt>
<pdfrwt beam="2">  1       -2 0.11057976E-02 0.99290381E+02</pdfrwt>
<totfact> 0.15027886E+05</totfact>
</mgrwt>
</event>
<event>
 5    1  0.1227473E+001  0.9453939E+02  0.7546771E-02  0.1292217E+00
          4   -1    0    0  501    0  0.00000000000E+00  0.00000000000E+00  0.30471624382E+02  0.30471624382E+02  0.00000000000E+00 0. -1.
         -4   -1    0    0    0  501 -0.00000000000E+00 -0.00000000000E+00 -0.73328029388E+02  0.73328029388E+02  0.00000000000E+00 0.  1.
         23    2    1    2    0    0  0.00000000000E+00  0.00000000000E+00 -0.42856405007E+02  0.10379965377E+03  0.94539392175E+02 0.  0.
        -11    1    3    3    0    0 -0.34155392079E+02  0.57742516853E+01  0.13885766929E+02  0.37319529925E+02  0.00000000000E+00 0. -1.
         11    1    3    3    0    0  0.34155392079E+02 -0.57742516853E+01 -0.56742171935E+02  0.66480123846E+02  0.00000000000E+00 0.  1.
<mgrwt>
<rscale>  0 0.94539392E+02</rscale>
<asrwt>0</asrwt>
<pdfrwt beam="1">  1        4 0.46879422E-02 0.94539392E+02</pdfrwt>
<pdfrwt beam="2">  1       -4 0.11281235E-01 0.94539392E+02</pdfrwt>
<totfact> 0.23764553E+04</totfact>
</mgrwt>
</event>
<event>
 5    1  0.1227473E+001  0.9053765E+02  0.7546771E-02  0.1301555E+00
         -2   -1    0    0    0  501 -0.00000000000E+00  0.00000000000E+00  0.71925498161E+02  0.71925498161E+02  0.00000000000E+00 0.  1.
          2   -1    0    0  501    0  0.00000000000E+00 -0.00000000000E+00 -0.28491516566E+02  0.28491516566E+02  0.00000000000E+00 0. -1.
         23    2    1    2    0    0  0.00000000000E+00  0.00000000000E+00  0.43433981595E+02  0.10041701473E+03  0.90537650121E+02 0.  0.
        -13    1    3    3    0    0 -0.26753227408E+02 -0.35661291385E+02  0.30436361122E+02  0.53979949596E+02  0.00000000000E+00 0.  1.
         13    1    3    3    0    0  0.26753227408E+02  0.35661291385E+02  0.12997620473E+02  0.46437065131E+02  0.00000000000E+00 0. -1.
<mgrwt>
<rscale>  0 0.90537650E+02</rscale>
<asrwt>0</asrwt>
<pdfrwt beam="2">  1        2 0.43833103E-02 0.90537650E+02</pdfrwt>
<pdfrwt beam="1">  1       -2 0.11065461E-01 0.90537650E+02</pdfrwt>
<totfact> 0.89096662E+04</totfact>
</mgrwt>
</event>
<event>
 5    1  0.1227473E+001  0.8963186E+02  0.7546771E-02  0.1303746E+00
          2   -1    0    0  501    0  0.00000000000E+00  0.00000000000E+00  0.29076314941E+03  0.29076314941E+03  0.00000000000E+00 0. -1.
         -2   -1    0    0    0  501 -0.00000000000E+00 -0.00000000000E+00 -0.69075722893E+01  0.69075722893E+01  0.00000000000E+00 0.  1.
         23    2    1    2    0    0  0.00000000000E+00  0.00000000000E+00  0.28385557712E+03  0.29767072170E+03  0.89631857586E+02 0.  0.
        -13    1    3    3    0    0 -0.42313582934E+01  0.44612418741E+02  0.14012346976E+03  0.14711478198E+03  0.00000000000E+00 0. -1.
         13    1    3    3    0    0  0.42313582934E+01 -0.44612418741E+02  0.14373210736E+03  0.15055593972E+03  0.00000000000E+00 0.  1.
<mgrwt>
<rscale>  0 0.89631858E+02</rscale>
<asrwt>0</asrwt>
<pdfrwt beam="1">  1        2 0.44732783E-01 0.89631858E+02</pdfrwt>
<pdfrwt beam="2">  1       -2 0.10627037E-02 0.89631858E+02</pdfrwt>
<totfact> 0.18585592E+05</totfact>
</mgrwt>
</event>
<event>
 5    1  0.1227473E+001  0.8973292E+02  0.7546771E-02  0.1303500E+00
          2   -1    0    0  501    0  0.00000000000E+00  0.00000000000E+00  0.11561533314E+03  0.11561533314E+03  0.00000000000E+00 0.  1.
         -2   -1    0    0    0  501 -0.00000000000E+00 -0.00000000000E+00 -0.17411177625E+02  0.17411177625E+02  0.00000000000E+00 0. -1.
         23    2    1    2    0    0  0.00000000000E+00  0.00000000000E+00  0.98204155519E+02  0.13302651077E+03  0.89732917071E+02 0.  0.
        -13    1    3    3    0    0  0.11971226070E+02 -0.19627455119E+02 -0.80154592576E+01  0.24347378405E+02  0.00000000000E+00 0. -1.
         13    1    3    3    0    0 -0.11971226070E+02  0.19627455119E+02  0.10621961478E+03  0.10867913236E+03  0.00000000000E+00 0.  1.
<mgrwt>
<rscale>  0 0.89732917E+02</rscale>
<asrwt>0</asrwt>
<pdfrwt beam="1">  1        2 0.17786974E-01 0.89732917E+02</pdfrwt>
<pdfrwt beam="2">  1       -2 0.26786428E-02 0.89732917E+02</pdfrwt>
<totfact> 0.13405505E+05</totfact>
</mgrwt>
</event>
<event>
 5    1  0.1227473E+001  0.9053105E+02  0.7546771E-02  0.1301571E+00
          2   -1    0    0  501    0  0.00000000000E+00  0.00000000000E+00  0.29214498421E+03  0.29214498421E+03  0.00000000000E+00 0. -1.
         -2   -1    0    0    0  501 -0.00000000000E+00 -0.00000000000E+00 -0.70135310896E+01  0.70135310896E+01  0.00000000000E+00 0.  1.
         23    2    1    2    0    0  0.00000000000E+00  0.00000000000E+00  0.28513145312E+03  0.29915851530E+03  0.90531053886E+02 0.  0.
        -13    1    3    3    0    0  0.11890668748E+02  0.41633235165E+02  0.98944814463E+02  0.10800366004E+03  0.00000000000E+00 0. -1.
         13    1    3    3    0    0 -0.11890668748E+02 -0.41633235165E+02  0.18618663866E+03  0.19115485526E+03  0.00000000000E+00 0.  1.
<mgrwt>
<rscale>  0 0.90531054E+02</rscale>
<asrwt>0</asrwt>
<pdfrwt beam="1">  1        2 0.44945373E-01 0.90531054E+02</pdfrwt>
<pdfrwt beam="2">  1       -2 0.10790050E-02 0.90531054E+02</pdfrwt>
<totfact> 0.18129779E+05</totfact>
</mgrwt>
</event>
<event>
 5    1  0.1227473E+001  0.8969307E+02  0.7546771E-02  0.1303597E+00
         -4   -1    0    0    0  501 -0.00000000000E+00  0.00000000000E+00  0.34451299607E+02  0.34451299607E+02  0.00000000000E+00 0.  1.
          4   -1    0    0  501    0  0.00000000000E+00 -0.00000000000E+00 -0.58378395509E+02  0.58378395509E+02  0.00000000000E+00 0. -1.
         23    2    1    2    0    0  0.00000000000E+00  0.00000000000E+00 -0.23927095903E+02  0.92829695116E+02  0.89693067608E+02 0.  0.
        -11    1    3    3    0    0  0.21336444471E+02  0.36905478642E+02  0.24501932544E+01  0.42699668189E+02  0.00000000000E+00 0.  1.
         11    1    3    3    0    0 -0.21336444471E+02 -0.36905478642E+02 -0.26377289157E+02  0.50130026927E+02  0.00000000000E+00 0. -1.
<mgrwt>
<rscale>  0 0.89693068E+02</rscale>
<asrwt>0</asrwt>
<pdfrwt beam="2">  1        4 0.89812916E-02 0.89693068E+02</pdfrwt>
<pdfrwt beam="1">  1       -4 0.53001999E-02 0.89693068E+02</pdfrwt>
<totfact> 0.28131975E+04</totfact>
</mgrwt>
</event>
<event>
 5    1  0.1227473E+001  0.8889389E+02  0.7546771E-02  0.1305553E+00
         -2   -1    0    0    0  501 -0.00000000000E+00  0.00000000000E+00  0.25821635280E+02  0.25821635280E+02  0.00000000000E+00 0.  1.
          2   -1    0    0  501    0  0.00000000000E+00 -0.00000000000E+00 -0.76506811357E+02  0.76506811357E+02  0.00000000000E+00 0. -1.
         23    2    1    2    0    0  0.00000000000E+00  0.00000000000E+00 -0.50685176077E+02  0.10232844664E+03  0.88893891338E+02 0.  0.
        -13    1    3    3    0    0 -0.91719832303E+01 -0.19917936574E+02  0.19161386045E+02  0.29120580161E+02  0.00000000000E+00 0.  1.
         13    1    3    3    0    0  0.91719832303E+01  0.19917936574E+02 -0.69846562122E+02  0.73207866476E+02  0.00000000000E+00 0. -1.
<mgrwt>
<rscale>  0 0.88893891E+02</rscale>
<asrwt>0</asrwt>
<pdfrwt beam="2">  1        2 0.11770279E-01 0.88893891E+02</pdfrwt>
<pdfrwt beam="1">  1       -2 0.39725593E-02 0.88893891E+02</pdfrwt>
<totfact> 0.12168045E+05</totfact>
</mgrwt>
</event>
<event>
 5    1  0.1227473E+001  0.8401744E+02  0.7546771E-02  0.1318022E+00
         -4   -1    0    0    0  501 -0.00000000000E+00  0.00000000000E+00  0.12065767372E+02  0.12065767372E+02  0.00000000000E+00 0.  1.
          4   -1    0    0  501    0  0.00000000000E+00 -0.00000000000E+00 -0.14625945776E+03  0.14625945776E+03  0.00000000000E+00 0. -1.
         23    2    1    2    0    0  0.00000000000E+00  0.00000000000E+00 -0.13419369038E+03  0.15832522513E+03  0.84017440886E+02 0.  0.
        -11    1    3    3    0    0 -0.30119681122E+02 -0.44243296053E+00 -0.12227378723E+03  0.12592962313E+03  0.00000000000E+00 0. -1.
         11    1    3    3    0    0  0.30119681122E+02  0.44243296053E+00 -0.11919903158E+02  0.32395602003E+02  0.00000000000E+00 0.  1.
<mgrwt>
<rscale>  0 0.84017441E+02</rscale>
<asrwt>0</asrwt>
<pdfrwt beam="2">  1        4 0.22501455E-01 0.84017441E+02</pdfrwt>
<pdfrwt beam="1">  1       -4 0.18562719E-02 0.84017441E+02</pdfrwt>
<totfact> 0.28936132E+04</totfact>
</mgrwt>
</event>
<event>
 5    1  0.1227473E+001  0.9068519E+02  0.7546771E-02  0.1301201E+00
         -2   -1    0    0    0  501 -0.00000000000E+00  0.00000000000E+00  0.29771140500E+02  0.29771140500E+02  0.00000000000E+00 0. -1.
          2   -1    0    0  501    0  0.00000000000E+00 -0.00000000000E+00 -0.69058519333E+02  0.69058519333E+02  0.00000000000E+00 0.  1.
         23    2    1    2    0    0  0.00000000000E+00  0.00000000000E+00 -0.39287378833E+02  0.98829659833E+02  0.90685189127E+02 0.  0.
        -11    1    3    3    0    0 -0.11132069023E+02  0.36322524538E+01 -0.67382293431E+02  0.68392175625E+02  0.00000000000E+00 0.  1.
         11    1    3    3    0    0  0.11132069023E+02 -0.36322524538E+01  0.28094914598E+02  0.30437484208E+02  0.00000000000E+00 0. -1.
<mgrwt>
<rscale>  0 0.90685189E+02</rscale>
<asrwt>0</asrwt>
<pdfrwt beam="2">  1        2 0.10624387E-01 0.90685189E+02</pdfrwt>
<pdfrwt beam="1">  1       -2 0.45801755E-02 0.90685189E+02</pdfrwt>
<totfact> 0.11188535E+05</totfact>
</mgrwt>
</event>
<event>
 5    1  0.1227473E+001  0.8984975E+02  0.7546771E-02  0.1303216E+00
          2   -1    0    0  501    0  0.00000000000E+00  0.00000000000E+00  0.28818552518E+03  0.28818552518E+03  0.00000000000E+00 0.  1.
         -2   -1    0    0    0  501 -0.00000000000E+00 -0.00000000000E+00 -0.70032815098E+01  0.70032815098E+01  0.00000000000E+00 0. -1.
         23    2    1    2    0    0  0.00000000000E+00  0.00000000000E+00  0.28118224367E+03  0.29518880669E+03  0.89849749246E+02 0.  0.
        -11    1    3    3    0    0  0.39013726513E+02  0.21487731083E+02  0.12130773094E+03  0.12922599982E+03  0.00000000000E+00 0. -1.
         11    1    3    3    0    0 -0.39013726513E+02 -0.21487731083E+02  0.15987451272E+03  0.16596280686E+03  0.00000000000E+00 0.  1.
<mgrwt>
<rscale>  0 0.89849749E+02</rscale>
<asrwt>0</asrwt>
<pdfrwt beam="1">  1        2 0.44336226E-01 0.89849749E+02</pdfrwt>
<pdfrwt beam="2">  1       -2 0.10774281E-02 0.89849749E+02</pdfrwt>
<totfact> 0.18404691E+05</totfact>
</mgrwt>
</event>
<event>
 5    1  0.1227473E+001  0.8910279E+02  0.7546771E-02  0.1305039E+00
         -1   -1    0    0    0  501 -0.00000000000E+00  0.00000000000E+00  0.26260261198E+02  0.26260261198E+02  0.00000000000E+00 0.  1.
          1   -1    0    0  501    0  0.00000000000E+00 -0.00000000000E+00 -0.75582899532E+02  0.75582899532E+02  0.00000000000E+00 0. -1.
         23    2    1    2    0    0  0.00000000000E+00  0.00000000000E+00 -0.49322638334E+02  0.10184316073E+03  0.89102787472E+02 0.  0.
        -13    1    3    3    0    0  0.43361852636E+01  0.27036223263E+02 -0.64829836778E+02  0.70375191706E+02  0.00000000000E+00 0. -1.
         13    1    3    3    0    0 -0.43361852636E+01 -0.27036223263E+02  0.15507198444E+02  0.31467969024E+02  0.00000000000E+00 0.  1.
<mgrwt>
<rscale>  0 0.89102787E+02</rscale>
<asrwt>0</asrwt>
<pdfrwt beam="2">  1        1 0.11628138E-01 0.89102787E+02</pdfrwt>
<pdfrwt beam="1">  1       -1 0.40400402E-02 0.89102787E+02</pdfrwt>
<totfact> 0.10635619E+05</totfact>
</mgrwt>
</event>
<event>
 5    1  0.1227473E+001  0.9219125E+02  0.7546771E-02  0.1297630E+00
          3   -1    0    0  501    0  0.00000000000E+00  0.00000000000E+00  0.26730051253E+02  0.26730051253E+02  0.00000000000E+00 0. -1.
         -3   -1    0    0    0  501 -0.00000000000E+00 -0.00000000000E+00 -0.79491305991E+02  0.79491305991E+02  0.00000000000E+00 0.  1.
         23    2    1    2    0    0  0.00000000000E+00  0.00000000000E+00 -0.52761254738E+02  0.10622135724E+03  0.92191250850E+02 0.  0.
        -11    1    3    3    0    0 -0.16107923282E+02 -0.14350574225E+02 -0.73315755755E+02  0.76423845853E+02  0.00000000000E+00 0.  1.
         11    1    3    3    0    0  0.16107923282E+02  0.14350574225E+02  0.20554501017E+02  0.29797511391E+02  0.00000000000E+00 0. -1.
<mgrwt>
<rscale>  0 0.92191251E+02</rscale>
<asrwt>0</asrwt>
<pdfrwt beam="1">  1        3 0.41123157E-02 0.92191251E+02</pdfrwt>
<pdfrwt beam="2">  1       -3 0.12229431E-01 0.92191251E+02</pdfrwt>
<totfact> 0.33200838E+04</totfact>
</mgrwt>
</event>
<event>
 5    1  0.1227473E+001  0.9157472E+02  0.7546771E-02  0.1299082E+00
         -2   -1    0    0    0  501 -0.00000000000E+00  0.00000000000E+00  0.84760053652E+01  0.84760053652E+01  0.00000000000E+00 0.  1.
          2   -1    0    0  501    0  0.00000000000E+00 -0.00000000000E+00 -0.24734320082E+03  0.24734320082E+03  0.00000000000E+00 0. -1.
         23    2    1    2    0    0  0.00000000000E+00  0.00000000000E+00 -0.23886719546E+03  0.25581920619E+03  0.91574719158E+02 0.  0.
        -11    1    3    3    0    0 -0.67020998922E+01 -0.45012394580E+02 -0.10534108138E+03  0.11475093566E+03  0.00000000000E+00 0. -1.
         11    1    3    3    0    0  0.67020998922E+01  0.45012394580E+02 -0.13352611408E+03  0.14106827053E+03  0.00000000000E+00 0.  1.
<mgrwt>
<rscale>  0 0.91574719E+02</rscale>
<asrwt>0</asrwt>
<pdfrwt beam="2">  1        2 0.38052802E-01 0.91574719E+02</pdfrwt>
<pdfrwt beam="1">  1       -2 0.13040008E-02 0.91574719E+02</pdfrwt>
<totfact> 0.16525753E+05</totfact>
</mgrwt>
</event>
<event>
 5    1  0.1227473E+001  0.9171712E+02  0.7546771E-02  0.1298746E+00
          1   -1    0    0  501    0  0.00000000000E+00  0.00000000000E+00  0.21613543455E+03  0.21613543455E+03  0.00000000000E+00 0. -1.
         -1   -1    0    0    0  501 -0.00000000000E+00 -0.00000000000E+00 -0.97300451294E+01  0.97300451294E+01  0.00000000000E+00 0.  1.
         23    2    1    2    0    0  0.00000000000E+00  0.00000000000E+00  0.20640538942E+03  0.22586547968E+03  0.91717120152E+02 0.  0.
        -13    1    3    3    0    0 -0.34241286588E+02  0.84387129923E+01  0.31012298696E+02  0.46962115099E+02  0.00000000000E+00 0.  1.
         13    1    3    3    0    0  0.34241286588E+02 -0.84387129923E+01  0.17539309073E+03  0.17890336458E+03  0.00000000000E+00 0. -1.
<mgrwt>
<rscale>  0 0.91717120E+02</rscale>
<asrwt>0</asrwt>
<pdfrwt beam="1">  1        1 0.33251602E-01 0.91717120E+02</pdfrwt>
<pdfrwt beam="2">  1       -1 0.14969302E-02 0.91717120E+02</pdfrwt>
<totfact> 0.11831781E+05</totfact>
</mgrwt>
</event>
<event>
 5    1  0.1227473E+001  0.9299907E+02  0.7546771E-02  0.1295747E+00
          1   -1    0    0  501    0  0.00000000000E+00  0.00000000000E+00  0.12488281888E+03  0.12488281888E+03  0.00000000000E+00 0. -1.
         -1   -1    0    0    0  501 -0.00000000000E+00 -0.00000000000E+00 -0.17313886667E+02  0.17313886667E+02  0.00000000000E+00 0.  1.
         23    2    1    2    0    0  0.00000000000E+00  0.00000000000E+00  0.10756893221E+03  0.14219670555E+03  0.92999074679E+02 0.  0.
        -11    1    3    3    0    0  0.34657255076E+02  0.30418423784E+02  0.62933164749E+02  0.78019158289E+02  0.00000000000E+00 0.  1.
         11    1    3    3    0    0 -0.34657255076E+02 -0.30418423784E+02  0.44635767464E+02  0.64177547258E+02  0.00000000000E+00 0. -1.
<mgrwt>
<rscale>  0 0.92999075E+02</rscale>
<asrwt>0</asrwt>
<pdfrwt beam="1">  1        1 0.19212741E-01 0.92999075E+02</pdfrwt>
<pdfrwt beam="2">  1       -1 0.26636749E-02 0.92999075E+02</pdfrwt>
<totfact> 0.10281817E+05</totfact>
</mgrwt>
</event>
<event>
 5    1  0.1227473E+001  0.8936457E+02  0.7546771E-02  0.1304398E+00
          1   -1    0    0  501    0  0.00000000000E+00  0.00000000000E+00  0.15967300177E+02  0.15967300177E+02  0.00000000000E+00 0. -1.
         -1   -1    0    0    0  501 -0.00000000000E+00 -0.00000000000E+00 -0.12503721822E+03  0.12503721822E+03  0.00000000000E+00 0.  1.
         23    2    1    2    0    0  0.00000000000E+00  0.00000000000E+00 -0.10906991804E+03  0.14100451840E+03  0.89364574562E+02 0.  0.
        -11    1    3    3    0    0 -0.29178740051E+02 -0.13911573359E+02 -0.10320810183E+03  0.10815194417E+03  0.00000000000E+00 0.  1.
         11    1    3    3    0    0  0.29178740051E+02  0.13911573359E+02 -0.58618162170E+01  0.32852574232E+02  0.00000000000E+00 0. -1.
<mgrwt>
<rscale>  0 0.89364575E+02</rscale>
<asrwt>0</asrwt>
<pdfrwt beam="1">  1        1 0.24565076E-02 0.89364575E+02</pdfrwt>
<pdfrwt beam="2">  1       -1 0.19236496E-01 0.89364575E+02</pdfrwt>
<totfact> 0.82010915E+04</totfact>
</mgrwt>
</event>
<event>
 5    1  0.1227473E+001  0.9082340E+02  0.7546771E-02  0.1300870E+00
          2   -1    0    0  501    0  0.00000000000E+00  0.00000000000E+00  0.88800839953E+01  0.88800839953E+01  0.00000000000E+00 0. -1.
         -2   -1    0    0    0  501 -0.00000000000E+00 -0.00000000000E+00 -0.23223008514E+03  0.23223008514E+03  0.00000000000E+00 0.  1.
         23    2    1    2    0    0  0.00000000000E+00  0.00000000000E+00 -0.22335000114E+03  0.24111016913E+03  0.90823403642E+02 0.  0.
        -11    1    3    3    0    0  0.26019376668E+02 -0.35400465384E+02 -0.14217785613E+03  0.14881110068E+03  0.00000000000E+00 0.  1.
         11    1    3    3    0    0 -0.26019376668E+02  0.35400465384E+02 -0.81172145017E+02  0.92299068458E+02  0.00000000000E+00 0. -1.
<mgrwt>
<rscale>  0 0.90823404E+02</rscale>
<asrwt>0</asrwt>
<pdfrwt beam="1">  1        2 0.13661668E-02 0.90823404E+02</pdfrwt>
<pdfrwt beam="2">  1       -2 0.35727706E-01 0.90823404E+02</pdfrwt>
<totfact> 0.58814832E+04</totfact>
</mgrwt>
</event>
<event>
 5    1  0.1227473E+001  0.8976330E+02  0.7546771E-02  0.1303426E+00
         -1   -1    0    0    0  501 -0.00000000000E+00  0.00000000000E+00  0.16728359272E+02  0.16728359272E+02  0.00000000000E+00 0.  1.
          1   -1    0    0  501    0  0.00000000000E+00 -0.00000000000E+00 -0.12041603686E+03  0.12041603686E+03  0.00000000000E+00 0. -1.
         23    2    1    2    0    0  0.00000000000E+00  0.00000000000E+00 -0.10368767759E+03  0.13714439613E+03  0.89763304902E+02 0.  0.
        -13    1    3    3    0    0 -0.37169604711E+02 -0.25132598305E+02 -0.53472061714E+02  0.69803211931E+02  0.00000000000E+00 0.  1.
         13    1    3    3    0    0  0.37169604711E+02  0.25132598305E+02 -0.50215615873E+02  0.67341184200E+02  0.00000000000E+00 0. -1.
<mgrwt>
<rscale>  0 0.89763305E+02</rscale>
<asrwt>0</asrwt>
<pdfrwt beam="2">  1        1 0.18525543E-01 0.89763305E+02</pdfrwt>
<pdfrwt beam="1">  1       -1 0.25735938E-02 0.89763305E+02</pdfrwt>
<totfact> 0.11246158E+05</totfact>
</mgrwt>
</event>
<event>
 5    1  0.1227473E+001  0.9114299E+02  0.7546771E-02  0.1300107E+00
         -2   -1    0    0    0  501 -0.00000000000E+00  0.00000000000E+00  0.16338759625E+03  0.16338759625E+03  0.00000000000E+00 0.  1.
          2   -1    0    0  501    0  0.00000000000E+00 -0.00000000000E+00 -0.12710641675E+02  0.12710641675E+02  0.00000000000E+00 0. -1.
         23    2    1    2    0    0  0.00000000000E+00  0.00000000000E+00  0.15067695458E+03  0.17609823793E+03  0.91142990738E+02 0.  0.
        -11    1    3    3    0    0  0.23364728687E+02  0.20252913684E+02  0.14001856997E+03  0.14339208833E+03  0.00000000000E+00 0.  1.
         11    1    3    3    0    0 -0.23364728687E+02 -0.20252913684E+02  0.10658384615E+02  0.32706149604E+02  0.00000000000E+00 0. -1.
<mgrwt>
<rscale>  0 0.91142991E+02</rscale>
<asrwt>0</asrwt>
<pdfrwt beam="2">  1        2 0.19554835E-02 0.91142991E+02</pdfrwt>
<pdfrwt beam="1">  1       -2 0.25136552E-01 0.91142991E+02</pdfrwt>
<totfact> 0.67727903E+04</totfact>
</mgrwt>
</event>
<event>
 5    1  0.1227473E+001  0.9741806E+02  0.7546771E-02  0.1285821E+00
         -1   -1    0    0    0  501 -0.00000000000E+00  0.00000000000E+00  0.33331870502E+02  0.33331870502E+02  0.00000000000E+00 0.  1.
          1   -1    0    0  501    0  0.00000000000E+00 -0.00000000000E+00 -0.71180211657E+02  0.71180211657E+02  0.00000000000E+00 0. -1.
         23    2    1    2    0    0  0.00000000000E+00  0.00000000000E+00 -0.37848341155E+02  0.10451208216E+03  0.97418059871E+02 0.  0.
        -11    1    3    3    0    0 -0.42729514648E+02  0.17668649864E+02 -0.24929537733E+01  0.46305587445E+02  0.00000000000E+00 0.  1.
         11    1    3    3    0    0  0.42729514648E+02 -0.17668649864E+02 -0.35355387382E+02  0.58206494715E+02  0.00000000000E+00 0. -1.
<mgrwt>
<rscale>  0 0.97418060E+02</rscale>
<asrwt>0</asrwt>
<pdfrwt beam="2">  1        1 0.10950802E-01 0.97418060E+02</pdfrwt>
<pdfrwt beam="1">  1       -1 0.51279801E-02 0.97418060E+02</pdfrwt>
<totfact> 0.82337679E+04</totfact>
</mgrwt>
</event>
<event>
 5    1  0.1227473E+001  0.9179314E+02  0.7546771E-02  0.1298567E+00
         -1   -1    0    0    0  501 -0.00000000000E+00  0.00000000000E+00  0.74784801118E+02  0.74784801118E+02  0.00000000000E+00 0.  1.
          1   -1    0    0  501    0  0.00000000000E+00 -0.00000000000E+00 -0.28167424864E+02  0.28167424864E+02  0.00000000000E+00 0. -1.
         23    2    1    2    0    0  0.00000000000E+00  0.00000000000E+00  0.46617376254E+02  0.10295222598E+03  0.91793142804E+02 0.  0.
        -11    1    3    3    0    0  0.31303136286E+02  0.37266225591E+01  0.60721356537E+02  0.68416790313E+02  0.00000000000E+00 0.  1.
         11    1    3    3    0    0 -0.31303136286E+02 -0.37266225591E+01 -0.14103980284E+02  0.34535435669E+02  0.00000000000E+00 0. -1.
<mgrwt>
<rscale>  0 0.91793143E+02</rscale>
<asrwt>0</asrwt>
<pdfrwt beam="2">  1        1 0.43334500E-02 0.91793143E+02</pdfrwt>
<pdfrwt beam="1">  1       -1 0.11505354E-01 0.91793143E+02</pdfrwt>
<totfact> 0.84147018E+04</totfact>
</mgrwt>
</event>
<event>
 5    1  0.1227473E+001  0.9117061E+02  0.7546771E-02  0.1300041E+00
          3   -1    0    0  501    0  0.00000000000E+00  0.00000000000E+00  0.20852056425E+02  0.20852056425E+02  0.00000000000E+00 0. -1.
         -3   -1    0    0    0  501 -0.00000000000E+00 -0.00000000000E+00 -0.99655409992E+02  0.99655409992E+02  0.00000000000E+00 0.  1.
         23    2    1    2    0    0  0.00000000000E+00  0.00000000000E+00 -0.78803353567E+02  0.12050746642E+03  0.91170614393E+02 0.  0.
        -11    1    3    3    0    0 -0.11239740830E+01  0.33917514973E+02 -0.79631558775E+02  0.86561228576E+02  0.00000000000E+00 0.  1.
         11    1    3    3    0    0  0.11239740830E+01 -0.33917514973E+02  0.82820520831E+00  0.33946237841E+02  0.00000000000E+00 0. -1.
<mgrwt>
<rscale>  0 0.91170614E+02</rscale>
<asrwt>0</asrwt>
<pdfrwt beam="1">  1        3 0.32080086E-02 0.91170614E+02</pdfrwt>
<pdfrwt beam="2">  1       -3 0.15331602E-01 0.91170614E+02</pdfrwt>
<totfact> 0.33219498E+04</totfact>
</mgrwt>
</event>
<event>
 5    1  0.1227473E+001  0.9209146E+02  0.7546771E-02  0.1297865E+00
          1   -1    0    0  501    0  0.00000000000E+00  0.00000000000E+00  0.40824928355E+02  0.40824928355E+02  0.00000000000E+00 0. -1.
         -1   -1    0    0    0  501 -0.00000000000E+00 -0.00000000000E+00 -0.51934184533E+02  0.51934184533E+02  0.00000000000E+00 0.  1.
         23    2    1    2    0    0  0.00000000000E+00  0.00000000000E+00 -0.11109256178E+02  0.92759112888E+02  0.92091462421E+02 0.  0.
        -13    1    3    3    0    0 -0.11667056579E+02 -0.16296651044E+02  0.36200809197E+02  0.41378734043E+02  0.00000000000E+00 0. -1.
         13    1    3    3    0    0  0.11667056579E+02  0.16296651044E+02 -0.47310065375E+02  0.51380378845E+02  0.00000000000E+00 0.  1.
<mgrwt>
<rscale>  0 0.92091462E+02</rscale>
<asrwt>0</asrwt>
<pdfrwt beam="1">  1        1 0.62807582E-02 0.92091462E+02</pdfrwt>
<pdfrwt beam="2">  1       -1 0.79898746E-02 0.92091462E+02</pdfrwt>
<totfact> 0.88414686E+04</totfact>
</mgrwt>
</event>
<event>
 5    1  0.1227473E+001  0.9254377E+02  0.7546771E-02  0.1296806E+00
         -2   -1    0    0    0  501 -0.00000000000E+00  0.00000000000E+00  0.11004006599E+02  0.11004006599E+02  0.00000000000E+00 0.  1.
          2   -1    0    0  501    0  0.00000000000E+00 -0.00000000000E+00 -0.19457341481E+03  0.19457341481E+03  0.00000000000E+00 0. -1.
         23    2    1    2    0    0  0.00000000000E+00  0.00000000000E+00 -0.18356940821E+03  0.20557742141E+03  0.92543765658E+02 0.  0.
        -11    1    3    3    0    0  0.35041487686E+02  0.24400861985E+02 -0.52185086556E+02  0.67428415254E+02  0.00000000000E+00 0.  1.
         11    1    3    3    0    0 -0.35041487686E+02 -0.24400861985E+02 -0.13138432166E+03  0.13814900616E+03  0.00000000000E+00 0. -1.
<mgrwt>
<rscale>  0 0.92543766E+02</rscale>
<asrwt>0</asrwt>
<pdfrwt beam="2">  1        2 0.29934369E-01 0.92543766E+02</pdfrwt>
<pdfrwt beam="1">  1       -2 0.16929243E-02 0.92543766E+02</pdfrwt>
<totfact> 0.14712329E+05</totfact>
</mgrwt>
</event>
<event>
 5    1  0.1227473E+001  0.9026862E+02  0.7546771E-02  0.1302202E+00
         -2   -1    0    0    0  501 -0.00000000000E+00  0.00000000000E+00  0.10640665558E+03  0.10640665558E+03  0.00000000000E+00 0.  1.
          2   -1    0    0  501    0  0.00000000000E+00 -0.00000000000E+00 -0.19144537004E+02  0.19144537004E+02  0.00000000000E+00 0. -1.
         23    2    1    2    0    0  0.00000000000E+00  0.00000000000E+00  0.87262118573E+02  0.12555119258E+03  0.90268624785E+02 0.  0.
        -11    1    3    3    0    0  0.21811863176E+02  0.38674325047E+02  0.54900076446E+02  0.70607925807E+02  0.00000000000E+00 0. -1.
         11    1    3    3    0    0 -0.21811863176E+02 -0.38674325047E+02  0.32362042127E+02  0.54943266773E+02  0.00000000000E+00 0.  1.
<mgrwt>
<rscale>  0 0.90268625E+02</rscale>
<asrwt>0</asrwt>
<pdfrwt beam="2">  1        2 0.29453134E-02 0.90268625E+02</pdfrwt>
<pdfrwt beam="1">  1       -2 0.16370254E-01 0.90268625E+02</pdfrwt>
<totfact> 0.80303267E+04</totfact>
</mgrwt>
</event>
<event>
 5    1  0.1227473E+001  0.9185329E+02  0.7546771E-02  0.1298425E+00
         -1   -1    0    0    0  501 -0.00000000000E+00  0.00000000000E+00  0.17190386259E+03  0.17190386259E+03  0.00000000000E+00 0.  1.
          1   -1    0    0  501    0  0.00000000000E+00 -0.00000000000E+00 -0.12269978547E+02  0.12269978547E+02  0.00000000000E+00 0. -1.
         23    2    1    2    0    0  0.00000000000E+00  0.00000000000E+00  0.15963388404E+03  0.18417384114E+03  0.91853289677E+02 0.  0.
        -11    1    3    3    0    0 -0.33323783812E+02 -0.24490383036E+02  0.39765195185E+02  0.57371806464E+02  0.00000000000E+00 0. -1.
         11    1    3    3    0    0  0.33323783812E+02  0.24490383036E+02  0.11986868886E+03  0.12680203467E+03  0.00000000000E+00 0.  1.
<mgrwt>
<rscale>  0 0.91853290E+02</rscale>
<asrwt>0</asrwt>
<pdfrwt beam="2">  1        1 0.18876891E-02 0.91853290E+02</pdfrwt>
<pdfrwt beam="1">  1       -1 0.26446746E-01 0.91853290E+02</pdfrwt>
<totfact> 0.70953722E+04</totfact>
</mgrwt>
</event>
<event>
 5    1  0.1227473E+001  0.9041943E+02  0.7546771E-02  0.1301839E+00
         -2   -1    0    0    0  501 -0.00000000000E+00  0.00000000000E+00  0.13091773896E+02  0.13091773896E+02  0.00000000000E+00 0.  1.
          2   -1    0    0  501    0  0.00000000000E+00 -0.00000000000E+00 -0.15612232902E+03  0.15612232902E+03  0.00000000000E+00 0. -1.
         23    2    1    2    0    0  0.00000000000E+00  0.00000000000E+00 -0.14303055513E+03  0.16921410292E+03  0.90419427818E+02 0.  0.
        -13    1    3    3    0    0 -0.88552571907E+01 -0.43262621955E+02 -0.53385696868E+02  0.69282773244E+02  0.00000000000E+00 0.  1.
         13    1    3    3    0    0  0.88552571907E+01  0.43262621955E+02 -0.89644858260E+02  0.99931329676E+02  0.00000000000E+00 0. -1.
<mgrwt>
<rscale>  0 0.90419428E+02</rscale>
<asrwt>0</asrwt>
<pdfrwt beam="2">  1        2 0.24018818E-01 0.90419428E+02</pdfrwt>
<pdfrwt beam="1">  1       -2 0.20141192E-02 0.90419428E+02</pdfrwt>
<totfact> 0.14497239E+05</totfact>
</mgrwt>
</event>
<event>
 5    1  0.1227473E+001  0.9297350E+02  0.7546771E-02  0.1295807E+00
         -2   -1    0    0    0  501 -0.00000000000E+00  0.00000000000E+00  0.12719792720E+03  0.12719792720E+03  0.00000000000E+00 0.  1.
          2   -1    0    0  501    0  0.00000000000E+00 -0.00000000000E+00 -0.16989410597E+02  0.16989410597E+02  0.00000000000E+00 0. -1.
         23    2    1    2    0    0  0.00000000000E+00  0.00000000000E+00  0.11020851660E+03  0.14418733780E+03  0.92973497564E+02 0.  0.
        -11    1    3    3    0    0  0.15761061912E+02  0.30944343466E+02  0.71770649454E+01  0.35460875996E+02  0.00000000000E+00 0. -1.
         11    1    3    3    0    0 -0.15761061912E+02 -0.30944343466E+02  0.10303145166E+03  0.10872646180E+03  0.00000000000E+00 0.  1.
<mgrwt>
<rscale>  0 0.92973498E+02</rscale>
<asrwt>0</asrwt>
<pdfrwt beam="2">  1        2 0.26137556E-02 0.92973498E+02</pdfrwt>
<pdfrwt beam="1">  1       -2 0.19568911E-01 0.92973498E+02</pdfrwt>
<totfact> 0.70439102E+04</totfact>
</mgrwt>
</event>
<event>
 5    1  0.1227473E+001  0.9305850E+02  0.7546771E-02  0.1295610E+00
          2   -1    0    0  501    0  0.00000000000E+00  0.00000000000E+00  0.28519018586E+02  0.28519018586E+02  0.00000000000E+00 0. -1.
         -2   -1    0    0    0  501 -0.00000000000E+00 -0.00000000000E+00 -0.75913239071E+02  0.75913239071E+02  0.00000000000E+00 0.  1.
         23    2    1    2    0    0  0.00000000000E+00  0.00000000000E+00 -0.47394220486E+02  0.10443225766E+03  0.93058499365E+02 0.  0.
        -11    1    3    3    0    0 -0.14903675374E+02 -0.43840272035E+02 -0.28825317198E+02  0.54543449683E+02  0.00000000000E+00 0.  1.
         11    1    3    3    0    0  0.14903675374E+02  0.43840272035E+02 -0.18568903288E+02  0.49888807974E+02  0.00000000000E+00 0. -1.
<mgrwt>
<rscale>  0 0.93058499E+02</rscale>
<asrwt>0</asrwt>
<pdfrwt beam="1">  1        2 0.43875414E-02 0.93058499E+02</pdfrwt>
<pdfrwt beam="2">  1       -2 0.11678960E-01 0.93058499E+02</pdfrwt>
<totfact> 0.82097550E+04</totfact>
</mgrwt>
</event>
<event>
 5    1  0.1227473E+001  0.9116737E+02  0.7546771E-02  0.1300049E+00
          1   -1    0    0  501    0  0.00000000000E+00  0.00000000000E+00  0.61703857486E+02  0.61703857486E+02  0.00000000000E+00 0. -1.
         -1   -1    0    0    0  501 -0.00000000000E+00 -0.00000000000E+00 -0.33674916649E+02  0.33674916649E+02  0.00000000000E+00 0.  1.
         23    2    1    2    0    0  0.00000000000E+00  0.00000000000E+00  0.28028940836E+02  0.95378774135E+02  0.91167368236E+02 0.  0.
        -11    1    3    3    0    0 -0.91487652450E+01  0.17362037916E+02  0.57057855595E+02  0.60338537861E+02  0.00000000000E+00 0. -1.
         11    1    3    3    0    0  0.91487652450E+01 -0.17362037916E+02 -0.29028914759E+02  0.35040236274E+02  0.00000000000E+00 0.  1.
<mgrwt>
<rscale>  0 0.91167368E+02</rscale>
<asrwt>0</asrwt>
<pdfrwt beam="1">  1        1 0.94929011E-02 0.91167368E+02</pdfrwt>
<pdfrwt beam="2">  1       -1 0.51807564E-02 0.91167368E+02</pdfrwt>
<totfact> 0.96809011E+04</totfact>
</mgrwt>
</event>
<event>
 5    1  0.1227473E+001  0.8974924E+02  0.7546771E-02  0.1303460E+00
         -1   -1    0    0    0  501 -0.00000000000E+00  0.00000000000E+00  0.10775315834E+02  0.10775315834E+02  0.00000000000E+00 0.  1.
          1   -1    0    0  501    0  0.00000000000E+00 -0.00000000000E+00 -0.18688377846E+03  0.18688377846E+03  0.00000000000E+00 0. -1.
         23    2    1    2    0    0  0.00000000000E+00  0.00000000000E+00 -0.17610846263E+03  0.19765909429E+03  0.89749244835E+02 0.  0.
        -11    1    3    3    0    0 -0.19647645712E+02 -0.28435956133E+02 -0.25023264087E+02  0.42670801830E+02  0.00000000000E+00 0.  1.
         11    1    3    3    0    0  0.19647645712E+02  0.28435956133E+02 -0.15108519854E+03  0.15498829246E+03  0.00000000000E+00 0. -1.
<mgrwt>
<rscale>  0 0.89749245E+02</rscale>
<asrwt>0</asrwt>
<pdfrwt beam="2">  1        1 0.28751348E-01 0.89749245E+02</pdfrwt>
<pdfrwt beam="1">  1       -1 0.16577411E-02 0.89749245E+02</pdfrwt>
<totfact> 0.12191538E+05</totfact>
</mgrwt>
</event>
<event>
 5    1  0.1227473E+001  0.8812719E+02  0.7546771E-02  0.1307451E+00
         -2   -1    0    0    0  501 -0.00000000000E+00  0.00000000000E+00  0.21566782481E+02  0.21566782481E+02  0.00000000000E+00 0.  1.
          2   -1    0    0  501    0  0.00000000000E+00 -0.00000000000E+00 -0.90027355541E+02  0.90027355541E+02  0.00000000000E+00 0. -1.
         23    2    1    2    0    0  0.00000000000E+00  0.00000000000E+00 -0.68460573060E+02  0.11159413802E+03  0.88127189772E+02 0.  0.
        -13    1    3    3    0    0  0.31711480764E+02  0.30584536359E+02 -0.33275506182E+02  0.55211332063E+02  0.00000000000E+00 0. -1.
         13    1    3    3    0    0 -0.31711480764E+02 -0.30584536359E+02 -0.35185066878E+02  0.56382805959E+02  0.00000000000E+00 0.  1.
<mgrwt>
<rscale>  0 0.88127190E+02</rscale>
<asrwt>0</asrwt>
<pdfrwt beam="2">  1        2 0.13850362E-01 0.88127190E+02</pdfrwt>
<pdfrwt beam="1">  1       -2 0.33179666E-02 0.88127190E+02</pdfrwt>
<totfact> 0.13055093E+05</totfact>
</mgrwt>
</event>
<event>
 4    1  0.1227473E+001  0.5065446E+02  0.7546771E-02  0.1441843E+00
          1   -1    0    0  501    0  0.00000000000E+00  0.00000000000E+00  0.54581222729E+02  0.54581222729E+02  0.00000000000E+00 0. -1.
         -1   -1    0    0    0  501 -0.00000000000E+00 -0.00000000000E+00 -0.11752550604E+02  0.11752550604E+02  0.00000000000E+00 0.  1.
        -13    1    1    2    0    0  0.13705277136E+02  0.11074733001E+02  0.45238664937E+02  0.48549162070E+02  0.00000000000E+00 0. -1.
         13    1    1    2    0    0 -0.13705277136E+02 -0.11074733001E+02 -0.24099928128E+01  0.17784611263E+02  0.00000000000E+00 0.  1.
<mgrwt>
<rscale>  0 0.50654460E+02</rscale>
<asrwt>0</asrwt>
<pdfrwt beam="1">  1        1 0.83971111E-02 0.50654460E+02</pdfrwt>
<pdfrwt beam="2">  1       -1 0.18080847E-02 0.50654460E+02</pdfrwt>
<totfact> 0.45504751E+05</totfact>
</mgrwt>
</event>
<event>
 5    1  0.1227473E+001  0.9127436E+02  0.7546771E-02  0.1299795E+00
         -1   -1    0    0    0  501 -0.00000000000E+00  0.00000000000E+00  0.20174996048E+03  0.20174996048E+03  0.00000000000E+00 0.  1.
          1   -1    0    0  501    0  0.00000000000E+00 -0.00000000000E+00 -0.10323431928E+02  0.10323431928E+02  0.00000000000E+00 0. -1.
         23    2    1    2    0    0  0.00000000000E+00  0.00000000000E+00  0.19142652855E+03  0.21207339241E+03  0.91274355291E+02 0.  0.
        -13    1    3    3    0    0  0.44139068532E+02 -0.80282579570E+01  0.11515861173E+03  0.12358889980E+03  0.00000000000E+00 0.  1.
         13    1    3    3    0    0 -0.44139068532E+02  0.80282579570E+01  0.76267916815E+02  0.88484492608E+02  0.00000000000E+00 0. -1.
<mgrwt>
<rscale>  0 0.91274355E+02</rscale>
<asrwt>0</asrwt>
<pdfrwt beam="2">  1        1 0.15882204E-02 0.91274355E+02</pdfrwt>
<pdfrwt beam="1">  1       -1 0.31038452E-01 0.91274355E+02</pdfrwt>
<totfact> 0.69058443E+04</totfact>
</mgrwt>
</event>
<event>
 5    1  0.1227473E+001  0.9084884E+02  0.7546771E-02  0.1300809E+00
         -2   -1    0    0    0  501 -0.00000000000E+00  0.00000000000E+00  0.15790714300E+02  0.15790714300E+02  0.00000000000E+00 0.  1.
          2   -1    0    0  501    0  0.00000000000E+00 -0.00000000000E+00 -0.13067033166E+03  0.13067033166E+03  0.00000000000E+00 0. -1.
         23    2    1    2    0    0  0.00000000000E+00  0.00000000000E+00 -0.11487961736E+03  0.14646104596E+03  0.90848838731E+02 0.  0.
        -13    1    3    3    0    0 -0.40936142939E+02  0.60154013660E+01 -0.27218094665E+02  0.49525524021E+02  0.00000000000E+00 0.  1.
         13    1    3    3    0    0  0.40936142939E+02 -0.60154013660E+01 -0.87661522696E+02  0.96935521939E+02  0.00000000000E+00 0. -1.
<mgrwt>
<rscale>  0 0.90848839E+02</rscale>
<asrwt>0</asrwt>
<pdfrwt beam="2">  1        2 0.20103128E-01 0.90848839E+02</pdfrwt>
<pdfrwt beam="1">  1       -2 0.24293407E-02 0.90848839E+02</pdfrwt>
<totfact> 0.13482349E+05</totfact>
</mgrwt>
</event>
<event>
 5    1  0.1227473E+001  0.9142455E+02  0.7546771E-02  0.1299438E+00
         -1   -1    0    0    0  501 -0.00000000000E+00  0.00000000000E+00  0.15627094447E+02  0.15627094447E+02  0.00000000000E+00 0.  1.
          1   -1    0    0  501    0  0.00000000000E+00 -0.00000000000E+00 -0.13371725724E+03  0.13371725724E+03  0.00000000000E+00 0. -1.
         23    2    1    2    0    0  0.00000000000E+00  0.00000000000E+00 -0.11809016280E+03  0.14934435169E+03  0.91424552680E+02 0.  0.
        -11    1    3    3    0    0 -0.25680056098E+02  0.62643085007E+01  0.18770023240E+01  0.26499622260E+02  0.00000000000E+00 0.  1.
         11    1    3    3    0    0  0.25680056098E+02 -0.62643085007E+01 -0.11996716512E+03  0.12284472943E+03  0.00000000000E+00 0. -1.
<mgrwt>
<rscale>  0 0.91424553E+02</rscale>
<asrwt>0</asrwt>
<pdfrwt beam="2">  1        1 0.20571886E-01 0.91424553E+02</pdfrwt>
<pdfrwt beam="1">  1       -1 0.24041683E-02 0.91424553E+02</pdfrwt>
<totfact> 0.10901449E+05</totfact>
</mgrwt>
</event>
<event>
 5    1  0.1227473E+001  0.9309378E+02  0.7546771E-02  0.1295528E+00
          2   -1    0    0  501    0  0.00000000000E+00  0.00000000000E+00  0.87172891003E+01  0.87172891003E+01  0.00000000000E+00 0. -1.
         -2   -1    0    0    0  501 -0.00000000000E+00 -0.00000000000E+00 -0.24854206197E+03  0.24854206197E+03  0.00000000000E+00 0.  1.
         23    2    1    2    0    0  0.00000000000E+00  0.00000000000E+00 -0.23982477287E+03  0.25725935107E+03  0.93093780841E+02 0.  0.
        -11    1    3    3    0    0 -0.42780204446E+02  0.42043995391E+01 -0.70571955169E+02  0.82633066773E+02  0.00000000000E+00 0. -1.
         11    1    3    3    0    0  0.42780204446E+02 -0.42043995391E+01 -0.16925281771E+03  0.17462628430E+03  0.00000000000E+00 0.  1.
<mgrwt>
<rscale>  0 0.93093781E+02</rscale>
<asrwt>0</asrwt>
<pdfrwt beam="1">  1        2 0.13411216E-02 0.93093781E+02</pdfrwt>
<pdfrwt beam="2">  1       -2 0.38237234E-01 0.93093781E+02</pdfrwt>
<totfact> 0.53408202E+04</totfact>
</mgrwt>
</event>
<event>
 5    1  0.1227473E+001  0.9401707E+02  0.7546771E-02  0.1293405E+00
          1   -1    0    0  501    0  0.00000000000E+00  0.00000000000E+00  0.84392934009E+02  0.84392934009E+02  0.00000000000E+00 0.  1.
         -1   -1    0    0    0  501 -0.00000000000E+00 -0.00000000000E+00 -0.26184683425E+02  0.26184683425E+02  0.00000000000E+00 0. -1.
         23    2    1    2    0    0  0.00000000000E+00  0.00000000000E+00  0.58208250584E+02  0.11057761743E+03  0.94017067819E+02 0.  0.
        -13    1    3    3    0    0  0.23566427697E+02 -0.14886641929E+02  0.73624148194E+02  0.78724226383E+02  0.00000000000E+00 0.  1.
         13    1    3    3    0    0 -0.23566427697E+02  0.14886641929E+02 -0.15415897610E+02  0.31853391051E+02  0.00000000000E+00 0. -1.
<mgrwt>
<rscale>  0 0.94017068E+02</rscale>
<asrwt>0</asrwt>
<pdfrwt beam="1">  1        1 0.12983528E-01 0.94017068E+02</pdfrwt>
<pdfrwt beam="2">  1       -1 0.40284129E-02 0.94017068E+02</pdfrwt>
<totfact> 0.93388473E+04</totfact>
</mgrwt>
</event>
<event>
 5    1  0.1227473E+001  0.9039668E+02  0.7546771E-02  0.1301894E+00
         -3   -1    0    0    0  501 -0.00000000000E+00  0.00000000000E+00  0.77771582309E+01  0.77771582309E+01  0.00000000000E+00 0.  1.
          3   -1    0    0  501    0  0.00000000000E+00 -0.00000000000E+00 -0.26267819724E+03  0.26267819724E+03  0.00000000000E+00 0. -1.
         23    2    1    2    0    0  0.00000000000E+00  0.00000000000E+00 -0.25490103901E+03  0.27045535548E+03  0.90396679226E+02 0.  0.
        -13    1    3    3    0    0 -0.29877665891E+02  0.19235806089E+02 -0.21101962117E+03  0.21399058781E+03  0.00000000000E+00 0. -1.
         13    1    3    3    0    0  0.29877665891E+02 -0.19235806089E+02 -0.43881417846E+02  0.56464767663E+02  0.00000000000E+00 0.  1.
<mgrwt>
<rscale>  0 0.90396679E+02</rscale>
<asrwt>0</asrwt>
<pdfrwt beam="2">  1        3 0.40412033E-01 0.90396679E+02</pdfrwt>
<pdfrwt beam="1">  1       -3 0.11964858E-02 0.90396679E+02</pdfrwt>
<totfact> 0.25809536E+04</totfact>
</mgrwt>
</event>
<event>
 5    1  0.1227473E+001  0.9148324E+02  0.7546771E-02  0.1299299E+00
          3   -1    0    0  501    0  0.00000000000E+00  0.00000000000E+00  0.70727691012E+02  0.70727691012E+02  0.00000000000E+00 0. -1.
         -3   -1    0    0    0  501 -0.00000000000E+00 -0.00000000000E+00 -0.29582410536E+02  0.29582410536E+02  0.00000000000E+00 0.  1.
         23    2    1    2    0    0  0.00000000000E+00  0.00000000000E+00  0.41145280476E+02  0.10031010155E+03  0.91483235442E+02 0.  0.
        -11    1    3    3    0    0  0.83436191825E+01  0.35043710973E+02  0.51481453811E+02  0.62833253507E+02  0.00000000000E+00 0.  1.
         11    1    3    3    0    0 -0.83436191825E+01 -0.35043710973E+02 -0.10336173335E+02  0.37476848040E+02  0.00000000000E+00 0. -1.
<mgrwt>
<rscale>  0 0.91483235E+02</rscale>
<asrwt>0</asrwt>
<pdfrwt beam="1">  1        3 0.10881183E-01 0.91483235E+02</pdfrwt>
<pdfrwt beam="2">  1       -3 0.45511401E-02 0.91483235E+02</pdfrwt>
<totfact> 0.34332511E+04</totfact>
</mgrwt>
</event>
<event>
 5    1  0.1227473E+001  0.9290220E+02  0.7546771E-02  0.1295972E+00
          1   -1    0    0  501    0  0.00000000000E+00  0.00000000000E+00  0.24841084776E+02  0.24841084776E+02  0.00000000000E+00 0. -1.
         -1   -1    0    0    0  501 -0.00000000000E+00 -0.00000000000E+00 -0.86860316590E+02  0.86860316590E+02  0.00000000000E+00 0.  1.
         23    2    1    2    0    0  0.00000000000E+00  0.00000000000E+00 -0.62019231814E+02  0.11170140137E+03  0.92902195628E+02 0.  0.
        -13    1    3    3    0    0  0.19831006945E+02  0.17419265990E+02 -0.76967335234E+02  0.81367501849E+02  0.00000000000E+00 0.  1.
         13    1    3    3    0    0 -0.19831006945E+02 -0.17419265990E+02  0.14948103420E+02  0.30333899518E+02  0.00000000000E+00 0. -1.
<mgrwt>
<rscale>  0 0.92902196E+02</rscale>
<asrwt>0</asrwt>
<pdfrwt beam="1">  1        1 0.38217054E-02 0.92902196E+02</pdfrwt>
<pdfrwt beam="2">  1       -1 0.13363126E-01 0.92902196E+02</pdfrwt>
<totfact> 0.79537994E+04</totfact>
</mgrwt>
</event>
<event>
 5    1  0.1227473E+001  0.9287940E+02  0.7546771E-02  0.1296025E+00
          3   -1    0    0  501    0  0.00000000000E+00  0.00000000000E+00  0.41205049732E+02  0.41205049732E+02  0.00000000000E+00 0. -1.
         -3   -1    0    0    0  501 -0.00000000000E+00 -0.00000000000E+00 -0.52339352769E+02  0.52339352769E+02  0.00000000000E+00 0.  1.
         23    2    1    2    0    0  0.00000000000E+00  0.00000000000E+00 -0.11134303037E+02  0.93544402500E+02  0.92879397796E+02 0.  0.
        -11    1    3    3    0    0 -0.19644101027E+02  0.40398142291E+02 -0.17430495661E+02  0.48184258682E+02  0.00000000000E+00 0.  1.
         11    1    3    3    0    0  0.19644101027E+02 -0.40398142291E+02  0.62961926237E+01  0.45360143819E+02  0.00000000000E+00 0. -1.
<mgrwt>
<rscale>  0 0.92879398E+02</rscale>
<asrwt>0</asrwt>
<pdfrwt beam="1">  1        3 0.63392385E-02 0.92879398E+02</pdfrwt>
<pdfrwt beam="2">  1       -3 0.80522081E-02 0.92879398E+02</pdfrwt>
<totfact> 0.33425479E+04</totfact>
</mgrwt>
</event>
<event>
 5    1  0.1227473E+001  0.9110181E+02  0.7546771E-02  0.1300205E+00
          4   -1    0    0  501    0  0.00000000000E+00  0.00000000000E+00  0.34279698702E+02  0.34279698702E+02  0.00000000000E+00 0. -1.
         -4   -1    0    0    0  501 -0.00000000000E+00 -0.00000000000E+00 -0.60528096916E+02  0.60528096916E+02  0.00000000000E+00 0.  1.
         23    2    1    2    0    0  0.00000000000E+00  0.00000000000E+00 -0.26248398214E+02  0.94807795619E+02  0.91101809539E+02 0.  0.
        -11    1    3    3    0    0  0.13333292162E+02  0.20121308634E+02  0.27076773139E+02  0.36273893982E+02  0.00000000000E+00 0. -1.
         11    1    3    3    0    0 -0.13333292162E+02 -0.20121308634E+02 -0.53325171353E+02  0.58533901637E+02  0.00000000000E+00 0.  1.
<mgrwt>
<rscale>  0 0.91101810E+02</rscale>
<asrwt>0</asrwt>
<pdfrwt beam="1">  1        4 0.52737999E-02 0.91101810E+02</pdfrwt>
<pdfrwt beam="2">  1       -4 0.93120147E-02 0.91101810E+02</pdfrwt>
<totfact> 0.26844015E+04</totfact>
</mgrwt>
</event>
<event>
 5    1  0.1227473E+001  0.8910764E+02  0.7546771E-02  0.1305027E+00
         -2   -1    0    0    0  501 -0.00000000000E+00  0.00000000000E+00  0.56982671779E+01  0.56982671779E+01  0.00000000000E+00 0.  1.
          2   -1    0    0  501    0  0.00000000000E+00 -0.00000000000E+00 -0.34835902081E+03  0.34835902081E+03  0.00000000000E+00 0. -1.
         23    2    1    2    0    0  0.00000000000E+00  0.00000000000E+00 -0.34266075363E+03  0.35405728799E+03  0.89107637706E+02 0.  0.
        -11    1    3    3    0    0  0.23824905178E+02 -0.35724227386E+02 -0.12411644352E+03  0.13133445124E+03  0.00000000000E+00 0.  1.
         11    1    3    3    0    0 -0.23824905178E+02  0.35724227386E+02 -0.21854431011E+03  0.22272283675E+03  0.00000000000E+00 0. -1.
<mgrwt>
<rscale>  0 0.89107638E+02</rscale>
<asrwt>0</asrwt>
<pdfrwt beam="2">  1        2 0.53593712E-01 0.89107638E+02</pdfrwt>
<pdfrwt beam="1">  1       -2 0.87665622E-03 0.89107638E+02</pdfrwt>
<totfact> 0.20180717E+05</totfact>
</mgrwt>
</event>
<event>
 5    1  0.1227473E+001  0.8403247E+02  0.7546771E-02  0.1317982E+00
          2   -1    0    0  501    0  0.00000000000E+00  0.00000000000E+00  0.43148815622E+02  0.43148815622E+02  0.00000000000E+00 0. -1.
         -2   -1    0    0    0  501 -0.00000000000E+00 -0.00000000000E+00 -0.40913380230E+02  0.40913380230E+02  0.00000000000E+00 0.  1.
         23    2    1    2    0    0  0.00000000000E+00  0.00000000000E+00  0.22354353922E+01  0.84062195852E+02  0.84032467535E+02 0.  0.
        -11    1    3    3    0    0  0.36951404020E+02 -0.13900381524E+02 -0.13265721939E+02  0.41648604348E+02  0.00000000000E+00 0.  1.
         11    1    3    3    0    0 -0.36951404020E+02  0.13900381524E+02  0.15501157332E+02  0.42413591503E+02  0.00000000000E+00 0. -1.
<mgrwt>
<rscale>  0 0.84032468E+02</rscale>
<asrwt>0</asrwt>
<pdfrwt beam="1">  1        2 0.66382794E-02 0.84032468E+02</pdfrwt>
<pdfrwt beam="2">  1       -2 0.62943661E-02 0.84032468E+02</pdfrwt>
<totfact> 0.12279349E+05</totfact>
</mgrwt>
</event>
<event>
 5    1  0.1227473E+001  0.9152021E+02  0.7546771E-02  0.1299211E+00
         -3   -1    0    0    0  501 -0.00000000000E+00  0.00000000000E+00  0.13612711816E+02  0.13612711816E+02  0.00000000000E+00 0.  1.
          3   -1    0    0  501    0  0.00000000000E+00 -0.00000000000E+00 -0.15382587599E+03  0.15382587599E+03  0.00000000000E+00 0. -1.
         23    2    1    2    0    0  0.00000000000E+00  0.00000000000E+00 -0.14021316417E+03  0.16743858781E+03  0.91520212407E+02 0.  0.
        -11    1    3    3    0    0 -0.18939844766E+02  0.28399843771E+02 -0.12586116551E+03  0.13040821228E+03  0.00000000000E+00 0. -1.
         11    1    3    3    0    0  0.18939844766E+02 -0.28399843771E+02 -0.14351998660E+02  0.37030375525E+02  0.00000000000E+00 0.  1.
<mgrwt>
<rscale>  0 0.91520212E+02</rscale>
<asrwt>0</asrwt>
<pdfrwt beam="2">  1        3 0.23665518E-01 0.91520212E+02</pdfrwt>
<pdfrwt beam="1">  1       -3 0.20942635E-02 0.91520212E+02</pdfrwt>
<totfact> 0.29966362E+04</totfact>
</mgrwt>
</event>
<event>
 5    1  0.1227473E+001  0.9201321E+02  0.7546771E-02  0.1298048E+00
          3   -1    0    0  501    0  0.00000000000E+00  0.00000000000E+00  0.18441267642E+02  0.18441267642E+02  0.00000000000E+00 0. -1.
         -3   -1    0    0    0  501 -0.00000000000E+00 -0.00000000000E+00 -0.11477561541E+03  0.11477561541E+03  0.00000000000E+00 0.  1.
         23    2    1    2    0    0  0.00000000000E+00  0.00000000000E+00 -0.96334347765E+02  0.13321688305E+03  0.92013213019E+02 0.  0.
        -13    1    3    3    0    0 -0.36308981368E+02 -0.18029525717E+02 -0.16672847813E+02  0.43833660351E+02  0.00000000000E+00 0. -1.
         13    1    3    3    0    0  0.36308981368E+02  0.18029525717E+02 -0.79661499951E+02  0.89383222699E+02  0.00000000000E+00 0.  1.
<mgrwt>
<rscale>  0 0.92013213E+02</rscale>
<asrwt>0</asrwt>
<pdfrwt beam="1">  1        3 0.28371182E-02 0.92013213E+02</pdfrwt>
<pdfrwt beam="2">  1       -3 0.17657787E-01 0.92013213E+02</pdfrwt>
<totfact> 0.31573675E+04</totfact>
</mgrwt>
</event>
<event>
 5    1  0.1227473E+001  0.8743598E+02  0.7546771E-02  0.1309182E+00
          1   -1    0    0  501    0  0.00000000000E+00  0.00000000000E+00  0.49217756756E+02  0.49217756756E+02  0.00000000000E+00 0. -1.
         -1   -1    0    0    0  501 -0.00000000000E+00 -0.00000000000E+00 -0.38832783685E+02  0.38832783685E+02  0.00000000000E+00 0.  1.
         23    2    1    2    0    0  0.00000000000E+00  0.00000000000E+00  0.10384973071E+02  0.88050540441E+02  0.87435976613E+02 0.  0.
        -11    1    3    3    0    0  0.30063843138E+02 -0.93074203039E+01 -0.25365480673E+02  0.40421162114E+02  0.00000000000E+00 0.  1.
         11    1    3    3    0    0 -0.30063843138E+02  0.93074203039E+01  0.35750453744E+02  0.47629378327E+02  0.00000000000E+00 0. -1.
<mgrwt>
<rscale>  0 0.87435977E+02</rscale>
<asrwt>0</asrwt>
<pdfrwt beam="1">  1        1 0.75719626E-02 0.87435977E+02</pdfrwt>
<pdfrwt beam="2">  1       -1 0.59742744E-02 0.87435977E+02</pdfrwt>
<totfact> 0.10512016E+05</totfact>
</mgrwt>
</event>
<event>
 5    1  0.1227473E+001  0.9081954E+02  0.7546771E-02  0.1300879E+00
         -1   -1    0    0    0  501 -0.00000000000E+00  0.00000000000E+00  0.17369928281E+02  0.17369928281E+02  0.00000000000E+00 0.  1.
          1   -1    0    0  501    0  0.00000000000E+00 -0.00000000000E+00 -0.11871363019E+03  0.11871363019E+03  0.00000000000E+00 0. -1.
         23    2    1    2    0    0  0.00000000000E+00  0.00000000000E+00 -0.10134370191E+03  0.13608355847E+03  0.90819540679E+02 0.  0.
        -11    1    3    3    0    0  0.82759897628E+01 -0.24554688554E+02  0.52048790937E+01  0.26429443863E+02  0.00000000000E+00 0.  1.
         11    1    3    3    0    0 -0.82759897628E+01  0.24554688554E+02 -0.10654858100E+03  0.10965411460E+03  0.00000000000E+00 0. -1.
<mgrwt>
<rscale>  0 0.90819541E+02</rscale>
<asrwt>0</asrwt>
<pdfrwt beam="2">  1        1 0.18263635E-01 0.90819541E+02</pdfrwt>
<pdfrwt beam="1">  1       -1 0.26722967E-02 0.90819541E+02</pdfrwt>
<totfact> 0.10868859E+05</totfact>
</mgrwt>
</event>
<event>
 5    1  0.1227473E+001  0.9467983E+02  0.7546771E-02  0.1291899E+00
         -2   -1    0    0    0  501 -0.00000000000E+00  0.00000000000E+00  0.61414878502E+02  0.61414878502E+02  0.00000000000E+00 0.  1.
          2   -1    0    0  501    0  0.00000000000E+00 -0.00000000000E+00 -0.36490627738E+02  0.36490627738E+02  0.00000000000E+00 0. -1.
         23    2    1    2    0    0  0.00000000000E+00  0.00000000000E+00  0.24924250765E+02  0.97905506240E+02  0.94679828242E+02 0.  0.
        -13    1    3    3    0    0 -0.39112061700E+02 -0.11489238302E+02  0.37351027030E+02  0.55288834202E+02  0.00000000000E+00 0.  1.
         13    1    3    3    0    0  0.39112061700E+02  0.11489238302E+02 -0.12426776265E+02  0.42616672038E+02  0.00000000000E+00 0. -1.
<mgrwt>
<rscale>  0 0.94679828E+02</rscale>
<asrwt>0</asrwt>
<pdfrwt beam="2">  1        2 0.56139427E-02 0.94679828E+02</pdfrwt>
<pdfrwt beam="1">  1       -2 0.94484428E-02 0.94679828E+02</pdfrwt>
<totfact> 0.83393407E+04</totfact>
</mgrwt>
</event>
<event>
 5    1  0.1227473E+001  0.8860701E+02  0.7546771E-02  0.1306261E+00
          1   -1    0    0  501    0  0.00000000000E+00  0.00000000000E+00  0.12953183602E+03  0.12953183602E+03  0.00000000000E+00 0. -1.
         -1   -1    0    0    0  501 -0.00000000000E+00 -0.00000000000E+00 -0.15153034176E+02  0.15153034176E+02  0.00000000000E+00 0.  1.
         23    2    1    2    0    0  0.00000000000E+00  0.00000000000E+00  0.11437880184E+03  0.14468487019E+03  0.88607005096E+02 0.  0.
        -13    1    3    3    0    0  0.35343243647E+02 -0.26708807451E+02  0.58076390258E+02  0.73043633345E+02  0.00000000000E+00 0. -1.
         13    1    3    3    0    0 -0.35343243647E+02  0.26708807451E+02  0.56302411582E+02  0.71641236846E+02  0.00000000000E+00 0.  1.
<mgrwt>
<rscale>  0 0.88607005E+02</rscale>
<asrwt>0</asrwt>
<pdfrwt beam="1">  1        1 0.19927974E-01 0.88607005E+02</pdfrwt>
<pdfrwt beam="2">  1       -1 0.23312361E-02 0.88607005E+02</pdfrwt>
<totfact> 0.11796106E+05</totfact>
</mgrwt>
</event>
<event>
 5    1  0.1227473E+001  0.8979050E+02  0.7546771E-02  0.1303360E+00
         -2   -1    0    0    0  501 -0.00000000000E+00  0.00000000000E+00  0.27836985356E+03  0.27836985356E+03  0.00000000000E+00 0.  1.
          2   -1    0    0  501    0  0.00000000000E+00 -0.00000000000E+00 -0.72406671040E+01  0.72406671040E+01  0.00000000000E+00 0. -1.
         23    2    1    2    0    0  0.00000000000E+00  0.00000000000E+00  0.27112918646E+03  0.28561052067E+03  0.89790499307E+02 0.  0.
        -11    1    3    3    0    0 -0.33175117742E+02  0.29935688970E+02  0.14937460598E+03  0.15591506285E+03  0.00000000000E+00 0.  1.
         11    1    3    3    0    0  0.33175117742E+02 -0.29935688970E+02  0.12175458048E+03  0.12969545782E+03  0.00000000000E+00 0. -1.
<mgrwt>
<rscale>  0 0.89790499E+02</rscale>
<asrwt>0</asrwt>
<pdfrwt beam="2">  1        2 0.11139490E-02 0.89790499E+02</pdfrwt>
<pdfrwt beam="1">  1       -2 0.42826123E-01 0.89790499E+02</pdfrwt>
<totfact> 0.55273140E+04</totfact>
</mgrwt>
</event>
<event>
 5    1  0.1227473E+001  0.9160551E+02  0.7546771E-02  0.1299010E+00
         -3   -1    0    0    0  501 -0.00000000000E+00  0.00000000000E+00  0.86814116221E+02  0.86814116221E+02  0.00000000000E+00 0.  1.
          3   -1    0    0  501    0  0.00000000000E+00 -0.00000000000E+00 -0.24165335831E+02  0.24165335831E+02  0.00000000000E+00 0. -1.
         23    2    1    2    0    0  0.00000000000E+00  0.00000000000E+00  0.62648780390E+02  0.11097945205E+03  0.91605507986E+02 0.  0.
        -11    1    3    3    0    0 -0.80889522948E+01 -0.17361557371E+02 -0.19080679623E+02  0.27035664565E+02  0.00000000000E+00 0. -1.
         11    1    3    3    0    0  0.80889522948E+01  0.17361557371E+02  0.81729460013E+02  0.83943787487E+02  0.00000000000E+00 0.  1.
<mgrwt>
<rscale>  0 0.91605508E+02</rscale>
<asrwt>0</asrwt>
<pdfrwt beam="2">  1        3 0.37177440E-02 0.91605508E+02</pdfrwt>
<pdfrwt beam="1">  1       -3 0.13356018E-01 0.91605508E+02</pdfrwt>
<totfact> 0.33446701E+04</totfact>
</mgrwt>
</event>
<event>
 5    1  0.1227473E+001  0.9047748E+02  0.7546771E-02  0.1301700E+00
          1   -1    0    0  501    0  0.00000000000E+00  0.00000000000E+00  0.19526887883E+03  0.19526887883E+03  0.00000000000E+00 0. -1.
         -1   -1    0    0    0  501 -0.00000000000E+00 -0.00000000000E+00 -0.10480643702E+02  0.10480643702E+02  0.00000000000E+00 0.  1.
         23    2    1    2    0    0  0.00000000000E+00  0.00000000000E+00  0.18478823513E+03  0.20574952253E+03  0.90477478858E+02 0.  0.
        -13    1    3    3    0    0 -0.97429937246E+00  0.41202280965E+02  0.49974479730E+02  0.64776738420E+02  0.00000000000E+00 0. -1.
         13    1    3    3    0    0  0.97429937246E+00 -0.41202280965E+02  0.13481375540E+03  0.14097278411E+03  0.00000000000E+00 0.  1.
<mgrwt>
<rscale>  0 0.90477479E+02</rscale>
<asrwt>0</asrwt>
<pdfrwt beam="1">  1        1 0.30041363E-01 0.90477479E+02</pdfrwt>
<pdfrwt beam="2">  1       -1 0.16124069E-02 0.90477479E+02</pdfrwt>
<totfact> 0.12031618E+05</totfact>
</mgrwt>
</event>
<event>
 5    1  0.1227473E+001  0.9001759E+02  0.7546771E-02  0.1302809E+00
         -4   -1    0    0    0  501 -0.00000000000E+00  0.00000000000E+00  0.61147049811E+02  0.61147049811E+02  0.00000000000E+00 0.  1.
          4   -1    0    0  501    0  0.00000000000E+00 -0.00000000000E+00 -0.33129834612E+02  0.33129834612E+02  0.00000000000E+00 0. -1.
         23    2    1    2    0    0  0.00000000000E+00  0.00000000000E+00  0.28017215199E+02  0.94276884422E+02  0.90017590442E+02 0.  0.
        -13    1    3    3    0    0  0.14834536409E+02 -0.19825697941E+02  0.53372513109E+02  0.58836612112E+02  0.00000000000E+00 0.  1.
         13    1    3    3    0    0 -0.14834536409E+02  0.19825697941E+02 -0.25355297910E+02  0.35440272310E+02  0.00000000000E+00 0. -1.
<mgrwt>
<rscale>  0 0.90017590E+02</rscale>
<asrwt>0</asrwt>
<pdfrwt beam="2">  1        4 0.50968976E-02 0.90017590E+02</pdfrwt>
<pdfrwt beam="1">  1       -4 0.94072384E-02 0.90017590E+02</pdfrwt>
<totfact> 0.27762572E+04</totfact>
</mgrwt>
</event>
<event>
 5    1  0.1227473E+001  0.9154726E+02  0.7546771E-02  0.1299147E+00
          2   -1    0    0  501    0  0.00000000000E+00  0.00000000000E+00  0.49545947863E+02  0.49545947863E+02  0.00000000000E+00 0. -1.
         -2   -1    0    0    0  501 -0.00000000000E+00 -0.00000000000E+00 -0.42288529587E+02  0.42288529587E+02  0.00000000000E+00 0.  1.
         23    2    1    2    0    0  0.00000000000E+00  0.00000000000E+00  0.72574182756E+01  0.91834477450E+02  0.91547261720E+02 0.  0.
        -13    1    3    3    0    0 -0.10550694956E+02 -0.17175409500E+02 -0.37596616487E+02  0.42659318171E+02  0.00000000000E+00 0.  1.
         13    1    3    3    0    0  0.10550694956E+02  0.17175409500E+02  0.44854034763E+02  0.49175159278E+02  0.00000000000E+00 0. -1.
<mgrwt>
<rscale>  0 0.91547262E+02</rscale>
<asrwt>0</asrwt>
<pdfrwt beam="1">  1        2 0.76224536E-02 0.91547262E+02</pdfrwt>
<pdfrwt beam="2">  1       -2 0.65059276E-02 0.91547262E+02</pdfrwt>
<totfact> 0.99674750E+04</totfact>
</mgrwt>
</event>
<event>
 5    1  0.1227473E+001  0.9142472E+02  0.7546771E-02  0.1299438E+00
         -2   -1    0    0    0  501 -0.00000000000E+00  0.00000000000E+00  0.41615977787E+02  0.41615977787E+02  0.00000000000E+00 0.  1.
          2   -1    0    0  501    0  0.00000000000E+00 -0.00000000000E+00 -0.50211965568E+02  0.50211965568E+02  0.00000000000E+00 0. -1.
         23    2    1    2    0    0  0.00000000000E+00  0.00000000000E+00 -0.85959877810E+01  0.91827943356E+02  0.91424724090E+02 0.  0.
        -11    1    3    3    0    0 -0.10919619545E+02  0.12702488709E+02  0.38422270494E+02  0.41914939823E+02  0.00000000000E+00 0.  1.
         11    1    3    3    0    0  0.10919619545E+02 -0.12702488709E+02 -0.47018258276E+02  0.49913003533E+02  0.00000000000E+00 0. -1.
<mgrwt>
<rscale>  0 0.91424724E+02</rscale>
<asrwt>0</asrwt>
<pdfrwt beam="2">  1        2 0.77249178E-02 0.91424724E+02</pdfrwt>
<pdfrwt beam="1">  1       -2 0.64024581E-02 0.91424724E+02</pdfrwt>
<totfact> 0.10040768E+05</totfact>
</mgrwt>
</event>
<event>
 5    1  0.1227473E+001  0.8583984E+02  0.7546771E-02  0.1313251E+00
         -3   -1    0    0    0  501 -0.00000000000E+00  0.00000000000E+00  0.14002200067E+02  0.14002200067E+02  0.00000000000E+00 0.  1.
          3   -1    0    0  501    0  0.00000000000E+00 -0.00000000000E+00 -0.13155928801E+03  0.13155928801E+03  0.00000000000E+00 0. -1.
         23    2    1    2    0    0  0.00000000000E+00  0.00000000000E+00 -0.11755708794E+03  0.14556148808E+03  0.85839838570E+02 0.  0.
        -13    1    3    3    0    0  0.13105185867E+02  0.40499424557E+02 -0.49464321990E+02  0.65258474055E+02  0.00000000000E+00 0.  1.
         13    1    3    3    0    0 -0.13105185867E+02 -0.40499424557E+02 -0.68092765951E+02  0.80303014021E+02  0.00000000000E+00 0. -1.
<mgrwt>
<rscale>  0 0.85839839E+02</rscale>
<asrwt>0</asrwt>
<pdfrwt beam="2">  1        3 0.20239890E-01 0.85839839E+02</pdfrwt>
<pdfrwt beam="1">  1       -3 0.21541847E-02 0.85839839E+02</pdfrwt>
<totfact> 0.37156864E+04</totfact>
</mgrwt>
</event>
<event>
 5    1  0.1227473E+001  0.8957066E+02  0.7546771E-02  0.1303895E+00
         -3   -1    0    0    0  501 -0.00000000000E+00  0.00000000000E+00  0.51125142574E+02  0.51125142574E+02  0.00000000000E+00 0.  1.
          3   -1    0    0  501    0  0.00000000000E+00 -0.00000000000E+00 -0.39231688381E+02  0.39231688381E+02  0.00000000000E+00 0. -1.
         23    2    1    2    0    0  0.00000000000E+00  0.00000000000E+00  0.11893454194E+02  0.90356830955E+02  0.89570657291E+02 0.  0.
        -11    1    3    3    0    0  0.17469664807E+02 -0.36586574071E+02  0.25138935995E+02  0.47704640169E+02  0.00000000000E+00 0.  1.
         11    1    3    3    0    0 -0.17469664807E+02  0.36586574071E+02 -0.13245481801E+02  0.42652190786E+02  0.00000000000E+00 0. -1.
<mgrwt>
<rscale>  0 0.89570657E+02</rscale>
<asrwt>0</asrwt>
<pdfrwt beam="2">  1        3 0.60356444E-02 0.89570657E+02</pdfrwt>
<pdfrwt beam="1">  1       -3 0.78654066E-02 0.89570657E+02</pdfrwt>
<totfact> 0.37154838E+04</totfact>
</mgrwt>
</event>
<event>
 5    1  0.1227473E+001  0.9077449E+02  0.7546771E-02  0.1300987E+00
          1   -1    0    0  501    0  0.00000000000E+00  0.00000000000E+00  0.16532483207E+02  0.16532483207E+02  0.00000000000E+00 0. -1.
         -1   -1    0    0    0  501 -0.00000000000E+00 -0.00000000000E+00 -0.12460331022E+03  0.12460331022E+03  0.00000000000E+00 0.  1.
         23    2    1    2    0    0  0.00000000000E+00  0.00000000000E+00 -0.10807082702E+03  0.14113579343E+03  0.90774492756E+02 0.  0.
        -11    1    3    3    0    0 -0.39713583819E+01 -0.39733784409E+02 -0.87579273655E+02  0.96253179090E+02  0.00000000000E+00 0.  1.
         11    1    3    3    0    0  0.39713583819E+01  0.39733784409E+02 -0.20491553362E+02  0.44882614341E+02  0.00000000000E+00 0. -1.
<mgrwt>
<rscale>  0 0.90774493E+02</rscale>
<asrwt>0</asrwt>
<pdfrwt beam="1">  1        1 0.25434590E-02 0.90774493E+02</pdfrwt>
<pdfrwt beam="2">  1       -1 0.19169739E-01 0.90774493E+02</pdfrwt>
<totfact> 0.78817815E+04</totfact>
</mgrwt>
</event>
<event>
 5    1  0.1227473E+001  0.8985069E+02  0.7546771E-02  0.1303214E+00
          2   -1    0    0  501    0  0.00000000000E+00  0.00000000000E+00  0.59149606457E+02  0.59149606457E+02  0.00000000000E+00 0. -1.
         -2   -1    0    0    0  501 -0.00000000000E+00 -0.00000000000E+00 -0.34121727606E+02  0.34121727606E+02  0.00000000000E+00 0.  1.
         23    2    1    2    0    0  0.00000000000E+00  0.00000000000E+00  0.25027878851E+02  0.93271334063E+02  0.89850693031E+02 0.  0.
        -11    1    3    3    0    0 -0.12349197131E+02 -0.33103714251E+02 -0.16289998649E+02  0.38906588427E+02  0.00000000000E+00 0.  1.
         11    1    3    3    0    0  0.12349197131E+02  0.33103714251E+02  0.41317877500E+02  0.54364745637E+02  0.00000000000E+00 0. -1.
<mgrwt>
<rscale>  0 0.89850693E+02</rscale>
<asrwt>0</asrwt>
<pdfrwt beam="1">  1        2 0.90999395E-02 0.89850693E+02</pdfrwt>
<pdfrwt beam="2">  1       -2 0.52494966E-02 0.89850693E+02</pdfrwt>
<totfact> 0.11011682E+05</totfact>
</mgrwt>
</event>
<event>
 5    1  0.1227473E+001  0.9173465E+02  0.7546771E-02  0.1298705E+00
          4   -1    0    0  501    0  0.00000000000E+00  0.00000000000E+00  0.12689992784E+03  0.12689992784E+03  0.00000000000E+00 0. -1.
         -4   -1    0    0    0  501 -0.00000000000E+00 -0.00000000000E+00 -0.16578506615E+02  0.16578506615E+02  0.00000000000E+00 0.  1.
         23    2    1    2    0    0  0.00000000000E+00  0.00000000000E+00  0.11032142123E+03  0.14347843446E+03  0.91734645433E+02 0.  0.
        -11    1    3    3    0    0  0.41707490325E+02 -0.32909762502E+01  0.84566109638E+02  0.94349203352E+02  0.00000000000E+00 0. -1.
         11    1    3    3    0    0 -0.41707490325E+02  0.32909762502E+01  0.25755311589E+02  0.49129231105E+02  0.00000000000E+00 0.  1.
<mgrwt>
<rscale>  0 0.91734645E+02</rscale>
<asrwt>0</asrwt>
<pdfrwt beam="1">  1        4 0.19523065E-01 0.91734645E+02</pdfrwt>
<pdfrwt beam="2">  1       -4 0.25505396E-02 0.91734645E+02</pdfrwt>
<totfact> 0.23612827E+04</totfact>
</mgrwt>
</event>
<event>
 5    1  0.1227473E+001  0.9185881E+02  0.7546771E-02  0.1298412E+00
          1   -1    0    0  501    0  0.00000000000E+00  0.00000000000E+00  0.82671338995E+02  0.82671338995E+02  0.00000000000E+00 0. -1.
         -1   -1    0    0    0  501 -0.00000000000E+00 -0.00000000000E+00 -0.25516824895E+02  0.25516824895E+02  0.00000000000E+00 0.  1.
         23    2    1    2    0    0  0.00000000000E+00  0.00000000000E+00  0.57154514100E+02  0.10818816389E+03  0.91858806458E+02 0.  0.
        -13    1    3    3    0    0 -0.15062665725E+02  0.23913112016E+02  0.71218061413E+02  0.76620709319E+02  0.00000000000E+00 0. -1.
         13    1    3    3    0    0  0.15062665725E+02 -0.23913112016E+02 -0.14063547313E+02  0.31567454571E+02  0.00000000000E+00 0.  1.
<mgrwt>
<rscale>  0 0.91858806E+02</rscale>
<asrwt>0</asrwt>
<pdfrwt beam="1">  1        1 0.12718667E-01 0.91858806E+02</pdfrwt>
<pdfrwt beam="2">  1       -1 0.39256654E-02 0.91858806E+02</pdfrwt>
<totfact> 0.99218495E+04</totfact>
</mgrwt>
</event>
<event>
 5    1  0.1227473E+001  0.9684164E+02  0.7546771E-02  0.1287081E+00
          1   -1    0    0  501    0  0.00000000000E+00  0.00000000000E+00  0.40472371043E+03  0.40472371043E+03  0.00000000000E+00 0. -1.
         -1   -1    0    0    0  501 -0.00000000000E+00 -0.00000000000E+00 -0.57930278287E+01  0.57930278287E+01  0.00000000000E+00 0.  1.
         23    2    1    2    0    0  0.00000000000E+00  0.00000000000E+00  0.39893068260E+03  0.41051673826E+03  0.96841638099E+02 0.  0.
        -11    1    3    3    0    0 -0.92174130894E+01  0.47200686046E+02  0.22333622938E+03  0.22845554671E+03  0.00000000000E+00 0. -1.
         11    1    3    3    0    0  0.92174130894E+01 -0.47200686046E+02  0.17559445322E+03  0.18206119155E+03  0.00000000000E+00 0.  1.
<mgrwt>
<rscale>  0 0.96841638E+02</rscale>
<asrwt>0</asrwt>
<pdfrwt beam="1">  1        1 0.62265164E-01 0.96841638E+02</pdfrwt>
<pdfrwt beam="2">  1       -1 0.89123537E-03 0.96841638E+02</pdfrwt>
<totfact> 0.11510036E+05</totfact>
</mgrwt>
</event>
<event>
 5    1  0.1227473E+001  0.9152653E+02  0.7546771E-02  0.1299197E+00
         -1   -1    0    0    0  501 -0.00000000000E+00  0.00000000000E+00  0.11408435099E+03  0.11408435099E+03  0.00000000000E+00 0.  1.
          1   -1    0    0  501    0  0.00000000000E+00 -0.00000000000E+00 -0.18357261313E+02  0.18357261313E+02  0.00000000000E+00 0. -1.
         23    2    1    2    0    0  0.00000000000E+00  0.00000000000E+00  0.95727089679E+02  0.13244161230E+03  0.91526526054E+02 0.  0.
        -11    1    3    3    0    0 -0.25703554938E+02  0.11845548734E+02 -0.41749647144E+01  0.28608042429E+02  0.00000000000E+00 0. -1.
         11    1    3    3    0    0  0.25703554938E+02 -0.11845548734E+02  0.99902054393E+02  0.10383356988E+03  0.00000000000E+00 0.  1.
<mgrwt>
<rscale>  0 0.91526526E+02</rscale>
<asrwt>0</asrwt>
<pdfrwt beam="2">  1        1 0.28241941E-02 0.91526526E+02</pdfrwt>
<pdfrwt beam="1">  1       -1 0.17551438E-01 0.91526526E+02</pdfrwt>
<totfact> 0.78554210E+04</totfact>
</mgrwt>
</event>
<event>
 5    1  0.1227473E+001  0.9060997E+02  0.7546771E-02  0.1301381E+00
         -2   -1    0    0    0  501 -0.00000000000E+00  0.00000000000E+00  0.18920760324E+03  0.18920760324E+03  0.00000000000E+00 0.  1.
          2   -1    0    0  501    0  0.00000000000E+00 -0.00000000000E+00 -0.10848092050E+02  0.10848092050E+02  0.00000000000E+00 0. -1.
         23    2    1    2    0    0  0.00000000000E+00  0.00000000000E+00  0.17835951119E+03  0.20005569529E+03  0.90609966261E+02 0.  0.
        -13    1    3    3    0    0  0.35958734889E+02 -0.26697202044E+02  0.10427916488E+03  0.11348971513E+03  0.00000000000E+00 0.  1.
         13    1    3    3    0    0 -0.35958734889E+02  0.26697202044E+02  0.74080346307E+02  0.86565980159E+02  0.00000000000E+00 0. -1.
<mgrwt>
<rscale>  0 0.90609966E+02</rscale>
<asrwt>0</asrwt>
<pdfrwt beam="2">  1        2 0.16689374E-02 0.90609966E+02</pdfrwt>
<pdfrwt beam="1">  1       -2 0.29108860E-01 0.90609966E+02</pdfrwt>
<totfact> 0.64830428E+04</totfact>
</mgrwt>
</event>
<event>
 5    1  0.1227473E+001  0.9059193E+02  0.7546771E-02  0.1301425E+00
         -1   -1    0    0    0  501 -0.00000000000E+00  0.00000000000E+00  0.25903372345E+02  0.25903372345E+02  0.00000000000E+00 0.  1.
          1   -1    0    0  501    0  0.00000000000E+00 -0.00000000000E+00 -0.79206838513E+02  0.79206838513E+02  0.00000000000E+00 0. -1.
         23    2    1    2    0    0  0.00000000000E+00  0.00000000000E+00 -0.53303466168E+02  0.10511021086E+03  0.90591925254E+02 0.  0.
        -13    1    3    3    0    0  0.16753645060E+02  0.40366989199E+02 -0.12847766572E+02  0.45554841079E+02  0.00000000000E+00 0. -1.
         13    1    3    3    0    0 -0.16753645060E+02 -0.40366989199E+02 -0.40455699595E+02  0.59555369779E+02  0.00000000000E+00 0.  1.
<mgrwt>
<rscale>  0 0.90591925E+02</rscale>
<asrwt>0</asrwt>
<pdfrwt beam="2">  1        1 0.12185667E-01 0.90591925E+02</pdfrwt>
<pdfrwt beam="1">  1       -1 0.39851342E-02 0.90591925E+02</pdfrwt>
<totfact> 0.10237751E+05</totfact>
</mgrwt>
</event>
<event>
 5    1  0.1227473E+001  0.9312135E+02  0.7546771E-02  0.1295464E+00
         -1   -1    0    0    0  501 -0.00000000000E+00  0.00000000000E+00  0.20715218886E+02  0.20715218886E+02  0.00000000000E+00 0.  1.
          1   -1    0    0  501    0  0.00000000000E+00 -0.00000000000E+00 -0.10465236590E+03  0.10465236590E+03  0.00000000000E+00 0. -1.
         23    2    1    2    0    0  0.00000000000E+00  0.00000000000E+00 -0.83937147009E+02  0.12536758478E+03  0.93121354511E+02 0.  0.
        -13    1    3    3    0    0 -0.43088784234E+02  0.17581700188E+02 -0.40000441084E+02  0.61366072020E+02  0.00000000000E+00 0.  1.
         13    1    3    3    0    0  0.43088784234E+02 -0.17581700188E+02 -0.43936705924E+02  0.64001512761E+02  0.00000000000E+00 0. -1.
<mgrwt>
<rscale>  0 0.93121355E+02</rscale>
<asrwt>0</asrwt>
<pdfrwt beam="2">  1        1 0.16100364E-01 0.93121355E+02</pdfrwt>
<pdfrwt beam="1">  1       -1 0.31869568E-02 0.93121355E+02</pdfrwt>
<totfact> 0.99359592E+04</totfact>
</mgrwt>
</event>
<event>
 5    1  0.1227473E+001  0.8930661E+02  0.7546771E-02  0.1304540E+00
         -1   -1    0    0    0  501 -0.00000000000E+00  0.00000000000E+00  0.29616279105E+02  0.29616279105E+02  0.00000000000E+00 0.  1.
          1   -1    0    0  501    0  0.00000000000E+00 -0.00000000000E+00 -0.67325060778E+02  0.67325060778E+02  0.00000000000E+00 0. -1.
         23    2    1    2    0    0  0.00000000000E+00  0.00000000000E+00 -0.37708781672E+02  0.96941339883E+02  0.89306613210E+02 0.  0.
        -13    1    3    3    0    0  0.30219615951E+02 -0.19554501477E+02  0.98303411136E+01  0.37312723335E+02  0.00000000000E+00 0.  1.
         13    1    3    3    0    0 -0.30219615951E+02  0.19554501477E+02 -0.47539122786E+02  0.59628616548E+02  0.00000000000E+00 0. -1.
<mgrwt>
<rscale>  0 0.89306613E+02</rscale>
<asrwt>0</asrwt>
<pdfrwt beam="2">  1        1 0.10357702E-01 0.89306613E+02</pdfrwt>
<pdfrwt beam="1">  1       -1 0.45563507E-02 0.89306613E+02</pdfrwt>
<totfact> 0.10384089E+05</totfact>
</mgrwt>
</event>
<event>
 5    1  0.1227473E+001  0.9130905E+02  0.7546771E-02  0.1299712E+00
         -1   -1    0    0    0  501 -0.00000000000E+00  0.00000000000E+00  0.34725858067E+02  0.34725858067E+02  0.00000000000E+00 0.  1.
          1   -1    0    0  501    0  0.00000000000E+00 -0.00000000000E+00 -0.60022582835E+02  0.60022582835E+02  0.00000000000E+00 0. -1.
         23    2    1    2    0    0  0.00000000000E+00  0.00000000000E+00 -0.25296724768E+02  0.94748440903E+02  0.91309050863E+02 0.  0.
        -11    1    3    3    0    0  0.34994084343E+02  0.12546397671E+02  0.14851544401E+02  0.40032067204E+02  0.00000000000E+00 0.  1.
         11    1    3    3    0    0 -0.34994084343E+02 -0.12546397671E+02 -0.40148269169E+02  0.54716373699E+02  0.00000000000E+00 0. -1.
<mgrwt>
<rscale>  0 0.91309051E+02</rscale>
<asrwt>0</asrwt>
<pdfrwt beam="2">  1        1 0.92342434E-02 0.91309051E+02</pdfrwt>
<pdfrwt beam="1">  1       -1 0.53424398E-02 0.91309051E+02</pdfrwt>
<totfact> 0.95989741E+04</totfact>
</mgrwt>
</event>
<event>
 5    1  0.1227473E+001  0.8876484E+02  0.7546771E-02  0.1305871E+00
          1   -1    0    0  501    0  0.00000000000E+00  0.00000000000E+00  0.17651417609E+03  0.17651417609E+03  0.00000000000E+00 0. -1.
         -1   -1    0    0    0  501 -0.00000000000E+00 -0.00000000000E+00 -0.11159439231E+02  0.11159439231E+02  0.00000000000E+00 0.  1.
         23    2    1    2    0    0  0.00000000000E+00  0.00000000000E+00  0.16535473686E+03  0.18767361532E+03  0.88764840369E+02 0.  0.
        -11    1    3    3    0    0  0.25793529421E+02  0.28416863025E+02  0.35543889489E+02  0.52308625906E+02  0.00000000000E+00 0.  1.
         11    1    3    3    0    0 -0.25793529421E+02 -0.28416863025E+02  0.12981084737E+03  0.13536498942E+03  0.00000000000E+00 0. -1.
<mgrwt>
<rscale>  0 0.88764840E+02</rscale>
<asrwt>0</asrwt>
<pdfrwt beam="1">  1        1 0.27156025E-01 0.88764840E+02</pdfrwt>
<pdfrwt beam="2">  1       -1 0.17168369E-02 0.88764840E+02</pdfrwt>
<totfact> 0.12421268E+05</totfact>
</mgrwt>
</event>
<event>
 5    1  0.1227473E+001  0.9259183E+02  0.7546771E-02  0.1296694E+00
          1   -1    0    0  501    0  0.00000000000E+00  0.00000000000E+00  0.30328936525E+02  0.30328936525E+02  0.00000000000E+00 0. -1.
         -1   -1    0    0    0  501 -0.00000000000E+00 -0.00000000000E+00 -0.70668873151E+02  0.70668873151E+02  0.00000000000E+00 0.  1.
         23    2    1    2    0    0  0.00000000000E+00  0.00000000000E+00 -0.40339936626E+02  0.10099780968E+03  0.92591830484E+02 0.  0.
        -11    1    3    3    0    0 -0.10444194466E+02 -0.10072949284E+02 -0.68124422648E+02  0.69652584061E+02  0.00000000000E+00 0.  1.
         11    1    3    3    0    0  0.10444194466E+02  0.10072949284E+02  0.27784486022E+02  0.31345225615E+02  0.00000000000E+00 0. -1.
<mgrwt>
<rscale>  0 0.92591830E+02</rscale>
<asrwt>0</asrwt>
<pdfrwt beam="1">  1        1 0.46659903E-02 0.92591830E+02</pdfrwt>
<pdfrwt beam="2">  1       -1 0.10872134E-01 0.92591830E+02</pdfrwt>
<totfact> 0.83074748E+04</totfact>
</mgrwt>
</event>
<event>
 5    1  0.1227473E+001  0.9077973E+02  0.7546771E-02  0.1300974E+00
          1   -1    0    0  501    0  0.00000000000E+00  0.00000000000E+00  0.28792053549E+03  0.28792053549E+03  0.00000000000E+00 0.  1.
         -1   -1    0    0    0  501 -0.00000000000E+00 -0.00000000000E+00 -0.71555855263E+01  0.71555855263E+01  0.00000000000E+00 0. -1.
         23    2    1    2    0    0  0.00000000000E+00  0.00000000000E+00  0.28076494996E+03  0.29507612101E+03  0.90779733783E+02 0.  0.
        -11    1    3    3    0    0  0.54252476468E+01 -0.42026545156E+02  0.87511106239E+02  0.97230949420E+02  0.00000000000E+00 0. -1.
         11    1    3    3    0    0 -0.54252476468E+01  0.42026545156E+02  0.19325384372E+03  0.19784517159E+03  0.00000000000E+00 0.  1.
<mgrwt>
<rscale>  0 0.90779734E+02</rscale>
<asrwt>0</asrwt>
<pdfrwt beam="1">  1        1 0.44295458E-01 0.90779734E+02</pdfrwt>
<pdfrwt beam="2">  1       -1 0.11008595E-02 0.90779734E+02</pdfrwt>
<totfact> 0.12860376E+05</totfact>
</mgrwt>
</event>
<event>
 5    1  0.1227473E+001  0.9137419E+02  0.7546771E-02  0.1299558E+00
          1   -1    0    0  501    0  0.00000000000E+00  0.00000000000E+00  0.67949831211E+02  0.67949831211E+02  0.00000000000E+00 0. -1.
         -1   -1    0    0    0  501 -0.00000000000E+00 -0.00000000000E+00 -0.30718405910E+02  0.30718405910E+02  0.00000000000E+00 0.  1.
         23    2    1    2    0    0  0.00000000000E+00  0.00000000000E+00  0.37231425301E+02  0.98668237121E+02  0.91374186653E+02 0.  0.
        -13    1    3    3    0    0  0.27241906230E+02  0.81066901341E+01  0.57240758056E+02  0.63908874680E+02  0.00000000000E+00 0. -1.
         13    1    3    3    0    0 -0.27241906230E+02 -0.81066901341E+01 -0.20009332755E+02  0.34759362441E+02  0.00000000000E+00 0.  1.
<mgrwt>
<rscale>  0 0.91374187E+02</rscale>
<asrwt>0</asrwt>
<pdfrwt beam="1">  1        1 0.10453820E-01 0.91374187E+02</pdfrwt>
<pdfrwt beam="2">  1       -1 0.47259086E-02 0.91374187E+02</pdfrwt>
<totfact> 0.97631136E+04</totfact>
</mgrwt>
</event>
<event>
 5    1  0.1227473E+001  0.9375351E+02  0.7546771E-02  0.1294008E+00
          2   -1    0    0  501    0  0.00000000000E+00  0.00000000000E+00  0.23940249701E+03  0.23940249701E+03  0.00000000000E+00 0. -1.
         -2   -1    0    0    0  501 -0.00000000000E+00 -0.00000000000E+00 -0.91788101749E+01  0.91788101749E+01  0.00000000000E+00 0.  1.
         23    2    1    2    0    0  0.00000000000E+00  0.00000000000E+00  0.23022368684E+03  0.24858130719E+03  0.93753508211E+02 0.  0.
        -13    1    3    3    0    0  0.24660653757E+02  0.22699211717E+02  0.20200563448E+03  0.20476737635E+03  0.00000000000E+00 0. -1.
         13    1    3    3    0    0 -0.24660653757E+02 -0.22699211717E+02  0.28218052354E+02  0.43813930832E+02  0.00000000000E+00 0.  1.
<mgrwt>
<rscale>  0 0.93753508E+02</rscale>
<asrwt>0</asrwt>
<pdfrwt beam="1">  1        2 0.36831149E-01 0.93753508E+02</pdfrwt>
<pdfrwt beam="2">  1       -2 0.14121248E-02 0.93753508E+02</pdfrwt>
<totfact> 0.15327728E+05</totfact>
</mgrwt>
</event>
<event>
 5    1  0.1227473E+001  0.8595299E+02  0.7546771E-02  0.1312959E+00
          4   -1    0    0  501    0  0.00000000000E+00  0.00000000000E+00  0.91340108000E+01  0.91340108000E+01  0.00000000000E+00 0. -1.
         -4   -1    0    0    0  501 -0.00000000000E+00 -0.00000000000E+00 -0.20220900069E+03  0.20220900069E+03  0.00000000000E+00 0.  1.
         23    2    1    2    0    0  0.00000000000E+00  0.00000000000E+00 -0.19307498989E+03  0.21134301149E+03  0.85952991714E+02 0.  0.
        -11    1    3    3    0    0 -0.33380470605E+02 -0.19903871065E+02 -0.51429067343E+02  0.64462150669E+02  0.00000000000E+00 0. -1.
         11    1    3    3    0    0  0.33380470605E+02  0.19903871065E+02 -0.14164592255E+03  0.14688086082E+03  0.00000000000E+00 0.  1.
<mgrwt>
<rscale>  0 0.85952992E+02</rscale>
<asrwt>0</asrwt>
<pdfrwt beam="1">  1        4 0.14052326E-02 0.85952992E+02</pdfrwt>
<pdfrwt beam="2">  1       -4 0.31109074E-01 0.85952992E+02</pdfrwt>
<totfact> 0.24476000E+04</totfact>
</mgrwt>
</event>
<event>
 5    1  0.1227473E+001  0.9117858E+02  0.7546771E-02  0.1300022E+00
         -3   -1    0    0    0  501 -0.00000000000E+00  0.00000000000E+00  0.96593538191E+01  0.96593538191E+01  0.00000000000E+00 0.  1.
          3   -1    0    0  501    0  0.00000000000E+00 -0.00000000000E+00 -0.21516793055E+03  0.21516793055E+03  0.00000000000E+00 0. -1.
         23    2    1    2    0    0  0.00000000000E+00  0.00000000000E+00 -0.20550857673E+03  0.22482728437E+03  0.91178575811E+02 0.  0.
        -11    1    3    3    0    0 -0.15463264845E+02 -0.28178148669E+02 -0.23033991791E+02  0.39543462164E+02  0.00000000000E+00 0.  1.
         11    1    3    3    0    0  0.15463264845E+02  0.28178148669E+02 -0.18247458494E+03  0.18528382221E+03  0.00000000000E+00 0. -1.
<mgrwt>
<rscale>  0 0.91178576E+02</rscale>
<asrwt>0</asrwt>
<pdfrwt beam="2">  1        3 0.33102754E-01 0.91178576E+02</pdfrwt>
<pdfrwt beam="1">  1       -3 0.14860546E-02 0.91178576E+02</pdfrwt>
<totfact> 0.27262574E+04</totfact>
</mgrwt>
</event>
<event>
 5    1  0.1227473E+001  0.9034160E+02  0.7546771E-02  0.1302027E+00
         -4   -1    0    0    0  501 -0.00000000000E+00  0.00000000000E+00  0.76794255175E+01  0.76794255175E+01  0.00000000000E+00 0.  1.
          4   -1    0    0  501    0  0.00000000000E+00 -0.00000000000E+00 -0.26569711765E+03  0.26569711765E+03  0.00000000000E+00 0. -1.
         23    2    1    2    0    0  0.00000000000E+00  0.00000000000E+00 -0.25801769213E+03  0.27337654316E+03  0.90341601163E+02 0.  0.
        -11    1    3    3    0    0  0.32365690058E+02 -0.31419590428E+02 -0.13621605657E+03  0.14349056632E+03  0.00000000000E+00 0. -1.
         11    1    3    3    0    0 -0.32365690058E+02  0.31419590428E+02 -0.12180163556E+03  0.12988597684E+03  0.00000000000E+00 0.  1.
<mgrwt>
<rscale>  0 0.90341601E+02</rscale>
<asrwt>0</asrwt>
<pdfrwt beam="2">  1        4 0.40876482E-01 0.90341601E+02</pdfrwt>
<pdfrwt beam="1">  1       -4 0.11814500E-02 0.90341601E+02</pdfrwt>
<totfact> 0.19126701E+04</totfact>
</mgrwt>
</event>
<event>
 5    1  0.1227473E+001  0.1109030E+03  0.7546771E-02  0.1258907E+00
         -4   -1    0    0    0  501 -0.00000000000E+00  0.00000000000E+00  0.34136425137E+02  0.34136425137E+02  0.00000000000E+00 0.  1.
          4   -1    0    0  501    0  0.00000000000E+00 -0.00000000000E+00 -0.90075937799E+02  0.90075937799E+02  0.00000000000E+00 0. -1.
         23    2    1    2    0    0  0.00000000000E+00  0.00000000000E+00 -0.55939512662E+02  0.12421236294E+03  0.11090302985E+03 0.  0.
        -11    1    3    3    0    0  0.53313288605E+02 -0.13002211743E+02 -0.19044315717E+02  0.58086575155E+02  0.00000000000E+00 0.  1.
         11    1    3    3    0    0 -0.53313288605E+02  0.13002211743E+02 -0.36895196945E+02  0.66125787781E+02  0.00000000000E+00 0. -1.
<mgrwt>
<rscale>  0 0.11090303E+03</rscale>
<asrwt>0</asrwt>
<pdfrwt beam="2">  1        4 0.13857836E-01 0.11090303E+03</pdfrwt>
<pdfrwt beam="1">  1       -4 0.52517578E-02 0.11090303E+03</pdfrwt>
<totfact> 0.14641944E+04</totfact>
</mgrwt>
</event>
<event>
 5    1  0.1227473E+001  0.9673671E+02  0.7546771E-02  0.1287312E+00
         -2   -1    0    0    0  501 -0.00000000000E+00  0.00000000000E+00  0.22456006340E+02  0.22456006340E+02  0.00000000000E+00 0.  1.
          2   -1    0    0  501    0  0.00000000000E+00 -0.00000000000E+00 -0.10418137746E+03  0.10418137746E+03  0.00000000000E+00 0. -1.
         23    2    1    2    0    0  0.00000000000E+00  0.00000000000E+00 -0.81725371116E+02  0.12663738380E+03  0.96736708082E+02 0.  0.
        -11    1    3    3    0    0  0.26857178197E+02 -0.76403515124E+01  0.10839288712E+02  0.29952849142E+02  0.00000000000E+00 0.  1.
         11    1    3    3    0    0 -0.26857178197E+02  0.76403515124E+01 -0.92564659829E+02  0.96684534654E+02  0.00000000000E+00 0. -1.
<mgrwt>
<rscale>  0 0.96736708E+02</rscale>
<asrwt>0</asrwt>
<pdfrwt beam="2">  1        2 0.16027905E-01 0.96736708E+02</pdfrwt>
<pdfrwt beam="1">  1       -2 0.34547701E-02 0.96736708E+02</pdfrwt>
<totfact> 0.10548485E+05</totfact>
</mgrwt>
</event>
<event>
 5    1  0.1227473E+001  0.9126865E+02  0.7546771E-02  0.1299808E+00
          1   -1    0    0  501    0  0.00000000000E+00  0.00000000000E+00  0.31394993438E+02  0.31394993438E+02  0.00000000000E+00 0. -1.
         -1   -1    0    0    0  501 -0.00000000000E+00 -0.00000000000E+00 -0.66331959871E+02  0.66331959871E+02  0.00000000000E+00 0.  1.
         23    2    1    2    0    0  0.00000000000E+00  0.00000000000E+00 -0.34936966433E+02  0.97726953309E+02  0.91268646201E+02 0.  0.
        -13    1    3    3    0    0  0.15053108727E+01 -0.32911453070E+02 -0.51279153216E+02  0.60950646088E+02  0.00000000000E+00 0.  1.
         13    1    3    3    0    0 -0.15053108727E+01  0.32911453070E+02  0.16342186782E+02  0.36776307221E+02  0.00000000000E+00 0. -1.
<mgrwt>
<rscale>  0 0.91268646E+02</rscale>
<asrwt>0</asrwt>
<pdfrwt beam="1">  1        1 0.48299990E-02 0.91268646E+02</pdfrwt>
<pdfrwt beam="2">  1       -1 0.10204917E-01 0.91268646E+02</pdfrwt>
<totfact> 0.87066837E+04</totfact>
</mgrwt>
</event>
<event>
 5    1  0.1227473E+001  0.9002055E+02  0.7546771E-02  0.1302802E+00
          1   -1    0    0  501    0  0.00000000000E+00  0.00000000000E+00  0.29571207205E+03  0.29571207205E+03  0.00000000000E+00 0. -1.
         -1   -1    0    0    0  501 -0.00000000000E+00 -0.00000000000E+00 -0.68510050331E+01  0.68510050331E+01  0.00000000000E+00 0.  1.
         23    2    1    2    0    0  0.00000000000E+00  0.00000000000E+00  0.28886106702E+03  0.30256307709E+03  0.90020550853E+02 0.  0.
        -11    1    3    3    0    0  0.24006957177E+02 -0.37980468232E+02  0.15337049108E+03  0.15981663710E+03  0.00000000000E+00 0. -1.
         11    1    3    3    0    0 -0.24006957177E+02  0.37980468232E+02  0.13549057594E+03  0.14274643999E+03  0.00000000000E+00 0.  1.
<mgrwt>
<rscale>  0 0.90020551E+02</rscale>
<asrwt>0</asrwt>
<pdfrwt beam="1">  1        1 0.45494155E-01 0.90020551E+02</pdfrwt>
<pdfrwt beam="2">  1       -1 0.10540010E-02 0.90020551E+02</pdfrwt>
<totfact> 0.13218561E+05</totfact>
</mgrwt>
</event>
<event>
 5    1  0.1227473E+001  0.9144589E+02  0.7546771E-02  0.1299388E+00
          3   -1    0    0  501    0  0.00000000000E+00  0.00000000000E+00  0.16622376418E+03  0.16622376418E+03  0.00000000000E+00 0. -1.
         -3   -1    0    0    0  501 -0.00000000000E+00 -0.00000000000E+00 -0.12576949297E+02  0.12576949297E+02  0.00000000000E+00 0.  1.
         23    2    1    2    0    0  0.00000000000E+00  0.00000000000E+00  0.15364681488E+03  0.17880071348E+03  0.91445893380E+02 0.  0.
        -13    1    3    3    0    0 -0.13395664512E+02 -0.40079385340E+02  0.11095866520E+03  0.11873342554E+03  0.00000000000E+00 0. -1.
         13    1    3    3    0    0  0.13395664512E+02  0.40079385340E+02  0.42688149679E+02  0.60067287935E+02  0.00000000000E+00 0.  1.
<mgrwt>
<rscale>  0 0.91445893E+02</rscale>
<asrwt>0</asrwt>
<pdfrwt beam="1">  1        3 0.25572885E-01 0.91445893E+02</pdfrwt>
<pdfrwt beam="2">  1       -3 0.19349154E-02 0.91445893E+02</pdfrwt>
<totfact> 0.29396967E+04</totfact>
</mgrwt>
</event>
<event>
 5    1  0.1227473E+001  0.9125806E+02  0.7546771E-02  0.1299833E+00
          1   -1    0    0  501    0  0.00000000000E+00  0.00000000000E+00  0.12590227582E+03  0.12590227582E+03  0.00000000000E+00 0. -1.
         -1   -1    0    0    0  501 -0.00000000000E+00 -0.00000000000E+00 -0.16536700402E+02  0.16536700402E+02  0.00000000000E+00 0.  1.
         23    2    1    2    0    0  0.00000000000E+00  0.00000000000E+00  0.10936557542E+03  0.14243897622E+03  0.91258056416E+02 0.  0.
        -11    1    3    3    0    0 -0.32489000072E+02  0.15761009874E+01  0.47362632521E+01  0.32870220711E+02  0.00000000000E+00 0.  1.
         11    1    3    3    0    0  0.32489000072E+02 -0.15761009874E+01  0.10462931217E+03  0.10956875551E+03  0.00000000000E+00 0. -1.
<mgrwt>
<rscale>  0 0.91258056E+02</rscale>
<asrwt>0</asrwt>
<pdfrwt beam="1">  1        1 0.19369580E-01 0.91258056E+02</pdfrwt>
<pdfrwt beam="2">  1       -1 0.25441078E-02 0.91258056E+02</pdfrwt>
<totfact> 0.10838693E+05</totfact>
</mgrwt>
</event>
<event>
 5    1  0.1227473E+001  0.9043382E+02  0.7546771E-02  0.1301805E+00
          2   -1    0    0  501    0  0.00000000000E+00  0.00000000000E+00  0.14957189234E+03  0.14957189234E+03  0.00000000000E+00 0. -1.
         -2   -1    0    0    0  501 -0.00000000000E+00 -0.00000000000E+00 -0.13669472398E+02  0.13669472398E+02  0.00000000000E+00 0.  1.
         23    2    1    2    0    0  0.00000000000E+00  0.00000000000E+00  0.13590241994E+03  0.16324136474E+03  0.90433817875E+02 0.  0.
        -13    1    3    3    0    0  0.42698894957E+02  0.12267508616E+02  0.52753936978E+02  0.68968581723E+02  0.00000000000E+00 0.  1.
         13    1    3    3    0    0 -0.42698894957E+02 -0.12267508616E+02  0.83148482961E+02  0.94272783012E+02  0.00000000000E+00 0. -1.
<mgrwt>
<rscale>  0 0.90433818E+02</rscale>
<asrwt>0</asrwt>
<pdfrwt beam="1">  1        2 0.23011059E-01 0.90433818E+02</pdfrwt>
<pdfrwt beam="2">  1       -2 0.21029959E-02 0.90433818E+02</pdfrwt>
<totfact> 0.14280749E+05</totfact>
</mgrwt>
</event>
<event>
 5    1  0.1227473E+001  0.8789810E+02  0.7546771E-02  0.1308023E+00
          2   -1    0    0  501    0  0.00000000000E+00  0.00000000000E+00  0.12290862056E+03  0.12290862056E+03  0.00000000000E+00 0. -1.
         -2   -1    0    0    0  501 -0.00000000000E+00 -0.00000000000E+00 -0.15715080549E+02  0.15715080549E+02  0.00000000000E+00 0.  1.
         23    2    1    2    0    0  0.00000000000E+00  0.00000000000E+00  0.10719354001E+03  0.13862370111E+03  0.87898097186E+02 0.  0.
        -11    1    3    3    0    0  0.57857380318E+01  0.27277381004E+02  0.22190101103E-01  0.27884238764E+02  0.00000000000E+00 0. -1.
         11    1    3    3    0    0 -0.57857380318E+01 -0.27277381004E+02  0.10717134991E+03  0.11073946234E+03  0.00000000000E+00 0.  1.
<mgrwt>
<rscale>  0 0.87898097E+02</rscale>
<asrwt>0</asrwt>
<pdfrwt beam="1">  1        2 0.18909018E-01 0.87898097E+02</pdfrwt>
<pdfrwt beam="2">  1       -2 0.24177048E-02 0.87898097E+02</pdfrwt>
<totfact> 0.14459073E+05</totfact>
</mgrwt>
</event>
<event>
 5    1  0.1227473E+001  0.9145365E+02  0.7546771E-02  0.1299369E+00
          2   -1    0    0  501    0  0.00000000000E+00  0.00000000000E+00  0.24412522586E+02  0.24412522586E+02  0.00000000000E+00 0. -1.
         -2   -1    0    0    0  501 -0.00000000000E+00 -0.00000000000E+00 -0.85650404407E+02  0.85650404407E+02  0.00000000000E+00 0.  1.
         23    2    1    2    0    0  0.00000000000E+00  0.00000000000E+00 -0.61237881820E+02  0.11006292699E+03  0.91453647978E+02 0.  0.
        -13    1    3    3    0    0 -0.12774022588E+02 -0.18507359872E+02 -0.78535777603E+02  0.81691899147E+02  0.00000000000E+00 0.  1.
         13    1    3    3    0    0  0.12774022588E+02  0.18507359872E+02  0.17297895783E+02  0.28371027846E+02  0.00000000000E+00 0. -1.
<mgrwt>
<rscale>  0 0.91453648E+02</rscale>
<asrwt>0</asrwt>
<pdfrwt beam="1">  1        2 0.37557727E-02 0.91453648E+02</pdfrwt>
<pdfrwt beam="2">  1       -2 0.13176985E-01 0.91453648E+02</pdfrwt>
<totfact> 0.82850838E+04</totfact>
</mgrwt>
</event>
<event>
 5    1  0.1227473E+001  0.9142895E+02  0.7546771E-02  0.1299428E+00
          1   -1    0    0  501    0  0.00000000000E+00  0.00000000000E+00  0.75778836953E+02  0.75778836953E+02  0.00000000000E+00 0. -1.
         -1   -1    0    0    0  501 -0.00000000000E+00 -0.00000000000E+00 -0.27577792133E+02  0.27577792133E+02  0.00000000000E+00 0.  1.
         23    2    1    2    0    0  0.00000000000E+00  0.00000000000E+00  0.48201044820E+02  0.10335662909E+03  0.91428945386E+02 0.  0.
        -13    1    3    3    0    0  0.10573205662E+02 -0.38317207055E+02 -0.14241186954E+01  0.39774730024E+02  0.00000000000E+00 0.  1.
         13    1    3    3    0    0 -0.10573205662E+02  0.38317207055E+02  0.49625163516E+02  0.63581899063E+02  0.00000000000E+00 0. -1.
<mgrwt>
<rscale>  0 0.91428945E+02</rscale>
<asrwt>0</asrwt>
<pdfrwt beam="1">  1        1 0.11658283E-01 0.91428945E+02</pdfrwt>
<pdfrwt beam="2">  1       -1 0.42427373E-02 0.91428945E+02</pdfrwt>
<totfact> 0.99133854E+04</totfact>
</mgrwt>
</event>
<event>
 5    1  0.1227473E+001  0.1028476E+03  0.7546771E-02  0.1274419E+00
         -1   -1    0    0    0  501 -0.00000000000E+00  0.00000000000E+00  0.17162773529E+02  0.17162773529E+02  0.00000000000E+00 0.  1.
          1   -1    0    0  501    0  0.00000000000E+00 -0.00000000000E+00 -0.15407810921E+03  0.15407810921E+03  0.00000000000E+00 0. -1.
         23    2    1    2    0    0  0.00000000000E+00  0.00000000000E+00 -0.13691533568E+03  0.17124088274E+03  0.10284760948E+03 0.  0.
        -11    1    3    3    0    0 -0.12303757441E+02  0.49153785585E+02 -0.53853969840E+02  0.73944081251E+02  0.00000000000E+00 0.  1.
         11    1    3    3    0    0  0.12303757441E+02 -0.49153785585E+02 -0.83061365845E+02  0.97296801491E+02  0.00000000000E+00 0. -1.
<mgrwt>
<rscale>  0 0.10284761E+03</rscale>
<asrwt>0</asrwt>
<pdfrwt beam="2">  1        1 0.23704324E-01 0.10284761E+03</pdfrwt>
<pdfrwt beam="1">  1       -1 0.26404267E-02 0.10284761E+03</pdfrwt>
<totfact> 0.81239602E+04</totfact>
</mgrwt>
</event>
<event>
 5    1  0.1227473E+001  0.8851401E+02  0.7546771E-02  0.1306491E+00
         -4   -1    0    0    0  501 -0.00000000000E+00  0.00000000000E+00  0.56736981683E+02  0.56736981683E+02  0.00000000000E+00 0.  1.
          4   -1    0    0  501    0  0.00000000000E+00 -0.00000000000E+00 -0.34522145855E+02  0.34522145855E+02  0.00000000000E+00 0. -1.
         23    2    1    2    0    0  0.00000000000E+00  0.00000000000E+00  0.22214835828E+02  0.91259127537E+02  0.88514006959E+02 0.  0.
        -11    1    3    3    0    0 -0.93510551042E+00 -0.15996184590E+02 -0.31426477578E+02  0.35275711711E+02  0.00000000000E+00 0. -1.
         11    1    3    3    0    0  0.93510551042E+00  0.15996184590E+02  0.53641313406E+02  0.55983415827E+02  0.00000000000E+00 0.  1.
<mgrwt>
<rscale>  0 0.88514007E+02</rscale>
<asrwt>0</asrwt>
<pdfrwt beam="2">  1        4 0.53110994E-02 0.88514007E+02</pdfrwt>
<pdfrwt beam="1">  1       -4 0.87287664E-02 0.88514007E+02</pdfrwt>
<totfact> 0.29265147E+04</totfact>
</mgrwt>
</event>
<event>
 5    1  0.1227473E+001  0.8980034E+02  0.7546771E-02  0.1303336E+00
          1   -1    0    0  501    0  0.00000000000E+00  0.00000000000E+00  0.23171358839E+02  0.23171358839E+02  0.00000000000E+00 0. -1.
         -1   -1    0    0    0  501 -0.00000000000E+00 -0.00000000000E+00 -0.87005048852E+02  0.87005048852E+02  0.00000000000E+00 0.  1.
         23    2    1    2    0    0  0.00000000000E+00  0.00000000000E+00 -0.63833690013E+02  0.11017640769E+03  0.89800338702E+02 0.  0.
        -11    1    3    3    0    0  0.28901305433E+02 -0.34313367133E+02 -0.34156604804E+02  0.56385869431E+02  0.00000000000E+00 0.  1.
         11    1    3    3    0    0 -0.28901305433E+02  0.34313367133E+02 -0.29677085209E+02  0.53790538260E+02  0.00000000000E+00 0. -1.
<mgrwt>
<rscale>  0 0.89800339E+02</rscale>
<asrwt>0</asrwt>
<pdfrwt beam="1">  1        1 0.35648244E-02 0.89800339E+02</pdfrwt>
<pdfrwt beam="2">  1       -1 0.13385392E-01 0.89800339E+02</pdfrwt>
<totfact> 0.86755743E+04</totfact>
</mgrwt>
</event>
<event>
 5    1  0.1227473E+001  0.9155325E+02  0.7546771E-02  0.1299133E+00
          1   -1    0    0  501    0  0.00000000000E+00  0.00000000000E+00  0.38776238641E+02  0.38776238641E+02  0.00000000000E+00 0. -1.
         -1   -1    0    0    0  501 -0.00000000000E+00 -0.00000000000E+00 -0.54040810999E+02  0.54040810999E+02  0.00000000000E+00 0.  1.
         23    2    1    2    0    0  0.00000000000E+00  0.00000000000E+00 -0.15264572357E+02  0.92817049640E+02  0.91553249722E+02 0.  0.
        -13    1    3    3    0    0 -0.56078445044E+01 -0.43989175089E+02  0.38824894536E+01  0.44514819660E+02  0.00000000000E+00 0.  1.
         13    1    3    3    0    0  0.56078445044E+01  0.43989175089E+02 -0.19147061811E+02  0.48302229980E+02  0.00000000000E+00 0. -1.
<mgrwt>
<rscale>  0 0.91553250E+02</rscale>
<asrwt>0</asrwt>
<pdfrwt beam="1">  1        1 0.59655752E-02 0.91553250E+02</pdfrwt>
<pdfrwt beam="2">  1       -1 0.83139709E-02 0.91553250E+02</pdfrwt>
<totfact> 0.89188570E+04</totfact>
</mgrwt>
</event>
<event>
 5    1  0.1227473E+001  0.9374864E+02  0.7546771E-02  0.1294020E+00
         -1   -1    0    0    0  501 -0.00000000000E+00  0.00000000000E+00  0.18396679830E+03  0.18396679830E+03  0.00000000000E+00 0.  1.
          1   -1    0    0  501    0  0.00000000000E+00 -0.00000000000E+00 -0.11943469166E+02  0.11943469166E+02  0.00000000000E+00 0. -1.
         23    2    1    2    0    0  0.00000000000E+00  0.00000000000E+00  0.17202332913E+03  0.19591026747E+03  0.93748638031E+02 0.  0.
        -13    1    3    3    0    0 -0.13890641526E+02  0.44625446386E+02  0.93494391352E+02  0.10452550694E+03  0.00000000000E+00 0.  1.
         13    1    3    3    0    0  0.13890641526E+02 -0.44625446386E+02  0.78528937783E+02  0.91384760527E+02  0.00000000000E+00 0. -1.
<mgrwt>
<rscale>  0 0.93748638E+02</rscale>
<asrwt>0</asrwt>
<pdfrwt beam="2">  1        1 0.18374569E-02 0.93748638E+02</pdfrwt>
<pdfrwt beam="1">  1       -1 0.28302582E-01 0.93748638E+02</pdfrwt>
<totfact> 0.66084052E+04</totfact>
</mgrwt>
</event>
<event>
 5    1  0.1227473E+001  0.9146054E+02  0.7546771E-02  0.1299353E+00
         -1   -1    0    0    0  501 -0.00000000000E+00  0.00000000000E+00  0.89102627836E+02  0.89102627836E+02  0.00000000000E+00 0.  1.
          1   -1    0    0  501    0  0.00000000000E+00 -0.00000000000E+00 -0.23470211409E+02  0.23470211409E+02  0.00000000000E+00 0. -1.
         23    2    1    2    0    0  0.00000000000E+00  0.00000000000E+00  0.65632416427E+02  0.11257283925E+03  0.91460538210E+02 0.  0.
        -13    1    3    3    0    0 -0.41515046558E+02  0.83169955179E+01  0.54084597103E+02  0.68686353441E+02  0.00000000000E+00 0.  1.
         13    1    3    3    0    0  0.41515046558E+02 -0.83169955179E+01  0.11547819323E+02  0.43886485804E+02  0.00000000000E+00 0. -1.
<mgrwt>
<rscale>  0 0.91460538E+02</rscale>
<asrwt>0</asrwt>
<pdfrwt beam="2">  1        1 0.36108018E-02 0.91460538E+02</pdfrwt>
<pdfrwt beam="1">  1       -1 0.13708096E-01 0.91460538E+02</pdfrwt>
<totfact> 0.82428455E+04</totfact>
</mgrwt>
</event>
<event>
 5    1  0.1227473E+001  0.1153326E+03  0.7546771E-02  0.1251002E+00
         -1   -1    0    0    0  501 -0.00000000000E+00  0.00000000000E+00  0.14728986299E+03  0.14728986299E+03  0.00000000000E+00 0.  1.
          1   -1    0    0  501    0  0.00000000000E+00 -0.00000000000E+00 -0.22577250169E+02  0.22577250169E+02  0.00000000000E+00 0. -1.
         23    2    1    2    0    0  0.00000000000E+00  0.00000000000E+00  0.12471261282E+03  0.16986711316E+03  0.11533256407E+03 0.  0.
        -13    1    3    3    0    0 -0.21698902301E+01  0.57623425129E+02  0.61646069626E+02  0.84412116711E+02  0.00000000000E+00 0.  1.
         13    1    3    3    0    0  0.21698902301E+01 -0.57623425129E+02  0.63066543195E+02  0.85454996447E+02  0.00000000000E+00 0. -1.
<mgrwt>
<rscale>  0 0.11533256E+03</rscale>
<asrwt>0</asrwt>
<pdfrwt beam="2">  1        1 0.34734232E-02 0.11533256E+03</pdfrwt>
<pdfrwt beam="1">  1       -1 0.22659978E-01 0.11533256E+03</pdfrwt>
<totfact> 0.40685238E+04</totfact>
</mgrwt>
</event>
<event>
 5    1  0.1227473E+001  0.9017617E+02  0.7546771E-02  0.1302426E+00
          3   -1    0    0  501    0  0.00000000000E+00  0.00000000000E+00  0.49270686730E+02  0.49270686730E+02  0.00000000000E+00 0. -1.
         -3   -1    0    0    0  501 -0.00000000000E+00 -0.00000000000E+00 -0.41260548399E+02  0.41260548399E+02  0.00000000000E+00 0.  1.
         23    2    1    2    0    0  0.00000000000E+00  0.00000000000E+00  0.80101383301E+01  0.90531235129E+02  0.90176173227E+02 0.  0.
        -11    1    3    3    0    0 -0.32144350210E+02  0.64850162772E+01 -0.27062226091E+02  0.42516805708E+02  0.00000000000E+00 0.  1.
         11    1    3    3    0    0  0.32144350210E+02 -0.64850162772E+01  0.35072364421E+02  0.48014429421E+02  0.00000000000E+00 0. -1.
<mgrwt>
<rscale>  0 0.90176173E+02</rscale>
<asrwt>0</asrwt>
<pdfrwt beam="1">  1        3 0.75801057E-02 0.90176173E+02</pdfrwt>
<pdfrwt beam="2">  1       -3 0.63477767E-02 0.90176173E+02</pdfrwt>
<totfact> 0.36466756E+04</totfact>
</mgrwt>
</event>
<event>
 5    1  0.1227473E+001  0.9214962E+02  0.7546771E-02  0.1297728E+00
          1   -1    0    0  501    0  0.00000000000E+00  0.00000000000E+00  0.57683743447E+02  0.57683743447E+02  0.00000000000E+00 0. -1.
         -1   -1    0    0    0  501 -0.00000000000E+00 -0.00000000000E+00 -0.36802191621E+02  0.36802191621E+02  0.00000000000E+00 0.  1.
         23    2    1    2    0    0  0.00000000000E+00  0.00000000000E+00  0.20881551826E+02  0.94485935068E+02  0.92149621372E+02 0.  0.
        -13    1    3    3    0    0 -0.30589662406E+02  0.23859453757E+02 -0.15046781059E+02  0.41610174236E+02  0.00000000000E+00 0.  1.
         13    1    3    3    0    0  0.30589662406E+02 -0.23859453757E+02  0.35928332885E+02  0.52875760832E+02  0.00000000000E+00 0. -1.
<mgrwt>
<rscale>  0 0.92149621E+02</rscale>
<asrwt>0</asrwt>
<pdfrwt beam="1">  1        1 0.88744221E-02 0.92149621E+02</pdfrwt>
<pdfrwt beam="2">  1       -1 0.56618756E-02 0.92149621E+02</pdfrwt>
<totfact> 0.93011621E+04</totfact>
</mgrwt>
</event>
<event>
 5    1  0.1227473E+001  0.8781321E+02  0.7546771E-02  0.1308235E+00
         -2   -1    0    0    0  501 -0.00000000000E+00  0.00000000000E+00  0.12811750508E+02  0.12811750508E+02  0.00000000000E+00 0.  1.
          2   -1    0    0  501    0  0.00000000000E+00 -0.00000000000E+00 -0.15047045290E+03  0.15047045290E+03  0.00000000000E+00 0. -1.
         23    2    1    2    0    0  0.00000000000E+00  0.00000000000E+00 -0.13765870239E+03  0.16328220341E+03  0.87813208605E+02 0.  0.
        -13    1    3    3    0    0 -0.23482700507E+02  0.16579994763E+02 -0.13054036367E+03  0.13366794678E+03  0.00000000000E+00 0. -1.
         13    1    3    3    0    0  0.23482700507E+02 -0.16579994763E+02 -0.71183387230E+01  0.29614256628E+02  0.00000000000E+00 0.  1.
<mgrwt>
<rscale>  0 0.87813209E+02</rscale>
<asrwt>0</asrwt>
<pdfrwt beam="2">  1        2 0.23149301E-01 0.87813209E+02</pdfrwt>
<pdfrwt beam="1">  1       -2 0.19710385E-02 0.87813209E+02</pdfrwt>
<totfact> 0.15493998E+05</totfact>
</mgrwt>
</event>
<event>
 5    1  0.1227473E+001  0.9254170E+02  0.7546771E-02  0.1296811E+00
         -3   -1    0    0    0  501 -0.00000000000E+00  0.00000000000E+00  0.56921353804E+02  0.56921353804E+02  0.00000000000E+00 0.  1.
          3   -1    0    0  501    0  0.00000000000E+00 -0.00000000000E+00 -0.37613153786E+02  0.37613153786E+02  0.00000000000E+00 0. -1.
         23    2    1    2    0    0  0.00000000000E+00  0.00000000000E+00  0.19308200018E+02  0.94534507590E+02  0.92541701612E+02 0.  0.
        -11    1    3    3    0    0 -0.20797127599E+02  0.18967776143E+02 -0.27861309603E+02  0.39604919151E+02  0.00000000000E+00 0. -1.
         11    1    3    3    0    0  0.20797127599E+02 -0.18967776143E+02  0.47169509621E+02  0.54929588438E+02  0.00000000000E+00 0.  1.
<mgrwt>
<rscale>  0 0.92541702E+02</rscale>
<asrwt>0</asrwt>
<pdfrwt beam="2">  1        3 0.57866390E-02 0.92541702E+02</pdfrwt>
<pdfrwt beam="1">  1       -3 0.87571314E-02 0.92541702E+02</pdfrwt>
<totfact> 0.33688249E+04</totfact>
</mgrwt>
</event>
<event>
 5    1  0.1227473E+001  0.9156710E+02  0.7546771E-02  0.1299100E+00
         -2   -1    0    0    0  501 -0.00000000000E+00  0.00000000000E+00  0.39942629182E+02  0.39942629182E+02  0.00000000000E+00 0.  1.
          2   -1    0    0  501    0  0.00000000000E+00 -0.00000000000E+00 -0.52478610375E+02  0.52478610375E+02  0.00000000000E+00 0. -1.
         23    2    1    2    0    0  0.00000000000E+00  0.00000000000E+00 -0.12535981193E+02  0.92421239557E+02  0.91567104883E+02 0.  0.
        -11    1    3    3    0    0  0.55259339520E+01  0.29081065954E+02 -0.41520701737E+02  0.50992283885E+02  0.00000000000E+00 0. -1.
         11    1    3    3    0    0 -0.55259339520E+01 -0.29081065954E+02  0.28984720544E+02  0.41428955672E+02  0.00000000000E+00 0.  1.
<mgrwt>
<rscale>  0 0.91567105E+02</rscale>
<asrwt>0</asrwt>
<pdfrwt beam="2">  1        2 0.80736324E-02 0.91567105E+02</pdfrwt>
<pdfrwt beam="1">  1       -2 0.61450199E-02 0.91567105E+02</pdfrwt>
<totfact> 0.10112997E+05</totfact>
</mgrwt>
</event>
<event>
 5    1  0.1227473E+001  0.9024578E+02  0.7546771E-02  0.1302258E+00
          2   -1    0    0  501    0  0.00000000000E+00  0.00000000000E+00  0.28966839112E+02  0.28966839112E+02  0.00000000000E+00 0. -1.
         -2   -1    0    0    0  501 -0.00000000000E+00 -0.00000000000E+00 -0.70289871598E+02  0.70289871598E+02  0.00000000000E+00 0.  1.
         23    2    1    2    0    0  0.00000000000E+00  0.00000000000E+00 -0.41323032487E+02  0.99256710710E+02  0.90245784428E+02 0.  0.
        -13    1    3    3    0    0 -0.21967156865E+02  0.21079936098E+02  0.15967834036E+02  0.34378647595E+02  0.00000000000E+00 0. -1.
         13    1    3    3    0    0  0.21967156865E+02 -0.21079936098E+02 -0.57290866523E+02  0.64878063115E+02  0.00000000000E+00 0.  1.
<mgrwt>
<rscale>  0 0.90245784E+02</rscale>
<asrwt>0</asrwt>
<pdfrwt beam="1">  1        2 0.44564368E-02 0.90245784E+02</pdfrwt>
<pdfrwt beam="2">  1       -2 0.10813826E-01 0.90245784E+02</pdfrwt>
<totfact> 0.90353473E+04</totfact>
</mgrwt>
</event>
<event>
 5    1  0.1227473E+001  0.8959688E+02  0.7546771E-02  0.1303831E+00
          3   -1    0    0  501    0  0.00000000000E+00  0.00000000000E+00  0.75592910417E+02  0.75592910417E+02  0.00000000000E+00 0. -1.
         -3   -1    0    0    0  501 -0.00000000000E+00 -0.00000000000E+00 -0.26548788315E+02  0.26548788315E+02  0.00000000000E+00 0.  1.
         23    2    1    2    0    0  0.00000000000E+00  0.00000000000E+00  0.49044122102E+02  0.10214169873E+03  0.89596878891E+02 0.  0.
        -13    1    3    3    0    0  0.44392816818E+02 -0.39973324877E+01  0.19398420894E+02  0.48610694144E+02  0.00000000000E+00 0.  1.
         13    1    3    3    0    0 -0.44392816818E+02  0.39973324877E+01  0.29645701208E+02  0.53531004587E+02  0.00000000000E+00 0. -1.
<mgrwt>
<rscale>  0 0.89596879E+02</rscale>
<asrwt>0</asrwt>
<pdfrwt beam="1">  1        3 0.11629678E-01 0.89596879E+02</pdfrwt>
<pdfrwt beam="2">  1       -3 0.40844290E-02 0.89596879E+02</pdfrwt>
<totfact> 0.36190051E+04</totfact>
</mgrwt>
</event>
<event>
 5    1  0.1227473E+001  0.9128370E+02  0.7546771E-02  0.1299772E+00
         -1   -1    0    0    0  501 -0.00000000000E+00  0.00000000000E+00  0.17042958003E+03  0.17042958003E+03  0.00000000000E+00 0.  1.
          1   -1    0    0  501    0  0.00000000000E+00 -0.00000000000E+00 -0.12223104992E+02  0.12223104992E+02  0.00000000000E+00 0. -1.
         23    2    1    2    0    0  0.00000000000E+00  0.00000000000E+00  0.15820647504E+03  0.18265268503E+03  0.91283703923E+02 0.  0.
        -13    1    3    3    0    0 -0.13550573930E+02  0.36550859178E+02  0.12660573949E+03  0.13247111622E+03  0.00000000000E+00 0.  1.
         13    1    3    3    0    0  0.13550573930E+02 -0.36550859178E+02  0.31600735553E+02  0.50181568807E+02  0.00000000000E+00 0. -1.
<mgrwt>
<rscale>  0 0.91283704E+02</rscale>
<asrwt>0</asrwt>
<pdfrwt beam="2">  1        1 0.18804778E-02 0.91283704E+02</pdfrwt>
<pdfrwt beam="1">  1       -1 0.26219934E-01 0.91283704E+02</pdfrwt>
<totfact> 0.72271081E+04</totfact>
</mgrwt>
</event>
<event>
 5    1  0.1227473E+001  0.8777188E+02  0.7546771E-02  0.1308339E+00
         -1   -1    0    0    0  501 -0.00000000000E+00  0.00000000000E+00  0.71718435114E+01  0.71718435114E+01  0.00000000000E+00 0.  1.
          1   -1    0    0  501    0  0.00000000000E+00 -0.00000000000E+00 -0.26854680652E+03  0.26854680652E+03  0.00000000000E+00 0. -1.
         23    2    1    2    0    0  0.00000000000E+00  0.00000000000E+00 -0.26137496301E+03  0.27571865003E+03  0.87771878683E+02 0.  0.
        -11    1    3    3    0    0 -0.35570613927E+02  0.22795594372E+02 -0.93377506017E+02  0.10249032309E+03  0.00000000000E+00 0.  1.
         11    1    3    3    0    0  0.35570613927E+02 -0.22795594372E+02 -0.16799745699E+03  0.17322832694E+03  0.00000000000E+00 0. -1.
<mgrwt>
<rscale>  0 0.87771879E+02</rscale>
<asrwt>0</asrwt>
<pdfrwt beam="2">  1        1 0.41314891E-01 0.87771879E+02</pdfrwt>
<pdfrwt beam="1">  1       -1 0.11033606E-02 0.87771879E+02</pdfrwt>
<totfact> 0.13878122E+05</totfact>
</mgrwt>
</event>
<event>
 5    1  0.1227473E+001  0.9145307E+02  0.7546771E-02  0.1299371E+00
         -2   -1    0    0    0  501 -0.00000000000E+00  0.00000000000E+00  0.13490406070E+02  0.13490406070E+02  0.00000000000E+00 0.  1.
          2   -1    0    0  501    0  0.00000000000E+00 -0.00000000000E+00 -0.15499280750E+03  0.15499280750E+03  0.00000000000E+00 0. -1.
         23    2    1    2    0    0  0.00000000000E+00  0.00000000000E+00 -0.14150240143E+03  0.16848321357E+03  0.91453067989E+02 0.  0.
        -11    1    3    3    0    0  0.11662913141E+02 -0.42162896267E+02 -0.46228470078E+02  0.63645933179E+02  0.00000000000E+00 0.  1.
         11    1    3    3    0    0 -0.11662913141E+02  0.42162896267E+02 -0.95273931350E+02  0.10483728039E+03  0.00000000000E+00 0. -1.
<mgrwt>
<rscale>  0 0.91453068E+02</rscale>
<asrwt>0</asrwt>
<pdfrwt beam="2">  1        2 0.23845048E-01 0.91453068E+02</pdfrwt>
<pdfrwt beam="1">  1       -2 0.20754471E-02 0.91453068E+02</pdfrwt>
<totfact> 0.14022548E+05</totfact>
</mgrwt>
</event>
<event>
 5    1  0.1227473E+001  0.9145081E+02  0.7546771E-02  0.1299376E+00
          1   -1    0    0  501    0  0.00000000000E+00  0.00000000000E+00  0.22388277558E+03  0.22388277558E+03  0.00000000000E+00 0. -1.
         -1   -1    0    0    0  501 -0.00000000000E+00 -0.00000000000E+00 -0.93388716823E+01  0.93388716823E+01  0.00000000000E+00 0.  1.
         23    2    1    2    0    0  0.00000000000E+00  0.00000000000E+00  0.21454390389E+03  0.23322164726E+03  0.91450806732E+02 0.  0.
        -11    1    3    3    0    0  0.39429871767E+02 -0.43193344475E+01  0.16528314109E+03  0.16997613999E+03  0.00000000000E+00 0. -1.
         11    1    3    3    0    0 -0.39429871767E+02  0.43193344475E+01  0.49260762809E+02  0.63245507272E+02  0.00000000000E+00 0.  1.
<mgrwt>
<rscale>  0 0.91450807E+02</rscale>
<asrwt>0</asrwt>
<pdfrwt beam="1">  1        1 0.34443500E-01 0.91450807E+02</pdfrwt>
<pdfrwt beam="2">  1       -1 0.14367497E-02 0.91450807E+02</pdfrwt>
<totfact> 0.12006703E+05</totfact>
</mgrwt>
</event>
<event>
 5    1  0.1227473E+001  0.8882122E+02  0.7546771E-02  0.1305732E+00
         -3   -1    0    0    0  501 -0.00000000000E+00  0.00000000000E+00  0.53499474676E+02  0.53499474676E+02  0.00000000000E+00 0.  1.
          3   -1    0    0  501    0  0.00000000000E+00 -0.00000000000E+00 -0.36865822618E+02  0.36865822618E+02  0.00000000000E+00 0. -1.
         23    2    1    2    0    0  0.00000000000E+00  0.00000000000E+00  0.16633652058E+02  0.90365297294E+02  0.88821216915E+02 0.  0.
        -11    1    3    3    0    0  0.17661312714E+02 -0.40708153780E+02  0.64893841708E+01  0.44846269164E+02  0.00000000000E+00 0. -1.
         11    1    3    3    0    0 -0.17661312714E+02  0.40708153780E+02  0.10144267888E+02  0.45519028131E+02  0.00000000000E+00 0.  1.
<mgrwt>
<rscale>  0 0.88821217E+02</rscale>
<asrwt>0</asrwt>
<pdfrwt beam="2">  1        3 0.56716650E-02 0.88821217E+02</pdfrwt>
<pdfrwt beam="1">  1       -3 0.82306884E-02 0.88821217E+02</pdfrwt>
<totfact> 0.38010828E+04</totfact>
</mgrwt>
</event>
<event>
 5    1  0.1227473E+001  0.8870749E+02  0.7546771E-02  0.1306012E+00
         -2   -1    0    0    0  501 -0.00000000000E+00  0.00000000000E+00  0.19228932314E+03  0.19228932314E+03  0.00000000000E+00 0.  1.
          2   -1    0    0  501    0  0.00000000000E+00 -0.00000000000E+00 -0.10230701223E+02  0.10230701223E+02  0.00000000000E+00 0. -1.
         23    2    1    2    0    0  0.00000000000E+00  0.00000000000E+00  0.18205862192E+03  0.20252002437E+03  0.88707488148E+02 0.  0.
        -11    1    3    3    0    0 -0.91932326037E+01 -0.31488091458E+02  0.15918542568E+03  0.16253004393E+03  0.00000000000E+00 0.  1.
         11    1    3    3    0    0  0.91932326037E+01  0.31488091458E+02  0.22873196241E+02  0.39989980441E+02  0.00000000000E+00 0. -1.
<mgrwt>
<rscale>  0 0.88707488E+02</rscale>
<asrwt>0</asrwt>
<pdfrwt beam="2">  1        2 0.15739542E-02 0.88707488E+02</pdfrwt>
<pdfrwt beam="1">  1       -2 0.29582970E-01 0.88707488E+02</pdfrwt>
<totfact> 0.67968776E+04</totfact>
</mgrwt>
</event>
<event>
 5    1  0.1227473E+001  0.7397290E+02  0.7546771E-02  0.1347081E+00
          1   -1    0    0  501    0  0.00000000000E+00  0.00000000000E+00  0.29818411768E+03  0.29818411768E+03  0.00000000000E+00 0. -1.
         -1   -1    0    0    0  501 -0.00000000000E+00 -0.00000000000E+00 -0.45877612826E+01  0.45877612826E+01  0.00000000000E+00 0.  1.
         23    2    1    2    0    0  0.00000000000E+00  0.00000000000E+00  0.29359635640E+03  0.30277187896E+03  0.73972901800E+02 0.  0.
        -13    1    3    3    0    0 -0.36105414481E+02  0.31615432673E+01  0.11660927896E+03  0.12211191690E+03  0.00000000000E+00 0.  1.
         13    1    3    3    0    0  0.36105414481E+02 -0.31615432673E+01  0.17698707744E+03  0.18065996206E+03  0.00000000000E+00 0. -1.
<mgrwt>
<rscale>  0 0.73972902E+02</rscale>
<asrwt>0</asrwt>
<pdfrwt beam="1">  1        1 0.45874465E-01 0.73972902E+02</pdfrwt>
<pdfrwt beam="2">  1       -1 0.70580966E-03 0.73972902E+02</pdfrwt>
<totfact> 0.22203926E+05</totfact>
</mgrwt>
</event>
<event>
 5    1  0.1227473E+001  0.9196861E+02  0.7546771E-02  0.1298153E+00
          2   -1    0    0  501    0  0.00000000000E+00  0.00000000000E+00  0.18340835984E+03  0.18340835984E+03  0.00000000000E+00 0. -1.
         -2   -1    0    0    0  501 -0.00000000000E+00 -0.00000000000E+00 -0.11529224247E+02  0.11529224247E+02  0.00000000000E+00 0.  1.
         23    2    1    2    0    0  0.00000000000E+00  0.00000000000E+00  0.17187913560E+03  0.19493758409E+03  0.91968605717E+02 0.  0.
        -11    1    3    3    0    0  0.30056713985E+02  0.31795062183E+02  0.11593216842E+03  0.12391367846E+03  0.00000000000E+00 0.  1.
         11    1    3    3    0    0 -0.30056713985E+02 -0.31795062183E+02  0.55946967179E+02  0.71023905633E+02  0.00000000000E+00 0. -1.
<mgrwt>
<rscale>  0 0.91968606E+02</rscale>
<asrwt>0</asrwt>
<pdfrwt beam="1">  1        2 0.28216669E-01 0.91968606E+02</pdfrwt>
<pdfrwt beam="2">  1       -2 0.17737269E-02 0.91968606E+02</pdfrwt>
<totfact> 0.14648131E+05</totfact>
</mgrwt>
</event>
<event>
 5    1  0.1227473E+001  0.9163797E+02  0.7546771E-02  0.1298933E+00
          1   -1    0    0  501    0  0.00000000000E+00  0.00000000000E+00  0.34616807013E+02  0.34616807013E+02  0.00000000000E+00 0. -1.
         -1   -1    0    0    0  501 -0.00000000000E+00 -0.00000000000E+00 -0.60646250620E+02  0.60646250620E+02  0.00000000000E+00 0.  1.
         23    2    1    2    0    0  0.00000000000E+00  0.00000000000E+00 -0.26029443607E+02  0.95263057633E+02  0.91637973652E+02 0.  0.
        -13    1    3    3    0    0  0.34344910265E+02 -0.27610092456E+02 -0.26060645197E+02  0.51196164843E+02  0.00000000000E+00 0.  1.
         13    1    3    3    0    0 -0.34344910265E+02  0.27610092456E+02  0.31201589678E-01  0.44066892789E+02  0.00000000000E+00 0. -1.
<mgrwt>
<rscale>  0 0.91637974E+02</rscale>
<asrwt>0</asrwt>
<pdfrwt beam="1">  1        1 0.53256626E-02 0.91637974E+02</pdfrwt>
<pdfrwt beam="2">  1       -1 0.93301924E-02 0.91637974E+02</pdfrwt>
<totfact> 0.87405676E+04</totfact>
</mgrwt>
</event>
<event>
 5    1  0.1227473E+001  0.8958342E+02  0.7546771E-02  0.1303864E+00
         -1   -1    0    0    0  501 -0.00000000000E+00  0.00000000000E+00  0.23725493722E+02  0.23725493722E+02  0.00000000000E+00 0.  1.
          1   -1    0    0  501    0  0.00000000000E+00 -0.00000000000E+00 -0.84562936433E+02  0.84562936433E+02  0.00000000000E+00 0. -1.
         23    2    1    2    0    0  0.00000000000E+00  0.00000000000E+00 -0.60837442711E+02  0.10828843016E+03  0.89583422964E+02 0.  0.
        -13    1    3    3    0    0 -0.12397422449E+01 -0.25319857813E+02  0.14219645085E+02  0.29065967502E+02  0.00000000000E+00 0.  1.
         13    1    3    3    0    0  0.12397422449E+01  0.25319857813E+02 -0.75057087796E+02  0.79222462653E+02  0.00000000000E+00 0. -1.
<mgrwt>
<rscale>  0 0.89583423E+02</rscale>
<asrwt>0</asrwt>
<pdfrwt beam="2">  1        1 0.13009683E-01 0.89583423E+02</pdfrwt>
<pdfrwt beam="1">  1       -1 0.36500759E-02 0.89583423E+02</pdfrwt>
<totfact> 0.10665525E+05</totfact>
</mgrwt>
</event>
<event>
 5    1  0.1227473E+001  0.9145731E+02  0.7546771E-02  0.1299360E+00
         -1   -1    0    0    0  501 -0.00000000000E+00  0.00000000000E+00  0.15290663247E+03  0.15290663247E+03  0.00000000000E+00 0.  1.
          1   -1    0    0  501    0  0.00000000000E+00 -0.00000000000E+00 -0.13675730257E+02  0.13675730257E+02  0.00000000000E+00 0. -1.
         23    2    1    2    0    0  0.00000000000E+00  0.00000000000E+00  0.13923090221E+03  0.16658236272E+03  0.91457309389E+02 0.  0.
        -13    1    3    3    0    0 -0.41171233652E+01  0.31014111205E+02  0.13036155856E+03  0.13406327517E+03  0.00000000000E+00 0.  1.
         13    1    3    3    0    0  0.41171233652E+01 -0.31014111205E+02  0.88693436490E+01  0.32519087555E+02  0.00000000000E+00 0. -1.
<mgrwt>
<rscale>  0 0.91457309E+02</rscale>
<asrwt>0</asrwt>
<pdfrwt beam="2">  1        1 0.21039586E-02 0.91457309E+02</pdfrwt>
<pdfrwt beam="1">  1       -1 0.23524096E-01 0.91457309E+02</pdfrwt>
<totfact> 0.73859185E+04</totfact>
</mgrwt>
</event>
<event>
 5    1  0.1227473E+001  0.9073282E+02  0.7546771E-02  0.1301087E+00
          4   -1    0    0  501    0  0.00000000000E+00  0.00000000000E+00  0.63445682547E+01  0.63445682547E+01  0.00000000000E+00 0. -1.
         -4   -1    0    0    0  501 -0.00000000000E+00 -0.00000000000E+00 -0.32438947193E+03  0.32438947193E+03  0.00000000000E+00 0.  1.
         23    2    1    2    0    0  0.00000000000E+00  0.00000000000E+00 -0.31804490367E+03  0.33073404018E+03  0.90732819767E+02 0.  0.
        -11    1    3    3    0    0 -0.44711741086E+02  0.16505015100E+01 -0.13168456507E+03  0.13907799475E+03  0.00000000000E+00 0. -1.
         11    1    3    3    0    0  0.44711741086E+02 -0.16505015100E+01 -0.18636033861E+03  0.19165604544E+03  0.00000000000E+00 0.  1.
<mgrwt>
<rscale>  0 0.90732820E+02</rscale>
<asrwt>0</asrwt>
<pdfrwt beam="1">  1        4 0.97608746E-03 0.90732820E+02</pdfrwt>
<pdfrwt beam="2">  1       -4 0.49906071E-01 0.90732820E+02</pdfrwt>
<totfact> 0.17142518E+04</totfact>
</mgrwt>
</event>
<event>
 5    1  0.1227473E+001  0.9247760E+02  0.7546771E-02  0.1296960E+00
         -3   -1    0    0    0  501 -0.00000000000E+00  0.00000000000E+00  0.21600142828E+03  0.21600142828E+03  0.00000000000E+00 0.  1.
          3   -1    0    0  501    0  0.00000000000E+00 -0.00000000000E+00 -0.98982052282E+01  0.98982052282E+01  0.00000000000E+00 0. -1.
         23    2    1    2    0    0  0.00000000000E+00  0.00000000000E+00  0.20610322305E+03  0.22589963351E+03  0.92477596567E+02 0.  0.
        -11    1    3    3    0    0  0.91398077509E+01  0.42849483194E+02  0.13915246006E+03  0.14588701600E+03  0.00000000000E+00 0. -1.
         11    1    3    3    0    0 -0.91398077509E+01 -0.42849483194E+02  0.66950762989E+02  0.80012617508E+02  0.00000000000E+00 0.  1.
<mgrwt>
<rscale>  0 0.92477597E+02</rscale>
<asrwt>0</asrwt>
<pdfrwt beam="2">  1        3 0.15228010E-02 0.92477597E+02</pdfrwt>
<pdfrwt beam="1">  1       -3 0.33230986E-01 0.92477597E+02</pdfrwt>
<totfact> 0.26188946E+04</totfact>
</mgrwt>
</event>
<event>
 5    1  0.1227473E+001  0.9214400E+02  0.7546771E-02  0.1297741E+00
         -3   -1    0    0    0  501 -0.00000000000E+00  0.00000000000E+00  0.91942154817E+01  0.91942154817E+01  0.00000000000E+00 0.  1.
          3   -1    0    0  501    0  0.00000000000E+00 -0.00000000000E+00 -0.23086571782E+03  0.23086571782E+03  0.00000000000E+00 0. -1.
         23    2    1    2    0    0  0.00000000000E+00  0.00000000000E+00 -0.22167150234E+03  0.24005993330E+03  0.92143999414E+02 0.  0.
        -11    1    3    3    0    0  0.42631102222E+02  0.11194942307E+02 -0.14577857519E+03  0.15229619364E+03  0.00000000000E+00 0. -1.
         11    1    3    3    0    0 -0.42631102222E+02 -0.11194942307E+02 -0.75892927147E+02  0.87763739670E+02  0.00000000000E+00 0.  1.
<mgrwt>
<rscale>  0 0.92143999E+02</rscale>
<asrwt>0</asrwt>
<pdfrwt beam="2">  1        3 0.35517802E-01 0.92143999E+02</pdfrwt>
<pdfrwt beam="1">  1       -3 0.14144947E-02 0.92143999E+02</pdfrwt>
<totfact> 0.25806748E+04</totfact>
</mgrwt>
</event>
<event>
 5    1  0.1227473E+001  0.9080886E+02  0.7546771E-02  0.1300905E+00
         -1   -1    0    0    0  501 -0.00000000000E+00  0.00000000000E+00  0.21602018459E+02  0.21602018459E+02  0.00000000000E+00 0.  1.
          1   -1    0    0  501    0  0.00000000000E+00 -0.00000000000E+00 -0.95433788216E+02  0.95433788216E+02  0.00000000000E+00 0. -1.
         23    2    1    2    0    0  0.00000000000E+00  0.00000000000E+00 -0.73831769757E+02  0.11703580668E+03  0.90808864207E+02 0.  0.
        -13    1    3    3    0    0 -0.46663806983E+01  0.18218724671E+02  0.16346098088E+02  0.24917703750E+02  0.00000000000E+00 0.  1.
         13    1    3    3    0    0  0.46663806983E+01 -0.18218724671E+02 -0.90177867845E+02  0.92118102925E+02  0.00000000000E+00 0. -1.
<mgrwt>
<rscale>  0 0.90808864E+02</rscale>
<asrwt>0</asrwt>
<pdfrwt beam="2">  1        1 0.14682121E-01 0.90808864E+02</pdfrwt>
<pdfrwt beam="1">  1       -1 0.33233874E-02 0.90808864E+02</pdfrwt>
<totfact> 0.10479772E+05</totfact>
</mgrwt>
</event>
<event>
 5    1  0.1227473E+001  0.9207140E+02  0.7546771E-02  0.1297912E+00
          1   -1    0    0  501    0  0.00000000000E+00  0.00000000000E+00  0.41727289080E+02  0.41727289080E+02  0.00000000000E+00 0. -1.
         -1   -1    0    0    0  501 -0.00000000000E+00 -0.00000000000E+00 -0.50788966874E+02  0.50788966874E+02  0.00000000000E+00 0.  1.
         23    2    1    2    0    0  0.00000000000E+00  0.00000000000E+00 -0.90616777938E+01  0.92516255954E+02  0.92071404960E+02 0.  0.
        -11    1    3    3    0    0  0.14621122544E+02 -0.43651714086E+02 -0.43387722771E+01  0.46239315652E+02  0.00000000000E+00 0.  1.
         11    1    3    3    0    0 -0.14621122544E+02  0.43651714086E+02 -0.47229055167E+01  0.46276940301E+02  0.00000000000E+00 0. -1.
<mgrwt>
<rscale>  0 0.92071405E+02</rscale>
<asrwt>0</asrwt>
<pdfrwt beam="1">  1        1 0.64195830E-02 0.92071405E+02</pdfrwt>
<pdfrwt beam="2">  1       -1 0.78136872E-02 0.92071405E+02</pdfrwt>
<totfact> 0.88765251E+04</totfact>
</mgrwt>
</event>
<event>
 5    1  0.1227473E+001  0.9246670E+02  0.7546771E-02  0.1296986E+00
         -2   -1    0    0    0  501 -0.00000000000E+00  0.00000000000E+00  0.82006425301E+01  0.82006425301E+01  0.00000000000E+00 0.  1.
          2   -1    0    0  501    0  0.00000000000E+00 -0.00000000000E+00 -0.26065308423E+03  0.26065308423E+03  0.00000000000E+00 0. -1.
         23    2    1    2    0    0  0.00000000000E+00  0.00000000000E+00 -0.25245244170E+03  0.26885372676E+03  0.92466702507E+02 0.  0.
        -13    1    3    3    0    0  0.18175353223E+02 -0.34882709565E+02 -0.55579014599E+02  0.68089454067E+02  0.00000000000E+00 0.  1.
         13    1    3    3    0    0 -0.18175353223E+02  0.34882709565E+02 -0.19687342710E+03  0.20076427269E+03  0.00000000000E+00 0. -1.
<mgrwt>
<rscale>  0 0.92466703E+02</rscale>
<asrwt>0</asrwt>
<pdfrwt beam="2">  1        2 0.40100474E-01 0.92466703E+02</pdfrwt>
<pdfrwt beam="1">  1       -2 0.12616373E-02 0.92466703E+02</pdfrwt>
<totfact> 0.16418318E+05</totfact>
</mgrwt>
</event>
<event>
 5    1  0.1227473E+001  0.9007186E+02  0.7546771E-02  0.1302678E+00
         -1   -1    0    0    0  501 -0.00000000000E+00  0.00000000000E+00  0.76019072465E+02  0.76019072465E+02  0.00000000000E+00 0.  1.
          1   -1    0    0  501    0  0.00000000000E+00 -0.00000000000E+00 -0.26680605674E+02  0.26680605674E+02  0.00000000000E+00 0. -1.
         23    2    1    2    0    0  0.00000000000E+00  0.00000000000E+00  0.49338466791E+02  0.10269967814E+03  0.90071857894E+02 0.  0.
        -13    1    3    3    0    0  0.90795936941E+01 -0.30573079885E+02  0.60924682810E+02  0.68767501124E+02  0.00000000000E+00 0.  1.
         13    1    3    3    0    0 -0.90795936941E+01  0.30573079885E+02 -0.11586216019E+02  0.33932177015E+02  0.00000000000E+00 0. -1.
<mgrwt>
<rscale>  0 0.90071858E+02</rscale>
<asrwt>0</asrwt>
<pdfrwt beam="2">  1        1 0.41047086E-02 0.90071858E+02</pdfrwt>
<pdfrwt beam="1">  1       -1 0.11695242E-01 0.90071858E+02</pdfrwt>
<totfact> 0.88077824E+04</totfact>
</mgrwt>
</event>
<event>
 5    1  0.1227473E+001  0.8969349E+02  0.7546771E-02  0.1303596E+00
         -2   -1    0    0    0  501 -0.00000000000E+00  0.00000000000E+00  0.89289810554E+02  0.89289810554E+02  0.00000000000E+00 0.  1.
          2   -1    0    0  501    0  0.00000000000E+00 -0.00000000000E+00 -0.22524750530E+02  0.22524750530E+02  0.00000000000E+00 0. -1.
         23    2    1    2    0    0  0.00000000000E+00  0.00000000000E+00  0.66765060024E+02  0.11181456108E+03  0.89693493802E+02 0.  0.
        -11    1    3    3    0    0 -0.25122555194E+02 -0.35328839989E+01  0.79484345203E+02  0.83434915839E+02  0.00000000000E+00 0.  1.
         11    1    3    3    0    0  0.25122555194E+02  0.35328839989E+01 -0.12719285178E+02  0.28379645245E+02  0.00000000000E+00 0. -1.
<mgrwt>
<rscale>  0 0.89693494E+02</rscale>
<asrwt>0</asrwt>
<pdfrwt beam="2">  1        2 0.34653463E-02 0.89693494E+02</pdfrwt>
<pdfrwt beam="1">  1       -2 0.13736894E-01 0.89693494E+02</pdfrwt>
<totfact> 0.85904456E+04</totfact>
</mgrwt>
</event>
<event>
 5    1  0.1227473E+001  0.6934682E+02  0.7546771E-02  0.1362328E+00
          2   -1    0    0  501    0  0.00000000000E+00  0.00000000000E+00  0.26795073747E+03  0.26795073747E+03  0.00000000000E+00 0.  1.
         -2   -1    0    0    0  501 -0.00000000000E+00 -0.00000000000E+00 -0.44868147925E+01  0.44868147925E+01  0.00000000000E+00 0. -1.
         23    2    1    2    0    0  0.00000000000E+00  0.00000000000E+00  0.26346392268E+03  0.27243755226E+03  0.69346819179E+02 0.  0.
        -11    1    3    3    0    0 -0.17801101338E+02 -0.27264623223E+02  0.84915945579E+02  0.90944800301E+02  0.00000000000E+00 0.  1.
         11    1    3    3    0    0  0.17801101338E+02  0.27264623223E+02  0.17854797710E+03  0.18149275196E+03  0.00000000000E+00 0. -1.
<mgrwt>
<rscale>  0 0.69346819E+02</rscale>
<asrwt>0</asrwt>
<pdfrwt beam="1">  1        2 0.41223178E-01 0.69346819E+02</pdfrwt>
<pdfrwt beam="2">  1       -2 0.69027941E-03 0.69346819E+02</pdfrwt>
<totfact> 0.35400983E+05</totfact>
</mgrwt>
</event>
<event>
 5    1  0.1227473E+001  0.9399113E+02  0.7546771E-02  0.1293465E+00
         -3   -1    0    0    0  501 -0.00000000000E+00  0.00000000000E+00  0.14835853041E+03  0.14835853041E+03  0.00000000000E+00 0.  1.
          3   -1    0    0  501    0  0.00000000000E+00 -0.00000000000E+00 -0.14886795345E+02  0.14886795345E+02  0.00000000000E+00 0. -1.
         23    2    1    2    0    0  0.00000000000E+00  0.00000000000E+00  0.13347173506E+03  0.16324532575E+03  0.93991128941E+02 0.  0.
        -13    1    3    3    0    0  0.37980338843E+02 -0.15282275792E+02  0.26656070319E+02  0.48852842055E+02  0.00000000000E+00 0.  1.
         13    1    3    3    0    0 -0.37980338843E+02  0.15282275792E+02  0.10681566474E+03  0.11439248370E+03  0.00000000000E+00 0. -1.
<mgrwt>
<rscale>  0 0.93991129E+02</rscale>
<asrwt>0</asrwt>
<pdfrwt beam="2">  1        3 0.22902763E-02 0.93991129E+02</pdfrwt>
<pdfrwt beam="1">  1       -3 0.22824388E-01 0.93991129E+02</pdfrwt>
<totfact> 0.28099735E+04</totfact>
</mgrwt>
</event>
<event>
 5    1  0.1227473E+001  0.9117704E+02  0.7546771E-02  0.1300026E+00
          4   -1    0    0  501    0  0.00000000000E+00  0.00000000000E+00  0.60998244114E+02  0.60998244114E+02  0.00000000000E+00 0. -1.
         -4   -1    0    0    0  501 -0.00000000000E+00 -0.00000000000E+00 -0.34071687919E+02  0.34071687919E+02  0.00000000000E+00 0.  1.
         23    2    1    2    0    0  0.00000000000E+00  0.00000000000E+00  0.26926556194E+02  0.95069932033E+02  0.91177039590E+02 0.  0.
        -13    1    3    3    0    0  0.21214541860E+02 -0.30874750785E+02  0.40553436837E+02  0.55207682995E+02  0.00000000000E+00 0. -1.
         13    1    3    3    0    0 -0.21214541860E+02  0.30874750785E+02 -0.13626880642E+02  0.39862249039E+02  0.00000000000E+00 0.  1.
<mgrwt>
<rscale>  0 0.91177040E+02</rscale>
<asrwt>0</asrwt>
<pdfrwt beam="1">  1        4 0.93843453E-02 0.91177040E+02</pdfrwt>
<pdfrwt beam="2">  1       -4 0.52417981E-02 0.91177040E+02</pdfrwt>
<totfact> 0.26767188E+04</totfact>
</mgrwt>
</event>
<event>
 5    1  0.1227473E+001  0.8848767E+02  0.7546771E-02  0.1306556E+00
          2   -1    0    0  501    0  0.00000000000E+00  0.00000000000E+00  0.30077326319E+02  0.30077326319E+02  0.00000000000E+00 0. -1.
         -2   -1    0    0    0  501 -0.00000000000E+00 -0.00000000000E+00 -0.65082812771E+02  0.65082812771E+02  0.00000000000E+00 0.  1.
         23    2    1    2    0    0  0.00000000000E+00  0.00000000000E+00 -0.35005486452E+02  0.95160139090E+02  0.88487671400E+02 0.  0.
        -13    1    3    3    0    0 -0.56922875834E+01  0.12035745903E+02  0.27871928039E+02  0.30888601296E+02  0.00000000000E+00 0. -1.
         13    1    3    3    0    0  0.56922875834E+01 -0.12035745903E+02 -0.62877414491E+02  0.64271537794E+02  0.00000000000E+00 0.  1.
<mgrwt>
<rscale>  0 0.88487671E+02</rscale>
<asrwt>0</asrwt>
<pdfrwt beam="1">  1        2 0.46272810E-02 0.88487671E+02</pdfrwt>
<pdfrwt beam="2">  1       -2 0.10012740E-01 0.88487671E+02</pdfrwt>
<totfact> 0.96711547E+04</totfact>
</mgrwt>
</event>
<event>
 5    1  0.1227473E+001  0.8927265E+02  0.7546771E-02  0.1304623E+00
         -2   -1    0    0    0  501 -0.00000000000E+00  0.00000000000E+00  0.40840404312E+02  0.40840404312E+02  0.00000000000E+00 0.  1.
          2   -1    0    0  501    0  0.00000000000E+00 -0.00000000000E+00 -0.48785056925E+02  0.48785056925E+02  0.00000000000E+00 0. -1.
         23    2    1    2    0    0  0.00000000000E+00  0.00000000000E+00 -0.79446526128E+01  0.89625461237E+02  0.89272648649E+02 0.  0.
        -11    1    3    3    0    0  0.16769721576E+02  0.41338508518E+02 -0.24479048517E+01  0.44677601619E+02  0.00000000000E+00 0. -1.
         11    1    3    3    0    0 -0.16769721576E+02 -0.41338508518E+02 -0.54967477612E+01  0.44947859618E+02  0.00000000000E+00 0.  1.
<mgrwt>
<rscale>  0 0.89272649E+02</rscale>
<asrwt>0</asrwt>
<pdfrwt beam="2">  1        2 0.75053934E-02 0.89272649E+02</pdfrwt>
<pdfrwt beam="1">  1       -2 0.62831391E-02 0.89272649E+02</pdfrwt>
<totfact> 0.10665300E+05</totfact>
</mgrwt>
</event>
<event>
 5    1  0.1227473E+001  0.9168527E+02  0.7546771E-02  0.1298821E+00
          1   -1    0    0  501    0  0.00000000000E+00  0.00000000000E+00  0.10944748286E+03  0.10944748286E+03  0.00000000000E+00 0. -1.
         -1   -1    0    0    0  501 -0.00000000000E+00 -0.00000000000E+00 -0.19201421469E+02  0.19201421469E+02  0.00000000000E+00 0.  1.
         23    2    1    2    0    0  0.00000000000E+00  0.00000000000E+00  0.90246061395E+02  0.12864890433E+03  0.91685271383E+02 0.  0.
        -11    1    3    3    0    0  0.21506855563E+02 -0.21453201191E+02 -0.30517432409E+01  0.30530277011E+02  0.00000000000E+00 0.  1.
         11    1    3    3    0    0 -0.21506855563E+02  0.21453201191E+02  0.93297804636E+02  0.98118627322E+02  0.00000000000E+00 0. -1.
<mgrwt>
<rscale>  0 0.91685271E+02</rscale>
<asrwt>0</asrwt>
<pdfrwt beam="1">  1        1 0.16838074E-01 0.91685271E+02</pdfrwt>
<pdfrwt beam="2">  1       -1 0.29540649E-02 0.91685271E+02</pdfrwt>
<totfact> 0.10445546E+05</totfact>
</mgrwt>
</event>
<event>
 5    1  0.1227473E+001  0.9653553E+02  0.7546771E-02  0.1287755E+00
          2   -1    0    0  501    0  0.00000000000E+00  0.00000000000E+00  0.98272738049E+02  0.98272738049E+02  0.00000000000E+00 0. -1.
         -2   -1    0    0    0  501 -0.00000000000E+00 -0.00000000000E+00 -0.23707258194E+02  0.23707258194E+02  0.00000000000E+00 0.  1.
         23    2    1    2    0    0  0.00000000000E+00  0.00000000000E+00  0.74565479855E+02  0.12197999624E+03  0.96535530751E+02 0.  0.
        -11    1    3    3    0    0 -0.16622473504E+02 -0.10709104693E+01 -0.19960519847E+02  0.25997611952E+02  0.00000000000E+00 0.  1.
         11    1    3    3    0    0  0.16622473504E+02  0.10709104693E+01  0.94525999702E+02  0.95982384291E+02  0.00000000000E+00 0. -1.
<mgrwt>
<rscale>  0 0.96535531E+02</rscale>
<asrwt>0</asrwt>
<pdfrwt beam="1">  1        2 0.15118883E-01 0.96535531E+02</pdfrwt>
<pdfrwt beam="2">  1       -2 0.36472706E-02 0.96535531E+02</pdfrwt>
<totfact> 0.10418080E+05</totfact>
</mgrwt>
</event>
<event>
 5    1  0.1227473E+001  0.9105157E+02  0.7546771E-02  0.1300325E+00
          1   -1    0    0  501    0  0.00000000000E+00  0.00000000000E+00  0.27312775757E+03  0.27312775757E+03  0.00000000000E+00 0. -1.
         -1   -1    0    0    0  501 -0.00000000000E+00 -0.00000000000E+00 -0.75883791878E+01  0.75883791878E+01  0.00000000000E+00 0.  1.
         23    2    1    2    0    0  0.00000000000E+00  0.00000000000E+00  0.26553937838E+03  0.28071613676E+03  0.91051567612E+02 0.  0.
        -13    1    3    3    0    0 -0.40202826016E+02  0.37384917253E+01  0.19761292233E+03  0.20169558898E+03  0.00000000000E+00 0. -1.
         13    1    3    3    0    0  0.40202826016E+02 -0.37384917253E+01  0.67926456050E+02  0.79020547781E+02  0.00000000000E+00 0.  1.
<mgrwt>
<rscale>  0 0.91051568E+02</rscale>
<asrwt>0</asrwt>
<pdfrwt beam="1">  1        1 0.42019647E-01 0.91051568E+02</pdfrwt>
<pdfrwt beam="2">  1       -1 0.11674432E-02 0.91051568E+02</pdfrwt>
<totfact> 0.12628700E+05</totfact>
</mgrwt>
</event>
<event>
 5    1  0.1227473E+001  0.8935145E+02  0.7546771E-02  0.1304430E+00
          2   -1    0    0  501    0  0.00000000000E+00  0.00000000000E+00  0.49875697631E+02  0.49875697631E+02  0.00000000000E+00 0.  1.
         -2   -1    0    0    0  501 -0.00000000000E+00 -0.00000000000E+00 -0.40017892036E+02  0.40017892036E+02  0.00000000000E+00 0. -1.
         23    2    1    2    0    0  0.00000000000E+00  0.00000000000E+00  0.98578055953E+01  0.89893589667E+02  0.89351447286E+02 0.  0.
        -11    1    3    3    0    0 -0.38349646710E+02 -0.20883119236E+02  0.14426532546E+02  0.45988312789E+02  0.00000000000E+00 0.  1.
         11    1    3    3    0    0  0.38349646710E+02  0.20883119236E+02 -0.45687269504E+01  0.43905276879E+02  0.00000000000E+00 0. -1.
<mgrwt>
<rscale>  0 0.89351447E+02</rscale>
<asrwt>0</asrwt>
<pdfrwt beam="1">  1        2 0.76731842E-02 0.89351447E+02</pdfrwt>
<pdfrwt beam="2">  1       -2 0.61565988E-02 0.89351447E+02</pdfrwt>
<totfact> 0.10699317E+05</totfact>
</mgrwt>
</event>
<event>
 5    1  0.1227473E+001  0.1020693E+03  0.7546771E-02  0.1276004E+00
         -1   -1    0    0    0  501 -0.00000000000E+00  0.00000000000E+00  0.11125003020E+02  0.11125003020E+02  0.00000000000E+00 0.  1.
          1   -1    0    0  501    0  0.00000000000E+00 -0.00000000000E+00 -0.23411541854E+03  0.23411541854E+03  0.00000000000E+00 0. -1.
         23    2    1    2    0    0  0.00000000000E+00  0.00000000000E+00 -0.22299041552E+03  0.24524042156E+03  0.10206928506E+03 0.  0.
        -13    1    3    3    0    0 -0.39362982996E+02 -0.21939109737E+02 -0.53942693699E+02  0.70289282042E+02  0.00000000000E+00 0.  1.
         13    1    3    3    0    0  0.39362982996E+02  0.21939109737E+02 -0.16904772182E+03  0.17495113952E+03  0.00000000000E+00 0. -1.
<mgrwt>
<rscale>  0 0.10206929E+03</rscale>
<asrwt>0</asrwt>
<pdfrwt beam="2">  1        1 0.36017754E-01 0.10206929E+03</pdfrwt>
<pdfrwt beam="1">  1       -1 0.17115391E-02 0.10206929E+03</pdfrwt>
<totfact> 0.90108144E+04</totfact>
</mgrwt>
</event>
<event>
 5    1  0.1227473E+001  0.8964155E+02  0.7546771E-02  0.1303722E+00
         -2   -1    0    0    0  501 -0.00000000000E+00  0.00000000000E+00  0.10412055709E+03  0.10412055709E+03  0.00000000000E+00 0. -1.
          2   -1    0    0  501    0  0.00000000000E+00 -0.00000000000E+00 -0.19293998566E+02  0.19293998566E+02  0.00000000000E+00 0.  1.
         23    2    1    2    0    0  0.00000000000E+00  0.00000000000E+00  0.84826558523E+02  0.12341455565E+03  0.89641550169E+02 0.  0.
        -11    1    3    3    0    0 -0.18830780175E+02  0.34669211896E+02  0.13131732909E+02  0.41581184984E+02  0.00000000000E+00 0.  1.
         11    1    3    3    0    0  0.18830780175E+02 -0.34669211896E+02  0.71694825614E+02  0.81833370671E+02  0.00000000000E+00 0. -1.
<mgrwt>
<rscale>  0 0.89641550E+02</rscale>
<asrwt>0</asrwt>
<pdfrwt beam="2">  1        2 0.29683075E-02 0.89641550E+02</pdfrwt>
<pdfrwt beam="1">  1       -2 0.16018547E-01 0.89641550E+02</pdfrwt>
<totfact> 0.82250391E+04</totfact>
</mgrwt>
</event>
<event>
 5    1  0.1227473E+001  0.9412708E+02  0.7546771E-02  0.1293154E+00
         -1   -1    0    0    0  501 -0.00000000000E+00  0.00000000000E+00  0.35779278115E+03  0.35779278115E+03  0.00000000000E+00 0.  1.
          1   -1    0    0  501    0  0.00000000000E+00 -0.00000000000E+00 -0.61906695182E+01  0.61906695182E+01  0.00000000000E+00 0. -1.
         23    2    1    2    0    0  0.00000000000E+00  0.00000000000E+00  0.35160211163E+03  0.36398345067E+03  0.94127081418E+02 0.  0.
        -13    1    3    3    0    0  0.19142111656E+02  0.39263417431E+02  0.10805342269E+03  0.11654861021E+03  0.00000000000E+00 0. -1.
         13    1    3    3    0    0 -0.19142111656E+02 -0.39263417431E+02  0.24354868894E+03  0.24743484046E+03  0.00000000000E+00 0.  1.
<mgrwt>
<rscale>  0 0.94127081E+02</rscale>
<asrwt>0</asrwt>
<pdfrwt beam="2">  1        1 0.95241097E-03 0.94127081E+02</pdfrwt>
<pdfrwt beam="1">  1       -1 0.55045027E-01 0.94127081E+02</pdfrwt>
<totfact> 0.51719313E+04</totfact>
</mgrwt>
</event>
<event>
 5    1  0.1227473E+001  0.8891159E+02  0.7546771E-02  0.1305509E+00
         -4   -1    0    0    0  501 -0.00000000000E+00  0.00000000000E+00  0.15366091538E+02  0.15366091538E+02  0.00000000000E+00 0.  1.
          4   -1    0    0  501    0  0.00000000000E+00 -0.00000000000E+00 -0.12861551881E+03  0.12861551881E+03  0.00000000000E+00 0. -1.
         23    2    1    2    0    0  0.00000000000E+00  0.00000000000E+00 -0.11324942727E+03  0.14398161035E+03  0.88911592838E+02 0.  0.
        -13    1    3    3    0    0 -0.73126394614E+01 -0.32422645333E+02 -0.10443386511E+03  0.10959532293E+03  0.00000000000E+00 0.  1.
         13    1    3    3    0    0  0.73126394614E+01  0.32422645333E+02 -0.88155621637E+01  0.34386287420E+02  0.00000000000E+00 0. -1.
<mgrwt>
<rscale>  0 0.88911593E+02</rscale>
<asrwt>0</asrwt>
<pdfrwt beam="2">  1        4 0.19787002E-01 0.88911593E+02</pdfrwt>
<pdfrwt beam="1">  1       -4 0.23640142E-02 0.88911593E+02</pdfrwt>
<totfact> 0.25653577E+04</totfact>
</mgrwt>
</event>
<event>
 5    1  0.1227473E+001  0.9182375E+02  0.7546771E-02  0.1298494E+00
         -1   -1    0    0    0  501 -0.00000000000E+00  0.00000000000E+00  0.51173195064E+02  0.51173195064E+02  0.00000000000E+00 0.  1.
          1   -1    0    0  501    0  0.00000000000E+00 -0.00000000000E+00 -0.41191495909E+02  0.41191495909E+02  0.00000000000E+00 0. -1.
         23    2    1    2    0    0  0.00000000000E+00  0.00000000000E+00  0.99816991558E+01  0.92364690973E+02  0.91823754119E+02 0.  0.
        -11    1    3    3    0    0 -0.45097189104E+02  0.74212858810E+01  0.59837486466E+00  0.45707658020E+02  0.00000000000E+00 0.  1.
         11    1    3    3    0    0  0.45097189104E+02 -0.74212858810E+01  0.93833242912E+01  0.46657032953E+02  0.00000000000E+00 0. -1.
<mgrwt>
<rscale>  0 0.91823754E+02</rscale>
<asrwt>0</asrwt>
<pdfrwt beam="2">  1        1 0.63371533E-02 0.91823754E+02</pdfrwt>
<pdfrwt beam="1">  1       -1 0.78727992E-02 0.91823754E+02</pdfrwt>
<totfact> 0.89267414E+04</totfact>
</mgrwt>
</event>
<event>
 5    1  0.1227473E+001  0.8695861E+02  0.7546771E-02  0.1310389E+00
          1   -1    0    0  501    0  0.00000000000E+00  0.00000000000E+00  0.10445287075E+03  0.10445287075E+03  0.00000000000E+00 0. -1.
         -1   -1    0    0    0  501 -0.00000000000E+00 -0.00000000000E+00 -0.18098592667E+02  0.18098592667E+02  0.00000000000E+00 0.  1.
         23    2    1    2    0    0  0.00000000000E+00  0.00000000000E+00  0.86354278083E+02  0.12255146342E+03  0.86958609939E+02 0.  0.
        -13    1    3    3    0    0 -0.16148538100E+02  0.40123217483E+02  0.49448495709E+02  0.65694760764E+02  0.00000000000E+00 0. -1.
         13    1    3    3    0    0  0.16148538100E+02 -0.40123217483E+02  0.36905782374E+02  0.56856702653E+02  0.00000000000E+00 0.  1.
<mgrwt>
<rscale>  0 0.86958610E+02</rscale>
<asrwt>0</asrwt>
<pdfrwt beam="1">  1        1 0.16069672E-01 0.86958610E+02</pdfrwt>
<pdfrwt beam="2">  1       -1 0.27843989E-02 0.86958610E+02</pdfrwt>
<totfact> 0.11963873E+05</totfact>
</mgrwt>
</event>
<event>
 5    1  0.1227473E+001  0.9084429E+02  0.7546771E-02  0.1300820E+00
          1   -1    0    0  501    0  0.00000000000E+00  0.00000000000E+00  0.42361173005E+02  0.42361173005E+02  0.00000000000E+00 0. -1.
         -1   -1    0    0    0  501 -0.00000000000E+00 -0.00000000000E+00 -0.48704294828E+02  0.48704294828E+02  0.00000000000E+00 0.  1.
         23    2    1    2    0    0  0.00000000000E+00  0.00000000000E+00 -0.63431218233E+01  0.91065467833E+02  0.90844285660E+02 0.  0.
        -11    1    3    3    0    0  0.33293695354E+02 -0.14836761447E+02  0.23997405822E+02  0.43640292468E+02  0.00000000000E+00 0. -1.
         11    1    3    3    0    0 -0.33293695354E+02  0.14836761447E+02 -0.30340527645E+02  0.47425175364E+02  0.00000000000E+00 0.  1.
<mgrwt>
<rscale>  0 0.90844286E+02</rscale>
<asrwt>0</asrwt>
<pdfrwt beam="1">  1        1 0.65171036E-02 0.90844286E+02</pdfrwt>
<pdfrwt beam="2">  1       -1 0.74929684E-02 0.90844286E+02</pdfrwt>
<totfact> 0.92400629E+04</totfact>
</mgrwt>
</event>
<event>
 5    1  0.1227473E+001  0.9048668E+02  0.7546771E-02  0.1301677E+00
         -2   -1    0    0    0  501 -0.00000000000E+00  0.00000000000E+00  0.10300663795E+02  0.10300663795E+02  0.00000000000E+00 0.  1.
          2   -1    0    0  501    0  0.00000000000E+00 -0.00000000000E+00 -0.19872114199E+03  0.19872114199E+03  0.00000000000E+00 0. -1.
         23    2    1    2    0    0  0.00000000000E+00  0.00000000000E+00 -0.18842047819E+03  0.20902180578E+03  0.90486676868E+02 0.  0.
        -13    1    3    3    0    0 -0.24236185161E+02 -0.24859096727E+02 -0.16122305013E+03  0.16491888690E+03  0.00000000000E+00 0. -1.
         13    1    3    3    0    0  0.24236185161E+02  0.24859096727E+02 -0.27197428058E+02  0.44102918885E+02  0.00000000000E+00 0.  1.
<mgrwt>
<rscale>  0 0.90486677E+02</rscale>
<asrwt>0</asrwt>
<pdfrwt beam="2">  1        2 0.30572483E-01 0.90486677E+02</pdfrwt>
<pdfrwt beam="1">  1       -2 0.15847175E-02 0.90486677E+02</pdfrwt>
<totfact> 0.15750848E+05</totfact>
</mgrwt>
</event>
<event>
 5    1  0.1227473E+001  0.1068388E+03  0.7546771E-02  0.1266538E+00
         -2   -1    0    0    0  501 -0.00000000000E+00  0.00000000000E+00  0.10619419490E+03  0.10619419490E+03  0.00000000000E+00 0.  1.
          2   -1    0    0  501    0  0.00000000000E+00 -0.00000000000E+00 -0.26871848901E+02  0.26871848901E+02  0.00000000000E+00 0. -1.
         23    2    1    2    0    0  0.00000000000E+00  0.00000000000E+00  0.79322345996E+02  0.13306604380E+03  0.10683883862E+03 0.  0.
        -11    1    3    3    0    0 -0.12093858493E+02 -0.46355197024E+02  0.69097008485E+02  0.84080094469E+02  0.00000000000E+00 0.  1.
         11    1    3    3    0    0  0.12093858493E+02  0.46355197024E+02  0.10225337510E+02  0.48985949328E+02  0.00000000000E+00 0. -1.
<mgrwt>
<rscale>  0 0.10683884E+03</rscale>
<asrwt>0</asrwt>
<pdfrwt beam="2">  1        2 0.41341307E-02 0.10683884E+03</pdfrwt>
<pdfrwt beam="1">  1       -2 0.16337568E-01 0.10683884E+03</pdfrwt>
<totfact> 0.52799093E+04</totfact>
</mgrwt>
</event>
<event>
 5    1  0.1227473E+001  0.6652786E+02  0.7546771E-02  0.1372315E+00
          2   -1    0    0  501    0  0.00000000000E+00  0.00000000000E+00  0.41458048387E+02  0.41458048387E+02  0.00000000000E+00 0.  1.
         -2   -1    0    0    0  501 -0.00000000000E+00 -0.00000000000E+00 -0.26689363921E+02  0.26689363921E+02  0.00000000000E+00 0. -1.
         23    2    1    2    0    0  0.00000000000E+00  0.00000000000E+00  0.14768684465E+02  0.68147412308E+02  0.66527857048E+02 0.  0.
        -11    1    3    3    0    0  0.12264126838E+02  0.12082641029E+02  0.36539302171E+02  0.40392073783E+02  0.00000000000E+00 0.  1.
         11    1    3    3    0    0 -0.12264126838E+02 -0.12082641029E+02 -0.21770617706E+02  0.27755338525E+02  0.00000000000E+00 0. -1.
<mgrwt>
<rscale>  0 0.66527857E+02</rscale>
<asrwt>0</asrwt>
<pdfrwt beam="1">  1        2 0.63781613E-02 0.66527857E+02</pdfrwt>
<pdfrwt beam="2">  1       -2 0.41060560E-02 0.66527857E+02</pdfrwt>
<totfact> 0.23254633E+05</totfact>
</mgrwt>
</event>
<event>
 5    1  0.1227473E+001  0.9125052E+02  0.7546771E-02  0.1299851E+00
          4   -1    0    0  501    0  0.00000000000E+00  0.00000000000E+00  0.40290530842E+02  0.40290530842E+02  0.00000000000E+00 0. -1.
         -4   -1    0    0    0  501 -0.00000000000E+00 -0.00000000000E+00 -0.51666346568E+02  0.51666346568E+02  0.00000000000E+00 0.  1.
         23    2    1    2    0    0  0.00000000000E+00  0.00000000000E+00 -0.11375815726E+02  0.91956877411E+02  0.91250523942E+02 0.  0.
        -13    1    3    3    0    0  0.38535646559E+02 -0.85901822552E+01 -0.28731422492E+02  0.48829109405E+02  0.00000000000E+00 0.  1.
         13    1    3    3    0    0 -0.38535646559E+02  0.85901822552E+01  0.17355606766E+02  0.43127768005E+02  0.00000000000E+00 0. -1.
<mgrwt>
<rscale>  0 0.91250524E+02</rscale>
<asrwt>0</asrwt>
<pdfrwt beam="1">  1        4 0.61985432E-02 0.91250524E+02</pdfrwt>
<pdfrwt beam="2">  1       -4 0.79486687E-02 0.91250524E+02</pdfrwt>
<totfact> 0.26907185E+04</totfact>
</mgrwt>
</event>
<event>
 5    1  0.1227473E+001  0.1002966E+03  0.7546771E-02  0.1279674E+00
          1   -1    0    0  501    0  0.00000000000E+00  0.00000000000E+00  0.31203950610E+02  0.31203950610E+02  0.00000000000E+00 0. -1.
         -1   -1    0    0    0  501 -0.00000000000E+00 -0.00000000000E+00 -0.80593953614E+02  0.80593953614E+02  0.00000000000E+00 0.  1.
         23    2    1    2    0    0  0.00000000000E+00  0.00000000000E+00 -0.49390003004E+02  0.11179790422E+03  0.10029655524E+03 0.  0.
        -13    1    3    3    0    0  0.39979985720E+02  0.94638874514E+01 -0.56748119859E+02  0.70059357201E+02  0.00000000000E+00 0.  1.
         13    1    3    3    0    0 -0.39979985720E+02 -0.94638874514E+01  0.73581168558E+01  0.41738547023E+02  0.00000000000E+00 0. -1.
<mgrwt>
<rscale>  0 0.10029656E+03</rscale>
<asrwt>0</asrwt>
<pdfrwt beam="1">  1        1 0.48006078E-02 0.10029656E+03</pdfrwt>
<pdfrwt beam="2">  1       -1 0.12399070E-01 0.10029656E+03</pdfrwt>
<totfact> 0.66208902E+04</totfact>
</mgrwt>
</event>
<event>
 5    1  0.1227473E+001  0.9159798E+02  0.7546771E-02  0.1299027E+00
          2   -1    0    0  501    0  0.00000000000E+00  0.00000000000E+00  0.10070156886E+02  0.10070156886E+02  0.00000000000E+00 0. -1.
         -2   -1    0    0    0  501 -0.00000000000E+00 -0.00000000000E+00 -0.20829344019E+03  0.20829344019E+03  0.00000000000E+00 0.  1.
         23    2    1    2    0    0  0.00000000000E+00  0.00000000000E+00 -0.19822328331E+03  0.21836359708E+03  0.91597982968E+02 0.  0.
        -11    1    3    3    0    0 -0.44465731330E+02  0.79660522817E+01 -0.11709231999E+03  0.12550406628E+03  0.00000000000E+00 0.  1.
         11    1    3    3    0    0  0.44465731330E+02 -0.79660522817E+01 -0.81130963312E+02  0.92859530796E+02  0.00000000000E+00 0. -1.
<mgrwt>
<rscale>  0 0.91597983E+02</rscale>
<asrwt>0</asrwt>
<pdfrwt beam="1">  1        2 0.15492551E-02 0.91597983E+02</pdfrwt>
<pdfrwt beam="2">  1       -2 0.32045140E-01 0.91597983E+02</pdfrwt>
<totfact> 0.60501093E+04</totfact>
</mgrwt>
</event>
<event>
 5    1  0.1227473E+001  0.9336777E+02  0.7546771E-02  0.1294895E+00
         -2   -1    0    0    0  501 -0.00000000000E+00  0.00000000000E+00  0.27117632017E+02  0.27117632017E+02  0.00000000000E+00 0.  1.
          2   -1    0    0  501    0  0.00000000000E+00 -0.00000000000E+00 -0.80367833211E+02  0.80367833211E+02  0.00000000000E+00 0. -1.
         23    2    1    2    0    0  0.00000000000E+00  0.00000000000E+00 -0.53250201194E+02  0.10748546523E+03  0.93367774463E+02 0.  0.
        -11    1    3    3    0    0 -0.35504550891E+02  0.23981187291E+02 -0.47967924499E+02  0.64316345190E+02  0.00000000000E+00 0. -1.
         11    1    3    3    0    0  0.35504550891E+02 -0.23981187291E+02 -0.52822766952E+01  0.43169120039E+02  0.00000000000E+00 0.  1.
<mgrwt>
<rscale>  0 0.93367774E+02</rscale>
<asrwt>0</asrwt>
<pdfrwt beam="2">  1        2 0.12364282E-01 0.93367774E+02</pdfrwt>
<pdfrwt beam="1">  1       -2 0.41719434E-02 0.93367774E+02</pdfrwt>
<totfact> 0.10764344E+05</totfact>
</mgrwt>
</event>
<event>
 5    1  0.1227473E+001  0.9089573E+02  0.7546771E-02  0.1300697E+00
          2   -1    0    0  501    0  0.00000000000E+00  0.00000000000E+00  0.11059512719E+03  0.11059512719E+03  0.00000000000E+00 0. -1.
         -2   -1    0    0    0  501 -0.00000000000E+00 -0.00000000000E+00 -0.18676305150E+02  0.18676305150E+02  0.00000000000E+00 0.  1.
         23    2    1    2    0    0  0.00000000000E+00  0.00000000000E+00  0.91918822040E+02  0.12927143234E+03  0.90895728031E+02 0.  0.
        -13    1    3    3    0    0 -0.33434755598E+02 -0.19057299783E+01  0.89655606530E+02  0.95706021079E+02  0.00000000000E+00 0. -1.
         13    1    3    3    0    0  0.33434755598E+02  0.19057299783E+01  0.22632155099E+01  0.33565411261E+02  0.00000000000E+00 0.  1.
<mgrwt>
<rscale>  0 0.90895728E+02</rscale>
<asrwt>0</asrwt>
<pdfrwt beam="1">  1        2 0.17014635E-01 0.90895728E+02</pdfrwt>
<pdfrwt beam="2">  1       -2 0.28732778E-02 0.90895728E+02</pdfrwt>
<totfact> 0.12762727E+05</totfact>
</mgrwt>
</event>
<event>
 5    1  0.1227473E+001  0.9042534E+02  0.7546771E-02  0.1301825E+00
          1   -1    0    0  501    0  0.00000000000E+00  0.00000000000E+00  0.95124823187E+02  0.95124823187E+02  0.00000000000E+00 0. -1.
         -1   -1    0    0    0  501 -0.00000000000E+00 -0.00000000000E+00 -0.21489507043E+02  0.21489507043E+02  0.00000000000E+00 0.  1.
         23    2    1    2    0    0  0.00000000000E+00  0.00000000000E+00  0.73635316144E+02  0.11661433023E+03  0.90425340649E+02 0.  0.
        -13    1    3    3    0    0  0.27634663814E+01  0.17406385946E+02  0.90512433053E+02  0.92212361185E+02  0.00000000000E+00 0. -1.
         13    1    3    3    0    0 -0.27634663814E+01 -0.17406385946E+02 -0.16877116909E+02  0.24401969046E+02  0.00000000000E+00 0.  1.
<mgrwt>
<rscale>  0 0.90425341E+02</rscale>
<asrwt>0</asrwt>
<pdfrwt beam="1">  1        1 0.14634588E-01 0.90425341E+02</pdfrwt>
<pdfrwt beam="2">  1       -1 0.33060780E-02 0.90425341E+02</pdfrwt>
<totfact> 0.10595707E+05</totfact>
</mgrwt>
</event>
<event>
 5    1  0.1227473E+001  0.9239510E+02  0.7546771E-02  0.1297153E+00
         -4   -1    0    0    0  501 -0.00000000000E+00  0.00000000000E+00  0.36931505315E+03  0.36931505315E+03  0.00000000000E+00 0. -1.
          4   -1    0    0  501    0  0.00000000000E+00 -0.00000000000E+00 -0.57788433666E+01  0.57788433666E+01  0.00000000000E+00 0.  1.
         23    2    1    2    0    0  0.00000000000E+00  0.00000000000E+00  0.36353620978E+03  0.37509389652E+03  0.92395104742E+02 0.  0.
        -13    1    3    3    0    0 -0.40721062148E+02  0.15337472319E+02  0.24476121055E+03  0.24859906104E+03  0.00000000000E+00 0. -1.
         13    1    3    3    0    0  0.40721062148E+02 -0.15337472319E+02  0.11877499923E+03  0.12649483548E+03  0.00000000000E+00 0.  1.
<mgrwt>
<rscale>  0 0.92395105E+02</rscale>
<asrwt>0</asrwt>
<pdfrwt beam="2">  1        4 0.88905312E-03 0.92395105E+02</pdfrwt>
<pdfrwt beam="1">  1       -4 0.56817682E-01 0.92395105E+02</pdfrwt>
<totfact> 0.15205600E+04</totfact>
</mgrwt>
</event>
<event>
 5    1  0.1227473E+001  0.8818011E+02  0.7546771E-02  0.1307320E+00
         -2   -1    0    0    0  501 -0.00000000000E+00  0.00000000000E+00  0.49109009140E+02  0.49109009140E+02  0.00000000000E+00 0.  1.
          2   -1    0    0  501    0  0.00000000000E+00 -0.00000000000E+00 -0.39584043627E+02  0.39584043627E+02  0.00000000000E+00 0. -1.
         23    2    1    2    0    0  0.00000000000E+00  0.00000000000E+00  0.95249655132E+01  0.88693052767E+02  0.88180114772E+02 0.  0.
        -11    1    3    3    0    0 -0.55696665729E+01 -0.32048413357E+02  0.34698189878E+02  0.47561395745E+02  0.00000000000E+00 0.  1.
         11    1    3    3    0    0  0.55696665729E+01  0.32048413357E+02 -0.25173224365E+02  0.41131657022E+02  0.00000000000E+00 0. -1.
<mgrwt>
<rscale>  0 0.88180115E+02</rscale>
<asrwt>0</asrwt>
<pdfrwt beam="2">  1        2 0.60898529E-02 0.88180115E+02</pdfrwt>
<pdfrwt beam="1">  1       -2 0.75552322E-02 0.88180115E+02</pdfrwt>
<totfact> 0.10476328E+05</totfact>
</mgrwt>
</event>
<event>
 5    1  0.1227473E+001  0.9178926E+02  0.7546771E-02  0.1298576E+00
          4   -1    0    0  501    0  0.00000000000E+00  0.00000000000E+00  0.45871496392E+02  0.45871496392E+02  0.00000000000E+00 0. -1.
         -4   -1    0    0    0  501 -0.00000000000E+00 -0.00000000000E+00 -0.45917777072E+02  0.45917777072E+02  0.00000000000E+00 0.  1.
         23    2    1    2    0    0  0.00000000000E+00  0.00000000000E+00 -0.46280679956E-01  0.91789273464E+02  0.91789261797E+02 0.  0.
        -13    1    3    3    0    0 -0.82599630358E+01 -0.20488580837E+02 -0.40251347144E+02  0.45914920025E+02  0.00000000000E+00 0.  1.
         13    1    3    3    0    0  0.82599630358E+01  0.20488580837E+02  0.40205066464E+02  0.45874353439E+02  0.00000000000E+00 0. -1.
<mgrwt>
<rscale>  0 0.91789262E+02</rscale>
<asrwt>0</asrwt>
<pdfrwt beam="1">  1        4 0.70571533E-02 0.91789262E+02</pdfrwt>
<pdfrwt beam="2">  1       -4 0.70642734E-02 0.91789262E+02</pdfrwt>
<totfact> 0.26489769E+04</totfact>
</mgrwt>
</event>
<event>
 5    1  0.1227473E+001  0.8960412E+02  0.7546771E-02  0.1303813E+00
          2   -1    0    0  501    0  0.00000000000E+00  0.00000000000E+00  0.21869615503E+02  0.21869615503E+02  0.00000000000E+00 0. -1.
         -2   -1    0    0    0  501 -0.00000000000E+00 -0.00000000000E+00 -0.91781438227E+02  0.91781438227E+02  0.00000000000E+00 0.  1.
         23    2    1    2    0    0  0.00000000000E+00  0.00000000000E+00 -0.69911822724E+02  0.11365105373E+03  0.89604124109E+02 0.  0.
        -11    1    3    3    0    0  0.21137275871E+02  0.39431718241E+02 -0.37952035697E+02  0.58668576327E+02  0.00000000000E+00 0. -1.
         11    1    3    3    0    0 -0.21137275871E+02 -0.39431718241E+02 -0.31959787027E+02  0.54982477403E+02  0.00000000000E+00 0.  1.
<mgrwt>
<rscale>  0 0.89604124E+02</rscale>
<asrwt>0</asrwt>
<pdfrwt beam="1">  1        2 0.33645562E-02 0.89604124E+02</pdfrwt>
<pdfrwt beam="2">  1       -2 0.14120221E-01 0.89604124E+02</pdfrwt>
<totfact> 0.85442974E+04</totfact>
</mgrwt>
</event>
<event>
 5    1  0.1227473E+001  0.9042700E+02  0.7546771E-02  0.1301821E+00
         -3   -1    0    0    0  501 -0.00000000000E+00  0.00000000000E+00  0.22333878391E+02  0.22333878391E+02  0.00000000000E+00 0.  1.
          3   -1    0    0  501    0  0.00000000000E+00 -0.00000000000E+00 -0.91531820568E+02  0.91531820568E+02  0.00000000000E+00 0. -1.
         23    2    1    2    0    0  0.00000000000E+00  0.00000000000E+00 -0.69197942177E+02  0.11386569896E+03  0.90426999275E+02 0.  0.
        -11    1    3    3    0    0 -0.14248150606E+02  0.42527722417E+02 -0.41793356276E+02  0.61304988366E+02  0.00000000000E+00 0. -1.
         11    1    3    3    0    0  0.14248150606E+02 -0.42527722417E+02 -0.27404585901E+02  0.52560710593E+02  0.00000000000E+00 0.  1.
<mgrwt>
<rscale>  0 0.90426999E+02</rscale>
<asrwt>0</asrwt>
<pdfrwt beam="2">  1        3 0.14081819E-01 0.90426999E+02</pdfrwt>
<pdfrwt beam="1">  1       -3 0.34359813E-02 0.90426999E+02</pdfrwt>
<totfact> 0.34434099E+04</totfact>
</mgrwt>
</event>
<event>
 5    1  0.1227473E+001  0.8661898E+02  0.7546771E-02  0.1311252E+00
         -1   -1    0    0    0  501 -0.00000000000E+00  0.00000000000E+00  0.74447502296E+01  0.74447502296E+01  0.00000000000E+00 0.  1.
          1   -1    0    0  501    0  0.00000000000E+00 -0.00000000000E+00 -0.25195096932E+03  0.25195096932E+03  0.00000000000E+00 0. -1.
         23    2    1    2    0    0  0.00000000000E+00  0.00000000000E+00 -0.24450621909E+03  0.25939571955E+03  0.86618982600E+02 0.  0.
        -13    1    3    3    0    0  0.33951101521E+02 -0.30438982407E+01 -0.42245978505E+02  0.54283195474E+02  0.00000000000E+00 0.  1.
         13    1    3    3    0    0 -0.33951101521E+02  0.30438982407E+01 -0.20226024058E+03  0.20511252407E+03  0.00000000000E+00 0. -1.
<mgrwt>
<rscale>  0 0.86618983E+02</rscale>
<asrwt>0</asrwt>
<pdfrwt beam="2">  1        1 0.38761694E-01 0.86618983E+02</pdfrwt>
<pdfrwt beam="1">  1       -1 0.11453460E-02 0.86618983E+02</pdfrwt>
<totfact> 0.14197703E+05</totfact>
</mgrwt>
</event>
<event>
 5    1  0.1227473E+001  0.9260996E+02  0.7546771E-02  0.1296652E+00
          1   -1    0    0  501    0  0.00000000000E+00  0.00000000000E+00  0.48926205523E+02  0.48926205523E+02  0.00000000000E+00 0. -1.
         -1   -1    0    0    0  501 -0.00000000000E+00 -0.00000000000E+00 -0.43824183890E+02  0.43824183890E+02  0.00000000000E+00 0.  1.
         23    2    1    2    0    0  0.00000000000E+00  0.00000000000E+00  0.51020216334E+01  0.92750389413E+02  0.92609956871E+02 0.  0.
        -13    1    3    3    0    0 -0.10072240560E+02  0.38866802588E+02 -0.20550667353E+02  0.45104415548E+02  0.00000000000E+00 0.  1.
         13    1    3    3    0    0  0.10072240560E+02 -0.38866802588E+02  0.25652688987E+02  0.47645973865E+02  0.00000000000E+00 0. -1.
<mgrwt>
<rscale>  0 0.92609957E+02</rscale>
<asrwt>0</asrwt>
<pdfrwt beam="1">  1        1 0.75271085E-02 0.92609957E+02</pdfrwt>
<pdfrwt beam="2">  1       -1 0.67421822E-02 0.92609957E+02</pdfrwt>
<totfact> 0.89459775E+04</totfact>
</mgrwt>
</event>
<event>
 5    1  0.1227473E+001  0.9223232E+02  0.7546771E-02  0.1297534E+00
          3   -1    0    0  501    0  0.00000000000E+00  0.00000000000E+00  0.13136725848E+02  0.13136725848E+02  0.00000000000E+00 0. -1.
         -3   -1    0    0    0  501 -0.00000000000E+00 -0.00000000000E+00 -0.16188967732E+03  0.16188967732E+03  0.00000000000E+00 0.  1.
         23    2    1    2    0    0  0.00000000000E+00  0.00000000000E+00 -0.14875295147E+03  0.17502640317E+03  0.92232322068E+02 0.  0.
        -13    1    3    3    0    0  0.14539650888E+02  0.30208166472E+02 -0.13446895546E+03  0.13858511735E+03  0.00000000000E+00 0.  1.
         13    1    3    3    0    0 -0.14539650888E+02 -0.30208166472E+02 -0.14283996010E+02  0.36441285812E+02  0.00000000000E+00 0. -1.
<mgrwt>
<rscale>  0 0.92232322E+02</rscale>
<asrwt>0</asrwt>
<pdfrwt beam="1">  1        3 0.20210346E-02 0.92232322E+02</pdfrwt>
<pdfrwt beam="2">  1       -3 0.24906106E-01 0.92232322E+02</pdfrwt>
<totfact> 0.28926601E+04</totfact>
</mgrwt>
</event>
<event>
 5    1  0.1227473E+001  0.9370669E+02  0.7546771E-02  0.1294116E+00
          1   -1    0    0  501    0  0.00000000000E+00  0.00000000000E+00  0.17197288709E+03  0.17197288709E+03  0.00000000000E+00 0.  1.
         -1   -1    0    0    0  501 -0.00000000000E+00 -0.00000000000E+00 -0.12765012159E+02  0.12765012159E+02  0.00000000000E+00 0. -1.
         23    2    1    2    0    0  0.00000000000E+00  0.00000000000E+00  0.15920787493E+03  0.18473789925E+03  0.93706691216E+02 0.  0.
        -11    1    3    3    0    0 -0.20579484397E+02 -0.33449888181E+02  0.12997534092E+03  0.13577923054E+03  0.00000000000E+00 0.  1.
         11    1    3    3    0    0  0.20579484397E+02  0.33449888181E+02  0.29232534007E+02  0.48958668710E+02  0.00000000000E+00 0. -1.
<mgrwt>
<rscale>  0 0.93706691E+02</rscale>
<asrwt>0</asrwt>
<pdfrwt beam="1">  1        1 0.26457366E-01 0.93706691E+02</pdfrwt>
<pdfrwt beam="2">  1       -1 0.19638482E-02 0.93706691E+02</pdfrwt>
<totfact> 0.10684412E+05</totfact>
</mgrwt>
</event>
<event>
 5    1  0.1227473E+001  0.9063979E+02  0.7546771E-02  0.1301310E+00
          4   -1    0    0  501    0  0.00000000000E+00  0.00000000000E+00  0.38033602930E+02  0.38033602930E+02  0.00000000000E+00 0. -1.
         -4   -1    0    0    0  501 -0.00000000000E+00 -0.00000000000E+00 -0.54002058017E+02  0.54002058017E+02  0.00000000000E+00 0.  1.
         23    2    1    2    0    0  0.00000000000E+00  0.00000000000E+00 -0.15968455087E+02  0.92035660947E+02  0.90639788879E+02 0.  0.
        -11    1    3    3    0    0 -0.17825187646E+02  0.18687298435E+02 -0.45799405526E+02  0.52578873932E+02  0.00000000000E+00 0.  1.
         11    1    3    3    0    0  0.17825187646E+02 -0.18687298435E+02  0.29830950439E+02  0.39456787014E+02  0.00000000000E+00 0. -1.
<mgrwt>
<rscale>  0 0.90639789E+02</rscale>
<asrwt>0</asrwt>
<pdfrwt beam="1">  1        4 0.58513235E-02 0.90639789E+02</pdfrwt>
<pdfrwt beam="2">  1       -4 0.83080089E-02 0.90639789E+02</pdfrwt>
<totfact> 0.27396389E+04</totfact>
</mgrwt>
</event>
<event>
 5    1  0.1227473E+001  0.9821867E+02  0.7546771E-02  0.1284087E+00
         -4   -1    0    0    0  501 -0.00000000000E+00  0.00000000000E+00  0.14847094115E+03  0.14847094115E+03  0.00000000000E+00 0.  1.
          4   -1    0    0  501    0  0.00000000000E+00 -0.00000000000E+00 -0.16243763905E+02  0.16243763905E+02  0.00000000000E+00 0. -1.
         23    2    1    2    0    0  0.00000000000E+00  0.00000000000E+00  0.13222717725E+03  0.16471470506E+03  0.98218672660E+02 0.  0.
        -11    1    3    3    0    0  0.18453202065E+02 -0.29355178112E+02  0.12443628793E+03  0.12917676611E+03  0.00000000000E+00 0.  1.
         11    1    3    3    0    0 -0.18453202065E+02  0.29355178112E+02  0.77908893205E+01  0.35537938951E+02  0.00000000000E+00 0. -1.
<mgrwt>
<rscale>  0 0.98218673E+02</rscale>
<asrwt>0</asrwt>
<pdfrwt beam="2">  1        4 0.24990407E-02 0.98218673E+02</pdfrwt>
<pdfrwt beam="1">  1       -4 0.22841682E-01 0.98218673E+02</pdfrwt>
<totfact> 0.18772471E+04</totfact>
</mgrwt>
</event>
<event>
 5    1  0.1227473E+001  0.8708626E+02  0.7546771E-02  0.1310065E+00
         -1   -1    0    0    0  501 -0.00000000000E+00  0.00000000000E+00  0.25585513492E+02  0.25585513492E+02  0.00000000000E+00 0.  1.
          1   -1    0    0  501    0  0.00000000000E+00 -0.00000000000E+00 -0.74104596219E+02  0.74104596219E+02  0.00000000000E+00 0. -1.
         23    2    1    2    0    0  0.00000000000E+00  0.00000000000E+00 -0.48519082727E+02  0.99690109711E+02  0.87086259453E+02 0.  0.
        -13    1    3    3    0    0 -0.28522292044E+02 -0.32278363650E+02 -0.31552659741E+02  0.53394608717E+02  0.00000000000E+00 0. -1.
         13    1    3    3    0    0  0.28522292044E+02  0.32278363650E+02 -0.16966422986E+02  0.46295500994E+02  0.00000000000E+00 0.  1.
<mgrwt>
<rscale>  0 0.87086259E+02</rscale>
<asrwt>0</asrwt>
<pdfrwt beam="2">  1        1 0.11400707E-01 0.87086259E+02</pdfrwt>
<pdfrwt beam="1">  1       -1 0.39362329E-02 0.87086259E+02</pdfrwt>
<totfact> 0.11288815E+05</totfact>
</mgrwt>
</event>
<event>
 5    1  0.1227473E+001  0.9157801E+02  0.7546771E-02  0.1299075E+00
          3   -1    0    0  501    0  0.00000000000E+00  0.00000000000E+00  0.83692513609E+02  0.83692513609E+02  0.00000000000E+00 0. -1.
         -3   -1    0    0    0  501 -0.00000000000E+00 -0.00000000000E+00 -0.25051617677E+02  0.25051617677E+02  0.00000000000E+00 0.  1.
         23    2    1    2    0    0  0.00000000000E+00  0.00000000000E+00  0.58640895933E+02  0.10874413129E+03  0.91578007258E+02 0.  0.
        -13    1    3    3    0    0 -0.74252375055E+01 -0.38491947485E+02  0.12235919602E+01  0.39220675038E+02  0.00000000000E+00 0.  1.
         13    1    3    3    0    0  0.74252375055E+01  0.38491947485E+02  0.57417303973E+02  0.69523456248E+02  0.00000000000E+00 0. -1.
<mgrwt>
<rscale>  0 0.91578007E+02</rscale>
<asrwt>0</asrwt>
<pdfrwt beam="1">  1        3 0.12875771E-01 0.91578007E+02</pdfrwt>
<pdfrwt beam="2">  1       -3 0.38540951E-02 0.91578007E+02</pdfrwt>
<totfact> 0.33629977E+04</totfact>
</mgrwt>
</event>
<event>
 5    1  0.1227473E+001  0.9023365E+02  0.7546771E-02  0.1302287E+00
         -2   -1    0    0    0  501 -0.00000000000E+00  0.00000000000E+00  0.16913444976E+02  0.16913444976E+02  0.00000000000E+00 0. -1.
          2   -1    0    0  501    0  0.00000000000E+00 -0.00000000000E+00 -0.12034970062E+03  0.12034970062E+03  0.00000000000E+00 0.  1.
         23    2    1    2    0    0  0.00000000000E+00  0.00000000000E+00 -0.10343625565E+03  0.13726314560E+03  0.90233653132E+02 0.  0.
        -13    1    3    3    0    0 -0.10262826312E+02  0.43311021220E+02 -0.40502679269E+02  0.60180039805E+02  0.00000000000E+00 0.  1.
         13    1    3    3    0    0  0.10262826312E+02 -0.43311021220E+02 -0.62933576377E+02  0.77083105792E+02  0.00000000000E+00 0. -1.
<mgrwt>
<rscale>  0 0.90233653E+02</rscale>
<asrwt>0</asrwt>
<pdfrwt beam="2">  1        2 0.18515339E-01 0.90233653E+02</pdfrwt>
<pdfrwt beam="1">  1       -2 0.26020684E-02 0.90233653E+02</pdfrwt>
<totfact> 0.13372809E+05</totfact>
</mgrwt>
</event>
<event>
 5    1  0.1227473E+001  0.9420134E+02  0.7546771E-02  0.1292985E+00
         -2   -1    0    0    0  501 -0.00000000000E+00  0.00000000000E+00  0.17763991413E+03  0.17763991413E+03  0.00000000000E+00 0.  1.
          2   -1    0    0  501    0  0.00000000000E+00 -0.00000000000E+00 -0.12488596928E+02  0.12488596928E+02  0.00000000000E+00 0. -1.
         23    2    1    2    0    0  0.00000000000E+00  0.00000000000E+00  0.16515131720E+03  0.19012851106E+03  0.94201343641E+02 0.  0.
        -13    1    3    3    0    0 -0.31704640708E+02 -0.21425454091E+02  0.27145690214E+02  0.46916125401E+02  0.00000000000E+00 0. -1.
         13    1    3    3    0    0  0.31704640708E+02  0.21425454091E+02  0.13800562699E+03  0.14321238566E+03  0.00000000000E+00 0.  1.
<mgrwt>
<rscale>  0 0.94201344E+02</rscale>
<asrwt>0</asrwt>
<pdfrwt beam="2">  1        2 0.19213227E-02 0.94201344E+02</pdfrwt>
<pdfrwt beam="1">  1       -2 0.27329216E-01 0.94201344E+02</pdfrwt>
<totfact> 0.60257227E+04</totfact>
</mgrwt>
</event>
<event>
 5    1  0.1227473E+001  0.8976299E+02  0.7546771E-02  0.1303427E+00
         -1   -1    0    0    0  501 -0.00000000000E+00  0.00000000000E+00  0.19905296174E+02  0.19905296174E+02  0.00000000000E+00 0.  1.
          1   -1    0    0  501    0  0.00000000000E+00 -0.00000000000E+00 -0.10119662415E+03  0.10119662415E+03  0.00000000000E+00 0. -1.
         23    2    1    2    0    0  0.00000000000E+00  0.00000000000E+00 -0.81291327974E+02  0.12110192032E+03  0.89762994055E+02 0.  0.
        -13    1    3    3    0    0  0.22864588792E+02  0.10467605207E+01  0.11439542919E+02  0.25588049367E+02  0.00000000000E+00 0.  1.
         13    1    3    3    0    0 -0.22864588792E+02 -0.10467605207E+01 -0.92730870893E+02  0.95513870954E+02  0.00000000000E+00 0. -1.
<mgrwt>
<rscale>  0 0.89762994E+02</rscale>
<asrwt>0</asrwt>
<pdfrwt beam="2">  1        1 0.15568711E-01 0.89762994E+02</pdfrwt>
<pdfrwt beam="1">  1       -1 0.30623533E-02 0.89762994E+02</pdfrwt>
<totfact> 0.10920418E+05</totfact>
</mgrwt>
</event>
<event>
 5    1  0.1227473E+001  0.9150293E+02  0.7546771E-02  0.1299252E+00
         -1   -1    0    0    0  501 -0.00000000000E+00  0.00000000000E+00  0.14130568079E+03  0.14130568079E+03  0.00000000000E+00 0.  1.
          1   -1    0    0  501    0  0.00000000000E+00 -0.00000000000E+00 -0.14813250942E+02  0.14813250942E+02  0.00000000000E+00 0. -1.
         23    2    1    2    0    0  0.00000000000E+00  0.00000000000E+00  0.12649242985E+03  0.15611893174E+03  0.91502929114E+02 0.  0.
        -11    1    3    3    0    0  0.24447939807E+02 -0.37868081591E+01 -0.24167976870E+01  0.24857244174E+02  0.00000000000E+00 0. -1.
         11    1    3    3    0    0 -0.24447939807E+02  0.37868081591E+01  0.12890922754E+03  0.13126168756E+03  0.00000000000E+00 0.  1.
<mgrwt>
<rscale>  0 0.91502929E+02</rscale>
<asrwt>0</asrwt>
<pdfrwt beam="2">  1        1 0.22789618E-02 0.91502929E+02</pdfrwt>
<pdfrwt beam="1">  1       -1 0.21739335E-01 0.91502929E+02</pdfrwt>
<totfact> 0.75122267E+04</totfact>
</mgrwt>
</event>
<event>
 5    1  0.1227473E+001  0.9039122E+02  0.7546771E-02  0.1301907E+00
          2   -1    0    0  501    0  0.00000000000E+00  0.00000000000E+00  0.22370899163E+03  0.22370899163E+03  0.00000000000E+00 0.  1.
         -2   -1    0    0    0  501 -0.00000000000E+00 -0.00000000000E+00 -0.91308050640E+01  0.91308050640E+01  0.00000000000E+00 0. -1.
         23    2    1    2    0    0  0.00000000000E+00  0.00000000000E+00  0.21457818657E+03  0.23283979669E+03  0.90391220672E+02 0.  0.
        -13    1    3    3    0    0 -0.44798321303E+02  0.59644476000E+01  0.10619936726E+03  0.11541563946E+03  0.00000000000E+00 0.  1.
         13    1    3    3    0    0  0.44798321303E+02 -0.59644476000E+01  0.10837881931E+03  0.11742415723E+03  0.00000000000E+00 0. -1.
<mgrwt>
<rscale>  0 0.90391221E+02</rscale>
<asrwt>0</asrwt>
<pdfrwt beam="1">  1        2 0.34416764E-01 0.90391221E+02</pdfrwt>
<pdfrwt beam="2">  1       -2 0.14047394E-02 0.90391221E+02</pdfrwt>
<totfact> 0.16490844E+05</totfact>
</mgrwt>
</event>
<event>
 5    1  0.1227473E+001  0.1048952E+03  0.7546771E-02  0.1270326E+00
          1   -1    0    0  501    0  0.00000000000E+00  0.00000000000E+00  0.13534530988E+02  0.13534530988E+02  0.00000000000E+00 0. -1.
         -1   -1    0    0    0  501 -0.00000000000E+00 -0.00000000000E+00 -0.20323961772E+03  0.20323961772E+03  0.00000000000E+00 0.  1.
         23    2    1    2    0    0  0.00000000000E+00  0.00000000000E+00 -0.18970508673E+03  0.21677414871E+03  0.10489524115E+03 0.  0.
        -13    1    3    3    0    0 -0.41934537832E+02 -0.19549435257E+02 -0.14589604717E+03  0.15305666422E+03  0.00000000000E+00 0.  1.
         13    1    3    3    0    0  0.41934537832E+02  0.19549435257E+02 -0.43809039557E+02  0.63717484484E+02  0.00000000000E+00 0. -1.
<mgrwt>
<rscale>  0 0.10489524E+03</rscale>
<asrwt>0</asrwt>
<pdfrwt beam="1">  1        1 0.20822355E-02 0.10489524E+03</pdfrwt>
<pdfrwt beam="2">  1       -1 0.31267635E-01 0.10489524E+03</pdfrwt>
<totfact> 0.47885462E+04</totfact>
</mgrwt>
</event>
<event>
 5    1  0.1227473E+001  0.9025029E+02  0.7546771E-02  0.1302247E+00
         -1   -1    0    0    0  501 -0.00000000000E+00  0.00000000000E+00  0.45159085703E+01  0.45159085703E+01  0.00000000000E+00 0.  1.
          1   -1    0    0  501    0  0.00000000000E+00 -0.00000000000E+00 -0.45091224979E+03  0.45091224979E+03  0.00000000000E+00 0. -1.
         23    2    1    2    0    0  0.00000000000E+00  0.00000000000E+00 -0.44639634122E+03  0.45542815836E+03  0.90250285170E+02 0.  0.
        -13    1    3    3    0    0 -0.32347093200E+02 -0.31428918232E+02 -0.23062692740E+03  0.23499551269E+03  0.00000000000E+00 0.  1.
         13    1    3    3    0    0  0.32347093200E+02  0.31428918232E+02 -0.21576941382E+03  0.22043264568E+03  0.00000000000E+00 0. -1.
<mgrwt>
<rscale>  0 0.90250285E+02</rscale>
<asrwt>0</asrwt>
<pdfrwt beam="2">  1        1 0.69371132E-01 0.90250285E+02</pdfrwt>
<pdfrwt beam="1">  1       -1 0.69475500E-03 0.90250285E+02</pdfrwt>
<totfact> 0.14116711E+05</totfact>
</mgrwt>
</event>
<event>
 5    1  0.1227473E+001  0.9258654E+02  0.7546771E-02  0.1296706E+00
          2   -1    0    0  501    0  0.00000000000E+00  0.00000000000E+00  0.20413243550E+03  0.20413243550E+03  0.00000000000E+00 0. -1.
         -2   -1    0    0    0  501 -0.00000000000E+00 -0.00000000000E+00 -0.10498413531E+02  0.10498413531E+02  0.00000000000E+00 0.  1.
         23    2    1    2    0    0  0.00000000000E+00  0.00000000000E+00  0.19363402197E+03  0.21463084903E+03  0.92586537313E+02 0.  0.
        -11    1    3    3    0    0  0.29682903261E+00  0.46284029053E+02  0.98847583085E+02  0.10914735056E+03  0.00000000000E+00 0. -1.
         11    1    3    3    0    0 -0.29682903261E+00 -0.46284029053E+02  0.94786438885E+02  0.10548349847E+03  0.00000000000E+00 0.  1.
<mgrwt>
<rscale>  0 0.92586537E+02</rscale>
<asrwt>0</asrwt>
<pdfrwt beam="1">  1        2 0.31404987E-01 0.92586537E+02</pdfrwt>
<pdfrwt beam="2">  1       -2 0.16151407E-02 0.92586537E+02</pdfrwt>
<totfact> 0.14951645E+05</totfact>
</mgrwt>
</event>
<event>
 5    1  0.1227473E+001  0.9189080E+02  0.7546771E-02  0.1298336E+00
         -2   -1    0    0    0  501 -0.00000000000E+00  0.00000000000E+00  0.73693843072E+01  0.73693843072E+01  0.00000000000E+00 0.  1.
          2   -1    0    0  501    0  0.00000000000E+00 -0.00000000000E+00 -0.28645267260E+03  0.28645267260E+03  0.00000000000E+00 0. -1.
         23    2    1    2    0    0  0.00000000000E+00  0.00000000000E+00 -0.27908328829E+03  0.29382205690E+03  0.91890801068E+02 0.  0.
        -11    1    3    3    0    0  0.17149091222E+02  0.40745369621E+02 -0.99514785784E+02  0.10889200643E+03  0.00000000000E+00 0.  1.
         11    1    3    3    0    0 -0.17149091222E+02 -0.40745369621E+02 -0.17956850251E+03  0.18493005047E+03  0.00000000000E+00 0. -1.
<mgrwt>
<rscale>  0 0.91890801E+02</rscale>
<asrwt>0</asrwt>
<pdfrwt beam="2">  1        2 0.44069634E-01 0.91890801E+02</pdfrwt>
<pdfrwt beam="1">  1       -2 0.11337516E-02 0.91890801E+02</pdfrwt>
<totfact> 0.17294758E+05</totfact>
</mgrwt>
</event>
<event>
 5    1  0.1227473E+001  0.9387351E+02  0.7546771E-02  0.1293734E+00
         -1   -1    0    0    0  501 -0.00000000000E+00  0.00000000000E+00  0.60852183008E+02  0.60852183008E+02  0.00000000000E+00 0.  1.
          1   -1    0    0  501    0  0.00000000000E+00 -0.00000000000E+00 -0.36203448954E+02  0.36203448954E+02  0.00000000000E+00 0. -1.
         23    2    1    2    0    0  0.00000000000E+00  0.00000000000E+00  0.24648734053E+02  0.97055631962E+02  0.93873508537E+02 0.  0.
        -13    1    3    3    0    0  0.24653685638E+02 -0.20987311365E+02 -0.22809723745E+02  0.39604986444E+02  0.00000000000E+00 0. -1.
         13    1    3    3    0    0 -0.24653685638E+02  0.20987311365E+02  0.47458457798E+02  0.57450645518E+02  0.00000000000E+00 0.  1.
<mgrwt>
<rscale>  0 0.93873509E+02</rscale>
<asrwt>0</asrwt>
<pdfrwt beam="2">  1        1 0.55697614E-02 0.93873509E+02</pdfrwt>
<pdfrwt beam="1">  1       -1 0.93618743E-02 0.93873509E+02</pdfrwt>
<totfact> 0.82172835E+04</totfact>
</mgrwt>
</event>
<event>
 5    1  0.1227473E+001  0.7936068E+02  0.7546771E-02  0.1330876E+00
          2   -1    0    0  501    0  0.00000000000E+00  0.00000000000E+00  0.24739614624E+02  0.24739614624E+02  0.00000000000E+00 0. -1.
         -2   -1    0    0    0  501 -0.00000000000E+00 -0.00000000000E+00 -0.63644059066E+02  0.63644059066E+02  0.00000000000E+00 0.  1.
         23    2    1    2    0    0  0.00000000000E+00  0.00000000000E+00 -0.38904444443E+02  0.88383673690E+02  0.79360682819E+02 0.  0.
        -13    1    3    3    0    0 -0.37503759749E+02 -0.95768754425E+01 -0.29179128167E+02  0.48473395375E+02  0.00000000000E+00 0.  1.
         13    1    3    3    0    0  0.37503759749E+02  0.95768754425E+01 -0.97253162758E+01  0.39910278315E+02  0.00000000000E+00 0. -1.
<mgrwt>
<rscale>  0 0.79360683E+02</rscale>
<asrwt>0</asrwt>
<pdfrwt beam="1">  1        2 0.38060946E-02 0.79360683E+02</pdfrwt>
<pdfrwt beam="2">  1       -2 0.97913937E-02 0.79360683E+02</pdfrwt>
<totfact> 0.12671316E+05</totfact>
</mgrwt>
</event>
<event>
 5    1  0.1227473E+001  0.8634751E+02  0.7546771E-02  0.1311946E+00
          1   -1    0    0  501    0  0.00000000000E+00  0.00000000000E+00  0.41555973168E+01  0.41555973168E+01  0.00000000000E+00 0. -1.
         -1   -1    0    0    0  501 -0.00000000000E+00 -0.00000000000E+00 -0.44854518096E+03  0.44854518096E+03  0.00000000000E+00 0.  1.
         23    2    1    2    0    0  0.00000000000E+00  0.00000000000E+00 -0.44438958365E+03  0.45270077828E+03  0.86347510687E+02 0.  0.
        -11    1    3    3    0    0 -0.42075166365E+02 -0.71118043899E+01 -0.25660425636E+03  0.26012812568E+03  0.00000000000E+00 0. -1.
         11    1    3    3    0    0  0.42075166365E+02  0.71118043899E+01 -0.18778532728E+03  0.19257265260E+03  0.00000000000E+00 0.  1.
<mgrwt>
<rscale>  0 0.86347511E+02</rscale>
<asrwt>0</asrwt>
<pdfrwt beam="1">  1        1 0.63932288E-03 0.86347511E+02</pdfrwt>
<pdfrwt beam="2">  1       -1 0.69006928E-01 0.86347511E+02</pdfrwt>
<totfact> 0.57810633E+04</totfact>
</mgrwt>
</event>
<event>
 5    1  0.1227473E+001  0.9147161E+02  0.7546771E-02  0.1299327E+00
         -2   -1    0    0    0  501 -0.00000000000E+00  0.00000000000E+00  0.22702153343E+02  0.22702153343E+02  0.00000000000E+00 0.  1.
          2   -1    0    0  501    0  0.00000000000E+00 -0.00000000000E+00 -0.92139457073E+02  0.92139457073E+02  0.00000000000E+00 0. -1.
         23    2    1    2    0    0  0.00000000000E+00  0.00000000000E+00 -0.69437303729E+02  0.11484161042E+03  0.91471614907E+02 0.  0.
        -11    1    3    3    0    0 -0.36139232974E+02  0.25616606661E+02 -0.49006392265E+02  0.66059678924E+02  0.00000000000E+00 0.  1.
         11    1    3    3    0    0  0.36139232974E+02 -0.25616606661E+02 -0.20430911464E+02  0.48781931492E+02  0.00000000000E+00 0. -1.
<mgrwt>
<rscale>  0 0.91471615E+02</rscale>
<asrwt>0</asrwt>
<pdfrwt beam="2">  1        2 0.14175301E-01 0.91471615E+02</pdfrwt>
<pdfrwt beam="1">  1       -2 0.34926389E-02 0.91471615E+02</pdfrwt>
<totfact> 0.11862603E+05</totfact>
</mgrwt>
</event>
<event>
 5    1  0.1227473E+001  0.9072876E+02  0.7546771E-02  0.1301096E+00
          3   -1    0    0  501    0  0.00000000000E+00  0.00000000000E+00  0.10478054146E+02  0.10478054146E+02  0.00000000000E+00 0. -1.
         -3   -1    0    0    0  501 -0.00000000000E+00 -0.00000000000E+00 -0.19640356344E+03  0.19640356344E+03  0.00000000000E+00 0.  1.
         23    2    1    2    0    0  0.00000000000E+00  0.00000000000E+00 -0.18592550930E+03  0.20688161759E+03  0.90728764397E+02 0.  0.
        -13    1    3    3    0    0  0.31899349348E+02 -0.18885451467E+02 -0.15258511851E+03  0.15702371527E+03  0.00000000000E+00 0.  1.
         13    1    3    3    0    0 -0.31899349348E+02  0.18885451467E+02 -0.33340390784E+02  0.49857902318E+02  0.00000000000E+00 0. -1.
<mgrwt>
<rscale>  0 0.90728764E+02</rscale>
<asrwt>0</asrwt>
<pdfrwt beam="1">  1        3 0.16120084E-02 0.90728764E+02</pdfrwt>
<pdfrwt beam="2">  1       -3 0.30215932E-01 0.90728764E+02</pdfrwt>
<totfact> 0.28521092E+04</totfact>
</mgrwt>
</event>
<event>
 5    1  0.1227473E+001  0.9134407E+02  0.7546771E-02  0.1299629E+00
         -2   -1    0    0    0  501 -0.00000000000E+00  0.00000000000E+00  0.12199371491E+02  0.12199371491E+02  0.00000000000E+00 0. -1.
          2   -1    0    0  501    0  0.00000000000E+00 -0.00000000000E+00 -0.17098705309E+03  0.17098705309E+03  0.00000000000E+00 0.  1.
         23    2    1    2    0    0  0.00000000000E+00  0.00000000000E+00 -0.15878768159E+03  0.18318642458E+03  0.91344065613E+02 0.  0.
        -11    1    3    3    0    0  0.23355606531E+02 -0.31735519530E+02 -0.12570670073E+03  0.13173762623E+03  0.00000000000E+00 0.  1.
         11    1    3    3    0    0 -0.23355606531E+02  0.31735519530E+02 -0.33080980864E+02  0.51448798346E+02  0.00000000000E+00 0. -1.
<mgrwt>
<rscale>  0 0.91344066E+02</rscale>
<asrwt>0</asrwt>
<pdfrwt beam="2">  1        2 0.26305700E-01 0.91344066E+02</pdfrwt>
<pdfrwt beam="1">  1       -2 0.18768264E-02 0.91344066E+02</pdfrwt>
<totfact> 0.14555093E+05</totfact>
</mgrwt>
</event>
<event>
 5    1  0.1227473E+001  0.7945519E+02  0.7546771E-02  0.1330605E+00
         -2   -1    0    0    0  501 -0.00000000000E+00  0.00000000000E+00  0.11983329536E+02  0.11983329536E+02  0.00000000000E+00 0.  1.
          2   -1    0    0  501    0  0.00000000000E+00 -0.00000000000E+00 -0.13170646613E+03  0.13170646613E+03  0.00000000000E+00 0. -1.
         23    2    1    2    0    0  0.00000000000E+00  0.00000000000E+00 -0.11972313659E+03  0.14368979566E+03  0.79455194561E+02 0.  0.
        -11    1    3    3    0    0  0.35456158407E+02  0.82980333255E+01 -0.88585887358E+02  0.95778160168E+02  0.00000000000E+00 0. -1.
         11    1    3    3    0    0 -0.35456158407E+02 -0.82980333255E+01 -0.31137249231E+02  0.47911635494E+02  0.00000000000E+00 0.  1.
<mgrwt>
<rscale>  0 0.79455195E+02</rscale>
<asrwt>0</asrwt>
<pdfrwt beam="2">  1        2 0.20262532E-01 0.79455195E+02</pdfrwt>
<pdfrwt beam="1">  1       -2 0.18435893E-02 0.79455195E+02</pdfrwt>
<totfact> 0.19406322E+05</totfact>
</mgrwt>
</event>
<event>
 5    1  0.1227473E+001  0.9441468E+02  0.7546771E-02  0.1292500E+00
         -1   -1    0    0    0  501 -0.00000000000E+00  0.00000000000E+00  0.24971115413E+02  0.24971115413E+02  0.00000000000E+00 0.  1.
          1   -1    0    0  501    0  0.00000000000E+00 -0.00000000000E+00 -0.89244427078E+02  0.89244427078E+02  0.00000000000E+00 0. -1.
         23    2    1    2    0    0  0.00000000000E+00  0.00000000000E+00 -0.64273311665E+02  0.11421554249E+03  0.94414678701E+02 0.  0.
        -11    1    3    3    0    0  0.21150640417E+02 -0.40113234297E+02 -0.48007167393E+02  0.66038695300E+02  0.00000000000E+00 0. -1.
         11    1    3    3    0    0 -0.21150640417E+02  0.40113234297E+02 -0.16266144272E+02  0.48176847192E+02  0.00000000000E+00 0.  1.
<mgrwt>
<rscale>  0 0.94414679E+02</rscale>
<asrwt>0</asrwt>
<pdfrwt beam="2">  1        1 0.13729912E-01 0.94414679E+02</pdfrwt>
<pdfrwt beam="1">  1       -1 0.38417100E-02 0.94414679E+02</pdfrwt>
<totfact> 0.93158775E+04</totfact>
</mgrwt>
</event>
<event>
 5    1  0.1227473E+001  0.9048340E+02  0.7546771E-02  0.1301685E+00
         -1   -1    0    0    0  501 -0.00000000000E+00  0.00000000000E+00  0.16215529999E+03  0.16215529999E+03  0.00000000000E+00 0.  1.
          1   -1    0    0  501    0  0.00000000000E+00 -0.00000000000E+00 -0.12622538543E+02  0.12622538543E+02  0.00000000000E+00 0. -1.
         23    2    1    2    0    0  0.00000000000E+00  0.00000000000E+00  0.14953276145E+03  0.17477783854E+03  0.90483402326E+02 0.  0.
        -13    1    3    3    0    0  0.39254227005E+02 -0.54886569565E+01  0.11689972504E+03  0.12343648330E+03  0.00000000000E+00 0.  1.
         13    1    3    3    0    0 -0.39254227005E+02  0.54886569565E+01  0.32633036407E+02  0.51341355241E+02  0.00000000000E+00 0. -1.
<mgrwt>
<rscale>  0 0.90483402E+02</rscale>
<asrwt>0</asrwt>
<pdfrwt beam="2">  1        1 0.19419291E-02 0.90483402E+02</pdfrwt>
<pdfrwt beam="1">  1       -1 0.24946968E-01 0.90483402E+02</pdfrwt>
<totfact> 0.74871259E+04</totfact>
</mgrwt>
</event>
<event>
 5    1  0.1227473E+001  0.9408885E+02  0.7546771E-02  0.1293242E+00
         -1   -1    0    0    0  501 -0.00000000000E+00  0.00000000000E+00  0.65145549936E+02  0.65145549936E+02  0.00000000000E+00 0.  1.
          1   -1    0    0  501    0  0.00000000000E+00 -0.00000000000E+00 -0.33972815356E+02  0.33972815356E+02  0.00000000000E+00 0. -1.
         23    2    1    2    0    0  0.00000000000E+00  0.00000000000E+00  0.31172734580E+02  0.99118365291E+02  0.94088846081E+02 0.  0.
        -11    1    3    3    0    0 -0.11875663180E+02 -0.42543938380E+02  0.32643221194E+02  0.54923564695E+02  0.00000000000E+00 0.  1.
         11    1    3    3    0    0  0.11875663180E+02  0.42543938380E+02 -0.14704866140E+01  0.44194800596E+02  0.00000000000E+00 0. -1.
<mgrwt>
<rscale>  0 0.94088846E+02</rscale>
<asrwt>0</asrwt>
<pdfrwt beam="2">  1        1 0.52265870E-02 0.94088846E+02</pdfrwt>
<pdfrwt beam="1">  1       -1 0.10022392E-01 0.94088846E+02</pdfrwt>
<totfact> 0.80807683E+04</totfact>
</mgrwt>
</event>
<event>
 5    1  0.1227473E+001  0.9266939E+02  0.7546771E-02  0.1296513E+00
         -3   -1    0    0    0  501 -0.00000000000E+00  0.00000000000E+00  0.40523071518E+02  0.40523071518E+02  0.00000000000E+00 0.  1.
          3   -1    0    0  501    0  0.00000000000E+00 -0.00000000000E+00 -0.52979791985E+02  0.52979791985E+02  0.00000000000E+00 0. -1.
         23    2    1    2    0    0  0.00000000000E+00  0.00000000000E+00 -0.12456720467E+02  0.93502863502E+02  0.92669388680E+02 0.  0.
        -13    1    3    3    0    0 -0.37310640006E+02  0.12984655326E+02 -0.30658079278E+02  0.50006029202E+02  0.00000000000E+00 0. -1.
         13    1    3    3    0    0  0.37310640006E+02 -0.12984655326E+02  0.18201358811E+02  0.43496834300E+02  0.00000000000E+00 0.  1.
<mgrwt>
<rscale>  0 0.92669389E+02</rscale>
<asrwt>0</asrwt>
<pdfrwt beam="2">  1        3 0.81507372E-02 0.92669389E+02</pdfrwt>
<pdfrwt beam="1">  1       -3 0.62343187E-02 0.92669389E+02</pdfrwt>
<totfact> 0.33635725E+04</totfact>
</mgrwt>
</event>
<event>
 5    1  0.1227473E+001  0.9055421E+02  0.7546771E-02  0.1301515E+00
         -2   -1    0    0    0  501 -0.00000000000E+00  0.00000000000E+00  0.12889525400E+02  0.12889525400E+02  0.00000000000E+00 0.  1.
          2   -1    0    0  501    0  0.00000000000E+00 -0.00000000000E+00 -0.15904513851E+03  0.15904513851E+03  0.00000000000E+00 0. -1.
         23    2    1    2    0    0  0.00000000000E+00  0.00000000000E+00 -0.14615561311E+03  0.17193466391E+03  0.90554212547E+02 0.  0.
        -11    1    3    3    0    0  0.13842556709E+02 -0.27361898139E+02 -0.13632813215E+03  0.13973421006E+03  0.00000000000E+00 0. -1.
         11    1    3    3    0    0 -0.13842556709E+02  0.27361898139E+02 -0.98274809611E+01  0.32200453849E+02  0.00000000000E+00 0.  1.
<mgrwt>
<rscale>  0 0.90554213E+02</rscale>
<asrwt>0</asrwt>
<pdfrwt beam="2">  1        2 0.24468483E-01 0.90554213E+02</pdfrwt>
<pdfrwt beam="1">  1       -2 0.19830039E-02 0.90554213E+02</pdfrwt>
<totfact> 0.14531184E+05</totfact>
</mgrwt>
</event>
<event>
 5    1  0.1227473E+001  0.9160076E+02  0.7546771E-02  0.1299021E+00
          1   -1    0    0  501    0  0.00000000000E+00  0.00000000000E+00  0.91578024167E+02  0.91578024167E+02  0.00000000000E+00 0. -1.
         -1   -1    0    0    0  501 -0.00000000000E+00 -0.00000000000E+00 -0.22905877438E+02  0.22905877438E+02  0.00000000000E+00 0.  1.
         23    2    1    2    0    0  0.00000000000E+00  0.00000000000E+00  0.68672146728E+02  0.11448390160E+03  0.91600764136E+02 0.  0.
        -13    1    3    3    0    0  0.27246166946E+02 -0.33942221535E+02  0.16518138069E+02  0.46554021322E+02  0.00000000000E+00 0.  1.
         13    1    3    3    0    0 -0.27246166946E+02  0.33942221535E+02  0.52154008659E+02  0.67929880283E+02  0.00000000000E+00 0. -1.
<mgrwt>
<rscale>  0 0.91600764E+02</rscale>
<asrwt>0</asrwt>
<pdfrwt beam="1">  1        1 0.14088927E-01 0.91600764E+02</pdfrwt>
<pdfrwt beam="2">  1       -1 0.35239812E-02 0.91600764E+02</pdfrwt>
<totfact> 0.10165212E+05</totfact>
</mgrwt>
</event>
<event>
 5    1  0.1227473E+001  0.9205455E+02  0.7546771E-02  0.1297951E+00
          1   -1    0    0  501    0  0.00000000000E+00  0.00000000000E+00  0.64410839188E+02  0.64410839188E+02  0.00000000000E+00 0. -1.
         -1   -1    0    0    0  501 -0.00000000000E+00 -0.00000000000E+00 -0.32890580568E+02  0.32890580568E+02  0.00000000000E+00 0.  1.
         23    2    1    2    0    0  0.00000000000E+00  0.00000000000E+00  0.31520258621E+02  0.97301419756E+02  0.92054546781E+02 0.  0.
        -11    1    3    3    0    0 -0.27534342824E+02  0.93003744592E+01 -0.21965542447E+02  0.36429686450E+02  0.00000000000E+00 0.  1.
         11    1    3    3    0    0  0.27534342824E+02 -0.93003744592E+01  0.53485801068E+02  0.60871733306E+02  0.00000000000E+00 0. -1.
<mgrwt>
<rscale>  0 0.92054547E+02</rscale>
<asrwt>0</asrwt>
<pdfrwt beam="1">  1        1 0.99093598E-02 0.92054547E+02</pdfrwt>
<pdfrwt beam="2">  1       -1 0.50600893E-02 0.92054547E+02</pdfrwt>
<totfact> 0.94863387E+04</totfact>
</mgrwt>
</event>
<event>
 5    1  0.1227473E+001  0.9334195E+02  0.7546771E-02  0.1294955E+00
          2   -1    0    0  501    0  0.00000000000E+00  0.00000000000E+00  0.48438166725E+02  0.48438166725E+02  0.00000000000E+00 0. -1.
         -2   -1    0    0    0  501 -0.00000000000E+00 -0.00000000000E+00 -0.44968260503E+02  0.44968260503E+02  0.00000000000E+00 0.  1.
         23    2    1    2    0    0  0.00000000000E+00  0.00000000000E+00  0.34699062225E+01  0.93406427228E+02  0.93341954117E+02 0.  0.
        -13    1    3    3    0    0  0.40535845230E+02  0.89996551964E+01  0.23057687246E+02  0.47495320646E+02  0.00000000000E+00 0.  1.
         13    1    3    3    0    0 -0.40535845230E+02 -0.89996551964E+01 -0.19587781023E+02  0.45911106582E+02  0.00000000000E+00 0. -1.
<mgrwt>
<rscale>  0 0.93341954E+02</rscale>
<asrwt>0</asrwt>
<pdfrwt beam="1">  1        2 0.74520257E-02 0.93341954E+02</pdfrwt>
<pdfrwt beam="2">  1       -2 0.69181939E-02 0.93341954E+02</pdfrwt>
<totfact> 0.93719108E+04</totfact>
</mgrwt>
</event>
<event>
 5    1  0.1227473E+001  0.9053905E+02  0.7546771E-02  0.1301552E+00
         -2   -1    0    0    0  501 -0.00000000000E+00  0.00000000000E+00  0.18438441401E+03  0.18438441401E+03  0.00000000000E+00 0.  1.
          2   -1    0    0  501    0  0.00000000000E+00 -0.00000000000E+00 -0.11114441500E+02  0.11114441500E+02  0.00000000000E+00 0. -1.
         23    2    1    2    0    0  0.00000000000E+00  0.00000000000E+00  0.17326997251E+03  0.19549885551E+03  0.90539047555E+02 0.  0.
        -13    1    3    3    0    0 -0.40660916674E+01 -0.44893546424E+02  0.77636689027E+02  0.89774267444E+02  0.00000000000E+00 0. -1.
         13    1    3    3    0    0  0.40660916674E+01  0.44893546424E+02  0.95633283485E+02  0.10572458807E+03  0.00000000000E+00 0.  1.
<mgrwt>
<rscale>  0 0.90539048E+02</rscale>
<asrwt>0</asrwt>
<pdfrwt beam="2">  1        2 0.17099142E-02 0.90539048E+02</pdfrwt>
<pdfrwt beam="1">  1       -2 0.28366831E-01 0.90539048E+02</pdfrwt>
<totfact> 0.65659059E+04</totfact>
</mgrwt>
</event>
<event>
 4    1  0.1227473E+001  0.4182260E+02  0.7546771E-02  0.1495212E+00
          2   -1    0    0  501    0  0.00000000000E+00  0.00000000000E+00  0.13697734832E+02  0.13697734832E+02  0.00000000000E+00 0.  1.
         -2   -1    0    0    0  501 -0.00000000000E+00 -0.00000000000E+00 -0.31923711275E+02  0.31923711275E+02  0.00000000000E+00 0. -1.
        -11    1    1    2    0    0 -0.43743171093E+01 -0.18705583527E+02 -0.10129875149E+00  0.19210511880E+02  0.00000000000E+00 0.  1.
         11    1    1    2    0    0  0.43743171093E+01  0.18705583527E+02 -0.18124677692E+02  0.26410934226E+02  0.00000000000E+00 0. -1.
<mgrwt>
<rscale>  0 0.41822603E+02</rscale>
<asrwt>0</asrwt>
<pdfrwt beam="1">  1        2 0.21073438E-02 0.41822603E+02</pdfrwt>
<pdfrwt beam="2">  1       -2 0.49113401E-02 0.41822603E+02</pdfrwt>
<totfact> 0.66791570E+05</totfact>
</mgrwt>
</event>
<event>
 5    1  0.1227473E+001  0.9035346E+02  0.7546771E-02  0.1301998E+00
         -1   -1    0    0    0  501 -0.00000000000E+00  0.00000000000E+00  0.19555557608E+02  0.19555557608E+02  0.00000000000E+00 0.  1.
          1   -1    0    0  501    0  0.00000000000E+00 -0.00000000000E+00 -0.10436607517E+03  0.10436607517E+03  0.00000000000E+00 0. -1.
         23    2    1    2    0    0  0.00000000000E+00  0.00000000000E+00 -0.84810517559E+02  0.12392163278E+03  0.90353456941E+02 0.  0.
        -13    1    3    3    0    0 -0.19292309276E+02  0.72387367991E+01 -0.97545579770E+02  0.99698207809E+02  0.00000000000E+00 0. -1.
         13    1    3    3    0    0  0.19292309276E+02 -0.72387367991E+01  0.12735062211E+02  0.24223424967E+02  0.00000000000E+00 0.  1.
<mgrwt>
<rscale>  0 0.90353457E+02</rscale>
<asrwt>0</asrwt>
<pdfrwt beam="2">  1        1 0.16056319E-01 0.90353457E+02</pdfrwt>
<pdfrwt beam="1">  1       -1 0.30085474E-02 0.90353457E+02</pdfrwt>
<totfact> 0.10782799E+05</totfact>
</mgrwt>
</event>
<event>
 5    1  0.1227473E+001  0.9011791E+02  0.7546771E-02  0.1302566E+00
          4   -1    0    0  501    0  0.00000000000E+00  0.00000000000E+00  0.11892921125E+03  0.11892921125E+03  0.00000000000E+00 0. -1.
         -4   -1    0    0    0  501 -0.00000000000E+00 -0.00000000000E+00 -0.17071577453E+02  0.17071577453E+02  0.00000000000E+00 0.  1.
         23    2    1    2    0    0  0.00000000000E+00  0.00000000000E+00  0.10185763380E+03  0.13600078870E+03  0.90117905909E+02 0.  0.
        -11    1    3    3    0    0  0.13398851652E+02 -0.21117252075E+02 -0.56356928721E+01  0.25636470017E+02  0.00000000000E+00 0.  1.
         11    1    3    3    0    0 -0.13398851652E+02  0.21117252075E+02  0.10749332667E+03  0.11036431869E+03  0.00000000000E+00 0. -1.
<mgrwt>
<rscale>  0 0.90117906E+02</rscale>
<asrwt>0</asrwt>
<pdfrwt beam="1">  1        4 0.18296801E-01 0.90117906E+02</pdfrwt>
<pdfrwt beam="2">  1       -4 0.26263966E-02 0.90117906E+02</pdfrwt>
<totfact> 0.25174220E+04</totfact>
</mgrwt>
</event>
<event>
 5    1  0.1227473E+001  0.9335377E+02  0.7546771E-02  0.1294927E+00
         -3   -1    0    0    0  501 -0.00000000000E+00  0.00000000000E+00  0.27813933322E+02  0.27813933322E+02  0.00000000000E+00 0.  1.
          3   -1    0    0  501    0  0.00000000000E+00 -0.00000000000E+00 -0.78332374401E+02  0.78332374401E+02  0.00000000000E+00 0. -1.
         23    2    1    2    0    0  0.00000000000E+00  0.00000000000E+00 -0.50518441080E+02  0.10614630772E+03  0.93353766684E+02 0.  0.
        -11    1    3    3    0    0  0.26112774061E+01 -0.14919194051E+02 -0.75460613150E+02  0.76965610878E+02  0.00000000000E+00 0. -1.
         11    1    3    3    0    0 -0.26112774061E+01  0.14919194051E+02  0.24942172070E+02  0.29180696846E+02  0.00000000000E+00 0.  1.
<mgrwt>
<rscale>  0 0.93353767E+02</rscale>
<asrwt>0</asrwt>
<pdfrwt beam="2">  1        3 0.12051135E-01 0.93353767E+02</pdfrwt>
<pdfrwt beam="1">  1       -3 0.42790667E-02 0.93353767E+02</pdfrwt>
<totfact> 0.32088137E+04</totfact>
</mgrwt>
</event>
<event>
 5    1  0.1227473E+001  0.9094164E+02  0.7546771E-02  0.1300587E+00
         -2   -1    0    0    0  501 -0.00000000000E+00  0.00000000000E+00  0.37392966491E+02  0.37392966491E+02  0.00000000000E+00 0.  1.
          2   -1    0    0  501    0  0.00000000000E+00 -0.00000000000E+00 -0.55293696400E+02  0.55293696400E+02  0.00000000000E+00 0. -1.
         23    2    1    2    0    0  0.00000000000E+00  0.00000000000E+00 -0.17900729909E+02  0.92686662892E+02  0.90941637036E+02 0.  0.
        -11    1    3    3    0    0  0.31488741740E+01  0.13706977904E+02  0.35120533397E+02  0.37831845288E+02  0.00000000000E+00 0.  1.
         11    1    3    3    0    0 -0.31488741740E+01 -0.13706977904E+02 -0.53021263306E+02  0.54854817604E+02  0.00000000000E+00 0. -1.
<mgrwt>
<rscale>  0 0.90941637E+02</rscale>
<asrwt>0</asrwt>
<pdfrwt beam="2">  1        2 0.85067225E-02 0.90941637E+02</pdfrwt>
<pdfrwt beam="1">  1       -2 0.57527641E-02 0.90941637E+02</pdfrwt>
<totfact> 0.10454914E+05</totfact>
</mgrwt>
</event>
<event>
 5    1  0.1227473E+001  0.9194036E+02  0.7546771E-02  0.1298220E+00
         -2   -1    0    0    0  501 -0.00000000000E+00  0.00000000000E+00  0.13169511305E+02  0.13169511305E+02  0.00000000000E+00 0.  1.
          2   -1    0    0  501    0  0.00000000000E+00 -0.00000000000E+00 -0.16046591319E+03  0.16046591319E+03  0.00000000000E+00 0. -1.
         23    2    1    2    0    0  0.00000000000E+00  0.00000000000E+00 -0.14729640188E+03  0.17363542449E+03  0.91940364536E+02 0.  0.
        -11    1    3    3    0    0  0.43641405063E+02  0.10571483154E+02 -0.92241623929E+02  0.10259067052E+03  0.00000000000E+00 0. -1.
         11    1    3    3    0    0 -0.43641405063E+02 -0.10571483154E+02 -0.55054777953E+02  0.71044753975E+02  0.00000000000E+00 0.  1.
<mgrwt>
<rscale>  0 0.91940365E+02</rscale>
<asrwt>0</asrwt>
<pdfrwt beam="2">  1        2 0.24687063E-01 0.91940365E+02</pdfrwt>
<pdfrwt beam="1">  1       -2 0.20260787E-02 0.91940365E+02</pdfrwt>
<totfact> 0.13988002E+05</totfact>
</mgrwt>
</event>
<event>
 5    1  0.1227473E+001  0.8986463E+02  0.7546771E-02  0.1303180E+00
          2   -1    0    0  501    0  0.00000000000E+00  0.00000000000E+00  0.11919212885E+03  0.11919212885E+03  0.00000000000E+00 0. -1.
         -2   -1    0    0    0  501 -0.00000000000E+00 -0.00000000000E+00 -0.16938307957E+02  0.16938307957E+02  0.00000000000E+00 0.  1.
         23    2    1    2    0    0  0.00000000000E+00  0.00000000000E+00  0.10225382089E+03  0.13613043680E+03  0.89864631183E+02 0.  0.
        -13    1    3    3    0    0  0.40546472322E+02 -0.18988997823E+02  0.56858234476E+02  0.72370279009E+02  0.00000000000E+00 0.  1.
         13    1    3    3    0    0 -0.40546472322E+02  0.18988997823E+02  0.45395586414E+02  0.63760157794E+02  0.00000000000E+00 0. -1.
<mgrwt>
<rscale>  0 0.89864631E+02</rscale>
<asrwt>0</asrwt>
<pdfrwt beam="1">  1        2 0.18337250E-01 0.89864631E+02</pdfrwt>
<pdfrwt beam="2">  1       -2 0.26058936E-02 0.89864631E+02</pdfrwt>
<totfact> 0.13481481E+05</totfact>
</mgrwt>
</event>
<event>
 5    1  0.1227473E+001  0.9212221E+02  0.7546771E-02  0.1297792E+00
          1   -1    0    0  501    0  0.00000000000E+00  0.00000000000E+00  0.10745251518E+03  0.10745251518E+03  0.00000000000E+00 0. -1.
         -1   -1    0    0    0  501 -0.00000000000E+00 -0.00000000000E+00 -0.19744773710E+02  0.19744773710E+02  0.00000000000E+00 0.  1.
         23    2    1    2    0    0  0.00000000000E+00  0.00000000000E+00  0.87707741466E+02  0.12719728889E+03  0.92122214405E+02 0.  0.
        -11    1    3    3    0    0  0.16773672964E+02 -0.40863706888E+02  0.61879175798E+02  0.76027830712E+02  0.00000000000E+00 0. -1.
         11    1    3    3    0    0 -0.16773672964E+02  0.40863706888E+02  0.25828565668E+02  0.51169458174E+02  0.00000000000E+00 0.  1.
<mgrwt>
<rscale>  0 0.92122214E+02</rscale>
<asrwt>0</asrwt>
<pdfrwt beam="1">  1        1 0.16531156E-01 0.92122214E+02</pdfrwt>
<pdfrwt beam="2">  1       -1 0.30376575E-02 0.92122214E+02</pdfrwt>
<totfact> 0.10278853E+05</totfact>
</mgrwt>
</event>
<event>
 5    1  0.1227473E+001  0.9294965E+02  0.7546771E-02  0.1295862E+00
         -2   -1    0    0    0  501 -0.00000000000E+00  0.00000000000E+00  0.48544464820E+02  0.48544464820E+02  0.00000000000E+00 0.  1.
          2   -1    0    0  501    0  0.00000000000E+00 -0.00000000000E+00 -0.44493422388E+02  0.44493422388E+02  0.00000000000E+00 0. -1.
         23    2    1    2    0    0  0.00000000000E+00  0.00000000000E+00  0.40510424322E+01  0.93037887207E+02  0.92949650409E+02 0.  0.
        -13    1    3    3    0    0 -0.30968154319E+02 -0.32518643659E+02  0.14012724272E+02  0.47040888692E+02  0.00000000000E+00 0.  1.
         13    1    3    3    0    0  0.30968154319E+02  0.32518643659E+02 -0.99616818397E+01  0.45996998516E+02  0.00000000000E+00 0. -1.
<mgrwt>
<rscale>  0 0.92949650E+02</rscale>
<asrwt>0</asrwt>
<pdfrwt beam="2">  1        2 0.68451418E-02 0.92949650E+02</pdfrwt>
<pdfrwt beam="1">  1       -2 0.74683793E-02 0.92949650E+02</pdfrwt>
<totfact> 0.92758901E+04</totfact>
</mgrwt>
</event>
<event>
 5    1  0.1227473E+001  0.9171639E+02  0.7546771E-02  0.1298748E+00
          1   -1    0    0  501    0  0.00000000000E+00  0.00000000000E+00  0.18629994119E+03  0.18629994119E+03  0.00000000000E+00 0. -1.
         -1   -1    0    0    0  501 -0.00000000000E+00 -0.00000000000E+00 -0.11288109736E+02  0.11288109736E+02  0.00000000000E+00 0.  1.
         23    2    1    2    0    0  0.00000000000E+00  0.00000000000E+00  0.17501183146E+03  0.19758805093E+03  0.91716392865E+02 0.  0.
        -11    1    3    3    0    0 -0.39670527644E+02  0.17046480560E+02  0.54225697465E+02  0.69316372731E+02  0.00000000000E+00 0.  1.
         11    1    3    3    0    0  0.39670527644E+02 -0.17046480560E+02  0.12078613399E+03  0.12827167820E+03  0.00000000000E+00 0. -1.
<mgrwt>
<rscale>  0 0.91716393E+02</rscale>
<asrwt>0</asrwt>
<pdfrwt beam="1">  1        1 0.28661527E-01 0.91716393E+02</pdfrwt>
<pdfrwt beam="2">  1       -1 0.17366324E-02 0.91716393E+02</pdfrwt>
<totfact> 0.11495617E+05</totfact>
</mgrwt>
</event>
<event>
 5    1  0.1227473E+001  0.9088631E+02  0.7546771E-02  0.1300719E+00
          1   -1    0    0  501    0  0.00000000000E+00  0.00000000000E+00  0.13805303397E+03  0.13805303397E+03  0.00000000000E+00 0. -1.
         -1   -1    0    0    0  501 -0.00000000000E+00 -0.00000000000E+00 -0.14958601678E+02  0.14958601678E+02  0.00000000000E+00 0.  1.
         23    2    1    2    0    0  0.00000000000E+00  0.00000000000E+00  0.12309443229E+03  0.15301163565E+03  0.90886310203E+02 0.  0.
        -13    1    3    3    0    0 -0.20467228435E+00 -0.37817860948E+02  0.19128178526E+02  0.42380652557E+02  0.00000000000E+00 0.  1.
         13    1    3    3    0    0  0.20467228435E+00  0.37817860948E+02  0.10396625377E+03  0.11063098309E+03  0.00000000000E+00 0. -1.
<mgrwt>
<rscale>  0 0.90886310E+02</rscale>
<asrwt>0</asrwt>
<pdfrwt beam="1">  1        1 0.21238927E-01 0.90886310E+02</pdfrwt>
<pdfrwt beam="2">  1       -1 0.23013234E-02 0.90886310E+02</pdfrwt>
<totfact> 0.11140682E+05</totfact>
</mgrwt>
</event>
<event>
 5    1  0.1227473E+001  0.8161161E+02  0.7546771E-02  0.1324539E+00
          2   -1    0    0  501    0  0.00000000000E+00  0.00000000000E+00  0.41257985193E+02  0.41257985193E+02  0.00000000000E+00 0. -1.
         -2   -1    0    0    0  501 -0.00000000000E+00 -0.00000000000E+00 -0.40358583140E+02  0.40358583140E+02  0.00000000000E+00 0.  1.
         23    2    1    2    0    0  0.00000000000E+00  0.00000000000E+00  0.89940205304E+00  0.81616568333E+02  0.81611612546E+02 0.  0.
        -13    1    3    3    0    0 -0.22982328686E+02 -0.23808738692E+02  0.24327297048E+02  0.41071411609E+02  0.00000000000E+00 0. -1.
         13    1    3    3    0    0  0.22982328686E+02  0.23808738692E+02 -0.23427894995E+02  0.40545156724E+02  0.00000000000E+00 0.  1.
<mgrwt>
<rscale>  0 0.81611613E+02</rscale>
<asrwt>0</asrwt>
<pdfrwt beam="1">  1        2 0.63473823E-02 0.81611613E+02</pdfrwt>
<pdfrwt beam="2">  1       -2 0.62090128E-02 0.81611613E+02</pdfrwt>
<totfact> 0.13194756E+05</totfact>
</mgrwt>
</event>
<event>
 5    1  0.1227473E+001  0.9118498E+02  0.7546771E-02  0.1300007E+00
         -1   -1    0    0    0  501 -0.00000000000E+00  0.00000000000E+00  0.12015880984E+03  0.12015880984E+03  0.00000000000E+00 0.  1.
          1   -1    0    0  501    0  0.00000000000E+00 -0.00000000000E+00 -0.17299398143E+02  0.17299398143E+02  0.00000000000E+00 0. -1.
         23    2    1    2    0    0  0.00000000000E+00  0.00000000000E+00  0.10285941170E+03  0.13745820799E+03  0.91184978847E+02 0.  0.
        -11    1    3    3    0    0 -0.33092604595E+02 -0.28014430720E+02  0.30177848837E+02  0.52826426794E+02  0.00000000000E+00 0. -1.
         11    1    3    3    0    0  0.33092604595E+02  0.28014430720E+02  0.72681562865E+02  0.84631781193E+02  0.00000000000E+00 0.  1.
<mgrwt>
<rscale>  0 0.91184979E+02</rscale>
<asrwt>0</asrwt>
<pdfrwt beam="2">  1        1 0.26614459E-02 0.91184979E+02</pdfrwt>
<pdfrwt beam="1">  1       -1 0.18485970E-01 0.91184979E+02</pdfrwt>
<totfact> 0.78491322E+04</totfact>
</mgrwt>
</event>
<event>
 5    1  0.1227473E+001  0.9192185E+02  0.7546771E-02  0.1298263E+00
          3   -1    0    0  501    0  0.00000000000E+00  0.00000000000E+00  0.44243957628E+01  0.44243957628E+01  0.00000000000E+00 0. -1.
         -3   -1    0    0    0  501 -0.00000000000E+00 -0.00000000000E+00 -0.47744521507E+03  0.47744521507E+03  0.00000000000E+00 0.  1.
         23    2    1    2    0    0  0.00000000000E+00  0.00000000000E+00 -0.47302081930E+03  0.48186961083E+03  0.91921849122E+02 0.  0.
        -11    1    3    3    0    0 -0.35606694691E+02  0.28929744487E+02 -0.22202099820E+03  0.22671146964E+03  0.00000000000E+00 0. -1.
         11    1    3    3    0    0  0.35606694691E+02 -0.28929744487E+02 -0.25099982110E+03  0.25515814119E+03  0.00000000000E+00 0.  1.
<mgrwt>
<rscale>  0 0.91921849E+02</rscale>
<asrwt>0</asrwt>
<pdfrwt beam="1">  1        3 0.68067638E-03 0.91921849E+02</pdfrwt>
<pdfrwt beam="2">  1       -3 0.73453098E-01 0.91921849E+02</pdfrwt>
<totfact> 0.17944720E+04</totfact>
</mgrwt>
</event>
<event>
 5    1  0.1227473E+001  0.9046319E+02  0.7546771E-02  0.1301734E+00
         -2   -1    0    0    0  501 -0.00000000000E+00  0.00000000000E+00  0.51187717950E+02  0.51187717950E+02  0.00000000000E+00 0. -1.
          2   -1    0    0  501    0  0.00000000000E+00 -0.00000000000E+00 -0.39968515552E+02  0.39968515552E+02  0.00000000000E+00 0.  1.
         23    2    1    2    0    0  0.00000000000E+00  0.00000000000E+00  0.11219202398E+02  0.91156233502E+02  0.90463188114E+02 0.  0.
        -13    1    3    3    0    0  0.36162006441E+01  0.23928528038E+02 -0.32896314616E+02  0.40838938239E+02  0.00000000000E+00 0.  1.
         13    1    3    3    0    0 -0.36162006441E+01 -0.23928528038E+02  0.44115517014E+02  0.50317295263E+02  0.00000000000E+00 0. -1.
<mgrwt>
<rscale>  0 0.90463188E+02</rscale>
<asrwt>0</asrwt>
<pdfrwt beam="2">  1        2 0.61490024E-02 0.90463188E+02</pdfrwt>
<pdfrwt beam="1">  1       -2 0.78750336E-02 0.90463188E+02</pdfrwt>
<totfact> 0.97561584E+04</totfact>
</mgrwt>
</event>
<event>
 5    1  0.1227473E+001  0.9329396E+02  0.7546771E-02  0.1295065E+00
          2   -1    0    0  501    0  0.00000000000E+00  0.00000000000E+00  0.16898849103E+03  0.16898849103E+03  0.00000000000E+00 0. -1.
         -2   -1    0    0    0  501 -0.00000000000E+00 -0.00000000000E+00 -0.12876267084E+02  0.12876267084E+02  0.00000000000E+00 0.  1.
         23    2    1    2    0    0  0.00000000000E+00  0.00000000000E+00  0.15611222395E+03  0.18186475812E+03  0.93293964321E+02 0.  0.
        -13    1    3    3    0    0  0.37225578310E+02 -0.24254683630E+02  0.10575557307E+03  0.11470952269E+03  0.00000000000E+00 0. -1.
         13    1    3    3    0    0 -0.37225578310E+02  0.24254683630E+02  0.50356650875E+02  0.67155235432E+02  0.00000000000E+00 0.  1.
<mgrwt>
<rscale>  0 0.93293964E+02</rscale>
<asrwt>0</asrwt>
<pdfrwt beam="1">  1        2 0.25998228E-01 0.93293964E+02</pdfrwt>
<pdfrwt beam="2">  1       -2 0.19809643E-02 0.93293964E+02</pdfrwt>
<totfact> 0.13688727E+05</totfact>
</mgrwt>
</event>
<event>
 5    1  0.1227473E+001  0.1010802E+03  0.7546771E-02  0.1278041E+00
         -2   -1    0    0    0  501 -0.00000000000E+00  0.00000000000E+00  0.69843505207E+02  0.69843505207E+02  0.00000000000E+00 0.  1.
          2   -1    0    0  501    0  0.00000000000E+00 -0.00000000000E+00 -0.36571813391E+02  0.36571813391E+02  0.00000000000E+00 0. -1.
         23    2    1    2    0    0  0.00000000000E+00  0.00000000000E+00  0.33271691816E+02  0.10641531860E+03  0.10108023821E+03 0.  0.
        -11    1    3    3    0    0  0.33649884512E+02  0.11067526168E+02  0.54587073663E+02  0.65073446768E+02  0.00000000000E+00 0.  1.
         11    1    3    3    0    0 -0.33649884512E+02 -0.11067526168E+02 -0.21315381847E+02  0.41341871830E+02  0.00000000000E+00 0. -1.
<mgrwt>
<rscale>  0 0.10108024E+03</rscale>
<asrwt>0</asrwt>
<pdfrwt beam="2">  1        2 0.56264328E-02 0.10108024E+03</pdfrwt>
<pdfrwt beam="1">  1       -2 0.10745155E-01 0.10108024E+03</pdfrwt>
<totfact> 0.68719271E+04</totfact>
</mgrwt>
</event>
<event>
 5    1  0.1227473E+001  0.9664349E+02  0.7546771E-02  0.1287517E+00
         -3   -1    0    0    0  501 -0.00000000000E+00  0.00000000000E+00  0.25887014937E+02  0.25887014937E+02  0.00000000000E+00 0.  1.
          3   -1    0    0  501    0  0.00000000000E+00 -0.00000000000E+00 -0.90199313570E+02  0.90199313570E+02  0.00000000000E+00 0. -1.
         23    2    1    2    0    0  0.00000000000E+00  0.00000000000E+00 -0.64312298632E+02  0.11608632851E+03  0.96643488714E+02 0.  0.
        -11    1    3    3    0    0  0.55820182602E+01  0.28661064233E+02  0.14091278509E+02  0.32421900944E+02  0.00000000000E+00 0.  1.
         11    1    3    3    0    0 -0.55820182602E+01 -0.28661064233E+02 -0.78403577142E+02  0.83664427563E+02  0.00000000000E+00 0. -1.
<mgrwt>
<rscale>  0 0.96643489E+02</rscale>
<asrwt>0</asrwt>
<pdfrwt beam="2">  1        3 0.13876818E-01 0.96643489E+02</pdfrwt>
<pdfrwt beam="1">  1       -3 0.39826177E-02 0.96643489E+02</pdfrwt>
<totfact> 0.28590741E+04</totfact>
</mgrwt>
</event>
<event>
 5    1  0.1227473E+001  0.9109535E+02  0.7546771E-02  0.1300221E+00
         -3   -1    0    0    0  501 -0.00000000000E+00  0.00000000000E+00  0.90389043271E+01  0.90389043271E+01  0.00000000000E+00 0.  1.
          3   -1    0    0  501    0  0.00000000000E+00 -0.00000000000E+00 -0.22951794951E+03  0.22951794951E+03  0.00000000000E+00 0. -1.
         23    2    1    2    0    0  0.00000000000E+00  0.00000000000E+00 -0.22047904518E+03  0.23855685383E+03  0.91095351954E+02 0.  0.
        -11    1    3    3    0    0 -0.26869037648E+02  0.29647811170E+02 -0.53245963443E+02  0.66603832580E+02  0.00000000000E+00 0.  1.
         11    1    3    3    0    0  0.26869037648E+02 -0.29647811170E+02 -0.16723308174E+03  0.17195302125E+03  0.00000000000E+00 0. -1.
<mgrwt>
<rscale>  0 0.91095352E+02</rscale>
<asrwt>0</asrwt>
<pdfrwt beam="2">  1        3 0.35310452E-01 0.91095352E+02</pdfrwt>
<pdfrwt beam="1">  1       -3 0.13906007E-02 0.91095352E+02</pdfrwt>
<totfact> 0.26684861E+04</totfact>
</mgrwt>
</event>
<event>
 5    1  0.1227473E+001  0.9353011E+02  0.7546771E-02  0.1294521E+00
         -1   -1    0    0    0  501 -0.00000000000E+00  0.00000000000E+00  0.17481062395E+02  0.17481062395E+02  0.00000000000E+00 0.  1.
          1   -1    0    0  501    0  0.00000000000E+00 -0.00000000000E+00 -0.12510511566E+03  0.12510511566E+03  0.00000000000E+00 0. -1.
         23    2    1    2    0    0  0.00000000000E+00  0.00000000000E+00 -0.10762405326E+03  0.14258617806E+03  0.93530109223E+02 0.  0.
        -11    1    3    3    0    0 -0.11706948801E+02 -0.44409913794E+02 -0.40375937447E+02  0.61151528339E+02  0.00000000000E+00 0. -1.
         11    1    3    3    0    0  0.11706948801E+02  0.44409913794E+02 -0.67248115817E+02  0.81434649716E+02  0.00000000000E+00 0.  1.
<mgrwt>
<rscale>  0 0.93530109E+02</rscale>
<asrwt>0</asrwt>
<pdfrwt beam="2">  1        1 0.19246940E-01 0.93530109E+02</pdfrwt>
<pdfrwt beam="1">  1       -1 0.26893943E-02 0.93530109E+02</pdfrwt>
<totfact> 0.10127064E+05</totfact>
</mgrwt>
</event>
<event>
 4    1  0.1227473E+001  0.1281256E+03  0.7546771E-02  0.1230264E+00
         -1   -1    0    0    0  501 -0.00000000000E+00  0.00000000000E+00  0.57573028826E+03  0.57573028826E+03  0.00000000000E+00 0.  1.
          1   -1    0    0  501    0  0.00000000000E+00 -0.00000000000E+00 -0.71284072757E+01  0.71284072757E+01  0.00000000000E+00 0. -1.
        -13    1    1    2    0    0 -0.30368220113E+02  0.56234937420E+02  0.30435993175E+03  0.31099769297E+03  0.00000000000E+00 0.  1.
         13    1    1    2    0    0  0.30368220113E+02 -0.56234937420E+02  0.26424194924E+03  0.27186100257E+03  0.00000000000E+00 0. -1.
<mgrwt>
<rscale>  0 0.12812556E+03</rscale>
<asrwt>0</asrwt>
<pdfrwt beam="2">  1        1 0.10966785E-02 0.12812556E+03</pdfrwt>
<pdfrwt beam="1">  1       -1 0.88573854E-01 0.12812556E+03</pdfrwt>
<totfact> 0.17354117E+04</totfact>
</mgrwt>
</event>
<event>
 5    1  0.1227473E+001  0.9072862E+02  0.7546771E-02  0.1301097E+00
         -2   -1    0    0    0  501 -0.00000000000E+00  0.00000000000E+00  0.13616552542E+02  0.13616552542E+02  0.00000000000E+00 0.  1.
          2   -1    0    0  501    0  0.00000000000E+00 -0.00000000000E+00 -0.15113373553E+03  0.15113373553E+03  0.00000000000E+00 0. -1.
         23    2    1    2    0    0  0.00000000000E+00  0.00000000000E+00 -0.13751718299E+03  0.16475028807E+03  0.90728616228E+02 0.  0.
        -11    1    3    3    0    0  0.38632268044E+01 -0.40945028796E+02 -0.33995434592E+02  0.53358312169E+02  0.00000000000E+00 0.  1.
         11    1    3    3    0    0 -0.38632268044E+01  0.40945028796E+02 -0.10352174839E+03  0.11139197590E+03  0.00000000000E+00 0. -1.
<mgrwt>
<rscale>  0 0.90728616E+02</rscale>
<asrwt>0</asrwt>
<pdfrwt beam="2">  1        2 0.23251342E-01 0.90728616E+02</pdfrwt>
<pdfrwt beam="1">  1       -2 0.20948544E-02 0.90728616E+02</pdfrwt>
<totfact> 0.14205436E+05</totfact>
</mgrwt>
</event>
<event>
 5    1  0.1227473E+001  0.9164557E+02  0.7546771E-02  0.1298915E+00
         -2   -1    0    0    0  501 -0.00000000000E+00  0.00000000000E+00  0.12166948931E+02  0.12166948931E+02  0.00000000000E+00 0.  1.
          2   -1    0    0  501    0  0.00000000000E+00 -0.00000000000E+00 -0.17257634230E+03  0.17257634230E+03  0.00000000000E+00 0. -1.
         23    2    1    2    0    0  0.00000000000E+00  0.00000000000E+00 -0.16040939337E+03  0.18474329124E+03  0.91645568220E+02 0.  0.
        -11    1    3    3    0    0 -0.21689813358E+01  0.30508079137E+02 -0.14898846400E+03  0.15209539696E+03  0.00000000000E+00 0. -1.
         11    1    3    3    0    0  0.21689813358E+01 -0.30508079137E+02 -0.11420929373E+02  0.32647894272E+02  0.00000000000E+00 0.  1.
<mgrwt>
<rscale>  0 0.91645568E+02</rscale>
<asrwt>0</asrwt>
<pdfrwt beam="2">  1        2 0.26550207E-01 0.91645568E+02</pdfrwt>
<pdfrwt beam="1">  1       -2 0.18718383E-02 0.91645568E+02</pdfrwt>
<totfact> 0.14472733E+05</totfact>
</mgrwt>
</event>
<event>
 5    1  0.1227473E+001  0.9962029E+02  0.7546771E-02  0.1281096E+00
          1   -1    0    0  501    0  0.00000000000E+00  0.00000000000E+00  0.64048513810E+02  0.64048513810E+02  0.00000000000E+00 0. -1.
         -1   -1    0    0    0  501 -0.00000000000E+00 -0.00000000000E+00 -0.38737052800E+02  0.38737052800E+02  0.00000000000E+00 0.  1.
         23    2    1    2    0    0  0.00000000000E+00  0.00000000000E+00  0.25311461011E+02  0.10278556661E+03  0.99620292335E+02 0.  0.
        -11    1    3    3    0    0 -0.41153597203E+02  0.24816796467E+02  0.26169941975E+02  0.54720725622E+02  0.00000000000E+00 0.  1.
         11    1    3    3    0    0  0.41153597203E+02 -0.24816796467E+02 -0.85848096386E+00  0.48064840988E+02  0.00000000000E+00 0. -1.
<mgrwt>
<rscale>  0 0.99620292E+02</rscale>
<asrwt>0</asrwt>
<pdfrwt beam="1">  1        1 0.98536175E-02 0.99620292E+02</pdfrwt>
<pdfrwt beam="2">  1       -1 0.59595466E-02 0.99620292E+02</pdfrwt>
<totfact> 0.76041888E+04</totfact>
</mgrwt>
</event>
<event>
 5    1  0.1227473E+001  0.9242531E+02  0.7546771E-02  0.1297083E+00
          3   -1    0    0  501    0  0.00000000000E+00  0.00000000000E+00  0.11863513903E+03  0.11863513903E+03  0.00000000000E+00 0. -1.
         -3   -1    0    0    0  501 -0.00000000000E+00 -0.00000000000E+00 -0.18001490773E+02  0.18001490773E+02  0.00000000000E+00 0.  1.
         23    2    1    2    0    0  0.00000000000E+00  0.00000000000E+00  0.10063364826E+03  0.13663662981E+03  0.92425307372E+02 0.  0.
        -11    1    3    3    0    0  0.27305984751E+01  0.39982437035E+02  0.16296928860E+02  0.43262470220E+02  0.00000000000E+00 0.  1.
         11    1    3    3    0    0 -0.27305984751E+01 -0.39982437035E+02  0.84336719402E+02  0.93374159588E+02  0.00000000000E+00 0. -1.
<mgrwt>
<rscale>  0 0.92425307E+02</rscale>
<asrwt>0</asrwt>
<pdfrwt beam="1">  1        3 0.18251559E-01 0.92425307E+02</pdfrwt>
<pdfrwt beam="2">  1       -3 0.27694602E-02 0.92425307E+02</pdfrwt>
<totfact> 0.30978373E+04</totfact>
</mgrwt>
</event>
<event>
 5    1  0.1227473E+001  0.9132227E+02  0.7546771E-02  0.1299681E+00
          2   -1    0    0  501    0  0.00000000000E+00  0.00000000000E+00  0.99740522476E+01  0.99740522476E+01  0.00000000000E+00 0. -1.
         -2   -1    0    0    0  501 -0.00000000000E+00 -0.00000000000E+00 -0.20903631471E+03  0.20903631471E+03  0.00000000000E+00 0.  1.
         23    2    1    2    0    0  0.00000000000E+00  0.00000000000E+00 -0.19906226246E+03  0.21901036695E+03  0.91322267263E+02 0.  0.
        -11    1    3    3    0    0 -0.28518642036E+02 -0.12749908610E+02 -0.17939800509E+03  0.18209754898E+03  0.00000000000E+00 0.  1.
         11    1    3    3    0    0  0.28518642036E+02  0.12749908610E+02 -0.19664257369E+02  0.36912817977E+02  0.00000000000E+00 0. -1.
<mgrwt>
<rscale>  0 0.91322267E+02</rscale>
<asrwt>0</asrwt>
<pdfrwt beam="1">  1        2 0.15344698E-02 0.91322267E+02</pdfrwt>
<pdfrwt beam="2">  1       -2 0.32159428E-01 0.91322267E+02</pdfrwt>
<totfact> 0.60873132E+04</totfact>
</mgrwt>
</event>
<event>
 5    1  0.1227473E+001  0.9396269E+02  0.7546771E-02  0.1293530E+00
         -2   -1    0    0    0  501 -0.00000000000E+00  0.00000000000E+00  0.75123395878E+02  0.75123395878E+02  0.00000000000E+00 0.  1.
          2   -1    0    0  501    0  0.00000000000E+00 -0.00000000000E+00 -0.29381613869E+02  0.29381613869E+02  0.00000000000E+00 0. -1.
         23    2    1    2    0    0  0.00000000000E+00  0.00000000000E+00  0.45741782010E+02  0.10450500975E+03  0.93962686428E+02 0.  0.
        -13    1    3    3    0    0 -0.13081165714E+02  0.14554545413E+02  0.70374784849E+02  0.73044931592E+02  0.00000000000E+00 0.  1.
         13    1    3    3    0    0  0.13081165714E+02 -0.14554545413E+02 -0.24633002840E+02  0.31460078155E+02  0.00000000000E+00 0. -1.
<mgrwt>
<rscale>  0 0.93962686E+02</rscale>
<asrwt>0</asrwt>
<pdfrwt beam="2">  1        2 0.45202483E-02 0.93962686E+02</pdfrwt>
<pdfrwt beam="1">  1       -2 0.11557445E-01 0.93962686E+02</pdfrwt>
<totfact> 0.80409651E+04</totfact>
</mgrwt>
</event>
<event>
 5    1  0.1227473E+001  0.9526541E+02  0.7546771E-02  0.1290579E+00
         -2   -1    0    0    0  501 -0.00000000000E+00  0.00000000000E+00  0.54303454256E+02  0.54303454256E+02  0.00000000000E+00 0.  1.
          2   -1    0    0  501    0  0.00000000000E+00 -0.00000000000E+00 -0.41781400445E+02  0.41781400445E+02  0.00000000000E+00 0. -1.
         23    2    1    2    0    0  0.00000000000E+00  0.00000000000E+00  0.12522053811E+02  0.96084854702E+02  0.95265405428E+02 0.  0.
        -11    1    3    3    0    0  0.23920579055E+02 -0.39331703790E+02 -0.60793027936E+01  0.46434200196E+02  0.00000000000E+00 0.  1.
         11    1    3    3    0    0 -0.23920579055E+02  0.39331703790E+02  0.18601356605E+02  0.49650654506E+02  0.00000000000E+00 0. -1.
<mgrwt>
<rscale>  0 0.95265405E+02</rscale>
<asrwt>0</asrwt>
<pdfrwt beam="2">  1        2 0.64279077E-02 0.95265405E+02</pdfrwt>
<pdfrwt beam="1">  1       -2 0.83543776E-02 0.95265405E+02</pdfrwt>
<totfact> 0.84933622E+04</totfact>
</mgrwt>
</event>
<event>
 5    1  0.1227473E+001  0.1253953E+03  0.7546771E-02  0.1234453E+00
         -2   -1    0    0    0  501 -0.00000000000E+00  0.00000000000E+00  0.20443915820E+02  0.20443915820E+02  0.00000000000E+00 0.  1.
          2   -1    0    0  501    0  0.00000000000E+00 -0.00000000000E+00 -0.19228202787E+03  0.19228202787E+03  0.00000000000E+00 0. -1.
         23    2    1    2    0    0  0.00000000000E+00  0.00000000000E+00 -0.17183811205E+03  0.21272594369E+03  0.12539533630E+03 0.  0.
        -11    1    3    3    0    0 -0.22900572050E+02  0.56669006781E+02 -0.62218291119E+02  0.87217706228E+02  0.00000000000E+00 0.  1.
         11    1    3    3    0    0  0.22900572050E+02 -0.56669006781E+02 -0.10961982093E+03  0.12550823746E+03  0.00000000000E+00 0. -1.
<mgrwt>
<rscale>  0 0.12539534E+03</rscale>
<asrwt>0</asrwt>
<pdfrwt beam="2">  1        2 0.29581850E-01 0.12539534E+03</pdfrwt>
<pdfrwt beam="1">  1       -2 0.31452179E-02 0.12539534E+03</pdfrwt>
<totfact> 0.63453560E+04</totfact>
</mgrwt>
</event>
<event>
 5    1  0.1227473E+001  0.8852417E+02  0.7546771E-02  0.1306465E+00
          1   -1    0    0  501    0  0.00000000000E+00  0.00000000000E+00  0.16693275718E+02  0.16693275718E+02  0.00000000000E+00 0. -1.
         -1   -1    0    0    0  501 -0.00000000000E+00 -0.00000000000E+00 -0.11736055922E+03  0.11736055922E+03  0.00000000000E+00 0.  1.
         23    2    1    2    0    0  0.00000000000E+00  0.00000000000E+00 -0.10066728350E+03  0.13405383494E+03  0.88524170111E+02 0.  0.
        -11    1    3    3    0    0  0.20847183159E+02  0.81299602419E+01  0.74973051415E+01  0.23598959375E+02  0.00000000000E+00 0. -1.
         11    1    3    3    0    0 -0.20847183159E+02 -0.81299602419E+01 -0.10816458864E+03  0.11045487556E+03  0.00000000000E+00 0.  1.
<mgrwt>
<rscale>  0 0.88524170E+02</rscale>
<asrwt>0</asrwt>
<pdfrwt beam="1">  1        1 0.25681963E-02 0.88524170E+02</pdfrwt>
<pdfrwt beam="2">  1       -1 0.18055470E-01 0.88524170E+02</pdfrwt>
<totfact> 0.85131173E+04</totfact>
</mgrwt>
</event>
<event>
 5    1  0.1227473E+001  0.8366170E+02  0.7546771E-02  0.1318970E+00
         -1   -1    0    0    0  501 -0.00000000000E+00  0.00000000000E+00  0.71931896947E+01  0.71931896947E+01  0.00000000000E+00 0.  1.
          1   -1    0    0  501    0  0.00000000000E+00 -0.00000000000E+00 -0.24326063353E+03  0.24326063353E+03  0.00000000000E+00 0. -1.
         23    2    1    2    0    0  0.00000000000E+00  0.00000000000E+00 -0.23606744384E+03  0.25045382322E+03  0.83661696905E+02 0.  0.
        -13    1    3    3    0    0 -0.50918415768E+00  0.37511427225E+02 -0.17343270132E+03  0.17744370467E+03  0.00000000000E+00 0. -1.
         13    1    3    3    0    0  0.50918415768E+00 -0.37511427225E+02 -0.62634742514E+02  0.73010118550E+02  0.00000000000E+00 0.  1.
<mgrwt>
<rscale>  0 0.83661697E+02</rscale>
<asrwt>0</asrwt>
<pdfrwt beam="2">  1        1 0.37424703E-01 0.83661697E+02</pdfrwt>
<pdfrwt beam="1">  1       -1 0.11066448E-02 0.83661697E+02</pdfrwt>
<totfact> 0.15462910E+05</totfact>
</mgrwt>
</event>
<event>
 5    1  0.1227473E+001  0.8839048E+02  0.7546771E-02  0.1306797E+00
         -1   -1    0    0    0  501 -0.00000000000E+00  0.00000000000E+00  0.79383669500E+02  0.79383669500E+02  0.00000000000E+00 0.  1.
          1   -1    0    0  501    0  0.00000000000E+00 -0.00000000000E+00 -0.24604801264E+02  0.24604801264E+02  0.00000000000E+00 0. -1.
         23    2    1    2    0    0  0.00000000000E+00  0.00000000000E+00  0.54778868237E+02  0.10398847076E+03  0.88390483914E+02 0.  0.
        -13    1    3    3    0    0 -0.20824713800E+01  0.36060044839E+02 -0.25713644136E+01  0.36211537329E+02  0.00000000000E+00 0. -1.
         13    1    3    3    0    0  0.20824713800E+01 -0.36060044839E+02  0.57350232650E+02  0.67776933435E+02  0.00000000000E+00 0.  1.
<mgrwt>
<rscale>  0 0.88390484E+02</rscale>
<asrwt>0</asrwt>
<pdfrwt beam="2">  1        1 0.37853541E-02 0.88390484E+02</pdfrwt>
<pdfrwt beam="1">  1       -1 0.12212872E-01 0.88390484E+02</pdfrwt>
<totfact> 0.91759338E+04</totfact>
</mgrwt>
</event>
<event>
 5    1  0.1227473E+001  0.9112014E+02  0.7546771E-02  0.1300162E+00
         -1   -1    0    0    0  501 -0.00000000000E+00  0.00000000000E+00  0.15626708328E+02  0.15626708328E+02  0.00000000000E+00 0.  1.
          1   -1    0    0  501    0  0.00000000000E+00 -0.00000000000E+00 -0.13283155787E+03  0.13283155787E+03  0.00000000000E+00 0. -1.
         23    2    1    2    0    0  0.00000000000E+00  0.00000000000E+00 -0.11720484954E+03  0.14845826620E+03  0.91120140728E+02 0.  0.
        -13    1    3    3    0    0 -0.31625355876E+02  0.14053541133E+02 -0.10324251654E+02  0.36114475282E+02  0.00000000000E+00 0.  1.
         13    1    3    3    0    0  0.31625355876E+02 -0.14053541133E+02 -0.10688059788E+03  0.11234379091E+03  0.00000000000E+00 0. -1.
<mgrwt>
<rscale>  0 0.91120141E+02</rscale>
<asrwt>0</asrwt>
<pdfrwt beam="2">  1        1 0.20435624E-01 0.91120141E+02</pdfrwt>
<pdfrwt beam="1">  1       -1 0.24041089E-02 0.91120141E+02</pdfrwt>
<totfact> 0.10987272E+05</totfact>
</mgrwt>
</event>
<event>
 5    1  0.1227473E+001  0.9056336E+02  0.7546771E-02  0.1301493E+00
         -3   -1    0    0    0  501 -0.00000000000E+00  0.00000000000E+00  0.16214452996E+02  0.16214452996E+02  0.00000000000E+00 0.  1.
          3   -1    0    0  501    0  0.00000000000E+00 -0.00000000000E+00 -0.12645696566E+03  0.12645696566E+03  0.00000000000E+00 0. -1.
         23    2    1    2    0    0  0.00000000000E+00  0.00000000000E+00 -0.11024251266E+03  0.14267141866E+03  0.90563359603E+02 0.  0.
        -13    1    3    3    0    0 -0.27121369914E+02 -0.36221210621E+02 -0.52445099209E+02  0.69267836952E+02  0.00000000000E+00 0.  1.
         13    1    3    3    0    0  0.27121369914E+02  0.36221210621E+02 -0.57797413454E+02  0.73403581703E+02  0.00000000000E+00 0. -1.
<mgrwt>
<rscale>  0 0.90563360E+02</rscale>
<asrwt>0</asrwt>
<pdfrwt beam="2">  1        3 0.19454918E-01 0.90563360E+02</pdfrwt>
<pdfrwt beam="1">  1       -3 0.24945313E-02 0.90563360E+02</pdfrwt>
<totfact> 0.32347005E+04</totfact>
</mgrwt>
</event>
<event>
 5    1  0.1227473E+001  0.9338752E+02  0.7546771E-02  0.1294850E+00
         -1   -1    0    0    0  501 -0.00000000000E+00  0.00000000000E+00  0.45574541743E+02  0.45574541743E+02  0.00000000000E+00 0.  1.
          1   -1    0    0  501    0  0.00000000000E+00 -0.00000000000E+00 -0.47840460187E+02  0.47840460187E+02  0.00000000000E+00 0. -1.
         23    2    1    2    0    0  0.00000000000E+00  0.00000000000E+00 -0.22659184432E+01  0.93415001930E+02  0.93387516292E+02 0.  0.
        -11    1    3    3    0    0 -0.90355935822E+01 -0.12522571218E+02 -0.45212359401E+02  0.47776711732E+02  0.00000000000E+00 0. -1.
         11    1    3    3    0    0  0.90355935822E+01  0.12522571218E+02  0.42946440958E+02  0.45638290198E+02  0.00000000000E+00 0.  1.
<mgrwt>
<rscale>  0 0.93387516E+02</rscale>
<asrwt>0</asrwt>
<pdfrwt beam="2">  1        1 0.73600708E-02 0.93387516E+02</pdfrwt>
<pdfrwt beam="1">  1       -1 0.70114680E-02 0.93387516E+02</pdfrwt>
<totfact> 0.87083128E+04</totfact>
</mgrwt>
</event>
