<event>
 5    1  0.2809073E+000  0.9099939E+02  0.7818608E-02  0.1300449E+00
         -2   -1    0    0    0  501 -0.00000000000E+00  0.00000000000E+00  0.11788524421E+03  0.11788524423E+03  0.26000000000E-02 0.  1.
          2   -1    0    0  501    0  0.00000000000E+00 -0.00000000000E+00 -0.17561334088E+02  0.17561334280E+02  0.26000000000E-02 0. -1.
         23    2    1    2    0    0  0.00000000000E+00  0.00000000000E+00  0.10032391012E+03  0.13544657851E+03  0.90999388404E+02 0.  0.
        -11    1    3    3    0    0  0.71442985409E+01  0.35371105341E+02  0.91412420923E+02  0.98277091908E+02  0.51100000000E-03 0.  1.
         11    1    3    3    0    0 -0.71442985409E+01 -0.35371105341E+02  0.89114891947E+01  0.37169486606E+02  0.51100000000E-03 0. -1.
<mgrwt>
<rscale>  0 0.90999388E+02</rscale>
<asrwt>0</asrwt>
<pdfrwt beam="2">  1        2 0.27017438E-02 0.90999388E+02</pdfrwt>
<pdfrwt beam="1">  1       -2 0.18136191E-01 0.90999388E+02</pdfrwt>
<totfact> 0.76221416E+04</totfact>
</mgrwt>
</event>
<event>
 5    1  0.2809073E+000  0.9212728E+02  0.7818608E-02  0.1297780E+00
          2   -1    0    0  501    0  0.00000000000E+00  0.00000000000E+00  0.44312490207E+02  0.44312490283E+02  0.26000000000E-02 0. -1.
         -2   -1    0    0    0  501 -0.00000000000E+00 -0.00000000000E+00 -0.47883990981E+02  0.47883991051E+02  0.26000000000E-02 0.  1.
         23    2    1    2    0    0  0.00000000000E+00  0.00000000000E+00 -0.35715007739E+01  0.92196481335E+02  0.92127279091E+02 0.  0.
        -11    1    3    3    0    0 -0.33320419684E+02  0.72689293781E+01 -0.32773039815E+02  0.47298624094E+02  0.51100000000E-03 0.  1.
         11    1    3    3    0    0  0.33320419684E+02 -0.72689293781E+01  0.29201539041E+02  0.44897857241E+02  0.51100000000E-03 0. -1.
<mgrwt>
<rscale>  0 0.92127279E+02</rscale>
<asrwt>0</asrwt>
<pdfrwt beam="1">  1        2 0.68173062E-02 0.92127279E+02</pdfrwt>
<pdfrwt beam="2">  1       -2 0.73667679E-02 0.92127279E+02</pdfrwt>
<totfact> 0.95067395E+04</totfact>
</mgrwt>
</event>
<event>
 5    1  0.2809073E+000  0.9040518E+02  0.7818608E-02  0.1301873E+00
          2   -1    0    0  501    0  0.00000000000E+00  0.00000000000E+00  0.35224167547E+03  0.35224167548E+03  0.26000000000E-02 0. -1.
         -2   -1    0    0    0  501 -0.00000000000E+00 -0.00000000000E+00 -0.58007731087E+01  0.58007736913E+01  0.26000000000E-02 0.  1.
         23    2    1    2    0    0  0.00000000000E+00  0.00000000000E+00  0.34644090236E+03  0.35804244917E+03  0.90405180047E+02 0.  0.
        -11    1    3    3    0    0 -0.81260740144E+00 -0.42462853146E+02  0.23451361223E+03  0.23832832091E+03  0.51100000000E-03 0. -1.
         11    1    3    3    0    0  0.81260740144E+00  0.42462853146E+02  0.11192729013E+03  0.11971412826E+03  0.51100000000E-03 0.  1.
<mgrwt>
<rscale>  0 0.90405180E+02</rscale>
<asrwt>0</asrwt>
<pdfrwt beam="1">  1        2 0.54191045E-01 0.90405180E+02</pdfrwt>
<pdfrwt beam="2">  1       -2 0.89242638E-03 0.90405180E+02</pdfrwt>
<totfact> 0.19499745E+05</totfact>
</mgrwt>
</event>
<event>
 5    1  0.2809073E+000  0.9055027E+02  0.7818608E-02  0.1301525E+00
          2   -1    0    0  501    0  0.00000000000E+00  0.00000000000E+00  0.20523089896E+03  0.20523089897E+03  0.26000000000E-02 0.  1.
         -2   -1    0    0    0  501 -0.00000000000E+00 -0.00000000000E+00 -0.99879579874E+01  0.99879583258E+01  0.26000000000E-02 0. -1.
         23    2    1    2    0    0  0.00000000000E+00  0.00000000000E+00  0.19524294097E+03  0.21521885730E+03  0.90550265260E+02 0.  0.
        -11    1    3    3    0    0 -0.12113590816E+02 -0.29325351078E+02  0.17438558007E+03  0.17724854255E+03  0.51100000000E-03 0.  1.
         11    1    3    3    0    0  0.12113590816E+02  0.29325351078E+02  0.20857360894E+02  0.37970314748E+02  0.51100000000E-03 0. -1.
<mgrwt>
<rscale>  0 0.90550265E+02</rscale>
<asrwt>0</asrwt>
<pdfrwt beam="1">  1        2 0.31573984E-01 0.90550265E+02</pdfrwt>
<pdfrwt beam="2">  1       -2 0.15366090E-02 0.90550265E+02</pdfrwt>
<totfact> 0.15905478E+05</totfact>
</mgrwt>
</event>
<event>
 5    1  0.2809073E+000  0.8910036E+02  0.7818608E-02  0.1305045E+00
         -2   -1    0    0    0  501 -0.00000000000E+00  0.00000000000E+00  0.39061002196E+01  0.39061010850E+01  0.26000000000E-02 0.  1.
          2   -1    0    0  501    0  0.00000000000E+00 -0.00000000000E+00 -0.50810740443E+03  0.50810740444E+03  0.26000000000E-02 0. -1.
         23    2    1    2    0    0  0.00000000000E+00  0.00000000000E+00 -0.50420130421E+03  0.51201350552E+03  0.89100362901E+02 0.  0.
        -11    1    3    3    0    0  0.85105021760E+01  0.43727846134E+02 -0.25443836274E+03  0.25830879507E+03  0.51100000000E-03 0.  1.
         11    1    3    3    0    0 -0.85105021760E+01 -0.43727846134E+02 -0.24976294147E+03  0.25370471046E+03  0.51100000000E-03 0. -1.
<mgrwt>
<rscale>  0 0.89100363E+02</rscale>
<asrwt>0</asrwt>
<pdfrwt beam="2">  1        2 0.78170318E-01 0.89100363E+02</pdfrwt>
<pdfrwt beam="1">  1       -2 0.60093897E-03 0.89100363E+02</pdfrwt>
<totfact> 0.23021463E+05</totfact>
</mgrwt>
</event>
<event>
 5    1  0.2809073E+000  0.6142140E+02  0.7818608E-02  0.1391962E+00
          2   -1    0    0  501    0  0.00000000000E+00  0.00000000000E+00  0.88373773571E+01  0.88373777396E+01  0.26000000000E-02 0.  1.
         -2   -1    0    0    0  501 -0.00000000000E+00 -0.00000000000E+00 -0.10672249214E+03  0.10672249217E+03  0.26000000000E-02 0. -1.
         23    2    1    2    0    0  0.00000000000E+00  0.00000000000E+00 -0.97885114786E+02  0.11555986991E+03  0.61421395604E+02 0.  0.
        -11    1    3    3    0    0 -0.18046123638E+02 -0.17929241593E+02 -0.81313309426E+02  0.85199616035E+02  0.51100000000E-03 0. -1.
         11    1    3    3    0    0  0.18046123638E+02  0.17929241593E+02 -0.16571805360E+02  0.30360253879E+02  0.51100000000E-03 0.  1.
<mgrwt>
<rscale>  0 0.61421396E+02</rscale>
<asrwt>0</asrwt>
<pdfrwt beam="1">  1        2 0.13595966E-02 0.61421396E+02</pdfrwt>
<pdfrwt beam="2">  1       -2 0.16418844E-01 0.61421396E+02</pdfrwt>
<totfact> 0.20928906E+05</totfact>
</mgrwt>
</event>
<event>
 5    1  0.2809073E+000  0.9055915E+02  0.7818608E-02  0.1301503E+00
         -2   -1    0    0    0  501 -0.00000000000E+00  0.00000000000E+00  0.50495376337E+01  0.50495383031E+01  0.26000000000E-02 0.  1.
          2   -1    0    0  501    0  0.00000000000E+00 -0.00000000000E+00 -0.40602525057E+03  0.40602525058E+03  0.26000000000E-02 0. -1.
         23    2    1    2    0    0  0.00000000000E+00  0.00000000000E+00 -0.40097571294E+03  0.41107478888E+03  0.90559150223E+02 0.  0.
        -11    1    3    3    0    0 -0.31229667621E+02  0.30215044972E+02 -0.14271225761E+03  0.14918119706E+03  0.51100000000E-03 0.  1.
         11    1    3    3    0    0  0.31229667621E+02 -0.30215044972E+02 -0.25826345533E+03  0.26189359183E+03  0.51100000000E-03 0. -1.
<mgrwt>
<rscale>  0 0.90559150E+02</rscale>
<asrwt>0</asrwt>
<pdfrwt beam="2">  1        2 0.62465397E-01 0.90559150E+02</pdfrwt>
<pdfrwt beam="1">  1       -2 0.77685232E-03 0.90559150E+02</pdfrwt>
<totfact> 0.20434387E+05</totfact>
</mgrwt>
</event>
<event>
 5    1  0.2809073E+000  0.9077993E+02  0.7818608E-02  0.1300974E+00
         -2   -1    0    0    0  501 -0.00000000000E+00  0.00000000000E+00  0.20614515553E+03  0.20614515555E+03  0.26000000000E-02 0.  1.
          2   -1    0    0  501    0  0.00000000000E+00 -0.00000000000E+00 -0.99941663777E+01  0.99941667159E+01  0.26000000000E-02 0. -1.
         23    2    1    2    0    0  0.00000000000E+00  0.00000000000E+00  0.19615098916E+03  0.21613932227E+03  0.90779932159E+02 0.  0.
        -11    1    3    3    0    0 -0.37867473772E+02 -0.19926443632E+02  0.13412417822E+03  0.14078460110E+03  0.51100000000E-03 0.  1.
         11    1    3    3    0    0  0.37867473772E+02  0.19926443632E+02  0.62026810942E+02  0.75354721163E+02  0.51100000000E-03 0. -1.
<mgrwt>
<rscale>  0 0.90779932E+02</rscale>
<asrwt>0</asrwt>
<pdfrwt beam="2">  1        2 0.15375641E-02 0.90779932E+02</pdfrwt>
<pdfrwt beam="1">  1       -2 0.31714638E-01 0.90779932E+02</pdfrwt>
<totfact> 0.62189605E+04</totfact>
</mgrwt>
</event>
<event>
 5    1  0.2809073E+000  0.9183466E+02  0.7818608E-02  0.1298469E+00
         -2   -1    0    0    0  501 -0.00000000000E+00  0.00000000000E+00  0.72698878709E+02  0.72698878756E+02  0.26000000000E-02 0.  1.
          2   -1    0    0  501    0  0.00000000000E+00 -0.00000000000E+00 -0.29001839406E+02  0.29001839523E+02  0.26000000000E-02 0. -1.
         23    2    1    2    0    0  0.00000000000E+00  0.00000000000E+00  0.43697039303E+02  0.10170071828E+03  0.91834660420E+02 0.  0.
        -11    1    3    3    0    0  0.34019061739E+02  0.50400587256E+01  0.55542561013E+02  0.65327443220E+02  0.51100000000E-03 0.  1.
         11    1    3    3    0    0 -0.34019061739E+02 -0.50400587256E+01 -0.11845521710E+02  0.36373275058E+02  0.51100000000E-03 0. -1.
<mgrwt>
<rscale>  0 0.91834660E+02</rscale>
<asrwt>0</asrwt>
<pdfrwt beam="2">  1        2 0.44618214E-02 0.91834660E+02</pdfrwt>
<pdfrwt beam="1">  1       -2 0.11184443E-01 0.91834660E+02</pdfrwt>
<totfact> 0.85808006E+04</totfact>
</mgrwt>
</event>
<event>
 5    1  0.2809073E+000  0.9088730E+02  0.7818608E-02  0.1300717E+00
         -2   -1    0    0    0  501 -0.00000000000E+00  0.00000000000E+00  0.17752957054E+02  0.17752957244E+02  0.26000000000E-02 0. -1.
          2   -1    0    0  501    0  0.00000000000E+00 -0.00000000000E+00 -0.11632569618E+03  0.11632569620E+03  0.26000000000E-02 0.  1.
         23    2    1    2    0    0  0.00000000000E+00  0.00000000000E+00 -0.98572739121E+02  0.13407865345E+03  0.90887295111E+02 0.  0.
        -11    1    3    3    0    0  0.19624401378E+02 -0.40294188431E+02 -0.60363912972E+02  0.75183380745E+02  0.51100000000E-03 0.  1.
         11    1    3    3    0    0 -0.19624401378E+02  0.40294188431E+02 -0.38208826149E+02  0.58895272703E+02  0.51100000000E-03 0. -1.
<mgrwt>
<rscale>  0 0.90887295E+02</rscale>
<asrwt>0</asrwt>
<pdfrwt beam="2">  1        2 0.17896261E-01 0.90887295E+02</pdfrwt>
<pdfrwt beam="1">  1       -2 0.27312242E-02 0.90887295E+02</pdfrwt>
<totfact> 0.12970687E+05</totfact>
</mgrwt>
</event>
<event>
 5    1  0.2809073E+000  0.8696272E+02  0.7818608E-02  0.1310378E+00
          2   -1    0    0  501    0  0.00000000000E+00  0.00000000000E+00  0.27176083746E+03  0.27176083747E+03  0.26000000000E-02 0. -1.
         -2   -1    0    0    0  501 -0.00000000000E+00 -0.00000000000E+00 -0.69569570783E+01  0.69569575642E+01  0.26000000000E-02 0.  1.
         23    2    1    2    0    0  0.00000000000E+00  0.00000000000E+00  0.26480388038E+03  0.27871779504E+03  0.86962717327E+02 0.  0.
        -11    1    3    3    0    0  0.36100651465E+02  0.11062748791E+02  0.20151371565E+03  0.20502053322E+03  0.51100000000E-03 0. -1.
         11    1    3    3    0    0 -0.36100651465E+02 -0.11062748791E+02  0.63290164731E+02  0.73697261815E+02  0.51100000000E-03 0.  1.
<mgrwt>
<rscale>  0 0.86962717E+02</rscale>
<asrwt>0</asrwt>
<pdfrwt beam="1">  1        2 0.41809371E-01 0.86962717E+02</pdfrwt>
<pdfrwt beam="2">  1       -2 0.10703008E-02 0.86962717E+02</pdfrwt>
<totfact> 0.19642780E+05</totfact>
</mgrwt>
</event>
<event>
 5    1  0.2809073E+000  0.9246655E+02  0.7818608E-02  0.1296986E+00
          2   -1    0    0  501    0  0.00000000000E+00  0.00000000000E+00  0.53758062683E+02  0.53758062746E+02  0.26000000000E-02 0. -1.
         -2   -1    0    0    0  501 -0.00000000000E+00 -0.00000000000E+00 -0.39761768910E+02  0.39761768995E+02  0.26000000000E-02 0.  1.
         23    2    1    2    0    0  0.00000000000E+00  0.00000000000E+00  0.13996293773E+02  0.93519831741E+02  0.92466549029E+02 0.  0.
        -11    1    3    3    0    0 -0.36043160243E+02  0.13635526742E+02  0.32832775980E+02  0.50626358437E+02  0.51100000000E-03 0. -1.
         11    1    3    3    0    0  0.36043160243E+02 -0.13635526742E+02 -0.18836482207E+02  0.42893473303E+02  0.51100000000E-03 0.  1.
<mgrwt>
<rscale>  0 0.92466549E+02</rscale>
<asrwt>0</asrwt>
<pdfrwt beam="1">  1        2 0.82704712E-02 0.92466549E+02</pdfrwt>
<pdfrwt beam="2">  1       -2 0.61171952E-02 0.92466549E+02</pdfrwt>
<totfact> 0.98981975E+04</totfact>
</mgrwt>
</event>
<event>
 5    1  0.2809073E+000  0.9348967E+02  0.7818608E-02  0.1294614E+00
          2   -1    0    0  501    0  0.00000000000E+00  0.00000000000E+00  0.11964684878E+02  0.11964685160E+02  0.26000000000E-02 0. -1.
         -2   -1    0    0    0  501 -0.00000000000E+00 -0.00000000000E+00 -0.18262741168E+03  0.18262741170E+03  0.26000000000E-02 0.  1.
         23    2    1    2    0    0  0.00000000000E+00  0.00000000000E+00 -0.17066272680E+03  0.19459209686E+03  0.93489667025E+02 0.  0.
        -11    1    3    3    0    0 -0.18163368065E-01  0.42919460775E+02 -0.12387991124E+03  0.13110420608E+03  0.51100000000E-03 0.  1.
         11    1    3    3    0    0  0.18163368065E-01 -0.42919460775E+02 -0.46782815559E+02  0.63487890775E+02  0.51100000000E-03 0. -1.
<mgrwt>
<rscale>  0 0.93489667E+02</rscale>
<asrwt>0</asrwt>
<pdfrwt beam="1">  1        2 0.18407209E-02 0.93489667E+02</pdfrwt>
<pdfrwt beam="2">  1       -2 0.28096523E-01 0.93489667E+02</pdfrwt>
<totfact> 0.60743062E+04</totfact>
</mgrwt>
</event>
<event>
 5    1  0.2809073E+000  0.8315712E+02  0.7818608E-02  0.1320323E+00
          2   -1    0    0  501    0  0.00000000000E+00  0.00000000000E+00  0.64234707812E+01  0.64234713074E+01  0.26000000000E-02 0. -1.
         -2   -1    0    0    0  501 -0.00000000000E+00 -0.00000000000E+00 -0.26913431037E+03  0.26913431039E+03  0.26000000000E-02 0.  1.
         23    2    1    2    0    0  0.00000000000E+00  0.00000000000E+00 -0.26271083959E+03  0.27555778169E+03  0.83157115225E+02 0.  0.
        -11    1    3    3    0    0 -0.39334656580E+02 -0.55094205852E+01 -0.90608013122E+02  0.98931193087E+02  0.51100000000E-03 0. -1.
         11    1    3    3    0    0  0.39334656580E+02  0.55094205852E+01 -0.17210282647E+03  0.17662658861E+03  0.51100000000E-03 0.  1.
<mgrwt>
<rscale>  0 0.83157115E+02</rscale>
<asrwt>0</asrwt>
<pdfrwt beam="1">  1        2 0.98822652E-03 0.83157115E+02</pdfrwt>
<pdfrwt beam="2">  1       -2 0.41405270E-01 0.83157115E+02</pdfrwt>
<totfact> 0.68498779E+04</totfact>
</mgrwt>
</event>
<event>
 5    1  0.2809073E+000  0.8736950E+02  0.7818608E-02  0.1309350E+00
         -2   -1    0    0    0  501 -0.00000000000E+00  0.00000000000E+00  0.15281441134E+03  0.15281441136E+03  0.26000000000E-02 0. -1.
          2   -1    0    0  501    0  0.00000000000E+00 -0.00000000000E+00 -0.12488070755E+02  0.12488071026E+02  0.26000000000E-02 0.  1.
         23    2    1    2    0    0  0.00000000000E+00  0.00000000000E+00  0.14032634058E+03  0.16530248239E+03  0.87369495945E+02 0.  0.
        -11    1    3    3    0    0  0.11099594129E+02  0.40241775134E+02  0.94521855669E+02  0.10332948589E+03  0.51100000000E-03 0.  1.
         11    1    3    3    0    0 -0.11099594129E+02 -0.40241775134E+02  0.45804484914E+02  0.61972996492E+02  0.51100000000E-03 0. -1.
<mgrwt>
<rscale>  0 0.87369496E+02</rscale>
<asrwt>0</asrwt>
<pdfrwt beam="2">  1        2 0.19212419E-02 0.87369496E+02</pdfrwt>
<pdfrwt beam="1">  1       -2 0.23509907E-01 0.87369496E+02</pdfrwt>
<totfact> 0.77290530E+04</totfact>
</mgrwt>
</event>
<event>
 5    1  0.2809073E+000  0.8932499E+02  0.7818608E-02  0.1304495E+00
          2   -1    0    0  501    0  0.00000000000E+00  0.00000000000E+00  0.18821310673E+03  0.18821310675E+03  0.26000000000E-02 0. -1.
         -2   -1    0    0    0  501 -0.00000000000E+00 -0.00000000000E+00 -0.10598298077E+02  0.10598298395E+02  0.26000000000E-02 0.  1.
         23    2    1    2    0    0  0.00000000000E+00  0.00000000000E+00  0.17761480865E+03  0.19881140514E+03  0.89324994050E+02 0.  0.
        -11    1    3    3    0    0  0.35156590841E+02 -0.40101711707E+01  0.14946240556E+03  0.15359387367E+03  0.51100000000E-03 0. -1.
         11    1    3    3    0    0 -0.35156590841E+02  0.40101711707E+01  0.28152403091E+02  0.45217531472E+02  0.51100000000E-03 0.  1.
<mgrwt>
<rscale>  0 0.89324994E+02</rscale>
<asrwt>0</asrwt>
<pdfrwt beam="1">  1        2 0.28955861E-01 0.89324994E+02</pdfrwt>
<pdfrwt beam="2">  1       -2 0.16305075E-02 0.89324994E+02</pdfrwt>
<totfact> 0.15992797E+05</totfact>
</mgrwt>
</event>
<event>
 5    1  0.2809073E+000  0.9104730E+02  0.7818608E-02  0.1300335E+00
         -2   -1    0    0    0  501 -0.00000000000E+00  0.00000000000E+00  0.31998879125E+03  0.31998879126E+03  0.26000000000E-02 0.  1.
          2   -1    0    0  501    0  0.00000000000E+00 -0.00000000000E+00 -0.64764854746E+01  0.64764859965E+01  0.26000000000E-02 0. -1.
         23    2    1    2    0    0  0.00000000000E+00  0.00000000000E+00  0.31351230578E+03  0.32646527726E+03  0.91047302991E+02 0.  0.
        -11    1    3    3    0    0 -0.15929818342E+00  0.43280794680E+02  0.10615500452E+03  0.11463916237E+03  0.51100000000E-03 0.  1.
         11    1    3    3    0    0  0.15929818342E+00 -0.43280794680E+02  0.20735730125E+03  0.21182611489E+03  0.51100000000E-03 0. -1.
<mgrwt>
<rscale>  0 0.91047303E+02</rscale>
<asrwt>0</asrwt>
<pdfrwt beam="2">  1        2 0.99638223E-03 0.91047303E+02</pdfrwt>
<pdfrwt beam="1">  1       -2 0.49229054E-01 0.91047303E+02</pdfrwt>
<totfact> 0.49327044E+04</totfact>
</mgrwt>
</event>
<event>
 5    1  0.2809073E+000  0.9073299E+02  0.7818608E-02  0.1301086E+00
         -2   -1    0    0    0  501 -0.00000000000E+00  0.00000000000E+00  0.44458460190E+02  0.44458460266E+02  0.26000000000E-02 0.  1.
          2   -1    0    0  501    0  0.00000000000E+00 -0.00000000000E+00 -0.46293074943E+02  0.46293075016E+02  0.26000000000E-02 0. -1.
         23    2    1    2    0    0  0.00000000000E+00  0.00000000000E+00 -0.18346147534E+01  0.90751535282E+02  0.90732989286E+02 0.  0.
        -11    1    3    3    0    0  0.70939116938E+01  0.14377697883E+02 -0.43365080214E+02  0.46233883265E+02  0.51100000000E-03 0. -1.
         11    1    3    3    0    0 -0.70939116938E+01 -0.14377697883E+02  0.41530465460E+02  0.44517652017E+02  0.51100000000E-03 0.  1.
<mgrwt>
<rscale>  0 0.90732989E+02</rscale>
<asrwt>0</asrwt>
<pdfrwt beam="2">  1        2 0.71220116E-02 0.90732989E+02</pdfrwt>
<pdfrwt beam="1">  1       -2 0.68397631E-02 0.90732989E+02</pdfrwt>
<totfact> 0.10046292E+05</totfact>
</mgrwt>
</event>
<event>
 5    1  0.2809073E+000  0.9329574E+02  0.7818608E-02  0.1295061E+00
          2   -1    0    0  501    0  0.00000000000E+00  0.00000000000E+00  0.14435276785E+02  0.14435277019E+02  0.26000000000E-02 0.  1.
         -2   -1    0    0    0  501 -0.00000000000E+00 -0.00000000000E+00 -0.15074347446E+03  0.15074347448E+03  0.26000000000E-02 0. -1.
         23    2    1    2    0    0  0.00000000000E+00  0.00000000000E+00 -0.13630819768E+03  0.16517875150E+03  0.93295740493E+02 0.  0.
        -11    1    3    3    0    0 -0.43621203729E+02 -0.15997837855E+01 -0.97281413727E+02  0.10662571069E+03  0.51100000000E-03 0. -1.
         11    1    3    3    0    0  0.43621203729E+02  0.15997837855E+01 -0.39026783951E+02  0.58553040815E+02  0.51100000000E-03 0.  1.
<mgrwt>
<rscale>  0 0.93295740E+02</rscale>
<asrwt>0</asrwt>
<pdfrwt beam="1">  1        2 0.22208119E-02 0.93295740E+02</pdfrwt>
<pdfrwt beam="2">  1       -2 0.23191303E-01 0.93295740E+02</pdfrwt>
<totfact> 0.65786275E+04</totfact>
</mgrwt>
</event>
<event>
 5    1  0.2809073E+000  0.9048014E+02  0.7818608E-02  0.1301693E+00
         -2   -1    0    0    0  501 -0.00000000000E+00  0.00000000000E+00  0.40277710732E+01  0.40277719124E+01  0.26000000000E-02 0.  1.
          2   -1    0    0  501    0  0.00000000000E+00 -0.00000000000E+00 -0.50813806166E+03  0.50813806167E+03  0.26000000000E-02 0. -1.
         23    2    1    2    0    0  0.00000000000E+00  0.00000000000E+00 -0.50411029059E+03  0.51216583358E+03  0.90480141525E+02 0.  0.
        -11    1    3    3    0    0  0.34141156393E+02 -0.29510894062E+02 -0.27009136087E+03  0.27383545176E+03  0.51100000000E-03 0. -1.
         11    1    3    3    0    0 -0.34141156393E+02  0.29510894062E+02 -0.23401892972E+03  0.23833038182E+03  0.51100000000E-03 0.  1.
<mgrwt>
<rscale>  0 0.90480142E+02</rscale>
<asrwt>0</asrwt>
<pdfrwt beam="2">  1        2 0.78175036E-01 0.90480142E+02</pdfrwt>
<pdfrwt beam="1">  1       -2 0.61965756E-03 0.90480142E+02</pdfrwt>
<totfact> 0.22106366E+05</totfact>
</mgrwt>
</event>
<event>
 5    1  0.2809073E+000  0.9481733E+02  0.7818608E-02  0.1291588E+00
         -2   -1    0    0    0  501 -0.00000000000E+00  0.00000000000E+00  0.54054365848E+02  0.54054365910E+02  0.26000000000E-02 0.  1.
          2   -1    0    0  501    0  0.00000000000E+00 -0.00000000000E+00 -0.41580019962E+02  0.41580020043E+02  0.26000000000E-02 0. -1.
         23    2    1    2    0    0  0.00000000000E+00  0.00000000000E+00  0.12474345886E+02  0.95634385953E+02  0.94817332125E+02 0.  0.
        -11    1    3    3    0    0  0.41501881399E+02 -0.12272776300E+02  0.25757352373E+02  0.50363363661E+02  0.51100000000E-03 0.  1.
         11    1    3    3    0    0 -0.41501881399E+02  0.12272776300E+02 -0.13283006487E+02  0.45271022292E+02  0.51100000000E-03 0. -1.
<mgrwt>
<rscale>  0 0.94817332E+02</rscale>
<asrwt>0</asrwt>
<pdfrwt beam="2">  1        2 0.63969262E-02 0.94817332E+02</pdfrwt>
<pdfrwt beam="1">  1       -2 0.83160563E-02 0.94817332E+02</pdfrwt>
<totfact> 0.85997969E+04</totfact>
</mgrwt>
</event>
<event>
 5    1  0.2809073E+000  0.8499105E+02  0.7818608E-02  0.1315456E+00
          2   -1    0    0  501    0  0.00000000000E+00  0.00000000000E+00  0.41069600834E+03  0.41069600835E+03  0.26000000000E-02 0.  1.
         -2   -1    0    0    0  501 -0.00000000000E+00 -0.00000000000E+00 -0.43970955286E+01  0.43970962973E+01  0.26000000000E-02 0. -1.
         23    2    1    2    0    0  0.00000000000E+00  0.00000000000E+00  0.40629891281E+03  0.41509310465E+03  0.84991052309E+02 0.  0.
        -11    1    3    3    0    0 -0.15666206374E+02  0.39227886515E+02  0.18044420968E+03  0.18532234056E+03  0.51100000000E-03 0. -1.
         11    1    3    3    0    0  0.15666206374E+02 -0.39227886515E+02  0.22585470313E+03  0.22977076409E+03  0.51100000000E-03 0.  1.
<mgrwt>
<rscale>  0 0.84991052E+02</rscale>
<asrwt>0</asrwt>
<pdfrwt beam="1">  1        2 0.63183992E-01 0.84991052E+02</pdfrwt>
<pdfrwt beam="2">  1       -2 0.67647640E-03 0.84991052E+02</pdfrwt>
<totfact> 0.24262528E+05</totfact>
</mgrwt>
</event>
<event>
 5    1  0.2809073E+000  0.9118692E+02  0.7818608E-02  0.1300003E+00
          2   -1    0    0  501    0  0.00000000000E+00  0.00000000000E+00  0.61239661777E+01  0.61239667296E+01  0.26000000000E-02 0. -1.
         -2   -1    0    0    0  501 -0.00000000000E+00 -0.00000000000E+00 -0.33944727843E+03  0.33944727844E+03  0.26000000000E-02 0.  1.
         23    2    1    2    0    0  0.00000000000E+00  0.00000000000E+00 -0.33332331225E+03  0.34557124517E+03  0.91186923389E+02 0.  0.
        -11    1    3    3    0    0  0.14742898454E+02  0.38117762926E+02 -0.90071526062E+02  0.98910043538E+02  0.51100000000E-03 0. -1.
         11    1    3    3    0    0 -0.14742898454E+02 -0.38117762926E+02 -0.24325178619E+03  0.24666120163E+03  0.51100000000E-03 0.  1.
<mgrwt>
<rscale>  0 0.91186923E+02</rscale>
<asrwt>0</asrwt>
<pdfrwt beam="1">  1        2 0.94214895E-03 0.91186923E+02</pdfrwt>
<pdfrwt beam="2">  1       -2 0.52222643E-01 0.91186923E+02</pdfrwt>
<totfact> 0.47428377E+04</totfact>
</mgrwt>
</event>
<event>
 5    1  0.2809073E+000  0.9054530E+02  0.7818608E-02  0.1301537E+00
         -2   -1    0    0    0  501 -0.00000000000E+00  0.00000000000E+00  0.80103405654E+01  0.80103409874E+01  0.26000000000E-02 0.  1.
          2   -1    0    0  501    0  0.00000000000E+00 -0.00000000000E+00 -0.25587088051E+03  0.25587088052E+03  0.26000000000E-02 0. -1.
         23    2    1    2    0    0  0.00000000000E+00  0.00000000000E+00 -0.24786053994E+03  0.26388122151E+03  0.90545302497E+02 0.  0.
        -11    1    3    3    0    0  0.28583324689E+02  0.30813760935E+02 -0.74892942671E+02  0.85880423703E+02  0.51100000000E-03 0.  1.
         11    1    3    3    0    0 -0.28583324689E+02 -0.30813760935E+02 -0.17296759727E+03  0.17800079781E+03  0.51100000000E-03 0. -1.
<mgrwt>
<rscale>  0 0.90545302E+02</rscale>
<asrwt>0</asrwt>
<pdfrwt beam="2">  1        2 0.39364745E-01 0.90545302E+02</pdfrwt>
<pdfrwt beam="1">  1       -2 0.12323603E-02 0.90545302E+02</pdfrwt>
<totfact> 0.17248641E+05</totfact>
</mgrwt>
</event>
<event>
 5    1  0.2809073E+000  0.9105138E+02  0.7818608E-02  0.1300325E+00
          2   -1    0    0  501    0  0.00000000000E+00  0.00000000000E+00  0.47803659787E+02  0.47803659858E+02  0.26000000000E-02 0.  1.
         -2   -1    0    0    0  501 -0.00000000000E+00 -0.00000000000E+00 -0.43356267216E+02  0.43356267294E+02  0.26000000000E-02 0. -1.
         23    2    1    2    0    0  0.00000000000E+00  0.00000000000E+00  0.44473925718E+01  0.91159927152E+02  0.91051375704E+02 0.  0.
        -11    1    3    3    0    0  0.29824645792E+02  0.15902039748E+02 -0.28311908990E+02  0.44090231976E+02  0.51100000000E-03 0. -1.
         11    1    3    3    0    0 -0.29824645792E+02 -0.15902039748E+02  0.32759301562E+02  0.47069695175E+02  0.51100000000E-03 0.  1.
<mgrwt>
<rscale>  0 0.91051376E+02</rscale>
<asrwt>0</asrwt>
<pdfrwt beam="1">  1        2 0.73544092E-02 0.91051376E+02</pdfrwt>
<pdfrwt beam="2">  1       -2 0.66701950E-02 0.91051376E+02</pdfrwt>
<totfact> 0.10029393E+05</totfact>
</mgrwt>
</event>
<event>
 4    1  0.2809073E+000  0.1439970E+03  0.7818608E-02  0.1208050E+00
          2   -1    0    0  501    0  0.00000000000E+00  0.00000000000E+00  0.38444353341E+03  0.38444353342E+03  0.26000000000E-02 0. -1.
         -2   -1    0    0    0  501 -0.00000000000E+00 -0.00000000000E+00 -0.13483864717E+02  0.13483864967E+02  0.26000000000E-02 0.  1.
        -11    1    1    2    0    0 -0.13982061712E+02 -0.60432140859E+02  0.84463155842E+02  0.10479296920E+03  0.51100000000E-03 0.  1.
         11    1    1    2    0    0  0.13982061712E+02  0.60432140859E+02  0.28649651286E+03  0.29313442919E+03  0.51100000000E-03 0. -1.
<mgrwt>
<rscale>  0 0.14399701E+03</rscale>
<asrwt>0</asrwt>
<pdfrwt beam="1">  1        2 0.59145151E-01 0.14399701E+03</pdfrwt>
<pdfrwt beam="2">  1       -2 0.20744410E-02 0.14399701E+03</pdfrwt>
<totfact> 0.56649923E+04</totfact>
</mgrwt>
</event>
<event>
 5    1  0.2809073E+000  0.9757158E+02  0.7818608E-02  0.1285487E+00
          2   -1    0    0  501    0  0.00000000000E+00  0.00000000000E+00  0.61631462130E+02  0.61631462185E+02  0.26000000000E-02 0.  1.
         -2   -1    0    0    0  501 -0.00000000000E+00 -0.00000000000E+00 -0.38617505949E+02  0.38617506036E+02  0.26000000000E-02 0. -1.
         23    2    1    2    0    0  0.00000000000E+00  0.00000000000E+00  0.23013956182E+02  0.10024896822E+03  0.97571581161E+02 0.  0.
        -11    1    3    3    0    0 -0.31215977325E+02 -0.36146368510E+02  0.12811773735E+01  0.47776967385E+02  0.51100000000E-03 0. -1.
         11    1    3    3    0    0  0.31215977325E+02  0.36146368510E+02  0.21732778808E+02  0.52472000836E+02  0.51100000000E-03 0.  1.
<mgrwt>
<rscale>  0 0.97571581E+02</rscale>
<asrwt>0</asrwt>
<pdfrwt beam="1">  1        2 0.94817634E-02 0.97571581E+02</pdfrwt>
<pdfrwt beam="2">  1       -2 0.59411548E-02 0.97571581E+02</pdfrwt>
<totfact> 0.88152872E+04</totfact>
</mgrwt>
</event>
<event>
 5    1  0.2809073E+000  0.9166356E+02  0.7818608E-02  0.1298872E+00
         -2   -1    0    0    0  501 -0.00000000000E+00  0.00000000000E+00  0.92979334461E+01  0.92979338096E+01  0.26000000000E-02 0. -1.
          2   -1    0    0  501    0  0.00000000000E+00 -0.00000000000E+00 -0.22591600665E+03  0.22591600666E+03  0.26000000000E-02 0.  1.
         23    2    1    2    0    0  0.00000000000E+00  0.00000000000E+00 -0.21661807320E+03  0.23521394047E+03  0.91663559580E+02 0.  0.
        -11    1    3    3    0    0  0.18210084435E+02 -0.28625144885E+02 -0.18738132920E+03  0.19042785675E+03  0.51100000000E-03 0.  1.
         11    1    3    3    0    0 -0.18210084435E+02  0.28625144885E+02 -0.29236744003E+02  0.44786083720E+02  0.51100000000E-03 0. -1.
<mgrwt>
<rscale>  0 0.91663560E+02</rscale>
<asrwt>0</asrwt>
<pdfrwt beam="2">  1        2 0.34756305E-01 0.91663560E+02</pdfrwt>
<pdfrwt beam="1">  1       -2 0.14304515E-02 0.91663560E+02</pdfrwt>
<totfact> 0.15940908E+05</totfact>
</mgrwt>
</event>
<event>
 5    1  0.2809073E+000  0.9152314E+02  0.7818608E-02  0.1299205E+00
         -2   -1    0    0    0  501 -0.00000000000E+00  0.00000000000E+00  0.38428147352E+02  0.38428147440E+02  0.26000000000E-02 0.  1.
          2   -1    0    0  501    0  0.00000000000E+00 -0.00000000000E+00 -0.54494458052E+02  0.54494458114E+02  0.26000000000E-02 0. -1.
         23    2    1    2    0    0  0.00000000000E+00  0.00000000000E+00 -0.16066310700E+02  0.92922605554E+02  0.91523135236E+02 0.  0.
        -11    1    3    3    0    0  0.90895236200E+01 -0.17820817950E+02  0.33753436185E+02  0.39236404608E+02  0.51100000000E-03 0.  1.
         11    1    3    3    0    0 -0.90895236200E+01  0.17820817950E+02 -0.49819746885E+02  0.53686200946E+02  0.51100000000E-03 0. -1.
<mgrwt>
<rscale>  0 0.91523135E+02</rscale>
<asrwt>0</asrwt>
<pdfrwt beam="2">  1        2 0.83837628E-02 0.91523135E+02</pdfrwt>
<pdfrwt beam="1">  1       -2 0.59120227E-02 0.91523135E+02</pdfrwt>
<totfact> 0.10228091E+05</totfact>
</mgrwt>
</event>
<event>
 5    1  0.2809073E+000  0.9057377E+02  0.7818608E-02  0.1301468E+00
          2   -1    0    0  501    0  0.00000000000E+00  0.00000000000E+00  0.36459014122E+03  0.36459014123E+03  0.26000000000E-02 0. -1.
         -2   -1    0    0    0  501 -0.00000000000E+00 -0.00000000000E+00 -0.56252254055E+01  0.56252260064E+01  0.26000000000E-02 0.  1.
         23    2    1    2    0    0  0.00000000000E+00  0.00000000000E+00  0.35896491582E+03  0.37021536724E+03  0.90573767459E+02 0.  0.
        -11    1    3    3    0    0 -0.27167376538E+01  0.43588531302E+02  0.22845700378E+03  0.23259394511E+03  0.51100000000E-03 0. -1.
         11    1    3    3    0    0  0.27167376538E+01 -0.43588531302E+02  0.13050791203E+03  0.13762142213E+03  0.51100000000E-03 0.  1.
<mgrwt>
<rscale>  0 0.90573767E+02</rscale>
<asrwt>0</asrwt>
<pdfrwt beam="1">  1        2 0.56090809E-01 0.90573767E+02</pdfrwt>
<pdfrwt beam="2">  1       -2 0.86541907E-03 0.90573767E+02</pdfrwt>
<totfact> 0.19648495E+05</totfact>
</mgrwt>
</event>
<event>
 5    1  0.2809073E+000  0.9001855E+02  0.7818608E-02  0.1302807E+00
          2   -1    0    0  501    0  0.00000000000E+00  0.00000000000E+00  0.14087988320E+03  0.14087988322E+03  0.26000000000E-02 0. -1.
         -2   -1    0    0    0  501 -0.00000000000E+00 -0.00000000000E+00 -0.14379872213E+02  0.14379872448E+02  0.26000000000E-02 0.  1.
         23    2    1    2    0    0  0.00000000000E+00  0.00000000000E+00  0.12650001099E+03  0.15525975567E+03  0.90018547821E+02 0.  0.
        -11    1    3    3    0    0  0.44751476763E+01  0.27574962765E+02  0.23823714126E+01  0.28037139869E+02  0.51100000000E-03 0.  1.
         11    1    3    3    0    0 -0.44751476763E+01 -0.27574962765E+02  0.12411763957E+03  0.12722261580E+03  0.51100000000E-03 0. -1.
<mgrwt>
<rscale>  0 0.90018548E+02</rscale>
<asrwt>0</asrwt>
<pdfrwt beam="1">  1        2 0.21673829E-01 0.90018548E+02</pdfrwt>
<pdfrwt beam="2">  1       -2 0.22122880E-02 0.90018548E+02</pdfrwt>
<totfact> 0.14171564E+05</totfact>
</mgrwt>
</event>
<event>
 5    1  0.2809073E+000  0.9259283E+02  0.7818608E-02  0.1296692E+00
         -2   -1    0    0    0  501 -0.00000000000E+00  0.00000000000E+00  0.65511736817E+02  0.65511736869E+02  0.26000000000E-02 0.  1.
          2   -1    0    0  501    0  0.00000000000E+00 -0.00000000000E+00 -0.32717161545E+02  0.32717161649E+02  0.26000000000E-02 0. -1.
         23    2    1    2    0    0  0.00000000000E+00  0.00000000000E+00  0.32794575272E+02  0.98228898518E+02  0.92592830914E+02 0.  0.
        -11    1    3    3    0    0 -0.44547137610E+02  0.11044963796E+02  0.99513044750E+01  0.46962401509E+02  0.51100000000E-03 0. -1.
         11    1    3    3    0    0  0.44547137610E+02 -0.11044963796E+02  0.22843270797E+02  0.51266497008E+02  0.51100000000E-03 0.  1.
<mgrwt>
<rscale>  0 0.92592831E+02</rscale>
<asrwt>0</asrwt>
<pdfrwt beam="2">  1        2 0.50334095E-02 0.92592831E+02</pdfrwt>
<pdfrwt beam="1">  1       -2 0.10078729E-01 0.92592831E+02</pdfrwt>
<totfact> 0.86495242E+04</totfact>
</mgrwt>
</event>
<event>
 5    1  0.2809073E+000  0.9504710E+02  0.7818608E-02  0.1291070E+00
          2   -1    0    0  501    0  0.00000000000E+00  0.00000000000E+00  0.36940946732E+02  0.36940946824E+02  0.26000000000E-02 0. -1.
         -2   -1    0    0    0  501 -0.00000000000E+00 -0.00000000000E+00 -0.61137794465E+02  0.61137794520E+02  0.26000000000E-02 0.  1.
         23    2    1    2    0    0  0.00000000000E+00  0.00000000000E+00 -0.24196847732E+02  0.98078741344E+02  0.95047104445E+02 0.  0.
        -11    1    3    3    0    0  0.42510263425E+02  0.97403941097E+01 -0.31581602667E+02  0.53846034219E+02  0.51100000000E-03 0.  1.
         11    1    3    3    0    0 -0.42510263425E+02 -0.97403941097E+01  0.73847549351E+01  0.44232707125E+02  0.51100000000E-03 0. -1.
<mgrwt>
<rscale>  0 0.95047104E+02</rscale>
<asrwt>0</asrwt>
<pdfrwt beam="1">  1        2 0.56832226E-02 0.95047104E+02</pdfrwt>
<pdfrwt beam="2">  1       -2 0.94058145E-02 0.95047104E+02</pdfrwt>
<totfact> 0.82720966E+04</totfact>
</mgrwt>
</event>
<event>
 5    1  0.2809073E+000  0.9005292E+02  0.7818608E-02  0.1302724E+00
          2   -1    0    0  501    0  0.00000000000E+00  0.00000000000E+00  0.21794550055E+02  0.21794550210E+02  0.26000000000E-02 0. -1.
         -2   -1    0    0    0  501 -0.00000000000E+00 -0.00000000000E+00 -0.93022435640E+02  0.93022435676E+02  0.26000000000E-02 0.  1.
         23    2    1    2    0    0  0.00000000000E+00  0.00000000000E+00 -0.71227885585E+02  0.11481698589E+03  0.90052920902E+02 0.  0.
        -11    1    3    3    0    0 -0.26089239987E+02 -0.36377944909E+02 -0.41778752087E+02  0.61232895123E+02  0.51100000000E-03 0.  1.
         11    1    3    3    0    0  0.26089239987E+02  0.36377944909E+02 -0.29449133498E+02  0.53584090763E+02  0.51100000000E-03 0. -1.
<mgrwt>
<rscale>  0 0.90052921E+02</rscale>
<asrwt>0</asrwt>
<pdfrwt beam="1">  1        2 0.33530078E-02 0.90052921E+02</pdfrwt>
<pdfrwt beam="2">  1       -2 0.14311144E-01 0.90052921E+02</pdfrwt>
<totfact> 0.84066970E+04</totfact>
</mgrwt>
</event>
<event>
 5    1  0.2809073E+000  0.8888267E+02  0.7818608E-02  0.1305580E+00
         -2   -1    0    0    0  501 -0.00000000000E+00  0.00000000000E+00  0.12448608489E+03  0.12448608492E+03  0.26000000000E-02 0.  1.
          2   -1    0    0  501    0  0.00000000000E+00 -0.00000000000E+00 -0.15865486782E+02  0.15865486995E+02  0.26000000000E-02 0. -1.
         23    2    1    2    0    0  0.00000000000E+00  0.00000000000E+00  0.10862059811E+03  0.14035157192E+03  0.88882672132E+02 0.  0.
        -11    1    3    3    0    0  0.11407374837E+02 -0.29652696677E+02  0.10337890206E+03  0.10815085766E+03  0.51100000000E-03 0.  1.
         11    1    3    3    0    0 -0.11407374837E+02  0.29652696677E+02  0.52416960501E+01  0.32200714257E+02  0.51100000000E-03 0. -1.
<mgrwt>
<rscale>  0 0.88882672E+02</rscale>
<asrwt>0</asrwt>
<pdfrwt beam="2">  1        2 0.24408442E-02 0.88882672E+02</pdfrwt>
<pdfrwt beam="1">  1       -2 0.19151705E-01 0.88882672E+02</pdfrwt>
<totfact> 0.79442715E+04</totfact>
</mgrwt>
</event>
<event>
 5    1  0.2809073E+000  0.9149480E+02  0.7818608E-02  0.1299272E+00
          2   -1    0    0  501    0  0.00000000000E+00  0.00000000000E+00  0.34563233783E+02  0.34563233881E+02  0.26000000000E-02 0. -1.
         -2   -1    0    0    0  501 -0.00000000000E+00 -0.00000000000E+00 -0.60550596758E+02  0.60550596814E+02  0.26000000000E-02 0.  1.
         23    2    1    2    0    0  0.00000000000E+00  0.00000000000E+00 -0.25987362975E+02  0.95113830695E+02  0.91494796327E+02 0.  0.
        -11    1    3    3    0    0 -0.38952333975E+02  0.23256017965E+02 -0.68702071443E+01  0.45883836372E+02  0.51100000000E-03 0. -1.
         11    1    3    3    0    0  0.38952333975E+02 -0.23256017965E+02 -0.19117155831E+02  0.49229994323E+02  0.51100000000E-03 0.  1.
<mgrwt>
<rscale>  0 0.91494796E+02</rscale>
<asrwt>0</asrwt>
<pdfrwt beam="1">  1        2 0.53174206E-02 0.91494796E+02</pdfrwt>
<pdfrwt beam="2">  1       -2 0.93154764E-02 0.91494796E+02</pdfrwt>
<totfact> 0.90902135E+04</totfact>
</mgrwt>
</event>
<event>
 5    1  0.2809073E+000  0.9006765E+02  0.7818608E-02  0.1302688E+00
          2   -1    0    0  501    0  0.00000000000E+00  0.00000000000E+00  0.34706480381E+03  0.34706480382E+03  0.26000000000E-02 0. -1.
         -2   -1    0    0    0  501 -0.00000000000E+00 -0.00000000000E+00 -0.58434199446E+01  0.58434205230E+01  0.26000000000E-02 0.  1.
         23    2    1    2    0    0  0.00000000000E+00  0.00000000000E+00  0.34122138386E+03  0.35290822434E+03  0.90067652360E+02 0.  0.
        -11    1    3    3    0    0 -0.43092161115E+02  0.10895448604E+02  0.19897420570E+03  0.20387834531E+03  0.51100000000E-03 0. -1.
         11    1    3    3    0    0  0.43092161115E+02 -0.10895448604E+02  0.14224717816E+03  0.14902987903E+03  0.51100000000E-03 0.  1.
<mgrwt>
<rscale>  0 0.90067652E+02</rscale>
<asrwt>0</asrwt>
<pdfrwt beam="1">  1        2 0.53394581E-01 0.90067652E+02</pdfrwt>
<pdfrwt beam="2">  1       -2 0.89898780E-03 0.90067652E+02</pdfrwt>
<totfact> 0.19588116E+05</totfact>
</mgrwt>
</event>
<event>
 5    1  0.2809073E+000  0.9162944E+02  0.7818608E-02  0.1298953E+00
          2   -1    0    0  501    0  0.00000000000E+00  0.00000000000E+00  0.16407193670E+03  0.16407193672E+03  0.26000000000E-02 0. -1.
         -2   -1    0    0    0  501 -0.00000000000E+00 -0.00000000000E+00 -0.12793100041E+02  0.12793100305E+02  0.26000000000E-02 0.  1.
         23    2    1    2    0    0  0.00000000000E+00  0.00000000000E+00  0.15127883666E+03  0.17686503702E+03  0.91629443418E+02 0.  0.
        -11    1    3    3    0    0  0.16879742427E+02  0.27501425555E+02  0.12863178474E+02  0.34737810418E+02  0.51100000000E-03 0.  1.
         11    1    3    3    0    0 -0.16879742427E+02 -0.27501425555E+02  0.13841565818E+03  0.14212722661E+03  0.51100000000E-03 0. -1.
<mgrwt>
<rscale>  0 0.91629443E+02</rscale>
<asrwt>0</asrwt>
<pdfrwt beam="1">  1        2 0.25241835E-01 0.91629443E+02</pdfrwt>
<pdfrwt beam="2">  1       -2 0.19681694E-02 0.91629443E+02</pdfrwt>
<totfact> 0.14226304E+05</totfact>
</mgrwt>
</event>
<event>
 5    1  0.2809073E+000  0.9189304E+02  0.7818608E-02  0.1298331E+00
         -2   -1    0    0    0  501 -0.00000000000E+00  0.00000000000E+00  0.92650159976E+01  0.92650163624E+01  0.26000000000E-02 0.  1.
          2   -1    0    0  501    0  0.00000000000E+00 -0.00000000000E+00 -0.22785525040E+03  0.22785525042E+03  0.26000000000E-02 0. -1.
         23    2    1    2    0    0  0.00000000000E+00  0.00000000000E+00 -0.21859023440E+03  0.23712026678E+03  0.91893037497E+02 0.  0.
        -11    1    3    3    0    0  0.11638759328E+01 -0.39174785438E+02 -0.47415984232E+02  0.61516615497E+02  0.51100000000E-03 0. -1.
         11    1    3    3    0    0 -0.11638759328E+01  0.39174785438E+02 -0.17117425017E+03  0.17560365128E+03  0.51100000000E-03 0.  1.
<mgrwt>
<rscale>  0 0.91893037E+02</rscale>
<asrwt>0</asrwt>
<pdfrwt beam="2">  1        2 0.35054650E-01 0.91893037E+02</pdfrwt>
<pdfrwt beam="1">  1       -2 0.14253873E-02 0.91893037E+02</pdfrwt>
<totfact> 0.15883977E+05</totfact>
</mgrwt>
</event>
<event>
 5    1  0.2809073E+000  0.9348781E+02  0.7818608E-02  0.1294619E+00
         -2   -1    0    0    0  501 -0.00000000000E+00  0.00000000000E+00  0.30171574537E+02  0.30171574649E+02  0.26000000000E-02 0.  1.
          2   -1    0    0  501    0  0.00000000000E+00 -0.00000000000E+00 -0.72418906088E+02  0.72418906135E+02  0.26000000000E-02 0. -1.
         23    2    1    2    0    0  0.00000000000E+00  0.00000000000E+00 -0.42247331551E+02  0.10259048078E+03  0.93487805216E+02 0.  0.
        -11    1    3    3    0    0  0.11350922971E+02 -0.43952160723E+02 -0.88863426719E+01  0.46255842559E+02  0.51100000000E-03 0.  1.
         11    1    3    3    0    0 -0.11350922971E+02  0.43952160723E+02 -0.33360988880E+02  0.56334638224E+02  0.51100000000E-03 0. -1.
<mgrwt>
<rscale>  0 0.93487805E+02</rscale>
<asrwt>0</asrwt>
<pdfrwt beam="2">  1        2 0.11141370E-01 0.93487805E+02</pdfrwt>
<pdfrwt beam="1">  1       -2 0.46417807E-02 0.93487805E+02</pdfrwt>
<totfact> 0.10410793E+05</totfact>
</mgrwt>
</event>
<event>
 5    1  0.2809073E+000  0.1185565E+03  0.7818608E-02  0.1245498E+00
         -2   -1    0    0    0  501 -0.00000000000E+00  0.00000000000E+00  0.75241910881E+02  0.75241910926E+02  0.26000000000E-02 0.  1.
          2   -1    0    0  501    0  0.00000000000E+00 -0.00000000000E+00 -0.46701486755E+02  0.46701486827E+02  0.26000000000E-02 0. -1.
         23    2    1    2    0    0  0.00000000000E+00  0.00000000000E+00  0.28540424126E+02  0.12194339775E+03  0.11855646944E+03 0.  0.
        -11    1    3    3    0    0 -0.17809712739E+02 -0.32646357755E+01  0.72327985590E+02  0.74559916942E+02  0.51100000000E-03 0.  1.
         11    1    3    3    0    0  0.17809712739E+02  0.32646357755E+01 -0.43787561464E+02  0.47383480812E+02  0.51100000000E-03 0. -1.
<mgrwt>
<rscale>  0 0.11855647E+03</rscale>
<asrwt>0</asrwt>
<pdfrwt beam="2">  1        2 0.71848442E-02 0.11855647E+03</pdfrwt>
<pdfrwt beam="1">  1       -2 0.11575679E-01 0.11855647E+03</pdfrwt>
<totfact> 0.45753129E+04</totfact>
</mgrwt>
</event>
<event>
 5    1  0.2809073E+000  0.9124086E+02  0.7818608E-02  0.1299874E+00
          2   -1    0    0  501    0  0.00000000000E+00  0.00000000000E+00  0.28424731545E+03  0.28424731546E+03  0.26000000000E-02 0. -1.
         -2   -1    0    0    0  501 -0.00000000000E+00 -0.00000000000E+00 -0.73218752615E+01  0.73218757232E+01  0.26000000000E-02 0.  1.
         23    2    1    2    0    0  0.00000000000E+00  0.00000000000E+00  0.27692544019E+03  0.29156919119E+03  0.91240856116E+02 0.  0.
        -11    1    3    3    0    0 -0.29148666773E+02  0.34994292124E+02  0.14690430490E+03  0.15380221082E+03  0.51100000000E-03 0. -1.
         11    1    3    3    0    0  0.29148666773E+02 -0.34994292124E+02  0.13002113529E+03  0.13776698037E+03  0.51100000000E-03 0.  1.
<mgrwt>
<rscale>  0 0.91240856E+02</rscale>
<asrwt>0</asrwt>
<pdfrwt beam="1">  1        2 0.43730353E-01 0.91240856E+02</pdfrwt>
<pdfrwt beam="2">  1       -2 0.11264425E-02 0.91240856E+02</pdfrwt>
<totfact> 0.17575350E+05</totfact>
</mgrwt>
</event>
<event>
 5    1  0.2809073E+000  0.9195981E+02  0.7818608E-02  0.1298174E+00
          2   -1    0    0  501    0  0.00000000000E+00  0.00000000000E+00  0.54353715556E+02  0.54353715618E+02  0.26000000000E-02 0. -1.
         -2   -1    0    0    0  501 -0.00000000000E+00 -0.00000000000E+00 -0.38896171268E+02  0.38896171355E+02  0.26000000000E-02 0.  1.
         23    2    1    2    0    0  0.00000000000E+00  0.00000000000E+00  0.15457544288E+02  0.93249886973E+02  0.91959805051E+02 0.  0.
        -11    1    3    3    0    0 -0.16858441261E+02  0.32925078607E+02 -0.19965234959E+02  0.42034253297E+02  0.51100000000E-03 0.  1.
         11    1    3    3    0    0  0.16858441261E+02 -0.32925078607E+02  0.35422779247E+02  0.51215633676E+02  0.51100000000E-03 0. -1.
<mgrwt>
<rscale>  0 0.91959805E+02</rscale>
<asrwt>0</asrwt>
<pdfrwt beam="1">  1        2 0.83621101E-02 0.91959805E+02</pdfrwt>
<pdfrwt beam="2">  1       -2 0.59840264E-02 0.91959805E+02</pdfrwt>
<totfact> 0.10083720E+05</totfact>
</mgrwt>
</event>
<event>
 5    1  0.2809073E+000  0.9150623E+02  0.7818608E-02  0.1299245E+00
          2   -1    0    0  501    0  0.00000000000E+00  0.00000000000E+00  0.76749652637E+02  0.76749652682E+02  0.26000000000E-02 0. -1.
         -2   -1    0    0    0  501 -0.00000000000E+00 -0.00000000000E+00 -0.27275009827E+02  0.27275009951E+02  0.26000000000E-02 0.  1.
         23    2    1    2    0    0  0.00000000000E+00  0.00000000000E+00  0.49474642810E+02  0.10402466263E+03  0.91506230141E+02 0.  0.
        -11    1    3    3    0    0  0.40162354597E+02  0.14987157486E+02  0.65584785411E+01  0.43366383955E+02  0.51100000000E-03 0.  1.
         11    1    3    3    0    0 -0.40162354597E+02 -0.14987157486E+02  0.42916164269E+02  0.60658278678E+02  0.51100000000E-03 0. -1.
<mgrwt>
<rscale>  0 0.91506230E+02</rscale>
<asrwt>0</asrwt>
<pdfrwt beam="1">  1        2 0.11807639E-01 0.91506230E+02</pdfrwt>
<pdfrwt beam="2">  1       -2 0.41961553E-02 0.91506230E+02</pdfrwt>
<totfact> 0.11237272E+05</totfact>
</mgrwt>
</event>
<event>
 5    1  0.2809073E+000  0.9007382E+02  0.7818608E-02  0.1302673E+00
          2   -1    0    0  501    0  0.00000000000E+00  0.00000000000E+00  0.80665919657E+02  0.80665919699E+02  0.26000000000E-02 0. -1.
         -2   -1    0    0    0  501 -0.00000000000E+00 -0.00000000000E+00 -0.25144735356E+02  0.25144735490E+02  0.26000000000E-02 0.  1.
         23    2    1    2    0    0  0.00000000000E+00  0.00000000000E+00  0.55521184301E+02  0.10581065519E+03  0.90073818867E+02 0.  0.
        -11    1    3    3    0    0  0.10337880220E+01  0.22464907745E+02 -0.18076940488E+02  0.28853363328E+02  0.51100000000E-03 0.  1.
         11    1    3    3    0    0 -0.10337880220E+01 -0.22464907745E+02  0.73598124789E+02  0.76957291860E+02  0.51100000000E-03 0. -1.
<mgrwt>
<rscale>  0 0.90073819E+02</rscale>
<asrwt>0</asrwt>
<pdfrwt beam="1">  1        2 0.12410141E-01 0.90073819E+02</pdfrwt>
<pdfrwt beam="2">  1       -2 0.38684208E-02 0.90073819E+02</pdfrwt>
<totfact> 0.11908147E+05</totfact>
</mgrwt>
</event>
<event>
 5    1  0.2809073E+000  0.9197232E+02  0.7818608E-02  0.1298145E+00
         -2   -1    0    0    0  501 -0.00000000000E+00  0.00000000000E+00  0.24517834916E+02  0.24517835054E+02  0.26000000000E-02 0. -1.
          2   -1    0    0  501    0  0.00000000000E+00 -0.00000000000E+00 -0.86252594322E+02  0.86252594361E+02  0.26000000000E-02 0.  1.
         23    2    1    2    0    0  0.00000000000E+00  0.00000000000E+00 -0.61734759406E+02  0.11077042941E+03  0.91972319280E+02 0.  0.
        -11    1    3    3    0    0 -0.32289470054E+02 -0.23758678908E+02 -0.58003362206E+02  0.70508685474E+02  0.51100000000E-03 0.  1.
         11    1    3    3    0    0  0.32289470054E+02  0.23758678908E+02 -0.37313972003E+01  0.40261743941E+02  0.51100000000E-03 0. -1.
<mgrwt>
<rscale>  0 0.91972319E+02</rscale>
<asrwt>0</asrwt>
<pdfrwt beam="2">  1        2 0.13269630E-01 0.91972319E+02</pdfrwt>
<pdfrwt beam="1">  1       -2 0.37719747E-02 0.91972319E+02</pdfrwt>
<totfact> 0.11458643E+05</totfact>
</mgrwt>
</event>
<event>
 5    1  0.2809073E+000  0.9130529E+02  0.7818608E-02  0.1299721E+00
          2   -1    0    0  501    0  0.00000000000E+00  0.00000000000E+00  0.14410093729E+03  0.14410093731E+03  0.26000000000E-02 0. -1.
         -2   -1    0    0    0  501 -0.00000000000E+00 -0.00000000000E+00 -0.14463222339E+02  0.14463222572E+02  0.26000000000E-02 0.  1.
         23    2    1    2    0    0  0.00000000000E+00  0.00000000000E+00  0.12963771495E+03  0.15856415988E+03  0.91305288250E+02 0.  0.
        -11    1    3    3    0    0 -0.19254232505E+02 -0.12816640254E+02  0.13317207200E+03  0.13516579633E+03  0.51100000000E-03 0. -1.
         11    1    3    3    0    0  0.19254232505E+02  0.12816640254E+02 -0.35343570537E+01  0.23398363550E+02  0.51100000000E-03 0.  1.
<mgrwt>
<rscale>  0 0.91305288E+02</rscale>
<asrwt>0</asrwt>
<pdfrwt beam="1">  1        2 0.22169375E-01 0.91305288E+02</pdfrwt>
<pdfrwt beam="2">  1       -2 0.22251112E-02 0.91305288E+02</pdfrwt>
<totfact> 0.13739646E+05</totfact>
</mgrwt>
</event>
<event>
 5    1  0.2809073E+000  0.9257075E+02  0.7818608E-02  0.1296743E+00
          2   -1    0    0  501    0  0.00000000000E+00  0.00000000000E+00  0.14144078586E+03  0.14144078589E+03  0.26000000000E-02 0. -1.
         -2   -1    0    0    0  501 -0.00000000000E+00 -0.00000000000E+00 -0.15146520154E+02  0.15146520377E+02  0.26000000000E-02 0.  1.
         23    2    1    2    0    0  0.00000000000E+00  0.00000000000E+00  0.12629426571E+03  0.15658730626E+03  0.92570745552E+02 0.  0.
        -11    1    3    3    0    0 -0.32173848813E+02  0.87973050020E+01  0.11742920425E+03  0.12207443276E+03  0.51100000000E-03 0. -1.
         11    1    3    3    0    0  0.32173848813E+02 -0.87973050020E+01  0.88650614640E+01  0.34512873508E+02  0.51100000000E-03 0.  1.
<mgrwt>
<rscale>  0 0.92570746E+02</rscale>
<asrwt>0</asrwt>
<pdfrwt beam="1">  1        2 0.21760121E-01 0.92570746E+02</pdfrwt>
<pdfrwt beam="2">  1       -2 0.23302338E-02 0.92570746E+02</pdfrwt>
<totfact> 0.13151311E+05</totfact>
</mgrwt>
</event>
<event>
 5    1  0.2809073E+000  0.9076701E+02  0.7818608E-02  0.1301005E+00
         -2   -1    0    0    0  501 -0.00000000000E+00  0.00000000000E+00  0.36127364983E+03  0.36127364984E+03  0.26000000000E-02 0.  1.
          2   -1    0    0  501    0  0.00000000000E+00 -0.00000000000E+00 -0.57011146445E+01  0.57011152374E+01  0.26000000000E-02 0. -1.
         23    2    1    2    0    0  0.00000000000E+00  0.00000000000E+00  0.35557253518E+03  0.36697476507E+03  0.90767011765E+02 0.  0.
        -11    1    3    3    0    0  0.34164331497E+02  0.27569906208E+02  0.13127172805E+03  0.13841809080E+03  0.51100000000E-03 0.  1.
         11    1    3    3    0    0 -0.34164331497E+02 -0.27569906208E+02  0.22430080713E+03  0.22855667427E+03  0.51100000000E-03 0. -1.
<mgrwt>
<rscale>  0 0.90767012E+02</rscale>
<asrwt>0</asrwt>
<pdfrwt beam="2">  1        2 0.87709429E-03 0.90767012E+02</pdfrwt>
<pdfrwt beam="1">  1       -2 0.55580582E-01 0.90767012E+02</pdfrwt>
<totfact> 0.46171606E+04</totfact>
</mgrwt>
</event>
<event>
 5    1  0.2809073E+000  0.1032363E+03  0.7818608E-02  0.1273634E+00
         -2   -1    0    0    0  501 -0.00000000000E+00  0.00000000000E+00  0.74348699370E+01  0.74348703916E+01  0.26000000000E-02 0.  1.
          2   -1    0    0  501    0  0.00000000000E+00 -0.00000000000E+00 -0.35836980072E+03  0.35836980073E+03  0.26000000000E-02 0. -1.
         23    2    1    2    0    0  0.00000000000E+00  0.00000000000E+00 -0.35093493078E+03  0.36580467112E+03  0.10323629096E+03 0.  0.
        -11    1    3    3    0    0  0.51402757646E+02  0.34665881391E+01 -0.18676866711E+03  0.19374415021E+03  0.51100000000E-03 0.  1.
         11    1    3    3    0    0 -0.51402757646E+02 -0.34665881391E+01 -0.16416626367E+03  0.17206052091E+03  0.51100000000E-03 0. -1.
<mgrwt>
<rscale>  0 0.10323629E+03</rscale>
<asrwt>0</asrwt>
<pdfrwt beam="2">  1        2 0.55133802E-01 0.10323629E+03</pdfrwt>
<pdfrwt beam="1">  1       -2 0.11438265E-02 0.10323629E+03</pdfrwt>
<totfact> 0.13754897E+05</totfact>
</mgrwt>
</event>
<event>
 5    1  0.2809073E+000  0.9038764E+02  0.7818608E-02  0.1301916E+00
         -2   -1    0    0    0  501 -0.00000000000E+00  0.00000000000E+00  0.15806116800E+03  0.15806116802E+03  0.26000000000E-02 0.  1.
          2   -1    0    0  501    0  0.00000000000E+00 -0.00000000000E+00 -0.12922094892E+02  0.12922095154E+02  0.26000000000E-02 0. -1.
         23    2    1    2    0    0  0.00000000000E+00  0.00000000000E+00  0.14513907310E+03  0.17098326317E+03  0.90387641540E+02 0.  0.
        -11    1    3    3    0    0 -0.43892802724E+01  0.33640890184E+02  0.12905110149E+03  0.13343598491E+03  0.51100000000E-03 0.  1.
         11    1    3    3    0    0  0.43892802724E+01 -0.33640890184E+02  0.16087971615E+02  0.37547278258E+02  0.51100000000E-03 0. -1.
<mgrwt>
<rscale>  0 0.90387642E+02</rscale>
<asrwt>0</asrwt>
<pdfrwt beam="2">  1        2 0.19880147E-02 0.90387642E+02</pdfrwt>
<pdfrwt beam="1">  1       -2 0.24317102E-01 0.90387642E+02</pdfrwt>
<totfact> 0.70044857E+04</totfact>
</mgrwt>
</event>
<event>
 5    1  0.2809073E+000  0.8855845E+02  0.7818608E-02  0.1306381E+00
          2   -1    0    0  501    0  0.00000000000E+00  0.00000000000E+00  0.16550383316E+03  0.16550383319E+03  0.26000000000E-02 0. -1.
         -2   -1    0    0    0  501 -0.00000000000E+00 -0.00000000000E+00 -0.11846550906E+02  0.11846551191E+02  0.26000000000E-02 0.  1.
         23    2    1    2    0    0  0.00000000000E+00  0.00000000000E+00  0.15365728226E+03  0.17735038438E+03  0.88558446504E+02 0.  0.
        -11    1    3    3    0    0 -0.19001636073E+02 -0.38646081096E+02  0.97453644849E+02  0.10654480115E+03  0.51100000000E-03 0. -1.
         11    1    3    3    0    0  0.19001636073E+02  0.38646081096E+02  0.56203637411E+02  0.70805583226E+02  0.51100000000E-03 0.  1.
<mgrwt>
<rscale>  0 0.88558447E+02</rscale>
<asrwt>0</asrwt>
<pdfrwt beam="1">  1        2 0.25462126E-01 0.88558447E+02</pdfrwt>
<pdfrwt beam="2">  1       -2 0.18225464E-02 0.88558447E+02</pdfrwt>
<totfact> 0.15645402E+05</totfact>
</mgrwt>
</event>
<event>
 5    1  0.2809073E+000  0.1045941E+03  0.7818608E-02  0.1270921E+00
          2   -1    0    0  501    0  0.00000000000E+00  0.00000000000E+00  0.15611134718E+03  0.15611134720E+03  0.26000000000E-02 0. -1.
         -2   -1    0    0    0  501 -0.00000000000E+00 -0.00000000000E+00 -0.17519420828E+02  0.17519421021E+02  0.26000000000E-02 0.  1.
         23    2    1    2    0    0  0.00000000000E+00  0.00000000000E+00  0.13859192635E+03  0.17363076822E+03  0.10459408025E+03 0.  0.
        -11    1    3    3    0    0  0.18976828512E+02  0.39869471632E+02  0.22776638328E+02  0.49683699967E+02  0.51100000000E-03 0.  1.
         11    1    3    3    0    0 -0.18976828512E+02 -0.39869471632E+02  0.11581528802E+03  0.12394706826E+03  0.51100000000E-03 0. -1.
<mgrwt>
<rscale>  0 0.10459408E+03</rscale>
<asrwt>0</asrwt>
<pdfrwt beam="1">  1        2 0.24017130E-01 0.10459408E+03</pdfrwt>
<pdfrwt beam="2">  1       -2 0.26952956E-02 0.10459408E+03</pdfrwt>
<totfact> 0.97342790E+04</totfact>
</mgrwt>
</event>
<event>
 5    1  0.2809073E+000  0.9105769E+02  0.7818608E-02  0.1300310E+00
          2   -1    0    0  501    0  0.00000000000E+00  0.00000000000E+00  0.12611043800E+02  0.12611044068E+02  0.26000000000E-02 0. -1.
         -2   -1    0    0    0  501 -0.00000000000E+00 -0.00000000000E+00 -0.16436987839E+03  0.16436987841E+03  0.26000000000E-02 0.  1.
         23    2    1    2    0    0  0.00000000000E+00  0.00000000000E+00 -0.15175883459E+03  0.17698092248E+03  0.91057690754E+02 0.  0.
        -11    1    3    3    0    0  0.27208970361E+02  0.19705734433E+02 -0.13560344879E+03  0.13970303992E+03  0.51100000000E-03 0.  1.
         11    1    3    3    0    0 -0.27208970361E+02 -0.19705734433E+02 -0.16155385795E+02  0.37277882559E+02  0.51100000000E-03 0. -1.
<mgrwt>
<rscale>  0 0.91057691E+02</rscale>
<asrwt>0</asrwt>
<pdfrwt beam="1">  1        2 0.19401607E-02 0.91057691E+02</pdfrwt>
<pdfrwt beam="2">  1       -2 0.25287672E-01 0.91057691E+02</pdfrwt>
<totfact> 0.67733605E+04</totfact>
</mgrwt>
</event>
<event>
 5    1  0.2809073E+000  0.9169950E+02  0.7818608E-02  0.1298788E+00
         -2   -1    0    0    0  501 -0.00000000000E+00  0.00000000000E+00  0.10098534363E+02  0.10098534697E+02  0.26000000000E-02 0.  1.
          2   -1    0    0  501    0  0.00000000000E+00 -0.00000000000E+00 -0.20816876244E+03  0.20816876246E+03  0.26000000000E-02 0. -1.
         23    2    1    2    0    0  0.00000000000E+00  0.00000000000E+00 -0.19807022808E+03  0.21826729716E+03  0.91699497034E+02 0.  0.
        -11    1    3    3    0    0 -0.96134837591E+01  0.29491269850E+02 -0.18667183625E+02  0.36202455885E+02  0.51100000000E-03 0.  1.
         11    1    3    3    0    0  0.96134837591E+01 -0.29491269850E+02 -0.17940304446E+03  0.18206484127E+03  0.51100000000E-03 0. -1.
<mgrwt>
<rscale>  0 0.91699497E+02</rscale>
<asrwt>0</asrwt>
<pdfrwt beam="2">  1        2 0.32025960E-01 0.91699497E+02</pdfrwt>
<pdfrwt beam="1">  1       -2 0.15536209E-02 0.91699497E+02</pdfrwt>
<totfact> 0.15454465E+05</totfact>
</mgrwt>
</event>
<event>
 5    1  0.2809073E+000  0.7501912E+02  0.7818608E-02  0.1343812E+00
         -2   -1    0    0    0  501 -0.00000000000E+00  0.00000000000E+00  0.54377580146E+02  0.54377580208E+02  0.26000000000E-02 0. -1.
          2   -1    0    0  501    0  0.00000000000E+00 -0.00000000000E+00 -0.25874031361E+02  0.25874031492E+02  0.26000000000E-02 0.  1.
         23    2    1    2    0    0  0.00000000000E+00  0.00000000000E+00  0.28503548784E+02  0.80251611700E+02  0.75019123476E+02 0.  0.
        -11    1    3    3    0    0 -0.76692236278E+01 -0.20356296119E+02 -0.18437258386E+02  0.28515404255E+02  0.51100000000E-03 0.  1.
         11    1    3    3    0    0  0.76692236278E+01  0.20356296119E+02  0.46940807170E+02  0.51736207445E+02  0.51100000000E-03 0. -1.
<mgrwt>
<rscale>  0 0.75019123E+02</rscale>
<asrwt>0</asrwt>
<pdfrwt beam="2">  1        2 0.39806202E-02 0.75019123E+02</pdfrwt>
<pdfrwt beam="1">  1       -2 0.83657816E-02 0.75019123E+02</pdfrwt>
<totfact> 0.15066079E+05</totfact>
</mgrwt>
</event>
<event>
 5    1  0.2809073E+000  0.8743893E+02  0.7818608E-02  0.1309175E+00
         -2   -1    0    0    0  501 -0.00000000000E+00  0.00000000000E+00  0.44842693509E+02  0.44842693584E+02  0.26000000000E-02 0. -1.
          2   -1    0    0  501    0  0.00000000000E+00 -0.00000000000E+00 -0.42624369477E+02  0.42624369556E+02  0.26000000000E-02 0.  1.
         23    2    1    2    0    0  0.00000000000E+00  0.00000000000E+00  0.22183240319E+01  0.87467063140E+02  0.87438928246E+02 0.  0.
        -11    1    3    3    0    0  0.10002346299E+02  0.26898969223E+02 -0.31883112944E+02  0.42896787386E+02  0.51100000000E-03 0.  1.
         11    1    3    3    0    0 -0.10002346299E+02 -0.26898969223E+02  0.34101436976E+02  0.44570275755E+02  0.51100000000E-03 0. -1.
<mgrwt>
<rscale>  0 0.87438928E+02</rscale>
<asrwt>0</asrwt>
<pdfrwt beam="2">  1        2 0.65575953E-02 0.87438928E+02</pdfrwt>
<pdfrwt beam="1">  1       -2 0.68988759E-02 0.87438928E+02</pdfrwt>
<totfact> 0.10934129E+05</totfact>
</mgrwt>
</event>
<event>
 5    1  0.2809073E+000  0.9340019E+02  0.7818608E-02  0.1294820E+00
          2   -1    0    0  501    0  0.00000000000E+00  0.00000000000E+00  0.17935031270E+03  0.17935031272E+03  0.26000000000E-02 0. -1.
         -2   -1    0    0    0  501 -0.00000000000E+00 -0.00000000000E+00 -0.12159994143E+02  0.12159994421E+02  0.26000000000E-02 0.  1.
         23    2    1    2    0    0  0.00000000000E+00  0.00000000000E+00  0.16719031856E+03  0.19151030714E+03  0.93400188016E+02 0.  0.
        -11    1    3    3    0    0  0.20892661578E+02 -0.19465426757E+02  0.78265906190E+01  0.29608472903E+02  0.51100000000E-03 0.  1.
         11    1    3    3    0    0 -0.20892661578E+02  0.19465426757E+02  0.15936372794E+03  0.16190183424E+03  0.51100000000E-03 0. -1.
<mgrwt>
<rscale>  0 0.93400188E+02</rscale>
<asrwt>0</asrwt>
<pdfrwt beam="1">  1        2 0.27592355E-01 0.93400188E+02</pdfrwt>
<pdfrwt beam="2">  1       -2 0.18707684E-02 0.93400188E+02</pdfrwt>
<totfact> 0.13936662E+05</totfact>
</mgrwt>
</event>
<event>
 5    1  0.2809073E+000  0.6356398E+02  0.7818608E-02  0.1383456E+00
         -2   -1    0    0    0  501 -0.00000000000E+00  0.00000000000E+00  0.63178703704E+02  0.63178703758E+02  0.26000000000E-02 0. -1.
          2   -1    0    0  501    0  0.00000000000E+00 -0.00000000000E+00 -0.15987903685E+02  0.15987903896E+02  0.26000000000E-02 0.  1.
         23    2    1    2    0    0  0.00000000000E+00  0.00000000000E+00  0.47190800020E+02  0.79166607654E+02  0.63563984779E+02 0.  0.
        -11    1    3    3    0    0  0.57304545317E+01  0.22365813942E+02 -0.36067064836E+01  0.23368270675E+02  0.51100000000E-03 0.  1.
         11    1    3    3    0    0 -0.57304545317E+01 -0.22365813942E+02  0.50797506503E+02  0.55798336979E+02  0.51100000000E-03 0. -1.
<mgrwt>
<rscale>  0 0.63563985E+02</rscale>
<asrwt>0</asrwt>
<pdfrwt beam="2">  1        2 0.24596775E-02 0.63563985E+02</pdfrwt>
<pdfrwt beam="1">  1       -2 0.97198005E-02 0.63563985E+02</pdfrwt>
<totfact> 0.21804891E+05</totfact>
</mgrwt>
</event>
<event>
 5    1  0.2809073E+000  0.8853604E+02  0.7818608E-02  0.1306436E+00
         -2   -1    0    0    0  501 -0.00000000000E+00  0.00000000000E+00  0.91399496473E+02  0.91399496510E+02  0.26000000000E-02 0.  1.
          2   -1    0    0  501    0  0.00000000000E+00 -0.00000000000E+00 -0.21440573244E+02  0.21440573402E+02  0.26000000000E-02 0. -1.
         23    2    1    2    0    0  0.00000000000E+00  0.00000000000E+00  0.69958923229E+02  0.11284006991E+03  0.88536040336E+02 0.  0.
        -11    1    3    3    0    0 -0.16725020325E+02 -0.41497450524E+01  0.86949331123E+02  0.88640469718E+02  0.51100000000E-03 0.  1.
         11    1    3    3    0    0  0.16725020325E+02  0.41497450524E+01 -0.16990407894E+02  0.24199600194E+02  0.51100000000E-03 0. -1.
<mgrwt>
<rscale>  0 0.88536040E+02</rscale>
<asrwt>0</asrwt>
<pdfrwt beam="2">  1        2 0.32985498E-02 0.88536040E+02</pdfrwt>
<pdfrwt beam="1">  1       -2 0.14061461E-01 0.88536040E+02</pdfrwt>
<totfact> 0.88122610E+04</totfact>
</mgrwt>
</event>
<event>
 5    1  0.2809073E+000  0.9040237E+02  0.7818608E-02  0.1301880E+00
         -2   -1    0    0    0  501 -0.00000000000E+00  0.00000000000E+00  0.19334962534E+03  0.19334962536E+03  0.26000000000E-02 0.  1.
          2   -1    0    0  501    0  0.00000000000E+00 -0.00000000000E+00 -0.10567110827E+02  0.10567111147E+02  0.26000000000E-02 0. -1.
         23    2    1    2    0    0  0.00000000000E+00  0.00000000000E+00  0.18278251452E+03  0.20391673651E+03  0.90402366205E+02 0.  0.
        -11    1    3    3    0    0  0.32774941273E+02  0.21313074337E+02  0.14256550190E+03  0.14782884105E+03  0.51100000000E-03 0.  1.
         11    1    3    3    0    0 -0.32774941273E+02 -0.21313074337E+02  0.40217012612E+02  0.56087895457E+02  0.51100000000E-03 0. -1.
<mgrwt>
<rscale>  0 0.90402366E+02</rscale>
<asrwt>0</asrwt>
<pdfrwt beam="2">  1        2 0.16257095E-02 0.90402366E+02</pdfrwt>
<pdfrwt beam="1">  1       -2 0.29746093E-01 0.90402366E+02</pdfrwt>
<totfact> 0.64619020E+04</totfact>
</mgrwt>
</event>
<event>
 5    1  0.2809073E+000  0.9258727E+02  0.7818608E-02  0.1296704E+00
         -2   -1    0    0    0  501 -0.00000000000E+00  0.00000000000E+00  0.12878204455E+02  0.12878204717E+02  0.26000000000E-02 0. -1.
          2   -1    0    0  501    0  0.00000000000E+00 -0.00000000000E+00 -0.16641300147E+03  0.16641300149E+03  0.26000000000E-02 0.  1.
         23    2    1    2    0    0  0.00000000000E+00  0.00000000000E+00 -0.15353479702E+03  0.17929120621E+03  0.92587270879E+02 0.  0.
        -11    1    3    3    0    0  0.12707825689E+02  0.41455162235E+02 -0.10817630057E+03  0.11654240136E+03  0.51100000000E-03 0.  1.
         11    1    3    3    0    0 -0.12707825689E+02 -0.41455162235E+02 -0.45358496448E+02  0.62748804849E+02  0.51100000000E-03 0. -1.
<mgrwt>
<rscale>  0 0.92587271E+02</rscale>
<asrwt>0</asrwt>
<pdfrwt beam="2">  1        2 0.25601999E-01 0.92587271E+02</pdfrwt>
<pdfrwt beam="1">  1       -2 0.19812624E-02 0.92587271E+02</pdfrwt>
<totfact> 0.13899158E+05</totfact>
</mgrwt>
</event>
<event>
 5    1  0.2809073E+000  0.9278582E+02  0.7818608E-02  0.1296242E+00
          2   -1    0    0  501    0  0.00000000000E+00  0.00000000000E+00  0.10294795203E+03  0.10294795206E+03  0.26000000000E-02 0. -1.
         -2   -1    0    0    0  501 -0.00000000000E+00 -0.00000000000E+00 -0.20906703448E+02  0.20906703609E+02  0.26000000000E-02 0.  1.
         23    2    1    2    0    0  0.00000000000E+00  0.00000000000E+00  0.82041248579E+02  0.12385465567E+03  0.92785824685E+02 0.  0.
        -11    1    3    3    0    0 -0.29593174110E+02 -0.34097367621E+02  0.26773643327E+02  0.52490136310E+02  0.51100000000E-03 0. -1.
         11    1    3    3    0    0  0.29593174110E+02  0.34097367621E+02  0.55267605253E+02  0.71364519358E+02  0.51100000000E-03 0.  1.
<mgrwt>
<rscale>  0 0.92785825E+02</rscale>
<asrwt>0</asrwt>
<pdfrwt beam="1">  1        2 0.15838147E-01 0.92785825E+02</pdfrwt>
<pdfrwt beam="2">  1       -2 0.32164159E-02 0.92785825E+02</pdfrwt>
<totfact> 0.11794562E+05</totfact>
</mgrwt>
</event>
<event>
 5    1  0.2809073E+000  0.9427377E+02  0.7818608E-02  0.1292820E+00
         -2   -1    0    0    0  501 -0.00000000000E+00  0.00000000000E+00  0.75442806522E+01  0.75442811002E+01  0.26000000000E-02 0.  1.
          2   -1    0    0  501    0  0.00000000000E+00 -0.00000000000E+00 -0.29451260341E+03  0.29451260342E+03  0.26000000000E-02 0. -1.
         23    2    1    2    0    0  0.00000000000E+00  0.00000000000E+00 -0.28696832276E+03  0.30205688452E+03  0.94273767404E+02 0.  0.
        -11    1    3    3    0    0  0.46929671464E+02 -0.31770908197E+01 -0.13366189323E+03  0.14169682309E+03  0.51100000000E-03 0.  1.
         11    1    3    3    0    0 -0.46929671464E+02  0.31770908197E+01 -0.15330642953E+03  0.16036006144E+03  0.51100000000E-03 0. -1.
<mgrwt>
<rscale>  0 0.94273767E+02</rscale>
<asrwt>0</asrwt>
<pdfrwt beam="2">  1        2 0.45309623E-01 0.94273767E+02</pdfrwt>
<pdfrwt beam="1">  1       -2 0.11606588E-02 0.94273767E+02</pdfrwt>
<totfact> 0.16317390E+05</totfact>
</mgrwt>
</event>
<event>
 5    1  0.2809073E+000  0.9173045E+02  0.7818608E-02  0.1298714E+00
          2   -1    0    0  501    0  0.00000000000E+00  0.00000000000E+00  0.71289031825E+02  0.71289031873E+02  0.26000000000E-02 0. -1.
         -2   -1    0    0    0  501 -0.00000000000E+00 -0.00000000000E+00 -0.29508311281E+02  0.29508311396E+02  0.26000000000E-02 0.  1.
         23    2    1    2    0    0  0.00000000000E+00  0.00000000000E+00  0.41780720544E+02  0.10079734327E+03  0.91730451873E+02 0.  0.
        -11    1    3    3    0    0  0.37184335894E+02 -0.18079577655E+02 -0.92306592965E+00  0.41356958483E+02  0.51100000000E-03 0.  1.
         11    1    3    3    0    0 -0.37184335894E+02  0.18079577655E+02  0.42703786474E+02  0.59440384786E+02  0.51100000000E-03 0. -1.
<mgrwt>
<rscale>  0 0.91730452E+02</rscale>
<asrwt>0</asrwt>
<pdfrwt beam="1">  1        2 0.10967543E-01 0.91730452E+02</pdfrwt>
<pdfrwt beam="2">  1       -2 0.45397402E-02 0.91730452E+02</pdfrwt>
<totfact> 0.10931320E+05</totfact>
</mgrwt>
</event>
<event>
 5    1  0.2809073E+000  0.9136548E+02  0.7818608E-02  0.1299578E+00
          2   -1    0    0  501    0  0.00000000000E+00  0.00000000000E+00  0.88699723574E+02  0.88699723612E+02  0.26000000000E-02 0. -1.
         -2   -1    0    0    0  501 -0.00000000000E+00 -0.00000000000E+00 -0.23527839152E+02  0.23527839296E+02  0.26000000000E-02 0.  1.
         23    2    1    2    0    0  0.00000000000E+00  0.00000000000E+00  0.65171884422E+02  0.11222756291E+03  0.91365482306E+02 0.  0.
        -11    1    3    3    0    0  0.23483452014E+02  0.90198632843E+01 -0.14253518683E+02  0.28913547815E+02  0.51100000000E-03 0.  1.
         11    1    3    3    0    0 -0.23483452014E+02 -0.90198632843E+01  0.79425403105E+02  0.83314015093E+02  0.51100000000E-03 0. -1.
<mgrwt>
<rscale>  0 0.91365482E+02</rscale>
<asrwt>0</asrwt>
<pdfrwt beam="1">  1        2 0.13646111E-01 0.91365482E+02</pdfrwt>
<pdfrwt beam="2">  1       -2 0.36196676E-02 0.91365482E+02</pdfrwt>
<totfact> 0.11767344E+05</totfact>
</mgrwt>
</event>
<event>
 5    1  0.2809073E+000  0.8826936E+02  0.7818608E-02  0.1307098E+00
          2   -1    0    0  501    0  0.00000000000E+00  0.00000000000E+00  0.25877595624E+02  0.25877595755E+02  0.26000000000E-02 0. -1.
         -2   -1    0    0    0  501 -0.00000000000E+00 -0.00000000000E+00 -0.75272439685E+02  0.75272439730E+02  0.26000000000E-02 0.  1.
         23    2    1    2    0    0  0.00000000000E+00  0.00000000000E+00 -0.49394844061E+02  0.10115003548E+03  0.88269355151E+02 0.  0.
        -11    1    3    3    0    0  0.27201810298E+02 -0.41355949311E+01 -0.64241424916E+02  0.69885637325E+02  0.51100000000E-03 0.  1.
         11    1    3    3    0    0 -0.27201810298E+02  0.41355949311E+01  0.14846580854E+02  0.31264398159E+02  0.51100000000E-03 0. -1.
<mgrwt>
<rscale>  0 0.88269355E+02</rscale>
<asrwt>0</asrwt>
<pdfrwt beam="1">  1        2 0.39811686E-02 0.88269355E+02</pdfrwt>
<pdfrwt beam="2">  1       -2 0.11580375E-01 0.88269355E+02</pdfrwt>
<totfact> 0.93649814E+04</totfact>
</mgrwt>
</event>
<event>
 5    1  0.2809073E+000  0.1021778E+03  0.7818608E-02  0.1275782E+00
          2   -1    0    0  501    0  0.00000000000E+00  0.00000000000E+00  0.42887359631E+02  0.42887359709E+02  0.26000000000E-02 0. -1.
         -2   -1    0    0    0  501 -0.00000000000E+00 -0.00000000000E+00 -0.60858846480E+02  0.60858846535E+02  0.26000000000E-02 0.  1.
         23    2    1    2    0    0  0.00000000000E+00  0.00000000000E+00 -0.17971486849E+02  0.10374620624E+03  0.10217779099E+03 0.  0.
        -11    1    3    3    0    0 -0.70347565595E+01 -0.12209444842E+02 -0.58846730305E+02  0.60510296736E+02  0.51100000000E-03 0.  1.
         11    1    3    3    0    0  0.70347565595E+01  0.12209444842E+02  0.40875243456E+02  0.43235909509E+02  0.51100000000E-03 0. -1.
<mgrwt>
<rscale>  0 0.10217779E+03</rscale>
<asrwt>0</asrwt>
<pdfrwt beam="1">  1        2 0.65980553E-02 0.10217779E+03</pdfrwt>
<pdfrwt beam="2">  1       -2 0.93628995E-02 0.10217779E+03</pdfrwt>
<totfact> 0.69643641E+04</totfact>
</mgrwt>
</event>
<event>
 5    1  0.2809073E+000  0.9430929E+02  0.7818608E-02  0.1292739E+00
         -2   -1    0    0    0  501 -0.00000000000E+00  0.00000000000E+00  0.40527283459E+02  0.40527283542E+02  0.26000000000E-02 0.  1.
          2   -1    0    0  501    0  0.00000000000E+00 -0.00000000000E+00 -0.54865770785E+02  0.54865770847E+02  0.26000000000E-02 0. -1.
         23    2    1    2    0    0  0.00000000000E+00  0.00000000000E+00 -0.14338487327E+02  0.95393054389E+02  0.94309292261E+02 0.  0.
        -11    1    3    3    0    0  0.46728579604E+02  0.33999460660E+01 -0.17749612520E+01  0.46885715019E+02  0.51100000000E-03 0. -1.
         11    1    3    3    0    0 -0.46728579604E+02 -0.33999460660E+01 -0.12563526075E+02  0.48507339370E+02  0.51100000000E-03 0.  1.
<mgrwt>
<rscale>  0 0.94309292E+02</rscale>
<asrwt>0</asrwt>
<pdfrwt beam="2">  1        2 0.84408878E-02 0.94309292E+02</pdfrwt>
<pdfrwt beam="1">  1       -2 0.62349667E-02 0.94309292E+02</pdfrwt>
<totfact> 0.94077065E+04</totfact>
</mgrwt>
</event>
<event>
 5    1  0.2809073E+000  0.9336422E+02  0.7818608E-02  0.1294903E+00
          2   -1    0    0  501    0  0.00000000000E+00  0.00000000000E+00  0.23321169295E+03  0.23321169297E+03  0.26000000000E-02 0. -1.
         -2   -1    0    0    0  501 -0.00000000000E+00 -0.00000000000E+00 -0.93443831819E+01  0.93443835436E+01  0.26000000000E-02 0.  1.
         23    2    1    2    0    0  0.00000000000E+00  0.00000000000E+00  0.22386730977E+03  0.24255607651E+03  0.93364221565E+02 0.  0.
        -11    1    3    3    0    0  0.27021719539E+02  0.37967216415E+02  0.11906579591E+03  0.12786065307E+03  0.51100000000E-03 0.  1.
         11    1    3    3    0    0 -0.27021719539E+02 -0.37967216415E+02  0.10480151387E+03  0.11469542344E+03  0.51100000000E-03 0. -1.
<mgrwt>
<rscale>  0 0.93364222E+02</rscale>
<asrwt>0</asrwt>
<pdfrwt beam="1">  1        2 0.35878722E-01 0.93364222E+02</pdfrwt>
<pdfrwt beam="2">  1       -2 0.14375974E-02 0.93364222E+02</pdfrwt>
<totfact> 0.15350671E+05</totfact>
</mgrwt>
</event>
<event>
 5    1  0.2809073E+000  0.8944320E+02  0.7818608E-02  0.1304206E+00
          2   -1    0    0  501    0  0.00000000000E+00  0.00000000000E+00  0.18335655161E+03  0.18335655163E+03  0.26000000000E-02 0.  1.
         -2   -1    0    0    0  501 -0.00000000000E+00 -0.00000000000E+00 -0.10907826084E+02  0.10907826393E+02  0.26000000000E-02 0. -1.
         23    2    1    2    0    0  0.00000000000E+00  0.00000000000E+00  0.17244872553E+03  0.19426437802E+03  0.89443197800E+02 0.  0.
        -11    1    3    3    0    0 -0.88497367993E+01  0.43114144074E+02  0.10344629627E+03  0.11242012041E+03  0.51100000000E-03 0.  1.
         11    1    3    3    0    0  0.88497367993E+01 -0.43114144074E+02  0.69002429260E+02  0.81844257616E+02  0.51100000000E-03 0. -1.
<mgrwt>
<rscale>  0 0.89443198E+02</rscale>
<asrwt>0</asrwt>
<pdfrwt beam="1">  1        2 0.28208700E-01 0.89443198E+02</pdfrwt>
<pdfrwt beam="2">  1       -2 0.16781271E-02 0.89443198E+02</pdfrwt>
<totfact> 0.15788483E+05</totfact>
</mgrwt>
</event>
<event>
 5    1  0.2809073E+000  0.9292200E+02  0.7818608E-02  0.1295926E+00
         -2   -1    0    0    0  501 -0.00000000000E+00  0.00000000000E+00  0.24375900651E+02  0.24375900789E+02  0.26000000000E-02 0. -1.
          2   -1    0    0  501    0  0.00000000000E+00 -0.00000000000E+00 -0.88555675573E+02  0.88555675611E+02  0.26000000000E-02 0.  1.
         23    2    1    2    0    0  0.00000000000E+00  0.00000000000E+00 -0.64179774922E+02  0.11293157640E+03  0.92921996530E+02 0.  0.
        -11    1    3    3    0    0  0.44509612425E+02  0.77760366545E+01 -0.18941081831E+02  0.48993233466E+02  0.51100000000E-03 0. -1.
         11    1    3    3    0    0 -0.44509612425E+02 -0.77760366545E+01 -0.45238693092E+02  0.63938342934E+02  0.51100000000E-03 0.  1.
<mgrwt>
<rscale>  0 0.92921997E+02</rscale>
<asrwt>0</asrwt>
<pdfrwt beam="2">  1        2 0.13623950E-01 0.92921997E+02</pdfrwt>
<pdfrwt beam="1">  1       -2 0.37501386E-02 0.92921997E+02</pdfrwt>
<totfact> 0.11223318E+05</totfact>
</mgrwt>
</event>
<event>
 5    1  0.2809073E+000  0.8253058E+02  0.7818608E-02  0.1322020E+00
          2   -1    0    0  501    0  0.00000000000E+00  0.00000000000E+00  0.89837743074E+02  0.89837743111E+02  0.26000000000E-02 0.  1.
         -2   -1    0    0    0  501 -0.00000000000E+00 -0.00000000000E+00 -0.18954440716E+02  0.18954440894E+02  0.26000000000E-02 0. -1.
         23    2    1    2    0    0  0.00000000000E+00  0.00000000000E+00  0.70883302358E+02  0.10879218401E+03  0.82530580681E+02 0.  0.
        -11    1    3    3    0    0 -0.10866374242E+02 -0.10866421551E+02  0.85925045988E+02  0.87288434142E+02  0.51100000000E-03 0.  1.
         11    1    3    3    0    0  0.10866374242E+02  0.10866421551E+02 -0.15041743631E+02  0.21503749864E+02  0.51100000000E-03 0. -1.
<mgrwt>
<rscale>  0 0.82530581E+02</rscale>
<asrwt>0</asrwt>
<pdfrwt beam="1">  1        2 0.13821191E-01 0.82530581E+02</pdfrwt>
<pdfrwt beam="2">  1       -2 0.29160678E-02 0.82530581E+02</pdfrwt>
<totfact> 0.15612488E+05</totfact>
</mgrwt>
</event>
<event>
 5    1  0.2809073E+000  0.9195636E+02  0.7818608E-02  0.1298182E+00
          2   -1    0    0  501    0  0.00000000000E+00  0.00000000000E+00  0.61609603533E+02  0.61609603588E+02  0.26000000000E-02 0.  1.
         -2   -1    0    0    0  501 -0.00000000000E+00 -0.00000000000E+00 -0.34312720013E+02  0.34312720111E+02  0.26000000000E-02 0. -1.
         23    2    1    2    0    0  0.00000000000E+00  0.00000000000E+00  0.27296883521E+02  0.95922323699E+02  0.91956361030E+02 0.  0.
        -11    1    3    3    0    0 -0.19692020265E+02 -0.31949100203E+02 -0.14057820024E+02  0.40076713563E+02  0.51100000000E-03 0. -1.
         11    1    3    3    0    0  0.19692020265E+02  0.31949100203E+02  0.41354703545E+02  0.55845610136E+02  0.51100000000E-03 0.  1.
<mgrwt>
<rscale>  0 0.91956361E+02</rscale>
<asrwt>0</asrwt>
<pdfrwt beam="1">  1        2 0.94784005E-02 0.91956361E+02</pdfrwt>
<pdfrwt beam="2">  1       -2 0.52788800E-02 0.91956361E+02</pdfrwt>
<totfact> 0.10429196E+05</totfact>
</mgrwt>
</event>
<event>
 5    1  0.2809073E+000  0.9291559E+02  0.7818608E-02  0.1295941E+00
         -2   -1    0    0    0  501 -0.00000000000E+00  0.00000000000E+00  0.34597711236E+02  0.34597711333E+02  0.26000000000E-02 0.  1.
          2   -1    0    0  501    0  0.00000000000E+00 -0.00000000000E+00 -0.62383508175E+02  0.62383508229E+02  0.26000000000E-02 0. -1.
         23    2    1    2    0    0  0.00000000000E+00  0.00000000000E+00 -0.27785796940E+02  0.96981219562E+02  0.92915587693E+02 0.  0.
        -11    1    3    3    0    0  0.22820039037E+02  0.24573607637E+02 -0.47451084030E+02  0.58105264390E+02  0.51100000000E-03 0. -1.
         11    1    3    3    0    0 -0.22820039037E+02 -0.24573607637E+02  0.19665287090E+02  0.38875955173E+02  0.51100000000E-03 0.  1.
<mgrwt>
<rscale>  0 0.92915588E+02</rscale>
<asrwt>0</asrwt>
<pdfrwt beam="2">  1        2 0.95974628E-02 0.92915588E+02</pdfrwt>
<pdfrwt beam="1">  1       -2 0.53227248E-02 0.92915588E+02</pdfrwt>
<totfact> 0.10162356E+05</totfact>
</mgrwt>
</event>
<event>
 5    1  0.2809073E+000  0.9267204E+02  0.7818608E-02  0.1296507E+00
         -2   -1    0    0    0  501 -0.00000000000E+00  0.00000000000E+00  0.71739150681E+01  0.71739155393E+01  0.26000000000E-02 0.  1.
          2   -1    0    0  501    0  0.00000000000E+00 -0.00000000000E+00 -0.29928244794E+03  0.29928244795E+03  0.26000000000E-02 0. -1.
         23    2    1    2    0    0  0.00000000000E+00  0.00000000000E+00 -0.29210853287E+03  0.30645636349E+03  0.92672044044E+02 0.  0.
        -11    1    3    3    0    0  0.44769439911E+02 -0.27887245642E+01 -0.10763917744E+03  0.11661163002E+03  0.51100000000E-03 0.  1.
         11    1    3    3    0    0 -0.44769439911E+02  0.27887245642E+01 -0.18446935543E+03  0.18984473347E+03  0.51100000000E-03 0. -1.
<mgrwt>
<rscale>  0 0.92672044E+02</rscale>
<asrwt>0</asrwt>
<pdfrwt beam="2">  1        2 0.46043444E-01 0.92672044E+02</pdfrwt>
<pdfrwt beam="1">  1       -2 0.11036795E-02 0.92672044E+02</pdfrwt>
<totfact> 0.17186447E+05</totfact>
</mgrwt>
</event>
<event>
 5    1  0.2809073E+000  0.8030149E+02  0.7818608E-02  0.1328198E+00
          2   -1    0    0  501    0  0.00000000000E+00  0.00000000000E+00  0.69506276576E+02  0.69506276624E+02  0.26000000000E-02 0. -1.
         -2   -1    0    0    0  501 -0.00000000000E+00 -0.00000000000E+00 -0.23193333491E+02  0.23193333637E+02  0.26000000000E-02 0.  1.
         23    2    1    2    0    0  0.00000000000E+00  0.00000000000E+00  0.46312943085E+02  0.92699610261E+02  0.80301488438E+02 0.  0.
        -11    1    3    3    0    0 -0.29821308423E+02  0.17202059062E+02  0.47006974735E+02  0.58265572563E+02  0.51100000000E-03 0. -1.
         11    1    3    3    0    0  0.29821308423E+02 -0.17202059062E+02 -0.69403165072E+00  0.34434037698E+02  0.51100000000E-03 0.  1.
<mgrwt>
<rscale>  0 0.80301488E+02</rscale>
<asrwt>0</asrwt>
<pdfrwt beam="1">  1        2 0.10693273E-01 0.80301488E+02</pdfrwt>
<pdfrwt beam="2">  1       -2 0.35682052E-02 0.80301488E+02</pdfrwt>
<totfact> 0.15690682E+05</totfact>
</mgrwt>
</event>
<event>
 5    1  0.2809073E+000  0.6313620E+02  0.7818608E-02  0.1385123E+00
         -2   -1    0    0    0  501 -0.00000000000E+00  0.00000000000E+00  0.15556685886E+02  0.15556686103E+02  0.26000000000E-02 0.  1.
          2   -1    0    0  501    0  0.00000000000E+00 -0.00000000000E+00 -0.64058947486E+02  0.64058947538E+02  0.26000000000E-02 0. -1.
         23    2    1    2    0    0  0.00000000000E+00  0.00000000000E+00 -0.48502261600E+02  0.79615633641E+02  0.63136199916E+02 0.  0.
        -11    1    3    3    0    0  0.21215360095E+02 -0.15900906136E+02 -0.45858841255E+02  0.52971347363E+02  0.51100000000E-03 0. -1.
         11    1    3    3    0    0 -0.21215360095E+02  0.15900906136E+02 -0.26434203450E+01  0.26644286279E+02  0.51100000000E-03 0.  1.
<mgrwt>
<rscale>  0 0.63136200E+02</rscale>
<asrwt>0</asrwt>
<pdfrwt beam="2">  1        2 0.98552226E-02 0.63136200E+02</pdfrwt>
<pdfrwt beam="1">  1       -2 0.23933363E-02 0.63136200E+02</pdfrwt>
<totfact> 0.29391174E+05</totfact>
</mgrwt>
</event>
<event>
 5    1  0.2809073E+000  0.6164040E+02  0.7818608E-02  0.1391074E+00
          2   -1    0    0  501    0  0.00000000000E+00  0.00000000000E+00  0.44825715120E+02  0.44825715195E+02  0.26000000000E-02 0.  1.
         -2   -1    0    0    0  501 -0.00000000000E+00 -0.00000000000E+00 -0.21190617740E+02  0.21190617900E+02  0.26000000000E-02 0. -1.
         23    2    1    2    0    0  0.00000000000E+00  0.00000000000E+00  0.23635097380E+02  0.66016333095E+02  0.61640395903E+02 0.  0.
        -11    1    3    3    0    0  0.15808001187E+02  0.25589396868E+02  0.19015891100E+02  0.35585309443E+02  0.51100000000E-03 0.  1.
         11    1    3    3    0    0 -0.15808001187E+02 -0.25589396868E+02  0.46192062794E+01  0.30431023652E+02  0.51100000000E-03 0. -1.
<mgrwt>
<rscale>  0 0.61640396E+02</rscale>
<asrwt>0</asrwt>
<pdfrwt beam="1">  1        2 0.68962638E-02 0.61640396E+02</pdfrwt>
<pdfrwt beam="2">  1       -2 0.32600951E-02 0.61640396E+02</pdfrwt>
<totfact> 0.29018408E+05</totfact>
</mgrwt>
</event>
<event>
 5    1  0.2809073E+000  0.9081340E+02  0.7818608E-02  0.1300894E+00
          2   -1    0    0  501    0  0.00000000000E+00  0.00000000000E+00  0.76266437392E+02  0.76266437436E+02  0.26000000000E-02 0. -1.
         -2   -1    0    0    0  501 -0.00000000000E+00 -0.00000000000E+00 -0.27033758119E+02  0.27033758244E+02  0.26000000000E-02 0.  1.
         23    2    1    2    0    0  0.00000000000E+00  0.00000000000E+00  0.49232679273E+02  0.10330019568E+03  0.90813400548E+02 0.  0.
        -11    1    3    3    0    0 -0.35942365009E+02  0.21204354458E+02  0.44973772773E+02  0.61352412244E+02  0.51100000000E-03 0. -1.
         11    1    3    3    0    0  0.35942365009E+02 -0.21204354458E+02  0.42589064997E+01  0.41947783436E+02  0.51100000000E-03 0.  1.
<mgrwt>
<rscale>  0 0.90813401E+02</rscale>
<asrwt>0</asrwt>
<pdfrwt beam="1">  1        2 0.11733298E-01 0.90813401E+02</pdfrwt>
<pdfrwt beam="2">  1       -2 0.41590398E-02 0.90813401E+02</pdfrwt>
<totfact> 0.11457263E+05</totfact>
</mgrwt>
</event>
<event>
 5    1  0.2809073E+000  0.9471769E+02  0.7818608E-02  0.1291813E+00
          2   -1    0    0  501    0  0.00000000000E+00  0.00000000000E+00  0.38702362940E+03  0.38702362941E+03  0.26000000000E-02 0. -1.
         -2   -1    0    0    0  501 -0.00000000000E+00 -0.00000000000E+00 -0.57951496629E+01  0.57951502461E+01  0.26000000000E-02 0.  1.
         23    2    1    2    0    0  0.00000000000E+00  0.00000000000E+00  0.38122847974E+03  0.39281877966E+03  0.94717685185E+02 0.  0.
        -11    1    3    3    0    0 -0.13157831201E+02 -0.42531749991E+02  0.12364124562E+03  0.13141246478E+03  0.51100000000E-03 0.  1.
         11    1    3    3    0    0  0.13157831201E+02  0.42531749991E+02  0.25758723412E+03  0.26140631488E+03  0.51100000000E-03 0. -1.
<mgrwt>
<rscale>  0 0.94717685E+02</rscale>
<asrwt>0</asrwt>
<pdfrwt beam="1">  1        2 0.59542128E-01 0.94717685E+02</pdfrwt>
<pdfrwt beam="2">  1       -2 0.89156106E-03 0.94717685E+02</pdfrwt>
<totfact> 0.17824182E+05</totfact>
</mgrwt>
</event>
<event>
 5    1  0.2809073E+000  0.8870047E+02  0.7818608E-02  0.1306030E+00
          2   -1    0    0  501    0  0.00000000000E+00  0.00000000000E+00  0.23004416205E+02  0.23004416352E+02  0.26000000000E-02 0. -1.
         -2   -1    0    0    0  501 -0.00000000000E+00 -0.00000000000E+00 -0.85502851639E+02  0.85502851678E+02  0.26000000000E-02 0.  1.
         23    2    1    2    0    0  0.00000000000E+00  0.00000000000E+00 -0.62498435434E+02  0.10850726803E+03  0.88700466649E+02 0.  0.
        -11    1    3    3    0    0 -0.26719614728E+02 -0.29482813941E+02 -0.72847433673E+01  0.40450483498E+02  0.51100000000E-03 0. -1.
         11    1    3    3    0    0  0.26719614728E+02  0.29482813941E+02 -0.55213692066E+02  0.68056784532E+02  0.51100000000E-03 0.  1.
<mgrwt>
<rscale>  0 0.88700467E+02</rscale>
<asrwt>0</asrwt>
<pdfrwt beam="1">  1        2 0.35391410E-02 0.88700467E+02</pdfrwt>
<pdfrwt beam="2">  1       -2 0.13154285E-01 0.88700467E+02</pdfrwt>
<totfact> 0.89381216E+04</totfact>
</mgrwt>
</event>
<event>
 5    1  0.2809073E+000  0.8971934E+02  0.7818608E-02  0.1303533E+00
          2   -1    0    0  501    0  0.00000000000E+00  0.00000000000E+00  0.39841759403E+02  0.39841759488E+02  0.26000000000E-02 0.  1.
         -2   -1    0    0    0  501 -0.00000000000E+00 -0.00000000000E+00 -0.50509569429E+02  0.50509569496E+02  0.26000000000E-02 0. -1.
         23    2    1    2    0    0  0.00000000000E+00  0.00000000000E+00 -0.10667810026E+02  0.90351328984E+02  0.89719342834E+02 0.  0.
        -11    1    3    3    0    0  0.16264259093E+02 -0.40117700179E+02 -0.17182587062E+02  0.46574642134E+02  0.51100000000E-03 0.  1.
         11    1    3    3    0    0 -0.16264259093E+02  0.40117700179E+02  0.65147770361E+01  0.43776686850E+02  0.51100000000E-03 0. -1.
<mgrwt>
<rscale>  0 0.89719343E+02</rscale>
<asrwt>0</asrwt>
<pdfrwt beam="1">  1        2 0.61295015E-02 0.89719343E+02</pdfrwt>
<pdfrwt beam="2">  1       -2 0.77707030E-02 0.89719343E+02</pdfrwt>
<totfact> 0.99833726E+04</totfact>
</mgrwt>
</event>
<event>
 5    1  0.2809073E+000  0.9093370E+02  0.7818608E-02  0.1300606E+00
          2   -1    0    0  501    0  0.00000000000E+00  0.00000000000E+00  0.20474081064E+03  0.20474081065E+03  0.26000000000E-02 0. -1.
         -2   -1    0    0    0  501 -0.00000000000E+00 -0.00000000000E+00 -0.10096836540E+02  0.10096836875E+02  0.26000000000E-02 0.  1.
         23    2    1    2    0    0  0.00000000000E+00  0.00000000000E+00  0.19464397410E+03  0.21483764753E+03  0.90933701911E+02 0.  0.
        -11    1    3    3    0    0 -0.73958837229E+01  0.31675299359E+02  0.22267532670E+02  0.39419115883E+02  0.51100000000E-03 0.  1.
         11    1    3    3    0    0  0.73958837229E+01 -0.31675299359E+02  0.17237644143E+03  0.17541853165E+03  0.51100000000E-03 0. -1.
<mgrwt>
<rscale>  0 0.90933702E+02</rscale>
<asrwt>0</asrwt>
<pdfrwt beam="1">  1        2 0.31498587E-01 0.90933702E+02</pdfrwt>
<pdfrwt beam="2">  1       -2 0.15533595E-02 0.90933702E+02</pdfrwt>
<totfact> 0.15712278E+05</totfact>
</mgrwt>
</event>
<event>
 5    1  0.2809073E+000  0.9135901E+02  0.7818608E-02  0.1299594E+00
         -2   -1    0    0    0  501 -0.00000000000E+00  0.00000000000E+00  0.31051939636E+02  0.31051939745E+02  0.26000000000E-02 0.  1.
          2   -1    0    0  501    0  0.00000000000E+00 -0.00000000000E+00 -0.67197639967E+02  0.67197640017E+02  0.26000000000E-02 0. -1.
         23    2    1    2    0    0  0.00000000000E+00  0.00000000000E+00 -0.36145700331E+02  0.98249579762E+02  0.91359007608E+02 0.  0.
        -11    1    3    3    0    0  0.41355872621E+02 -0.18775821083E+02 -0.23316837099E+02  0.51054035591E+02  0.51100000000E-03 0.  1.
         11    1    3    3    0    0 -0.41355872621E+02  0.18775821083E+02 -0.12828863232E+02  0.47195544171E+02  0.51100000000E-03 0. -1.
<mgrwt>
<rscale>  0 0.91359008E+02</rscale>
<asrwt>0</asrwt>
<pdfrwt beam="2">  1        2 0.10338098E-01 0.91359008E+02</pdfrwt>
<pdfrwt beam="1">  1       -2 0.47772215E-02 0.91359008E+02</pdfrwt>
<totfact> 0.10876912E+05</totfact>
</mgrwt>
</event>
<event>
 5    1  0.2809073E+000  0.9027182E+02  0.7818608E-02  0.1302195E+00
          2   -1    0    0  501    0  0.00000000000E+00  0.00000000000E+00  0.91772743955E+01  0.91772747638E+01  0.26000000000E-02 0. -1.
         -2   -1    0    0    0  501 -0.00000000000E+00 -0.00000000000E+00 -0.22198862325E+03  0.22198862326E+03  0.26000000000E-02 0.  1.
         23    2    1    2    0    0  0.00000000000E+00  0.00000000000E+00 -0.21281134885E+03  0.23116589803E+03  0.90271824011E+02 0.  0.
        -11    1    3    3    0    0 -0.34854338433E+02  0.21259995693E+02 -0.57119007689E+02  0.70209638684E+02  0.51100000000E-03 0. -1.
         11    1    3    3    0    0  0.34854338433E+02 -0.21259995693E+02 -0.15569234116E+03  0.16095625934E+03  0.51100000000E-03 0.  1.
<mgrwt>
<rscale>  0 0.90271824E+02</rscale>
<asrwt>0</asrwt>
<pdfrwt beam="1">  1        2 0.14118886E-02 0.90271824E+02</pdfrwt>
<pdfrwt beam="2">  1       -2 0.34152092E-01 0.90271824E+02</pdfrwt>
<totfact> 0.61014899E+04</totfact>
</mgrwt>
</event>
<event>
 5    1  0.2809073E+000  0.8667856E+02  0.7818608E-02  0.1311100E+00
          2   -1    0    0  501    0  0.00000000000E+00  0.00000000000E+00  0.10406286326E+03  0.10406286329E+03  0.26000000000E-02 0. -1.
         -2   -1    0    0    0  501 -0.00000000000E+00 -0.00000000000E+00 -0.18049602238E+02  0.18049602425E+02  0.26000000000E-02 0.  1.
         23    2    1    2    0    0  0.00000000000E+00  0.00000000000E+00  0.86013261020E+02  0.12211246572E+03  0.86678562585E+02 0.  0.
        -11    1    3    3    0    0  0.21289088271E+02  0.49243861584E+01 -0.97211178121E+01  0.23915998625E+02  0.51100000000E-03 0.  1.
         11    1    3    3    0    0 -0.21289088271E+02 -0.49243861584E+01  0.95734378832E+02  0.98196467091E+02  0.51100000000E-03 0. -1.
<mgrwt>
<rscale>  0 0.86678563E+02</rscale>
<asrwt>0</asrwt>
<pdfrwt beam="1">  1        2 0.16009671E-01 0.86678563E+02</pdfrwt>
<pdfrwt beam="2">  1       -2 0.27768620E-02 0.86678563E+02</pdfrwt>
<totfact> 0.14262097E+05</totfact>
</mgrwt>
</event>
<event>
 5    1  0.2809073E+000  0.9006282E+02  0.7818608E-02  0.1302700E+00
          2   -1    0    0  501    0  0.00000000000E+00  0.00000000000E+00  0.77237914399E+02  0.77237914443E+02  0.26000000000E-02 0.  1.
         -2   -1    0    0    0  501 -0.00000000000E+00 -0.00000000000E+00 -0.26254306017E+02  0.26254306146E+02  0.26000000000E-02 0. -1.
         23    2    1    2    0    0  0.00000000000E+00  0.00000000000E+00  0.50983608382E+02  0.10349222059E+03  0.90062819180E+02 0.  0.
        -11    1    3    3    0    0  0.15297209965E+02 -0.36008021375E+01 -0.23000938258E+02  0.27857020116E+02  0.51100000000E-03 0. -1.
         11    1    3    3    0    0 -0.15297209965E+02  0.36008021375E+01  0.73984546640E+02  0.75635200473E+02  0.51100000000E-03 0.  1.
<mgrwt>
<rscale>  0 0.90062819E+02</rscale>
<asrwt>0</asrwt>
<pdfrwt beam="1">  1        2 0.11882756E-01 0.90062819E+02</pdfrwt>
<pdfrwt beam="2">  1       -2 0.40391240E-02 0.90062819E+02</pdfrwt>
<totfact> 0.11766430E+05</totfact>
</mgrwt>
</event>
<event>
 5    1  0.2809073E+000  0.9024505E+02  0.7818608E-02  0.1302259E+00
          2   -1    0    0  501    0  0.00000000000E+00  0.00000000000E+00  0.35586316125E+03  0.35586316126E+03  0.26000000000E-02 0.  1.
         -2   -1    0    0    0  501 -0.00000000000E+00 -0.00000000000E+00 -0.57214181963E+01  0.57214187870E+01  0.26000000000E-02 0. -1.
         23    2    1    2    0    0  0.00000000000E+00  0.00000000000E+00  0.35014174305E+03  0.36158458004E+03  0.90245045840E+02 0.  0.
        -11    1    3    3    0    0  0.41477196363E+02 -0.93669180125E+01  0.11457835315E+03  0.12221413986E+03  0.51100000000E-03 0. -1.
         11    1    3    3    0    0 -0.41477196363E+02  0.93669180125E+01  0.23556338991E+03  0.23937044019E+03  0.51100000000E-03 0.  1.
<mgrwt>
<rscale>  0 0.90245046E+02</rscale>
<asrwt>0</asrwt>
<pdfrwt beam="1">  1        2 0.54748190E-01 0.90245046E+02</pdfrwt>
<pdfrwt beam="2">  1       -2 0.88021805E-03 0.90245046E+02</pdfrwt>
<totfact> 0.19665026E+05</totfact>
</mgrwt>
</event>
<event>
 5    1  0.2809073E+000  0.8948509E+02  0.7818608E-02  0.1304103E+00
         -2   -1    0    0    0  501 -0.00000000000E+00  0.00000000000E+00  0.65740543839E+01  0.65740548981E+01  0.26000000000E-02 0.  1.
          2   -1    0    0  501    0  0.00000000000E+00 -0.00000000000E+00 -0.30451455314E+03  0.30451455315E+03  0.26000000000E-02 0. -1.
         23    2    1    2    0    0  0.00000000000E+00  0.00000000000E+00 -0.29794049875E+03  0.31108860805E+03  0.89485089590E+02 0.  0.
        -11    1    3    3    0    0  0.50631712164E+00  0.44530707023E+02 -0.13395501558E+03  0.14116368664E+03  0.51100000000E-03 0.  1.
         11    1    3    3    0    0 -0.50631712164E+00 -0.44530707023E+02 -0.16398548317E+03  0.16992492141E+03  0.51100000000E-03 0. -1.
<mgrwt>
<rscale>  0 0.89485090E+02</rscale>
<asrwt>0</asrwt>
<pdfrwt beam="2">  1        2 0.46848382E-01 0.89485090E+02</pdfrwt>
<pdfrwt beam="1">  1       -2 0.10113933E-02 0.89485090E+02</pdfrwt>
<totfact> 0.18990164E+05</totfact>
</mgrwt>
</event>
<event>
 5    1  0.2809073E+000  0.8899788E+02  0.7818608E-02  0.1305297E+00
          2   -1    0    0  501    0  0.00000000000E+00  0.00000000000E+00  0.32566804430E+02  0.32566804534E+02  0.26000000000E-02 0. -1.
         -2   -1    0    0    0  501 -0.00000000000E+00 -0.00000000000E+00 -0.60802888949E+02  0.60802889005E+02  0.26000000000E-02 0.  1.
         23    2    1    2    0    0  0.00000000000E+00  0.00000000000E+00 -0.28236084519E+02  0.93369693539E+02  0.88997883135E+02 0.  0.
        -11    1    3    3    0    0  0.19691924490E+02 -0.10925342477E+02 -0.54383319761E+02  0.58861536396E+02  0.51100000000E-03 0.  1.
         11    1    3    3    0    0 -0.19691924490E+02  0.10925342477E+02  0.26147235242E+02  0.34508157143E+02  0.51100000000E-03 0. -1.
<mgrwt>
<rscale>  0 0.88997883E+02</rscale>
<asrwt>0</asrwt>
<pdfrwt beam="1">  1        2 0.50102776E-02 0.88997883E+02</pdfrwt>
<pdfrwt beam="2">  1       -2 0.93542906E-02 0.88997883E+02</pdfrwt>
<totfact> 0.97065358E+04</totfact>
</mgrwt>
</event>
<event>
 5    1  0.2809073E+000  0.9519410E+02  0.7818608E-02  0.1290740E+00
          2   -1    0    0  501    0  0.00000000000E+00  0.00000000000E+00  0.43078712487E+02  0.43078712565E+02  0.26000000000E-02 0. -1.
         -2   -1    0    0    0  501 -0.00000000000E+00 -0.00000000000E+00 -0.52589300591E+02  0.52589300655E+02  0.26000000000E-02 0.  1.
         23    2    1    2    0    0  0.00000000000E+00  0.00000000000E+00 -0.95105881044E+01  0.95668013220E+02  0.95194104163E+02 0.  0.
        -11    1    3    3    0    0 -0.20046316652E+02 -0.30769270815E+01 -0.48029585428E+02  0.52136008365E+02  0.51100000000E-03 0.  1.
         11    1    3    3    0    0  0.20046316652E+02  0.30769270815E+01  0.38518997324E+02  0.43532004855E+02  0.51100000000E-03 0. -1.
<mgrwt>
<rscale>  0 0.95194104E+02</rscale>
<asrwt>0</asrwt>
<pdfrwt beam="1">  1        2 0.66274942E-02 0.95194104E+02</pdfrwt>
<pdfrwt beam="2">  1       -2 0.80906616E-02 0.95194104E+02</pdfrwt>
<totfact> 0.85819977E+04</totfact>
</mgrwt>
</event>
<event>
 5    1  0.2809073E+000  0.9145476E+02  0.7818608E-02  0.1299367E+00
          2   -1    0    0  501    0  0.00000000000E+00  0.00000000000E+00  0.46765160431E+01  0.46765167659E+01  0.26000000000E-02 0. -1.
         -2   -1    0    0    0  501 -0.00000000000E+00 -0.00000000000E+00 -0.44712627971E+03  0.44712627971E+03  0.26000000000E-02 0.  1.
         23    2    1    2    0    0  0.00000000000E+00  0.00000000000E+00 -0.44244976366E+03  0.45180279648E+03  0.91454762267E+02 0.  0.
        -11    1    3    3    0    0 -0.21073676354E+02 -0.39956656681E+02 -0.25628244528E+03  0.26023321465E+03  0.51100000000E-03 0.  1.
         11    1    3    3    0    0  0.21073676354E+02  0.39956656681E+02 -0.18616731839E+03  0.19156958183E+03  0.51100000000E-03 0. -1.
<mgrwt>
<rscale>  0 0.91454762E+02</rscale>
<asrwt>0</asrwt>
<pdfrwt beam="1">  1        2 0.71946442E-03 0.91454762E+02</pdfrwt>
<pdfrwt beam="2">  1       -2 0.68788624E-01 0.91454762E+02</pdfrwt>
<totfact> 0.39176398E+04</totfact>
</mgrwt>
</event>
<event>
 5    1  0.2809073E+000  0.9211127E+02  0.7818608E-02  0.1297818E+00
          2   -1    0    0  501    0  0.00000000000E+00  0.00000000000E+00  0.13961674172E+03  0.13961674174E+03  0.26000000000E-02 0. -1.
         -2   -1    0    0    0  501 -0.00000000000E+00 -0.00000000000E+00 -0.15192457037E+02  0.15192457260E+02  0.26000000000E-02 0.  1.
         23    2    1    2    0    0  0.00000000000E+00  0.00000000000E+00  0.12442428468E+03  0.15480919900E+03  0.92111266830E+02 0.  0.
        -11    1    3    3    0    0 -0.37388200317E+02 -0.25251963719E+02  0.46664101727E+02  0.64908224324E+02  0.51100000000E-03 0.  1.
         11    1    3    3    0    0  0.37388200317E+02  0.25251963719E+02  0.77760182951E+02  0.89900974675E+02  0.51100000000E-03 0. -1.
<mgrwt>
<rscale>  0 0.92111267E+02</rscale>
<asrwt>0</asrwt>
<pdfrwt beam="1">  1        2 0.21479497E-01 0.92111267E+02</pdfrwt>
<pdfrwt beam="2">  1       -2 0.23373012E-02 0.92111267E+02</pdfrwt>
<totfact> 0.13272950E+05</totfact>
</mgrwt>
</event>
<event>
 5    1  0.2809073E+000  0.9042544E+02  0.7818608E-02  0.1301825E+00
         -2   -1    0    0    0  501 -0.00000000000E+00  0.00000000000E+00  0.97370136197E+01  0.97370139668E+01  0.26000000000E-02 0.  1.
          2   -1    0    0  501    0  0.00000000000E+00 -0.00000000000E+00 -0.20994014225E+03  0.20994014227E+03  0.26000000000E-02 0. -1.
         23    2    1    2    0    0  0.00000000000E+00  0.00000000000E+00 -0.20020312863E+03  0.21967715623E+03  0.90425440321E+02 0.  0.
        -11    1    3    3    0    0  0.27740386422E+02  0.27259846775E+02 -0.15611228217E+03  0.16088403566E+03  0.51100000000E-03 0.  1.
         11    1    3    3    0    0 -0.27740386422E+02 -0.27259846775E+02 -0.44090846459E+02  0.58793120574E+02  0.51100000000E-03 0. -1.
<mgrwt>
<rscale>  0 0.90425440E+02</rscale>
<asrwt>0</asrwt>
<pdfrwt beam="2">  1        2 0.32298480E-01 0.90425440E+02</pdfrwt>
<pdfrwt beam="1">  1       -2 0.14980023E-02 0.90425440E+02</pdfrwt>
<totfact> 0.16096542E+05</totfact>
</mgrwt>
</event>
<event>
 5    1  0.2809073E+000  0.9315392E+02  0.7818608E-02  0.1295389E+00
         -2   -1    0    0    0  501 -0.00000000000E+00  0.00000000000E+00  0.94834224284E+01  0.94834227848E+01  0.26000000000E-02 0.  1.
          2   -1    0    0  501    0  0.00000000000E+00 -0.00000000000E+00 -0.22875848240E+03  0.22875848241E+03  0.26000000000E-02 0. -1.
         23    2    1    2    0    0  0.00000000000E+00  0.00000000000E+00 -0.21927505997E+03  0.23824190520E+03  0.93153923521E+02 0.  0.
        -11    1    3    3    0    0  0.36219401882E+02 -0.29282268448E+02 -0.10876254665E+03  0.11831562818E+03  0.51100000000E-03 0. -1.
         11    1    3    3    0    0 -0.36219401882E+02  0.29282268448E+02 -0.11051251332E+03  0.11992627701E+03  0.51100000000E-03 0.  1.
<mgrwt>
<rscale>  0 0.93153924E+02</rscale>
<asrwt>0</asrwt>
<pdfrwt beam="2">  1        2 0.35193609E-01 0.93153924E+02</pdfrwt>
<pdfrwt beam="1">  1       -2 0.14589883E-02 0.93153924E+02</pdfrwt>
<totfact> 0.15334522E+05</totfact>
</mgrwt>
</event>
<event>
 5    1  0.2809073E+000  0.9067288E+02  0.7818608E-02  0.1301230E+00
         -2   -1    0    0    0  501 -0.00000000000E+00  0.00000000000E+00  0.36245552693E+02  0.36245552786E+02  0.26000000000E-02 0. -1.
          2   -1    0    0  501    0  0.00000000000E+00 -0.00000000000E+00 -0.56707443497E+02  0.56707443557E+02  0.26000000000E-02 0.  1.
         23    2    1    2    0    0  0.00000000000E+00  0.00000000000E+00 -0.20461890805E+02  0.92952996343E+02  0.90672876616E+02 0.  0.
        -11    1    3    3    0    0 -0.31428585798E+02  0.56858266427E+01 -0.43216271846E+02  0.53737610502E+02  0.51100000000E-03 0.  1.
         11    1    3    3    0    0  0.31428585798E+02 -0.56858266427E+01  0.22754381042E+02  0.39215385841E+02  0.51100000000E-03 0. -1.
<mgrwt>
<rscale>  0 0.90672877E+02</rscale>
<asrwt>0</asrwt>
<pdfrwt beam="2">  1        2 0.87242221E-02 0.90672877E+02</pdfrwt>
<pdfrwt beam="1">  1       -2 0.55762389E-02 0.90672877E+02</pdfrwt>
<totfact> 0.10613350E+05</totfact>
</mgrwt>
</event>
<event>
 5    1  0.2809073E+000  0.9140814E+02  0.7818608E-02  0.1299477E+00
          2   -1    0    0  501    0  0.00000000000E+00  0.00000000000E+00  0.41117428299E+02  0.41117428382E+02  0.26000000000E-02 0. -1.
         -2   -1    0    0    0  501 -0.00000000000E+00 -0.00000000000E+00 -0.50802351734E+02  0.50802351800E+02  0.26000000000E-02 0.  1.
         23    2    1    2    0    0  0.00000000000E+00  0.00000000000E+00 -0.96849234343E+01  0.91919780182E+02  0.91408141031E+02 0.  0.
        -11    1    3    3    0    0 -0.21942862881E+01  0.12593027454E+02  0.39283244561E+02  0.41310683076E+02  0.51100000000E-03 0. -1.
         11    1    3    3    0    0  0.21942862881E+01 -0.12593027454E+02 -0.48968167995E+02  0.50609097105E+02  0.51100000000E-03 0.  1.
<mgrwt>
<rscale>  0 0.91408141E+02</rscale>
<asrwt>0</asrwt>
<pdfrwt beam="1">  1        2 0.63257582E-02 0.91408141E+02</pdfrwt>
<pdfrwt beam="2">  1       -2 0.78157464E-02 0.91408141E+02</pdfrwt>
<totfact> 0.95369104E+04</totfact>
</mgrwt>
</event>
<event>
 5    1  0.2809073E+000  0.8873228E+02  0.7818608E-02  0.1305951E+00
          2   -1    0    0  501    0  0.00000000000E+00  0.00000000000E+00  0.39223828196E+02  0.39223828283E+02  0.26000000000E-02 0. -1.
         -2   -1    0    0    0  501 -0.00000000000E+00 -0.00000000000E+00 -0.50182613870E+02  0.50182613937E+02  0.26000000000E-02 0.  1.
         23    2    1    2    0    0  0.00000000000E+00  0.00000000000E+00 -0.10958785673E+02  0.89406442220E+02  0.88732276692E+02 0.  0.
        -11    1    3    3    0    0 -0.15477198838E+02 -0.25890879796E+02  0.27301974034E+02  0.40685121690E+02  0.51100000000E-03 0. -1.
         11    1    3    3    0    0  0.15477198838E+02  0.25890879796E+02 -0.38260759708E+02  0.48721320530E+02  0.51100000000E-03 0.  1.
<mgrwt>
<rscale>  0 0.88732277E+02</rscale>
<asrwt>0</asrwt>
<pdfrwt beam="1">  1        2 0.60344352E-02 0.88732277E+02</pdfrwt>
<pdfrwt beam="2">  1       -2 0.77204021E-02 0.88732277E+02</pdfrwt>
<totfact> 0.10266041E+05</totfact>
</mgrwt>
</event>
<event>
 5    1  0.2809073E+000  0.9101780E+02  0.7818608E-02  0.1300405E+00
          2   -1    0    0  501    0  0.00000000000E+00  0.00000000000E+00  0.12120680570E+02  0.12120680849E+02  0.26000000000E-02 0. -1.
         -2   -1    0    0    0  501 -0.00000000000E+00 -0.00000000000E+00 -0.17086994281E+03  0.17086994283E+03  0.26000000000E-02 0.  1.
         23    2    1    2    0    0  0.00000000000E+00  0.00000000000E+00 -0.15874926224E+03  0.18299062368E+03  0.91017800965E+02 0.  0.
        -11    1    3    3    0    0  0.43554060682E+02 -0.78110224721E+01 -0.57994126120E+02  0.72947151683E+02  0.51100000000E-03 0.  1.
         11    1    3    3    0    0 -0.43554060682E+02  0.78110224721E+01 -0.10075513612E+03  0.11004347200E+03  0.51100000000E-03 0. -1.
<mgrwt>
<rscale>  0 0.91017801E+02</rscale>
<asrwt>0</asrwt>
<pdfrwt beam="1">  1        2 0.18647202E-02 0.91017801E+02</pdfrwt>
<pdfrwt beam="2">  1       -2 0.26287682E-01 0.91017801E+02</pdfrwt>
<totfact> 0.66796508E+04</totfact>
</mgrwt>
</event>
<event>
 5    1  0.2809073E+000  0.9089963E+02  0.7818608E-02  0.1300688E+00
         -2   -1    0    0    0  501 -0.00000000000E+00  0.00000000000E+00  0.61134947286E+02  0.61134947341E+02  0.26000000000E-02 0.  1.
          2   -1    0    0  501    0  0.00000000000E+00 -0.00000000000E+00 -0.33788949859E+02  0.33788949959E+02  0.26000000000E-02 0. -1.
         23    2    1    2    0    0  0.00000000000E+00  0.00000000000E+00  0.27345997427E+02  0.94923897299E+02  0.90899629830E+02 0.  0.
        -11    1    3    3    0    0  0.31256613137E+02  0.17908313033E+02  0.42612741033E+02  0.55799007510E+02  0.51100000000E-03 0.  1.
         11    1    3    3    0    0 -0.31256613137E+02 -0.17908313033E+02 -0.15266743606E+02  0.39124889790E+02  0.51100000000E-03 0. -1.
<mgrwt>
<rscale>  0 0.90899630E+02</rscale>
<asrwt>0</asrwt>
<pdfrwt beam="2">  1        2 0.51983000E-02 0.90899630E+02</pdfrwt>
<pdfrwt beam="1">  1       -2 0.94053765E-02 0.90899630E+02</pdfrwt>
<totfact> 0.92112255E+04</totfact>
</mgrwt>
</event>
<event>
 5    1  0.2809073E+000  0.9636754E+02  0.7818608E-02  0.1288125E+00
          2   -1    0    0  501    0  0.00000000000E+00  0.00000000000E+00  0.15200658326E+03  0.15200658328E+03  0.26000000000E-02 0. -1.
         -2   -1    0    0    0  501 -0.00000000000E+00 -0.00000000000E+00 -0.15273521104E+02  0.15273521325E+02  0.26000000000E-02 0.  1.
         23    2    1    2    0    0  0.00000000000E+00  0.00000000000E+00  0.13673306215E+03  0.16728010460E+03  0.96367541791E+02 0.  0.
        -11    1    3    3    0    0  0.29116386111E+02  0.27548776792E+02  0.21951412365E+02  0.45700804676E+02  0.51100000000E-03 0.  1.
         11    1    3    3    0    0 -0.29116386111E+02 -0.27548776792E+02  0.11478164979E+03  0.12157929993E+03  0.51100000000E-03 0. -1.
<mgrwt>
<rscale>  0 0.96367542E+02</rscale>
<asrwt>0</asrwt>
<pdfrwt beam="1">  1        2 0.23385628E-01 0.96367542E+02</pdfrwt>
<pdfrwt beam="2">  1       -2 0.23497726E-02 0.96367542E+02</pdfrwt>
<totfact> 0.12077645E+05</totfact>
</mgrwt>
</event>
<event>
 5    1  0.2809073E+000  0.1022575E+03  0.7818608E-02  0.1275619E+00
          2   -1    0    0  501    0  0.00000000000E+00  0.00000000000E+00  0.28646369263E+02  0.28646369381E+02  0.26000000000E-02 0. -1.
         -2   -1    0    0    0  501 -0.00000000000E+00 -0.00000000000E+00 -0.91255933371E+02  0.91255933408E+02  0.26000000000E-02 0.  1.
         23    2    1    2    0    0  0.00000000000E+00  0.00000000000E+00 -0.62609564107E+02  0.11990230279E+03  0.10225754102E+03 0.  0.
        -11    1    3    3    0    0  0.18063015778E+02  0.20098416823E+02 -0.82198575429E+02  0.86526439315E+02  0.51100000000E-03 0.  1.
         11    1    3    3    0    0 -0.18063015778E+02 -0.20098416823E+02  0.19589011322E+02  0.33375863473E+02  0.51100000000E-03 0. -1.
<mgrwt>
<rscale>  0 0.10225754E+03</rscale>
<asrwt>0</asrwt>
<pdfrwt beam="1">  1        2 0.44071338E-02 0.10225754E+03</pdfrwt>
<pdfrwt beam="2">  1       -2 0.14039374E-01 0.10225754E+03</pdfrwt>
<totfact> 0.61737456E+04</totfact>
</mgrwt>
</event>
<event>
 5    1  0.2809073E+000  0.9103054E+02  0.7818608E-02  0.1300375E+00
         -2   -1    0    0    0  501 -0.00000000000E+00  0.00000000000E+00  0.44601906431E+02  0.44601906507E+02  0.26000000000E-02 0.  1.
          2   -1    0    0  501    0  0.00000000000E+00 -0.00000000000E+00 -0.46447340093E+02  0.46447340166E+02  0.26000000000E-02 0. -1.
         23    2    1    2    0    0  0.00000000000E+00  0.00000000000E+00 -0.18454336620E+01  0.91049246673E+02  0.91030542646E+02 0.  0.
        -11    1    3    3    0    0  0.17180576893E+02  0.19573554081E+02  0.36412471939E+02  0.44767894241E+02  0.51100000000E-03 0.  1.
         11    1    3    3    0    0 -0.17180576893E+02 -0.19573554081E+02 -0.38257905601E+02  0.46281352433E+02  0.51100000000E-03 0. -1.
<mgrwt>
<rscale>  0 0.91030543E+02</rscale>
<asrwt>0</asrwt>
<pdfrwt beam="2">  1        2 0.71457446E-02 0.91030543E+02</pdfrwt>
<pdfrwt beam="1">  1       -2 0.68618318E-02 0.91030543E+02</pdfrwt>
<totfact> 0.99611904E+04</totfact>
</mgrwt>
</event>
<event>
 5    1  0.2809073E+000  0.9171666E+02  0.7818608E-02  0.1298747E+00
          2   -1    0    0  501    0  0.00000000000E+00  0.00000000000E+00  0.10549316127E+03  0.10549316130E+03  0.26000000000E-02 0. -1.
         -2   -1    0    0    0  501 -0.00000000000E+00 -0.00000000000E+00 -0.19934814284E+02  0.19934814453E+02  0.26000000000E-02 0.  1.
         23    2    1    2    0    0  0.00000000000E+00  0.00000000000E+00  0.85558346983E+02  0.12542797575E+03  0.91716663496E+02 0.  0.
        -11    1    3    3    0    0 -0.18617878940E+02 -0.30131282530E+02  0.82614065168E+02  0.89886613948E+02  0.51100000000E-03 0. -1.
         11    1    3    3    0    0  0.18617878940E+02  0.30131282530E+02  0.29442818141E+01  0.35541361803E+02  0.51100000000E-03 0.  1.
<mgrwt>
<rscale>  0 0.91716663E+02</rscale>
<asrwt>0</asrwt>
<pdfrwt beam="1">  1        2 0.16229717E-01 0.91716663E+02</pdfrwt>
<pdfrwt beam="2">  1       -2 0.30668945E-02 0.91716663E+02</pdfrwt>
<totfact> 0.12269665E+05</totfact>
</mgrwt>
</event>
<event>
 5    1  0.2809073E+000  0.9233353E+02  0.7818608E-02  0.1297297E+00
          2   -1    0    0  501    0  0.00000000000E+00  0.00000000000E+00  0.33490224694E+02  0.33490224795E+02  0.26000000000E-02 0. -1.
         -2   -1    0    0    0  501 -0.00000000000E+00 -0.00000000000E+00 -0.63641565030E+02  0.63641565084E+02  0.26000000000E-02 0.  1.
         23    2    1    2    0    0  0.00000000000E+00  0.00000000000E+00 -0.30151340336E+02  0.97131789879E+02  0.92333532809E+02 0.  0.
        -11    1    3    3    0    0 -0.35253832432E+02  0.13539266552E+02  0.12860448050E+02  0.39894054246E+02  0.51100000000E-03 0. -1.
         11    1    3    3    0    0  0.35253832432E+02 -0.13539266552E+02 -0.43011788386E+02  0.57237735632E+02  0.51100000000E-03 0.  1.
<mgrwt>
<rscale>  0 0.92333533E+02</rscale>
<asrwt>0</asrwt>
<pdfrwt beam="1">  1        2 0.51523423E-02 0.92333533E+02</pdfrwt>
<pdfrwt beam="2">  1       -2 0.97910100E-02 0.92333533E+02</pdfrwt>
<totfact> 0.87759280E+04</totfact>
</mgrwt>
</event>
<event>
 5    1  0.2809073E+000  0.9132674E+02  0.7818608E-02  0.1299670E+00
         -2   -1    0    0    0  501 -0.00000000000E+00  0.00000000000E+00  0.74556398297E+02  0.74556398342E+02  0.26000000000E-02 0.  1.
          2   -1    0    0  501    0  0.00000000000E+00 -0.00000000000E+00 -0.27967327582E+02  0.27967327703E+02  0.26000000000E-02 0. -1.
         23    2    1    2    0    0  0.00000000000E+00  0.00000000000E+00  0.46589070714E+02  0.10252372604E+03  0.91326737006E+02 0.  0.
        -11    1    3    3    0    0  0.34429529052E+02 -0.25002356320E+02  0.41898381789E+02  0.59715866309E+02  0.51100000000E-03 0.  1.
         11    1    3    3    0    0 -0.34429529052E+02  0.25002356320E+02  0.46906889257E+01  0.42807859736E+02  0.51100000000E-03 0. -1.
<mgrwt>
<rscale>  0 0.91326737E+02</rscale>
<asrwt>0</asrwt>
<pdfrwt beam="2">  1        2 0.43026659E-02 0.91326737E+02</pdfrwt>
<pdfrwt beam="1">  1       -2 0.11470215E-01 0.91326737E+02</pdfrwt>
<totfact> 0.86387119E+04</totfact>
</mgrwt>
</event>
<event>
 5    1  0.2809073E+000  0.8767183E+02  0.7818608E-02  0.1308590E+00
         -2   -1    0    0    0  501 -0.00000000000E+00  0.00000000000E+00  0.21555939771E+02  0.21555939928E+02  0.26000000000E-02 0.  1.
          2   -1    0    0  501    0  0.00000000000E+00 -0.00000000000E+00 -0.89144213167E+02  0.89144213205E+02  0.26000000000E-02 0. -1.
         23    2    1    2    0    0  0.00000000000E+00  0.00000000000E+00 -0.67588273396E+02  0.11070015313E+03  0.87671826735E+02 0.  0.
        -11    1    3    3    0    0 -0.33087481032E+02  0.28525895558E+02 -0.38360584101E+02  0.58138133193E+02  0.51100000000E-03 0. -1.
         11    1    3    3    0    0  0.33087481032E+02 -0.28525895558E+02 -0.29227689295E+02  0.52562019940E+02  0.51100000000E-03 0.  1.
<mgrwt>
<rscale>  0 0.87671827E+02</rscale>
<asrwt>0</asrwt>
<pdfrwt beam="2">  1        2 0.13714494E-01 0.87671827E+02</pdfrwt>
<pdfrwt beam="1">  1       -2 0.33162985E-02 0.87671827E+02</pdfrwt>
<totfact> 0.13204319E+05</totfact>
</mgrwt>
</event>
<event>
 5    1  0.2809073E+000  0.9047592E+02  0.7818608E-02  0.1301703E+00
          2   -1    0    0  501    0  0.00000000000E+00  0.00000000000E+00  0.59373795254E+01  0.59373800947E+01  0.26000000000E-02 0.  1.
         -2   -1    0    0    0  501 -0.00000000000E+00 -0.00000000000E+00 -0.34467613544E+03  0.34467613545E+03  0.26000000000E-02 0. -1.
         23    2    1    2    0    0  0.00000000000E+00  0.00000000000E+00 -0.33873875591E+03  0.35061351554E+03  0.90475922344E+02 0.  0.
        -11    1    3    3    0    0 -0.41437295496E+02 -0.10815236004E+01 -0.99159109421E+02  0.10747440687E+03  0.51100000000E-03 0.  1.
         11    1    3    3    0    0  0.41437295496E+02  0.10815236004E+01 -0.23957964649E+03  0.24313910867E+03  0.51100000000E-03 0. -1.
<mgrwt>
<rscale>  0 0.90475922E+02</rscale>
<asrwt>0</asrwt>
<pdfrwt beam="1">  1        2 0.91344332E-03 0.90475922E+02</pdfrwt>
<pdfrwt beam="2">  1       -2 0.53027082E-01 0.90475922E+02</pdfrwt>
<totfact> 0.47944310E+04</totfact>
</mgrwt>
</event>
<event>
 5    1  0.2809073E+000  0.8723014E+02  0.7818608E-02  0.1309701E+00
          2   -1    0    0  501    0  0.00000000000E+00  0.00000000000E+00  0.46284727879E+02  0.46284727952E+02  0.26000000000E-02 0. -1.
         -2   -1    0    0    0  501 -0.00000000000E+00 -0.00000000000E+00 -0.41099396769E+02  0.41099396852E+02  0.26000000000E-02 0.  1.
         23    2    1    2    0    0  0.00000000000E+00  0.00000000000E+00  0.51853311095E+01  0.87384124803E+02  0.87230141631E+02 0.  0.
        -11    1    3    3    0    0 -0.54240927742E+01  0.43247685847E+02  0.10114977173E+01  0.43598236678E+02  0.51100000000E-03 0. -1.
         11    1    3    3    0    0  0.54240927742E+01 -0.43247685847E+02  0.41738333922E+01  0.43785888126E+02  0.51100000000E-03 0.  1.
<mgrwt>
<rscale>  0 0.87230142E+02</rscale>
<asrwt>0</asrwt>
<pdfrwt beam="1">  1        2 0.71207274E-02 0.87230142E+02</pdfrwt>
<pdfrwt beam="2">  1       -2 0.63229841E-02 0.87230142E+02</pdfrwt>
<totfact> 0.11238806E+05</totfact>
</mgrwt>
</event>
<event>
 5    1  0.2809073E+000  0.9867870E+02  0.7818608E-02  0.1283099E+00
          2   -1    0    0  501    0  0.00000000000E+00  0.00000000000E+00  0.44358104685E+03  0.44358104686E+03  0.26000000000E-02 0.  1.
         -2   -1    0    0    0  501 -0.00000000000E+00 -0.00000000000E+00 -0.54879961719E+01  0.54879967878E+01  0.26000000000E-02 0. -1.
         23    2    1    2    0    0  0.00000000000E+00  0.00000000000E+00  0.43809305068E+03  0.44906904365E+03  0.98678695311E+02 0.  0.
        -11    1    3    3    0    0  0.98733982756E+01  0.48315128190E+02  0.22629308563E+03  0.23160396415E+03  0.51100000000E-03 0. -1.
         11    1    3    3    0    0 -0.98733982756E+01 -0.48315128190E+02  0.21179996506E+03  0.21746507950E+03  0.51100000000E-03 0.  1.
<mgrwt>
<rscale>  0 0.98678695E+02</rscale>
<asrwt>0</asrwt>
<pdfrwt beam="1">  1        2 0.68243266E-01 0.98678695E+02</pdfrwt>
<pdfrwt beam="2">  1       -2 0.84430681E-03 0.98678695E+02</pdfrwt>
<totfact> 0.16771167E+05</totfact>
</mgrwt>
</event>
<event>
 5    1  0.2809073E+000  0.9040452E+02  0.7818608E-02  0.1301875E+00
          2   -1    0    0  501    0  0.00000000000E+00  0.00000000000E+00  0.14523690639E+02  0.14523690872E+02  0.26000000000E-02 0. -1.
         -2   -1    0    0    0  501 -0.00000000000E+00 -0.00000000000E+00 -0.14068352979E+03  0.14068352981E+03  0.26000000000E-02 0.  1.
         23    2    1    2    0    0  0.00000000000E+00  0.00000000000E+00 -0.12615983915E+03  0.15520722069E+03  0.90404515033E+02 0.  0.
        -11    1    3    3    0    0 -0.40295804920E+02  0.20303901461E+02 -0.58459256556E+02  0.73847714833E+02  0.51100000000E-03 0. -1.
         11    1    3    3    0    0  0.40295804920E+02 -0.20303901461E+02 -0.67700582595E+02  0.81359505853E+02  0.51100000000E-03 0.  1.
<mgrwt>
<rscale>  0 0.90404515E+02</rscale>
<asrwt>0</asrwt>
<pdfrwt beam="1">  1        2 0.22344141E-02 0.90404515E+02</pdfrwt>
<pdfrwt beam="2">  1       -2 0.21643619E-01 0.90404515E+02</pdfrwt>
<totfact> 0.73028791E+04</totfact>
</mgrwt>
</event>
<event>
 5    1  0.2809073E+000  0.9164280E+02  0.7818608E-02  0.1298921E+00
          2   -1    0    0  501    0  0.00000000000E+00  0.00000000000E+00  0.16365234309E+03  0.16365234311E+03  0.26000000000E-02 0.  1.
         -2   -1    0    0    0  501 -0.00000000000E+00 -0.00000000000E+00 -0.12829639034E+02  0.12829639298E+02  0.26000000000E-02 0. -1.
         23    2    1    2    0    0  0.00000000000E+00  0.00000000000E+00  0.15082270405E+03  0.17648198240E+03  0.91642795984E+02 0.  0.
        -11    1    3    3    0    0 -0.39421915624E+02  0.17011176615E+02  0.10623150361E+03  0.11458010264E+03  0.51100000000E-03 0.  1.
         11    1    3    3    0    0  0.39421915624E+02 -0.17011176615E+02  0.44591200438E+02  0.61901879762E+02  0.51100000000E-03 0. -1.
<mgrwt>
<rscale>  0 0.91642796E+02</rscale>
<asrwt>0</asrwt>
<pdfrwt beam="1">  1        2 0.25177285E-01 0.91642796E+02</pdfrwt>
<pdfrwt beam="2">  1       -2 0.19737905E-02 0.91642796E+02</pdfrwt>
<totfact> 0.14208046E+05</totfact>
</mgrwt>
</event>
<event>
 5    1  0.2809073E+000  0.8888979E+02  0.7818608E-02  0.1305563E+00
          2   -1    0    0  501    0  0.00000000000E+00  0.00000000000E+00  0.21725223262E+03  0.21725223263E+03  0.26000000000E-02 0. -1.
         -2   -1    0    0    0  501 -0.00000000000E+00 -0.00000000000E+00 -0.90924208659E+01  0.90924212377E+01  0.26000000000E-02 0.  1.
         23    2    1    2    0    0  0.00000000000E+00  0.00000000000E+00  0.20815981175E+03  0.22634465387E+03  0.88889791919E+02 0.  0.
        -11    1    3    3    0    0  0.24232960800E+02  0.22370744629E+02  0.28214775591E+02  0.43402306002E+02  0.51100000000E-03 0.  1.
         11    1    3    3    0    0 -0.24232960800E+02 -0.22370744629E+02  0.17994503616E+03  0.18294234787E+03  0.51100000000E-03 0. -1.
<mgrwt>
<rscale>  0 0.88889792E+02</rscale>
<asrwt>0</asrwt>
<pdfrwt beam="1">  1        2 0.33423420E-01 0.88889792E+02</pdfrwt>
<pdfrwt beam="2">  1       -2 0.13988340E-02 0.88889792E+02</pdfrwt>
<totfact> 0.17064112E+05</totfact>
</mgrwt>
</event>
<event>
 5    1  0.2809073E+000  0.9149159E+02  0.7818608E-02  0.1299279E+00
          2   -1    0    0  501    0  0.00000000000E+00  0.00000000000E+00  0.12103909375E+02  0.12103909654E+02  0.26000000000E-02 0. -1.
         -2   -1    0    0    0  501 -0.00000000000E+00 -0.00000000000E+00 -0.17289272284E+03  0.17289272286E+03  0.26000000000E-02 0.  1.
         23    2    1    2    0    0  0.00000000000E+00  0.00000000000E+00 -0.16078881347E+03  0.18499663252E+03  0.91491592541E+02 0.  0.
        -11    1    3    3    0    0 -0.30490924338E+02  0.23466552605E+02 -0.30360364866E+02  0.49011501847E+02  0.51100000000E-03 0. -1.
         11    1    3    3    0    0  0.30490924338E+02 -0.23466552605E+02 -0.13042844860E+03  0.13598513067E+03  0.51100000000E-03 0.  1.
<mgrwt>
<rscale>  0 0.91491593E+02</rscale>
<asrwt>0</asrwt>
<pdfrwt beam="1">  1        2 0.18621400E-02 0.91491593E+02</pdfrwt>
<pdfrwt beam="2">  1       -2 0.26598879E-01 0.91491593E+02</pdfrwt>
<totfact> 0.65614803E+04</totfact>
</mgrwt>
</event>
<event>
 5    1  0.2809073E+000  0.9043450E+02  0.7818608E-02  0.1301803E+00
         -2   -1    0    0    0  501 -0.00000000000E+00  0.00000000000E+00  0.21781710054E+02  0.21781710209E+02  0.26000000000E-02 0.  1.
          2   -1    0    0  501    0  0.00000000000E+00 -0.00000000000E+00 -0.93867737609E+02  0.93867737645E+02  0.26000000000E-02 0. -1.
         23    2    1    2    0    0  0.00000000000E+00  0.00000000000E+00 -0.72086027555E+02  0.11564944785E+03  0.90434503483E+02 0.  0.
        -11    1    3    3    0    0  0.44277597004E+02  0.69762135208E+01 -0.43654593057E+02  0.62569134937E+02  0.51100000000E-03 0.  1.
         11    1    3    3    0    0 -0.44277597004E+02 -0.69762135208E+01 -0.28431434498E+02  0.53080312917E+02  0.51100000000E-03 0. -1.
<mgrwt>
<rscale>  0 0.90434503E+02</rscale>
<asrwt>0</asrwt>
<pdfrwt beam="2">  1        2 0.14441190E-01 0.90434503E+02</pdfrwt>
<pdfrwt beam="1">  1       -2 0.33510324E-02 0.90434503E+02</pdfrwt>
<totfact> 0.12309836E+05</totfact>
</mgrwt>
</event>
<event>
 5    1  0.2809073E+000  0.9045703E+02  0.7818608E-02  0.1301749E+00
         -2   -1    0    0    0  501 -0.00000000000E+00  0.00000000000E+00  0.13907838081E+02  0.13907838324E+02  0.26000000000E-02 0.  1.
          2   -1    0    0  501    0  0.00000000000E+00 -0.00000000000E+00 -0.14708387897E+03  0.14708387899E+03  0.26000000000E-02 0. -1.
         23    2    1    2    0    0  0.00000000000E+00  0.00000000000E+00 -0.13317604089E+03  0.16099171732E+03  0.90457034982E+02 0.  0.
        -11    1    3    3    0    0  0.43458381966E+02  0.35761473912E+01 -0.87959879946E+02  0.98175150999E+02  0.51100000000E-03 0.  1.
         11    1    3    3    0    0 -0.43458381966E+02 -0.35761473912E+01 -0.45216160944E+02  0.62816566319E+02  0.51100000000E-03 0. -1.
<mgrwt>
<rscale>  0 0.90457035E+02</rscale>
<asrwt>0</asrwt>
<pdfrwt beam="2">  1        2 0.22628288E-01 0.90457035E+02</pdfrwt>
<pdfrwt beam="1">  1       -2 0.21396675E-02 0.90457035E+02</pdfrwt>
<totfact> 0.14189998E+05</totfact>
</mgrwt>
</event>
<event>
 5    1  0.2809073E+000  0.9041468E+02  0.7818608E-02  0.1301851E+00
         -2   -1    0    0    0  501 -0.00000000000E+00  0.00000000000E+00  0.27101159131E+03  0.27101159132E+03  0.26000000000E-02 0.  1.
          2   -1    0    0  501    0  0.00000000000E+00 -0.00000000000E+00 -0.75410184829E+01  0.75410189312E+01  0.26000000000E-02 0. -1.
         23    2    1    2    0    0  0.00000000000E+00  0.00000000000E+00  0.26347057282E+03  0.27855261025E+03  0.90414677642E+02 0.  0.
        -11    1    3    3    0    0 -0.20521243537E+02 -0.36117727148E+02  0.76788214618E+02  0.87304304333E+02  0.51100000000E-03 0. -1.
         11    1    3    3    0    0  0.20521243537E+02  0.36117727148E+02  0.18668235820E+03  0.19124830592E+03  0.51100000000E-03 0.  1.
<mgrwt>
<rscale>  0 0.90414678E+02</rscale>
<asrwt>0</asrwt>
<pdfrwt beam="2">  1        2 0.11601568E-02 0.90414678E+02</pdfrwt>
<pdfrwt beam="1">  1       -2 0.41694087E-01 0.90414678E+02</pdfrwt>
<totfact> 0.55075501E+04</totfact>
</mgrwt>
</event>
<event>
 5    1  0.2809073E+000  0.9062442E+02  0.7818608E-02  0.1301347E+00
         -2   -1    0    0    0  501 -0.00000000000E+00  0.00000000000E+00  0.30055998610E+02  0.30055998722E+02  0.26000000000E-02 0. -1.
          2   -1    0    0  501    0  0.00000000000E+00 -0.00000000000E+00 -0.68312371930E+02  0.68312371980E+02  0.26000000000E-02 0.  1.
         23    2    1    2    0    0  0.00000000000E+00  0.00000000000E+00 -0.38256373321E+02  0.98368370702E+02  0.90624424163E+02 0.  0.
        -11    1    3    3    0    0 -0.19791199936E+02  0.20784683548E+02 -0.57188715634E+02  0.63986278695E+02  0.51100000000E-03 0.  1.
         11    1    3    3    0    0  0.19791199936E+02 -0.20784683548E+02  0.18932342313E+02  0.34382092007E+02  0.51100000000E-03 0. -1.
<mgrwt>
<rscale>  0 0.90624424E+02</rscale>
<asrwt>0</asrwt>
<pdfrwt beam="2">  1        2 0.10509596E-01 0.90624424E+02</pdfrwt>
<pdfrwt beam="1">  1       -2 0.46239998E-02 0.90624424E+02</pdfrwt>
<totfact> 0.11176074E+05</totfact>
</mgrwt>
</event>
<event>
 5    1  0.2809073E+000  0.1002332E+03  0.7818608E-02  0.1279806E+00
          2   -1    0    0  501    0  0.00000000000E+00  0.00000000000E+00  0.44361714527E+02  0.44361714603E+02  0.26000000000E-02 0. -1.
         -2   -1    0    0    0  501 -0.00000000000E+00 -0.00000000000E+00 -0.56618000030E+02  0.56618000090E+02  0.26000000000E-02 0.  1.
         23    2    1    2    0    0  0.00000000000E+00  0.00000000000E+00 -0.12256285503E+02  0.10097971469E+03  0.10023315941E+03 0.  0.
        -11    1    3    3    0    0  0.43768697148E+02  0.11945666146E+02 -0.27576943468E+02  0.53093178480E+02  0.51100000000E-03 0.  1.
         11    1    3    3    0    0 -0.43768697148E+02 -0.11945666146E+02  0.15320657965E+02  0.47886536213E+02  0.51100000000E-03 0. -1.
<mgrwt>
<rscale>  0 0.10023316E+03</rscale>
<asrwt>0</asrwt>
<pdfrwt beam="1">  1        2 0.68248792E-02 0.10023316E+03</pdfrwt>
<pdfrwt beam="2">  1       -2 0.87104615E-02 0.10023316E+03</pdfrwt>
<totfact> 0.74406827E+04</totfact>
</mgrwt>
</event>
<event>
 5    1  0.2809073E+000  0.7949826E+02  0.7818608E-02  0.1330481E+00
         -2   -1    0    0    0  501 -0.00000000000E+00  0.00000000000E+00  0.15920696790E+03  0.15920696792E+03  0.26000000000E-02 0.  1.
          2   -1    0    0  501    0  0.00000000000E+00 -0.00000000000E+00 -0.99241458110E+01  0.99241461516E+01  0.26000000000E-02 0. -1.
         23    2    1    2    0    0  0.00000000000E+00  0.00000000000E+00  0.14928282209E+03  0.16913111407E+03  0.79498256437E+02 0.  0.
        -11    1    3    3    0    0  0.29304279759E+02 -0.24243748951E+02  0.99222164022E+02  0.10626164881E+03  0.51100000000E-03 0. -1.
         11    1    3    3    0    0 -0.29304279759E+02  0.24243748951E+02  0.50060658065E+02  0.62869465256E+02  0.51100000000E-03 0.  1.
<mgrwt>
<rscale>  0 0.79498256E+02</rscale>
<asrwt>0</asrwt>
<pdfrwt beam="2">  1        2 0.15267917E-02 0.79498256E+02</pdfrwt>
<pdfrwt beam="1">  1       -2 0.24493380E-01 0.79498256E+02</pdfrwt>
<totfact> 0.96677942E+04</totfact>
</mgrwt>
</event>
<event>
 5    1  0.2809073E+000  0.9349502E+02  0.7818608E-02  0.1294602E+00
         -2   -1    0    0    0  501 -0.00000000000E+00  0.00000000000E+00  0.87713949885E+01  0.87713953739E+01  0.26000000000E-02 0.  1.
          2   -1    0    0  501    0  0.00000000000E+00 -0.00000000000E+00 -0.24914278015E+03  0.24914278016E+03  0.26000000000E-02 0. -1.
         23    2    1    2    0    0  0.00000000000E+00  0.00000000000E+00 -0.24037138516E+03  0.25791417553E+03  0.93495021999E+02 0.  0.
        -11    1    3    3    0    0 -0.43266638865E+02 -0.12447228425E+02 -0.85467554128E+02  0.96600405501E+02  0.51100000000E-03 0.  1.
         11    1    3    3    0    0  0.43266638865E+02  0.12447228425E+02 -0.15490383103E+03  0.16131377003E+03  0.51100000000E-03 0. -1.
<mgrwt>
<rscale>  0 0.93495022E+02</rscale>
<asrwt>0</asrwt>
<pdfrwt beam="2">  1        2 0.38329653E-01 0.93495022E+02</pdfrwt>
<pdfrwt beam="1">  1       -2 0.13494456E-02 0.93495022E+02</pdfrwt>
<totfact> 0.15672243E+05</totfact>
</mgrwt>
</event>
<event>
 5    1  0.2809073E+000  0.9226622E+02  0.7818608E-02  0.1297455E+00
         -2   -1    0    0    0  501 -0.00000000000E+00  0.00000000000E+00  0.58894148427E+02  0.58894148484E+02  0.26000000000E-02 0.  1.
          2   -1    0    0  501    0  0.00000000000E+00 -0.00000000000E+00 -0.36137102335E+02  0.36137102429E+02  0.26000000000E-02 0. -1.
         23    2    1    2    0    0  0.00000000000E+00  0.00000000000E+00  0.22757046092E+02  0.95031250913E+02  0.92266220814E+02 0.  0.
        -11    1    3    3    0    0 -0.28318676517E+02 -0.27715649041E+02 -0.12954875570E+02  0.41688528911E+02  0.51100000000E-03 0. -1.
         11    1    3    3    0    0  0.28318676517E+02  0.27715649041E+02  0.35711921662E+02  0.53342722002E+02  0.51100000000E-03 0.  1.
<mgrwt>
<rscale>  0 0.92266221E+02</rscale>
<asrwt>0</asrwt>
<pdfrwt beam="2">  1        2 0.55595542E-02 0.92266221E+02</pdfrwt>
<pdfrwt beam="1">  1       -2 0.90606383E-02 0.92266221E+02</pdfrwt>
<totfact> 0.89734618E+04</totfact>
</mgrwt>
</event>
<event>
 5    1  0.2809073E+000  0.8785119E+02  0.7818608E-02  0.1308140E+00
         -2   -1    0    0    0  501 -0.00000000000E+00  0.00000000000E+00  0.19359449906E+02  0.19359450080E+02  0.26000000000E-02 0.  1.
          2   -1    0    0  501    0  0.00000000000E+00 -0.00000000000E+00 -0.99664905564E+02  0.99664905598E+02  0.26000000000E-02 0. -1.
         23    2    1    2    0    0  0.00000000000E+00  0.00000000000E+00 -0.80305455658E+02  0.11902435568E+03  0.87851186879E+02 0.  0.
        -11    1    3    3    0    0  0.29571221321E+02  0.24452685787E+02 -0.11187427385E+02  0.39969357067E+02  0.51100000000E-03 0.  1.
         11    1    3    3    0    0 -0.29571221321E+02 -0.24452685787E+02 -0.69118028274E+02  0.79054998611E+02  0.51100000000E-03 0. -1.
<mgrwt>
<rscale>  0 0.87851187E+02</rscale>
<asrwt>0</asrwt>
<pdfrwt beam="2">  1        2 0.15333062E-01 0.87851187E+02</pdfrwt>
<pdfrwt beam="1">  1       -2 0.29783770E-02 0.87851187E+02</pdfrwt>
<totfact> 0.13570361E+05</totfact>
</mgrwt>
</event>
<event>
 5    1  0.2809073E+000  0.9007118E+02  0.7818608E-02  0.1302679E+00
         -2   -1    0    0    0  501 -0.00000000000E+00  0.00000000000E+00  0.11536144733E+02  0.11536145026E+02  0.26000000000E-02 0.  1.
          2   -1    0    0  501    0  0.00000000000E+00 -0.00000000000E+00 -0.17581301093E+03  0.17581301094E+03  0.26000000000E-02 0. -1.
         23    2    1    2    0    0  0.00000000000E+00  0.00000000000E+00 -0.16427686619E+03  0.18734915597E+03  0.90071180058E+02 0.  0.
        -11    1    3    3    0    0 -0.41588049941E+01 -0.40466702381E+02 -0.41947628135E+02  0.58433322403E+02  0.51100000000E-03 0.  1.
         11    1    3    3    0    0  0.41588049941E+01  0.40466702381E+02 -0.12232923806E+03  0.12891583357E+03  0.51100000000E-03 0. -1.
<mgrwt>
<rscale>  0 0.90071180E+02</rscale>
<asrwt>0</asrwt>
<pdfrwt beam="2">  1        2 0.27048154E-01 0.90071180E+02</pdfrwt>
<pdfrwt beam="1">  1       -2 0.17747917E-02 0.90071180E+02</pdfrwt>
<totfact> 0.15265352E+05</totfact>
</mgrwt>
</event>
<event>
 5    1  0.2809073E+000  0.9037664E+02  0.7818608E-02  0.1301942E+00
          2   -1    0    0  501    0  0.00000000000E+00  0.00000000000E+00  0.38561146767E+02  0.38561146855E+02  0.26000000000E-02 0. -1.
         -2   -1    0    0    0  501 -0.00000000000E+00 -0.00000000000E+00 -0.52954445158E+02  0.52954445222E+02  0.26000000000E-02 0.  1.
         23    2    1    2    0    0  0.00000000000E+00  0.00000000000E+00 -0.14393298391E+02  0.91515592077E+02  0.90376637217E+02 0.  0.
        -11    1    3    3    0    0  0.16230922628E+02 -0.22907589259E+02  0.28658391180E+02  0.40118622612E+02  0.51100000000E-03 0. -1.
         11    1    3    3    0    0 -0.16230922628E+02  0.22907589259E+02 -0.43051689571E+02  0.51396969465E+02  0.51100000000E-03 0.  1.
<mgrwt>
<rscale>  0 0.90376637E+02</rscale>
<asrwt>0</asrwt>
<pdfrwt beam="1">  1        2 0.59324842E-02 0.90376637E+02</pdfrwt>
<pdfrwt beam="2">  1       -2 0.81468377E-02 0.90376637E+02</pdfrwt>
<totfact> 0.96934469E+04</totfact>
</mgrwt>
</event>
<event>
 5    1  0.2809073E+000  0.8997034E+02  0.7818608E-02  0.1302924E+00
         -2   -1    0    0    0  501 -0.00000000000E+00  0.00000000000E+00  0.41904886586E+02  0.41904886666E+02  0.26000000000E-02 0.  1.
          2   -1    0    0  501    0  0.00000000000E+00 -0.00000000000E+00 -0.48291871569E+02  0.48291871639E+02  0.26000000000E-02 0. -1.
         23    2    1    2    0    0  0.00000000000E+00  0.00000000000E+00 -0.63869849829E+01  0.90196758305E+02  0.89970337509E+02 0.  0.
        -11    1    3    3    0    0  0.40870544114E+02  0.50557016091E+01  0.14954658875E+02  0.43813277865E+02  0.51100000000E-03 0.  1.
         11    1    3    3    0    0 -0.40870544114E+02 -0.50557016091E+01 -0.21341643858E+02  0.46383480440E+02  0.51100000000E-03 0. -1.
<mgrwt>
<rscale>  0 0.89970338E+02</rscale>
<asrwt>0</asrwt>
<pdfrwt beam="2">  1        2 0.74295187E-02 0.89970338E+02</pdfrwt>
<pdfrwt beam="1">  1       -2 0.64469056E-02 0.89970338E+02</pdfrwt>
<totfact> 0.10404380E+05</totfact>
</mgrwt>
</event>
<event>
 5    1  0.2809073E+000  0.8999115E+02  0.7818608E-02  0.1302873E+00
          2   -1    0    0  501    0  0.00000000000E+00  0.00000000000E+00  0.28194042293E+03  0.28194042295E+03  0.26000000000E-02 0. -1.
         -2   -1    0    0    0  501 -0.00000000000E+00 -0.00000000000E+00 -0.71809564626E+01  0.71809569333E+01  0.26000000000E-02 0.  1.
         23    2    1    2    0    0  0.00000000000E+00  0.00000000000E+00  0.27475946647E+03  0.28912137988E+03  0.89991154497E+02 0.  0.
        -11    1    3    3    0    0  0.12949022549E+02  0.34248681049E+02  0.53357659236E+02  0.64712356919E+02  0.51100000000E-03 0.  1.
         11    1    3    3    0    0 -0.12949022549E+02 -0.34248681049E+02  0.22140180724E+03  0.22440902296E+03  0.51100000000E-03 0. -1.
<mgrwt>
<rscale>  0 0.89991154E+02</rscale>
<asrwt>0</asrwt>
<pdfrwt beam="1">  1        2 0.43375440E-01 0.89991154E+02</pdfrwt>
<pdfrwt beam="2">  1       -2 0.11047628E-02 0.89991154E+02</pdfrwt>
<totfact> 0.18178803E+05</totfact>
</mgrwt>
</event>
<event>
 5    1  0.2809073E+000  0.8428933E+02  0.7818608E-02  0.1317302E+00
         -2   -1    0    0    0  501 -0.00000000000E+00  0.00000000000E+00  0.30418621045E+02  0.30418621156E+02  0.26000000000E-02 0.  1.
          2   -1    0    0  501    0  0.00000000000E+00 -0.00000000000E+00 -0.58390975151E+02  0.58390975209E+02  0.26000000000E-02 0. -1.
         23    2    1    2    0    0  0.00000000000E+00  0.00000000000E+00 -0.27972354107E+02  0.88809596365E+02  0.84289333917E+02 0.  0.
        -11    1    3    3    0    0 -0.82301874519E+01 -0.35397429134E+02  0.84998074988E+01  0.37322388757E+02  0.51100000000E-03 0.  1.
         11    1    3    3    0    0  0.82301874519E+01  0.35397429134E+02 -0.36472161606E+02  0.51487207608E+02  0.51100000000E-03 0. -1.
<mgrwt>
<rscale>  0 0.84289334E+02</rscale>
<asrwt>0</asrwt>
<pdfrwt beam="2">  1        2 0.89832269E-02 0.84289334E+02</pdfrwt>
<pdfrwt beam="1">  1       -2 0.46797879E-02 0.84289334E+02</pdfrwt>
<totfact> 0.13123529E+05</totfact>
</mgrwt>
</event>
<event>
 5    1  0.2809073E+000  0.9313634E+02  0.7818608E-02  0.1295430E+00
          2   -1    0    0  501    0  0.00000000000E+00  0.00000000000E+00  0.71257865513E+01  0.71257870257E+01  0.26000000000E-02 0. -1.
         -2   -1    0    0    0  501 -0.00000000000E+00 -0.00000000000E+00 -0.30433050600E+03  0.30433050601E+03  0.26000000000E-02 0.  1.
         23    2    1    2    0    0  0.00000000000E+00  0.00000000000E+00 -0.29720471945E+03  0.31145629303E+03  0.93136336677E+02 0.  0.
        -11    1    3    3    0    0  0.35257567453E+02  0.19840699052E+02 -0.22572297010E+03  0.22931988277E+03  0.51100000000E-03 0.  1.
         11    1    3    3    0    0 -0.35257567453E+02 -0.19840699052E+02 -0.71481749343E+02  0.82136410263E+02  0.51100000000E-03 0. -1.
<mgrwt>
<rscale>  0 0.93136337E+02</rscale>
<asrwt>0</asrwt>
<pdfrwt beam="1">  1        2 0.10962751E-02 0.93136337E+02</pdfrwt>
<pdfrwt beam="2">  1       -2 0.46820068E-01 0.93136337E+02</pdfrwt>
<totfact> 0.47890595E+04</totfact>
</mgrwt>
</event>
<event>
 5    1  0.2809073E+000  0.9185026E+02  0.7818608E-02  0.1298432E+00
          2   -1    0    0  501    0  0.00000000000E+00  0.00000000000E+00  0.16086909505E+03  0.16086909507E+03  0.26000000000E-02 0. -1.
         -2   -1    0    0    0  501 -0.00000000000E+00 -0.00000000000E+00 -0.13110768756E+02  0.13110769014E+02  0.26000000000E-02 0.  1.
         23    2    1    2    0    0  0.00000000000E+00  0.00000000000E+00  0.14775832629E+03  0.17397986408E+03  0.91850259213E+02 0.  0.
        -11    1    3    3    0    0 -0.15540611545E+02 -0.36178963501E+02  0.11865089192E+03  0.12501384788E+03  0.51100000000E-03 0. -1.
         11    1    3    3    0    0  0.15540611545E+02  0.36178963501E+02  0.29107434374E+02  0.48966016208E+02  0.51100000000E-03 0.  1.
<mgrwt>
<rscale>  0 0.91850259E+02</rscale>
<asrwt>0</asrwt>
<pdfrwt beam="1">  1        2 0.24749091E-01 0.91850259E+02</pdfrwt>
<pdfrwt beam="2">  1       -2 0.20170414E-02 0.91850259E+02</pdfrwt>
<totfact> 0.14037459E+05</totfact>
</mgrwt>
</event>
<event>
 5    1  0.2809073E+000  0.9127560E+02  0.7818608E-02  0.1299792E+00
          2   -1    0    0  501    0  0.00000000000E+00  0.00000000000E+00  0.65870573333E+02  0.65870573384E+02  0.26000000000E-02 0. -1.
         -2   -1    0    0    0  501 -0.00000000000E+00 -0.00000000000E+00 -0.31619717603E+02  0.31619717710E+02  0.26000000000E-02 0.  1.
         23    2    1    2    0    0  0.00000000000E+00  0.00000000000E+00  0.34250855730E+02  0.97490291094E+02  0.91275603199E+02 0.  0.
        -11    1    3    3    0    0  0.35104521640E+02  0.29156979870E+02  0.16491718314E+02  0.48522507024E+02  0.51100000000E-03 0. -1.
         11    1    3    3    0    0 -0.35104521640E+02 -0.29156979870E+02  0.17759137416E+02  0.48967784070E+02  0.51100000000E-03 0.  1.
<mgrwt>
<rscale>  0 0.91275603E+02</rscale>
<asrwt>0</asrwt>
<pdfrwt beam="1">  1        2 0.10133934E-01 0.91275603E+02</pdfrwt>
<pdfrwt beam="2">  1       -2 0.48645720E-02 0.91275603E+02</pdfrwt>
<totfact> 0.10845383E+05</totfact>
</mgrwt>
</event>
<event>
 5    1  0.2809073E+000  0.9243817E+02  0.7818608E-02  0.1297052E+00
         -2   -1    0    0    0  501 -0.00000000000E+00  0.00000000000E+00  0.11610539416E+03  0.11610539419E+03  0.26000000000E-02 0. -1.
          2   -1    0    0  501    0  0.00000000000E+00 -0.00000000000E+00 -0.18398834926E+02  0.18398835110E+02  0.26000000000E-02 0.  1.
         23    2    1    2    0    0  0.00000000000E+00  0.00000000000E+00  0.97706559239E+02  0.13450422930E+03  0.92438173837E+02 0.  0.
        -11    1    3    3    0    0  0.31165075120E+02  0.25409306786E+02  0.82011987478E+02  0.91339262472E+02  0.51100000000E-03 0. -1.
         11    1    3    3    0    0 -0.31165075120E+02 -0.25409306786E+02  0.15694571761E+02  0.43164966832E+02  0.51100000000E-03 0.  1.
<mgrwt>
<rscale>  0 0.92438174E+02</rscale>
<asrwt>0</asrwt>
<pdfrwt beam="2">  1        2 0.28305900E-02 0.92438174E+02</pdfrwt>
<pdfrwt beam="1">  1       -2 0.17862368E-01 0.92438174E+02</pdfrwt>
<totfact> 0.73637427E+04</totfact>
</mgrwt>
</event>
<event>
 5    1  0.2809073E+000  0.9038237E+02  0.7818608E-02  0.1301928E+00
          2   -1    0    0  501    0  0.00000000000E+00  0.00000000000E+00  0.22646299466E+03  0.22646299468E+03  0.26000000000E-02 0. -1.
         -2   -1    0    0    0  501 -0.00000000000E+00 -0.00000000000E+00 -0.90179992556E+01  0.90179996304E+01  0.26000000000E-02 0.  1.
         23    2    1    2    0    0  0.00000000000E+00  0.00000000000E+00  0.21744499541E+03  0.23548099431E+03  0.90382369148E+02 0.  0.
        -11    1    3    3    0    0 -0.34344724193E+02  0.42092858980E+01  0.32988392492E+02  0.47807030938E+02  0.51100000000E-03 0.  1.
         11    1    3    3    0    0  0.34344724193E+02 -0.42092858980E+01  0.18445660292E+03  0.18767396337E+03  0.51100000000E-03 0. -1.
<mgrwt>
<rscale>  0 0.90382369E+02</rscale>
<asrwt>0</asrwt>
<pdfrwt beam="1">  1        2 0.34840458E-01 0.90382369E+02</pdfrwt>
<pdfrwt beam="2">  1       -2 0.13873846E-02 0.90382369E+02</pdfrwt>
<totfact> 0.16569318E+05</totfact>
</mgrwt>
</event>
<event>
 5    1  0.2809073E+000  0.9148515E+02  0.7818608E-02  0.1299295E+00
         -2   -1    0    0    0  501 -0.00000000000E+00  0.00000000000E+00  0.67399347606E+02  0.67399347656E+02  0.26000000000E-02 0.  1.
          2   -1    0    0  501    0  0.00000000000E+00 -0.00000000000E+00 -0.31044563486E+02  0.31044563595E+02  0.26000000000E-02 0. -1.
         23    2    1    2    0    0  0.00000000000E+00  0.00000000000E+00  0.36354784120E+02  0.98443911251E+02  0.91485153626E+02 0.  0.
        -11    1    3    3    0    0  0.76499804114E+01  0.40322267170E+02 -0.35574002621E+01  0.41195418761E+02  0.51100000000E-03 0. -1.
         11    1    3    3    0    0 -0.76499804114E+01 -0.40322267170E+02  0.39912184382E+02  0.57248492490E+02  0.51100000000E-03 0.  1.
<mgrwt>
<rscale>  0 0.91485154E+02</rscale>
<asrwt>0</asrwt>
<pdfrwt beam="2">  1        2 0.47760868E-02 0.91485154E+02</pdfrwt>
<pdfrwt beam="1">  1       -2 0.10369130E-01 0.91485154E+02</pdfrwt>
<totfact> 0.88387286E+04</totfact>
</mgrwt>
</event>
<event>
 5    1  0.2809073E+000  0.9020962E+02  0.7818608E-02  0.1302345E+00
         -2   -1    0    0    0  501 -0.00000000000E+00  0.00000000000E+00  0.35327210212E+02  0.35327210308E+02  0.26000000000E-02 0.  1.
          2   -1    0    0  501    0  0.00000000000E+00 -0.00000000000E+00 -0.57588574433E+02  0.57588574492E+02  0.26000000000E-02 0. -1.
         23    2    1    2    0    0  0.00000000000E+00  0.00000000000E+00 -0.22261364221E+02  0.92915784800E+02  0.90209615496E+02 0.  0.
        -11    1    3    3    0    0 -0.33498120958E+02 -0.28892246551E+02 -0.20201553838E+02  0.48631150472E+02  0.51100000000E-03 0. -1.
         11    1    3    3    0    0  0.33498120958E+02  0.28892246551E+02 -0.20598103833E+01  0.44284634328E+02  0.51100000000E-03 0.  1.
<mgrwt>
<rscale>  0 0.90209615E+02</rscale>
<asrwt>0</asrwt>
<pdfrwt beam="2">  1        2 0.88597807E-02 0.90209615E+02</pdfrwt>
<pdfrwt beam="1">  1       -2 0.54349554E-02 0.90209615E+02</pdfrwt>
<totfact> 0.10811867E+05</totfact>
</mgrwt>
</event>
<event>
 5    1  0.2809073E+000  0.9103891E+02  0.7818608E-02  0.1300355E+00
         -2   -1    0    0    0  501 -0.00000000000E+00  0.00000000000E+00  0.18484224842E+02  0.18484225024E+02  0.26000000000E-02 0. -1.
          2   -1    0    0  501    0  0.00000000000E+00 -0.00000000000E+00 -0.11209669691E+03  0.11209669694E+03  0.26000000000E-02 0.  1.
         23    2    1    2    0    0  0.00000000000E+00  0.00000000000E+00 -0.93612472070E+02  0.13058092197E+03  0.91038905169E+02 0.  0.
        -11    1    3    3    0    0  0.16466749245E+02  0.25138146381E+02 -0.95846056945E+02  0.10044673646E+03  0.51100000000E-03 0.  1.
         11    1    3    3    0    0 -0.16466749245E+02 -0.25138146381E+02  0.22335848753E+01  0.30134185501E+02  0.51100000000E-03 0. -1.
<mgrwt>
<rscale>  0 0.91038905E+02</rscale>
<asrwt>0</asrwt>
<pdfrwt beam="2">  1        2 0.17245645E-01 0.91038905E+02</pdfrwt>
<pdfrwt beam="1">  1       -2 0.28437270E-02 0.91038905E+02</pdfrwt>
<totfact> 0.12761660E+05</totfact>
</mgrwt>
</event>
<event>
 5    1  0.2809073E+000  0.8822828E+02  0.7818608E-02  0.1307200E+00
         -2   -1    0    0    0  501 -0.00000000000E+00  0.00000000000E+00  0.33273156129E+03  0.33273156130E+03  0.26000000000E-02 0. -1.
          2   -1    0    0  501    0  0.00000000000E+00 -0.00000000000E+00 -0.58487302981E+01  0.58487308760E+01  0.26000000000E-02 0.  1.
         23    2    1    2    0    0  0.00000000000E+00  0.00000000000E+00  0.32688283100E+03  0.33858029218E+03  0.88228278080E+02 0.  0.
        -11    1    3    3    0    0  0.24661949087E+01 -0.41835513914E+02  0.11057719420E+03  0.11825230746E+03  0.51100000000E-03 0.  1.
         11    1    3    3    0    0 -0.24661949087E+01  0.41835513914E+02  0.21630563680E+03  0.22032798472E+03  0.51100000000E-03 0. -1.
<mgrwt>
<rscale>  0 0.88228278E+02</rscale>
<asrwt>0</asrwt>
<pdfrwt beam="2">  1        2 0.89980454E-03 0.88228278E+02</pdfrwt>
<pdfrwt beam="1">  1       -2 0.51189481E-01 0.88228278E+02</pdfrwt>
<totfact> 0.52261745E+04</totfact>
</mgrwt>
</event>
<event>
 5    1  0.2809073E+000  0.9055963E+02  0.7818608E-02  0.1301502E+00
          2   -1    0    0  501    0  0.00000000000E+00  0.00000000000E+00  0.16734679727E+02  0.16734679929E+02  0.26000000000E-02 0. -1.
         -2   -1    0    0    0  501 -0.00000000000E+00 -0.00000000000E+00 -0.12251575066E+03  0.12251575069E+03  0.26000000000E-02 0.  1.
         23    2    1    2    0    0  0.00000000000E+00  0.00000000000E+00 -0.10578107093E+03  0.13925043062E+03  0.90559634823E+02 0.  0.
        -11    1    3    3    0    0 -0.32066233853E+00  0.36851372324E+02 -0.12436913214E+02  0.38894771847E+02  0.51100000000E-03 0. -1.
         11    1    3    3    0    0  0.32066233853E+00 -0.36851372324E+02 -0.93344157721E+02  0.10035565877E+03  0.51100000000E-03 0.  1.
<mgrwt>
<rscale>  0 0.90559635E+02</rscale>
<asrwt>0</asrwt>
<pdfrwt beam="1">  1        2 0.25745662E-02 0.90559635E+02</pdfrwt>
<pdfrwt beam="2">  1       -2 0.18848576E-01 0.90559635E+02</pdfrwt>
<totfact> 0.76197858E+04</totfact>
</mgrwt>
</event>
<event>
 5    1  0.2809073E+000  0.9030407E+02  0.7818608E-02  0.1302117E+00
         -2   -1    0    0    0  501 -0.00000000000E+00  0.00000000000E+00  0.15057391858E+03  0.15057391860E+03  0.26000000000E-02 0.  1.
          2   -1    0    0  501    0  0.00000000000E+00 -0.00000000000E+00 -0.13539570513E+02  0.13539570763E+02  0.26000000000E-02 0. -1.
         23    2    1    2    0    0  0.00000000000E+00  0.00000000000E+00  0.13703434806E+03  0.16411348936E+03  0.90304068797E+02 0.  0.
        -11    1    3    3    0    0  0.41434425074E+02 -0.17048922636E+02  0.58361352349E+02  0.73576659292E+02  0.51100000000E-03 0.  1.
         11    1    3    3    0    0 -0.41434425074E+02  0.17048922636E+02  0.78672995713E+02  0.90536830069E+02  0.51100000000E-03 0. -1.
<mgrwt>
<rscale>  0 0.90304069E+02</rscale>
<asrwt>0</asrwt>
<pdfrwt beam="2">  1        2 0.20830111E-02 0.90304069E+02</pdfrwt>
<pdfrwt beam="1">  1       -2 0.23165216E-01 0.90304069E+02</pdfrwt>
<totfact> 0.71477922E+04</totfact>
</mgrwt>
</event>
<event>
 5    1  0.2809073E+000  0.9042591E+02  0.7818608E-02  0.1301824E+00
          2   -1    0    0  501    0  0.00000000000E+00  0.00000000000E+00  0.21473582569E+03  0.21473582570E+03  0.26000000000E-02 0. -1.
         -2   -1    0    0    0  501 -0.00000000000E+00 -0.00000000000E+00 -0.95196566811E+01  0.95196570362E+01  0.26000000000E-02 0.  1.
         23    2    1    2    0    0  0.00000000000E+00  0.00000000000E+00  0.20521616901E+03  0.22425548274E+03  0.90425911756E+02 0.  0.
        -11    1    3    3    0    0 -0.38015557734E+02 -0.24404662619E+02  0.98007589112E+02  0.10791782851E+03  0.51100000000E-03 0.  1.
         11    1    3    3    0    0  0.38015557734E+02  0.24404662619E+02  0.10720857989E+03  0.11633765422E+03  0.51100000000E-03 0. -1.
<mgrwt>
<rscale>  0 0.90425912E+02</rscale>
<asrwt>0</asrwt>
<pdfrwt beam="1">  1        2 0.33036279E-01 0.90425912E+02</pdfrwt>
<pdfrwt beam="2">  1       -2 0.14645627E-02 0.90425912E+02</pdfrwt>
<totfact> 0.16229233E+05</totfact>
</mgrwt>
</event>
<event>
 5    1  0.2809073E+000  0.8985657E+02  0.7818608E-02  0.1303199E+00
          2   -1    0    0  501    0  0.00000000000E+00  0.00000000000E+00  0.13489191415E+03  0.13489191417E+03  0.26000000000E-02 0. -1.
         -2   -1    0    0    0  501 -0.00000000000E+00 -0.00000000000E+00 -0.14964207632E+02  0.14964207858E+02  0.26000000000E-02 0.  1.
         23    2    1    2    0    0  0.00000000000E+00  0.00000000000E+00  0.11992770651E+03  0.14985612203E+03  0.89856566370E+02 0.  0.
        -11    1    3    3    0    0 -0.51094313767E+01  0.36640207155E+02  0.10248071068E+03  0.10895369260E+03  0.51100000000E-03 0. -1.
         11    1    3    3    0    0  0.51094313767E+01 -0.36640207155E+02  0.17446995835E+02  0.40902429430E+02  0.51100000000E-03 0.  1.
<mgrwt>
<rscale>  0 0.89856566E+02</rscale>
<asrwt>0</asrwt>
<pdfrwt beam="1">  1        2 0.20752602E-01 0.89856566E+02</pdfrwt>
<pdfrwt beam="2">  1       -2 0.23021858E-02 0.89856566E+02</pdfrwt>
<totfact> 0.14037139E+05</totfact>
</mgrwt>
</event>
<event>
 5    1  0.2809073E+000  0.9342674E+02  0.7818608E-02  0.1294759E+00
          2   -1    0    0  501    0  0.00000000000E+00  0.00000000000E+00  0.12466692758E+03  0.12466692761E+03  0.26000000000E-02 0.  1.
         -2   -1    0    0    0  501 -0.00000000000E+00 -0.00000000000E+00 -0.17503750526E+02  0.17503750719E+02  0.26000000000E-02 0. -1.
         23    2    1    2    0    0  0.00000000000E+00  0.00000000000E+00  0.10716317706E+03  0.14217067833E+03  0.93426737393E+02 0.  0.
        -11    1    3    3    0    0 -0.62439984369E+01 -0.30514174235E+02  0.60344977631E+00  0.31152311272E+02  0.51100000000E-03 0. -1.
         11    1    3    3    0    0  0.62439984369E+01  0.30514174235E+02  0.10655972728E+03  0.11101836706E+03  0.51100000000E-03 0.  1.
<mgrwt>
<rscale>  0 0.93426737E+02</rscale>
<asrwt>0</asrwt>
<pdfrwt beam="1">  1        2 0.19179526E-01 0.93426737E+02</pdfrwt>
<pdfrwt beam="2">  1       -2 0.26928849E-02 0.93426737E+02</pdfrwt>
<totfact> 0.12298542E+05</totfact>
</mgrwt>
</event>
<event>
 5    1  0.2809073E+000  0.9014587E+02  0.7818608E-02  0.1302499E+00
          2   -1    0    0  501    0  0.00000000000E+00  0.00000000000E+00  0.19880960142E+02  0.19880960312E+02  0.26000000000E-02 0.  1.
         -2   -1    0    0    0  501 -0.00000000000E+00 -0.00000000000E+00 -0.10218668519E+03  0.10218668523E+03  0.26000000000E-02 0. -1.
         23    2    1    2    0    0  0.00000000000E+00  0.00000000000E+00 -0.82305725051E+02  0.12206764554E+03  0.90145869073E+02 0.  0.
        -11    1    3    3    0    0  0.42366998489E+02  0.83061820873E+01 -0.58684002187E+02  0.72854425636E+02  0.51100000000E-03 0. -1.
         11    1    3    3    0    0 -0.42366998489E+02 -0.83061820873E+01 -0.23621722865E+02  0.49213219902E+02  0.51100000000E-03 0.  1.
<mgrwt>
<rscale>  0 0.90145869E+02</rscale>
<asrwt>0</asrwt>
<pdfrwt beam="1">  1        2 0.30586093E-02 0.90145869E+02</pdfrwt>
<pdfrwt beam="2">  1       -2 0.15721028E-01 0.90145869E+02</pdfrwt>
<totfact> 0.81567310E+04</totfact>
</mgrwt>
</event>
<event>
 5    1  0.2809073E+000  0.9234933E+02  0.7818608E-02  0.1297260E+00
          2   -1    0    0  501    0  0.00000000000E+00  0.00000000000E+00  0.16448512018E+02  0.16448512223E+02  0.26000000000E-02 0. -1.
         -2   -1    0    0    0  501 -0.00000000000E+00 -0.00000000000E+00 -0.12962265733E+03  0.12962265736E+03  0.26000000000E-02 0.  1.
         23    2    1    2    0    0  0.00000000000E+00  0.00000000000E+00 -0.11317414532E+03  0.14607116958E+03  0.92349333594E+02 0.  0.
        -11    1    3    3    0    0  0.26162277312E+02  0.17958226454E+02 -0.10964294787E+03  0.11414262425E+03  0.51100000000E-03 0.  1.
         11    1    3    3    0    0 -0.26162277312E+02 -0.17958226454E+02 -0.35311974416E+01  0.31928545334E+02  0.51100000000E-03 0. -1.
<mgrwt>
<rscale>  0 0.92349334E+02</rscale>
<asrwt>0</asrwt>
<pdfrwt beam="1">  1        2 0.25305404E-02 0.92349334E+02</pdfrwt>
<pdfrwt beam="2">  1       -2 0.19941947E-01 0.92349334E+02</pdfrwt>
<totfact> 0.71190136E+04</totfact>
</mgrwt>
</event>
<event>
 5    1  0.2809073E+000  0.7625831E+02  0.7818608E-02  0.1340018E+00
          2   -1    0    0  501    0  0.00000000000E+00  0.00000000000E+00  0.33641391940E+03  0.33641391942E+03  0.26000000000E-02 0. -1.
         -2   -1    0    0    0  501 -0.00000000000E+00 -0.00000000000E+00 -0.43215579820E+01  0.43215587642E+01  0.26000000000E-02 0.  1.
         23    2    1    2    0    0  0.00000000000E+00  0.00000000000E+00  0.33209236142E+03  0.34073547818E+03  0.76258308233E+02 0.  0.
        -11    1    3    3    0    0 -0.36578151300E+02 -0.10678787633E+02  0.15999392983E+03  0.16446900997E+03  0.51100000000E-03 0. -1.
         11    1    3    3    0    0  0.36578151300E+02  0.10678787633E+02  0.17209843159E+03  0.17626646821E+03  0.51100000000E-03 0.  1.
<mgrwt>
<rscale>  0 0.76258308E+02</rscale>
<asrwt>0</asrwt>
<pdfrwt beam="1">  1        2 0.51756003E-01 0.76258308E+02</pdfrwt>
<pdfrwt beam="2">  1       -2 0.66485493E-03 0.76258308E+02</pdfrwt>
<totfact> 0.30022877E+05</totfact>
</mgrwt>
</event>
<event>
 5    1  0.2809073E+000  0.9080523E+02  0.7818608E-02  0.1300913E+00
          2   -1    0    0  501    0  0.00000000000E+00  0.00000000000E+00  0.17464062449E+03  0.17464062451E+03  0.26000000000E-02 0. -1.
         -2   -1    0    0    0  501 -0.00000000000E+00 -0.00000000000E+00 -0.11803653060E+02  0.11803653346E+02  0.26000000000E-02 0.  1.
         23    2    1    2    0    0  0.00000000000E+00  0.00000000000E+00  0.16283697143E+03  0.18644427786E+03  0.90805228267E+02 0.  0.
        -11    1    3    3    0    0  0.20300925236E+02  0.22351505374E+02  0.11799659782E+02  0.32418348649E+02  0.51100000000E-03 0.  1.
         11    1    3    3    0    0 -0.20300925236E+02 -0.22351505374E+02  0.15103731165E+03  0.15402592921E+03  0.51100000000E-03 0. -1.
<mgrwt>
<rscale>  0 0.90805228E+02</rscale>
<asrwt>0</asrwt>
<pdfrwt beam="1">  1        2 0.26867790E-01 0.90805228E+02</pdfrwt>
<pdfrwt beam="2">  1       -2 0.18159466E-02 0.90805228E+02</pdfrwt>
<totfact> 0.14899791E+05</totfact>
</mgrwt>
</event>
<event>
 5    1  0.2809073E+000  0.8488956E+02  0.7818608E-02  0.1315722E+00
          2   -1    0    0  501    0  0.00000000000E+00  0.00000000000E+00  0.42258641674E+02  0.42258641754E+02  0.26000000000E-02 0.  1.
         -2   -1    0    0    0  501 -0.00000000000E+00 -0.00000000000E+00 -0.42631739591E+02  0.42631739671E+02  0.26000000000E-02 0. -1.
         23    2    1    2    0    0  0.00000000000E+00  0.00000000000E+00 -0.37309791745E+00  0.84890381425E+02  0.84889561528E+02 0.  0.
        -11    1    3    3    0    0 -0.39732364671E+01  0.42114960279E+02 -0.36655086197E+01  0.42460480932E+02  0.51100000000E-03 0.  1.
         11    1    3    3    0    0  0.39732364671E+01 -0.42114960279E+02  0.32924107022E+01  0.42429900492E+02  0.51100000000E-03 0. -1.
<mgrwt>
<rscale>  0 0.84889562E+02</rscale>
<asrwt>0</asrwt>
<pdfrwt beam="1">  1        2 0.65013295E-02 0.84889562E+02</pdfrwt>
<pdfrwt beam="2">  1       -2 0.65587292E-02 0.84889562E+02</pdfrwt>
<totfact> 0.11870373E+05</totfact>
</mgrwt>
</event>
<event>
 5    1  0.2809073E+000  0.9403380E+02  0.7818608E-02  0.1293367E+00
         -2   -1    0    0    0  501 -0.00000000000E+00  0.00000000000E+00  0.11651541542E+02  0.11651541832E+02  0.26000000000E-02 0.  1.
          2   -1    0    0  501    0  0.00000000000E+00 -0.00000000000E+00 -0.18972499832E+03  0.18972499833E+03  0.26000000000E-02 0. -1.
         23    2    1    2    0    0  0.00000000000E+00  0.00000000000E+00 -0.17807345677E+03  0.20137654016E+03  0.94033796698E+02 0.  0.
        -11    1    3    3    0    0  0.31410036512E+01 -0.30749421355E+02 -0.13164880486E+02  0.33596233361E+02  0.51100000000E-03 0.  1.
         11    1    3    3    0    0 -0.31410036512E+01  0.30749421355E+02 -0.16490857629E+03  0.16778030680E+03  0.51100000000E-03 0. -1.
<mgrwt>
<rscale>  0 0.94033797E+02</rscale>
<asrwt>0</asrwt>
<pdfrwt beam="2">  1        2 0.29188459E-01 0.94033797E+02</pdfrwt>
<pdfrwt beam="1">  1       -2 0.17925450E-02 0.94033797E+02</pdfrwt>
<totfact> 0.13962584E+05</totfact>
</mgrwt>
</event>
<event>
 5    1  0.2809073E+000  0.9000588E+02  0.7818608E-02  0.1302837E+00
          2   -1    0    0  501    0  0.00000000000E+00  0.00000000000E+00  0.17268166094E+03  0.17268166096E+03  0.26000000000E-02 0.  1.
         -2   -1    0    0    0  501 -0.00000000000E+00 -0.00000000000E+00 -0.11728314139E+02  0.11728314427E+02  0.26000000000E-02 0. -1.
         23    2    1    2    0    0  0.00000000000E+00  0.00000000000E+00  0.16095334680E+03  0.18440997539E+03  0.90005884116E+02 0.  0.
        -11    1    3    3    0    0 -0.36694195194E+02  0.21327027633E+02  0.49814883688E+02  0.65443324378E+02  0.51100000000E-03 0.  1.
         11    1    3    3    0    0  0.36694195194E+02 -0.21327027633E+02  0.11113846312E+03  0.11896665101E+03  0.51100000000E-03 0. -1.
<mgrwt>
<rscale>  0 0.90005884E+02</rscale>
<asrwt>0</asrwt>
<pdfrwt beam="1">  1        2 0.26566410E-01 0.90005884E+02</pdfrwt>
<pdfrwt beam="2">  1       -2 0.18043560E-02 0.90005884E+02</pdfrwt>
<totfact> 0.15199179E+05</totfact>
</mgrwt>
</event>
<event>
 5    1  0.2809073E+000  0.9274778E+02  0.7818608E-02  0.1296331E+00
          2   -1    0    0  501    0  0.00000000000E+00  0.00000000000E+00  0.15056112990E+03  0.15056112993E+03  0.26000000000E-02 0. -1.
         -2   -1    0    0    0  501 -0.00000000000E+00 -0.00000000000E+00 -0.14283483870E+02  0.14283484107E+02  0.26000000000E-02 0.  1.
         23    2    1    2    0    0  0.00000000000E+00  0.00000000000E+00  0.13627764603E+03  0.16484461403E+03  0.92747776077E+02 0.  0.
        -11    1    3    3    0    0 -0.27591983691E+02  0.36414795835E+02  0.54011173664E+02  0.70742927566E+02  0.51100000000E-03 0.  1.
         11    1    3    3    0    0  0.27591983691E+02 -0.36414795835E+02  0.82266472368E+02  0.94101686466E+02  0.51100000000E-03 0. -1.
<mgrwt>
<rscale>  0 0.92747776E+02</rscale>
<asrwt>0</asrwt>
<pdfrwt beam="1">  1        2 0.23163251E-01 0.92747776E+02</pdfrwt>
<pdfrwt beam="2">  1       -2 0.21974591E-02 0.92747776E+02</pdfrwt>
<totfact> 0.13363369E+05</totfact>
</mgrwt>
</event>
<event>
 5    1  0.2809073E+000  0.9318686E+02  0.7818608E-02  0.1295313E+00
          2   -1    0    0  501    0  0.00000000000E+00  0.00000000000E+00  0.17898748859E+02  0.17898749048E+02  0.26000000000E-02 0.  1.
         -2   -1    0    0    0  501 -0.00000000000E+00 -0.00000000000E+00 -0.12129046547E+03  0.12129046550E+03  0.26000000000E-02 0. -1.
         23    2    1    2    0    0  0.00000000000E+00  0.00000000000E+00 -0.10339171661E+03  0.13918921455E+03  0.93186857348E+02 0.  0.
        -11    1    3    3    0    0 -0.91502104907E+01  0.44668597281E+02 -0.37374057075E+02  0.58956170818E+02  0.51100000000E-03 0.  1.
         11    1    3    3    0    0  0.91502104907E+01 -0.44668597281E+02 -0.66017659536E+02  0.80233043728E+02  0.51100000000E-03 0. -1.
<mgrwt>
<rscale>  0 0.93186857E+02</rscale>
<asrwt>0</asrwt>
<pdfrwt beam="1">  1        2 0.27536538E-02 0.93186857E+02</pdfrwt>
<pdfrwt beam="2">  1       -2 0.18660071E-01 0.93186857E+02</pdfrwt>
<totfact> 0.71148198E+04</totfact>
</mgrwt>
</event>
<event>
 5    1  0.2809073E+000  0.1008088E+03  0.7818608E-02  0.1278604E+00
          2   -1    0    0  501    0  0.00000000000E+00  0.00000000000E+00  0.26531751241E+03  0.26531751242E+03  0.26000000000E-02 0. -1.
         -2   -1    0    0    0  501 -0.00000000000E+00 -0.00000000000E+00 -0.95757102321E+01  0.95757105851E+01  0.26000000000E-02 0.  1.
         23    2    1    2    0    0  0.00000000000E+00  0.00000000000E+00  0.25574180218E+03  0.27489322301E+03  0.10080880256E+03 0.  0.
        -11    1    3    3    0    0 -0.47737633413E+02 -0.15912729938E+02  0.13582434237E+03  0.14484594782E+03  0.51100000000E-03 0.  1.
         11    1    3    3    0    0  0.47737633413E+02  0.15912729938E+02  0.11991745980E+03  0.13004727519E+03  0.51100000000E-03 0. -1.
<mgrwt>
<rscale>  0 0.10080880E+03</rscale>
<asrwt>0</asrwt>
<pdfrwt beam="1">  1        2 0.40818071E-01 0.10080880E+03</pdfrwt>
<pdfrwt beam="2">  1       -2 0.14731865E-02 0.10080880E+03</pdfrwt>
<totfact> 0.13096948E+05</totfact>
</mgrwt>
</event>
<event>
 5    1  0.2809073E+000  0.9050220E+02  0.7818608E-02  0.1301640E+00
          2   -1    0    0  501    0  0.00000000000E+00  0.00000000000E+00  0.88761096792E+02  0.88761096830E+02  0.26000000000E-02 0. -1.
         -2   -1    0    0    0  501 -0.00000000000E+00 -0.00000000000E+00 -0.23069366197E+02  0.23069366344E+02  0.26000000000E-02 0.  1.
         23    2    1    2    0    0  0.00000000000E+00  0.00000000000E+00  0.65691730594E+02  0.11183046317E+03  0.90502204532E+02 0.  0.
        -11    1    3    3    0    0  0.15492015135E+02  0.28335315034E+02  0.72014119837E+02  0.78923545709E+02  0.51100000000E-03 0. -1.
         11    1    3    3    0    0 -0.15492015135E+02 -0.28335315034E+02 -0.63223892431E+01  0.32906917465E+02  0.51100000000E-03 0.  1.
<mgrwt>
<rscale>  0 0.90502205E+02</rscale>
<asrwt>0</asrwt>
<pdfrwt beam="1">  1        2 0.13655554E-01 0.90502205E+02</pdfrwt>
<pdfrwt beam="2">  1       -2 0.35491332E-02 0.90502205E+02</pdfrwt>
<totfact> 0.12082756E+05</totfact>
</mgrwt>
</event>
<event>
 5    1  0.2809073E+000  0.9349249E+02  0.7818608E-02  0.1294608E+00
         -2   -1    0    0    0  501 -0.00000000000E+00  0.00000000000E+00  0.11316040306E+03  0.11316040309E+03  0.26000000000E-02 0.  1.
          2   -1    0    0  501    0  0.00000000000E+00 -0.00000000000E+00 -0.19310741258E+02  0.19310741433E+02  0.26000000000E-02 0. -1.
         23    2    1    2    0    0  0.00000000000E+00  0.00000000000E+00  0.93849661807E+02  0.13247114453E+03  0.93492486925E+02 0.  0.
        -11    1    3    3    0    0  0.34074804113E+02  0.31801212412E+02  0.51994523726E+02  0.69827214493E+02  0.51100000000E-03 0.  1.
         11    1    3    3    0    0 -0.34074804113E+02 -0.31801212412E+02  0.41855138081E+02  0.62643930035E+02  0.51100000000E-03 0. -1.
<mgrwt>
<rscale>  0 0.93492487E+02</rscale>
<asrwt>0</asrwt>
<pdfrwt beam="2">  1        2 0.29708833E-02 0.93492487E+02</pdfrwt>
<pdfrwt beam="1">  1       -2 0.17409293E-01 0.93492487E+02</pdfrwt>
<totfact> 0.72162185E+04</totfact>
</mgrwt>
</event>
<event>
 5    1  0.2809073E+000  0.7989887E+02  0.7818608E-02  0.1329339E+00
         -2   -1    0    0    0  501 -0.00000000000E+00  0.00000000000E+00  0.16227754093E+02  0.16227754301E+02  0.26000000000E-02 0.  1.
          2   -1    0    0  501    0  0.00000000000E+00 -0.00000000000E+00 -0.98347393129E+02  0.98347393163E+02  0.26000000000E-02 0. -1.
         23    2    1    2    0    0  0.00000000000E+00  0.00000000000E+00 -0.82119639036E+02  0.11457514746E+03  0.79898869210E+02 0.  0.
        -11    1    3    3    0    0 -0.22028916013E+02 -0.14960779533E+02  0.16450249512E+01  0.26679658399E+02  0.51100000000E-03 0.  1.
         11    1    3    3    0    0  0.22028916013E+02  0.14960779533E+02 -0.83764663987E+02  0.87895489065E+02  0.51100000000E-03 0. -1.
<mgrwt>
<rscale>  0 0.79898869E+02</rscale>
<asrwt>0</asrwt>
<pdfrwt beam="2">  1        2 0.15130368E-01 0.79898869E+02</pdfrwt>
<pdfrwt beam="1">  1       -2 0.24965776E-02 0.79898869E+02</pdfrwt>
<totfact> 0.17495653E+05</totfact>
</mgrwt>
</event>
<event>
 5    1  0.2809073E+000  0.9218926E+02  0.7818608E-02  0.1297635E+00
          2   -1    0    0  501    0  0.00000000000E+00  0.00000000000E+00  0.22296494503E+02  0.22296494655E+02  0.26000000000E-02 0. -1.
         -2   -1    0    0    0  501 -0.00000000000E+00 -0.00000000000E+00 -0.95293666272E+02  0.95293666308E+02  0.26000000000E-02 0.  1.
         23    2    1    2    0    0  0.00000000000E+00  0.00000000000E+00 -0.72997171769E+02  0.11759016096E+03  0.92189255713E+02 0.  0.
        -11    1    3    3    0    0  0.27821596161E+02  0.36730262148E+02 -0.34904762010E+02  0.57805672573E+02  0.51100000000E-03 0.  1.
         11    1    3    3    0    0 -0.27821596161E+02 -0.36730262148E+02 -0.38092409759E+02  0.59784488389E+02  0.51100000000E-03 0. -1.
<mgrwt>
<rscale>  0 0.92189256E+02</rscale>
<asrwt>0</asrwt>
<pdfrwt beam="1">  1        2 0.34302300E-02 0.92189256E+02</pdfrwt>
<pdfrwt beam="2">  1       -2 0.14660564E-01 0.92189256E+02</pdfrwt>
<totfact> 0.78761174E+04</totfact>
</mgrwt>
</event>
<event>
 5    1  0.2809073E+000  0.8639900E+02  0.7818608E-02  0.1311814E+00
         -2   -1    0    0    0  501 -0.00000000000E+00  0.00000000000E+00  0.35447378392E+02  0.35447378487E+02  0.26000000000E-02 0.  1.
          2   -1    0    0  501    0  0.00000000000E+00 -0.00000000000E+00 -0.52646958118E+02  0.52646958182E+02  0.26000000000E-02 0. -1.
         23    2    1    2    0    0  0.00000000000E+00  0.00000000000E+00 -0.17199579726E+02  0.88094336669E+02  0.86398996582E+02 0.  0.
        -11    1    3    3    0    0 -0.21283958129E+02 -0.36197839104E+02 -0.18943113411E+02  0.46066603689E+02  0.51100000000E-03 0.  1.
         11    1    3    3    0    0  0.21283958129E+02  0.36197839104E+02  0.17435336853E+01  0.42027732980E+02  0.51100000000E-03 0. -1.
<mgrwt>
<rscale>  0 0.86398997E+02</rscale>
<asrwt>0</asrwt>
<pdfrwt beam="2">  1        2 0.80995320E-02 0.86398997E+02</pdfrwt>
<pdfrwt beam="1">  1       -2 0.54534428E-02 0.86398997E+02</pdfrwt>
<totfact> 0.11928356E+05</totfact>
</mgrwt>
</event>
<event>
 5    1  0.2809073E+000  0.9138566E+02  0.7818608E-02  0.1299530E+00
         -2   -1    0    0    0  501 -0.00000000000E+00  0.00000000000E+00  0.12947275397E+02  0.12947275658E+02  0.26000000000E-02 0.  1.
          2   -1    0    0  501    0  0.00000000000E+00 -0.00000000000E+00 -0.16125667382E+03  0.16125667384E+03  0.26000000000E-02 0. -1.
         23    2    1    2    0    0  0.00000000000E+00  0.00000000000E+00 -0.14830939843E+03  0.17420394950E+03  0.91385657301E+02 0.  0.
        -11    1    3    3    0    0  0.12923886654E+02 -0.29422983062E+02 -0.13607398047E+03  0.13981726267E+03  0.51100000000E-03 0.  1.
         11    1    3    3    0    0 -0.12923886654E+02  0.29422983062E+02 -0.12235417952E+02  0.34386686831E+02  0.51100000000E-03 0. -1.
<mgrwt>
<rscale>  0 0.91385657E+02</rscale>
<asrwt>0</asrwt>
<pdfrwt beam="2">  1        2 0.24808718E-01 0.91385657E+02</pdfrwt>
<pdfrwt beam="1">  1       -2 0.19918887E-02 0.91385657E+02</pdfrwt>
<totfact> 0.14243710E+05</totfact>
</mgrwt>
</event>
<event>
 5    1  0.2809073E+000  0.9232252E+02  0.7818608E-02  0.1297323E+00
          2   -1    0    0  501    0  0.00000000000E+00  0.00000000000E+00  0.15430508485E+02  0.15430508704E+02  0.26000000000E-02 0. -1.
         -2   -1    0    0    0  501 -0.00000000000E+00 -0.00000000000E+00 -0.13809408370E+03  0.13809408373E+03  0.26000000000E-02 0.  1.
         23    2    1    2    0    0  0.00000000000E+00  0.00000000000E+00 -0.12266357522E+03  0.15352459243E+03  0.92322520524E+02 0.  0.
        -11    1    3    3    0    0  0.88393048632E+01 -0.43280344970E+02 -0.83613643820E+02  0.94565125730E+02  0.51100000000E-03 0.  1.
         11    1    3    3    0    0 -0.88393048632E+01  0.43280344970E+02 -0.39049931396E+02  0.58959466699E+02  0.51100000000E-03 0. -1.
<mgrwt>
<rscale>  0 0.92322521E+02</rscale>
<asrwt>0</asrwt>
<pdfrwt beam="1">  1        2 0.23739245E-02 0.92322521E+02</pdfrwt>
<pdfrwt beam="2">  1       -2 0.21245243E-01 0.92322521E+02</pdfrwt>
<totfact> 0.69709152E+04</totfact>
</mgrwt>
</event>
<event>
 5    1  0.2809073E+000  0.9270551E+02  0.7818608E-02  0.1296429E+00
         -2   -1    0    0    0  501 -0.00000000000E+00  0.00000000000E+00  0.41801037873E+02  0.41801037954E+02  0.26000000000E-02 0.  1.
          2   -1    0    0  501    0  0.00000000000E+00 -0.00000000000E+00 -0.51400108415E+02  0.51400108481E+02  0.26000000000E-02 0. -1.
         23    2    1    2    0    0  0.00000000000E+00  0.00000000000E+00 -0.95990705421E+01  0.93201146435E+02  0.92705509769E+02 0.  0.
        -11    1    3    3    0    0 -0.32651635863E+02  0.14180200670E+02  0.25047070950E+02  0.43526580144E+02  0.51100000000E-03 0.  1.
         11    1    3    3    0    0  0.32651635863E+02 -0.14180200670E+02 -0.34646141492E+02  0.49674566291E+02  0.51100000000E-03 0. -1.
<mgrwt>
<rscale>  0 0.92705510E+02</rscale>
<asrwt>0</asrwt>
<pdfrwt beam="2">  1        2 0.79077090E-02 0.92705510E+02</pdfrwt>
<pdfrwt beam="1">  1       -2 0.64309289E-02 0.92705510E+02</pdfrwt>
<totfact> 0.97091437E+04</totfact>
</mgrwt>
</event>
<event>
 5    1  0.2809073E+000  0.8988842E+02  0.7818608E-02  0.1303122E+00
         -2   -1    0    0    0  501 -0.00000000000E+00  0.00000000000E+00  0.85533323692E+02  0.85533323731E+02  0.26000000000E-02 0. -1.
          2   -1    0    0  501    0  0.00000000000E+00 -0.00000000000E+00 -0.23616314003E+02  0.23616314147E+02  0.26000000000E-02 0.  1.
         23    2    1    2    0    0  0.00000000000E+00  0.00000000000E+00  0.61917009688E+02  0.10914963788E+03  0.89888416162E+02 0.  0.
        -11    1    3    3    0    0  0.16165345793E+02  0.41743474664E+02  0.35837695538E+02  0.57342623792E+02  0.51100000000E-03 0. -1.
         11    1    3    3    0    0 -0.16165345793E+02 -0.41743474664E+02  0.26079314151E+02  0.51807014086E+02  0.51100000000E-03 0.  1.
<mgrwt>
<rscale>  0 0.89888416E+02</rscale>
<asrwt>0</asrwt>
<pdfrwt beam="2">  1        2 0.36332792E-02 0.89888416E+02</pdfrwt>
<pdfrwt beam="1">  1       -2 0.13158973E-01 0.89888416E+02</pdfrwt>
<totfact> 0.86487647E+04</totfact>
</mgrwt>
</event>
<event>
 5    1  0.2809073E+000  0.9968988E+02  0.7818608E-02  0.1280949E+00
          2   -1    0    0  501    0  0.00000000000E+00  0.00000000000E+00  0.52389915570E+02  0.52389915634E+02  0.26000000000E-02 0. -1.
         -2   -1    0    0    0  501 -0.00000000000E+00 -0.00000000000E+00 -0.47423591935E+02  0.47423592007E+02  0.26000000000E-02 0.  1.
         23    2    1    2    0    0  0.00000000000E+00  0.00000000000E+00  0.49663236343E+01  0.99813507641E+02  0.99689878810E+02 0.  0.
        -11    1    3    3    0    0 -0.61602045428E+01 -0.29771738297E+02 -0.37065360412E+02  0.47938976460E+02  0.51100000000E-03 0.  1.
         11    1    3    3    0    0  0.61602045428E+01  0.29771738297E+02  0.42031684046E+02  0.51874531181E+02  0.51100000000E-03 0. -1.
<mgrwt>
<rscale>  0 0.99689879E+02</rscale>
<asrwt>0</asrwt>
<pdfrwt beam="1">  1        2 0.80599870E-02 0.99689879E+02</pdfrwt>
<pdfrwt beam="2">  1       -2 0.72959372E-02 0.99689879E+02</pdfrwt>
<totfact> 0.79190448E+04</totfact>
</mgrwt>
</event>
<event>
 5    1  0.2809073E+000  0.9756224E+02  0.7818608E-02  0.1285507E+00
         -2   -1    0    0    0  501 -0.00000000000E+00  0.00000000000E+00  0.23867242003E+03  0.23867242004E+03  0.26000000000E-02 0.  1.
          2   -1    0    0  501    0  0.00000000000E+00 -0.00000000000E+00 -0.99701399650E+01  0.99701403040E+01  0.26000000000E-02 0. -1.
         23    2    1    2    0    0  0.00000000000E+00  0.00000000000E+00  0.22870228006E+03  0.24864256034E+03  0.97562236082E+02 0.  0.
        -11    1    3    3    0    0 -0.45234926010E+02 -0.16611275501E+02  0.13367053114E+03  0.14209132240E+03  0.51100000000E-03 0. -1.
         11    1    3    3    0    0  0.45234926010E+02  0.16611275501E+02  0.95031748919E+02  0.10655123795E+03  0.51100000000E-03 0.  1.
<mgrwt>
<rscale>  0 0.97562236E+02</rscale>
<asrwt>0</asrwt>
<pdfrwt beam="2">  1        2 0.15338677E-02 0.97562236E+02</pdfrwt>
<pdfrwt beam="1">  1       -2 0.36718834E-01 0.97562236E+02</pdfrwt>
<totfact> 0.48299414E+04</totfact>
</mgrwt>
</event>
<event>
 5    1  0.2809073E+000  0.9205492E+02  0.7818608E-02  0.1297950E+00
          2   -1    0    0  501    0  0.00000000000E+00  0.00000000000E+00  0.44739893105E+02  0.44739893181E+02  0.26000000000E-02 0. -1.
         -2   -1    0    0    0  501 -0.00000000000E+00 -0.00000000000E+00 -0.47352077982E+02  0.47352078054E+02  0.26000000000E-02 0.  1.
         23    2    1    2    0    0  0.00000000000E+00  0.00000000000E+00 -0.26121848771E+01  0.92091971235E+02  0.92054916523E+02 0.  0.
        -11    1    3    3    0    0 -0.38538425026E+02 -0.84208986891E+01  0.22418536846E+02  0.45373037509E+02  0.51100000000E-03 0. -1.
         11    1    3    3    0    0  0.38538425026E+02  0.84208986891E+01 -0.25030721723E+02  0.46718933726E+02  0.51100000000E-03 0.  1.
<mgrwt>
<rscale>  0 0.92054917E+02</rscale>
<asrwt>0</asrwt>
<pdfrwt beam="1">  1        2 0.68830605E-02 0.92054917E+02</pdfrwt>
<pdfrwt beam="2">  1       -2 0.72849351E-02 0.92054917E+02</pdfrwt>
<totfact> 0.95522258E+04</totfact>
</mgrwt>
</event>
<event>
 5    1  0.2809073E+000  0.9155494E+02  0.7818608E-02  0.1299129E+00
          2   -1    0    0  501    0  0.00000000000E+00  0.00000000000E+00  0.25643537363E+02  0.25643537495E+02  0.26000000000E-02 0. -1.
         -2   -1    0    0    0  501 -0.00000000000E+00 -0.00000000000E+00 -0.81719495433E+02  0.81719495475E+02  0.26000000000E-02 0.  1.
         23    2    1    2    0    0  0.00000000000E+00  0.00000000000E+00 -0.56075958071E+02  0.10736303297E+03  0.91554944022E+02 0.  0.
        -11    1    3    3    0    0 -0.13009171102E+02  0.38884273622E+02 -0.41676986724E+01  0.41214014368E+02  0.51100000000E-03 0. -1.
         11    1    3    3    0    0  0.13009171102E+02 -0.38884273622E+02 -0.51908259398E+02  0.66149018601E+02  0.51100000000E-03 0.  1.
<mgrwt>
<rscale>  0 0.91554944E+02</rscale>
<asrwt>0</asrwt>
<pdfrwt beam="1">  1        2 0.39451596E-02 0.91554944E+02</pdfrwt>
<pdfrwt beam="2">  1       -2 0.12572230E-01 0.91554944E+02</pdfrwt>
<totfact> 0.83721396E+04</totfact>
</mgrwt>
</event>
<event>
 5    1  0.2809073E+000  0.8181150E+02  0.7818608E-02  0.1323988E+00
         -2   -1    0    0    0  501 -0.00000000000E+00  0.00000000000E+00  0.42632549704E+02  0.42632549783E+02  0.26000000000E-02 0. -1.
          2   -1    0    0  501    0  0.00000000000E+00 -0.00000000000E+00 -0.39248895799E+02  0.39248895885E+02  0.26000000000E-02 0.  1.
         23    2    1    2    0    0  0.00000000000E+00  0.00000000000E+00  0.33836539053E+01  0.81881445668E+02  0.81811503048E+02 0.  0.
        -11    1    3    3    0    0 -0.30403140259E+02  0.26675654875E+02 -0.44239622981E+01  0.40687995076E+02  0.51100000000E-03 0.  1.
         11    1    3    3    0    0  0.30403140259E+02 -0.26675654875E+02  0.78076162033E+01  0.41193450592E+02  0.51100000000E-03 0. -1.
<mgrwt>
<rscale>  0 0.81811503E+02</rscale>
<asrwt>0</asrwt>
<pdfrwt beam="2">  1        2 0.60382917E-02 0.81811503E+02</pdfrwt>
<pdfrwt beam="1">  1       -2 0.65588538E-02 0.81811503E+02</pdfrwt>
<totfact> 0.12949520E+05</totfact>
</mgrwt>
</event>
<event>
 5    1  0.2809073E+000  0.7501311E+02  0.7818608E-02  0.1343830E+00
         -2   -1    0    0    0  501 -0.00000000000E+00  0.00000000000E+00  0.56130217059E+01  0.56130223081E+01  0.26000000000E-02 0. -1.
          2   -1    0    0  501    0  0.00000000000E+00 -0.00000000000E+00 -0.25062111258E+03  0.25062111259E+03  0.26000000000E-02 0.  1.
         23    2    1    2    0    0  0.00000000000E+00  0.00000000000E+00 -0.24500809087E+03  0.25623413490E+03  0.75013114153E+02 0.  0.
        -11    1    3    3    0    0  0.36869338760E+02 -0.24939013475E+01 -0.14442260714E+03  0.14907534048E+03  0.51100000000E-03 0.  1.
         11    1    3    3    0    0 -0.36869338760E+02  0.24939013475E+01 -0.10058548372E+03  0.10715879442E+03  0.51100000000E-03 0. -1.
<mgrwt>
<rscale>  0 0.75013114E+02</rscale>
<asrwt>0</asrwt>
<pdfrwt beam="2">  1        2 0.38557086E-01 0.75013114E+02</pdfrwt>
<pdfrwt beam="1">  1       -2 0.86354204E-03 0.75013114E+02</pdfrwt>
<totfact> 0.28166715E+05</totfact>
</mgrwt>
</event>
<event>
 5    1  0.2809073E+000  0.9126175E+02  0.7818608E-02  0.1299825E+00
          2   -1    0    0  501    0  0.00000000000E+00  0.00000000000E+00  0.10350608442E+02  0.10350608769E+02  0.26000000000E-02 0. -1.
         -2   -1    0    0    0  501 -0.00000000000E+00 -0.00000000000E+00 -0.20116468773E+03  0.20116468775E+03  0.26000000000E-02 0.  1.
         23    2    1    2    0    0  0.00000000000E+00  0.00000000000E+00 -0.19081407929E+03  0.21151529652E+03  0.91261754343E+02 0.  0.
        -11    1    3    3    0    0 -0.24883938584E+01 -0.43945272130E+02 -0.12329611438E+03  0.13091719088E+03  0.51100000000E-03 0.  1.
         11    1    3    3    0    0  0.24883938584E+01  0.43945272130E+02 -0.67517964912E+02  0.80598105639E+02  0.51100000000E-03 0. -1.
<mgrwt>
<rscale>  0 0.91261754E+02</rscale>
<asrwt>0</asrwt>
<pdfrwt beam="1">  1        2 0.15924015E-02 0.91261754E+02</pdfrwt>
<pdfrwt beam="2">  1       -2 0.30948411E-01 0.91261754E+02</pdfrwt>
<totfact> 0.62014709E+04</totfact>
</mgrwt>
</event>
<event>
 5    1  0.2809073E+000  0.9181345E+02  0.7818608E-02  0.1298519E+00
         -2   -1    0    0    0  501 -0.00000000000E+00  0.00000000000E+00  0.74053154825E+01  0.74053159389E+01  0.26000000000E-02 0. -1.
          2   -1    0    0  501    0  0.00000000000E+00 -0.00000000000E+00 -0.28458308281E+03  0.28458308282E+03  0.26000000000E-02 0.  1.
         23    2    1    2    0    0  0.00000000000E+00  0.00000000000E+00 -0.27717776733E+03  0.29198839876E+03  0.91813453863E+02 0.  0.
        -11    1    3    3    0    0  0.36021228371E+02  0.26858738329E+02 -0.16850792930E+03  0.17439565062E+03  0.51100000000E-03 0.  1.
         11    1    3    3    0    0 -0.36021228371E+02 -0.26858738329E+02 -0.10866983802E+03  0.11759274814E+03  0.51100000000E-03 0. -1.
<mgrwt>
<rscale>  0 0.91813454E+02</rscale>
<asrwt>0</asrwt>
<pdfrwt beam="2">  1        2 0.43782004E-01 0.91813454E+02</pdfrwt>
<pdfrwt beam="1">  1       -2 0.11392796E-02 0.91813454E+02</pdfrwt>
<totfact> 0.17291415E+05</totfact>
</mgrwt>
</event>
<event>
 5    1  0.2809073E+000  0.9165039E+02  0.7818608E-02  0.1298904E+00
         -2   -1    0    0    0  501 -0.00000000000E+00  0.00000000000E+00  0.61207597232E+02  0.61207597287E+02  0.26000000000E-02 0.  1.
          2   -1    0    0  501    0  0.00000000000E+00 -0.00000000000E+00 -0.34308627584E+02  0.34308627683E+02  0.26000000000E-02 0. -1.
         23    2    1    2    0    0  0.00000000000E+00  0.00000000000E+00  0.26898969647E+02  0.95516224970E+02  0.91650393695E+02 0.  0.
        -11    1    3    3    0    0 -0.17380417606E+02  0.87559764271E+01  0.56686809596E+02  0.59934467728E+02  0.51100000000E-03 0.  1.
         11    1    3    3    0    0  0.17380417606E+02 -0.87559764271E+01 -0.29787839949E+02  0.35581757242E+02  0.51100000000E-03 0. -1.
<mgrwt>
<rscale>  0 0.91650394E+02</rscale>
<asrwt>0</asrwt>
<pdfrwt beam="2">  1        2 0.52782505E-02 0.91650394E+02</pdfrwt>
<pdfrwt beam="1">  1       -2 0.94165533E-02 0.91650394E+02</pdfrwt>
<totfact> 0.90273957E+04</totfact>
</mgrwt>
</event>
<event>
 5    1  0.2809073E+000  0.6323557E+02  0.7818608E-02  0.1384734E+00
          2   -1    0    0  501    0  0.00000000000E+00  0.00000000000E+00  0.15356391506E+03  0.15356391508E+03  0.26000000000E-02 0.  1.
         -2   -1    0    0    0  501 -0.00000000000E+00 -0.00000000000E+00 -0.65098901794E+01  0.65098906986E+01  0.26000000000E-02 0. -1.
         23    2    1    2    0    0  0.00000000000E+00  0.00000000000E+00  0.14705402488E+03  0.16007380578E+03  0.63235568025E+02 0.  0.
        -11    1    3    3    0    0  0.25737098663E+02 -0.57336809005E+00  0.11999418636E+03  0.12272461757E+03  0.51100000000E-03 0.  1.
         11    1    3    3    0    0 -0.25737098663E+02  0.57336809005E+00  0.27059838521E+02  0.37349188206E+02  0.51100000000E-03 0. -1.
<mgrwt>
<rscale>  0 0.63235568E+02</rscale>
<asrwt>0</asrwt>
<pdfrwt beam="1">  1        2 0.23625219E-01 0.63235568E+02</pdfrwt>
<pdfrwt beam="2">  1       -2 0.10015215E-02 0.63235568E+02</pdfrwt>
<totfact> 0.37156708E+05</totfact>
</mgrwt>
</event>
<event>
 5    1  0.2809073E+000  0.8956677E+02  0.7818608E-02  0.1303904E+00
         -2   -1    0    0    0  501 -0.00000000000E+00  0.00000000000E+00  0.25012765178E+02  0.25012765313E+02  0.26000000000E-02 0.  1.
          2   -1    0    0  501    0  0.00000000000E+00 -0.00000000000E+00 -0.80181129768E+02  0.80181129810E+02  0.26000000000E-02 0. -1.
         23    2    1    2    0    0  0.00000000000E+00  0.00000000000E+00 -0.55168364590E+02  0.10519389512E+03  0.89566774642E+02 0.  0.
        -11    1    3    3    0    0 -0.72712938888E+01 -0.10652419311E+02 -0.77952656138E+02  0.79012418969E+02  0.51100000000E-03 0. -1.
         11    1    3    3    0    0  0.72712938888E+01  0.10652419311E+02  0.22784291549E+02  0.26181476155E+02  0.51100000000E-03 0.  1.
<mgrwt>
<rscale>  0 0.89566775E+02</rscale>
<asrwt>0</asrwt>
<pdfrwt beam="2">  1        2 0.12335558E-01 0.89566775E+02</pdfrwt>
<pdfrwt beam="1">  1       -2 0.38481178E-02 0.89566775E+02</pdfrwt>
<totfact> 0.12075046E+05</totfact>
</mgrwt>
</event>
<event>
 5    1  0.2809073E+000  0.9150889E+02  0.7818608E-02  0.1299238E+00
          2   -1    0    0  501    0  0.00000000000E+00  0.00000000000E+00  0.37023172209E+02  0.37023172300E+02  0.26000000000E-02 0. -1.
         -2   -1    0    0    0  501 -0.00000000000E+00 -0.00000000000E+00 -0.56544840103E+02  0.56544840163E+02  0.26000000000E-02 0.  1.
         23    2    1    2    0    0  0.00000000000E+00  0.00000000000E+00 -0.19521667895E+02  0.93568012463E+02  0.91508892677E+02 0.  0.
        -11    1    3    3    0    0  0.44905067471E+02 -0.48328288204E+01 -0.22715372441E+01  0.45221468360E+02  0.51100000000E-03 0. -1.
         11    1    3    3    0    0 -0.44905067471E+02  0.48328288204E+01 -0.17250130650E+02  0.48346544103E+02  0.51100000000E-03 0.  1.
<mgrwt>
<rscale>  0 0.91508893E+02</rscale>
<asrwt>0</asrwt>
<pdfrwt beam="1">  1        2 0.56958727E-02 0.91508893E+02</pdfrwt>
<pdfrwt beam="2">  1       -2 0.86992062E-02 0.91508893E+02</pdfrwt>
<totfact> 0.92509166E+04</totfact>
</mgrwt>
</event>
<event>
 5    1  0.2809073E+000  0.9051874E+02  0.7818608E-02  0.1301600E+00
         -2   -1    0    0    0  501 -0.00000000000E+00  0.00000000000E+00  0.14270974748E+03  0.14270974750E+03  0.26000000000E-02 0.  1.
          2   -1    0    0  501    0  0.00000000000E+00 -0.00000000000E+00 -0.14353683414E+02  0.14353683650E+02  0.26000000000E-02 0. -1.
         23    2    1    2    0    0  0.00000000000E+00  0.00000000000E+00  0.12835606407E+03  0.15706343115E+03  0.90518739625E+02 0.  0.
        -11    1    3    3    0    0  0.24488184180E+02  0.38016986979E+02  0.60956028495E+02  0.75898615756E+02  0.51100000000E-03 0.  1.
         11    1    3    3    0    0 -0.24488184180E+02 -0.38016986979E+02  0.67400035571E+02  0.81164815399E+02  0.51100000000E-03 0. -1.
<mgrwt>
<rscale>  0 0.90518740E+02</rscale>
<asrwt>0</asrwt>
<pdfrwt beam="2">  1        2 0.22082590E-02 0.90518740E+02</pdfrwt>
<pdfrwt beam="1">  1       -2 0.21955345E-01 0.90518740E+02</pdfrwt>
<totfact> 0.72430774E+04</totfact>
</mgrwt>
</event>
<event>
 5    1  0.2809073E+000  0.9108096E+02  0.7818608E-02  0.1300255E+00
          2   -1    0    0  501    0  0.00000000000E+00  0.00000000000E+00  0.26075555432E+02  0.26075555562E+02  0.26000000000E-02 0. -1.
         -2   -1    0    0    0  501 -0.00000000000E+00 -0.00000000000E+00 -0.79535620757E+02  0.79535620800E+02  0.26000000000E-02 0.  1.
         23    2    1    2    0    0  0.00000000000E+00  0.00000000000E+00 -0.53460065325E+02  0.10561117636E+03  0.91080963916E+02 0.  0.
        -11    1    3    3    0    0  0.43174199373E+02 -0.13051998212E+02 -0.19436100689E+02  0.49113421374E+02  0.51100000000E-03 0.  1.
         11    1    3    3    0    0 -0.43174199373E+02  0.13051998212E+02 -0.34023964636E+02  0.56497754987E+02  0.51100000000E-03 0. -1.
<mgrwt>
<rscale>  0 0.91080964E+02</rscale>
<asrwt>0</asrwt>
<pdfrwt beam="1">  1        2 0.40116240E-02 0.91080964E+02</pdfrwt>
<pdfrwt beam="2">  1       -2 0.12236249E-01 0.91080964E+02</pdfrwt>
<totfact> 0.85436235E+04</totfact>
</mgrwt>
</event>
<event>
 5    1  0.2809073E+000  0.9113477E+02  0.7818608E-02  0.1300127E+00
         -2   -1    0    0    0  501 -0.00000000000E+00  0.00000000000E+00  0.10768373574E+02  0.10768373888E+02  0.26000000000E-02 0.  1.
          2   -1    0    0  501    0  0.00000000000E+00 -0.00000000000E+00 -0.19282268768E+03  0.19282268770E+03  0.26000000000E-02 0. -1.
         23    2    1    2    0    0  0.00000000000E+00  0.00000000000E+00 -0.18205431411E+03  0.20359106159E+03  0.91134774225E+02 0.  0.
        -11    1    3    3    0    0  0.40354181221E+02  0.86651709678E+01 -0.47891463160E+02  0.63222918105E+02  0.51100000000E-03 0.  1.
         11    1    3    3    0    0 -0.40354181221E+02 -0.86651709678E+01 -0.13416285095E+03  0.14036814348E+03  0.51100000000E-03 0. -1.
<mgrwt>
<rscale>  0 0.91134774E+02</rscale>
<asrwt>0</asrwt>
<pdfrwt beam="2">  1        2 0.29665026E-01 0.91134774E+02</pdfrwt>
<pdfrwt beam="1">  1       -2 0.16566730E-02 0.91134774E+02</pdfrwt>
<totfact> 0.15284476E+05</totfact>
</mgrwt>
</event>
<event>
 5    1  0.2809073E+000  0.9004705E+02  0.7818608E-02  0.1302738E+00
         -2   -1    0    0    0  501 -0.00000000000E+00  0.00000000000E+00  0.11875742359E+02  0.11875742644E+02  0.26000000000E-02 0.  1.
          2   -1    0    0  501    0  0.00000000000E+00 -0.00000000000E+00 -0.17069399661E+03  0.17069399663E+03  0.26000000000E-02 0. -1.
         23    2    1    2    0    0  0.00000000000E+00  0.00000000000E+00 -0.15881825425E+03  0.18256973928E+03  0.90047053341E+02 0.  0.
        -11    1    3    3    0    0  0.14408166940E+02 -0.41339066173E+02 -0.58086276242E+02  0.72736023775E+02  0.51100000000E-03 0.  1.
         11    1    3    3    0    0 -0.14408166940E+02  0.41339066173E+02 -0.10073197801E+03  0.10983371550E+03  0.51100000000E-03 0. -1.
<mgrwt>
<rscale>  0 0.90047053E+02</rscale>
<asrwt>0</asrwt>
<pdfrwt beam="2">  1        2 0.26260613E-01 0.90047053E+02</pdfrwt>
<pdfrwt beam="1">  1       -2 0.18270374E-02 0.90047053E+02</pdfrwt>
<totfact> 0.15119158E+05</totfact>
</mgrwt>
</event>
<event>
 5    1  0.2809073E+000  0.9026848E+02  0.7818608E-02  0.1302203E+00
         -2   -1    0    0    0  501 -0.00000000000E+00  0.00000000000E+00  0.21101798110E+02  0.21101798270E+02  0.26000000000E-02 0.  1.
          2   -1    0    0  501    0  0.00000000000E+00 -0.00000000000E+00 -0.96536770196E+02  0.96536770231E+02  0.26000000000E-02 0. -1.
         23    2    1    2    0    0  0.00000000000E+00  0.00000000000E+00 -0.75434972086E+02  0.11763856850E+03  0.90268476143E+02 0.  0.
        -11    1    3    3    0    0 -0.35623650322E+02 -0.18916812849E+02 -0.64112160214E+02  0.75744698548E+02  0.51100000000E-03 0. -1.
         11    1    3    3    0    0  0.35623650322E+02  0.18916812849E+02 -0.11322811872E+02  0.41893869952E+02  0.51100000000E-03 0.  1.
<mgrwt>
<rscale>  0 0.90268476E+02</rscale>
<asrwt>0</asrwt>
<pdfrwt beam="2">  1        2 0.14851811E-01 0.90268476E+02</pdfrwt>
<pdfrwt beam="1">  1       -2 0.32464306E-02 0.90268476E+02</pdfrwt>
<totfact> 0.12476517E+05</totfact>
</mgrwt>
</event>
<event>
 5    1  0.2809073E+000  0.9045661E+02  0.7818608E-02  0.1301750E+00
          2   -1    0    0  501    0  0.00000000000E+00  0.00000000000E+00  0.16403376950E+03  0.16403376952E+03  0.26000000000E-02 0.  1.
         -2   -1    0    0    0  501 -0.00000000000E+00 -0.00000000000E+00 -0.12470599686E+02  0.12470599957E+02  0.26000000000E-02 0. -1.
         23    2    1    2    0    0  0.00000000000E+00  0.00000000000E+00  0.15156316982E+03  0.17650436948E+03  0.90456608386E+02 0.  0.
        -11    1    3    3    0    0 -0.33594853770E+02  0.23473859840E+02  0.38453657939E+02  0.56198933306E+02  0.51100000000E-03 0.  1.
         11    1    3    3    0    0  0.33594853770E+02 -0.23473859840E+02  0.11310951188E+03  0.12030543617E+03  0.51100000000E-03 0. -1.
<mgrwt>
<rscale>  0 0.90456608E+02</rscale>
<asrwt>0</asrwt>
<pdfrwt beam="1">  1        2 0.25235965E-01 0.90456608E+02</pdfrwt>
<pdfrwt beam="2">  1       -2 0.19185538E-02 0.90456608E+02</pdfrwt>
<totfact> 0.14729822E+05</totfact>
</mgrwt>
</event>
<event>
 5    1  0.2809073E+000  0.9243692E+02  0.7818608E-02  0.1297055E+00
         -2   -1    0    0    0  501 -0.00000000000E+00  0.00000000000E+00  0.12266563026E+02  0.12266563301E+02  0.26000000000E-02 0.  1.
          2   -1    0    0  501    0  0.00000000000E+00 -0.00000000000E+00 -0.17414380150E+03  0.17414380152E+03  0.26000000000E-02 0. -1.
         23    2    1    2    0    0  0.00000000000E+00  0.00000000000E+00 -0.16187723848E+03  0.18641036483E+03  0.92436917823E+02 0.  0.
        -11    1    3    3    0    0 -0.30507201288E+02 -0.92199620677E+01 -0.14844123932E+03  0.15182390643E+03  0.51100000000E-03 0. -1.
         11    1    3    3    0    0  0.30507201288E+02  0.92199620677E+01 -0.13435999157E+02  0.34586458399E+02  0.51100000000E-03 0.  1.
<mgrwt>
<rscale>  0 0.92436918E+02</rscale>
<asrwt>0</asrwt>
<pdfrwt beam="2">  1        2 0.26791352E-01 0.92436918E+02</pdfrwt>
<pdfrwt beam="1">  1       -2 0.18871637E-02 0.92436918E+02</pdfrwt>
<totfact> 0.14184730E+05</totfact>
</mgrwt>
</event>
<event>
 5    1  0.2809073E+000  0.9151768E+02  0.7818608E-02  0.1299217E+00
         -2   -1    0    0    0  501 -0.00000000000E+00  0.00000000000E+00  0.54533609314E+02  0.54533609376E+02  0.26000000000E-02 0.  1.
          2   -1    0    0  501    0  0.00000000000E+00 -0.00000000000E+00 -0.38395981022E+02  0.38395981110E+02  0.26000000000E-02 0. -1.
         23    2    1    2    0    0  0.00000000000E+00  0.00000000000E+00  0.16137628291E+02  0.92929590486E+02  0.91517679937E+02 0.  0.
        -11    1    3    3    0    0 -0.29475632920E+02 -0.16547109857E+02  0.39387009881E+02  0.51903336389E+02  0.51100000000E-03 0.  1.
         11    1    3    3    0    0  0.29475632920E+02  0.16547109857E+02 -0.23249381590E+02  0.41026254097E+02  0.51100000000E-03 0. -1.
<mgrwt>
<rscale>  0 0.91517680E+02</rscale>
<asrwt>0</asrwt>
<pdfrwt beam="2">  1        2 0.59070740E-02 0.91517680E+02</pdfrwt>
<pdfrwt beam="1">  1       -2 0.83897861E-02 0.91517680E+02</pdfrwt>
<totfact> 0.93363595E+04</totfact>
</mgrwt>
</event>
<event>
 5    1  0.2809073E+000  0.9258991E+02  0.7818608E-02  0.1296698E+00
          2   -1    0    0  501    0  0.00000000000E+00  0.00000000000E+00  0.99687324918E+02  0.99687324952E+02  0.26000000000E-02 0. -1.
         -2   -1    0    0    0  501 -0.00000000000E+00 -0.00000000000E+00 -0.21499450765E+02  0.21499450922E+02  0.26000000000E-02 0.  1.
         23    2    1    2    0    0  0.00000000000E+00  0.00000000000E+00  0.78187874153E+02  0.12118677587E+03  0.92589907560E+02 0.  0.
        -11    1    3    3    0    0 -0.12748427985E+01  0.35272321154E+02 -0.11628885170E+00  0.35295543446E+02  0.51100000000E-03 0.  1.
         11    1    3    3    0    0  0.12748427985E+01 -0.35272321154E+02  0.78304163005E+02  0.85891232428E+02  0.51100000000E-03 0. -1.
<mgrwt>
<rscale>  0 0.92589908E+02</rscale>
<asrwt>0</asrwt>
<pdfrwt beam="1">  1        2 0.15336512E-01 0.92589908E+02</pdfrwt>
<pdfrwt beam="2">  1       -2 0.33076078E-02 0.92589908E+02</pdfrwt>
<totfact> 0.11746784E+05</totfact>
</mgrwt>
</event>
<event>
 5    1  0.2809073E+000  0.8936494E+02  0.7818608E-02  0.1304397E+00
         -2   -1    0    0    0  501 -0.00000000000E+00  0.00000000000E+00  0.28602978474E+02  0.28602978592E+02  0.26000000000E-02 0.  1.
          2   -1    0    0  501    0  0.00000000000E+00 -0.00000000000E+00 -0.69801224318E+02  0.69801224366E+02  0.26000000000E-02 0. -1.
         23    2    1    2    0    0  0.00000000000E+00  0.00000000000E+00 -0.41198245844E+02  0.98404202958E+02  0.89364935513E+02 0.  0.
        -11    1    3    3    0    0 -0.27674273061E+02  0.35010060535E+02 -0.23049817989E+02  0.50228117999E+02  0.51100000000E-03 0. -1.
         11    1    3    3    0    0  0.27674273061E+02 -0.35010060535E+02 -0.18148427855E+02  0.48176084959E+02  0.51100000000E-03 0.  1.
<mgrwt>
<rscale>  0 0.89364936E+02</rscale>
<asrwt>0</asrwt>
<pdfrwt beam="2">  1        2 0.10738650E-01 0.89364936E+02</pdfrwt>
<pdfrwt beam="1">  1       -2 0.44004583E-02 0.89364936E+02</pdfrwt>
<totfact> 0.11690168E+05</totfact>
</mgrwt>
</event>
<event>
 5    1  0.2809073E+000  0.9209977E+02  0.7818608E-02  0.1297845E+00
         -2   -1    0    0    0  501 -0.00000000000E+00  0.00000000000E+00  0.25660081998E+02  0.25660082130E+02  0.26000000000E-02 0.  1.
          2   -1    0    0  501    0  0.00000000000E+00 -0.00000000000E+00 -0.82641659352E+02  0.82641659393E+02  0.26000000000E-02 0. -1.
         23    2    1    2    0    0  0.00000000000E+00  0.00000000000E+00 -0.56981577354E+02  0.10830174152E+03  0.92099766880E+02 0.  0.
        -11    1    3    3    0    0  0.42306195559E+02  0.77890475462E+00 -0.71236534257E+01  0.42908825592E+02  0.51100000000E-03 0.  1.
         11    1    3    3    0    0 -0.42306195559E+02 -0.77890475462E+00 -0.49857923928E+02  0.65392915931E+02  0.51100000000E-03 0. -1.
<mgrwt>
<rscale>  0 0.92099767E+02</rscale>
<asrwt>0</asrwt>
<pdfrwt beam="2">  1        2 0.12714101E-01 0.92099767E+02</pdfrwt>
<pdfrwt beam="1">  1       -2 0.39477050E-02 0.92099767E+02</pdfrwt>
<totfact> 0.11273170E+05</totfact>
</mgrwt>
</event>
<event>
 5    1  0.2809073E+000  0.8729412E+02  0.7818608E-02  0.1309540E+00
         -2   -1    0    0    0  501 -0.00000000000E+00  0.00000000000E+00  0.40528849898E+03  0.40528849898E+03  0.26000000000E-02 0.  1.
          2   -1    0    0  501    0  0.00000000000E+00 -0.00000000000E+00 -0.47005173571E+01  0.47005180762E+01  0.26000000000E-02 0. -1.
         23    2    1    2    0    0  0.00000000000E+00  0.00000000000E+00  0.40058798162E+03  0.40998901706E+03  0.87294118317E+02 0.  0.
        -11    1    3    3    0    0 -0.29421928718E+02 -0.32238054990E+02  0.19864217605E+03  0.20338056983E+03  0.51100000000E-03 0. -1.
         11    1    3    3    0    0  0.29421928718E+02  0.32238054990E+02  0.20194580557E+03  0.20660844723E+03  0.51100000000E-03 0.  1.
<mgrwt>
<rscale>  0 0.87294118E+02</rscale>
<asrwt>0</asrwt>
<pdfrwt beam="2">  1        2 0.72315660E-03 0.87294118E+02</pdfrwt>
<pdfrwt beam="1">  1       -2 0.62352074E-01 0.87294118E+02</pdfrwt>
<totfact> 0.47342318E+04</totfact>
</mgrwt>
</event>
<event>
 5    1  0.2809073E+000  0.9238479E+02  0.7818608E-02  0.1297177E+00
         -2   -1    0    0    0  501 -0.00000000000E+00  0.00000000000E+00  0.66832470229E+01  0.66832475286E+01  0.26000000000E-02 0.  1.
          2   -1    0    0  501    0  0.00000000000E+00 -0.00000000000E+00 -0.31926657248E+03  0.31926657249E+03  0.26000000000E-02 0. -1.
         23    2    1    2    0    0  0.00000000000E+00  0.00000000000E+00 -0.31258332545E+03  0.32594982002E+03  0.92384792128E+02 0.  0.
        -11    1    3    3    0    0 -0.20060774294E+02 -0.38571177619E+02 -0.21135461892E+03  0.21577985390E+03  0.51100000000E-03 0.  1.
         11    1    3    3    0    0  0.20060774294E+02  0.38571177619E+02 -0.10122870653E+03  0.11016996612E+03  0.51100000000E-03 0. -1.
<mgrwt>
<rscale>  0 0.92384792E+02</rscale>
<asrwt>0</asrwt>
<pdfrwt beam="2">  1        2 0.49117923E-01 0.92384792E+02</pdfrwt>
<pdfrwt beam="1">  1       -2 0.10281921E-02 0.92384792E+02</pdfrwt>
<totfact> 0.17751781E+05</totfact>
</mgrwt>
</event>
<event>
 5    1  0.2809073E+000  0.9224487E+02  0.7818608E-02  0.1297505E+00
         -2   -1    0    0    0  501 -0.00000000000E+00  0.00000000000E+00  0.18102043001E+02  0.18102043187E+02  0.26000000000E-02 0. -1.
          2   -1    0    0  501    0  0.00000000000E+00 -0.00000000000E+00 -0.11751596204E+03  0.11751596207E+03  0.26000000000E-02 0.  1.
         23    2    1    2    0    0  0.00000000000E+00  0.00000000000E+00 -0.99413919043E+02  0.13561800526E+03  0.92244870054E+02 0.  0.
        -11    1    3    3    0    0 -0.11144972371E+02 -0.43161251437E+02 -0.32300502709E+02  0.55049309807E+02  0.51100000000E-03 0. -1.
         11    1    3    3    0    0  0.11144972371E+02  0.43161251437E+02 -0.67113416334E+02  0.80568695453E+02  0.51100000000E-03 0.  1.
<mgrwt>
<rscale>  0 0.92244870E+02</rscale>
<asrwt>0</asrwt>
<pdfrwt beam="2">  1        2 0.18079378E-01 0.92244870E+02</pdfrwt>
<pdfrwt beam="1">  1       -2 0.27849298E-02 0.92244870E+02</pdfrwt>
<totfact> 0.12494746E+05</totfact>
</mgrwt>
</event>
<event>
 5    1  0.2809073E+000  0.8869094E+02  0.7818608E-02  0.1306053E+00
          2   -1    0    0  501    0  0.00000000000E+00  0.00000000000E+00  0.17307848049E+03  0.17307848051E+03  0.26000000000E-02 0.  1.
         -2   -1    0    0    0  501 -0.00000000000E+00 -0.00000000000E+00 -0.11362018267E+02  0.11362018564E+02  0.26000000000E-02 0. -1.
         23    2    1    2    0    0  0.00000000000E+00  0.00000000000E+00  0.16171646222E+03  0.18444049907E+03  0.88690943983E+02 0.  0.
        -11    1    3    3    0    0  0.32200630706E+02 -0.28774535874E+02  0.10182664760E+03  0.11060524714E+03  0.51100000000E-03 0.  1.
         11    1    3    3    0    0 -0.32200630706E+02  0.28774535874E+02  0.59889814623E+02  0.73835251936E+02  0.51100000000E-03 0. -1.
<mgrwt>
<rscale>  0 0.88690944E+02</rscale>
<asrwt>0</asrwt>
<pdfrwt beam="1">  1        2 0.26627456E-01 0.88690944E+02</pdfrwt>
<pdfrwt beam="2">  1       -2 0.17480030E-02 0.88690944E+02</pdfrwt>
<totfact> 0.15826562E+05</totfact>
</mgrwt>
</event>
<event>
 5    1  0.2809073E+000  0.8989902E+02  0.7818608E-02  0.1303096E+00
         -2   -1    0    0    0  501 -0.00000000000E+00  0.00000000000E+00  0.40843069175E+02  0.40843069257E+02  0.26000000000E-02 0.  1.
          2   -1    0    0  501    0  0.00000000000E+00 -0.00000000000E+00 -0.49468817380E+02  0.49468817449E+02  0.26000000000E-02 0. -1.
         23    2    1    2    0    0  0.00000000000E+00  0.00000000000E+00 -0.86257482056E+01  0.90311886706E+02  0.89899017504E+02 0.  0.
        -11    1    3    3    0    0 -0.38872902474E+01 -0.20204605373E+02  0.35834663316E+02  0.41321425423E+02  0.51100000000E-03 0.  1.
         11    1    3    3    0    0  0.38872902474E+01  0.20204605373E+02 -0.44460411522E+02  0.48990461283E+02  0.51100000000E-03 0. -1.
<mgrwt>
<rscale>  0 0.89899018E+02</rscale>
<asrwt>0</asrwt>
<pdfrwt beam="2">  1        2 0.76105873E-02 0.89899018E+02</pdfrwt>
<pdfrwt beam="1">  1       -2 0.62835491E-02 0.89899018E+02</pdfrwt>
<totfact> 0.10492973E+05</totfact>
</mgrwt>
</event>
<event>
 5    1  0.2809073E+000  0.9250592E+02  0.7818608E-02  0.1296894E+00
         -2   -1    0    0    0  501 -0.00000000000E+00  0.00000000000E+00  0.15620642780E+02  0.15620642996E+02  0.26000000000E-02 0.  1.
          2   -1    0    0  501    0  0.00000000000E+00 -0.00000000000E+00 -0.13695570081E+03  0.13695570083E+03  0.26000000000E-02 0. -1.
         23    2    1    2    0    0  0.00000000000E+00  0.00000000000E+00 -0.12133505803E+03  0.15257634383E+03  0.92505915428E+02 0.  0.
        -11    1    3    3    0    0  0.42052651726E+02 -0.17578432184E+02 -0.73645166889E+02  0.86608529612E+02  0.51100000000E-03 0.  1.
         11    1    3    3    0    0 -0.42052651726E+02  0.17578432184E+02 -0.47689891137E+02  0.65967814214E+02  0.51100000000E-03 0. -1.
<mgrwt>
<rscale>  0 0.92505915E+02</rscale>
<asrwt>0</asrwt>
<pdfrwt beam="2">  1        2 0.21070107E-01 0.92505915E+02</pdfrwt>
<pdfrwt beam="1">  1       -2 0.24031759E-02 0.92505915E+02</pdfrwt>
<totfact> 0.13034884E+05</totfact>
</mgrwt>
</event>
<event>
 5    1  0.2809073E+000  0.9117919E+02  0.7818608E-02  0.1300021E+00
          2   -1    0    0  501    0  0.00000000000E+00  0.00000000000E+00  0.72727943480E+02  0.72727943527E+02  0.26000000000E-02 0.  1.
         -2   -1    0    0    0  501 -0.00000000000E+00 -0.00000000000E+00 -0.28577887346E+02  0.28577887464E+02  0.26000000000E-02 0. -1.
         23    2    1    2    0    0  0.00000000000E+00  0.00000000000E+00  0.44150056134E+02  0.10130583099E+03  0.91179185871E+02 0.  0.
        -11    1    3    3    0    0  0.12995111682E+02  0.42252341145E+02  0.34461150786E+02  0.56050906983E+02  0.51100000000E-03 0.  1.
         11    1    3    3    0    0 -0.12995111682E+02 -0.42252341145E+02  0.96889053481E+01  0.45254924008E+02  0.51100000000E-03 0. -1.
<mgrwt>
<rscale>  0 0.91179186E+02</rscale>
<asrwt>0</asrwt>
<pdfrwt beam="1">  1        2 0.11188914E-01 0.91179186E+02</pdfrwt>
<pdfrwt beam="2">  1       -2 0.43965981E-02 0.91179186E+02</pdfrwt>
<totfact> 0.11179457E+05</totfact>
</mgrwt>
</event>
<event>
 5    1  0.2809073E+000  0.8899400E+02  0.7818608E-02  0.1305306E+00
          2   -1    0    0  501    0  0.00000000000E+00  0.00000000000E+00  0.41444456373E+02  0.41444456454E+02  0.26000000000E-02 0.  1.
         -2   -1    0    0    0  501 -0.00000000000E+00 -0.00000000000E+00 -0.47774377531E+02  0.47774377602E+02  0.26000000000E-02 0. -1.
         23    2    1    2    0    0  0.00000000000E+00  0.00000000000E+00 -0.63299211584E+01  0.89218834056E+02  0.88994002317E+02 0.  0.
        -11    1    3    3    0    0 -0.15097546631E+02  0.27071603068E+02  0.28840220842E+02  0.42338705051E+02  0.51100000000E-03 0.  1.
         11    1    3    3    0    0  0.15097546631E+02 -0.27071603068E+02 -0.35170142000E+02  0.46880129005E+02  0.51100000000E-03 0. -1.
<mgrwt>
<rscale>  0 0.88994002E+02</rscale>
<asrwt>0</asrwt>
<pdfrwt beam="1">  1        2 0.63760702E-02 0.88994002E+02</pdfrwt>
<pdfrwt beam="2">  1       -2 0.73499043E-02 0.88994002E+02</pdfrwt>
<totfact> 0.10322485E+05</totfact>
</mgrwt>
</event>
<event>
 5    1  0.2809073E+000  0.9247273E+02  0.7818608E-02  0.1296972E+00
         -2   -1    0    0    0  501 -0.00000000000E+00  0.00000000000E+00  0.15792358003E+03  0.15792358005E+03  0.26000000000E-02 0.  1.
          2   -1    0    0  501    0  0.00000000000E+00 -0.00000000000E+00 -0.13536937216E+02  0.13536937465E+02  0.26000000000E-02 0. -1.
         23    2    1    2    0    0  0.00000000000E+00  0.00000000000E+00  0.14438664282E+03  0.17146051752E+03  0.92472733517E+02 0.  0.
        -11    1    3    3    0    0  0.16198906708E+02 -0.32113517480E+02  0.18322663506E+02  0.40365859110E+02  0.51100000000E-03 0. -1.
         11    1    3    3    0    0 -0.16198906708E+02  0.32113517480E+02  0.12606397931E+03  0.13109465841E+03  0.51100000000E-03 0.  1.
<mgrwt>
<rscale>  0 0.92472734E+02</rscale>
<asrwt>0</asrwt>
<pdfrwt beam="2">  1        2 0.20826057E-02 0.92472734E+02</pdfrwt>
<pdfrwt beam="1">  1       -2 0.24295936E-01 0.92472734E+02</pdfrwt>
<totfact> 0.66128694E+04</totfact>
</mgrwt>
</event>
<event>
 5    1  0.2809073E+000  0.9052673E+02  0.7818608E-02  0.1301581E+00
         -2   -1    0    0    0  501 -0.00000000000E+00  0.00000000000E+00  0.61612213175E+01  0.61612218661E+01  0.26000000000E-02 0.  1.
          2   -1    0    0  501    0  0.00000000000E+00 -0.00000000000E+00 -0.33252696269E+03  0.33252696270E+03  0.26000000000E-02 0. -1.
         23    2    1    2    0    0  0.00000000000E+00  0.00000000000E+00 -0.32636574137E+03  0.33868818456E+03  0.90526732091E+02 0.  0.
        -11    1    3    3    0    0  0.16534390246E+02  0.38494143915E+02 -0.99077899550E+02  0.10757144303E+03  0.51100000000E-03 0.  1.
         11    1    3    3    0    0 -0.16534390246E+02 -0.38494143915E+02 -0.22728784182E+03  0.23111674153E+03  0.51100000000E-03 0. -1.
<mgrwt>
<rscale>  0 0.90526732E+02</rscale>
<asrwt>0</asrwt>
<pdfrwt beam="2">  1        2 0.51157980E-01 0.90526732E+02</pdfrwt>
<pdfrwt beam="1">  1       -2 0.94788051E-03 0.90526732E+02</pdfrwt>
<totfact> 0.19023942E+05</totfact>
</mgrwt>
</event>
<event>
 5    1  0.2809073E+000  0.9108417E+02  0.7818608E-02  0.1300247E+00
          2   -1    0    0  501    0  0.00000000000E+00  0.00000000000E+00  0.11794887843E+02  0.11794888130E+02  0.26000000000E-02 0. -1.
         -2   -1    0    0    0  501 -0.00000000000E+00 -0.00000000000E+00 -0.17584578623E+03  0.17584578625E+03  0.26000000000E-02 0.  1.
         23    2    1    2    0    0  0.00000000000E+00  0.00000000000E+00 -0.16405089839E+03  0.18764067438E+03  0.91084166681E+02 0.  0.
        -11    1    3    3    0    0 -0.27536002821E+02 -0.27109463352E+01 -0.15654514458E+03  0.15897157914E+03  0.51100000000E-03 0.  1.
         11    1    3    3    0    0  0.27536002821E+02  0.27109463352E+01 -0.75057538023E+01  0.28669095238E+02  0.51100000000E-03 0. -1.
<mgrwt>
<rscale>  0 0.91084167E+02</rscale>
<asrwt>0</asrwt>
<pdfrwt beam="1">  1        2 0.18145983E-02 0.91084167E+02</pdfrwt>
<pdfrwt beam="2">  1       -2 0.27053196E-01 0.91084167E+02</pdfrwt>
<totfact> 0.65919613E+04</totfact>
</mgrwt>
</event>
<event>
 5    1  0.2809073E+000  0.9140625E+02  0.7818608E-02  0.1299482E+00
         -2   -1    0    0    0  501 -0.00000000000E+00  0.00000000000E+00  0.17011410039E+02  0.17011410237E+02  0.26000000000E-02 0. -1.
          2   -1    0    0  501    0  0.00000000000E+00 -0.00000000000E+00 -0.12278673199E+03  0.12278673202E+03  0.26000000000E-02 0.  1.
         23    2    1    2    0    0  0.00000000000E+00  0.00000000000E+00 -0.10577532195E+03  0.13979814226E+03  0.91406246199E+02 0.  0.
        -11    1    3    3    0    0  0.28195893799E+02 -0.23537414299E+02 -0.94485437302E+02  0.10137315306E+03  0.51100000000E-03 0.  1.
         11    1    3    3    0    0 -0.28195893799E+02  0.23537414299E+02 -0.11289884651E+02  0.38424989196E+02  0.51100000000E-03 0. -1.
<mgrwt>
<rscale>  0 0.91406246E+02</rscale>
<asrwt>0</asrwt>
<pdfrwt beam="2">  1        2 0.18890266E-01 0.91406246E+02</pdfrwt>
<pdfrwt beam="1">  1       -2 0.26171401E-02 0.91406246E+02</pdfrwt>
<totfact> 0.12993028E+05</totfact>
</mgrwt>
</event>
<event>
 5    1  0.2809073E+000  0.9260437E+02  0.7818608E-02  0.1296665E+00
         -2   -1    0    0    0  501 -0.00000000000E+00  0.00000000000E+00  0.14060273488E+02  0.14060273728E+02  0.26000000000E-02 0.  1.
          2   -1    0    0  501    0  0.00000000000E+00 -0.00000000000E+00 -0.15247871425E+03  0.15247871427E+03  0.26000000000E-02 0. -1.
         23    2    1    2    0    0  0.00000000000E+00  0.00000000000E+00 -0.13841844076E+03  0.16653898800E+03  0.92604372366E+02 0.  0.
        -11    1    3    3    0    0 -0.30765496563E+02  0.30605127546E+02 -0.98246592151E+02  0.10740382898E+03  0.51100000000E-03 0. -1.
         11    1    3    3    0    0  0.30765496563E+02 -0.30605127546E+02 -0.40171848612E+02  0.59135159018E+02  0.51100000000E-03 0.  1.
<mgrwt>
<rscale>  0 0.92604372E+02</rscale>
<asrwt>0</asrwt>
<pdfrwt beam="2">  1        2 0.23458263E-01 0.92604372E+02</pdfrwt>
<pdfrwt beam="1">  1       -2 0.21631191E-02 0.92604372E+02</pdfrwt>
<totfact> 0.13478022E+05</totfact>
</mgrwt>
</event>
<event>
 5    1  0.2809073E+000  0.8223998E+02  0.7818608E-02  0.1322812E+00
          2   -1    0    0  501    0  0.00000000000E+00  0.00000000000E+00  0.11424242479E+03  0.11424242482E+03  0.26000000000E-02 0. -1.
         -2   -1    0    0    0  501 -0.00000000000E+00 -0.00000000000E+00 -0.14800575359E+02  0.14800575587E+02  0.26000000000E-02 0.  1.
         23    2    1    2    0    0  0.00000000000E+00  0.00000000000E+00  0.99441849432E+02  0.12904300041E+03  0.82239981369E+02 0.  0.
        -11    1    3    3    0    0 -0.16460508518E+02 -0.21338942789E+02  0.98452999889E+02  0.10207493330E+03  0.51100000000E-03 0. -1.
         11    1    3    3    0    0  0.16460508518E+02  0.21338942789E+02  0.98884954390E+00  0.26968067111E+02  0.51100000000E-03 0.  1.
<mgrwt>
<rscale>  0 0.82239981E+02</rscale>
<asrwt>0</asrwt>
<pdfrwt beam="1">  1        2 0.17575758E-01 0.82239981E+02</pdfrwt>
<pdfrwt beam="2">  1       -2 0.22770116E-02 0.82239981E+02</pdfrwt>
<totfact> 0.16921943E+05</totfact>
</mgrwt>
</event>
<event>
 5    1  0.2809073E+000  0.9243012E+02  0.7818608E-02  0.1297071E+00
          2   -1    0    0  501    0  0.00000000000E+00  0.00000000000E+00  0.16252777311E+02  0.16252777519E+02  0.26000000000E-02 0. -1.
         -2   -1    0    0    0  501 -0.00000000000E+00 -0.00000000000E+00 -0.13141335346E+03  0.13141335348E+03  0.26000000000E-02 0.  1.
         23    2    1    2    0    0  0.00000000000E+00  0.00000000000E+00 -0.11516057614E+03  0.14766613100E+03  0.92430124672E+02 0.  0.
        -11    1    3    3    0    0  0.87991911723E+01  0.22599360507E+02 -0.12043057412E+03  0.12284819919E+03  0.51100000000E-03 0.  1.
         11    1    3    3    0    0 -0.87991911723E+01 -0.22599360507E+02  0.52699979747E+01  0.24817931814E+02  0.51100000000E-03 0. -1.
<mgrwt>
<rscale>  0 0.92430125E+02</rscale>
<asrwt>0</asrwt>
<pdfrwt beam="1">  1        2 0.25004274E-02 0.92430125E+02</pdfrwt>
<pdfrwt beam="2">  1       -2 0.20217438E-01 0.92430125E+02</pdfrwt>
<totfact> 0.70703423E+04</totfact>
</mgrwt>
</event>
<event>
 5    1  0.2809073E+000  0.9127410E+02  0.7818608E-02  0.1299795E+00
          2   -1    0    0  501    0  0.00000000000E+00  0.00000000000E+00  0.64426030901E+02  0.64426030954E+02  0.26000000000E-02 0. -1.
         -2   -1    0    0    0  501 -0.00000000000E+00 -0.00000000000E+00 -0.32327621580E+02  0.32327621684E+02  0.26000000000E-02 0.  1.
         23    2    1    2    0    0  0.00000000000E+00  0.00000000000E+00  0.32098409322E+02  0.96753652638E+02  0.91274100477E+02 0.  0.
        -11    1    3    3    0    0 -0.35843292995E+02 -0.27144052830E+02  0.77565741272E+01  0.45625713137E+02  0.51100000000E-03 0. -1.
         11    1    3    3    0    0  0.35843292995E+02  0.27144052830E+02  0.24341835194E+02  0.51127939502E+02  0.51100000000E-03 0.  1.
<mgrwt>
<rscale>  0 0.91274100E+02</rscale>
<asrwt>0</asrwt>
<pdfrwt beam="1">  1        2 0.99116969E-02 0.91274100E+02</pdfrwt>
<pdfrwt beam="2">  1       -2 0.49734803E-02 0.91274100E+02</pdfrwt>
<totfact> 0.10780464E+05</totfact>
</mgrwt>
</event>
<event>
 5    1  0.2809073E+000  0.9126489E+02  0.7818608E-02  0.1299817E+00
         -2   -1    0    0    0  501 -0.00000000000E+00  0.00000000000E+00  0.50601657220E+02  0.50601657286E+02  0.26000000000E-02 0.  1.
          2   -1    0    0  501    0  0.00000000000E+00 -0.00000000000E+00 -0.41151219955E+02  0.41151220037E+02  0.26000000000E-02 0. -1.
         23    2    1    2    0    0  0.00000000000E+00  0.00000000000E+00  0.94504372651E+01  0.91752877323E+02  0.91264887731E+02 0.  0.
        -11    1    3    3    0    0  0.27456352227E+02  0.24012759243E+02  0.32291825804E+02  0.48715766422E+02  0.51100000000E-03 0.  1.
         11    1    3    3    0    0 -0.27456352227E+02 -0.24012759243E+02 -0.22841388539E+02  0.43037110901E+02  0.51100000000E-03 0. -1.
<mgrwt>
<rscale>  0 0.91264888E+02</rscale>
<asrwt>0</asrwt>
<pdfrwt beam="2">  1        2 0.63309569E-02 0.91264888E+02</pdfrwt>
<pdfrwt beam="1">  1       -2 0.77848704E-02 0.91264888E+02</pdfrwt>
<totfact> 0.95823453E+04</totfact>
</mgrwt>
</event>
<event>
 5    1  0.2809073E+000  0.9251754E+02  0.7818608E-02  0.1296867E+00
         -2   -1    0    0    0  501 -0.00000000000E+00  0.00000000000E+00  0.10021222803E+02  0.10021223141E+02  0.26000000000E-02 0.  1.
          2   -1    0    0  501    0  0.00000000000E+00 -0.00000000000E+00 -0.21353418410E+03  0.21353418412E+03  0.26000000000E-02 0. -1.
         23    2    1    2    0    0  0.00000000000E+00  0.00000000000E+00 -0.20351296130E+03  0.22355540726E+03  0.92517537245E+02 0.  0.
        -11    1    3    3    0    0  0.27579024037E+02 -0.19172034996E+02 -0.24898691481E+02  0.41810457190E+02  0.51100000000E-03 0.  1.
         11    1    3    3    0    0 -0.27579024037E+02  0.19172034996E+02 -0.17861426982E+03  0.18174495007E+03  0.51100000000E-03 0. -1.
<mgrwt>
<rscale>  0 0.92517537E+02</rscale>
<asrwt>0</asrwt>
<pdfrwt beam="2">  1        2 0.32851410E-01 0.92517537E+02</pdfrwt>
<pdfrwt beam="1">  1       -2 0.15417268E-02 0.92517537E+02</pdfrwt>
<totfact> 0.15229875E+05</totfact>
</mgrwt>
</event>
<event>
 5    1  0.2809073E+000  0.9150716E+02  0.7818608E-02  0.1299242E+00
         -2   -1    0    0    0  501 -0.00000000000E+00  0.00000000000E+00  0.49979928250E+02  0.49979928317E+02  0.26000000000E-02 0.  1.
          2   -1    0    0  501    0  0.00000000000E+00 -0.00000000000E+00 -0.41884617348E+02  0.41884617428E+02  0.26000000000E-02 0. -1.
         23    2    1    2    0    0  0.00000000000E+00  0.00000000000E+00  0.80953109018E+01  0.91864545746E+02  0.91507162050E+02 0.  0.
        -11    1    3    3    0    0 -0.21389048605E+02  0.32445924878E+02  0.28290690121E+02  0.48068623750E+02  0.51100000000E-03 0.  1.
         11    1    3    3    0    0  0.21389048605E+02 -0.32445924878E+02 -0.20195379220E+02  0.43795921996E+02  0.51100000000E-03 0. -1.
<mgrwt>
<rscale>  0 0.91507162E+02</rscale>
<asrwt>0</asrwt>
<pdfrwt beam="2">  1        2 0.64437874E-02 0.91507162E+02</pdfrwt>
<pdfrwt beam="1">  1       -2 0.76892197E-02 0.91507162E+02</pdfrwt>
<totfact> 0.95527876E+04</totfact>
</mgrwt>
</event>
<event>
 5    1  0.2809073E+000  0.9394478E+02  0.7818608E-02  0.1293571E+00
         -2   -1    0    0    0  501 -0.00000000000E+00  0.00000000000E+00  0.21736728773E+02  0.21736728929E+02  0.26000000000E-02 0.  1.
          2   -1    0    0  501    0  0.00000000000E+00 -0.00000000000E+00 -0.10150586377E+03  0.10150586380E+03  0.26000000000E-02 0. -1.
         23    2    1    2    0    0  0.00000000000E+00  0.00000000000E+00 -0.79769134994E+02  0.12324259273E+03  0.93944780402E+02 0.  0.
        -11    1    3    3    0    0  0.14677400447E+02 -0.37580665052E+02 -0.71442225808E+02  0.82047084642E+02  0.51100000000E-03 0. -1.
         11    1    3    3    0    0 -0.14677400447E+02  0.37580665052E+02 -0.83269091855E+01  0.41195508086E+02  0.51100000000E-03 0.  1.
<mgrwt>
<rscale>  0 0.93944780E+02</rscale>
<asrwt>0</asrwt>
<pdfrwt beam="2">  1        2 0.15616286E-01 0.93944780E+02</pdfrwt>
<pdfrwt beam="1">  1       -2 0.33441122E-02 0.93944780E+02</pdfrwt>
<totfact> 0.11347405E+05</totfact>
</mgrwt>
</event>
<event>
 5    1  0.2809073E+000  0.9027664E+02  0.7818608E-02  0.1302183E+00
         -2   -1    0    0    0  501 -0.00000000000E+00  0.00000000000E+00  0.57152336707E+01  0.57152342621E+01  0.26000000000E-02 0.  1.
          2   -1    0    0  501    0  0.00000000000E+00 -0.00000000000E+00 -0.35649770562E+03  0.35649770563E+03  0.26000000000E-02 0. -1.
         23    2    1    2    0    0  0.00000000000E+00  0.00000000000E+00 -0.35078247195E+03  0.36221293989E+03  0.90276637055E+02 0.  0.
        -11    1    3    3    0    0  0.34789153340E+01  0.44756191792E+02 -0.19431626066E+03  0.19943427166E+03  0.51100000000E-03 0.  1.
         11    1    3    3    0    0 -0.34789153340E+01 -0.44756191792E+02 -0.15646621129E+03  0.16277866824E+03  0.51100000000E-03 0. -1.
<mgrwt>
<rscale>  0 0.90276637E+02</rscale>
<asrwt>0</asrwt>
<pdfrwt beam="2">  1        2 0.54845783E-01 0.90276637E+02</pdfrwt>
<pdfrwt beam="1">  1       -2 0.87926705E-03 0.90276637E+02</pdfrwt>
<totfact> 0.19659516E+05</totfact>
</mgrwt>
</event>
<event>
 5    1  0.2809073E+000  0.9478477E+02  0.7818608E-02  0.1291662E+00
         -2   -1    0    0    0  501 -0.00000000000E+00  0.00000000000E+00  0.26074106862E+02  0.26074106992E+02  0.26000000000E-02 0.  1.
          2   -1    0    0  501    0  0.00000000000E+00 -0.00000000000E+00 -0.86140566551E+02  0.86140566590E+02  0.26000000000E-02 0. -1.
         23    2    1    2    0    0  0.00000000000E+00  0.00000000000E+00 -0.60066459689E+02  0.11221467358E+03  0.94784774028E+02 0.  0.
        -11    1    3    3    0    0 -0.98333250987E+01 -0.11232588991E+02  0.23217747455E+02  0.27603063871E+02  0.51100000000E-03 0.  1.
         11    1    3    3    0    0  0.98333250987E+01  0.11232588991E+02 -0.83284207144E+02  0.84611609711E+02  0.51100000000E-03 0. -1.
<mgrwt>
<rscale>  0 0.94784774E+02</rscale>
<asrwt>0</asrwt>
<pdfrwt beam="2">  1        2 0.13252395E-01 0.94784774E+02</pdfrwt>
<pdfrwt beam="1">  1       -2 0.40114011E-02 0.94784774E+02</pdfrwt>
<totfact> 0.10533354E+05</totfact>
</mgrwt>
</event>
<event>
 5    1  0.2809073E+000  0.8997988E+02  0.7818608E-02  0.1302900E+00
          2   -1    0    0  501    0  0.00000000000E+00  0.00000000000E+00  0.14345830725E+02  0.14345830961E+02  0.26000000000E-02 0. -1.
         -2   -1    0    0    0  501 -0.00000000000E+00 -0.00000000000E+00 -0.14109288826E+03  0.14109288828E+03  0.26000000000E-02 0.  1.
         23    2    1    2    0    0  0.00000000000E+00  0.00000000000E+00 -0.12674705754E+03  0.15543871925E+03  0.89979880233E+02 0.  0.
        -11    1    3    3    0    0  0.74398072320E+01 -0.31423436988E+02 -0.11748847883E+03  0.12184549964E+03  0.51100000000E-03 0.  1.
         11    1    3    3    0    0 -0.74398072320E+01  0.31423436988E+02 -0.92585787073E+01  0.33593219610E+02  0.51100000000E-03 0. -1.
<mgrwt>
<rscale>  0 0.89979880E+02</rscale>
<asrwt>0</asrwt>
<pdfrwt beam="1">  1        2 0.22070510E-02 0.89979880E+02</pdfrwt>
<pdfrwt beam="2">  1       -2 0.21706597E-01 0.89979880E+02</pdfrwt>
<totfact> 0.73826238E+04</totfact>
</mgrwt>
</event>
<event>
 5    1  0.2809073E+000  0.8938276E+02  0.7818608E-02  0.1304353E+00
          2   -1    0    0  501    0  0.00000000000E+00  0.00000000000E+00  0.26446582689E+03  0.26446582691E+03  0.26000000000E-02 0. -1.
         -2   -1    0    0    0  501 -0.00000000000E+00 -0.00000000000E+00 -0.75522781304E+01  0.75522785779E+01  0.26000000000E-02 0.  1.
         23    2    1    2    0    0  0.00000000000E+00  0.00000000000E+00  0.25691354876E+03  0.27201810549E+03  0.89382762170E+02 0.  0.
        -11    1    3    3    0    0  0.39360084001E+02  0.12817957895E+02  0.77188021910E+02  0.87587139374E+02  0.51100000000E-03 0.  1.
         11    1    3    3    0    0 -0.39360084001E+02 -0.12817957895E+02  0.17972552685E+03  0.18443096611E+03  0.51100000000E-03 0. -1.
<mgrwt>
<rscale>  0 0.89382762E+02</rscale>
<asrwt>0</asrwt>
<pdfrwt beam="1">  1        2 0.40687040E-01 0.89382762E+02</pdfrwt>
<pdfrwt beam="2">  1       -2 0.11618893E-02 0.89382762E+02</pdfrwt>
<totfact> 0.18074880E+05</totfact>
</mgrwt>
</event>
<event>
 5    1  0.2809073E+000  0.8919101E+02  0.7818608E-02  0.1304823E+00
          2   -1    0    0  501    0  0.00000000000E+00  0.00000000000E+00  0.59333419705E+02  0.59333419762E+02  0.26000000000E-02 0. -1.
         -2   -1    0    0    0  501 -0.00000000000E+00 -0.00000000000E+00 -0.33518364576E+02  0.33518364677E+02  0.26000000000E-02 0.  1.
         23    2    1    2    0    0  0.00000000000E+00  0.00000000000E+00  0.25815055129E+02  0.92851784439E+02  0.89191013012E+02 0.  0.
        -11    1    3    3    0    0  0.20277776335E+02 -0.31296197729E+02  0.38367794657E+02  0.53504465912E+02  0.51100000000E-03 0. -1.
         11    1    3    3    0    0 -0.20277776335E+02  0.31296197729E+02 -0.12552739528E+02  0.39347318527E+02  0.51100000000E-03 0.  1.
<mgrwt>
<rscale>  0 0.89191013E+02</rscale>
<asrwt>0</asrwt>
<pdfrwt beam="1">  1        2 0.91282184E-02 0.89191013E+02</pdfrwt>
<pdfrwt beam="2">  1       -2 0.51566715E-02 0.89191013E+02</pdfrwt>
<totfact> 0.11251386E+05</totfact>
</mgrwt>
</event>
<event>
 5    1  0.2809073E+000  0.9301265E+02  0.7818608E-02  0.1295716E+00
          2   -1    0    0  501    0  0.00000000000E+00  0.00000000000E+00  0.36253667973E+03  0.36253667974E+03  0.26000000000E-02 0. -1.
         -2   -1    0    0    0  501 -0.00000000000E+00 -0.00000000000E+00 -0.59658467840E+01  0.59658473505E+01  0.26000000000E-02 0.  1.
         23    2    1    2    0    0  0.00000000000E+00  0.00000000000E+00  0.35657083295E+03  0.36850252709E+03  0.93012652708E+02 0.  0.
        -11    1    3    3    0    0  0.21181063538E+02  0.41365322389E+02  0.18527339181E+03  0.19101297616E+03  0.51100000000E-03 0. -1.
         11    1    3    3    0    0 -0.21181063538E+02 -0.41365322389E+02  0.17129744114E+03  0.17748955094E+03  0.51100000000E-03 0.  1.
<mgrwt>
<rscale>  0 0.93012653E+02</rscale>
<asrwt>0</asrwt>
<pdfrwt beam="1">  1        2 0.55774882E-01 0.93012653E+02</pdfrwt>
<pdfrwt beam="2">  1       -2 0.91782249E-03 0.93012653E+02</pdfrwt>
<totfact> 0.18269329E+05</totfact>
</mgrwt>
</event>
<event>
 5    1  0.2809073E+000  0.9562344E+02  0.7818608E-02  0.1289778E+00
          2   -1    0    0  501    0  0.00000000000E+00  0.00000000000E+00  0.17494234048E+03  0.17494234050E+03  0.26000000000E-02 0. -1.
         -2   -1    0    0    0  501 -0.00000000000E+00 -0.00000000000E+00 -0.13066937417E+02  0.13066937676E+02  0.26000000000E-02 0.  1.
         23    2    1    2    0    0  0.00000000000E+00  0.00000000000E+00  0.16187540306E+03  0.18800927818E+03  0.95623441495E+02 0.  0.
        -11    1    3    3    0    0 -0.43531736985E+02 -0.51913044747E+01  0.43426158265E+02  0.61707317143E+02  0.51100000000E-03 0. -1.
         11    1    3    3    0    0  0.43531736985E+02  0.51913044747E+01  0.11844924480E+03  0.12630196103E+03  0.51100000000E-03 0.  1.
<mgrwt>
<rscale>  0 0.95623441E+02</rscale>
<asrwt>0</asrwt>
<pdfrwt beam="1">  1        2 0.26914203E-01 0.95623441E+02</pdfrwt>
<pdfrwt beam="2">  1       -2 0.20102983E-02 0.95623441E+02</pdfrwt>
<totfact> 0.12959109E+05</totfact>
</mgrwt>
</event>
<event>
 5    1  0.2809073E+000  0.8800572E+02  0.7818608E-02  0.1307754E+00
          2   -1    0    0  501    0  0.00000000000E+00  0.00000000000E+00  0.40658440419E+02  0.40658440502E+02  0.26000000000E-02 0. -1.
         -2   -1    0    0    0  501 -0.00000000000E+00 -0.00000000000E+00 -0.47622381433E+02  0.47622381504E+02  0.26000000000E-02 0.  1.
         23    2    1    2    0    0  0.00000000000E+00  0.00000000000E+00 -0.69639410139E+01  0.88280822006E+02  0.88005721744E+02 0.  0.
        -11    1    3    3    0    0 -0.10379572763E+02 -0.55424033472E+01 -0.46014959698E+02  0.47495581709E+02  0.51100000000E-03 0.  1.
         11    1    3    3    0    0  0.10379572763E+02  0.55424033472E+01  0.39051018684E+02  0.40785240298E+02  0.51100000000E-03 0. -1.
<mgrwt>
<rscale>  0 0.88005722E+02</rscale>
<asrwt>0</asrwt>
<pdfrwt beam="1">  1        2 0.62551447E-02 0.88005722E+02</pdfrwt>
<pdfrwt beam="2">  1       -2 0.73265202E-02 0.88005722E+02</pdfrwt>
<totfact> 0.10607304E+05</totfact>
</mgrwt>
</event>
<event>
 5    1  0.2809073E+000  0.9372220E+02  0.7818608E-02  0.1294080E+00
         -2   -1    0    0    0  501 -0.00000000000E+00  0.00000000000E+00  0.36334501484E+02  0.36334501577E+02  0.26000000000E-02 0. -1.
          2   -1    0    0  501    0  0.00000000000E+00 -0.00000000000E+00 -0.60437399122E+02  0.60437399178E+02  0.26000000000E-02 0.  1.
         23    2    1    2    0    0  0.00000000000E+00  0.00000000000E+00 -0.24102897638E+02  0.96771900755E+02  0.93722201751E+02 0.  0.
        -11    1    3    3    0    0 -0.11788382247E+02 -0.29604756949E+02 -0.47528697746E+02  0.57222239555E+02  0.51100000000E-03 0.  1.
         11    1    3    3    0    0  0.11788382247E+02  0.29604756949E+02  0.23425800108E+02  0.39549661199E+02  0.51100000000E-03 0. -1.
<mgrwt>
<rscale>  0 0.93722202E+02</rscale>
<asrwt>0</asrwt>
<pdfrwt beam="2">  1        2 0.92980614E-02 0.93722202E+02</pdfrwt>
<pdfrwt beam="1">  1       -2 0.55899233E-02 0.93722202E+02</pdfrwt>
<totfact> 0.98312049E+04</totfact>
</mgrwt>
</event>
<event>
 5    1  0.2809073E+000  0.9170045E+02  0.7818608E-02  0.1298785E+00
         -2   -1    0    0    0  501 -0.00000000000E+00  0.00000000000E+00  0.43182007394E+02  0.43182007472E+02  0.26000000000E-02 0.  1.
          2   -1    0    0  501    0  0.00000000000E+00 -0.00000000000E+00 -0.48683309937E+02  0.48683310007E+02  0.26000000000E-02 0. -1.
         23    2    1    2    0    0  0.00000000000E+00  0.00000000000E+00 -0.55013025431E+01  0.91865317479E+02  0.91700448340E+02 0.  0.
        -11    1    3    3    0    0  0.24201272433E+02  0.37011338992E+02  0.93831957653E+01  0.45206030177E+02  0.51100000000E-03 0.  1.
         11    1    3    3    0    0 -0.24201272433E+02 -0.37011338992E+02 -0.14884498308E+02  0.46659287302E+02  0.51100000000E-03 0. -1.
<mgrwt>
<rscale>  0 0.91700448E+02</rscale>
<asrwt>0</asrwt>
<pdfrwt beam="2">  1        2 0.74897400E-02 0.91700448E+02</pdfrwt>
<pdfrwt beam="1">  1       -2 0.66433858E-02 0.91700448E+02</pdfrwt>
<totfact> 0.98743747E+04</totfact>
</mgrwt>
</event>
<event>
 5    1  0.2809073E+000  0.9260981E+02  0.7818608E-02  0.1296652E+00
          2   -1    0    0  501    0  0.00000000000E+00  0.00000000000E+00  0.20555175888E+03  0.20555175890E+03  0.26000000000E-02 0.  1.
         -2   -1    0    0    0  501 -0.00000000000E+00 -0.00000000000E+00 -0.10431163767E+02  0.10431164091E+02  0.26000000000E-02 0. -1.
         23    2    1    2    0    0  0.00000000000E+00  0.00000000000E+00  0.19512059511E+03  0.21598292299E+03  0.92609807177E+02 0.  0.
        -11    1    3    3    0    0 -0.34283204450E+02  0.30711030840E+02  0.85751399790E+02  0.97323214542E+02  0.51100000000E-03 0. -1.
         11    1    3    3    0    0  0.34283204450E+02 -0.30711030840E+02  0.10936919532E+03  0.11865970845E+03  0.51100000000E-03 0.  1.
<mgrwt>
<rscale>  0 0.92609807E+02</rscale>
<asrwt>0</asrwt>
<pdfrwt beam="1">  1        2 0.31623347E-01 0.92609807E+02</pdfrwt>
<pdfrwt beam="2">  1       -2 0.16047945E-02 0.92609807E+02</pdfrwt>
<totfact> 0.14979237E+05</totfact>
</mgrwt>
</event>
<event>
 5    1  0.2809073E+000  0.9624437E+02  0.7818608E-02  0.1288398E+00
          2   -1    0    0  501    0  0.00000000000E+00  0.00000000000E+00  0.54809065292E+02  0.54809065354E+02  0.26000000000E-02 0. -1.
         -2   -1    0    0    0  501 -0.00000000000E+00 -0.00000000000E+00 -0.42251124961E+02  0.42251125041E+02  0.26000000000E-02 0.  1.
         23    2    1    2    0    0  0.00000000000E+00  0.00000000000E+00  0.12557940331E+02  0.97060190395E+02  0.96244369675E+02 0.  0.
        -11    1    3    3    0    0  0.43816936258E+02  0.68944726297E+01  0.25099612843E+02  0.50965166742E+02  0.51100000000E-03 0. -1.
         11    1    3    3    0    0 -0.43816936258E+02 -0.68944726297E+01 -0.12541672512E+02  0.46095023653E+02  0.51100000000E-03 0.  1.
<mgrwt>
<rscale>  0 0.96244370E+02</rscale>
<asrwt>0</asrwt>
<pdfrwt beam="1">  1        2 0.84321638E-02 0.96244370E+02</pdfrwt>
<pdfrwt beam="2">  1       -2 0.65001731E-02 0.96244370E+02</pdfrwt>
<totfact> 0.88739526E+04</totfact>
</mgrwt>
</event>
<event>
 5    1  0.2809073E+000  0.9377628E+02  0.7818608E-02  0.1293956E+00
          2   -1    0    0  501    0  0.00000000000E+00  0.00000000000E+00  0.12813967016E+03  0.12813967018E+03  0.26000000000E-02 0. -1.
         -2   -1    0    0    0  501 -0.00000000000E+00 -0.00000000000E+00 -0.17157042440E+02  0.17157042637E+02  0.26000000000E-02 0.  1.
         23    2    1    2    0    0  0.00000000000E+00  0.00000000000E+00  0.11098262772E+03  0.14529671282E+03  0.93776282189E+02 0.  0.
        -11    1    3    3    0    0 -0.27256709486E+02  0.26698684890E+02  0.97717712790E+02  0.10490233258E+03  0.51100000000E-03 0. -1.
         11    1    3    3    0    0  0.27256709486E+02 -0.26698684890E+02  0.13264914925E+02  0.40394380241E+02  0.51100000000E-03 0.  1.
<mgrwt>
<rscale>  0 0.93776282E+02</rscale>
<asrwt>0</asrwt>
<pdfrwt beam="1">  1        2 0.19713796E-01 0.93776282E+02</pdfrwt>
<pdfrwt beam="2">  1       -2 0.26395450E-02 0.93776282E+02</pdfrwt>
<totfact> 0.12283535E+05</totfact>
</mgrwt>
</event>
<event>
 5    1  0.2809073E+000  0.9106595E+02  0.7818608E-02  0.1300291E+00
         -2   -1    0    0    0  501 -0.00000000000E+00  0.00000000000E+00  0.22348523388E+02  0.22348523539E+02  0.26000000000E-02 0.  1.
          2   -1    0    0  501    0  0.00000000000E+00 -0.00000000000E+00 -0.92769067672E+02  0.92769067708E+02  0.26000000000E-02 0. -1.
         23    2    1    2    0    0  0.00000000000E+00  0.00000000000E+00 -0.70420544284E+02  0.11511759125E+03  0.91065947298E+02 0.  0.
        -11    1    3    3    0    0 -0.95481061563E+01 -0.43553189308E+02 -0.46878861997E+02  0.64696787652E+02  0.51100000000E-03 0. -1.
         11    1    3    3    0    0  0.95481061563E+01  0.43553189308E+02 -0.23541682287E+02  0.50420803596E+02  0.51100000000E-03 0.  1.
<mgrwt>
<rscale>  0 0.91065947E+02</rscale>
<asrwt>0</asrwt>
<pdfrwt beam="2">  1        2 0.14272164E-01 0.91065947E+02</pdfrwt>
<pdfrwt beam="1">  1       -2 0.34382345E-02 0.91065947E+02</pdfrwt>
<totfact> 0.12033679E+05</totfact>
</mgrwt>
</event>
<event>
 5    1  0.2809073E+000  0.9191055E+02  0.7818608E-02  0.1298290E+00
         -2   -1    0    0    0  501 -0.00000000000E+00  0.00000000000E+00  0.25578423353E+03  0.25578423355E+03  0.26000000000E-02 0.  1.
          2   -1    0    0  501    0  0.00000000000E+00 -0.00000000000E+00 -0.82565176913E+01  0.82565181007E+01  0.26000000000E-02 0. -1.
         23    2    1    2    0    0  0.00000000000E+00  0.00000000000E+00  0.24752771584E+03  0.26404075165E+03  0.91910545752E+02 0.  0.
        -11    1    3    3    0    0  0.43398585296E+02  0.14688927941E+02  0.11353196695E+03  0.12242838450E+03  0.51100000000E-03 0.  1.
         11    1    3    3    0    0 -0.43398585296E+02 -0.14688927941E+02  0.13399574889E+03  0.14161236715E+03  0.51100000000E-03 0. -1.
<mgrwt>
<rscale>  0 0.91910546E+02</rscale>
<asrwt>0</asrwt>
<pdfrwt beam="2">  1        2 0.12702337E-02 0.91910546E+02</pdfrwt>
<pdfrwt beam="1">  1       -2 0.39351417E-01 0.91910546E+02</pdfrwt>
<totfact> 0.54402397E+04</totfact>
</mgrwt>
</event>
<event>
 5    1  0.2809073E+000  0.9712941E+02  0.7818608E-02  0.1286451E+00
          2   -1    0    0  501    0  0.00000000000E+00  0.00000000000E+00  0.80426964151E+02  0.80426964193E+02  0.26000000000E-02 0. -1.
         -2   -1    0    0    0  501 -0.00000000000E+00 -0.00000000000E+00 -0.29325121574E+02  0.29325121689E+02  0.26000000000E-02 0.  1.
         23    2    1    2    0    0  0.00000000000E+00  0.00000000000E+00  0.51101842577E+02  0.10975208588E+03  0.97129408732E+02 0.  0.
        -11    1    3    3    0    0  0.33931162938E+01  0.12714581627E+02 -0.27272095834E+02  0.30281034256E+02  0.51100000000E-03 0.  1.
         11    1    3    3    0    0 -0.33931162938E+01 -0.12714581627E+02  0.78373938412E+02  0.79471051626E+02  0.51100000000E-03 0. -1.
<mgrwt>
<rscale>  0 0.97129409E+02</rscale>
<asrwt>0</asrwt>
<pdfrwt beam="1">  1        2 0.12373379E-01 0.97129409E+02</pdfrwt>
<pdfrwt beam="2">  1       -2 0.45115573E-02 0.97129409E+02</pdfrwt>
<totfact> 0.96391832E+04</totfact>
</mgrwt>
</event>
<event>
 5    1  0.2809073E+000  0.9184315E+02  0.7818608E-02  0.1298449E+00
          2   -1    0    0  501    0  0.00000000000E+00  0.00000000000E+00  0.15518582521E+03  0.15518582523E+03  0.26000000000E-02 0. -1.
         -2   -1    0    0    0  501 -0.00000000000E+00 -0.00000000000E+00 -0.13588811914E+02  0.13588812163E+02  0.26000000000E-02 0.  1.
         23    2    1    2    0    0  0.00000000000E+00  0.00000000000E+00  0.14159701329E+03  0.16877463739E+03  0.91843149189E+02 0.  0.
        -11    1    3    3    0    0 -0.95528721950E+01  0.44427552260E+02  0.58646961252E+02  0.74192525441E+02  0.51100000000E-03 0.  1.
         11    1    3    3    0    0  0.95528721950E+01 -0.44427552260E+02  0.82950052041E+02  0.94582111949E+02  0.51100000000E-03 0. -1.
<mgrwt>
<rscale>  0 0.91843149E+02</rscale>
<asrwt>0</asrwt>
<pdfrwt beam="1">  1        2 0.23874742E-01 0.91843149E+02</pdfrwt>
<pdfrwt beam="2">  1       -2 0.20905865E-02 0.91843149E+02</pdfrwt>
<totfact> 0.13867329E+05</totfact>
</mgrwt>
</event>
<event>
 5    1  0.2809073E+000  0.9187985E+02  0.7818608E-02  0.1298362E+00
          2   -1    0    0  501    0  0.00000000000E+00  0.00000000000E+00  0.20933075118E+03  0.20933075119E+03  0.26000000000E-02 0. -1.
         -2   -1    0    0    0  501 -0.00000000000E+00 -0.00000000000E+00 -0.10082018394E+02  0.10082018729E+02  0.26000000000E-02 0.  1.
         23    2    1    2    0    0  0.00000000000E+00  0.00000000000E+00  0.19924873278E+03  0.21941276992E+03  0.91879845937E+02 0.  0.
        -11    1    3    3    0    0 -0.16817701148E+02  0.33908909607E+02  0.16179727279E+03  0.16616560025E+03  0.51100000000E-03 0. -1.
         11    1    3    3    0    0  0.16817701148E+02 -0.33908909607E+02  0.37451459993E+02  0.53247169676E+02  0.51100000000E-03 0.  1.
<mgrwt>
<rscale>  0 0.91879846E+02</rscale>
<asrwt>0</asrwt>
<pdfrwt beam="1">  1        2 0.32204731E-01 0.91879846E+02</pdfrwt>
<pdfrwt beam="2">  1       -2 0.15510798E-02 0.91879846E+02</pdfrwt>
<totfact> 0.15404092E+05</totfact>
</mgrwt>
</event>
<event>
 5    1  0.2809073E+000  0.9167037E+02  0.7818608E-02  0.1298856E+00
          2   -1    0    0  501    0  0.00000000000E+00  0.00000000000E+00  0.28790597445E+03  0.28790597446E+03  0.26000000000E-02 0. -1.
         -2   -1    0    0    0  501 -0.00000000000E+00 -0.00000000000E+00 -0.72970495074E+01  0.72970499706E+01  0.26000000000E-02 0.  1.
         23    2    1    2    0    0  0.00000000000E+00  0.00000000000E+00  0.28060892494E+03  0.29520302443E+03  0.91670370766E+02 0.  0.
        -11    1    3    3    0    0 -0.11641543578E+02 -0.36244712888E+02  0.58098717371E+02  0.69459813631E+02  0.51100000000E-03 0.  1.
         11    1    3    3    0    0  0.11641543578E+02  0.36244712888E+02  0.22251020757E+03  0.22574321080E+03  0.51100000000E-03 0. -1.
<mgrwt>
<rscale>  0 0.91670371E+02</rscale>
<asrwt>0</asrwt>
<pdfrwt beam="1">  1        2 0.44293215E-01 0.91670371E+02</pdfrwt>
<pdfrwt beam="2">  1       -2 0.11226233E-02 0.91670371E+02</pdfrwt>
<totfact> 0.17439113E+05</totfact>
</mgrwt>
</event>
<event>
 5    1  0.2809073E+000  0.9312714E+02  0.7818608E-02  0.1295451E+00
          2   -1    0    0  501    0  0.00000000000E+00  0.00000000000E+00  0.31642392677E+03  0.31642392678E+03  0.26000000000E-02 0.  1.
         -2   -1    0    0    0  501 -0.00000000000E+00 -0.00000000000E+00 -0.68520926626E+01  0.68520931559E+01  0.26000000000E-02 0. -1.
         23    2    1    2    0    0  0.00000000000E+00  0.00000000000E+00  0.30957183411E+03  0.32327601994E+03  0.93127142088E+02 0.  0.
        -11    1    3    3    0    0  0.39209737427E+02 -0.24959644441E+02  0.16446765210E+03  0.17090932083E+03  0.51100000000E-03 0. -1.
         11    1    3    3    0    0 -0.39209737427E+02  0.24959644441E+02  0.14510418201E+03  0.15236669910E+03  0.51100000000E-03 0.  1.
<mgrwt>
<rscale>  0 0.93127142E+02</rscale>
<asrwt>0</asrwt>
<pdfrwt beam="1">  1        2 0.48680613E-01 0.93127142E+02</pdfrwt>
<pdfrwt beam="2">  1       -2 0.10541680E-02 0.93127142E+02</pdfrwt>
<totfact> 0.17318563E+05</totfact>
</mgrwt>
</event>
<event>
 5    1  0.2809073E+000  0.9066551E+02  0.7818608E-02  0.1301248E+00
         -2   -1    0    0    0  501 -0.00000000000E+00  0.00000000000E+00  0.10290282535E+03  0.10290282538E+03  0.26000000000E-02 0.  1.
          2   -1    0    0  501    0  0.00000000000E+00 -0.00000000000E+00 -0.19970868067E+02  0.19970868236E+02  0.26000000000E-02 0. -1.
         23    2    1    2    0    0  0.00000000000E+00  0.00000000000E+00  0.82931957278E+02  0.12287369361E+03  0.90665511880E+02 0.  0.
        -11    1    3    3    0    0 -0.47382300875E+01 -0.44199769247E+02  0.29421215186E+02  0.53307394695E+02  0.51100000000E-03 0. -1.
         11    1    3    3    0    0  0.47382300875E+01  0.44199769247E+02  0.53510742092E+02  0.69566298919E+02  0.51100000000E-03 0.  1.
<mgrwt>
<rscale>  0 0.90665512E+02</rscale>
<asrwt>0</asrwt>
<pdfrwt beam="2">  1        2 0.30724413E-02 0.90665512E+02</pdfrwt>
<pdfrwt beam="1">  1       -2 0.15831204E-01 0.90665512E+02</pdfrwt>
<totfact> 0.80240095E+04</totfact>
</mgrwt>
</event>
<event>
 5    1  0.2809073E+000  0.8906436E+02  0.7818608E-02  0.1305133E+00
         -2   -1    0    0    0  501 -0.00000000000E+00  0.00000000000E+00  0.11663299988E+03  0.11663299991E+03  0.26000000000E-02 0.  1.
          2   -1    0    0  501    0  0.00000000000E+00 -0.00000000000E+00 -0.17003036591E+02  0.17003036790E+02  0.26000000000E-02 0. -1.
         23    2    1    2    0    0  0.00000000000E+00  0.00000000000E+00  0.99629963293E+02  0.13363603670E+03  0.89064362794E+02 0.  0.
        -11    1    3    3    0    0 -0.15611490393E+02 -0.37973135824E+02  0.75692193739E+02  0.86110312215E+02  0.51100000000E-03 0.  1.
         11    1    3    3    0    0  0.15611490393E+02  0.37973135824E+02  0.23937769554E+02  0.47525724487E+02  0.51100000000E-03 0. -1.
<mgrwt>
<rscale>  0 0.89064363E+02</rscale>
<asrwt>0</asrwt>
<pdfrwt beam="2">  1        2 0.26158517E-02 0.89064363E+02</pdfrwt>
<pdfrwt beam="1">  1       -2 0.17943539E-01 0.89064363E+02</pdfrwt>
<totfact> 0.80711137E+04</totfact>
</mgrwt>
</event>
<event>
 5    1  0.2809073E+000  0.9164860E+02  0.7818608E-02  0.1298908E+00
         -2   -1    0    0    0  501 -0.00000000000E+00  0.00000000000E+00  0.20238130910E+02  0.20238131077E+02  0.26000000000E-02 0.  1.
          2   -1    0    0  501    0  0.00000000000E+00 -0.00000000000E+00 -0.10375793535E+03  0.10375793538E+03  0.26000000000E-02 0. -1.
         23    2    1    2    0    0  0.00000000000E+00  0.00000000000E+00 -0.83519804438E+02  0.12399606646E+03  0.91648604810E+02 0.  0.
        -11    1    3    3    0    0 -0.25856829509E+01 -0.18180622106E+02 -0.98562028046E+02  0.10025813757E+03  0.51100000000E-03 0. -1.
         11    1    3    3    0    0  0.25856829509E+01  0.18180622106E+02  0.15042223608E+02  0.23737928886E+02  0.51100000000E-03 0.  1.
<mgrwt>
<rscale>  0 0.91648605E+02</rscale>
<asrwt>0</asrwt>
<pdfrwt beam="2">  1        2 0.15962759E-01 0.91648605E+02</pdfrwt>
<pdfrwt beam="1">  1       -2 0.31135587E-02 0.91648605E+02</pdfrwt>
<totfact> 0.12231921E+05</totfact>
</mgrwt>
</event>
<event>
 5    1  0.2809073E+000  0.9138826E+02  0.7818608E-02  0.1299524E+00
          2   -1    0    0  501    0  0.00000000000E+00  0.00000000000E+00  0.49148878254E+02  0.49148878323E+02  0.26000000000E-02 0. -1.
         -2   -1    0    0    0  501 -0.00000000000E+00 -0.00000000000E+00 -0.42482219980E+02  0.42482220059E+02  0.26000000000E-02 0.  1.
         23    2    1    2    0    0  0.00000000000E+00  0.00000000000E+00  0.66666582748E+01  0.91631098382E+02  0.91388258864E+02 0.  0.
        -11    1    3    3    0    0 -0.22903919891E+02  0.31387615818E+02 -0.20775969788E+02  0.44061467225E+02  0.51100000000E-03 0.  1.
         11    1    3    3    0    0  0.22903919891E+02 -0.31387615818E+02  0.27442628063E+02  0.47569631157E+02  0.51100000000E-03 0. -1.
<mgrwt>
<rscale>  0 0.91388259E+02</rscale>
<asrwt>0</asrwt>
<pdfrwt beam="1">  1        2 0.75613659E-02 0.91388259E+02</pdfrwt>
<pdfrwt beam="2">  1       -2 0.65357262E-02 0.91388259E+02</pdfrwt>
<totfact> 0.99960663E+04</totfact>
</mgrwt>
</event>
<event>
 5    1  0.2809073E+000  0.8591603E+02  0.7818608E-02  0.1313054E+00
         -2   -1    0    0    0  501 -0.00000000000E+00  0.00000000000E+00  0.26758532709E+03  0.26758532710E+03  0.26000000000E-02 0.  1.
          2   -1    0    0  501    0  0.00000000000E+00 -0.00000000000E+00 -0.68964583446E+01  0.68964588347E+01  0.26000000000E-02 0. -1.
         23    2    1    2    0    0  0.00000000000E+00  0.00000000000E+00  0.26068886874E+03  0.27448178593E+03  0.85916031819E+02 0.  0.
        -11    1    3    3    0    0  0.24888655353E+02  0.26663070554E+02  0.20284713186E+03  0.20610027511E+03  0.51100000000E-03 0.  1.
         11    1    3    3    0    0 -0.24888655353E+02 -0.26663070554E+02  0.57841736883E+02  0.68381510824E+02  0.51100000000E-03 0. -1.
<mgrwt>
<rscale>  0 0.85916032E+02</rscale>
<asrwt>0</asrwt>
<pdfrwt beam="2">  1        2 0.10609937E-02 0.85916032E+02</pdfrwt>
<pdfrwt beam="1">  1       -2 0.41166972E-01 0.85916032E+02</pdfrwt>
<totfact> 0.63196637E+04</totfact>
</mgrwt>
</event>
<event>
 5    1  0.2809073E+000  0.9148648E+02  0.7818608E-02  0.1299291E+00
          2   -1    0    0  501    0  0.00000000000E+00  0.00000000000E+00  0.15374350500E+03  0.15374350503E+03  0.26000000000E-02 0. -1.
         -2   -1    0    0    0  501 -0.00000000000E+00 -0.00000000000E+00 -0.13609966386E+02  0.13609966634E+02  0.26000000000E-02 0.  1.
         23    2    1    2    0    0  0.00000000000E+00  0.00000000000E+00  0.14013353862E+03  0.16735347166E+03  0.91486478953E+02 0.  0.
        -11    1    3    3    0    0  0.37858780363E+02  0.25254331271E+02  0.61609395290E+02  0.76594948181E+02  0.51100000000E-03 0. -1.
         11    1    3    3    0    0 -0.37858780363E+02 -0.25254331271E+02  0.78524143327E+02  0.90758523478E+02  0.51100000000E-03 0.  1.
<mgrwt>
<rscale>  0 0.91486479E+02</rscale>
<asrwt>0</asrwt>
<pdfrwt beam="1">  1        2 0.23652846E-01 0.91486479E+02</pdfrwt>
<pdfrwt beam="2">  1       -2 0.20938410E-02 0.91486479E+02</pdfrwt>
<totfact> 0.13969847E+05</totfact>
</mgrwt>
</event>
<event>
 5    1  0.2809073E+000  0.8626420E+02  0.7818608E-02  0.1312159E+00
         -2   -1    0    0    0  501 -0.00000000000E+00  0.00000000000E+00  0.58319019462E+01  0.58319025257E+01  0.26000000000E-02 0.  1.
          2   -1    0    0  501    0  0.00000000000E+00 -0.00000000000E+00 -0.31900023204E+03  0.31900023205E+03  0.26000000000E-02 0. -1.
         23    2    1    2    0    0  0.00000000000E+00  0.00000000000E+00 -0.31316833009E+03  0.32483213458E+03  0.86264202771E+02 0.  0.
        -11    1    3    3    0    0 -0.68086512095E+01  0.38244549227E+02 -0.85998951003E+02  0.94365368917E+02  0.51100000000E-03 0.  1.
         11    1    3    3    0    0  0.68086512095E+01 -0.38244549227E+02 -0.22716937909E+03  0.23046676566E+03  0.51100000000E-03 0. -1.
<mgrwt>
<rscale>  0 0.86264203E+02</rscale>
<asrwt>0</asrwt>
<pdfrwt beam="2">  1        2 0.49076945E-01 0.86264203E+02</pdfrwt>
<pdfrwt beam="1">  1       -2 0.89721598E-03 0.86264203E+02</pdfrwt>
<totfact> 0.21293122E+05</totfact>
</mgrwt>
</event>
<event>
 5    1  0.2809073E+000  0.9093525E+02  0.7818608E-02  0.1300603E+00
         -2   -1    0    0    0  501 -0.00000000000E+00  0.00000000000E+00  0.11421745597E+03  0.11421745600E+03  0.26000000000E-02 0.  1.
          2   -1    0    0  501    0  0.00000000000E+00 -0.00000000000E+00 -0.18099729725E+02  0.18099729912E+02  0.26000000000E-02 0. -1.
         23    2    1    2    0    0  0.00000000000E+00  0.00000000000E+00  0.96117726241E+02  0.13231718591E+03  0.90935253828E+02 0.  0.
        -11    1    3    3    0    0  0.18543052592E+02  0.18542934598E+02  0.10210488011E+03  0.10541864999E+03  0.51100000000E-03 0.  1.
         11    1    3    3    0    0 -0.18543052592E+02 -0.18542934598E+02 -0.59871538676E+01  0.26898535920E+02  0.51100000000E-03 0. -1.
<mgrwt>
<rscale>  0 0.90935254E+02</rscale>
<asrwt>0</asrwt>
<pdfrwt beam="2">  1        2 0.27845738E-02 0.90935254E+02</pdfrwt>
<pdfrwt beam="1">  1       -2 0.17571917E-01 0.90935254E+02</pdfrwt>
<totfact> 0.77127411E+04</totfact>
</mgrwt>
</event>
<event>
 4    1  0.2809073E+000  0.1516766E+03  0.7818608E-02  0.1198428E+00
          2   -1    0    0  501    0  0.00000000000E+00  0.00000000000E+00  0.45207446030E+03  0.45207446031E+03  0.26000000000E-02 0. -1.
         -2   -1    0    0    0  501 -0.00000000000E+00 -0.00000000000E+00 -0.12722342038E+02  0.12722342304E+02  0.26000000000E-02 0.  1.
        -11    1    1    2    0    0 -0.72097221631E+02  0.10047603161E+02  0.15449139969E+03  0.17078218957E+03  0.51100000000E-03 0.  1.
         11    1    1    2    0    0  0.72097221631E+02 -0.10047603161E+02  0.28486071858E+03  0.29401461305E+03  0.51100000000E-03 0. -1.
<mgrwt>
<rscale>  0 0.15167658E+03</rscale>
<asrwt>0</asrwt>
<pdfrwt beam="1">  1        2 0.69549904E-01 0.15167658E+03</pdfrwt>
<pdfrwt beam="2">  1       -2 0.19572838E-02 0.15167658E+03</pdfrwt>
<totfact> 0.52083843E+04</totfact>
</mgrwt>
</event>
<event>
 5    1  0.2809073E+000  0.8128850E+02  0.7818608E-02  0.1325434E+00
         -2   -1    0    0    0  501 -0.00000000000E+00  0.00000000000E+00  0.17655241609E+02  0.17655241800E+02  0.26000000000E-02 0. -1.
          2   -1    0    0  501    0  0.00000000000E+00 -0.00000000000E+00 -0.93567391854E+02  0.93567391890E+02  0.26000000000E-02 0.  1.
         23    2    1    2    0    0  0.00000000000E+00  0.00000000000E+00 -0.75912150245E+02  0.11122263369E+03  0.81288496666E+02 0.  0.
        -11    1    3    3    0    0 -0.40321229258E+02 -0.13481898639E+01 -0.44705809712E+02  0.60218174724E+02  0.51100000000E-03 0.  1.
         11    1    3    3    0    0  0.40321229258E+02  0.13481898639E+01 -0.31206340533E+02  0.51004458967E+02  0.51100000000E-03 0. -1.
<mgrwt>
<rscale>  0 0.81288497E+02</rscale>
<asrwt>0</asrwt>
<pdfrwt beam="2">  1        2 0.14394983E-01 0.81288497E+02</pdfrwt>
<pdfrwt beam="1">  1       -2 0.27161911E-02 0.81288497E+02</pdfrwt>
<totfact> 0.16459540E+05</totfact>
</mgrwt>
</event>
<event>
 5    1  0.2809073E+000  0.9175101E+02  0.7818608E-02  0.1298666E+00
          2   -1    0    0  501    0  0.00000000000E+00  0.00000000000E+00  0.29826048136E+02  0.29826048249E+02  0.26000000000E-02 0. -1.
         -2   -1    0    0    0  501 -0.00000000000E+00 -0.00000000000E+00 -0.70561210503E+02  0.70561210551E+02  0.26000000000E-02 0.  1.
         23    2    1    2    0    0  0.00000000000E+00  0.00000000000E+00 -0.40735162367E+02  0.10038725880E+03  0.91751012400E+02 0.  0.
        -11    1    3    3    0    0 -0.27951864600E+01  0.39173476404E+02 -0.46309877682E+02  0.60720499769E+02  0.51100000000E-03 0.  1.
         11    1    3    3    0    0  0.27951864600E+01 -0.39173476404E+02  0.55747153151E+01  0.39666759032E+02  0.51100000000E-03 0. -1.
<mgrwt>
<rscale>  0 0.91751012E+02</rscale>
<asrwt>0</asrwt>
<pdfrwt beam="1">  1        2 0.45886228E-02 0.91751012E+02</pdfrwt>
<pdfrwt beam="2">  1       -2 0.10855571E-01 0.91751012E+02</pdfrwt>
<totfact> 0.86694686E+04</totfact>
</mgrwt>
</event>
<event>
 5    1  0.2809073E+000  0.9122483E+02  0.7818608E-02  0.1299912E+00
         -2   -1    0    0    0  501 -0.00000000000E+00  0.00000000000E+00  0.15371256879E+02  0.15371257099E+02  0.26000000000E-02 0. -1.
          2   -1    0    0  501    0  0.00000000000E+00 -0.00000000000E+00 -0.13534952647E+03  0.13534952649E+03  0.26000000000E-02 0.  1.
         23    2    1    2    0    0  0.00000000000E+00  0.00000000000E+00 -0.11997826959E+03  0.15072078359E+03  0.91224829038E+02 0.  0.
        -11    1    3    3    0    0  0.38105940920E+02  0.24399230401E+02 -0.69495646404E+02  0.82927860499E+02  0.51100000000E-03 0.  1.
         11    1    3    3    0    0 -0.38105940920E+02 -0.24399230401E+02 -0.50482623186E+02  0.67792923094E+02  0.51100000000E-03 0. -1.
<mgrwt>
<rscale>  0 0.91224829E+02</rscale>
<asrwt>0</asrwt>
<pdfrwt beam="2">  1        2 0.20823003E-01 0.91224829E+02</pdfrwt>
<pdfrwt beam="1">  1       -2 0.23648089E-02 0.91224829E+02</pdfrwt>
<totfact> 0.13487174E+05</totfact>
</mgrwt>
</event>
<event>
 5    1  0.2809073E+000  0.9439605E+02  0.7818608E-02  0.1292542E+00
         -2   -1    0    0    0  501 -0.00000000000E+00  0.00000000000E+00  0.56311599278E+01  0.56311605281E+01  0.26000000000E-02 0.  1.
          2   -1    0    0  501    0  0.00000000000E+00 -0.00000000000E+00 -0.39559403018E+03  0.39559403019E+03  0.26000000000E-02 0. -1.
         23    2    1    2    0    0  0.00000000000E+00  0.00000000000E+00 -0.38996287025E+03  0.40122519071E+03  0.94396045946E+02 0.  0.
        -11    1    3    3    0    0  0.44664061988E+02  0.98882391833E+01 -0.14559615548E+03  0.15261355182E+03  0.51100000000E-03 0.  1.
         11    1    3    3    0    0 -0.44664061988E+02 -0.98882391833E+01 -0.24436671477E+03  0.24861163890E+03  0.51100000000E-03 0. -1.
<mgrwt>
<rscale>  0 0.94396046E+02</rscale>
<asrwt>0</asrwt>
<pdfrwt beam="2">  1        2 0.60860598E-01 0.94396046E+02</pdfrwt>
<pdfrwt beam="1">  1       -2 0.86633266E-03 0.94396046E+02</pdfrwt>
<totfact> 0.18129490E+05</totfact>
</mgrwt>
</event>
<event>
 5    1  0.2809073E+000  0.9017581E+02  0.7818608E-02  0.1302427E+00
         -2   -1    0    0    0  501 -0.00000000000E+00  0.00000000000E+00  0.74109486513E+01  0.74109491074E+01  0.26000000000E-02 0.  1.
          2   -1    0    0  501    0  0.00000000000E+00 -0.00000000000E+00 -0.27431291828E+03  0.27431291829E+03  0.26000000000E-02 0. -1.
         23    2    1    2    0    0  0.00000000000E+00  0.00000000000E+00 -0.26690196963E+03  0.28172386740E+03  0.90175806461E+02 0.  0.
        -11    1    3    3    0    0 -0.34606874846E+02 -0.28726376904E+02 -0.12353281424E+03  0.13146557234E+03  0.51100000000E-03 0.  1.
         11    1    3    3    0    0  0.34606874846E+02  0.28726376904E+02 -0.14336915539E+03  0.15025829506E+03  0.51100000000E-03 0. -1.
<mgrwt>
<rscale>  0 0.90175806E+02</rscale>
<asrwt>0</asrwt>
<pdfrwt beam="2">  1        2 0.42201980E-01 0.90175806E+02</pdfrwt>
<pdfrwt beam="1">  1       -2 0.11401462E-02 0.90175806E+02</pdfrwt>
<totfact> 0.17895896E+05</totfact>
</mgrwt>
</event>
<event>
 5    1  0.2809073E+000  0.1015523E+03  0.7818608E-02  0.1277065E+00
         -2   -1    0    0    0  501 -0.00000000000E+00  0.00000000000E+00  0.71042889093E+01  0.71042893851E+01  0.26000000000E-02 0.  1.
          2   -1    0    0  501    0  0.00000000000E+00 -0.00000000000E+00 -0.36291027622E+03  0.36291027623E+03  0.26000000000E-02 0. -1.
         23    2    1    2    0    0  0.00000000000E+00  0.00000000000E+00 -0.35580598731E+03  0.37001456561E+03  0.10155234198E+03 0.  0.
        -11    1    3    3    0    0  0.39495014143E+02  0.21772086690E+02 -0.26291178812E+03  0.26675173521E+03  0.51100000000E-03 0.  1.
         11    1    3    3    0    0 -0.39495014143E+02 -0.21772086690E+02 -0.92894199189E+02  0.10326283041E+03  0.51100000000E-03 0. -1.
<mgrwt>
<rscale>  0 0.10155234E+03</rscale>
<asrwt>0</asrwt>
<pdfrwt beam="2">  1        2 0.55832336E-01 0.10155234E+03</pdfrwt>
<pdfrwt beam="1">  1       -2 0.10929678E-02 0.10155234E+03</pdfrwt>
<totfact> 0.14444896E+05</totfact>
</mgrwt>
</event>
<event>
 5    1  0.2809073E+000  0.9371010E+02  0.7818608E-02  0.1294108E+00
         -2   -1    0    0    0  501 -0.00000000000E+00  0.00000000000E+00  0.36599670510E+02  0.36599670603E+02  0.26000000000E-02 0.  1.
          2   -1    0    0  501    0  0.00000000000E+00 -0.00000000000E+00 -0.59984035258E+02  0.59984035314E+02  0.26000000000E-02 0. -1.
         23    2    1    2    0    0  0.00000000000E+00  0.00000000000E+00 -0.23384364747E+02  0.96583705916E+02  0.93710104759E+02 0.  0.
        -11    1    3    3    0    0 -0.16639279631E+02  0.42550976158E+02 -0.98394047486E+00  0.45699226883E+02  0.51100000000E-03 0.  1.
         11    1    3    3    0    0  0.16639279631E+02 -0.42550976158E+02 -0.22400424272E+02  0.50884479033E+02  0.51100000000E-03 0. -1.
<mgrwt>
<rscale>  0 0.93710105E+02</rscale>
<asrwt>0</asrwt>
<pdfrwt beam="2">  1        2 0.92283132E-02 0.93710105E+02</pdfrwt>
<pdfrwt beam="1">  1       -2 0.56307185E-02 0.93710105E+02</pdfrwt>
<totfact> 0.98146163E+04</totfact>
</mgrwt>
</event>
<event>
 5    1  0.2809073E+000  0.8364313E+02  0.7818608E-02  0.1319020E+00
         -2   -1    0    0    0  501 -0.00000000000E+00  0.00000000000E+00  0.10297923256E+02  0.10297923584E+02  0.26000000000E-02 0. -1.
          2   -1    0    0  501    0  0.00000000000E+00 -0.00000000000E+00 -0.16984428827E+03  0.16984428829E+03  0.26000000000E-02 0.  1.
         23    2    1    2    0    0  0.00000000000E+00  0.00000000000E+00 -0.15954636501E+03  0.18014221187E+03  0.83643134265E+02 0.  0.
        -11    1    3    3    0    0  0.30891410061E+02  0.22462582647E+02 -0.11646180316E+03  0.12256507835E+03  0.51100000000E-03 0.  1.
         11    1    3    3    0    0 -0.30891410061E+02 -0.22462582647E+02 -0.43084561853E+02  0.57577133526E+02  0.51100000000E-03 0. -1.
<mgrwt>
<rscale>  0 0.83643134E+02</rscale>
<asrwt>0</asrwt>
<pdfrwt beam="2">  1        2 0.26129888E-01 0.83643134E+02</pdfrwt>
<pdfrwt beam="1">  1       -2 0.15842960E-02 0.83643134E+02</pdfrwt>
<totfact> 0.18400434E+05</totfact>
</mgrwt>
</event>
<event>
 5    1  0.2809073E+000  0.9175728E+02  0.7818608E-02  0.1298651E+00
          2   -1    0    0  501    0  0.00000000000E+00  0.00000000000E+00  0.14340642947E+03  0.14340642949E+03  0.26000000000E-02 0. -1.
         -2   -1    0    0    0  501 -0.00000000000E+00 -0.00000000000E+00 -0.14677513330E+02  0.14677513560E+02  0.26000000000E-02 0.  1.
         23    2    1    2    0    0  0.00000000000E+00  0.00000000000E+00  0.12872891614E+03  0.15808394305E+03  0.91757284184E+02 0.  0.
        -11    1    3    3    0    0 -0.39867046303E+02 -0.15580754319E+02  0.92815393980E+02  0.10220977764E+03  0.51100000000E-03 0. -1.
         11    1    3    3    0    0  0.39867046303E+02  0.15580754319E+02  0.35913522157E+02  0.55874165408E+02  0.51100000000E-03 0.  1.
<mgrwt>
<rscale>  0 0.91757284E+02</rscale>
<asrwt>0</asrwt>
<pdfrwt beam="1">  1        2 0.22062528E-01 0.91757284E+02</pdfrwt>
<pdfrwt beam="2">  1       -2 0.22580790E-02 0.91757284E+02</pdfrwt>
<totfact> 0.13534181E+05</totfact>
</mgrwt>
</event>
<event>
 5    1  0.2809073E+000  0.9084443E+02  0.7818608E-02  0.1300820E+00
         -2   -1    0    0    0  501 -0.00000000000E+00  0.00000000000E+00  0.12310770709E+03  0.12310770711E+03  0.26000000000E-02 0. -1.
          2   -1    0    0  501    0  0.00000000000E+00 -0.00000000000E+00 -0.16759127209E+02  0.16759127411E+02  0.26000000000E-02 0.  1.
         23    2    1    2    0    0  0.00000000000E+00  0.00000000000E+00  0.10634857988E+03  0.13986683452E+03  0.90844432729E+02 0.  0.
        -11    1    3    3    0    0 -0.24426989365E+02  0.21804085600E+02  0.10164408405E+03  0.10678771362E+03  0.51100000000E-03 0. -1.
         11    1    3    3    0    0  0.24426989365E+02 -0.21804085600E+02  0.47044958269E+01  0.33079120901E+02  0.51100000000E-03 0.  1.
<mgrwt>
<rscale>  0 0.90844433E+02</rscale>
<asrwt>0</asrwt>
<pdfrwt beam="2">  1        2 0.25783273E-02 0.90844433E+02</pdfrwt>
<pdfrwt beam="1">  1       -2 0.18939647E-01 0.90844433E+02</pdfrwt>
<totfact> 0.75480652E+04</totfact>
</mgrwt>
</event>
<event>
 5    1  0.2809073E+000  0.9980863E+02  0.7818608E-02  0.1280699E+00
         -2   -1    0    0    0  501 -0.00000000000E+00  0.00000000000E+00  0.20995200135E+02  0.20995200296E+02  0.26000000000E-02 0.  1.
          2   -1    0    0  501    0  0.00000000000E+00 -0.00000000000E+00 -0.11861953311E+03  0.11861953314E+03  0.26000000000E-02 0. -1.
         23    2    1    2    0    0  0.00000000000E+00  0.00000000000E+00 -0.97624332977E+02  0.13961473344E+03  0.99808633911E+02 0.  0.
        -11    1    3    3    0    0 -0.72224641513E+01 -0.38776123336E+02 -0.60463533474E+01  0.39903760706E+02  0.51100000000E-03 0.  1.
         11    1    3    3    0    0  0.72224641513E+01  0.38776123336E+02 -0.91577979629E+02  0.99710972729E+02  0.51100000000E-03 0. -1.
<mgrwt>
<rscale>  0 0.99808634E+02</rscale>
<asrwt>0</asrwt>
<pdfrwt beam="2">  1        2 0.18249159E-01 0.99808634E+02</pdfrwt>
<pdfrwt beam="1">  1       -2 0.32300309E-02 0.99808634E+02</pdfrwt>
<totfact> 0.10084937E+05</totfact>
</mgrwt>
</event>
<event>
 5    1  0.2809073E+000  0.9210903E+02  0.7818608E-02  0.1297823E+00
         -2   -1    0    0    0  501 -0.00000000000E+00  0.00000000000E+00  0.46347099917E+01  0.46347107210E+01  0.26000000000E-02 0.  1.
          2   -1    0    0  501    0  0.00000000000E+00 -0.00000000000E+00 -0.45763774316E+03  0.45763774317E+03  0.26000000000E-02 0. -1.
         23    2    1    2    0    0  0.00000000000E+00  0.00000000000E+00 -0.45300303317E+03  0.46227245389E+03  0.92109030851E+02 0.  0.
        -11    1    3    3    0    0  0.45090785842E+02 -0.54901442469E+01 -0.26462347474E+03  0.26849376908E+03  0.51100000000E-03 0.  1.
         11    1    3    3    0    0 -0.45090785842E+02  0.54901442469E+01 -0.18837955843E+03  0.19377868481E+03  0.51100000000E-03 0. -1.
<mgrwt>
<rscale>  0 0.92109031E+02</rscale>
<asrwt>0</asrwt>
<pdfrwt beam="2">  1        2 0.70405772E-01 0.92109031E+02</pdfrwt>
<pdfrwt beam="1">  1       -2 0.71303272E-03 0.92109031E+02</pdfrwt>
<totfact> 0.20366926E+05</totfact>
</mgrwt>
</event>
<event>
 5    1  0.2809073E+000  0.9128058E+02  0.7818608E-02  0.1299780E+00
          2   -1    0    0  501    0  0.00000000000E+00  0.00000000000E+00  0.20614139768E+03  0.20614139770E+03  0.26000000000E-02 0. -1.
         -2   -1    0    0    0  501 -0.00000000000E+00 -0.00000000000E+00 -0.10104888373E+02  0.10104888707E+02  0.26000000000E-02 0.  1.
         23    2    1    2    0    0  0.00000000000E+00  0.00000000000E+00  0.19603650931E+03  0.21624628640E+03  0.91280575163E+02 0.  0.
        -11    1    3    3    0    0  0.42124285244E+02 -0.16882515539E+02  0.86519039973E+02  0.97698613176E+02  0.51100000000E-03 0. -1.
         11    1    3    3    0    0 -0.42124285244E+02  0.16882515539E+02  0.10951746933E+03  0.11854767323E+03  0.51100000000E-03 0.  1.
<mgrwt>
<rscale>  0 0.91280575E+02</rscale>
<asrwt>0</asrwt>
<pdfrwt beam="1">  1        2 0.31714063E-01 0.91280575E+02</pdfrwt>
<pdfrwt beam="2">  1       -2 0.15545981E-02 0.91280575E+02</pdfrwt>
<totfact> 0.15590638E+05</totfact>
</mgrwt>
</event>
<event>
 5    1  0.2809073E+000  0.9154069E+02  0.7818608E-02  0.1299163E+00
         -2   -1    0    0    0  501 -0.00000000000E+00  0.00000000000E+00  0.59822217171E+02  0.59822217227E+02  0.26000000000E-02 0. -1.
          2   -1    0    0  501    0  0.00000000000E+00 -0.00000000000E+00 -0.35019172350E+02  0.35019172447E+02  0.26000000000E-02 0.  1.
         23    2    1    2    0    0  0.00000000000E+00  0.00000000000E+00  0.24803044821E+02  0.94841389674E+02  0.91540691296E+02 0.  0.
        -11    1    3    3    0    0  0.19032616474E+02 -0.12933878655E+01 -0.30704074144E+02  0.36147662598E+02  0.51100000000E-03 0.  1.
         11    1    3    3    0    0 -0.19032616474E+02  0.12933878655E+01  0.55507118965E+02  0.58693727076E+02  0.51100000000E-03 0. -1.
<mgrwt>
<rscale>  0 0.91540691E+02</rscale>
<asrwt>0</asrwt>
<pdfrwt beam="2">  1        2 0.53875650E-02 0.91540691E+02</pdfrwt>
<pdfrwt beam="1">  1       -2 0.92034180E-02 0.91540691E+02</pdfrwt>
<totfact> 0.91080988E+04</totfact>
</mgrwt>
</event>
<event>
 5    1  0.2809073E+000  0.9249198E+02  0.7818608E-02  0.1296927E+00
         -2   -1    0    0    0  501 -0.00000000000E+00  0.00000000000E+00  0.68959810064E+01  0.68959814965E+01  0.26000000000E-02 0.  1.
          2   -1    0    0  501    0  0.00000000000E+00 -0.00000000000E+00 -0.31013596619E+03  0.31013596620E+03  0.26000000000E-02 0. -1.
         23    2    1    2    0    0  0.00000000000E+00  0.00000000000E+00 -0.30323998518E+03  0.31703194770E+03  0.92491984769E+02 0.  0.
        -11    1    3    3    0    0 -0.34065685642E+02 -0.21847125711E+02 -0.22833579595E+03  0.23189438017E+03  0.51100000000E-03 0. -1.
         11    1    3    3    0    0  0.34065685642E+02  0.21847125711E+02 -0.74904189232E+02  0.85137567529E+02  0.51100000000E-03 0.  1.
<mgrwt>
<rscale>  0 0.92491985E+02</rscale>
<asrwt>0</asrwt>
<pdfrwt beam="2">  1        2 0.47713215E-01 0.92491985E+02</pdfrwt>
<pdfrwt beam="1">  1       -2 0.10609204E-02 0.92491985E+02</pdfrwt>
<totfact> 0.17507001E+05</totfact>
</mgrwt>
</event>
<event>
 5    1  0.2809073E+000  0.9224243E+02  0.7818608E-02  0.1297510E+00
          2   -1    0    0  501    0  0.00000000000E+00  0.00000000000E+00  0.49739487190E+02  0.49739487258E+02  0.26000000000E-02 0. -1.
         -2   -1    0    0    0  501 -0.00000000000E+00 -0.00000000000E+00 -0.42766153874E+02  0.42766153953E+02  0.26000000000E-02 0.  1.
         23    2    1    2    0    0  0.00000000000E+00  0.00000000000E+00  0.69733333160E+01  0.92505641210E+02  0.92242432092E+02 0.  0.
        -11    1    3    3    0    0 -0.15235325810E+02 -0.43035174618E+02  0.10064740308E+02  0.46748694149E+02  0.51100000000E-03 0.  1.
         11    1    3    3    0    0  0.15235325810E+02  0.43035174618E+02 -0.30914069916E+01  0.45756947061E+02  0.51100000000E-03 0. -1.
<mgrwt>
<rscale>  0 0.92242432E+02</rscale>
<asrwt>0</asrwt>
<pdfrwt beam="1">  1        2 0.76522288E-02 0.92242432E+02</pdfrwt>
<pdfrwt beam="2">  1       -2 0.65794083E-02 0.92242432E+02</pdfrwt>
<totfact> 0.97640841E+04</totfact>
</mgrwt>
</event>
<event>
 5    1  0.2809073E+000  0.9081251E+02  0.7818608E-02  0.1300896E+00
          2   -1    0    0  501    0  0.00000000000E+00  0.00000000000E+00  0.46158000012E+01  0.46158007335E+01  0.26000000000E-02 0. -1.
         -2   -1    0    0    0  501 -0.00000000000E+00 -0.00000000000E+00 -0.44666747478E+03  0.44666747479E+03  0.26000000000E-02 0.  1.
         23    2    1    2    0    0  0.00000000000E+00  0.00000000000E+00 -0.44205167478E+03  0.45128327552E+03  0.90812507896E+02 0.  0.
        -11    1    3    3    0    0  0.22306174837E+02 -0.39425334301E+02 -0.20546482221E+03  0.21039894388E+03  0.51100000000E-03 0. -1.
         11    1    3    3    0    0 -0.22306174837E+02  0.39425334301E+02 -0.23658685257E+03  0.24088433164E+03  0.51100000000E-03 0.  1.
<mgrwt>
<rscale>  0 0.90812508E+02</rscale>
<asrwt>0</asrwt>
<pdfrwt beam="1">  1        2 0.71012348E-03 0.90812508E+02</pdfrwt>
<pdfrwt beam="2">  1       -2 0.68718039E-01 0.90812508E+02</pdfrwt>
<totfact> 0.39927287E+04</totfact>
</mgrwt>
</event>
<event>
 5    1  0.2809073E+000  0.9068860E+02  0.7818608E-02  0.1301193E+00
         -2   -1    0    0    0  501 -0.00000000000E+00  0.00000000000E+00  0.88631585620E+02  0.88631585659E+02  0.26000000000E-02 0. -1.
          2   -1    0    0  501    0  0.00000000000E+00 -0.00000000000E+00 -0.23198341023E+02  0.23198341169E+02  0.26000000000E-02 0.  1.
         23    2    1    2    0    0  0.00000000000E+00  0.00000000000E+00  0.65433244598E+02  0.11182992683E+03  0.90688604773E+02 0.  0.
        -11    1    3    3    0    0 -0.34267647751E+02  0.94222926238E+01 -0.20095432387E+01  0.35596201272E+02  0.51100000000E-03 0.  1.
         11    1    3    3    0    0  0.34267647751E+02 -0.94222926238E+01  0.67442787836E+02  0.76233725555E+02  0.51100000000E-03 0. -1.
<mgrwt>
<rscale>  0 0.90688605E+02</rscale>
<asrwt>0</asrwt>
<pdfrwt beam="2">  1        2 0.35689755E-02 0.90688605E+02</pdfrwt>
<pdfrwt beam="1">  1       -2 0.13635629E-01 0.90688605E+02</pdfrwt>
<totfact> 0.83770387E+04</totfact>
</mgrwt>
</event>
<event>
 5    1  0.2809073E+000  0.9120848E+02  0.7818608E-02  0.1299951E+00
         -2   -1    0    0    0  501 -0.00000000000E+00  0.00000000000E+00  0.20394045919E+02  0.20394046085E+02  0.26000000000E-02 0.  1.
          2   -1    0    0  501    0  0.00000000000E+00 -0.00000000000E+00 -0.10197813162E+03  0.10197813165E+03  0.26000000000E-02 0. -1.
         23    2    1    2    0    0  0.00000000000E+00  0.00000000000E+00 -0.81584085700E+02  0.12237217774E+03  0.91208480113E+02 0.  0.
        -11    1    3    3    0    0 -0.88149566038E+01 -0.26878424393E+02  0.72015752894E+01  0.29189310452E+02  0.51100000000E-03 0. -1.
         11    1    3    3    0    0  0.88149566038E+01  0.26878424393E+02 -0.88785660989E+02  0.93182867285E+02  0.51100000000E-03 0.  1.
<mgrwt>
<rscale>  0 0.91208480E+02</rscale>
<asrwt>0</asrwt>
<pdfrwt beam="2">  1        2 0.15688943E-01 0.91208480E+02</pdfrwt>
<pdfrwt beam="1">  1       -2 0.31375456E-02 0.91208480E+02</pdfrwt>
<totfact> 0.12329427E+05</totfact>
</mgrwt>
</event>
<event>
 5    1  0.2809073E+000  0.8432134E+02  0.7818608E-02  0.1317217E+00
         -2   -1    0    0    0  501 -0.00000000000E+00  0.00000000000E+00  0.79171009608E+01  0.79171013877E+01  0.26000000000E-02 0.  1.
          2   -1    0    0  501    0  0.00000000000E+00 -0.00000000000E+00 -0.22451676945E+03  0.22451676946E+03  0.26000000000E-02 0. -1.
         23    2    1    2    0    0  0.00000000000E+00  0.00000000000E+00 -0.21659966848E+03  0.23243387085E+03  0.84321337334E+02 0.  0.
        -11    1    3    3    0    0 -0.18169102495E+01 -0.37177970442E+02 -0.16287758979E+03  0.16707666475E+03  0.51100000000E-03 0. -1.
         11    1    3    3    0    0  0.18169102495E+01  0.37177970442E+02 -0.53722078697E+02  0.65357206097E+02  0.51100000000E-03 0.  1.
<mgrwt>
<rscale>  0 0.84321337E+02</rscale>
<asrwt>0</asrwt>
<pdfrwt beam="2">  1        2 0.34541037E-01 0.84321337E+02</pdfrwt>
<pdfrwt beam="1">  1       -2 0.12180157E-02 0.84321337E+02</pdfrwt>
<totfact> 0.19879561E+05</totfact>
</mgrwt>
</event>
<event>
 5    1  0.2809073E+000  0.8684744E+02  0.7818608E-02  0.1310671E+00
         -2   -1    0    0    0  501 -0.00000000000E+00  0.00000000000E+00  0.26403060183E+02  0.26403060311E+02  0.26000000000E-02 0.  1.
          2   -1    0    0  501    0  0.00000000000E+00 -0.00000000000E+00 -0.71416705809E+02  0.71416705857E+02  0.26000000000E-02 0. -1.
         23    2    1    2    0    0  0.00000000000E+00  0.00000000000E+00 -0.45013645626E+02  0.97819766168E+02  0.86847443029E+02 0.  0.
        -11    1    3    3    0    0 -0.29140179519E+02  0.32010626905E+02 -0.26374172633E+02  0.50689518439E+02  0.51100000000E-03 0.  1.
         11    1    3    3    0    0  0.29140179519E+02 -0.32010626905E+02 -0.18639472993E+02  0.47130247729E+02  0.51100000000E-03 0. -1.
<mgrwt>
<rscale>  0 0.86847443E+02</rscale>
<asrwt>0</asrwt>
<pdfrwt beam="2">  1        2 0.10987185E-01 0.86847443E+02</pdfrwt>
<pdfrwt beam="1">  1       -2 0.40620093E-02 0.86847443E+02</pdfrwt>
<totfact> 0.12735235E+05</totfact>
</mgrwt>
</event>
<event>
 5    1  0.2809073E+000  0.9151357E+02  0.7818608E-02  0.1299227E+00
          2   -1    0    0  501    0  0.00000000000E+00  0.00000000000E+00  0.16005168558E+03  0.16005168560E+03  0.26000000000E-02 0. -1.
         -2   -1    0    0    0  501 -0.00000000000E+00 -0.00000000000E+00 -0.13081296181E+02  0.13081296440E+02  0.26000000000E-02 0.  1.
         23    2    1    2    0    0  0.00000000000E+00  0.00000000000E+00  0.14697038940E+03  0.17313298204E+03  0.91513573367E+02 0.  0.
        -11    1    3    3    0    0  0.40450563008E+02  0.97538235068E+01  0.10949555839E+03  0.11713523137E+03  0.51100000000E-03 0.  1.
         11    1    3    3    0    0 -0.40450563008E+02 -0.97538235068E+01  0.37474831004E+02  0.55997750667E+02  0.51100000000E-03 0. -1.
<mgrwt>
<rscale>  0 0.91513573E+02</rscale>
<asrwt>0</asrwt>
<pdfrwt beam="1">  1        2 0.24623336E-01 0.91513573E+02</pdfrwt>
<pdfrwt beam="2">  1       -2 0.20125071E-02 0.91513573E+02</pdfrwt>
<totfact> 0.14153046E+05</totfact>
</mgrwt>
</event>
<event>
 5    1  0.2809073E+000  0.9075943E+02  0.7818608E-02  0.1301023E+00
          2   -1    0    0  501    0  0.00000000000E+00  0.00000000000E+00  0.33621302924E+03  0.33621302925E+03  0.26000000000E-02 0. -1.
         -2   -1    0    0    0  501 -0.00000000000E+00 -0.00000000000E+00 -0.61250410281E+01  0.61250415799E+01  0.26000000000E-02 0.  1.
         23    2    1    2    0    0  0.00000000000E+00  0.00000000000E+00  0.33008798821E+03  0.34233807083E+03  0.90759433547E+02 0.  0.
        -11    1    3    3    0    0 -0.42267860090E+02  0.15620125203E+02  0.14481633255E+03  0.15166519206E+03  0.51100000000E-03 0.  1.
         11    1    3    3    0    0  0.42267860090E+02 -0.15620125203E+02  0.18527165565E+03  0.19067287877E+03  0.51100000000E-03 0. -1.
<mgrwt>
<rscale>  0 0.90759434E+02</rscale>
<asrwt>0</asrwt>
<pdfrwt beam="1">  1        2 0.51725082E-01 0.90759434E+02</pdfrwt>
<pdfrwt beam="2">  1       -2 0.94231403E-03 0.90759434E+02</pdfrwt>
<totfact> 0.18971365E+05</totfact>
</mgrwt>
</event>
<event>
 5    1  0.2809073E+000  0.9213439E+02  0.7818608E-02  0.1297764E+00
         -2   -1    0    0    0  501 -0.00000000000E+00  0.00000000000E+00  0.93213338564E+01  0.93213342190E+01  0.26000000000E-02 0.  1.
          2   -1    0    0  501    0  0.00000000000E+00 -0.00000000000E+00 -0.22766983597E+03  0.22766983598E+03  0.26000000000E-02 0. -1.
         23    2    1    2    0    0  0.00000000000E+00  0.00000000000E+00 -0.21834850211E+03  0.23699117020E+03  0.92134393031E+02 0.  0.
        -11    1    3    3    0    0  0.37493661453E+02  0.17749569702E+01 -0.40477725981E+02  0.55203001932E+02  0.51100000000E-03 0.  1.
         11    1    3    3    0    0 -0.37493661453E+02 -0.17749569702E+01 -0.17787077613E+03  0.18178816827E+03  0.51100000000E-03 0. -1.
<mgrwt>
<rscale>  0 0.92134393E+02</rscale>
<asrwt>0</asrwt>
<pdfrwt beam="2">  1        2 0.35026125E-01 0.92134393E+02</pdfrwt>
<pdfrwt beam="1">  1       -2 0.14340516E-02 0.92134393E+02</pdfrwt>
<totfact> 0.15767622E+05</totfact>
</mgrwt>
</event>
<event>
 5    1  0.2809073E+000  0.9104247E+02  0.7818608E-02  0.1300347E+00
         -2   -1    0    0    0  501 -0.00000000000E+00  0.00000000000E+00  0.32323388614E+02  0.32323388719E+02  0.26000000000E-02 0.  1.
          2   -1    0    0  501    0  0.00000000000E+00 -0.00000000000E+00 -0.64107844610E+02  0.64107844663E+02  0.26000000000E-02 0. -1.
         23    2    1    2    0    0  0.00000000000E+00  0.00000000000E+00 -0.31784455996E+02  0.96431233382E+02  0.91042468818E+02 0.  0.
        -11    1    3    3    0    0 -0.41173790808E+02  0.17314596370E+02 -0.25193003206E+02  0.51281221785E+02  0.51100000000E-03 0. -1.
         11    1    3    3    0    0  0.41173790808E+02 -0.17314596370E+02 -0.65914527897E+01  0.45150011596E+02  0.51100000000E-03 0.  1.
<mgrwt>
<rscale>  0 0.91042469E+02</rscale>
<asrwt>0</asrwt>
<pdfrwt beam="2">  1        2 0.98627453E-02 0.91042469E+02</pdfrwt>
<pdfrwt beam="1">  1       -2 0.49728290E-02 0.91042469E+02</pdfrwt>
<totfact> 0.10843184E+05</totfact>
</mgrwt>
</event>
<event>
 5    1  0.2809073E+000  0.9550498E+02  0.7818608E-02  0.1290043E+00
          2   -1    0    0  501    0  0.00000000000E+00  0.00000000000E+00  0.73123315636E+02  0.73123315682E+02  0.26000000000E-02 0. -1.
         -2   -1    0    0    0  501 -0.00000000000E+00 -0.00000000000E+00 -0.31184310892E+02  0.31184311001E+02  0.26000000000E-02 0.  1.
         23    2    1    2    0    0  0.00000000000E+00  0.00000000000E+00  0.41939004744E+02  0.10430762668E+03  0.95504978223E+02 0.  0.
        -11    1    3    3    0    0 -0.76604917554E+01  0.35313437512E+02 -0.13126102806E+02  0.38444981181E+02  0.51100000000E-03 0.  1.
         11    1    3    3    0    0  0.76604917554E+01 -0.35313437512E+02  0.55065107550E+02  0.65862645503E+02  0.51100000000E-03 0. -1.
<mgrwt>
<rscale>  0 0.95504978E+02</rscale>
<asrwt>0</asrwt>
<pdfrwt beam="1">  1        2 0.11249741E-01 0.95504978E+02</pdfrwt>
<pdfrwt beam="2">  1       -2 0.47975863E-02 0.95504978E+02</pdfrwt>
<totfact> 0.98314529E+04</totfact>
</mgrwt>
</event>
<event>
 5    1  0.2809073E+000  0.9346203E+02  0.7818608E-02  0.1294678E+00
         -2   -1    0    0    0  501 -0.00000000000E+00  0.00000000000E+00  0.16616210787E+03  0.16616210789E+03  0.26000000000E-02 0. -1.
          2   -1    0    0  501    0  0.00000000000E+00 -0.00000000000E+00 -0.13142512733E+02  0.13142512990E+02  0.26000000000E-02 0.  1.
         23    2    1    2    0    0  0.00000000000E+00  0.00000000000E+00  0.15301959514E+03  0.17930462088E+03  0.93462027439E+02 0.  0.
        -11    1    3    3    0    0  0.14313088855E+02 -0.40411413857E+02  0.11218729413E+03  0.12009969129E+03  0.51100000000E-03 0. -1.
         11    1    3    3    0    0 -0.14313088855E+02  0.40411413857E+02  0.40832301011E+02  0.59204929597E+02  0.51100000000E-03 0.  1.
<mgrwt>
<rscale>  0 0.93462027E+02</rscale>
<asrwt>0</asrwt>
<pdfrwt beam="2">  1        2 0.20219249E-02 0.93462027E+02</pdfrwt>
<pdfrwt beam="1">  1       -2 0.25563403E-01 0.93462027E+02</pdfrwt>
<totfact> 0.63126560E+04</totfact>
</mgrwt>
</event>
<event>
 5    1  0.2809073E+000  0.9047066E+02  0.7818608E-02  0.1301716E+00
         -2   -1    0    0    0  501 -0.00000000000E+00  0.00000000000E+00  0.10431457385E+02  0.10431457709E+02  0.26000000000E-02 0.  1.
          2   -1    0    0  501    0  0.00000000000E+00 -0.00000000000E+00 -0.19616003878E+03  0.19616003880E+03  0.26000000000E-02 0. -1.
         23    2    1    2    0    0  0.00000000000E+00  0.00000000000E+00 -0.18572858140E+03  0.20659149651E+03  0.90470660892E+02 0.  0.
        -11    1    3    3    0    0  0.44009264789E+02 -0.94663850084E+00 -0.69075805282E+02  0.81909574455E+02  0.51100000000E-03 0. -1.
         11    1    3    3    0    0 -0.44009264789E+02  0.94663850084E+00 -0.11665277612E+03  0.12468192206E+03  0.51100000000E-03 0.  1.
<mgrwt>
<rscale>  0 0.90470661E+02</rscale>
<asrwt>0</asrwt>
<pdfrwt beam="2">  1        2 0.30178465E-01 0.90470661E+02</pdfrwt>
<pdfrwt beam="1">  1       -2 0.16048398E-02 0.90470661E+02</pdfrwt>
<totfact> 0.15684852E+05</totfact>
</mgrwt>
</event>
<event>
 5    1  0.2809073E+000  0.8833439E+02  0.7818608E-02  0.1306936E+00
         -2   -1    0    0    0  501 -0.00000000000E+00  0.00000000000E+00  0.12479458784E+03  0.12479458786E+03  0.26000000000E-02 0.  1.
          2   -1    0    0  501    0  0.00000000000E+00 -0.00000000000E+00 -0.15631617908E+02  0.15631618124E+02  0.26000000000E-02 0. -1.
         23    2    1    2    0    0  0.00000000000E+00  0.00000000000E+00  0.10916296993E+03  0.14042620599E+03  0.88334394913E+02 0.  0.
        -11    1    3    3    0    0  0.30503490139E+02  0.18651328295E+02  0.13358993730E+02  0.38168018963E+02  0.51100000000E-03 0.  1.
         11    1    3    3    0    0 -0.30503490139E+02 -0.18651328295E+02  0.95803976197E+02  0.10225818702E+03  0.51100000000E-03 0. -1.
<mgrwt>
<rscale>  0 0.88334395E+02</rscale>
<asrwt>0</asrwt>
<pdfrwt beam="2">  1        2 0.24048644E-02 0.88334395E+02</pdfrwt>
<pdfrwt beam="1">  1       -2 0.19199166E-01 0.88334395E+02</pdfrwt>
<totfact> 0.80621580E+04</totfact>
</mgrwt>
</event>
<event>
 5    1  0.2809073E+000  0.9071025E+02  0.7818608E-02  0.1301141E+00
         -2   -1    0    0    0  501 -0.00000000000E+00  0.00000000000E+00  0.94212793742E+01  0.94212797329E+01  0.26000000000E-02 0.  1.
          2   -1    0    0  501    0  0.00000000000E+00 -0.00000000000E+00 -0.21834481129E+03  0.21834481131E+03  0.26000000000E-02 0. -1.
         23    2    1    2    0    0  0.00000000000E+00  0.00000000000E+00 -0.20892353192E+03  0.22776609104E+03  0.90710253218E+02 0.  0.
        -11    1    3    3    0    0 -0.11964289880E+02 -0.36610711863E+02 -0.44325438465E+02  0.58721656574E+02  0.51100000000E-03 0.  1.
         11    1    3    3    0    0  0.11964289880E+02  0.36610711863E+02 -0.16459809346E+03  0.16904443447E+03  0.51100000000E-03 0. -1.
<mgrwt>
<rscale>  0 0.90710253E+02</rscale>
<asrwt>0</asrwt>
<pdfrwt beam="2">  1        2 0.33591506E-01 0.90710253E+02</pdfrwt>
<pdfrwt beam="1">  1       -2 0.14494278E-02 0.90710253E+02</pdfrwt>
<totfact> 0.16191330E+05</totfact>
</mgrwt>
</event>
<event>
 5    1  0.2809073E+000  0.9018378E+02  0.7818608E-02  0.1302407E+00
          2   -1    0    0  501    0  0.00000000000E+00  0.00000000000E+00  0.35199465281E+03  0.35199465282E+03  0.26000000000E-02 0. -1.
         -2   -1    0    0    0  501 -0.00000000000E+00 -0.00000000000E+00 -0.57764468106E+01  0.57764473957E+01  0.26000000000E-02 0.  1.
         23    2    1    2    0    0  0.00000000000E+00  0.00000000000E+00  0.34621820600E+03  0.35777110022E+03  0.90183778940E+02 0.  0.
        -11    1    3    3    0    0 -0.25097664695E+02 -0.36201109900E+02  0.21133905133E+03  0.21588100368E+03  0.51100000000E-03 0.  1.
         11    1    3    3    0    0  0.25097664695E+02  0.36201109900E+02  0.13487915467E+03  0.14189009654E+03  0.51100000000E-03 0. -1.
<mgrwt>
<rscale>  0 0.90183779E+02</rscale>
<asrwt>0</asrwt>
<pdfrwt beam="1">  1        2 0.54153013E-01 0.90183779E+02</pdfrwt>
<pdfrwt beam="2">  1       -2 0.88868435E-03 0.90183779E+02</pdfrwt>
<totfact> 0.19622114E+05</totfact>
</mgrwt>
</event>
<event>
 5    1  0.2809073E+000  0.9190271E+02  0.7818608E-02  0.1298308E+00
          2   -1    0    0  501    0  0.00000000000E+00  0.00000000000E+00  0.31381098315E+03  0.31381098316E+03  0.26000000000E-02 0. -1.
         -2   -1    0    0    0  501 -0.00000000000E+00 -0.00000000000E+00 -0.67286588234E+01  0.67286593258E+01  0.26000000000E-02 0.  1.
         23    2    1    2    0    0  0.00000000000E+00  0.00000000000E+00  0.30708232433E+03  0.32053964249E+03  0.91902712101E+02 0.  0.
        -11    1    3    3    0    0 -0.43876982722E+02 -0.66864645554E+01  0.11203342508E+03  0.12050471674E+03  0.51100000000E-03 0.  1.
         11    1    3    3    0    0  0.43876982722E+02  0.66864645554E+01  0.19504889925E+03  0.20003492575E+03  0.51100000000E-03 0. -1.
<mgrwt>
<rscale>  0 0.91902712E+02</rscale>
<asrwt>0</asrwt>
<pdfrwt beam="1">  1        2 0.48278598E-01 0.91902712E+02</pdfrwt>
<pdfrwt beam="2">  1       -2 0.10351786E-02 0.91902712E+02</pdfrwt>
<totfact> 0.17886645E+05</totfact>
</mgrwt>
</event>
<event>
 5    1  0.2809073E+000  0.6860506E+02  0.7818608E-02  0.1364902E+00
          2   -1    0    0  501    0  0.00000000000E+00  0.00000000000E+00  0.27685536347E+02  0.27685536469E+02  0.26000000000E-02 0.  1.
         -2   -1    0    0    0  501 -0.00000000000E+00 -0.00000000000E+00 -0.42501021142E+02  0.42501021221E+02  0.26000000000E-02 0. -1.
         23    2    1    2    0    0  0.00000000000E+00  0.00000000000E+00 -0.14815484795E+02  0.70186557690E+02  0.68605060241E+02 0.  0.
        -11    1    3    3    0    0 -0.19164216177E+02 -0.21588945953E+02  0.11548114674E+02  0.31091939821E+02  0.51100000000E-03 0.  1.
         11    1    3    3    0    0  0.19164216177E+02  0.21588945953E+02 -0.26363599469E+02  0.39094617869E+02  0.51100000000E-03 0. -1.
<mgrwt>
<rscale>  0 0.68605060E+02</rscale>
<asrwt>0</asrwt>
<pdfrwt beam="1">  1        2 0.42593133E-02 0.68605060E+02</pdfrwt>
<pdfrwt beam="2">  1       -2 0.65386187E-02 0.68605060E+02</pdfrwt>
<totfact> 0.19681032E+05</totfact>
</mgrwt>
</event>
<event>
 5    1  0.2809073E+000  0.9399647E+02  0.7818608E-02  0.1293452E+00
         -2   -1    0    0    0  501 -0.00000000000E+00  0.00000000000E+00  0.15765974771E+02  0.15765974986E+02  0.26000000000E-02 0.  1.
          2   -1    0    0  501    0  0.00000000000E+00 -0.00000000000E+00 -0.14010134071E+03  0.14010134073E+03  0.26000000000E-02 0. -1.
         23    2    1    2    0    0  0.00000000000E+00  0.00000000000E+00 -0.12433536593E+03  0.15586731572E+03  0.93996472734E+02 0.  0.
        -11    1    3    3    0    0  0.38657415504E+02 -0.79297868328E+01 -0.10449489689E+03  0.11169807863E+03  0.51100000000E-03 0. -1.
         11    1    3    3    0    0 -0.38657415504E+02  0.79297868328E+01 -0.19840469041E+02  0.44169237086E+02  0.51100000000E-03 0.  1.
<mgrwt>
<rscale>  0 0.93996473E+02</rscale>
<asrwt>0</asrwt>
<pdfrwt beam="2">  1        2 0.21554052E-01 0.93996473E+02</pdfrwt>
<pdfrwt beam="1">  1       -2 0.24255347E-02 0.93996473E+02</pdfrwt>
<totfact> 0.12573523E+05</totfact>
</mgrwt>
</event>
<event>
 5    1  0.2809073E+000  0.9234762E+02  0.7818608E-02  0.1297264E+00
          2   -1    0    0  501    0  0.00000000000E+00  0.00000000000E+00  0.34766114335E+02  0.34766114432E+02  0.26000000000E-02 0. -1.
         -2   -1    0    0    0  501 -0.00000000000E+00 -0.00000000000E+00 -0.61324670552E+02  0.61324670607E+02  0.26000000000E-02 0.  1.
         23    2    1    2    0    0  0.00000000000E+00  0.00000000000E+00 -0.26558556217E+02  0.96090785039E+02  0.92347615351E+02 0.  0.
        -11    1    3    3    0    0 -0.10336732370E+02 -0.30508048850E+02 -0.47702406392E+02  0.57559609594E+02  0.51100000000E-03 0.  1.
         11    1    3    3    0    0  0.10336732370E+02  0.30508048850E+02  0.21143850175E+02  0.38531175445E+02  0.51100000000E-03 0. -1.
<mgrwt>
<rscale>  0 0.92347615E+02</rscale>
<asrwt>0</asrwt>
<pdfrwt beam="1">  1        2 0.53486330E-02 0.92347615E+02</pdfrwt>
<pdfrwt beam="2">  1       -2 0.94345647E-02 0.92347615E+02</pdfrwt>
<totfact> 0.88593642E+04</totfact>
</mgrwt>
</event>
<event>
 5    1  0.2809073E+000  0.9206820E+02  0.7818608E-02  0.1297919E+00
          2   -1    0    0  501    0  0.00000000000E+00  0.00000000000E+00  0.49946898521E+02  0.49946898589E+02  0.26000000000E-02 0. -1.
         -2   -1    0    0    0  501 -0.00000000000E+00 -0.00000000000E+00 -0.42427828351E+02  0.42427828431E+02  0.26000000000E-02 0.  1.
         23    2    1    2    0    0  0.00000000000E+00  0.00000000000E+00  0.75190701699E+01  0.92374727019E+02  0.92068201762E+02 0.  0.
        -11    1    3    3    0    0 -0.90607948384E+01 -0.27876494009E+02 -0.31854296577E+02  0.43288487292E+02  0.51100000000E-03 0.  1.
         11    1    3    3    0    0  0.90607948384E+01  0.27876494009E+02  0.39373366746E+02  0.49086239727E+02  0.51100000000E-03 0. -1.
<mgrwt>
<rscale>  0 0.92068202E+02</rscale>
<asrwt>0</asrwt>
<pdfrwt beam="1">  1        2 0.76841382E-02 0.92068202E+02</pdfrwt>
<pdfrwt beam="2">  1       -2 0.65273582E-02 0.92068202E+02</pdfrwt>
<totfact> 0.98278163E+04</totfact>
</mgrwt>
</event>
<event>
 5    1  0.2809073E+000  0.9017976E+02  0.7818608E-02  0.1302417E+00
          2   -1    0    0  501    0  0.00000000000E+00  0.00000000000E+00  0.15538991297E+02  0.15538991514E+02  0.26000000000E-02 0. -1.
         -2   -1    0    0    0  501 -0.00000000000E+00 -0.00000000000E+00 -0.13083844306E+03  0.13083844309E+03  0.26000000000E-02 0.  1.
         23    2    1    2    0    0  0.00000000000E+00  0.00000000000E+00 -0.11529945176E+03  0.14637743460E+03  0.90179763712E+02 0.  0.
        -11    1    3    3    0    0  0.18078273095E+02 -0.34517846028E+02 -0.94477955797E+02  0.10219779736E+03  0.51100000000E-03 0.  1.
         11    1    3    3    0    0 -0.18078273095E+02  0.34517846028E+02 -0.20821495968E+02  0.44179637245E+02  0.51100000000E-03 0. -1.
<mgrwt>
<rscale>  0 0.90179764E+02</rscale>
<asrwt>0</asrwt>
<pdfrwt beam="1">  1        2 0.23906141E-02 0.90179764E+02</pdfrwt>
<pdfrwt beam="2">  1       -2 0.20128991E-01 0.90179764E+02</pdfrwt>
<totfact> 0.75345060E+04</totfact>
</mgrwt>
</event>
<event>
 5    1  0.2809073E+000  0.9306121E+02  0.7818608E-02  0.1295603E+00
          2   -1    0    0  501    0  0.00000000000E+00  0.00000000000E+00  0.47318212886E+02  0.47318212958E+02  0.26000000000E-02 0. -1.
         -2   -1    0    0    0  501 -0.00000000000E+00 -0.00000000000E+00 -0.45756109337E+02  0.45756109411E+02  0.26000000000E-02 0.  1.
         23    2    1    2    0    0  0.00000000000E+00  0.00000000000E+00  0.15621035489E+01  0.93074322369E+02  0.93061212742E+02 0.  0.
        -11    1    3    3    0    0 -0.10809255827E+02  0.35799345340E+02 -0.26911550259E+02  0.46072385177E+02  0.51100000000E-03 0.  1.
         11    1    3    3    0    0  0.10809255827E+02 -0.35799345340E+02  0.28473653808E+02  0.47001937192E+02  0.51100000000E-03 0. -1.
<mgrwt>
<rscale>  0 0.93061213E+02</rscale>
<asrwt>0</asrwt>
<pdfrwt beam="1">  1        2 0.72797251E-02 0.93061213E+02</pdfrwt>
<pdfrwt beam="2">  1       -2 0.70394015E-02 0.93061213E+02</pdfrwt>
<totfact> 0.93950894E+04</totfact>
</mgrwt>
</event>
<event>
 5    1  0.2809073E+000  0.9552741E+02  0.7818608E-02  0.1289993E+00
         -2   -1    0    0    0  501 -0.00000000000E+00  0.00000000000E+00  0.63983155000E+02  0.63983155053E+02  0.26000000000E-02 0.  1.
          2   -1    0    0  501    0  0.00000000000E+00 -0.00000000000E+00 -0.35655813874E+02  0.35655813969E+02  0.26000000000E-02 0. -1.
         23    2    1    2    0    0  0.00000000000E+00  0.00000000000E+00  0.28327341126E+02  0.99638969022E+02  0.95527409116E+02 0.  0.
        -11    1    3    3    0    0 -0.17101607814E+02  0.38842518221E+02  0.37019479375E+02  0.56317386881E+02  0.51100000000E-03 0.  1.
         11    1    3    3    0    0  0.17101607814E+02 -0.38842518221E+02 -0.86921382493E+01  0.43321582141E+02  0.51100000000E-03 0. -1.
<mgrwt>
<rscale>  0 0.95527409E+02</rscale>
<asrwt>0</asrwt>
<pdfrwt beam="2">  1        2 0.54855099E-02 0.95527409E+02</pdfrwt>
<pdfrwt beam="1">  1       -2 0.98435623E-02 0.95527409E+02</pdfrwt>
<totfact> 0.80720543E+04</totfact>
</mgrwt>
</event>
<event>
 5    1  0.2809073E+000  0.9221999E+02  0.7818608E-02  0.1297563E+00
         -2   -1    0    0    0  501 -0.00000000000E+00  0.00000000000E+00  0.26328386545E+02  0.26328386674E+02  0.26000000000E-02 0.  1.
          2   -1    0    0  501    0  0.00000000000E+00 -0.00000000000E+00 -0.80754346939E+02  0.80754346981E+02  0.26000000000E-02 0. -1.
         23    2    1    2    0    0  0.00000000000E+00  0.00000000000E+00 -0.54425960394E+02  0.10708273365E+03  0.92219990686E+02 0.  0.
        -11    1    3    3    0    0 -0.41185297659E+02  0.32677748000E+01 -0.34381325815E+01  0.41457542755E+02  0.51100000000E-03 0.  1.
         11    1    3    3    0    0  0.41185297659E+02 -0.32677748000E+01 -0.50987827812E+02  0.65625190900E+02  0.51100000000E-03 0. -1.
<mgrwt>
<rscale>  0 0.92219991E+02</rscale>
<asrwt>0</asrwt>
<pdfrwt beam="2">  1        2 0.12423746E-01 0.92219991E+02</pdfrwt>
<pdfrwt beam="1">  1       -2 0.40505211E-02 0.92219991E+02</pdfrwt>
<totfact> 0.11157566E+05</totfact>
</mgrwt>
</event>
<event>
 5    1  0.2809073E+000  0.9150244E+02  0.7818608E-02  0.1299254E+00
         -2   -1    0    0    0  501 -0.00000000000E+00  0.00000000000E+00  0.18303764820E+02  0.18303765005E+02  0.26000000000E-02 0.  1.
          2   -1    0    0  501    0  0.00000000000E+00 -0.00000000000E+00 -0.11435757677E+03  0.11435757680E+03  0.26000000000E-02 0. -1.
         23    2    1    2    0    0  0.00000000000E+00  0.00000000000E+00 -0.96053811946E+02  0.13266134180E+03  0.91502441601E+02 0.  0.
        -11    1    3    3    0    0 -0.39576691275E+02  0.76383078776E+01 -0.16645391407E+02  0.43608798365E+02  0.51100000000E-03 0.  1.
         11    1    3    3    0    0  0.39576691275E+02 -0.76383078776E+01 -0.79408420539E+02  0.89052543435E+02  0.51100000000E-03 0. -1.
<mgrwt>
<rscale>  0 0.91502442E+02</rscale>
<asrwt>0</asrwt>
<pdfrwt beam="2">  1        2 0.17593473E-01 0.91502442E+02</pdfrwt>
<pdfrwt beam="1">  1       -2 0.28159639E-02 0.91502442E+02</pdfrwt>
<totfact> 0.12664595E+05</totfact>
</mgrwt>
</event>
<event>
 5    1  0.2809073E+000  0.9168986E+02  0.7818608E-02  0.1298810E+00
         -2   -1    0    0    0  501 -0.00000000000E+00  0.00000000000E+00  0.60663628911E+02  0.60663628966E+02  0.26000000000E-02 0. -1.
          2   -1    0    0  501    0  0.00000000000E+00 -0.00000000000E+00 -0.34646089219E+02  0.34646089317E+02  0.26000000000E-02 0.  1.
         23    2    1    2    0    0  0.00000000000E+00  0.00000000000E+00  0.26017539691E+02  0.95309718283E+02  0.91689857823E+02 0.  0.
        -11    1    3    3    0    0  0.26509402506E+02  0.16445653315E+02 -0.21911388701E+02  0.38122393540E+02  0.51100000000E-03 0. -1.
         11    1    3    3    0    0 -0.26509402506E+02 -0.16445653315E+02  0.47928928392E+02  0.57187324743E+02  0.51100000000E-03 0.  1.
<mgrwt>
<rscale>  0 0.91689858E+02</rscale>
<asrwt>0</asrwt>
<pdfrwt beam="2">  1        2 0.53301677E-02 0.91689858E+02</pdfrwt>
<pdfrwt beam="1">  1       -2 0.93328658E-02 0.91689858E+02</pdfrwt>
<totfact> 0.90392192E+04</totfact>
</mgrwt>
</event>
<event>
 5    1  0.2809073E+000  0.9137744E+02  0.7818608E-02  0.1299550E+00
         -2   -1    0    0    0  501 -0.00000000000E+00  0.00000000000E+00  0.97116838192E+02  0.97116838227E+02  0.26000000000E-02 0.  1.
          2   -1    0    0  501    0  0.00000000000E+00 -0.00000000000E+00 -0.21494308509E+02  0.21494308667E+02  0.26000000000E-02 0. -1.
         23    2    1    2    0    0  0.00000000000E+00  0.00000000000E+00  0.75622529683E+02  0.11861114689E+03  0.91377443452E+02 0.  0.
        -11    1    3    3    0    0 -0.11027519385E+02  0.30197062720E+02 -0.43297366702E+01  0.32437869853E+02  0.51100000000E-03 0. -1.
         11    1    3    3    0    0  0.11027519385E+02 -0.30197062720E+02  0.79952266353E+02  0.86173277041E+02  0.51100000000E-03 0.  1.
<mgrwt>
<rscale>  0 0.91377443E+02</rscale>
<asrwt>0</asrwt>
<pdfrwt beam="2">  1        2 0.33068167E-02 0.91377443E+02</pdfrwt>
<pdfrwt beam="1">  1       -2 0.14941052E-01 0.91377443E+02</pdfrwt>
<totfact> 0.80063144E+04</totfact>
</mgrwt>
</event>
<event>
 5    1  0.2809073E+000  0.9164270E+02  0.7818608E-02  0.1298922E+00
         -2   -1    0    0    0  501 -0.00000000000E+00  0.00000000000E+00  0.16272412801E+02  0.16272413009E+02  0.26000000000E-02 0.  1.
          2   -1    0    0  501    0  0.00000000000E+00 -0.00000000000E+00 -0.12902795281E+03  0.12902795284E+03  0.26000000000E-02 0. -1.
         23    2    1    2    0    0  0.00000000000E+00  0.00000000000E+00 -0.11275554001E+03  0.14530036585E+03  0.91642700267E+02 0.  0.
        -11    1    3    3    0    0  0.37536020861E+01  0.23542539789E+02  0.56652100772E+01  0.24503781623E+02  0.51100000000E-03 0.  1.
         11    1    3    3    0    0 -0.37536020861E+01 -0.23542539789E+02 -0.11842075009E+03  0.12079658423E+03  0.51100000000E-03 0. -1.
<mgrwt>
<rscale>  0 0.91642700E+02</rscale>
<asrwt>0</asrwt>
<pdfrwt beam="2">  1        2 0.19850454E-01 0.91642700E+02</pdfrwt>
<pdfrwt beam="1">  1       -2 0.25034482E-02 0.91642700E+02</pdfrwt>
<totfact> 0.13111576E+05</totfact>
</mgrwt>
</event>
<event>
 5    1  0.2809073E+000  0.8401256E+02  0.7818608E-02  0.1318035E+00
          2   -1    0    0  501    0  0.00000000000E+00  0.00000000000E+00  0.14861300927E+03  0.14861300930E+03  0.26000000000E-02 0. -1.
         -2   -1    0    0    0  501 -0.00000000000E+00 -0.00000000000E+00 -0.11873304864E+02  0.11873305148E+02  0.26000000000E-02 0.  1.
         23    2    1    2    0    0  0.00000000000E+00  0.00000000000E+00  0.13673970441E+03  0.16048631445E+03  0.84012560740E+02 0.  0.
        -11    1    3    3    0    0  0.12744507416E+02 -0.26462115453E+02  0.12573706117E+03  0.12912193685E+03  0.51100000000E-03 0. -1.
         11    1    3    3    0    0 -0.12744507416E+02  0.26462115453E+02  0.11002643241E+02  0.31364377597E+02  0.51100000000E-03 0.  1.
<mgrwt>
<rscale>  0 0.84012561E+02</rscale>
<asrwt>0</asrwt>
<pdfrwt beam="1">  1        2 0.22863540E-01 0.84012561E+02</pdfrwt>
<pdfrwt beam="2">  1       -2 0.18266623E-02 0.84012561E+02</pdfrwt>
<totfact> 0.17381323E+05</totfact>
</mgrwt>
</event>
<event>
 5    1  0.2809073E+000  0.9394791E+02  0.7818608E-02  0.1293563E+00
         -2   -1    0    0    0  501 -0.00000000000E+00  0.00000000000E+00  0.53480048079E+01  0.53480054399E+01  0.26000000000E-02 0.  1.
          2   -1    0    0  501    0  0.00000000000E+00 -0.00000000000E+00 -0.41259352421E+03  0.41259352422E+03  0.26000000000E-02 0. -1.
         23    2    1    2    0    0  0.00000000000E+00  0.00000000000E+00 -0.40724551940E+03  0.41794152966E+03  0.93947906522E+02 0.  0.
        -11    1    3    3    0    0 -0.42104632651E+02 -0.20577292029E+02 -0.18932655695E+03  0.19504043223E+03  0.51100000000E-03 0.  1.
         11    1    3    3    0    0  0.42104632651E+02  0.20577292029E+02 -0.21791896245E+03  0.22290109743E+03  0.51100000000E-03 0. -1.
<mgrwt>
<rscale>  0 0.93947907E+02</rscale>
<asrwt>0</asrwt>
<pdfrwt beam="2">  1        2 0.63475902E-01 0.93947907E+02</pdfrwt>
<pdfrwt beam="1">  1       -2 0.82277034E-03 0.93947907E+02</pdfrwt>
<totfact> 0.18639314E+05</totfact>
</mgrwt>
</event>
<event>
 5    1  0.2809073E+000  0.8770042E+02  0.7818608E-02  0.1308518E+00
          2   -1    0    0  501    0  0.00000000000E+00  0.00000000000E+00  0.65650934654E+02  0.65650934705E+02  0.26000000000E-02 0. -1.
         -2   -1    0    0    0  501 -0.00000000000E+00 -0.00000000000E+00 -0.29288855485E+02  0.29288855600E+02  0.26000000000E-02 0.  1.
         23    2    1    2    0    0  0.00000000000E+00  0.00000000000E+00  0.36362079169E+02  0.94939790305E+02  0.87700416086E+02 0.  0.
        -11    1    3    3    0    0  0.26247276031E+02  0.31959453321E+01  0.56050173119E+02  0.61973828932E+02  0.51100000000E-03 0. -1.
         11    1    3    3    0    0 -0.26247276031E+02 -0.31959453321E+01 -0.19688093950E+02  0.32965961373E+02  0.51100000000E-03 0.  1.
<mgrwt>
<rscale>  0 0.87700416E+02</rscale>
<asrwt>0</asrwt>
<pdfrwt beam="1">  1        2 0.10100144E-01 0.87700416E+02</pdfrwt>
<pdfrwt beam="2">  1       -2 0.45059779E-02 0.87700416E+02</pdfrwt>
<totfact> 0.12116061E+05</totfact>
</mgrwt>
</event>
<event>
 5    1  0.2809073E+000  0.9405948E+02  0.7818608E-02  0.1293309E+00
         -2   -1    0    0    0  501 -0.00000000000E+00  0.00000000000E+00  0.44972617251E+02  0.44972617327E+02  0.26000000000E-02 0.  1.
          2   -1    0    0  501    0  0.00000000000E+00 -0.00000000000E+00 -0.49180954255E+02  0.49180954324E+02  0.26000000000E-02 0. -1.
         23    2    1    2    0    0  0.00000000000E+00  0.00000000000E+00 -0.42083370036E+01  0.94153571650E+02  0.94059475622E+02 0.  0.
        -11    1    3    3    0    0 -0.31000507248E+02 -0.16490548506E+02  0.29213334467E+02  0.45677002426E+02  0.51100000000E-03 0.  1.
         11    1    3    3    0    0  0.31000507248E+02  0.16490548506E+02 -0.33421671470E+02  0.48476569225E+02  0.51100000000E-03 0. -1.
<mgrwt>
<rscale>  0 0.94059476E+02</rscale>
<asrwt>0</asrwt>
<pdfrwt beam="2">  1        2 0.75663007E-02 0.94059476E+02</pdfrwt>
<pdfrwt beam="1">  1       -2 0.69188642E-02 0.94059476E+02</pdfrwt>
<totfact> 0.92050554E+04</totfact>
</mgrwt>
</event>
<event>
 5    1  0.2809073E+000  0.9008102E+02  0.7818608E-02  0.1302656E+00
         -2   -1    0    0    0  501 -0.00000000000E+00  0.00000000000E+00  0.92540632460E+01  0.92540636113E+01  0.26000000000E-02 0.  1.
          2   -1    0    0  501    0  0.00000000000E+00 -0.00000000000E+00 -0.21921696848E+03  0.21921696849E+03  0.26000000000E-02 0. -1.
         23    2    1    2    0    0  0.00000000000E+00  0.00000000000E+00 -0.20996290523E+03  0.22847103210E+03  0.90081024292E+02 0.  0.
        -11    1    3    3    0    0 -0.12801114760E+02  0.43139727047E+02 -0.10988845393E+03  0.11874500788E+03  0.51100000000E-03 0.  1.
         11    1    3    3    0    0  0.12801114760E+02 -0.43139727047E+02 -0.10007445130E+03  0.10972602422E+03  0.51100000000E-03 0. -1.
<mgrwt>
<rscale>  0 0.90081024E+02</rscale>
<asrwt>0</asrwt>
<pdfrwt beam="2">  1        2 0.33725684E-01 0.90081024E+02</pdfrwt>
<pdfrwt beam="1">  1       -2 0.14237022E-02 0.90081024E+02</pdfrwt>
<totfact> 0.16520459E+05</totfact>
</mgrwt>
</event>
<event>
 5    1  0.2809073E+000  0.9016789E+02  0.7818608E-02  0.1302446E+00
         -2   -1    0    0    0  501 -0.00000000000E+00  0.00000000000E+00  0.33626851643E+02  0.33626851743E+02  0.26000000000E-02 0.  1.
          2   -1    0    0  501    0  0.00000000000E+00 -0.00000000000E+00 -0.60444612579E+02  0.60444612634E+02  0.26000000000E-02 0. -1.
         23    2    1    2    0    0  0.00000000000E+00  0.00000000000E+00 -0.26817760936E+02  0.94071464378E+02  0.90167888456E+02 0.  0.
        -11    1    3    3    0    0  0.37288216970E+02  0.11965225768E+02 -0.36713898031E+02  0.53679493862E+02  0.51100000000E-03 0. -1.
         11    1    3    3    0    0 -0.37288216970E+02 -0.11965225768E+02  0.98961370951E+01  0.40391970515E+02  0.51100000000E-03 0.  1.
<mgrwt>
<rscale>  0 0.90167888E+02</rscale>
<asrwt>0</asrwt>
<pdfrwt beam="2">  1        2 0.92991712E-02 0.90167888E+02</pdfrwt>
<pdfrwt beam="1">  1       -2 0.51733618E-02 0.90167888E+02</pdfrwt>
<totfact> 0.10966122E+05</totfact>
</mgrwt>
</event>
<event>
 5    1  0.2809073E+000  0.9028371E+02  0.7818608E-02  0.1302166E+00
         -2   -1    0    0    0  501 -0.00000000000E+00  0.00000000000E+00  0.25822743577E+02  0.25822743708E+02  0.26000000000E-02 0.  1.
          2   -1    0    0  501    0  0.00000000000E+00 -0.00000000000E+00 -0.78914421110E+02  0.78914421152E+02  0.26000000000E-02 0. -1.
         23    2    1    2    0    0  0.00000000000E+00  0.00000000000E+00 -0.53091677533E+02  0.10473716486E+03  0.90283705505E+02 0.  0.
        -11    1    3    3    0    0  0.30437481763E+02 -0.17402028292E+02 -0.59532301246E+02  0.69089548968E+02  0.51100000000E-03 0. -1.
         11    1    3    3    0    0 -0.30437481763E+02  0.17402028292E+02  0.64406237128E+01  0.35647615892E+02  0.51100000000E-03 0.  1.
<mgrwt>
<rscale>  0 0.90283706E+02</rscale>
<asrwt>0</asrwt>
<pdfrwt beam="2">  1        2 0.12140680E-01 0.90283706E+02</pdfrwt>
<pdfrwt beam="1">  1       -2 0.39727298E-02 0.90283706E+02</pdfrwt>
<totfact> 0.11757914E+05</totfact>
</mgrwt>
</event>
<event>
 5    1  0.2809073E+000  0.9098773E+02  0.7818608E-02  0.1300477E+00
          2   -1    0    0  501    0  0.00000000000E+00  0.00000000000E+00  0.79273842800E+02  0.79273842843E+02  0.26000000000E-02 0. -1.
         -2   -1    0    0    0  501 -0.00000000000E+00 -0.00000000000E+00 -0.26108129091E+02  0.26108129220E+02  0.26000000000E-02 0.  1.
         23    2    1    2    0    0  0.00000000000E+00  0.00000000000E+00  0.53165713709E+02  0.10538197206E+03  0.90987729512E+02 0.  0.
        -11    1    3    3    0    0 -0.42448997279E+02 -0.12812660260E+02  0.14793651459E+02  0.46743274989E+02  0.51100000000E-03 0.  1.
         11    1    3    3    0    0  0.42448997279E+02  0.12812660260E+02  0.38372062250E+02  0.58638697074E+02  0.51100000000E-03 0. -1.
<mgrwt>
<rscale>  0 0.90987730E+02</rscale>
<asrwt>0</asrwt>
<pdfrwt beam="1">  1        2 0.12195976E-01 0.90987730E+02</pdfrwt>
<pdfrwt beam="2">  1       -2 0.40166353E-02 0.90987730E+02</pdfrwt>
<totfact> 0.11522036E+05</totfact>
</mgrwt>
</event>
<event>
 5    1  0.2809073E+000  0.9052237E+02  0.7818608E-02  0.1301592E+00
         -2   -1    0    0    0  501 -0.00000000000E+00  0.00000000000E+00  0.58182726344E+02  0.58182726402E+02  0.26000000000E-02 0. -1.
          2   -1    0    0  501    0  0.00000000000E+00 -0.00000000000E+00 -0.35209329284E+02  0.35209329380E+02  0.26000000000E-02 0.  1.
         23    2    1    2    0    0  0.00000000000E+00  0.00000000000E+00  0.22973397059E+02  0.93392055783E+02  0.90522368014E+02 0.  0.
        -11    1    3    3    0    0 -0.29616329840E+02 -0.11708240683E+02 -0.21694411691E+02  0.38533847355E+02  0.51100000000E-03 0.  1.
         11    1    3    3    0    0  0.29616329840E+02  0.11708240683E+02  0.44667808750E+02  0.54858208428E+02  0.51100000000E-03 0. -1.
<mgrwt>
<rscale>  0 0.90522368E+02</rscale>
<asrwt>0</asrwt>
<pdfrwt beam="2">  1        2 0.54168199E-02 0.90522368E+02</pdfrwt>
<pdfrwt beam="1">  1       -2 0.89511886E-02 0.90522368E+02</pdfrwt>
<totfact> 0.94244845E+04</totfact>
</mgrwt>
</event>
<event>
 5    1  0.2809073E+000  0.9153078E+02  0.7818608E-02  0.1299186E+00
         -2   -1    0    0    0  501 -0.00000000000E+00  0.00000000000E+00  0.21715656084E+02  0.21715656240E+02  0.26000000000E-02 0.  1.
          2   -1    0    0  501    0  0.00000000000E+00 -0.00000000000E+00 -0.96449807969E+02  0.96449808004E+02  0.26000000000E-02 0. -1.
         23    2    1    2    0    0  0.00000000000E+00  0.00000000000E+00 -0.74734151885E+02  0.11816546424E+03  0.91530778878E+02 0.  0.
        -11    1    3    3    0    0  0.43559487285E+01 -0.24099618872E+02  0.12544484061E+02  0.27515995343E+02  0.51100000000E-03 0.  1.
         11    1    3    3    0    0 -0.43559487285E+01  0.24099618872E+02 -0.87278635947E+02  0.90649468901E+02  0.51100000000E-03 0. -1.
<mgrwt>
<rscale>  0 0.91530779E+02</rscale>
<asrwt>0</asrwt>
<pdfrwt beam="2">  1        2 0.14838432E-01 0.91530779E+02</pdfrwt>
<pdfrwt beam="1">  1       -2 0.33408702E-02 0.91530779E+02</pdfrwt>
<totfact> 0.12004923E+05</totfact>
</mgrwt>
</event>
<event>
 5    1  0.2809073E+000  0.9189152E+02  0.7818608E-02  0.1298335E+00
          2   -1    0    0  501    0  0.00000000000E+00  0.00000000000E+00  0.13047055331E+02  0.13047055590E+02  0.26000000000E-02 0. -1.
         -2   -1    0    0    0  501 -0.00000000000E+00 -0.00000000000E+00 -0.16179993213E+03  0.16179993215E+03  0.26000000000E-02 0.  1.
         23    2    1    2    0    0  0.00000000000E+00  0.00000000000E+00 -0.14875287680E+03  0.17484698774E+03  0.91891516290E+02 0.  0.
        -11    1    3    3    0    0 -0.45357046707E+02 -0.52186359545E+01 -0.64578298089E+02  0.79087625021E+02  0.51100000000E-03 0. -1.
         11    1    3    3    0    0  0.45357046707E+02  0.52186359545E+01 -0.84174578712E+02  0.95759362721E+02  0.51100000000E-03 0.  1.
<mgrwt>
<rscale>  0 0.91891516E+02</rscale>
<asrwt>0</asrwt>
<pdfrwt beam="1">  1        2 0.20072394E-02 0.91891516E+02</pdfrwt>
<pdfrwt beam="2">  1       -2 0.24892296E-01 0.91891516E+02</pdfrwt>
<totfact> 0.66582590E+04</totfact>
</mgrwt>
</event>
<event>
 5    1  0.2809073E+000  0.8761478E+02  0.7818608E-02  0.1308733E+00
         -2   -1    0    0    0  501 -0.00000000000E+00  0.00000000000E+00  0.43748720586E+01  0.43748728312E+01  0.26000000000E-02 0.  1.
          2   -1    0    0  501    0  0.00000000000E+00 -0.00000000000E+00 -0.43866132569E+03  0.43866132570E+03  0.26000000000E-02 0. -1.
         23    2    1    2    0    0  0.00000000000E+00  0.00000000000E+00 -0.43428645363E+03  0.44303619853E+03  0.87614778429E+02 0.  0.
        -11    1    3    3    0    0  0.56255001407E+01  0.42686606038E+02 -0.17628297688E+03  0.18146481897E+03  0.51100000000E-03 0.  1.
         11    1    3    3    0    0 -0.56255001407E+01 -0.42686606038E+02 -0.25800347675E+03  0.26157137956E+03  0.51100000000E-03 0. -1.
<mgrwt>
<rscale>  0 0.87614778E+02</rscale>
<asrwt>0</asrwt>
<pdfrwt beam="2">  1        2 0.67486323E-01 0.87614778E+02</pdfrwt>
<pdfrwt beam="1">  1       -2 0.67305765E-03 0.87614778E+02</pdfrwt>
<totfact> 0.22913928E+05</totfact>
</mgrwt>
</event>
<event>
 5    1  0.2809073E+000  0.9208916E+02  0.7818608E-02  0.1297870E+00
          2   -1    0    0  501    0  0.00000000000E+00  0.00000000000E+00  0.17095873432E+02  0.17095873630E+02  0.26000000000E-02 0. -1.
         -2   -1    0    0    0  501 -0.00000000000E+00 -0.00000000000E+00 -0.12401256907E+03  0.12401256910E+03  0.26000000000E-02 0.  1.
         23    2    1    2    0    0  0.00000000000E+00  0.00000000000E+00 -0.10691669564E+03  0.14110844273E+03  0.92089156815E+02 0.  0.
        -11    1    3    3    0    0 -0.20372481144E+02 -0.29775814529E+02 -0.96209420169E+01  0.37338982905E+02  0.51100000000E-03 0.  1.
         11    1    3    3    0    0  0.20372481144E+02  0.29775814529E+02 -0.97295753623E+02  0.10376945982E+03  0.51100000000E-03 0. -1.
<mgrwt>
<rscale>  0 0.92089157E+02</rscale>
<asrwt>0</asrwt>
<pdfrwt beam="1">  1        2 0.26301345E-02 0.92089157E+02</pdfrwt>
<pdfrwt beam="2">  1       -2 0.19078856E-01 0.92089157E+02</pdfrwt>
<totfact> 0.72765923E+04</totfact>
</mgrwt>
</event>
<event>
 5    1  0.2809073E+000  0.9103610E+02  0.7818608E-02  0.1300362E+00
          2   -1    0    0  501    0  0.00000000000E+00  0.00000000000E+00  0.31302995706E+02  0.31302995814E+02  0.26000000000E-02 0. -1.
         -2   -1    0    0    0  501 -0.00000000000E+00 -0.00000000000E+00 -0.66188326753E+02  0.66188326804E+02  0.26000000000E-02 0.  1.
         23    2    1    2    0    0  0.00000000000E+00  0.00000000000E+00 -0.34885331048E+02  0.97491322618E+02  0.91036100880E+02 0.  0.
        -11    1    3    3    0    0  0.27364533426E+02 -0.35065151207E+02 -0.27798432367E+02  0.52451266535E+02  0.51100000000E-03 0. -1.
         11    1    3    3    0    0 -0.27364533426E+02  0.35065151207E+02 -0.70868986810E+01  0.45040056083E+02  0.51100000000E-03 0.  1.
<mgrwt>
<rscale>  0 0.91036101E+02</rscale>
<asrwt>0</asrwt>
<pdfrwt beam="1">  1        2 0.48158455E-02 0.91036101E+02</pdfrwt>
<pdfrwt beam="2">  1       -2 0.10182819E-01 0.91036101E+02</pdfrwt>
<totfact> 0.89882059E+04</totfact>
</mgrwt>
</event>
<event>
 5    1  0.2809073E+000  0.9372962E+02  0.7818608E-02  0.1294063E+00
         -2   -1    0    0    0  501 -0.00000000000E+00  0.00000000000E+00  0.22341287175E+03  0.22341287176E+03  0.26000000000E-02 0.  1.
          2   -1    0    0  501    0  0.00000000000E+00 -0.00000000000E+00 -0.98307238897E+01  0.98307242336E+01  0.26000000000E-02 0. -1.
         23    2    1    2    0    0  0.00000000000E+00  0.00000000000E+00  0.21358214786E+03  0.23324359600E+03  0.93729617463E+02 0.  0.
        -11    1    3    3    0    0 -0.34991797801E+02 -0.23922274697E+02  0.15653620732E+03  0.16217362715E+03  0.51100000000E-03 0.  1.
         11    1    3    3    0    0  0.34991797801E+02  0.23922274697E+02  0.57045940539E+02  0.71069968849E+02  0.51100000000E-03 0. -1.
<mgrwt>
<rscale>  0 0.93729617E+02</rscale>
<asrwt>0</asrwt>
<pdfrwt beam="2">  1        2 0.15124192E-02 0.93729617E+02</pdfrwt>
<pdfrwt beam="1">  1       -2 0.34371209E-01 0.93729617E+02</pdfrwt>
<totfact> 0.55248531E+04</totfact>
</mgrwt>
</event>
<event>
 5    1  0.2809073E+000  0.8974844E+02  0.7818608E-02  0.1303462E+00
          2   -1    0    0  501    0  0.00000000000E+00  0.00000000000E+00  0.10367069520E+03  0.10367069523E+03  0.26000000000E-02 0. -1.
         -2   -1    0    0    0  501 -0.00000000000E+00 -0.00000000000E+00 -0.19423960215E+02  0.19423960389E+02  0.26000000000E-02 0.  1.
         23    2    1    2    0    0  0.00000000000E+00  0.00000000000E+00  0.84246734982E+02  0.12309465562E+03  0.89748436681E+02 0.  0.
        -11    1    3    3    0    0 -0.16377910051E+02  0.39440642664E+02  0.61023695647E+02  0.74482827967E+02  0.51100000000E-03 0. -1.
         11    1    3    3    0    0  0.16377910051E+02 -0.39440642664E+02  0.23223039335E+02  0.48611827651E+02  0.51100000000E-03 0.  1.
<mgrwt>
<rscale>  0 0.89748437E+02</rscale>
<asrwt>0</asrwt>
<pdfrwt beam="1">  1        2 0.15949338E-01 0.89748437E+02</pdfrwt>
<pdfrwt beam="2">  1       -2 0.29883016E-02 0.89748437E+02</pdfrwt>
<totfact> 0.12952951E+05</totfact>
</mgrwt>
</event>
<event>
 5    1  0.2809073E+000  0.9945890E+02  0.7818608E-02  0.1281438E+00
         -2   -1    0    0    0  501 -0.00000000000E+00  0.00000000000E+00  0.42598875427E+02  0.42598875506E+02  0.26000000000E-02 0.  1.
          2   -1    0    0  501    0  0.00000000000E+00 -0.00000000000E+00 -0.58053597740E+02  0.58053597799E+02  0.26000000000E-02 0. -1.
         23    2    1    2    0    0  0.00000000000E+00  0.00000000000E+00 -0.15454722314E+02  0.10065247330E+03  0.99458895734E+02 0.  0.
        -11    1    3    3    0    0  0.47531606569E+02 -0.90303236588E+01  0.39092220701E+01  0.48539493053E+02  0.51100000000E-03 0.  1.
         11    1    3    3    0    0 -0.47531606569E+02  0.90303236588E+01 -0.19363944384E+02  0.52112980252E+02  0.51100000000E-03 0. -1.
<mgrwt>
<rscale>  0 0.99458896E+02</rscale>
<asrwt>0</asrwt>
<pdfrwt beam="2">  1        2 0.89313227E-02 0.99458896E+02</pdfrwt>
<pdfrwt beam="1">  1       -2 0.65536732E-02 0.99458896E+02</pdfrwt>
<totfact> 0.82053650E+04</totfact>
</mgrwt>
</event>
<event>
 5    1  0.2809073E+000  0.9146136E+02  0.7818608E-02  0.1299351E+00
         -2   -1    0    0    0  501 -0.00000000000E+00  0.00000000000E+00  0.79459516109E+02  0.79459516151E+02  0.26000000000E-02 0.  1.
          2   -1    0    0  501    0  0.00000000000E+00 -0.00000000000E+00 -0.26318999812E+02  0.26318999941E+02  0.26000000000E-02 0. -1.
         23    2    1    2    0    0  0.00000000000E+00  0.00000000000E+00  0.53140516297E+02  0.10577851609E+03  0.91461357930E+02 0.  0.
        -11    1    3    3    0    0 -0.48583183518E+01 -0.34450979474E+02  0.60894728244E+02  0.70133024832E+02  0.51100000000E-03 0.  1.
         11    1    3    3    0    0  0.48583183518E+01  0.34450979474E+02 -0.77542119474E+01  0.35645491260E+02  0.51100000000E-03 0. -1.
<mgrwt>
<rscale>  0 0.91461358E+02</rscale>
<asrwt>0</asrwt>
<pdfrwt beam="2">  1        2 0.40490769E-02 0.91461358E+02</pdfrwt>
<pdfrwt beam="1">  1       -2 0.12224541E-01 0.91461358E+02</pdfrwt>
<totfact> 0.84587615E+04</totfact>
</mgrwt>
</event>
<event>
 5    1  0.2809073E+000  0.9150190E+02  0.7818608E-02  0.1299255E+00
         -2   -1    0    0    0  501 -0.00000000000E+00  0.00000000000E+00  0.98284331953E+01  0.98284335392E+01  0.26000000000E-02 0.  1.
          2   -1    0    0  501    0  0.00000000000E+00 -0.00000000000E+00 -0.21296879443E+03  0.21296879445E+03  0.26000000000E-02 0. -1.
         23    2    1    2    0    0  0.00000000000E+00  0.00000000000E+00 -0.20314036124E+03  0.22279722799E+03  0.91501903999E+02 0.  0.
        -11    1    3    3    0    0  0.14515494677E+02  0.34250810307E+02 -0.36721008932E+02  0.52270929680E+02  0.51100000000E-03 0.  1.
         11    1    3    3    0    0 -0.14515494677E+02 -0.34250810307E+02 -0.16641935231E+03  0.17052629831E+03  0.51100000000E-03 0. -1.
<mgrwt>
<rscale>  0 0.91501904E+02</rscale>
<asrwt>0</asrwt>
<pdfrwt beam="2">  1        2 0.32764427E-01 0.91501904E+02</pdfrwt>
<pdfrwt beam="1">  1       -2 0.15120668E-02 0.91501904E+02</pdfrwt>
<totfact> 0.15674206E+05</totfact>
</mgrwt>
</event>
<event>
 5    1  0.2809073E+000  0.9070909E+02  0.7818608E-02  0.1301144E+00
         -2   -1    0    0    0  501 -0.00000000000E+00  0.00000000000E+00  0.52788548151E+01  0.52788554554E+01  0.26000000000E-02 0.  1.
          2   -1    0    0  501    0  0.00000000000E+00 -0.00000000000E+00 -0.38967439385E+03  0.38967439385E+03  0.26000000000E-02 0. -1.
         23    2    1    2    0    0  0.00000000000E+00  0.00000000000E+00 -0.38439553903E+03  0.39495324931E+03  0.90709088375E+02 0.  0.
        -11    1    3    3    0    0 -0.31257628328E+02  0.31061455278E+02 -0.23892671307E+03  0.24295643138E+03  0.51100000000E-03 0. -1.
         11    1    3    3    0    0  0.31257628328E+02 -0.31061455278E+02 -0.14546882597E+03  0.15199681793E+03  0.51100000000E-03 0.  1.
<mgrwt>
<rscale>  0 0.90709088E+02</rscale>
<asrwt>0</asrwt>
<pdfrwt beam="2">  1        2 0.59949884E-01 0.90709088E+02</pdfrwt>
<pdfrwt beam="1">  1       -2 0.81213187E-03 0.90709088E+02</pdfrwt>
<totfact> 0.20047908E+05</totfact>
</mgrwt>
</event>
<event>
 5    1  0.2809073E+000  0.9186614E+02  0.7818608E-02  0.1298394E+00
          2   -1    0    0  501    0  0.00000000000E+00  0.00000000000E+00  0.23774719917E+03  0.23774719919E+03  0.26000000000E-02 0. -1.
         -2   -1    0    0    0  501 -0.00000000000E+00 -0.00000000000E+00 -0.88743299319E+01  0.88743303128E+01  0.26000000000E-02 0.  1.
         23    2    1    2    0    0  0.00000000000E+00  0.00000000000E+00  0.22887286924E+03  0.24662152950E+03  0.91866144679E+02 0.  0.
        -11    1    3    3    0    0 -0.22897490291E+01 -0.44607557492E+02  0.14319648771E+03  0.15000103743E+03  0.51100000000E-03 0. -1.
         11    1    3    3    0    0  0.22897490291E+01  0.44607557492E+02  0.85676381524E+02  0.96620492068E+02  0.51100000000E-03 0.  1.
<mgrwt>
<rscale>  0 0.91866145E+02</rscale>
<asrwt>0</asrwt>
<pdfrwt beam="1">  1        2 0.36576486E-01 0.91866145E+02</pdfrwt>
<pdfrwt beam="2">  1       -2 0.13652818E-02 0.91866145E+02</pdfrwt>
<totfact> 0.16147501E+05</totfact>
</mgrwt>
</event>
<event>
 5    1  0.2809073E+000  0.8963720E+02  0.7818608E-02  0.1303733E+00
         -2   -1    0    0    0  501 -0.00000000000E+00  0.00000000000E+00  0.22044412955E+02  0.22044413109E+02  0.26000000000E-02 0.  1.
          2   -1    0    0  501    0  0.00000000000E+00 -0.00000000000E+00 -0.91120904005E+02  0.91120904042E+02  0.26000000000E-02 0. -1.
         23    2    1    2    0    0  0.00000000000E+00  0.00000000000E+00 -0.69076491049E+02  0.11316531715E+03  0.89637198696E+02 0.  0.
        -11    1    3    3    0    0  0.23510862831E+02 -0.34338738721E+02 -0.55542434398E+02  0.69403686265E+02  0.51100000000E-03 0. -1.
         11    1    3    3    0    0 -0.23510862831E+02  0.34338738721E+02 -0.13534056651E+02  0.43761630885E+02  0.51100000000E-03 0.  1.
<mgrwt>
<rscale>  0 0.89637199E+02</rscale>
<asrwt>0</asrwt>
<pdfrwt beam="2">  1        2 0.14018600E-01 0.89637199E+02</pdfrwt>
<pdfrwt beam="1">  1       -2 0.33914482E-02 0.89637199E+02</pdfrwt>
<totfact> 0.12503139E+05</totfact>
</mgrwt>
</event>
<event>
 5    1  0.2809073E+000  0.9366014E+02  0.7818608E-02  0.1294223E+00
          2   -1    0    0  501    0  0.00000000000E+00  0.00000000000E+00  0.65202211598E+02  0.65202211650E+02  0.26000000000E-02 0.  1.
         -2   -1    0    0    0  501 -0.00000000000E+00 -0.00000000000E+00 -0.33634676329E+02  0.33634676430E+02  0.26000000000E-02 0. -1.
         23    2    1    2    0    0  0.00000000000E+00  0.00000000000E+00  0.31567535269E+02  0.98836888080E+02  0.93660136464E+02 0.  0.
        -11    1    3    3    0    0  0.38037385745E+02 -0.22556460008E+02  0.32043812033E+02  0.54611743171E+02  0.51100000000E-03 0.  1.
         11    1    3    3    0    0 -0.38037385745E+02  0.22556460008E+02 -0.47627676366E+00  0.44225144909E+02  0.51100000000E-03 0. -1.
<mgrwt>
<rscale>  0 0.93660136E+02</rscale>
<asrwt>0</asrwt>
<pdfrwt beam="1">  1        2 0.10031109E-01 0.93660136E+02</pdfrwt>
<pdfrwt beam="2">  1       -2 0.51745656E-02 0.93660136E+02</pdfrwt>
<totfact> 0.10057282E+05</totfact>
</mgrwt>
</event>
<event>
 5    1  0.2809073E+000  0.8581762E+02  0.7818608E-02  0.1313308E+00
          2   -1    0    0  501    0  0.00000000000E+00  0.00000000000E+00  0.75624529862E+02  0.75624529907E+02  0.26000000000E-02 0. -1.
         -2   -1    0    0    0  501 -0.00000000000E+00 -0.00000000000E+00 -0.24346150161E+02  0.24346150299E+02  0.26000000000E-02 0.  1.
         23    2    1    2    0    0  0.00000000000E+00  0.00000000000E+00  0.51278379702E+02  0.99970680207E+02  0.85817624508E+02 0.  0.
        -11    1    3    3    0    0 -0.31571141599E+02 -0.20103971918E+02  0.50081965768E+02  0.62522875527E+02  0.51100000000E-03 0. -1.
         11    1    3    3    0    0  0.31571141599E+02  0.20103971918E+02  0.11964139336E+01  0.37447804679E+02  0.51100000000E-03 0.  1.
<mgrwt>
<rscale>  0 0.85817625E+02</rscale>
<asrwt>0</asrwt>
<pdfrwt beam="1">  1        2 0.11634543E-01 0.85817625E+02</pdfrwt>
<pdfrwt beam="2">  1       -2 0.37455617E-02 0.85817625E+02</pdfrwt>
<totfact> 0.13369358E+05</totfact>
</mgrwt>
</event>
<event>
 5    1  0.2809073E+000  0.9133310E+02  0.7818608E-02  0.1299655E+00
         -2   -1    0    0    0  501 -0.00000000000E+00  0.00000000000E+00  0.10048965366E+02  0.10048965702E+02  0.26000000000E-02 0.  1.
          2   -1    0    0  501    0  0.00000000000E+00 -0.00000000000E+00 -0.20752720254E+03  0.20752720256E+03  0.26000000000E-02 0. -1.
         23    2    1    2    0    0  0.00000000000E+00  0.00000000000E+00 -0.19747823718E+03  0.21757616826E+03  0.91333098255E+02 0.  0.
        -11    1    3    3    0    0 -0.28721903504E+02  0.14615781129E+02 -0.21661470331E+02  0.38830247180E+02  0.51100000000E-03 0.  1.
         11    1    3    3    0    0  0.28721903504E+02 -0.14615781129E+02 -0.17581676684E+03  0.17874592108E+03  0.51100000000E-03 0. -1.
<mgrwt>
<rscale>  0 0.91333098E+02</rscale>
<asrwt>0</asrwt>
<pdfrwt beam="2">  1        2 0.31927259E-01 0.91333098E+02</pdfrwt>
<pdfrwt beam="1">  1       -2 0.15459949E-02 0.91333098E+02</pdfrwt>
<totfact> 0.15604462E+05</totfact>
</mgrwt>
</event>
<event>
 5    1  0.2809073E+000  0.9023908E+02  0.7818608E-02  0.1302274E+00
         -2   -1    0    0    0  501 -0.00000000000E+00  0.00000000000E+00  0.18519497208E+02  0.18519497391E+02  0.26000000000E-02 0.  1.
          2   -1    0    0  501    0  0.00000000000E+00 -0.00000000000E+00 -0.10992592383E+03  0.10992592386E+03  0.26000000000E-02 0. -1.
         23    2    1    2    0    0  0.00000000000E+00  0.00000000000E+00 -0.91406426625E+02  0.12844542125E+03  0.90239079189E+02 0.  0.
        -11    1    3    3    0    0 -0.21885208991E+02 -0.17149337135E+02  0.48764466623E+01  0.28228387645E+02  0.51100000000E-03 0.  1.
         11    1    3    3    0    0  0.21885208991E+02  0.17149337135E+02 -0.96282873287E+02  0.10021703361E+03  0.51100000000E-03 0. -1.
<mgrwt>
<rscale>  0 0.90239079E+02</rscale>
<asrwt>0</asrwt>
<pdfrwt beam="2">  1        2 0.16911680E-01 0.90239079E+02</pdfrwt>
<pdfrwt beam="1">  1       -2 0.28491535E-02 0.90239079E+02</pdfrwt>
<totfact> 0.12993903E+05</totfact>
</mgrwt>
</event>
<event>
 5    1  0.2809073E+000  0.9065100E+02  0.7818608E-02  0.1301283E+00
         -2   -1    0    0    0  501 -0.00000000000E+00  0.00000000000E+00  0.57842318535E+02  0.57842318594E+02  0.26000000000E-02 0. -1.
          2   -1    0    0  501    0  0.00000000000E+00 -0.00000000000E+00 -0.35517263137E+02  0.35517263232E+02  0.26000000000E-02 0.  1.
         23    2    1    2    0    0  0.00000000000E+00  0.00000000000E+00  0.22325055398E+02  0.93359581826E+02  0.90650997899E+02 0.  0.
        -11    1    3    3    0    0 -0.89327083479E+00  0.11750607161E+02  0.56236968912E+02  0.57458431706E+02  0.51100000000E-03 0. -1.
         11    1    3    3    0    0  0.89327083479E+00 -0.11750607161E+02 -0.33911913514E+02  0.35901150120E+02  0.51100000000E-03 0.  1.
<mgrwt>
<rscale>  0 0.90650998E+02</rscale>
<asrwt>0</asrwt>
<pdfrwt beam="2">  1        2 0.54641944E-02 0.90650998E+02</pdfrwt>
<pdfrwt beam="1">  1       -2 0.88988182E-02 0.90650998E+02</pdfrwt>
<totfact> 0.94067336E+04</totfact>
</mgrwt>
</event>
<event>
 5    1  0.2809073E+000  0.8674788E+02  0.7818608E-02  0.1310924E+00
          2   -1    0    0  501    0  0.00000000000E+00  0.00000000000E+00  0.13412014934E+03  0.13412014936E+03  0.26000000000E-02 0. -1.
         -2   -1    0    0    0  501 -0.00000000000E+00 -0.00000000000E+00 -0.14026963817E+02  0.14026964058E+02  0.26000000000E-02 0.  1.
         23    2    1    2    0    0  0.00000000000E+00  0.00000000000E+00  0.12009318552E+03  0.14814711342E+03  0.86747876091E+02 0.  0.
        -11    1    3    3    0    0  0.29831276256E+02 -0.24914823923E+02  0.27167984894E+02  0.47421017467E+02  0.51100000000E-03 0.  1.
         11    1    3    3    0    0 -0.29831276256E+02  0.24914823923E+02  0.92925200629E+02  0.10072609595E+03  0.51100000000E-03 0. -1.
<mgrwt>
<rscale>  0 0.86747876E+02</rscale>
<asrwt>0</asrwt>
<pdfrwt beam="1">  1        2 0.20633869E-01 0.86747876E+02</pdfrwt>
<pdfrwt beam="2">  1       -2 0.21579945E-02 0.86747876E+02</pdfrwt>
<totfact> 0.15413355E+05</totfact>
</mgrwt>
</event>
<event>
 5    1  0.2809073E+000  0.9475105E+02  0.7818608E-02  0.1291738E+00
          2   -1    0    0  501    0  0.00000000000E+00  0.00000000000E+00  0.50585505037E+02  0.50585505104E+02  0.26000000000E-02 0. -1.
         -2   -1    0    0    0  501 -0.00000000000E+00 -0.00000000000E+00 -0.44369234325E+02  0.44369234401E+02  0.26000000000E-02 0.  1.
         23    2    1    2    0    0  0.00000000000E+00  0.00000000000E+00  0.62162707119E+01  0.94954739505E+02  0.94751045023E+02 0.  0.
        -11    1    3    3    0    0 -0.43677796036E+02  0.31354966386E+01  0.21226242085E+02  0.48663482808E+02  0.51100000000E-03 0.  1.
         11    1    3    3    0    0  0.43677796036E+02 -0.31354966386E+01 -0.15009971373E+02  0.46291256697E+02  0.51100000000E-03 0. -1.
<mgrwt>
<rscale>  0 0.94751045E+02</rscale>
<asrwt>0</asrwt>
<pdfrwt beam="1">  1        2 0.77823854E-02 0.94751045E+02</pdfrwt>
<pdfrwt beam="2">  1       -2 0.68260361E-02 0.94751045E+02</pdfrwt>
<totfact> 0.90815036E+04</totfact>
</mgrwt>
</event>
<event>
 5    1  0.2809073E+000  0.8849723E+02  0.7818608E-02  0.1306532E+00
         -2   -1    0    0    0  501 -0.00000000000E+00  0.00000000000E+00  0.11923796263E+02  0.11923796546E+02  0.26000000000E-02 0.  1.
          2   -1    0    0  501    0  0.00000000000E+00 -0.00000000000E+00 -0.16420442609E+03  0.16420442611E+03  0.26000000000E-02 0. -1.
         23    2    1    2    0    0  0.00000000000E+00  0.00000000000E+00 -0.15228062983E+03  0.17612822266E+03  0.88497234962E+02 0.  0.
        -11    1    3    3    0    0 -0.12638623380E+02  0.22376129744E+02 -0.44508556105E+01  0.26081336223E+02  0.51100000000E-03 0.  1.
         11    1    3    3    0    0  0.12638623380E+02 -0.22376129744E+02 -0.14782977422E+03  0.15004688644E+03  0.51100000000E-03 0. -1.
<mgrwt>
<rscale>  0 0.88497235E+02</rscale>
<asrwt>0</asrwt>
<pdfrwt beam="2">  1        2 0.25262218E-01 0.88497235E+02</pdfrwt>
<pdfrwt beam="1">  1       -2 0.18344303E-02 0.88497235E+02</pdfrwt>
<totfact> 0.15631992E+05</totfact>
</mgrwt>
</event>
<event>
 5    1  0.2809073E+000  0.9708355E+02  0.7818608E-02  0.1286551E+00
         -2   -1    0    0    0  501 -0.00000000000E+00  0.00000000000E+00  0.14783823382E+03  0.14783823385E+03  0.26000000000E-02 0.  1.
          2   -1    0    0  501    0  0.00000000000E+00 -0.00000000000E+00 -0.15938391667E+02  0.15938391880E+02  0.26000000000E-02 0. -1.
         23    2    1    2    0    0  0.00000000000E+00  0.00000000000E+00  0.13189984216E+03  0.16377662573E+03  0.97083545328E+02 0.  0.
        -11    1    3    3    0    0  0.54249019470E+01 -0.47933803227E+02  0.75069627914E+02  0.89232998875E+02  0.51100000000E-03 0.  1.
         11    1    3    3    0    0 -0.54249019470E+01  0.47933803227E+02  0.56830214243E+02  0.74543626851E+02  0.51100000000E-03 0. -1.
<mgrwt>
<rscale>  0 0.97083545E+02</rscale>
<asrwt>0</asrwt>
<pdfrwt beam="2">  1        2 0.24520604E-02 0.97083545E+02</pdfrwt>
<pdfrwt beam="1">  1       -2 0.22744343E-01 0.97083545E+02</pdfrwt>
<totfact> 0.59902881E+04</totfact>
</mgrwt>
</event>
<event>
 5    1  0.2809073E+000  0.9050700E+02  0.7818608E-02  0.1301629E+00
          2   -1    0    0  501    0  0.00000000000E+00  0.00000000000E+00  0.10933350891E+02  0.10933351200E+02  0.26000000000E-02 0. -1.
         -2   -1    0    0    0  501 -0.00000000000E+00 -0.00000000000E+00 -0.18730573129E+03  0.18730573131E+03  0.26000000000E-02 0.  1.
         23    2    1    2    0    0  0.00000000000E+00  0.00000000000E+00 -0.17637238040E+03  0.19823908251E+03  0.90507001198E+02 0.  0.
        -11    1    3    3    0    0 -0.38466385044E+02  0.17942239360E+02 -0.12256040383E+03  0.12970211764E+03  0.51100000000E-03 0.  1.
         11    1    3    3    0    0  0.38466385044E+02 -0.17942239360E+02 -0.53811976570E+02  0.68536964875E+02  0.51100000000E-03 0. -1.
<mgrwt>
<rscale>  0 0.90507001E+02</rscale>
<asrwt>0</asrwt>
<pdfrwt beam="1">  1        2 0.16820541E-02 0.90507001E+02</pdfrwt>
<pdfrwt beam="2">  1       -2 0.28816264E-01 0.90507001E+02</pdfrwt>
<totfact> 0.65292662E+04</totfact>
</mgrwt>
</event>
<event>
 5    1  0.2809073E+000  0.9204484E+02  0.7818608E-02  0.1297974E+00
         -2   -1    0    0    0  501 -0.00000000000E+00  0.00000000000E+00  0.81287374869E+02  0.81287374910E+02  0.26000000000E-02 0.  1.
          2   -1    0    0  501    0  0.00000000000E+00 -0.00000000000E+00 -0.26056484441E+02  0.26056484571E+02  0.26000000000E-02 0. -1.
         23    2    1    2    0    0  0.00000000000E+00  0.00000000000E+00  0.55230890427E+02  0.10734385948E+03  0.92044841849E+02 0.  0.
        -11    1    3    3    0    0  0.45653379188E+02  0.39997007294E+01  0.32540480182E+02  0.56205973774E+02  0.51100000000E-03 0.  1.
         11    1    3    3    0    0 -0.45653379188E+02 -0.39997007294E+01  0.22690410246E+02  0.51137885707E+02  0.51100000000E-03 0. -1.
<mgrwt>
<rscale>  0 0.92044842E+02</rscale>
<asrwt>0</asrwt>
<pdfrwt beam="2">  1        2 0.40086899E-02 0.92044842E+02</pdfrwt>
<pdfrwt beam="1">  1       -2 0.12505750E-01 0.92044842E+02</pdfrwt>
<totfact> 0.82750938E+04</totfact>
</mgrwt>
</event>
<event>
 5    1  0.2809073E+000  0.8991950E+02  0.7818608E-02  0.1303047E+00
         -2   -1    0    0    0  501 -0.00000000000E+00  0.00000000000E+00  0.15128614628E+02  0.15128614852E+02  0.26000000000E-02 0.  1.
          2   -1    0    0  501    0  0.00000000000E+00 -0.00000000000E+00 -0.13361297992E+03  0.13361297995E+03  0.26000000000E-02 0. -1.
         23    2    1    2    0    0  0.00000000000E+00  0.00000000000E+00 -0.11848436529E+03  0.14874159480E+03  0.89919504026E+02 0.  0.
        -11    1    3    3    0    0  0.27619345116E+02 -0.22182566678E+02 -0.10503847379E+03  0.11085114102E+03  0.51100000000E-03 0.  1.
         11    1    3    3    0    0 -0.27619345116E+02  0.22182566678E+02 -0.13445891505E+02  0.37890453781E+02  0.51100000000E-03 0. -1.
<mgrwt>
<rscale>  0 0.89919504E+02</rscale>
<asrwt>0</asrwt>
<pdfrwt beam="2">  1        2 0.20555842E-01 0.89919504E+02</pdfrwt>
<pdfrwt beam="1">  1       -2 0.23274793E-02 0.89919504E+02</pdfrwt>
<totfact> 0.13966539E+05</totfact>
</mgrwt>
</event>
<event>
 5    1  0.2809073E+000  0.9005923E+02  0.7818608E-02  0.1302708E+00
         -2   -1    0    0    0  501 -0.00000000000E+00  0.00000000000E+00  0.15104366667E+02  0.15104366891E+02  0.26000000000E-02 0.  1.
          2   -1    0    0  501    0  0.00000000000E+00 -0.00000000000E+00 -0.13424371781E+03  0.13424371783E+03  0.26000000000E-02 0. -1.
         23    2    1    2    0    0  0.00000000000E+00  0.00000000000E+00 -0.11913935114E+03  0.14934808472E+03  0.90059232843E+02 0.  0.
        -11    1    3    3    0    0 -0.25908155116E+02 -0.10545560449E+02 -0.11808846473E+03  0.12135619824E+03  0.51100000000E-03 0. -1.
         11    1    3    3    0    0  0.25908155116E+02  0.10545560449E+02 -0.10508864078E+01  0.27991886489E+02  0.51100000000E-03 0.  1.
<mgrwt>
<rscale>  0 0.90059233E+02</rscale>
<asrwt>0</asrwt>
<pdfrwt beam="2">  1        2 0.20652879E-01 0.90059233E+02</pdfrwt>
<pdfrwt beam="1">  1       -2 0.23237488E-02 0.90059233E+02</pdfrwt>
<totfact> 0.13929347E+05</totfact>
</mgrwt>
</event>
<event>
 5    1  0.2809073E+000  0.9329295E+02  0.7818608E-02  0.1295068E+00
         -2   -1    0    0    0  501 -0.00000000000E+00  0.00000000000E+00  0.53764022296E+01  0.53764028583E+01  0.26000000000E-02 0.  1.
          2   -1    0    0  501    0  0.00000000000E+00 -0.00000000000E+00 -0.40471182032E+03  0.40471182033E+03  0.26000000000E-02 0. -1.
         23    2    1    2    0    0  0.00000000000E+00  0.00000000000E+00 -0.39933541809E+03  0.41008822319E+03  0.93292950725E+02 0.  0.
        -11    1    3    3    0    0  0.37683995391E-01 -0.45719476641E+02 -0.15899338081E+03  0.16543629319E+03  0.51100000000E-03 0.  1.
         11    1    3    3    0    0 -0.37683995391E-01  0.45719476641E+02 -0.24034203729E+03  0.24465193000E+03  0.51100000000E-03 0. -1.
<mgrwt>
<rscale>  0 0.93292951E+02</rscale>
<asrwt>0</asrwt>
<pdfrwt beam="2">  1        2 0.62263333E-01 0.93292951E+02</pdfrwt>
<pdfrwt beam="1">  1       -2 0.82713917E-03 0.93292951E+02</pdfrwt>
<totfact> 0.18859718E+05</totfact>
</mgrwt>
</event>
<event>
 5    1  0.2809073E+000  0.9060776E+02  0.7818608E-02  0.1301387E+00
         -2   -1    0    0    0  501 -0.00000000000E+00  0.00000000000E+00  0.13181208132E+03  0.13181208134E+03  0.26000000000E-02 0.  1.
          2   -1    0    0  501    0  0.00000000000E+00 -0.00000000000E+00 -0.15570965237E+02  0.15570965454E+02  0.26000000000E-02 0. -1.
         23    2    1    2    0    0  0.00000000000E+00  0.00000000000E+00  0.11624111608E+03  0.14738304680E+03  0.90607755825E+02 0.  0.
        -11    1    3    3    0    0  0.21253008363E+02  0.17938079377E+02  0.11629247887E+03  0.11957175962E+03  0.51100000000E-03 0.  1.
         11    1    3    3    0    0 -0.21253008363E+02 -0.17938079377E+02 -0.51362788323E-01  0.27811287180E+02  0.51100000000E-03 0. -1.
<mgrwt>
<rscale>  0 0.90607756E+02</rscale>
<asrwt>0</asrwt>
<pdfrwt beam="2">  1        2 0.23955330E-02 0.90607756E+02</pdfrwt>
<pdfrwt beam="1">  1       -2 0.20278783E-01 0.90607756E+02</pdfrwt>
<totfact> 0.74266218E+04</totfact>
</mgrwt>
</event>
<event>
 5    1  0.2809073E+000  0.9194639E+02  0.7818608E-02  0.1298206E+00
         -2   -1    0    0    0  501 -0.00000000000E+00  0.00000000000E+00  0.20343017260E+02  0.20343017426E+02  0.26000000000E-02 0.  1.
          2   -1    0    0  501    0  0.00000000000E+00 -0.00000000000E+00 -0.10389484351E+03  0.10389484354E+03  0.26000000000E-02 0. -1.
         23    2    1    2    0    0  0.00000000000E+00  0.00000000000E+00 -0.83551826251E+02  0.12423786097E+03  0.91946388882E+02 0.  0.
        -11    1    3    3    0    0  0.25690006568E+02  0.47857977489E+01 -0.92883649009E+02  0.96489649968E+02  0.51100000000E-03 0. -1.
         11    1    3    3    0    0 -0.25690006568E+02 -0.47857977489E+01  0.93318227579E+01  0.27748211002E+02  0.51100000000E-03 0.  1.
<mgrwt>
<rscale>  0 0.91946389E+02</rscale>
<asrwt>0</asrwt>
<pdfrwt beam="2">  1        2 0.15983822E-01 0.91946389E+02</pdfrwt>
<pdfrwt beam="1">  1       -2 0.31296950E-02 0.91946389E+02</pdfrwt>
<totfact> 0.12128056E+05</totfact>
</mgrwt>
</event>
<event>
 5    1  0.2809073E+000  0.9358231E+02  0.7818608E-02  0.1294401E+00
          2   -1    0    0  501    0  0.00000000000E+00  0.00000000000E+00  0.14242562388E+03  0.14242562391E+03  0.26000000000E-02 0. -1.
         -2   -1    0    0    0  501 -0.00000000000E+00 -0.00000000000E+00 -0.15372319723E+02  0.15372319943E+02  0.26000000000E-02 0.  1.
         23    2    1    2    0    0  0.00000000000E+00  0.00000000000E+00  0.12705330416E+03  0.15779794385E+03  0.93582311283E+02 0.  0.
        -11    1    3    3    0    0 -0.34681326421E+01 -0.30921488701E+02  0.12245294512E+03  0.12634433180E+03  0.51100000000E-03 0. -1.
         11    1    3    3    0    0  0.34681326421E+01  0.30921488701E+02  0.46003590337E+01  0.31453612050E+02  0.51100000000E-03 0.  1.
<mgrwt>
<rscale>  0 0.93582311E+02</rscale>
<asrwt>0</asrwt>
<pdfrwt beam="1">  1        2 0.21911635E-01 0.93582311E+02</pdfrwt>
<pdfrwt beam="2">  1       -2 0.23649723E-02 0.93582311E+02</pdfrwt>
<totfact> 0.12797001E+05</totfact>
</mgrwt>
</event>
<event>
 5    1  0.2809073E+000  0.9460616E+02  0.7818608E-02  0.1292066E+00
          2   -1    0    0  501    0  0.00000000000E+00  0.00000000000E+00  0.12053864487E+03  0.12053864490E+03  0.26000000000E-02 0. -1.
         -2   -1    0    0    0  501 -0.00000000000E+00 -0.00000000000E+00 -0.18563185338E+02  0.18563185520E+02  0.26000000000E-02 0.  1.
         23    2    1    2    0    0  0.00000000000E+00  0.00000000000E+00  0.10197545953E+03  0.13910183042E+03  0.94606156665E+02 0.  0.
        -11    1    3    3    0    0 -0.10857679309E+02 -0.16006389633E+02 -0.12483467156E+02  0.23020222882E+02  0.51100000000E-03 0.  1.
         11    1    3    3    0    0  0.10857679309E+02  0.16006389633E+02  0.11445892669E+03  0.11608160754E+03  0.51100000000E-03 0. -1.
<mgrwt>
<rscale>  0 0.94606157E+02</rscale>
<asrwt>0</asrwt>
<pdfrwt beam="1">  1        2 0.18544407E-01 0.94606157E+02</pdfrwt>
<pdfrwt beam="2">  1       -2 0.28558746E-02 0.94606157E+02</pdfrwt>
<totfact> 0.11752570E+05</totfact>
</mgrwt>
</event>
<event>
 5    1  0.2809073E+000  0.9149905E+02  0.7818608E-02  0.1299262E+00
         -2   -1    0    0    0  501 -0.00000000000E+00  0.00000000000E+00  0.14973724102E+02  0.14973724328E+02  0.26000000000E-02 0.  1.
          2   -1    0    0  501    0  0.00000000000E+00 -0.00000000000E+00 -0.13977944868E+03  0.13977944871E+03  0.26000000000E-02 0. -1.
         23    2    1    2    0    0  0.00000000000E+00  0.00000000000E+00 -0.12480572458E+03  0.15475317304E+03  0.91499047405E+02 0.  0.
        -11    1    3    3    0    0  0.29678698975E+02 -0.34608716610E+02 -0.68827718110E+02  0.82558120247E+02  0.51100000000E-03 0. -1.
         11    1    3    3    0    0 -0.29678698975E+02  0.34608716610E+02 -0.55978006472E+02  0.72195052788E+02  0.51100000000E-03 0.  1.
<mgrwt>
<rscale>  0 0.91499047E+02</rscale>
<asrwt>0</asrwt>
<pdfrwt beam="2">  1        2 0.21504530E-01 0.91499047E+02</pdfrwt>
<pdfrwt beam="1">  1       -2 0.23036500E-02 0.91499047E+02</pdfrwt>
<totfact> 0.13521623E+05</totfact>
</mgrwt>
</event>
<event>
 5    1  0.2809073E+000  0.9204474E+02  0.7818608E-02  0.1297974E+00
         -2   -1    0    0    0  501 -0.00000000000E+00  0.00000000000E+00  0.54801933395E+02  0.54801933457E+02  0.26000000000E-02 0.  1.
          2   -1    0    0  501    0  0.00000000000E+00 -0.00000000000E+00 -0.38649341097E+02  0.38649341185E+02  0.26000000000E-02 0. -1.
         23    2    1    2    0    0  0.00000000000E+00  0.00000000000E+00  0.16152592298E+02  0.93451274642E+02  0.92044741806E+02 0.  0.
        -11    1    3    3    0    0 -0.89080451665E+01  0.44502783270E+02  0.15822273553E+02  0.48064491343E+02  0.51100000000E-03 0. -1.
         11    1    3    3    0    0  0.89080451665E+01 -0.44502783270E+02  0.33031874495E+00  0.45386783298E+02  0.51100000000E-03 0.  1.
<mgrwt>
<rscale>  0 0.92044742E+02</rscale>
<asrwt>0</asrwt>
<pdfrwt beam="2">  1        2 0.59460525E-02 0.92044742E+02</pdfrwt>
<pdfrwt beam="1">  1       -2 0.84310667E-02 0.92044742E+02</pdfrwt>
<totfact> 0.91972838E+04</totfact>
</mgrwt>
</event>
<event>
 5    1  0.2809073E+000  0.1028914E+03  0.7818608E-02  0.1274331E+00
          2   -1    0    0  501    0  0.00000000000E+00  0.00000000000E+00  0.18707067734E+03  0.18707067736E+03  0.26000000000E-02 0. -1.
         -2   -1    0    0    0  501 -0.00000000000E+00 -0.00000000000E+00 -0.14147907770E+02  0.14147908009E+02  0.26000000000E-02 0.  1.
         23    2    1    2    0    0  0.00000000000E+00  0.00000000000E+00  0.17292276957E+03  0.20121858536E+03  0.10289137409E+03 0.  0.
        -11    1    3    3    0    0 -0.50151250459E+02  0.20596856729E+01  0.10852362279E+03  0.11956908853E+03  0.51100000000E-03 0.  1.
         11    1    3    3    0    0  0.50151250459E+02 -0.20596856729E+01  0.64399146773E+02  0.81649496833E+02  0.51100000000E-03 0. -1.
<mgrwt>
<rscale>  0 0.10289137E+03</rscale>
<asrwt>0</asrwt>
<pdfrwt beam="1">  1        2 0.28780102E-01 0.10289137E+03</pdfrwt>
<pdfrwt beam="2">  1       -2 0.21766014E-02 0.10289137E+03</pdfrwt>
<totfact> 0.10871319E+05</totfact>
</mgrwt>
</event>
<event>
 5    1  0.2809073E+000  0.9423480E+02  0.7818608E-02  0.1292909E+00
         -2   -1    0    0    0  501 -0.00000000000E+00  0.00000000000E+00  0.15918561228E+03  0.15918561230E+03  0.26000000000E-02 0.  1.
          2   -1    0    0  501    0  0.00000000000E+00 -0.00000000000E+00 -0.13946292775E+02  0.13946293017E+02  0.26000000000E-02 0. -1.
         23    2    1    2    0    0  0.00000000000E+00  0.00000000000E+00  0.14523931951E+03  0.17313190532E+03  0.94234795637E+02 0.  0.
        -11    1    3    3    0    0  0.15755063335E+02 -0.42532440738E+02  0.96062912962E+02  0.10623235751E+03  0.51100000000E-03 0.  1.
         11    1    3    3    0    0 -0.15755063335E+02  0.42532440738E+02  0.49176406546E+02  0.66899547808E+02  0.51100000000E-03 0. -1.
<mgrwt>
<rscale>  0 0.94234796E+02</rscale>
<asrwt>0</asrwt>
<pdfrwt beam="2">  1        2 0.21455835E-02 0.94234796E+02</pdfrwt>
<pdfrwt beam="1">  1       -2 0.24490095E-01 0.94234796E+02</pdfrwt>
<totfact> 0.62844742E+04</totfact>
</mgrwt>
</event>
<event>
 5    1  0.2809073E+000  0.9091688E+02  0.7818608E-02  0.1300646E+00
          2   -1    0    0  501    0  0.00000000000E+00  0.00000000000E+00  0.22075570602E+03  0.22075570603E+03  0.26000000000E-02 0. -1.
         -2   -1    0    0    0  501 -0.00000000000E+00 -0.00000000000E+00 -0.93608902864E+01  0.93608906474E+01  0.26000000000E-02 0.  1.
         23    2    1    2    0    0  0.00000000000E+00  0.00000000000E+00  0.21139481573E+03  0.23011659668E+03  0.90916884844E+02 0.  0.
        -11    1    3    3    0    0 -0.29234059298E+02 -0.11950451706E+02  0.22941763483E+02  0.39035471445E+02  0.51100000000E-03 0.  1.
         11    1    3    3    0    0  0.29234059298E+02  0.11950451706E+02  0.18845305225E+03  0.19108112524E+03  0.51100000000E-03 0. -1.
<mgrwt>
<rscale>  0 0.90916885E+02</rscale>
<asrwt>0</asrwt>
<pdfrwt beam="1">  1        2 0.33962419E-01 0.90916885E+02</pdfrwt>
<pdfrwt beam="2">  1       -2 0.14401369E-02 0.90916885E+02</pdfrwt>
<totfact> 0.16157575E+05</totfact>
</mgrwt>
</event>
<event>
 5    1  0.2809073E+000  0.9372193E+02  0.7818608E-02  0.1294081E+00
          2   -1    0    0  501    0  0.00000000000E+00  0.00000000000E+00  0.23584807752E+02  0.23584807895E+02  0.26000000000E-02 0. -1.
         -2   -1    0    0    0  501 -0.00000000000E+00 -0.00000000000E+00 -0.93108667822E+02  0.93108667858E+02  0.26000000000E-02 0.  1.
         23    2    1    2    0    0  0.00000000000E+00  0.00000000000E+00 -0.69523860070E+02  0.11669347575E+03  0.93721930008E+02 0.  0.
        -11    1    3    3    0    0  0.10042096406E+02 -0.36159399340E+02 -0.69704863271E+02  0.79165104842E+02  0.51100000000E-03 0.  1.
         11    1    3    3    0    0 -0.10042096406E+02  0.36159399340E+02  0.18100320091E+00  0.37528370911E+02  0.51100000000E-03 0. -1.
<mgrwt>
<rscale>  0 0.93721930E+02</rscale>
<asrwt>0</asrwt>
<pdfrwt beam="1">  1        2 0.36284320E-02 0.93721930E+02</pdfrwt>
<pdfrwt beam="2">  1       -2 0.14324410E-01 0.93721930E+02</pdfrwt>
<totfact> 0.76121726E+04</totfact>
</mgrwt>
</event>
<event>
 5    1  0.2809073E+000  0.8963786E+02  0.7818608E-02  0.1303731E+00
          2   -1    0    0  501    0  0.00000000000E+00  0.00000000000E+00  0.19290370590E+03  0.19290370591E+03  0.26000000000E-02 0. -1.
         -2   -1    0    0    0  501 -0.00000000000E+00 -0.00000000000E+00 -0.10413157089E+02  0.10413157414E+02  0.26000000000E-02 0.  1.
         23    2    1    2    0    0  0.00000000000E+00  0.00000000000E+00  0.18249054881E+03  0.20331686333E+03  0.89637863147E+02 0.  0.
        -11    1    3    3    0    0 -0.36082416356E+02 -0.17412619230E+02  0.45677729747E+02  0.60758497955E+02  0.51100000000E-03 0.  1.
         11    1    3    3    0    0  0.36082416356E+02  0.17412619230E+02  0.13681281906E+03  0.14255836537E+03  0.51100000000E-03 0. -1.
<mgrwt>
<rscale>  0 0.89637863E+02</rscale>
<asrwt>0</asrwt>
<pdfrwt beam="1">  1        2 0.29677493E-01 0.89637863E+02</pdfrwt>
<pdfrwt beam="2">  1       -2 0.16020242E-02 0.89637863E+02</pdfrwt>
<totfact> 0.15983262E+05</totfact>
</mgrwt>
</event>
<event>
 5    1  0.2809073E+000  0.1143331E+03  0.7818608E-02  0.1252750E+00
         -2   -1    0    0    0  501 -0.00000000000E+00  0.00000000000E+00  0.14301733726E+02  0.14301733962E+02  0.26000000000E-02 0.  1.
          2   -1    0    0  501    0  0.00000000000E+00 -0.00000000000E+00 -0.22850469172E+03  0.22850469174E+03  0.26000000000E-02 0. -1.
         23    2    1    2    0    0  0.00000000000E+00  0.00000000000E+00 -0.21420295800E+03  0.24280642570E+03  0.11433307984E+03 0.  0.
        -11    1    3    3    0    0 -0.51456043815E+02  0.24262162421E+02 -0.95156614568E+02  0.11086549629E+03  0.51100000000E-03 0.  1.
         11    1    3    3    0    0  0.51456043815E+02 -0.24262162421E+02 -0.11904634343E+03  0.13194092942E+03  0.51100000000E-03 0. -1.
<mgrwt>
<rscale>  0 0.11433308E+03</rscale>
<asrwt>0</asrwt>
<pdfrwt beam="2">  1        2 0.35154565E-01 0.11433308E+03</pdfrwt>
<pdfrwt beam="1">  1       -2 0.22002669E-02 0.11433308E+03</pdfrwt>
<totfact> 0.87714758E+04</totfact>
</mgrwt>
</event>
<event>
 5    1  0.2809073E+000  0.9298224E+02  0.7818608E-02  0.1295786E+00
          2   -1    0    0  501    0  0.00000000000E+00  0.00000000000E+00  0.17289521688E+03  0.17289521690E+03  0.26000000000E-02 0. -1.
         -2   -1    0    0    0  501 -0.00000000000E+00 -0.00000000000E+00 -0.12501353877E+02  0.12501354147E+02  0.26000000000E-02 0.  1.
         23    2    1    2    0    0  0.00000000000E+00  0.00000000000E+00  0.16039386300E+03  0.18539657105E+03  0.92982241674E+02 0.  0.
        -11    1    3    3    0    0 -0.20410487347E+02 -0.36005325041E+02  0.12242100215E+03  0.12922798920E+03  0.51100000000E-03 0. -1.
         11    1    3    3    0    0  0.20410487347E+02  0.36005325041E+02  0.37972860854E+02  0.56168581847E+02  0.51100000000E-03 0.  1.
<mgrwt>
<rscale>  0 0.92982242E+02</rscale>
<asrwt>0</asrwt>
<pdfrwt beam="1">  1        2 0.26599261E-01 0.92982242E+02</pdfrwt>
<pdfrwt beam="2">  1       -2 0.19232855E-02 0.92982242E+02</pdfrwt>
<totfact> 0.13925052E+05</totfact>
</mgrwt>
</event>
<event>
 5    1  0.2809073E+000  0.9380290E+02  0.7818608E-02  0.1293895E+00
         -2   -1    0    0    0  501 -0.00000000000E+00  0.00000000000E+00  0.24435644449E+02  0.24435644588E+02  0.26000000000E-02 0. -1.
          2   -1    0    0  501    0  0.00000000000E+00 -0.00000000000E+00 -0.90022014551E+02  0.90022014589E+02  0.26000000000E-02 0.  1.
         23    2    1    2    0    0  0.00000000000E+00  0.00000000000E+00 -0.65586370102E+02  0.11445765918E+03  0.93802898681E+02 0.  0.
        -11    1    3    3    0    0  0.99488326044E+01  0.20119328763E+02 -0.83043509821E+02  0.86023201427E+02  0.51100000000E-03 0.  1.
         11    1    3    3    0    0 -0.99488326044E+01 -0.20119328763E+02  0.17457139719E+02  0.28434457749E+02  0.51100000000E-03 0. -1.
<mgrwt>
<rscale>  0 0.93802899E+02</rscale>
<asrwt>0</asrwt>
<pdfrwt beam="2">  1        2 0.13849541E-01 0.93802899E+02</pdfrwt>
<pdfrwt beam="1">  1       -2 0.37593300E-02 0.93802899E+02</pdfrwt>
<totfact> 0.10986562E+05</totfact>
</mgrwt>
</event>
<event>
 5    1  0.2809073E+000  0.9381946E+02  0.7818608E-02  0.1293857E+00
         -2   -1    0    0    0  501 -0.00000000000E+00  0.00000000000E+00  0.15427680844E+02  0.15427681063E+02  0.26000000000E-02 0.  1.
          2   -1    0    0  501    0  0.00000000000E+00 -0.00000000000E+00 -0.14263471890E+03  0.14263471893E+03  0.26000000000E-02 0. -1.
         23    2    1    2    0    0  0.00000000000E+00  0.00000000000E+00 -0.12720703806E+03  0.15806239999E+03  0.93819463645E+02 0.  0.
        -11    1    3    3    0    0  0.49923319139E+01  0.29675297981E+02 -0.12423058177E+03  0.12782325350E+03  0.51100000000E-03 0. -1.
         11    1    3    3    0    0 -0.49923319139E+01 -0.29675297981E+02 -0.29764562914E+01  0.30239146491E+02  0.51100000000E-03 0.  1.
<mgrwt>
<rscale>  0 0.93819464E+02</rscale>
<asrwt>0</asrwt>
<pdfrwt beam="2">  1        2 0.21943802E-01 0.93819464E+02</pdfrwt>
<pdfrwt beam="1">  1       -2 0.23734895E-02 0.93819464E+02</pdfrwt>
<totfact> 0.12715187E+05</totfact>
</mgrwt>
</event>
<event>
 5    1  0.2809073E+000  0.8604460E+02  0.7818608E-02  0.1312723E+00
          2   -1    0    0  501    0  0.00000000000E+00  0.00000000000E+00  0.26282226624E+02  0.26282226753E+02  0.26000000000E-02 0. -1.
         -2   -1    0    0    0  501 -0.00000000000E+00 -0.00000000000E+00 -0.70424708914E+02  0.70424708962E+02  0.26000000000E-02 0.  1.
         23    2    1    2    0    0  0.00000000000E+00  0.00000000000E+00 -0.44142482289E+02  0.96706935714E+02  0.86044596998E+02 0.  0.
        -11    1    3    3    0    0  0.16206336286E+02  0.86926268484E+01 -0.65784381774E+02  0.68306602778E+02  0.51100000000E-03 0.  1.
         11    1    3    3    0    0 -0.16206336286E+02 -0.86926268484E+01  0.21641899485E+02  0.28400332937E+02  0.51100000000E-03 0. -1.
<mgrwt>
<rscale>  0 0.86044597E+02</rscale>
<asrwt>0</asrwt>
<pdfrwt beam="1">  1        2 0.40434195E-02 0.86044597E+02</pdfrwt>
<pdfrwt beam="2">  1       -2 0.10834571E-01 0.86044597E+02</pdfrwt>
<totfact> 0.10143973E+05</totfact>
</mgrwt>
</event>
<event>
 5    1  0.2809073E+000  0.9291193E+02  0.7818608E-02  0.1295949E+00
         -2   -1    0    0    0  501 -0.00000000000E+00  0.00000000000E+00  0.94043033320E+01  0.94043036914E+01  0.26000000000E-02 0.  1.
          2   -1    0    0  501    0  0.00000000000E+00 -0.00000000000E+00 -0.22948608710E+03  0.22948608712E+03  0.26000000000E-02 0. -1.
         23    2    1    2    0    0  0.00000000000E+00  0.00000000000E+00 -0.22008178377E+03  0.23889039081E+03  0.92911932889E+02 0.  0.
        -11    1    3    3    0    0  0.29730845170E+02  0.18619727598E+02 -0.31735192818E+02  0.47304755298E+02  0.51100000000E-03 0.  1.
         11    1    3    3    0    0 -0.29730845170E+02 -0.18619727598E+02 -0.18834659095E+03  0.19158563551E+03  0.51100000000E-03 0. -1.
<mgrwt>
<rscale>  0 0.92911933E+02</rscale>
<asrwt>0</asrwt>
<pdfrwt beam="2">  1        2 0.35305548E-01 0.92911933E+02</pdfrwt>
<pdfrwt beam="1">  1       -2 0.14468161E-02 0.92911933E+02</pdfrwt>
<totfact> 0.15460367E+05</totfact>
</mgrwt>
</event>
<event>
 5    1  0.2809073E+000  0.8115197E+02  0.7818608E-02  0.1325814E+00
         -2   -1    0    0    0  501 -0.00000000000E+00  0.00000000000E+00  0.15918329931E+02  0.15918330143E+02  0.26000000000E-02 0. -1.
          2   -1    0    0  501    0  0.00000000000E+00 -0.00000000000E+00 -0.10342858695E+03  0.10342858698E+03  0.26000000000E-02 0.  1.
         23    2    1    2    0    0  0.00000000000E+00  0.00000000000E+00 -0.87510257020E+02  0.11934691713E+03  0.81151965744E+02 0.  0.
        -11    1    3    3    0    0  0.60238771946E+01  0.26445224839E+02 -0.88138196890E+02  0.92217019929E+02  0.51100000000E-03 0.  1.
         11    1    3    3    0    0 -0.60238771946E+01 -0.26445224839E+02  0.62793986972E+00  0.27129897199E+02  0.51100000000E-03 0. -1.
<mgrwt>
<rscale>  0 0.81151966E+02</rscale>
<asrwt>0</asrwt>
<pdfrwt beam="2">  1        2 0.15912090E-01 0.81151966E+02</pdfrwt>
<pdfrwt beam="1">  1       -2 0.24489739E-02 0.81151966E+02</pdfrwt>
<totfact> 0.17024292E+05</totfact>
</mgrwt>
</event>
<event>
 5    1  0.2809073E+000  0.9278703E+02  0.7818608E-02  0.1296239E+00
          2   -1    0    0  501    0  0.00000000000E+00  0.00000000000E+00  0.16565989165E+03  0.16565989167E+03  0.26000000000E-02 0. -1.
         -2   -1    0    0    0  501 -0.00000000000E+00 -0.00000000000E+00 -0.12992632802E+02  0.12992633062E+02  0.26000000000E-02 0.  1.
         23    2    1    2    0    0  0.00000000000E+00  0.00000000000E+00  0.15266725885E+03  0.17865252473E+03  0.92787028561E+02 0.  0.
        -11    1    3    3    0    0  0.38394797128E+02 -0.23696626757E+02  0.55536805033E+02  0.71554365903E+02  0.51100000000E-03 0.  1.
         11    1    3    3    0    0 -0.38394797128E+02  0.23696626757E+02  0.97130453815E+02  0.10709815883E+03  0.51100000000E-03 0. -1.
<mgrwt>
<rscale>  0 0.92787029E+02</rscale>
<asrwt>0</asrwt>
<pdfrwt beam="1">  1        2 0.25486135E-01 0.92787029E+02</pdfrwt>
<pdfrwt beam="2">  1       -2 0.19988668E-02 0.92787029E+02</pdfrwt>
<totfact> 0.13796246E+05</totfact>
</mgrwt>
</event>
<event>
 5    1  0.2809073E+000  0.9030220E+02  0.7818608E-02  0.1302122E+00
         -2   -1    0    0    0  501 -0.00000000000E+00  0.00000000000E+00  0.50335192722E+01  0.50335199437E+01  0.26000000000E-02 0. -1.
          2   -1    0    0  501    0  0.00000000000E+00 -0.00000000000E+00 -0.40500920863E+03  0.40500920864E+03  0.26000000000E-02 0.  1.
         23    2    1    2    0    0  0.00000000000E+00  0.00000000000E+00 -0.39997568936E+03  0.41004272858E+03  0.90302199230E+02 0.  0.
        -11    1    3    3    0    0  0.87415712627E+01  0.44243026282E+02 -0.20989607286E+03  0.21468633362E+03  0.51100000000E-03 0.  1.
         11    1    3    3    0    0 -0.87415712627E+01 -0.44243026282E+02 -0.19007961650E+03  0.19535639496E+03  0.51100000000E-03 0. -1.
<mgrwt>
<rscale>  0 0.90302199E+02</rscale>
<asrwt>0</asrwt>
<pdfrwt beam="2">  1        2 0.62309084E-01 0.90302199E+02</pdfrwt>
<pdfrwt beam="1">  1       -2 0.77438795E-03 0.90302199E+02</pdfrwt>
<totfact> 0.20570524E+05</totfact>
</mgrwt>
</event>
<event>
 5    1  0.2809073E+000  0.9298172E+02  0.7818608E-02  0.1295788E+00
         -2   -1    0    0    0  501 -0.00000000000E+00  0.00000000000E+00  0.24247417916E+02  0.24247418055E+02  0.26000000000E-02 0.  1.
          2   -1    0    0  501    0  0.00000000000E+00 -0.00000000000E+00 -0.89139395709E+02  0.89139395747E+02  0.26000000000E-02 0. -1.
         23    2    1    2    0    0  0.00000000000E+00  0.00000000000E+00 -0.64891977793E+02  0.11338681380E+03  0.92981722733E+02 0.  0.
        -11    1    3    3    0    0  0.25855323755E+02  0.25361993873E+02  0.30999948231E+01  0.36350219640E+02  0.51100000000E-03 0.  1.
         11    1    3    3    0    0 -0.25855323755E+02 -0.25361993873E+02 -0.67991972616E+02  0.77036594163E+02  0.51100000000E-03 0. -1.
<mgrwt>
<rscale>  0 0.92981723E+02</rscale>
<asrwt>0</asrwt>
<pdfrwt beam="2">  1        2 0.13713753E-01 0.92981723E+02</pdfrwt>
<pdfrwt beam="1">  1       -2 0.37303720E-02 0.92981723E+02</pdfrwt>
<totfact> 0.11225189E+05</totfact>
</mgrwt>
</event>
<event>
 5    1  0.2809073E+000  0.9257625E+02  0.7818608E-02  0.1296730E+00
          2   -1    0    0  501    0  0.00000000000E+00  0.00000000000E+00  0.20679808160E+02  0.20679808324E+02  0.26000000000E-02 0. -1.
         -2   -1    0    0    0  501 -0.00000000000E+00 -0.00000000000E+00 -0.10360785478E+03  0.10360785481E+03  0.26000000000E-02 0.  1.
         23    2    1    2    0    0  0.00000000000E+00  0.00000000000E+00 -0.82928046616E+02  0.12428766313E+03  0.92576251228E+02 0.  0.
        -11    1    3    3    0    0 -0.14948515379E+02  0.42362416606E+02 -0.26480482535E+02  0.52146413187E+02  0.51100000000E-03 0. -1.
         11    1    3    3    0    0  0.14948515379E+02 -0.42362416606E+02 -0.56447564081E+02  0.72141249945E+02  0.51100000000E-03 0.  1.
<mgrwt>
<rscale>  0 0.92576251E+02</rscale>
<asrwt>0</asrwt>
<pdfrwt beam="1">  1        2 0.31815090E-02 0.92576251E+02</pdfrwt>
<pdfrwt beam="2">  1       -2 0.15939670E-01 0.92576251E+02</pdfrwt>
<totfact> 0.76016336E+04</totfact>
</mgrwt>
</event>
<event>
 5    1  0.2809073E+000  0.9089403E+02  0.7818608E-02  0.1300701E+00
          2   -1    0    0  501    0  0.00000000000E+00  0.00000000000E+00  0.13797814692E+03  0.13797814695E+03  0.26000000000E-02 0. -1.
         -2   -1    0    0    0  501 -0.00000000000E+00 -0.00000000000E+00 -0.14969261790E+02  0.14969262016E+02  0.26000000000E-02 0.  1.
         23    2    1    2    0    0  0.00000000000E+00  0.00000000000E+00  0.12300888513E+03  0.15294740896E+03  0.90894026683E+02 0.  0.
        -11    1    3    3    0    0  0.50491920296E+01  0.38725918305E+02  0.10061555079E+03  0.10792905146E+03  0.51100000000E-03 0. -1.
         11    1    3    3    0    0 -0.50491920296E+01 -0.38725918305E+02  0.22393334342E+02  0.45018357499E+02  0.51100000000E-03 0.  1.
<mgrwt>
<rscale>  0 0.90894027E+02</rscale>
<asrwt>0</asrwt>
<pdfrwt beam="1">  1        2 0.21227408E-01 0.90894027E+02</pdfrwt>
<pdfrwt beam="2">  1       -2 0.23029633E-02 0.90894027E+02</pdfrwt>
<totfact> 0.13708548E+05</totfact>
</mgrwt>
</event>
<event>
 5    1  0.2809073E+000  0.9110852E+02  0.7818608E-02  0.1300189E+00
         -2   -1    0    0    0  501 -0.00000000000E+00  0.00000000000E+00  0.11308504507E+03  0.11308504510E+03  0.26000000000E-02 0.  1.
          2   -1    0    0  501    0  0.00000000000E+00 -0.00000000000E+00 -0.18350709386E+02  0.18350709570E+02  0.26000000000E-02 0. -1.
         23    2    1    2    0    0  0.00000000000E+00  0.00000000000E+00  0.94734335682E+02  0.13143575467E+03  0.91108524563E+02 0.  0.
        -11    1    3    3    0    0 -0.10396016680E+02  0.39393733505E+02  0.17969831900E+02  0.44529296660E+02  0.51100000000E-03 0. -1.
         11    1    3    3    0    0  0.10396016680E+02 -0.39393733505E+02  0.76764503782E+02  0.86906458008E+02  0.51100000000E-03 0.  1.
<mgrwt>
<rscale>  0 0.91108525E+02</rscale>
<asrwt>0</asrwt>
<pdfrwt beam="2">  1        2 0.28231861E-02 0.91108525E+02</pdfrwt>
<pdfrwt beam="1">  1       -2 0.17397699E-01 0.91108525E+02</pdfrwt>
<totfact> 0.77002101E+04</totfact>
</mgrwt>
</event>
<event>
 5    1  0.2809073E+000  0.9055735E+02  0.7818608E-02  0.1301508E+00
          2   -1    0    0  501    0  0.00000000000E+00  0.00000000000E+00  0.14958432711E+03  0.14958432714E+03  0.26000000000E-02 0. -1.
         -2   -1    0    0    0  501 -0.00000000000E+00 -0.00000000000E+00 -0.13705704018E+02  0.13705704265E+02  0.26000000000E-02 0.  1.
         23    2    1    2    0    0  0.00000000000E+00  0.00000000000E+00  0.13587862309E+03  0.16329003140E+03  0.90557352769E+02 0.  0.
        -11    1    3    3    0    0 -0.15544839607E+02 -0.42471520459E+02  0.71842843887E+02  0.84893264199E+02  0.51100000000E-03 0. -1.
         11    1    3    3    0    0  0.15544839607E+02  0.42471520459E+02  0.64035779208E+02  0.78396767201E+02  0.51100000000E-03 0.  1.
<mgrwt>
<rscale>  0 0.90557353E+02</rscale>
<asrwt>0</asrwt>
<pdfrwt beam="1">  1        2 0.23012972E-01 0.90557353E+02</pdfrwt>
<pdfrwt beam="2">  1       -2 0.21085700E-02 0.90557353E+02</pdfrwt>
<totfact> 0.14228428E+05</totfact>
</mgrwt>
</event>
<event>
 5    1  0.2809073E+000  0.9165259E+02  0.7818608E-02  0.1298898E+00
          2   -1    0    0  501    0  0.00000000000E+00  0.00000000000E+00  0.84209034663E+02  0.84209034703E+02  0.26000000000E-02 0. -1.
         -2   -1    0    0    0  501 -0.00000000000E+00 -0.00000000000E+00 -0.24938527968E+02  0.24938528104E+02  0.26000000000E-02 0.  1.
         23    2    1    2    0    0  0.00000000000E+00  0.00000000000E+00  0.59270506694E+02  0.10914756281E+03  0.91652591359E+02 0.  0.
        -11    1    3    3    0    0  0.24737319276E+02 -0.17564018399E+02  0.70536853290E+02  0.76784616816E+02  0.51100000000E-03 0. -1.
         11    1    3    3    0    0 -0.24737319276E+02  0.17564018399E+02 -0.11266346596E+02  0.32362945990E+02  0.51100000000E-03 0.  1.
<mgrwt>
<rscale>  0 0.91652591E+02</rscale>
<asrwt>0</asrwt>
<pdfrwt beam="1">  1        2 0.12955236E-01 0.91652591E+02</pdfrwt>
<pdfrwt beam="2">  1       -2 0.38366966E-02 0.91652591E+02</pdfrwt>
<totfact> 0.11489218E+05</totfact>
</mgrwt>
</event>
<event>
 5    1  0.2809073E+000  0.8936775E+02  0.7818608E-02  0.1304390E+00
          2   -1    0    0  501    0  0.00000000000E+00  0.00000000000E+00  0.14351696447E+02  0.14351696682E+02  0.26000000000E-02 0. -1.
         -2   -1    0    0    0  501 -0.00000000000E+00 -0.00000000000E+00 -0.13912284215E+03  0.13912284217E+03  0.26000000000E-02 0.  1.
         23    2    1    2    0    0  0.00000000000E+00  0.00000000000E+00 -0.12477114570E+03  0.15347453885E+03  0.89367753003E+02 0.  0.
        -11    1    3    3    0    0  0.32673436057E+02 -0.16149580659E+01 -0.10112836469E+02  0.34240779417E+02  0.51100000000E-03 0. -1.
         11    1    3    3    0    0 -0.32673436057E+02  0.16149580659E+01 -0.11465830923E+03  0.11923375943E+03  0.51100000000E-03 0.  1.
<mgrwt>
<rscale>  0 0.89367753E+02</rscale>
<asrwt>0</asrwt>
<pdfrwt beam="1">  1        2 0.22079534E-02 0.89367753E+02</pdfrwt>
<pdfrwt beam="2">  1       -2 0.21403513E-01 0.89367753E+02</pdfrwt>
<totfact> 0.75478277E+04</totfact>
</mgrwt>
</event>
<event>
 5    1  0.2809073E+000  0.9274771E+02  0.7818608E-02  0.1296331E+00
          2   -1    0    0  501    0  0.00000000000E+00  0.00000000000E+00  0.12997010929E+03  0.12997010932E+03  0.26000000000E-02 0. -1.
         -2   -1    0    0    0  501 -0.00000000000E+00 -0.00000000000E+00 -0.16546377075E+02  0.16546377279E+02  0.26000000000E-02 0.  1.
         23    2    1    2    0    0  0.00000000000E+00  0.00000000000E+00  0.11342373222E+03  0.14651648660E+03  0.92747710562E+02 0.  0.
        -11    1    3    3    0    0  0.26091009727E+02  0.34647842976E+02  0.82636827502E+02  0.93327697236E+02  0.51100000000E-03 0. -1.
         11    1    3    3    0    0 -0.26091009727E+02 -0.34647842976E+02  0.30786904715E+02  0.53188789361E+02  0.51100000000E-03 0.  1.
<mgrwt>
<rscale>  0 0.92747711E+02</rscale>
<asrwt>0</asrwt>
<pdfrwt beam="1">  1        2 0.19995402E-01 0.92747711E+02</pdfrwt>
<pdfrwt beam="2">  1       -2 0.25455965E-02 0.92747711E+02</pdfrwt>
<totfact> 0.12719391E+05</totfact>
</mgrwt>
</event>
<event>
 5    1  0.2809073E+000  0.9006302E+02  0.7818608E-02  0.1302699E+00
          2   -1    0    0  501    0  0.00000000000E+00  0.00000000000E+00  0.12956806250E+02  0.12956806511E+02  0.26000000000E-02 0. -1.
         -2   -1    0    0    0  501 -0.00000000000E+00 -0.00000000000E+00 -0.15650747014E+03  0.15650747016E+03  0.26000000000E-02 0.  1.
         23    2    1    2    0    0  0.00000000000E+00  0.00000000000E+00 -0.14355066389E+03  0.16946427667E+03  0.90063022182E+02 0.  0.
        -11    1    3    3    0    0  0.28922181689E+01 -0.37926229475E+02 -0.11713261817E+03  0.12315361971E+03  0.51100000000E-03 0.  1.
         11    1    3    3    0    0 -0.28922181689E+01  0.37926229475E+02 -0.26418045714E+02  0.46310656956E+02  0.51100000000E-03 0. -1.
<mgrwt>
<rscale>  0 0.90063022E+02</rscale>
<asrwt>0</asrwt>
<pdfrwt beam="1">  1        2 0.19933549E-02 0.90063022E+02</pdfrwt>
<pdfrwt beam="2">  1       -2 0.24078071E-01 0.90063022E+02</pdfrwt>
<totfact> 0.70947079E+04</totfact>
</mgrwt>
</event>
<event>
 5    1  0.2809073E+000  0.9137605E+02  0.7818608E-02  0.1299553E+00
         -2   -1    0    0    0  501 -0.00000000000E+00  0.00000000000E+00  0.41655672362E+02  0.41655672443E+02  0.26000000000E-02 0.  1.
          2   -1    0    0  501    0  0.00000000000E+00 -0.00000000000E+00 -0.50110721801E+02  0.50110721868E+02  0.26000000000E-02 0. -1.
         23    2    1    2    0    0  0.00000000000E+00  0.00000000000E+00 -0.84550494392E+01  0.91766394311E+02  0.91376054106E+02 0.  0.
        -11    1    3    3    0    0  0.35086555156E+02  0.20763488765E+02 -0.24936159510E+02  0.47791221681E+02  0.51100000000E-03 0. -1.
         11    1    3    3    0    0 -0.35086555156E+02 -0.20763488765E+02  0.16481110071E+02  0.43975172630E+02  0.51100000000E-03 0.  1.
<mgrwt>
<rscale>  0 0.91376054E+02</rscale>
<asrwt>0</asrwt>
<pdfrwt beam="2">  1        2 0.77093419E-02 0.91376054E+02</pdfrwt>
<pdfrwt beam="1">  1       -2 0.64085650E-02 0.91376054E+02</pdfrwt>
<totfact> 0.10050732E+05</totfact>
</mgrwt>
</event>
<event>
 5    1  0.2809073E+000  0.8788193E+02  0.7818608E-02  0.1308063E+00
          2   -1    0    0  501    0  0.00000000000E+00  0.00000000000E+00  0.57128055184E+01  0.57128061101E+01  0.26000000000E-02 0. -1.
         -2   -1    0    0    0  501 -0.00000000000E+00 -0.00000000000E+00 -0.33797902233E+03  0.33797902234E+03  0.26000000000E-02 0.  1.
         23    2    1    2    0    0  0.00000000000E+00  0.00000000000E+00 -0.33226621682E+03  0.34369182845E+03  0.87881932780E+02 0.  0.
        -11    1    3    3    0    0 -0.34930512374E+02 -0.26321126172E+02 -0.14960264279E+03  0.15586498358E+03  0.51100000000E-03 0. -1.
         11    1    3    3    0    0  0.34930512374E+02  0.26321126172E+02 -0.18266357403E+03  0.18782684487E+03  0.51100000000E-03 0.  1.
<mgrwt>
<rscale>  0 0.87881933E+02</rscale>
<asrwt>0</asrwt>
<pdfrwt beam="1">  1        2 0.87889346E-03 0.87881933E+02</pdfrwt>
<pdfrwt beam="2">  1       -2 0.51996757E-01 0.87881933E+02</pdfrwt>
<totfact> 0.52297096E+04</totfact>
</mgrwt>
</event>
<event>
 5    1  0.2809073E+000  0.9048553E+02  0.7818608E-02  0.1301680E+00
         -2   -1    0    0    0  501 -0.00000000000E+00  0.00000000000E+00  0.15856069455E+02  0.15856069668E+02  0.26000000000E-02 0.  1.
          2   -1    0    0  501    0  0.00000000000E+00 -0.00000000000E+00 -0.12909301916E+03  0.12909301918E+03  0.26000000000E-02 0. -1.
         23    2    1    2    0    0  0.00000000000E+00  0.00000000000E+00 -0.11323694970E+03  0.14494908885E+03  0.90485532440E+02 0.  0.
        -11    1    3    3    0    0  0.71346967439E+01 -0.42865376828E+02 -0.36446988081E+02  0.56716200231E+02  0.51100000000E-03 0.  1.
         11    1    3    3    0    0 -0.71346967439E+01  0.42865376828E+02 -0.76789961620E+02  0.88232888619E+02  0.51100000000E-03 0. -1.
<mgrwt>
<rscale>  0 0.90485532E+02</rscale>
<asrwt>0</asrwt>
<pdfrwt beam="2">  1        2 0.19860464E-01 0.90485532E+02</pdfrwt>
<pdfrwt beam="1">  1       -2 0.24393954E-02 0.90485532E+02</pdfrwt>
<totfact> 0.13576105E+05</totfact>
</mgrwt>
</event>
<event>
 5    1  0.2809073E+000  0.9125548E+02  0.7818608E-02  0.1299840E+00
          2   -1    0    0  501    0  0.00000000000E+00  0.00000000000E+00  0.16047786497E+03  0.16047786499E+03  0.26000000000E-02 0. -1.
         -2   -1    0    0    0  501 -0.00000000000E+00 -0.00000000000E+00 -0.12973070985E+02  0.12973071245E+02  0.26000000000E-02 0.  1.
         23    2    1    2    0    0  0.00000000000E+00  0.00000000000E+00  0.14750479398E+03  0.17345093623E+03  0.91255482205E+02 0.  0.
        -11    1    3    3    0    0 -0.16148378273E+02  0.33603871780E+02  0.23755910311E+02  0.44207845395E+02  0.51100000000E-03 0.  1.
         11    1    3    3    0    0  0.16148378273E+02 -0.33603871780E+02  0.12374888367E+03  0.12924309084E+03  0.51100000000E-03 0. -1.
<mgrwt>
<rscale>  0 0.91255482E+02</rscale>
<asrwt>0</asrwt>
<pdfrwt beam="1">  1        2 0.24688901E-01 0.91255482E+02</pdfrwt>
<pdfrwt beam="2">  1       -2 0.19958572E-02 0.91255482E+02</pdfrwt>
<totfact> 0.14274957E+05</totfact>
</mgrwt>
</event>
<event>
 5    1  0.2809073E+000  0.6620509E+02  0.7818608E-02  0.1373495E+00
         -2   -1    0    0    0  501 -0.00000000000E+00  0.00000000000E+00  0.22321316361E+03  0.22321316362E+03  0.26000000000E-02 0.  1.
          2   -1    0    0  501    0  0.00000000000E+00 -0.00000000000E+00 -0.49091115639E+01  0.49091122524E+01  0.26000000000E-02 0. -1.
         23    2    1    2    0    0  0.00000000000E+00  0.00000000000E+00  0.21830405204E+03  0.22812227588E+03  0.66205087507E+02 0.  0.
        -11    1    3    3    0    0  0.10769962985E+02 -0.30321421725E+02  0.82373511823E+02  0.88435152335E+02  0.51100000000E-03 0. -1.
         11    1    3    3    0    0 -0.10769962985E+02  0.30321421725E+02  0.13593054022E+03  0.13968712354E+03  0.51100000000E-03 0.  1.
<mgrwt>
<rscale>  0 0.66205088E+02</rscale>
<asrwt>0</asrwt>
<pdfrwt beam="2">  1        2 0.75524791E-03 0.66205088E+02</pdfrwt>
<pdfrwt beam="1">  1       -2 0.34340490E-01 0.66205088E+02</pdfrwt>
<totfact> 0.13375795E+05</totfact>
</mgrwt>
</event>
<event>
 5    1  0.2809073E+000  0.9098516E+02  0.7818608E-02  0.1300483E+00
         -2   -1    0    0    0  501 -0.00000000000E+00  0.00000000000E+00  0.15422378157E+02  0.15422378376E+02  0.26000000000E-02 0. -1.
          2   -1    0    0  501    0  0.00000000000E+00 -0.00000000000E+00 -0.13419296790E+03  0.13419296792E+03  0.26000000000E-02 0.  1.
         23    2    1    2    0    0  0.00000000000E+00  0.00000000000E+00 -0.11877058974E+03  0.14961534630E+03  0.90985157367E+02 0.  0.
        -11    1    3    3    0    0 -0.21438454357E+02 -0.38513667496E+02 -0.40878399384E+02  0.60116166259E+02  0.51100000000E-03 0. -1.
         11    1    3    3    0    0  0.21438454357E+02  0.38513667496E+02 -0.77892190358E+02  0.89499180042E+02  0.51100000000E-03 0.  1.
<mgrwt>
<rscale>  0 0.90985157E+02</rscale>
<asrwt>0</asrwt>
<pdfrwt beam="2">  1        2 0.20645071E-01 0.90985157E+02</pdfrwt>
<pdfrwt beam="1">  1       -2 0.23726737E-02 0.90985157E+02</pdfrwt>
<totfact> 0.13545642E+05</totfact>
</mgrwt>
</event>
<event>
 5    1  0.2809073E+000  0.1030542E+03  0.7818608E-02  0.1274001E+00
          2   -1    0    0  501    0  0.00000000000E+00  0.00000000000E+00  0.36712505561E+03  0.36712505562E+03  0.26000000000E-02 0. -1.
         -2   -1    0    0    0  501 -0.00000000000E+00 -0.00000000000E+00 -0.72319856395E+01  0.72319861068E+01  0.26000000000E-02 0.  1.
         23    2    1    2    0    0  0.00000000000E+00  0.00000000000E+00  0.35989306997E+03  0.37435704172E+03  0.10305422299E+03 0.  0.
        -11    1    3    3    0    0 -0.41647571215E+02 -0.27118252628E+02  0.13052105691E+03  0.13966268690E+03  0.51100000000E-03 0.  1.
         11    1    3    3    0    0  0.41647571215E+02  0.27118252628E+02  0.22937201306E+03  0.23469435483E+03  0.51100000000E-03 0. -1.
<mgrwt>
<rscale>  0 0.10305422E+03</rscale>
<asrwt>0</asrwt>
<pdfrwt beam="1">  1        2 0.56480786E-01 0.10305422E+03</pdfrwt>
<pdfrwt beam="2">  1       -2 0.11126130E-02 0.10305422E+03</pdfrwt>
<totfact> 0.13944351E+05</totfact>
</mgrwt>
</event>
<event>
 5    1  0.2809073E+000  0.9130242E+02  0.7818608E-02  0.1299728E+00
         -2   -1    0    0    0  501 -0.00000000000E+00  0.00000000000E+00  0.79061223567E+02  0.79061223610E+02  0.26000000000E-02 0. -1.
          2   -1    0    0  501    0  0.00000000000E+00 -0.00000000000E+00 -0.26359737725E+02  0.26359737853E+02  0.26000000000E-02 0.  1.
         23    2    1    2    0    0  0.00000000000E+00  0.00000000000E+00  0.52701485843E+02  0.10542096146E+03  0.91302423329E+02 0.  0.
        -11    1    3    3    0    0 -0.12725446634E+02  0.28069552819E+01 -0.24166573043E+02  0.27456133065E+02  0.51100000000E-03 0.  1.
         11    1    3    3    0    0  0.12725446634E+02 -0.28069552819E+01  0.76868058886E+02  0.77964828398E+02  0.51100000000E-03 0. -1.
<mgrwt>
<rscale>  0 0.91302423E+02</rscale>
<asrwt>0</asrwt>
<pdfrwt beam="2">  1        2 0.40553443E-02 0.91302423E+02</pdfrwt>
<pdfrwt beam="1">  1       -2 0.12163265E-01 0.91302423E+02</pdfrwt>
<totfact> 0.85067829E+04</totfact>
</mgrwt>
</event>
<event>
 5    1  0.2809073E+000  0.8949283E+02  0.7818608E-02  0.1304085E+00
          2   -1    0    0  501    0  0.00000000000E+00  0.00000000000E+00  0.25469924216E+03  0.25469924218E+03  0.26000000000E-02 0. -1.
         -2   -1    0    0    0  501 -0.00000000000E+00 -0.00000000000E+00 -0.78611999086E+01  0.78612003386E+01  0.26000000000E-02 0.  1.
         23    2    1    2    0    0  0.00000000000E+00  0.00000000000E+00  0.24683804225E+03  0.26256044252E+03  0.89492831387E+02 0.  0.
        -11    1    3    3    0    0  0.42579629685E+02 -0.13738099598E+02  0.12138326018E+03  0.12936636386E+03  0.51100000000E-03 0. -1.
         11    1    3    3    0    0 -0.42579629685E+02  0.13738099598E+02  0.12545478207E+03  0.13319407866E+03  0.51100000000E-03 0.  1.
<mgrwt>
<rscale>  0 0.89492831E+02</rscale>
<asrwt>0</asrwt>
<pdfrwt beam="1">  1        2 0.39184508E-01 0.89492831E+02</pdfrwt>
<pdfrwt beam="2">  1       -2 0.12094151E-02 0.89492831E+02</pdfrwt>
<totfact> 0.17765642E+05</totfact>
</mgrwt>
</event>
<event>
 5    1  0.2809073E+000  0.9362464E+02  0.7818608E-02  0.1294304E+00
         -2   -1    0    0    0  501 -0.00000000000E+00  0.00000000000E+00  0.10434979271E+02  0.10434979595E+02  0.26000000000E-02 0.  1.
          2   -1    0    0  501    0  0.00000000000E+00 -0.00000000000E+00 -0.21000455807E+03  0.21000455808E+03  0.26000000000E-02 0. -1.
         23    2    1    2    0    0  0.00000000000E+00  0.00000000000E+00 -0.19956957880E+03  0.22043953768E+03  0.93624638801E+02 0.  0.
        -11    1    3    3    0    0 -0.19185498479E+02  0.36694778371E+02 -0.48372269834E+02  0.63674693566E+02  0.51100000000E-03 0.  1.
         11    1    3    3    0    0  0.19185498479E+02 -0.36694778371E+02 -0.15119730896E+03  0.15676484411E+03  0.51100000000E-03 0. -1.
<mgrwt>
<rscale>  0 0.93624639E+02</rscale>
<asrwt>0</asrwt>
<pdfrwt beam="2">  1        2 0.32308390E-01 0.93624639E+02</pdfrwt>
<pdfrwt beam="1">  1       -2 0.16053816E-02 0.93624639E+02</pdfrwt>
<totfact> 0.14659362E+05</totfact>
</mgrwt>
</event>
<event>
 5    1  0.2809073E+000  0.9057583E+02  0.7818608E-02  0.1301463E+00
          2   -1    0    0  501    0  0.00000000000E+00  0.00000000000E+00  0.18834456940E+03  0.18834456942E+03  0.26000000000E-02 0.  1.
         -2   -1    0    0    0  501 -0.00000000000E+00 -0.00000000000E+00 -0.10889591295E+02  0.10889591605E+02  0.26000000000E-02 0. -1.
         23    2    1    2    0    0  0.00000000000E+00  0.00000000000E+00  0.17745497811E+03  0.19923416102E+03  0.90575833776E+02 0.  0.
        -11    1    3    3    0    0 -0.17638266760E+02 -0.24431828015E+02  0.16309262930E+03  0.16585303255E+03  0.51100000000E-03 0.  1.
         11    1    3    3    0    0  0.17638266760E+02  0.24431828015E+02  0.14362348804E+02  0.33381128470E+02  0.51100000000E-03 0. -1.
<mgrwt>
<rscale>  0 0.90575834E+02</rscale>
<asrwt>0</asrwt>
<pdfrwt beam="1">  1        2 0.28976088E-01 0.90575834E+02</pdfrwt>
<pdfrwt beam="2">  1       -2 0.16753218E-02 0.90575834E+02</pdfrwt>
<totfact> 0.15409442E+05</totfact>
</mgrwt>
</event>
<event>
 5    1  0.2809073E+000  0.8917865E+02  0.7818608E-02  0.1304853E+00
          2   -1    0    0  501    0  0.00000000000E+00  0.00000000000E+00  0.15369558694E+03  0.15369558696E+03  0.26000000000E-02 0. -1.
         -2   -1    0    0    0  501 -0.00000000000E+00 -0.00000000000E+00 -0.12936010856E+02  0.12936011118E+02  0.26000000000E-02 0.  1.
         23    2    1    2    0    0  0.00000000000E+00  0.00000000000E+00  0.14075957609E+03  0.16663159808E+03  0.89178647777E+02 0.  0.
        -11    1    3    3    0    0  0.33861161234E+02  0.10449951326E+02  0.19811416277E+02  0.40598915478E+02  0.51100000000E-03 0.  1.
         11    1    3    3    0    0 -0.33861161234E+02 -0.10449951326E+02  0.12094815981E+03  0.12603268260E+03  0.51100000000E-03 0. -1.
<mgrwt>
<rscale>  0 0.89178648E+02</rscale>
<asrwt>0</asrwt>
<pdfrwt beam="1">  1        2 0.23645476E-01 0.89178648E+02</pdfrwt>
<pdfrwt beam="2">  1       -2 0.19901554E-02 0.89178648E+02</pdfrwt>
<totfact> 0.14968830E+05</totfact>
</mgrwt>
</event>
<event>
 5    1  0.2809073E+000  0.9197800E+02  0.7818608E-02  0.1298131E+00
         -2   -1    0    0    0  501 -0.00000000000E+00  0.00000000000E+00  0.13312915013E+02  0.13312915267E+02  0.26000000000E-02 0.  1.
          2   -1    0    0  501    0  0.00000000000E+00 -0.00000000000E+00 -0.15886739049E+03  0.15886739051E+03  0.26000000000E-02 0. -1.
         23    2    1    2    0    0  0.00000000000E+00  0.00000000000E+00 -0.14555447548E+03  0.17218030578E+03  0.91977999361E+02 0.  0.
        -11    1    3    3    0    0 -0.41576115385E+02 -0.14996567346E+02 -0.48986409501E+02  0.65978320065E+02  0.51100000000E-03 0.  1.
         11    1    3    3    0    0  0.41576115385E+02  0.14996567346E+02 -0.96568065975E+02  0.10620198571E+03  0.51100000000E-03 0. -1.
<mgrwt>
<rscale>  0 0.91977999E+02</rscale>
<asrwt>0</asrwt>
<pdfrwt beam="2">  1        2 0.24441136E-01 0.91977999E+02</pdfrwt>
<pdfrwt beam="1">  1       -2 0.20481409E-02 0.91977999E+02</pdfrwt>
<totfact> 0.13924186E+05</totfact>
</mgrwt>
</event>
<event>
 4    1  0.2809073E+000  0.1633031E+03  0.7818608E-02  0.1185017E+00
         -2   -1    0    0    0  501 -0.00000000000E+00  0.00000000000E+00  0.28508982662E+03  0.28508982663E+03  0.26000000000E-02 0. -1.
          2   -1    0    0  501    0  0.00000000000E+00 -0.00000000000E+00 -0.23385523269E+02  0.23385523414E+02  0.26000000000E-02 0.  1.
        -11    1    1    2    0    0 -0.50038302920E+02 -0.21658516023E+02  0.16042724710E+02  0.56835658630E+02  0.51100000000E-03 0.  1.
         11    1    1    2    0    0  0.50038302920E+02  0.21658516023E+02  0.24566157864E+03  0.25163969142E+03  0.51100000000E-03 0. -1.
<mgrwt>
<rscale>  0 0.16330309E+03</rscale>
<asrwt>0</asrwt>
<pdfrwt beam="2">  1        2 0.35977728E-02 0.16330309E+03</pdfrwt>
<pdfrwt beam="1">  1       -2 0.43859974E-01 0.16330309E+03</pdfrwt>
<totfact> 0.11593748E+04</totfact>
</mgrwt>
</event>
<event>
 5    1  0.2809073E+000  0.9074682E+02  0.7818608E-02  0.1301053E+00
         -2   -1    0    0    0  501 -0.00000000000E+00  0.00000000000E+00  0.16540538655E+02  0.16540538860E+02  0.26000000000E-02 0.  1.
          2   -1    0    0  501    0  0.00000000000E+00 -0.00000000000E+00 -0.12446669262E+03  0.12446669265E+03  0.26000000000E-02 0. -1.
         23    2    1    2    0    0  0.00000000000E+00  0.00000000000E+00 -0.10792615396E+03  0.14100723151E+03  0.90746816074E+02 0.  0.
        -11    1    3    3    0    0  0.26377878013E+02  0.20795724511E+02 -0.65644014485E+01  0.34224932038E+02  0.51100000000E-03 0.  1.
         11    1    3    3    0    0 -0.26377878013E+02 -0.20795724511E+02 -0.10136175252E+03  0.10678229947E+03  0.51100000000E-03 0. -1.
<mgrwt>
<rscale>  0 0.90746816E+02</rscale>
<asrwt>0</asrwt>
<pdfrwt beam="2">  1        2 0.19148721E-01 0.90746816E+02</pdfrwt>
<pdfrwt beam="1">  1       -2 0.25446984E-02 0.90746816E+02</pdfrwt>
<totfact> 0.13310909E+05</totfact>
</mgrwt>
</event>
<event>
 5    1  0.2809073E+000  0.1028710E+03  0.7818608E-02  0.1274372E+00
         -2   -1    0    0    0  501 -0.00000000000E+00  0.00000000000E+00  0.63977327478E+01  0.63977332762E+01  0.26000000000E-02 0.  1.
          2   -1    0    0  501    0  0.00000000000E+00 -0.00000000000E+00 -0.41352351428E+03  0.41352351429E+03  0.26000000000E-02 0. -1.
         23    2    1    2    0    0  0.00000000000E+00  0.00000000000E+00 -0.40712578153E+03  0.41992124757E+03  0.10287104630E+03 0.  0.
        -11    1    3    3    0    0 -0.47395258793E+02 -0.19090577805E+02 -0.17946435980E+03  0.18659640178E+03  0.51100000000E-03 0.  1.
         11    1    3    3    0    0  0.47395258793E+02  0.19090577805E+02 -0.22766142173E+03  0.23332484579E+03  0.51100000000E-03 0. -1.
<mgrwt>
<rscale>  0 0.10287105E+03</rscale>
<asrwt>0</asrwt>
<pdfrwt beam="2">  1        2 0.63618981E-01 0.10287105E+03</pdfrwt>
<pdfrwt beam="1">  1       -2 0.98426694E-03 0.10287105E+03</pdfrwt>
<totfact> 0.14633611E+05</totfact>
</mgrwt>
</event>
<event>
 5    1  0.2809073E+000  0.9243154E+02  0.7818608E-02  0.1297068E+00
          2   -1    0    0  501    0  0.00000000000E+00  0.00000000000E+00  0.13905034130E+03  0.13905034132E+03  0.26000000000E-02 0. -1.
         -2   -1    0    0    0  501 -0.00000000000E+00 -0.00000000000E+00 -0.15360605818E+02  0.15360606038E+02  0.26000000000E-02 0.  1.
         23    2    1    2    0    0  0.00000000000E+00  0.00000000000E+00  0.12368973548E+03  0.15441094736E+03  0.92431542244E+02 0.  0.
        -11    1    3    3    0    0  0.35620290166E+02 -0.60308137823E+01  0.13696045400E+02  0.38636219358E+02  0.51100000000E-03 0.  1.
         11    1    3    3    0    0 -0.35620290166E+02  0.60308137823E+01  0.10999369008E+03  0.11577472800E+03  0.51100000000E-03 0. -1.
<mgrwt>
<rscale>  0 0.92431542E+02</rscale>
<asrwt>0</asrwt>
<pdfrwt beam="1">  1        2 0.21392361E-01 0.92431542E+02</pdfrwt>
<pdfrwt beam="2">  1       -2 0.23631700E-02 0.92431542E+02</pdfrwt>
<totfact> 0.13130014E+05</totfact>
</mgrwt>
</event>
<event>
 5    1  0.2809073E+000  0.9326987E+02  0.7818608E-02  0.1295121E+00
          2   -1    0    0  501    0  0.00000000000E+00  0.00000000000E+00  0.42165681696E+02  0.42165681776E+02  0.26000000000E-02 0. -1.
         -2   -1    0    0    0  501 -0.00000000000E+00 -0.00000000000E+00 -0.51577896770E+02  0.51577896836E+02  0.26000000000E-02 0.  1.
         23    2    1    2    0    0  0.00000000000E+00  0.00000000000E+00 -0.94122150749E+01  0.93743578612E+02  0.93269870474E+02 0.  0.
        -11    1    3    3    0    0 -0.27322004436E+02  0.36702222922E+02  0.43547827172E+01  0.45962041149E+02  0.51100000000E-03 0.  1.
         11    1    3    3    0    0  0.27322004436E+02 -0.36702222922E+02 -0.13766997792E+02  0.47781537463E+02  0.51100000000E-03 0. -1.
<mgrwt>
<rscale>  0 0.93269870E+02</rscale>
<asrwt>0</asrwt>
<pdfrwt beam="1">  1        2 0.64870280E-02 0.93269870E+02</pdfrwt>
<pdfrwt beam="2">  1       -2 0.79350610E-02 0.93269870E+02</pdfrwt>
<totfact> 0.90549395E+04</totfact>
</mgrwt>
</event>
<event>
 5    1  0.2809073E+000  0.9069669E+02  0.7818608E-02  0.1301173E+00
         -2   -1    0    0    0  501 -0.00000000000E+00  0.00000000000E+00  0.25214859757E+03  0.25214859759E+03  0.26000000000E-02 0.  1.
          2   -1    0    0  501    0  0.00000000000E+00 -0.00000000000E+00 -0.81557947255E+01  0.81557951400E+01  0.26000000000E-02 0. -1.
         23    2    1    2    0    0  0.00000000000E+00  0.00000000000E+00  0.24399280285E+03  0.26030439273E+03  0.90696686992E+02 0.  0.
        -11    1    3    3    0    0  0.16035882316E+02 -0.41803605158E+02  0.14264909404E+03  0.14951071853E+03  0.51100000000E-03 0.  1.
         11    1    3    3    0    0 -0.16035882316E+02  0.41803605158E+02  0.10134370881E+03  0.11079367419E+03  0.51100000000E-03 0. -1.
<mgrwt>
<rscale>  0 0.90696687E+02</rscale>
<asrwt>0</asrwt>
<pdfrwt beam="2">  1        2 0.12547375E-02 0.90696687E+02</pdfrwt>
<pdfrwt beam="1">  1       -2 0.38792097E-01 0.90696687E+02</pdfrwt>
<totfact> 0.56699934E+04</totfact>
</mgrwt>
</event>
<event>
 5    1  0.2809073E+000  0.9439623E+02  0.7818608E-02  0.1292542E+00
         -2   -1    0    0    0  501 -0.00000000000E+00  0.00000000000E+00  0.11383436684E+03  0.11383436687E+03  0.26000000000E-02 0.  1.
          2   -1    0    0  501    0  0.00000000000E+00 -0.00000000000E+00 -0.19569328284E+02  0.19569328457E+02  0.26000000000E-02 0. -1.
         23    2    1    2    0    0  0.00000000000E+00  0.00000000000E+00  0.94265038559E+02  0.13340369533E+03  0.94396231032E+02 0.  0.
        -11    1    3    3    0    0  0.90511994375E+01  0.27192183068E+02 -0.58650262917E+01  0.29252992410E+02  0.51100000000E-03 0. -1.
         11    1    3    3    0    0 -0.90511994375E+01 -0.27192183068E+02  0.10013006485E+03  0.10415070292E+03  0.51100000000E-03 0.  1.
<mgrwt>
<rscale>  0 0.94396231E+02</rscale>
<asrwt>0</asrwt>
<pdfrwt beam="2">  1        2 0.30106659E-02 0.94396231E+02</pdfrwt>
<pdfrwt beam="1">  1       -2 0.17512980E-01 0.94396231E+02</pdfrwt>
<totfact> 0.70311115E+04</totfact>
</mgrwt>
</event>
<event>
 5    1  0.2809073E+000  0.9177684E+02  0.7818608E-02  0.1298605E+00
          2   -1    0    0  501    0  0.00000000000E+00  0.00000000000E+00  0.22466333245E+02  0.22466333395E+02  0.26000000000E-02 0. -1.
         -2   -1    0    0    0  501 -0.00000000000E+00 -0.00000000000E+00 -0.93729012529E+02  0.93729012565E+02  0.26000000000E-02 0.  1.
         23    2    1    2    0    0  0.00000000000E+00  0.00000000000E+00 -0.71262679284E+02  0.11619534596E+03  0.91776843289E+02 0.  0.
        -11    1    3    3    0    0  0.14006318736E+01 -0.17378979072E+02 -0.89372083466E+02  0.91056905211E+02  0.51100000000E-03 0.  1.
         11    1    3    3    0    0 -0.14006318736E+01  0.17378979072E+02  0.18109404182E+02  0.25138440750E+02  0.51100000000E-03 0. -1.
<mgrwt>
<rscale>  0 0.91776843E+02</rscale>
<asrwt>0</asrwt>
<pdfrwt beam="1">  1        2 0.34563590E-02 0.91776843E+02</pdfrwt>
<pdfrwt beam="2">  1       -2 0.14419848E-01 0.91776843E+02</pdfrwt>
<totfact> 0.80030445E+04</totfact>
</mgrwt>
</event>
<event>
 5    1  0.2809073E+000  0.9036873E+02  0.7818608E-02  0.1301961E+00
          2   -1    0    0  501    0  0.00000000000E+00  0.00000000000E+00  0.13747759778E+03  0.13747759780E+03  0.26000000000E-02 0.  1.
         -2   -1    0    0    0  501 -0.00000000000E+00 -0.00000000000E+00 -0.14850613428E+02  0.14850613656E+02  0.26000000000E-02 0. -1.
         23    2    1    2    0    0  0.00000000000E+00  0.00000000000E+00  0.12262698435E+03  0.15232821146E+03  0.90368726422E+02 0.  0.
        -11    1    3    3    0    0  0.10020632225E+02  0.26334154762E+02  0.17717172853E+01  0.28231892597E+02  0.51100000000E-03 0. -1.
         11    1    3    3    0    0 -0.10020632225E+02 -0.26334154762E+02  0.12085526706E+03  0.12409631886E+03  0.51100000000E-03 0.  1.
<mgrwt>
<rscale>  0 0.90368726E+02</rscale>
<asrwt>0</asrwt>
<pdfrwt beam="1">  1        2 0.21150400E-01 0.90368726E+02</pdfrwt>
<pdfrwt beam="2">  1       -2 0.22847098E-02 0.90368726E+02</pdfrwt>
<totfact> 0.13909300E+05</totfact>
</mgrwt>
</event>
<event>
 5    1  0.2809073E+000  0.7486577E+02  0.7818608E-02  0.1344287E+00
          2   -1    0    0  501    0  0.00000000000E+00  0.00000000000E+00  0.17055938831E+03  0.17055938833E+03  0.26000000000E-02 0. -1.
         -2   -1    0    0    0  501 -0.00000000000E+00 -0.00000000000E+00 -0.82154418296E+01  0.82154422411E+01  0.26000000000E-02 0.  1.
         23    2    1    2    0    0  0.00000000000E+00  0.00000000000E+00  0.16234394648E+03  0.17877483057E+03  0.74865767122E+02 0.  0.
        -11    1    3    3    0    0 -0.19634501496E+02  0.18160692012E+02  0.14371117793E+03  0.14617875032E+03  0.51100000000E-03 0. -1.
         11    1    3    3    0    0  0.19634501496E+02 -0.18160692012E+02  0.18632768545E+02  0.32596080244E+02  0.51100000000E-03 0.  1.
<mgrwt>
<rscale>  0 0.74865767E+02</rscale>
<asrwt>0</asrwt>
<pdfrwt beam="1">  1        2 0.26239903E-01 0.74865767E+02</pdfrwt>
<pdfrwt beam="2">  1       -2 0.12639143E-02 0.74865767E+02</pdfrwt>
<totfact> 0.24738110E+05</totfact>
</mgrwt>
</event>
<event>
 5    1  0.2809073E+000  0.9104224E+02  0.7818608E-02  0.1300347E+00
         -2   -1    0    0    0  501 -0.00000000000E+00  0.00000000000E+00  0.20356526030E+02  0.20356526196E+02  0.26000000000E-02 0.  1.
          2   -1    0    0  501    0  0.00000000000E+00 -0.00000000000E+00 -0.10179401674E+03  0.10179401677E+03  0.26000000000E-02 0. -1.
         23    2    1    2    0    0  0.00000000000E+00  0.00000000000E+00 -0.81437490710E+02  0.12215054297E+03  0.91042244340E+02 0.  0.
        -11    1    3    3    0    0 -0.52095002315E+01  0.23726221475E+02 -0.92371229452E+02  0.95511865801E+02  0.51100000000E-03 0. -1.
         11    1    3    3    0    0  0.52095002315E+01 -0.23726221475E+02  0.10933738742E+02  0.26638677168E+02  0.51100000000E-03 0.  1.
<mgrwt>
<rscale>  0 0.91042244E+02</rscale>
<asrwt>0</asrwt>
<pdfrwt beam="2">  1        2 0.15660618E-01 0.91042244E+02</pdfrwt>
<pdfrwt beam="1">  1       -2 0.31317733E-02 0.91042244E+02</pdfrwt>
<totfact> 0.12384661E+05</totfact>
</mgrwt>
</event>
<event>
 5    1  0.2809073E+000  0.9168511E+02  0.7818608E-02  0.1298822E+00
         -2   -1    0    0    0  501 -0.00000000000E+00  0.00000000000E+00  0.18018135606E+02  0.18018135793E+02  0.26000000000E-02 0.  1.
          2   -1    0    0  501    0  0.00000000000E+00 -0.00000000000E+00 -0.11663469407E+03  0.11663469410E+03  0.26000000000E-02 0. -1.
         23    2    1    2    0    0  0.00000000000E+00  0.00000000000E+00 -0.98616558469E+02  0.13465282990E+03  0.91685107814E+02 0.  0.
        -11    1    3    3    0    0 -0.26604720924E+02  0.81191534915E+01 -0.10282436146E+03  0.10652033205E+03  0.51100000000E-03 0. -1.
         11    1    3    3    0    0  0.26604720924E+02 -0.81191534915E+01  0.42078029955E+01  0.28132497848E+02  0.51100000000E-03 0.  1.
<mgrwt>
<rscale>  0 0.91685108E+02</rscale>
<asrwt>0</asrwt>
<pdfrwt beam="2">  1        2 0.17943799E-01 0.91685108E+02</pdfrwt>
<pdfrwt beam="1">  1       -2 0.27720210E-02 0.91685108E+02</pdfrwt>
<totfact> 0.12674572E+05</totfact>
</mgrwt>
</event>
<event>
 5    1  0.2809073E+000  0.8931100E+02  0.7818608E-02  0.1304529E+00
          2   -1    0    0  501    0  0.00000000000E+00  0.00000000000E+00  0.27596825780E+02  0.27596825903E+02  0.26000000000E-02 0.  1.
         -2   -1    0    0    0  501 -0.00000000000E+00 -0.00000000000E+00 -0.72258801776E+02  0.72258801823E+02  0.26000000000E-02 0. -1.
         23    2    1    2    0    0  0.00000000000E+00  0.00000000000E+00 -0.44661975996E+02  0.99855627725E+02  0.89310997579E+02 0.  0.
        -11    1    3    3    0    0  0.22190494583E+02  0.11264420010E+02  0.19125135421E+02  0.31385920619E+02  0.51100000000E-03 0.  1.
         11    1    3    3    0    0 -0.22190494583E+02 -0.11264420010E+02 -0.63787111417E+02  0.68469707106E+02  0.51100000000E-03 0. -1.
<mgrwt>
<rscale>  0 0.89310998E+02</rscale>
<asrwt>0</asrwt>
<pdfrwt beam="1">  1        2 0.42456655E-02 0.89310998E+02</pdfrwt>
<pdfrwt beam="2">  1       -2 0.11116739E-01 0.89310998E+02</pdfrwt>
<totfact> 0.91997983E+04</totfact>
</mgrwt>
</event>
<event>
 5    1  0.2809073E+000  0.5842293E+02  0.7818608E-02  0.1404572E+00
         -2   -1    0    0    0  501 -0.00000000000E+00  0.00000000000E+00  0.61267523578E+01  0.61267529094E+01  0.26000000000E-02 0. -1.
          2   -1    0    0  501    0  0.00000000000E+00 -0.00000000000E+00 -0.13927599086E+03  0.13927599089E+03  0.26000000000E-02 0.  1.
         23    2    1    2    0    0  0.00000000000E+00  0.00000000000E+00 -0.13314923851E+03  0.14540274380E+03  0.58422925201E+02 0.  0.
        -11    1    3    3    0    0  0.23542636107E+02  0.16675066498E+02 -0.55170612213E+02  0.62258413165E+02  0.51100000000E-03 0.  1.
         11    1    3    3    0    0 -0.23542636107E+02 -0.16675066498E+02 -0.77978626292E+02  0.83144330632E+02  0.51100000000E-03 0. -1.
<mgrwt>
<rscale>  0 0.58422925E+02</rscale>
<asrwt>0</asrwt>
<pdfrwt beam="2">  1        2 0.21427073E-01 0.58422925E+02</pdfrwt>
<pdfrwt beam="1">  1       -2 0.94257744E-03 0.58422925E+02</pdfrwt>
<totfact> 0.44200984E+05</totfact>
</mgrwt>
</event>
<event>
 5    1  0.2809073E+000  0.9190280E+02  0.7818608E-02  0.1298308E+00
         -2   -1    0    0    0  501 -0.00000000000E+00  0.00000000000E+00  0.71153563544E+01  0.71153568294E+01  0.26000000000E-02 0.  1.
          2   -1    0    0  501    0  0.00000000000E+00 -0.00000000000E+00 -0.29675688913E+03  0.29675688914E+03  0.26000000000E-02 0. -1.
         23    2    1    2    0    0  0.00000000000E+00  0.00000000000E+00 -0.28964153278E+03  0.30387224597E+03  0.91902798450E+02 0.  0.
        -11    1    3    3    0    0  0.96264035094E+01 -0.36994657163E+02 -0.60505655639E+02  0.71569593178E+02  0.51100000000E-03 0.  1.
         11    1    3    3    0    0 -0.96264035094E+01  0.36994657163E+02 -0.22913587714E+03  0.23230265280E+03  0.51100000000E-03 0. -1.
<mgrwt>
<rscale>  0 0.91902798E+02</rscale>
<asrwt>0</asrwt>
<pdfrwt beam="2">  1        2 0.45654896E-01 0.91902798E+02</pdfrwt>
<pdfrwt beam="1">  1       -2 0.10946705E-02 0.91902798E+02</pdfrwt>
<totfact> 0.17518292E+05</totfact>
</mgrwt>
</event>
<event>
 5    1  0.2809073E+000  0.9123048E+02  0.7818608E-02  0.1299899E+00
          2   -1    0    0  501    0  0.00000000000E+00  0.00000000000E+00  0.22736945121E+03  0.22736945122E+03  0.26000000000E-02 0. -1.
         -2   -1    0    0    0  501 -0.00000000000E+00 -0.00000000000E+00 -0.91514062438E+01  0.91514066132E+01  0.26000000000E-02 0.  1.
         23    2    1    2    0    0  0.00000000000E+00  0.00000000000E+00  0.21821804496E+03  0.23652085784E+03  0.91230483083E+02 0.  0.
        -11    1    3    3    0    0 -0.28621692621E+02 -0.15882881738E+02  0.26745301519E+02  0.42270301328E+02  0.51100000000E-03 0.  1.
         11    1    3    3    0    0  0.28621692621E+02  0.15882881738E+02  0.19147274345E+03  0.19425055651E+03  0.51100000000E-03 0. -1.
<mgrwt>
<rscale>  0 0.91230483E+02</rscale>
<asrwt>0</asrwt>
<pdfrwt beam="1">  1        2 0.34979910E-01 0.91230483E+02</pdfrwt>
<pdfrwt beam="2">  1       -2 0.14079089E-02 0.91230483E+02</pdfrwt>
<totfact> 0.16183167E+05</totfact>
</mgrwt>
</event>
<event>
 5    1  0.2809073E+000  0.8951764E+02  0.7818608E-02  0.1304024E+00
          2   -1    0    0  501    0  0.00000000000E+00  0.00000000000E+00  0.18808394495E+03  0.18808394496E+03  0.26000000000E-02 0. -1.
         -2   -1    0    0    0  501 -0.00000000000E+00 -0.00000000000E+00 -0.10651371851E+02  0.10651372168E+02  0.26000000000E-02 0.  1.
         23    2    1    2    0    0  0.00000000000E+00  0.00000000000E+00  0.17743257309E+03  0.19873531713E+03  0.89517642285E+02 0.  0.
        -11    1    3    3    0    0 -0.36014634526E+02  0.26333984570E+02  0.96665070893E+02  0.10646440050E+03  0.51100000000E-03 0. -1.
         11    1    3    3    0    0  0.36014634526E+02 -0.26333984570E+02  0.80767502202E+02  0.92270916629E+02  0.51100000000E-03 0.  1.
<mgrwt>
<rscale>  0 0.89517642E+02</rscale>
<asrwt>0</asrwt>
<pdfrwt beam="1">  1        2 0.28935992E-01 0.89517642E+02</pdfrwt>
<pdfrwt beam="2">  1       -2 0.16386726E-02 0.89517642E+02</pdfrwt>
<totfact> 0.15896551E+05</totfact>
</mgrwt>
</event>
<event>
 5    1  0.2809073E+000  0.9046427E+02  0.7818608E-02  0.1301731E+00
          2   -1    0    0  501    0  0.00000000000E+00  0.00000000000E+00  0.54917622893E+02  0.54917622955E+02  0.26000000000E-02 0. -1.
         -2   -1    0    0    0  501 -0.00000000000E+00 -0.00000000000E+00 -0.37254816779E+02  0.37254816870E+02  0.26000000000E-02 0.  1.
         23    2    1    2    0    0  0.00000000000E+00  0.00000000000E+00  0.17662806114E+02  0.92172439825E+02  0.90464268877E+02 0.  0.
        -11    1    3    3    0    0 -0.10889954590E+02 -0.24422149558E+02 -0.28339141076E+02  0.38963308601E+02  0.51100000000E-03 0.  1.
         11    1    3    3    0    0  0.10889954590E+02  0.24422149558E+02  0.46001947190E+02  0.53209131223E+02  0.51100000000E-03 0. -1.
<mgrwt>
<rscale>  0 0.90464269E+02</rscale>
<asrwt>0</asrwt>
<pdfrwt beam="1">  1        2 0.84488651E-02 0.90464269E+02</pdfrwt>
<pdfrwt beam="2">  1       -2 0.57315103E-02 0.90464269E+02</pdfrwt>
<totfact> 0.10592674E+05</totfact>
</mgrwt>
</event>
<event>
 5    1  0.2809073E+000  0.8524816E+02  0.7818608E-02  0.1314785E+00
         -2   -1    0    0    0  501 -0.00000000000E+00  0.00000000000E+00  0.35469479215E+02  0.35469479311E+02  0.26000000000E-02 0.  1.
          2   -1    0    0  501    0  0.00000000000E+00 -0.00000000000E+00 -0.51221842535E+02  0.51221842601E+02  0.26000000000E-02 0. -1.
         23    2    1    2    0    0  0.00000000000E+00  0.00000000000E+00 -0.15752363320E+02  0.86691321912E+02  0.85248157427E+02 0.  0.
        -11    1    3    3    0    0  0.17588443688E+02 -0.10400250024E+02 -0.45916578437E+02  0.50257842448E+02  0.51100000000E-03 0. -1.
         11    1    3    3    0    0 -0.17588443688E+02  0.10400250024E+02  0.30164215117E+02  0.36433479464E+02  0.51100000000E-03 0.  1.
<mgrwt>
<rscale>  0 0.85248157E+02</rscale>
<asrwt>0</asrwt>
<pdfrwt beam="2">  1        2 0.78802835E-02 0.85248157E+02</pdfrwt>
<pdfrwt beam="1">  1       -2 0.54568430E-02 0.85248157E+02</pdfrwt>
<totfact> 0.12301144E+05</totfact>
</mgrwt>
</event>
<event>
 5    1  0.2809073E+000  0.9176063E+02  0.7818608E-02  0.1298643E+00
          2   -1    0    0  501    0  0.00000000000E+00  0.00000000000E+00  0.21831233122E+03  0.21831233124E+03  0.26000000000E-02 0.  1.
         -2   -1    0    0    0  501 -0.00000000000E+00 -0.00000000000E+00 -0.96421642380E+01  0.96421645886E+01  0.26000000000E-02 0. -1.
         23    2    1    2    0    0  0.00000000000E+00  0.00000000000E+00  0.20867016698E+03  0.22795449582E+03  0.91760631962E+02 0.  0.
        -11    1    3    3    0    0  0.20370805085E+02 -0.27753171839E+02  0.28993052540E+02  0.45008947364E+02  0.51100000000E-03 0. -1.
         11    1    3    3    0    0 -0.20370805085E+02  0.27753171839E+02  0.17967711444E+03  0.18294554846E+03  0.51100000000E-03 0.  1.
<mgrwt>
<rscale>  0 0.91760632E+02</rscale>
<asrwt>0</asrwt>
<pdfrwt beam="1">  1        2 0.33586513E-01 0.91760632E+02</pdfrwt>
<pdfrwt beam="2">  1       -2 0.14834099E-02 0.91760632E+02</pdfrwt>
<totfact> 0.15697156E+05</totfact>
</mgrwt>
</event>
<event>
 5    1  0.2809073E+000  0.9041255E+02  0.7818608E-02  0.1301856E+00
         -2   -1    0    0    0  501 -0.00000000000E+00  0.00000000000E+00  0.65953369957E+02  0.65953370008E+02  0.26000000000E-02 0.  1.
          2   -1    0    0  501    0  0.00000000000E+00 -0.00000000000E+00 -0.30985641550E+02  0.30985641659E+02  0.26000000000E-02 0. -1.
         23    2    1    2    0    0  0.00000000000E+00  0.00000000000E+00  0.34967728407E+02  0.96939011667E+02  0.90412554179E+02 0.  0.
        -11    1    3    3    0    0 -0.23055905349E+01  0.25565575410E+02  0.57381449548E+02  0.62861316771E+02  0.51100000000E-03 0.  1.
         11    1    3    3    0    0  0.23055905349E+01 -0.25565575410E+02 -0.22413721142E+02  0.34077694896E+02  0.51100000000E-03 0. -1.
<mgrwt>
<rscale>  0 0.90412554E+02</rscale>
<asrwt>0</asrwt>
<pdfrwt beam="2">  1        2 0.47670218E-02 0.90412554E+02</pdfrwt>
<pdfrwt beam="1">  1       -2 0.10146672E-01 0.90412554E+02</pdfrwt>
<totfact> 0.91477505E+04</totfact>
</mgrwt>
</event>
<event>
 5    1  0.2809073E+000  0.9186852E+02  0.7818608E-02  0.1298389E+00
         -2   -1    0    0    0  501 -0.00000000000E+00  0.00000000000E+00  0.19334596539E+02  0.19334596713E+02  0.26000000000E-02 0.  1.
          2   -1    0    0  501    0  0.00000000000E+00 -0.00000000000E+00 -0.10912853228E+03  0.10912853231E+03  0.26000000000E-02 0. -1.
         23    2    1    2    0    0  0.00000000000E+00  0.00000000000E+00 -0.89793935743E+02  0.12846312903E+03  0.91868518127E+02 0.  0.
        -11    1    3    3    0    0 -0.14604155077E+02  0.33139101584E+02 -0.84410184021E+02  0.91850751581E+02  0.51100000000E-03 0. -1.
         11    1    3    3    0    0  0.14604155077E+02 -0.33139101584E+02 -0.53837517215E+01  0.36612377444E+02  0.51100000000E-03 0.  1.
<mgrwt>
<rscale>  0 0.91868518E+02</rscale>
<asrwt>0</asrwt>
<pdfrwt beam="2">  1        2 0.16789005E-01 0.91868518E+02</pdfrwt>
<pdfrwt beam="1">  1       -2 0.29745534E-02 0.91868518E+02</pdfrwt>
<totfact> 0.12343451E+05</totfact>
</mgrwt>
</event>
<event>
 5    1  0.2809073E+000  0.8689121E+02  0.7818608E-02  0.1310560E+00
         -2   -1    0    0    0  501 -0.00000000000E+00  0.00000000000E+00  0.67308934273E+01  0.67308939294E+01  0.26000000000E-02 0.  1.
          2   -1    0    0  501    0  0.00000000000E+00 -0.00000000000E+00 -0.28042641402E+03  0.28042641403E+03  0.26000000000E-02 0. -1.
         23    2    1    2    0    0  0.00000000000E+00  0.00000000000E+00 -0.27369552059E+03  0.28715730796E+03  0.86891205096E+02 0.  0.
        -11    1    3    3    0    0  0.16668613946E+02 -0.39825721361E+02 -0.12079667465E+03  0.12828003500E+03  0.51100000000E-03 0. -1.
         11    1    3    3    0    0 -0.16668613946E+02  0.39825721361E+02 -0.15289884594E+03  0.15887727296E+03  0.51100000000E-03 0.  1.
<mgrwt>
<rscale>  0 0.86891205E+02</rscale>
<asrwt>0</asrwt>
<pdfrwt beam="2">  1        2 0.43142516E-01 0.86891205E+02</pdfrwt>
<pdfrwt beam="1">  1       -2 0.10355223E-02 0.86891205E+02</pdfrwt>
<totfact> 0.19916195E+05</totfact>
</mgrwt>
</event>
<event>
 5    1  0.2809073E+000  0.9284123E+02  0.7818608E-02  0.1296114E+00
         -2   -1    0    0    0  501 -0.00000000000E+00  0.00000000000E+00  0.10317717316E+03  0.10317717319E+03  0.26000000000E-02 0. -1.
          2   -1    0    0  501    0  0.00000000000E+00 -0.00000000000E+00 -0.20885176920E+02  0.20885177082E+02  0.26000000000E-02 0.  1.
         23    2    1    2    0    0  0.00000000000E+00  0.00000000000E+00  0.82291996238E+02  0.12406235027E+03  0.92841230659E+02 0.  0.
        -11    1    3    3    0    0 -0.29590033280E+02  0.23416437119E+02  0.50174873683E+01  0.38066714813E+02  0.51100000000E-03 0. -1.
         11    1    3    3    0    0  0.29590033280E+02 -0.23416437119E+02  0.77274508869E+02  0.85995635460E+02  0.51100000000E-03 0.  1.
<mgrwt>
<rscale>  0 0.92841231E+02</rscale>
<asrwt>0</asrwt>
<pdfrwt beam="2">  1        2 0.32131041E-02 0.92841231E+02</pdfrwt>
<pdfrwt beam="1">  1       -2 0.15873412E-01 0.92841231E+02</pdfrwt>
<totfact> 0.75572174E+04</totfact>
</mgrwt>
</event>
<event>
 5    1  0.2809073E+000  0.9171829E+02  0.7818608E-02  0.1298743E+00
          2   -1    0    0  501    0  0.00000000000E+00  0.00000000000E+00  0.94478856335E+02  0.94478856371E+02  0.26000000000E-02 0. -1.
         -2   -1    0    0    0  501 -0.00000000000E+00 -0.00000000000E+00 -0.22259597776E+02  0.22259597928E+02  0.26000000000E-02 0.  1.
         23    2    1    2    0    0  0.00000000000E+00  0.00000000000E+00  0.72219258560E+02  0.11673845430E+03  0.91718293732E+02 0.  0.
        -11    1    3    3    0    0 -0.12803010373E+02  0.44019766217E+02  0.37618015104E+02  0.59302377297E+02  0.51100000000E-03 0.  1.
         11    1    3    3    0    0  0.12803010373E+02 -0.44019766217E+02  0.34601243456E+02  0.57436077002E+02  0.51100000000E-03 0. -1.
<mgrwt>
<rscale>  0 0.91718294E+02</rscale>
<asrwt>0</asrwt>
<pdfrwt beam="1">  1        2 0.14535209E-01 0.91718294E+02</pdfrwt>
<pdfrwt beam="2">  1       -2 0.34245535E-02 0.91718294E+02</pdfrwt>
<totfact> 0.11863250E+05</totfact>
</mgrwt>
</event>
<event>
 5    1  0.2809073E+000  0.9065092E+02  0.7818608E-02  0.1301283E+00
          2   -1    0    0  501    0  0.00000000000E+00  0.00000000000E+00  0.17934488446E+03  0.17934488447E+03  0.26000000000E-02 0. -1.
         -2   -1    0    0    0  501 -0.00000000000E+00 -0.00000000000E+00 -0.11455008747E+02  0.11455009042E+02  0.26000000000E-02 0.  1.
         23    2    1    2    0    0  0.00000000000E+00  0.00000000000E+00  0.16788987571E+03  0.19079989352E+03  0.90650918365E+02 0.  0.
        -11    1    3    3    0    0  0.80762203921E+01 -0.27261224019E+02  0.96490941307E+01  0.30025067671E+02  0.51100000000E-03 0.  1.
         11    1    3    3    0    0 -0.80762203921E+01  0.27261224019E+02  0.15824078158E+03  0.16077482584E+03  0.51100000000E-03 0. -1.
<mgrwt>
<rscale>  0 0.90650918E+02</rscale>
<asrwt>0</asrwt>
<pdfrwt beam="1">  1        2 0.27591521E-01 0.90650918E+02</pdfrwt>
<pdfrwt beam="2">  1       -2 0.17623091E-02 0.90650918E+02</pdfrwt>
<totfact> 0.15109378E+05</totfact>
</mgrwt>
</event>
<event>
 5    1  0.2809073E+000  0.9568596E+02  0.7818608E-02  0.1289639E+00
          2   -1    0    0  501    0  0.00000000000E+00  0.00000000000E+00  0.52368561609E+02  0.52368561674E+02  0.26000000000E-02 0. -1.
         -2   -1    0    0    0  501 -0.00000000000E+00 -0.00000000000E+00 -0.43708490347E+02  0.43708490424E+02  0.26000000000E-02 0.  1.
         23    2    1    2    0    0  0.00000000000E+00  0.00000000000E+00  0.86600712627E+01  0.96077052098E+02  0.95685960859E+02 0.  0.
        -11    1    3    3    0    0 -0.38286496557E+02 -0.67023605341E+01 -0.23679739070E+02  0.45513816562E+02  0.51100000000E-03 0.  1.
         11    1    3    3    0    0  0.38286496557E+02  0.67023605341E+01  0.32339810333E+02  0.50563235537E+02  0.51100000000E-03 0. -1.
<mgrwt>
<rscale>  0 0.95685961E+02</rscale>
<asrwt>0</asrwt>
<pdfrwt beam="1">  1        2 0.80567017E-02 0.95685961E+02</pdfrwt>
<pdfrwt beam="2">  1       -2 0.67243832E-02 0.95685961E+02</pdfrwt>
<totfact> 0.89119354E+04</totfact>
</mgrwt>
</event>
<event>
 5    1  0.2809073E+000  0.8845148E+02  0.7818608E-02  0.1306646E+00
          2   -1    0    0  501    0  0.00000000000E+00  0.00000000000E+00  0.66496006772E+02  0.66496006823E+02  0.26000000000E-02 0. -1.
         -2   -1    0    0    0  501 -0.00000000000E+00 -0.00000000000E+00 -0.29414035001E+02  0.29414035116E+02  0.26000000000E-02 0.  1.
         23    2    1    2    0    0  0.00000000000E+00  0.00000000000E+00  0.37081971771E+02  0.95910041939E+02  0.88451475479E+02 0.  0.
        -11    1    3    3    0    0  0.14459880508E+02  0.82751686567E+01  0.62963197558E+02  0.65130106768E+02  0.51100000000E-03 0. -1.
         11    1    3    3    0    0 -0.14459880508E+02 -0.82751686567E+01 -0.25881225788E+02  0.30779935171E+02  0.51100000000E-03 0.  1.
<mgrwt>
<rscale>  0 0.88451475E+02</rscale>
<asrwt>0</asrwt>
<pdfrwt beam="1">  1        2 0.10230155E-01 0.88451475E+02</pdfrwt>
<pdfrwt beam="2">  1       -2 0.45252362E-02 0.88451475E+02</pdfrwt>
<totfact> 0.11872199E+05</totfact>
</mgrwt>
</event>
<event>
 5    1  0.2809073E+000  0.9079491E+02  0.7818608E-02  0.1300938E+00
          2   -1    0    0  501    0  0.00000000000E+00  0.00000000000E+00  0.13766307039E+03  0.13766307041E+03  0.26000000000E-02 0. -1.
         -2   -1    0    0    0  501 -0.00000000000E+00 -0.00000000000E+00 -0.14970817456E+02  0.14970817682E+02  0.26000000000E-02 0.  1.
         23    2    1    2    0    0  0.00000000000E+00  0.00000000000E+00  0.12269225293E+03  0.15263388809E+03  0.90794905503E+02 0.  0.
        -11    1    3    3    0    0 -0.31282539233E+02  0.26522603156E+02  0.94068291669E+02  0.10262012101E+03  0.51100000000E-03 0. -1.
         11    1    3    3    0    0  0.31282539233E+02 -0.26522603156E+02  0.28623961262E+02  0.50013767080E+02  0.51100000000E-03 0.  1.
<mgrwt>
<rscale>  0 0.90794906E+02</rscale>
<asrwt>0</asrwt>
<pdfrwt beam="1">  1        2 0.21178934E-01 0.90794906E+02</pdfrwt>
<pdfrwt beam="2">  1       -2 0.23032027E-02 0.90794906E+02</pdfrwt>
<totfact> 0.13738799E+05</totfact>
</mgrwt>
</event>
<event>
 5    1  0.2809073E+000  0.9282801E+02  0.7818608E-02  0.1296144E+00
          2   -1    0    0  501    0  0.00000000000E+00  0.00000000000E+00  0.17180209909E+02  0.17180210105E+02  0.26000000000E-02 0.  1.
         -2   -1    0    0    0  501 -0.00000000000E+00 -0.00000000000E+00 -0.12539195300E+03  0.12539195303E+03  0.26000000000E-02 0. -1.
         23    2    1    2    0    0  0.00000000000E+00  0.00000000000E+00 -0.10821174310E+03  0.14257216314E+03  0.92828014940E+02 0.  0.
        -11    1    3    3    0    0  0.40616589940E+02 -0.17623033879E+01 -0.19713019373E+02  0.45182034313E+02  0.51100000000E-03 0.  1.
         11    1    3    3    0    0 -0.40616589940E+02  0.17623033879E+01 -0.88498723723E+02  0.97390128824E+02  0.51100000000E-03 0. -1.
<mgrwt>
<rscale>  0 0.92828015E+02</rscale>
<asrwt>0</asrwt>
<pdfrwt beam="1">  1        2 0.26431093E-02 0.92828015E+02</pdfrwt>
<pdfrwt beam="2">  1       -2 0.19291069E-01 0.92828015E+02</pdfrwt>
<totfact> 0.71056286E+04</totfact>
</mgrwt>
</event>
<event>
 5    1  0.2809073E+000  0.9063238E+02  0.7818608E-02  0.1301327E+00
          2   -1    0    0  501    0  0.00000000000E+00  0.00000000000E+00  0.90030969326E+02  0.90030969364E+02  0.26000000000E-02 0. -1.
         -2   -1    0    0    0  501 -0.00000000000E+00 -0.00000000000E+00 -0.22809453377E+02  0.22809453525E+02  0.26000000000E-02 0.  1.
         23    2    1    2    0    0  0.00000000000E+00  0.00000000000E+00  0.67221515949E+02  0.11284042289E+03  0.90632382906E+02 0.  0.
        -11    1    3    3    0    0  0.32486332121E+02 -0.14028417100E+02 -0.16349054838E+01  0.35423596334E+02  0.51100000000E-03 0.  1.
         11    1    3    3    0    0 -0.32486332121E+02  0.14028417100E+02  0.68856421433E+02  0.77416826555E+02  0.51100000000E-03 0. -1.
<mgrwt>
<rscale>  0 0.90632383E+02</rscale>
<asrwt>0</asrwt>
<pdfrwt beam="1">  1        2 0.13850919E-01 0.90632383E+02</pdfrwt>
<pdfrwt beam="2">  1       -2 0.35091466E-02 0.90632383E+02</pdfrwt>
<totfact> 0.12085345E+05</totfact>
</mgrwt>
</event>
<event>
 5    1  0.2809073E+000  0.1096600E+03  0.7818608E-02  0.1261201E+00
         -2   -1    0    0    0  501 -0.00000000000E+00  0.00000000000E+00  0.94380595292E+02  0.94380595327E+02  0.26000000000E-02 0.  1.
          2   -1    0    0  501    0  0.00000000000E+00 -0.00000000000E+00 -0.31853238062E+02  0.31853238168E+02  0.26000000000E-02 0. -1.
         23    2    1    2    0    0  0.00000000000E+00  0.00000000000E+00  0.62527357230E+02  0.12623383350E+03  0.10965997591E+03 0.  0.
        -11    1    3    3    0    0  0.41858159936E+02  0.25296279649E+02  0.59795207531E+02  0.77249428226E+02  0.51100000000E-03 0.  1.
         11    1    3    3    0    0 -0.41858159936E+02 -0.25296279649E+02  0.27321496988E+01  0.48984405269E+02  0.51100000000E-03 0. -1.
<mgrwt>
<rscale>  0 0.10965998E+03</rscale>
<asrwt>0</asrwt>
<pdfrwt beam="2">  1        2 0.49004983E-02 0.10965998E+03</pdfrwt>
<pdfrwt beam="1">  1       -2 0.14520091E-01 0.10965998E+03</pdfrwt>
<totfact> 0.51434614E+04</totfact>
</mgrwt>
</event>
<event>
 5    1  0.2809073E+000  0.8951956E+02  0.7818608E-02  0.1304019E+00
          2   -1    0    0  501    0  0.00000000000E+00  0.00000000000E+00  0.12118196818E+02  0.12118197097E+02  0.26000000000E-02 0. -1.
         -2   -1    0    0    0  501 -0.00000000000E+00 -0.00000000000E+00 -0.16532476069E+03  0.16532476071E+03  0.26000000000E-02 0.  1.
         23    2    1    2    0    0  0.00000000000E+00  0.00000000000E+00 -0.15320656388E+03  0.17744295781E+03  0.89519562454E+02 0.  0.
        -11    1    3    3    0    0  0.29078149551E+02  0.33979876961E+02 -0.73020433899E+02  0.85628001183E+02  0.51100000000E-03 0.  1.
         11    1    3    3    0    0 -0.29078149551E+02 -0.33979876961E+02 -0.80186129976E+02  0.91814956627E+02  0.51100000000E-03 0. -1.
<mgrwt>
<rscale>  0 0.89519562E+02</rscale>
<asrwt>0</asrwt>
<pdfrwt beam="1">  1        2 0.18643381E-02 0.89519562E+02</pdfrwt>
<pdfrwt beam="2">  1       -2 0.25434577E-01 0.89519562E+02</pdfrwt>
<totfact> 0.70567781E+04</totfact>
</mgrwt>
</event>
<event>
 5    1  0.2809073E+000  0.9612801E+02  0.7818608E-02  0.1288656E+00
         -2   -1    0    0    0  501 -0.00000000000E+00  0.00000000000E+00  0.43046345048E+01  0.43046352900E+01  0.26000000000E-02 0.  1.
          2   -1    0    0  501    0  0.00000000000E+00 -0.00000000000E+00 -0.53666542439E+03  0.53666542439E+03  0.26000000000E-02 0. -1.
         23    2    1    2    0    0  0.00000000000E+00  0.00000000000E+00 -0.53236078988E+03  0.54097005968E+03  0.96128012930E+02 0.  0.
        -11    1    3    3    0    0 -0.13205553353E+02 -0.46160064074E+02 -0.25358341305E+03  0.25808852266E+03  0.51100000000E-03 0.  1.
         11    1    3    3    0    0  0.13205553353E+02  0.46160064074E+02 -0.27877737683E+03  0.28288153702E+03  0.51100000000E-03 0. -1.
<mgrwt>
<rscale>  0 0.96128013E+02</rscale>
<asrwt>0</asrwt>
<pdfrwt beam="2">  1        2 0.82563858E-01 0.96128013E+02</pdfrwt>
<pdfrwt beam="1">  1       -2 0.66225195E-03 0.96128013E+02</pdfrwt>
<totfact> 0.19155648E+05</totfact>
</mgrwt>
</event>
<event>
 5    1  0.2809073E+000  0.8743542E+02  0.7818608E-02  0.1309184E+00
         -2   -1    0    0    0  501 -0.00000000000E+00  0.00000000000E+00  0.91110070131E+02  0.91110070168E+02  0.26000000000E-02 0.  1.
          2   -1    0    0  501    0  0.00000000000E+00 -0.00000000000E+00 -0.20977242570E+02  0.20977242731E+02  0.26000000000E-02 0. -1.
         23    2    1    2    0    0  0.00000000000E+00  0.00000000000E+00  0.70132827561E+02  0.11208731290E+03  0.87435417373E+02 0.  0.
        -11    1    3    3    0    0  0.18436955363E+02  0.38795984800E+02  0.45495821849E+02  0.62569318085E+02  0.51100000000E-03 0. -1.
         11    1    3    3    0    0 -0.18436955363E+02 -0.38795984800E+02  0.24637005712E+02  0.49517994814E+02  0.51100000000E-03 0.  1.
<mgrwt>
<rscale>  0 0.87435417E+02</rscale>
<asrwt>0</asrwt>
<pdfrwt beam="2">  1        2 0.32272681E-02 0.87435417E+02</pdfrwt>
<pdfrwt beam="1">  1       -2 0.14016934E-01 0.87435417E+02</pdfrwt>
<totfact> 0.90976871E+04</totfact>
</mgrwt>
</event>
<event>
 5    1  0.2809073E+000  0.9055526E+02  0.7818608E-02  0.1301513E+00
         -2   -1    0    0    0  501 -0.00000000000E+00  0.00000000000E+00  0.30935282543E+02  0.30935282652E+02  0.26000000000E-02 0.  1.
          2   -1    0    0  501    0  0.00000000000E+00 -0.00000000000E+00 -0.66269432496E+02  0.66269432547E+02  0.26000000000E-02 0. -1.
         23    2    1    2    0    0  0.00000000000E+00  0.00000000000E+00 -0.35334149953E+02  0.97204715199E+02  0.90555256634E+02 0.  0.
        -11    1    3    3    0    0  0.16246207542E+02  0.15689552277E+02  0.24456838606E+02  0.33290212751E+02  0.51100000000E-03 0.  1.
         11    1    3    3    0    0 -0.16246207542E+02 -0.15689552277E+02 -0.59790988559E+02  0.63914502449E+02  0.51100000000E-03 0. -1.
<mgrwt>
<rscale>  0 0.90555257E+02</rscale>
<asrwt>0</asrwt>
<pdfrwt beam="2">  1        2 0.10195297E-01 0.90555257E+02</pdfrwt>
<pdfrwt beam="1">  1       -2 0.47592743E-02 0.90555257E+02</pdfrwt>
<totfact> 0.11107299E+05</totfact>
</mgrwt>
</event>
<event>
 5    1  0.2809073E+000  0.9149582E+02  0.7818608E-02  0.1299269E+00
         -2   -1    0    0    0  501 -0.00000000000E+00  0.00000000000E+00  0.29445410292E+02  0.29445410406E+02  0.26000000000E-02 0.  1.
          2   -1    0    0  501    0  0.00000000000E+00 -0.00000000000E+00 -0.71076316203E+02  0.71076316250E+02  0.26000000000E-02 0. -1.
         23    2    1    2    0    0  0.00000000000E+00  0.00000000000E+00 -0.41630905911E+02  0.10052172666E+03  0.91495820686E+02 0.  0.
        -11    1    3    3    0    0 -0.32414153512E+02 -0.29426261205E+02 -0.62282703970E+01  0.44219605932E+02  0.51100000000E-03 0.  1.
         11    1    3    3    0    0  0.32414153512E+02  0.29426261205E+02 -0.35402635514E+02  0.56302120724E+02  0.51100000000E-03 0. -1.
<mgrwt>
<rscale>  0 0.91495821E+02</rscale>
<asrwt>0</asrwt>
<pdfrwt beam="2">  1        2 0.10934818E-01 0.91495821E+02</pdfrwt>
<pdfrwt beam="1">  1       -2 0.45300632E-02 0.91495821E+02</pdfrwt>
<totfact> 0.11000829E+05</totfact>
</mgrwt>
</event>
<event>
 5    1  0.2809073E+000  0.8826017E+02  0.7818608E-02  0.1307120E+00
          2   -1    0    0  501    0  0.00000000000E+00  0.00000000000E+00  0.37229449542E+02  0.37229449632E+02  0.26000000000E-02 0. -1.
         -2   -1    0    0    0  501 -0.00000000000E+00 -0.00000000000E+00 -0.52309781172E+02  0.52309781236E+02  0.26000000000E-02 0.  1.
         23    2    1    2    0    0  0.00000000000E+00  0.00000000000E+00 -0.15080331630E+02  0.89539230869E+02  0.88260169173E+02 0.  0.
        -11    1    3    3    0    0 -0.79690667887E+01  0.13558742404E+02 -0.49370202413E+02  0.51814692971E+02  0.51100000000E-03 0.  1.
         11    1    3    3    0    0  0.79690667887E+01 -0.13558742404E+02  0.34289870783E+02  0.37724537898E+02  0.51100000000E-03 0. -1.
<mgrwt>
<rscale>  0 0.88260169E+02</rscale>
<asrwt>0</asrwt>
<pdfrwt beam="1">  1        2 0.57276077E-02 0.88260169E+02</pdfrwt>
<pdfrwt beam="2">  1       -2 0.80476586E-02 0.88260169E+02</pdfrwt>
<totfact> 0.10288735E+05</totfact>
</mgrwt>
</event>
<event>
 5    1  0.2809073E+000  0.9090598E+02  0.7818608E-02  0.1300672E+00
         -2   -1    0    0    0  501 -0.00000000000E+00  0.00000000000E+00  0.14244294306E+02  0.14244294543E+02  0.26000000000E-02 0.  1.
          2   -1    0    0  501    0  0.00000000000E+00 -0.00000000000E+00 -0.14503871038E+03  0.14503871040E+03  0.26000000000E-02 0. -1.
         23    2    1    2    0    0  0.00000000000E+00  0.00000000000E+00 -0.13079441607E+03  0.15928300494E+03  0.90905975536E+02 0.  0.
        -11    1    3    3    0    0 -0.73523487800E+01  0.30497539404E+02 -0.12302791411E+03  0.12696465883E+03  0.51100000000E-03 0. -1.
         11    1    3    3    0    0  0.73523487800E+01 -0.30497539404E+02 -0.77665019616E+01  0.32318346109E+02  0.51100000000E-03 0.  1.
<mgrwt>
<rscale>  0 0.90905976E+02</rscale>
<asrwt>0</asrwt>
<pdfrwt beam="2">  1        2 0.22313647E-01 0.90905976E+02</pdfrwt>
<pdfrwt beam="1">  1       -2 0.21914300E-02 0.90905976E+02</pdfrwt>
<totfact> 0.13934731E+05</totfact>
</mgrwt>
</event>
<event>
 5    1  0.2809073E+000  0.9175667E+02  0.7818608E-02  0.1298653E+00
         -2   -1    0    0    0  501 -0.00000000000E+00  0.00000000000E+00  0.77759359675E+01  0.77759364022E+01  0.26000000000E-02 0. -1.
          2   -1    0    0  501    0  0.00000000000E+00 -0.00000000000E+00 -0.27068403999E+03  0.27068404001E+03  0.26000000000E-02 0.  1.
         23    2    1    2    0    0  0.00000000000E+00  0.00000000000E+00 -0.26290810403E+03  0.27845997641E+03  0.91756674410E+02 0.  0.
        -11    1    3    3    0    0  0.43621203525E+01 -0.38258809758E+02 -0.20714436133E+03  0.21069302563E+03  0.51100000000E-03 0. -1.
         11    1    3    3    0    0 -0.43621203525E+01  0.38258809758E+02 -0.55763742698E+02  0.67766950780E+02  0.51100000000E-03 0.  1.
<mgrwt>
<rscale>  0 0.91756674E+02</rscale>
<asrwt>0</asrwt>
<pdfrwt beam="2">  1        2 0.41643691E-01 0.91756674E+02</pdfrwt>
<pdfrwt beam="1">  1       -2 0.11962981E-02 0.91756674E+02</pdfrwt>
<totfact> 0.16999095E+05</totfact>
</mgrwt>
</event>
<event>
 5    1  0.2809073E+000  0.8977691E+02  0.7818608E-02  0.1303393E+00
          2   -1    0    0  501    0  0.00000000000E+00  0.00000000000E+00  0.15087803963E+03  0.15087803965E+03  0.26000000000E-02 0. -1.
         -2   -1    0    0    0  501 -0.00000000000E+00 -0.00000000000E+00 -0.13354980871E+02  0.13354981124E+02  0.26000000000E-02 0.  1.
         23    2    1    2    0    0  0.00000000000E+00  0.00000000000E+00  0.13752305876E+03  0.16423302078E+03  0.89776909186E+02 0.  0.
        -11    1    3    3    0    0 -0.38490078623E+02 -0.16639760914E+01  0.26618291607E+02  0.46827218764E+02  0.51100000000E-03 0.  1.
         11    1    3    3    0    0  0.38490078623E+02  0.16639760914E+01  0.11090476715E+03  0.11740580201E+03  0.51100000000E-03 0. -1.
<mgrwt>
<rscale>  0 0.89776909E+02</rscale>
<asrwt>0</asrwt>
<pdfrwt beam="1">  1        2 0.23212006E-01 0.89776909E+02</pdfrwt>
<pdfrwt beam="2">  1       -2 0.20546125E-02 0.89776909E+02</pdfrwt>
<totfact> 0.14608486E+05</totfact>
</mgrwt>
</event>
<event>
 5    1  0.2809073E+000  0.9081601E+02  0.7818608E-02  0.1300888E+00
          2   -1    0    0  501    0  0.00000000000E+00  0.00000000000E+00  0.87589449216E+01  0.87589453075E+01  0.26000000000E-02 0. -1.
         -2   -1    0    0    0  501 -0.00000000000E+00 -0.00000000000E+00 -0.23540355473E+03  0.23540355474E+03  0.26000000000E-02 0.  1.
         23    2    1    2    0    0  0.00000000000E+00  0.00000000000E+00 -0.22664460981E+03  0.24416250005E+03  0.90816007819E+02 0.  0.
        -11    1    3    3    0    0 -0.35962118035E+02  0.15275019018E+02 -0.17552508196E+03  0.17982117378E+03  0.51100000000E-03 0.  1.
         11    1    3    3    0    0  0.35962118035E+02 -0.15275019018E+02 -0.51119527842E+02  0.64341326273E+02  0.51100000000E-03 0. -1.
<mgrwt>
<rscale>  0 0.90816008E+02</rscale>
<asrwt>0</asrwt>
<pdfrwt beam="1">  1        2 0.13475302E-02 0.90816008E+02</pdfrwt>
<pdfrwt beam="2">  1       -2 0.36215927E-01 0.90816008E+02</pdfrwt>
<totfact> 0.58446839E+04</totfact>
</mgrwt>
</event>
<event>
 5    1  0.2809073E+000  0.9086523E+02  0.7818608E-02  0.1300770E+00
          2   -1    0    0  501    0  0.00000000000E+00  0.00000000000E+00  0.29673910496E+03  0.29673910497E+03  0.26000000000E-02 0. -1.
         -2   -1    0    0    0  501 -0.00000000000E+00 -0.00000000000E+00 -0.69560177792E+01  0.69560182651E+01  0.26000000000E-02 0.  1.
         23    2    1    2    0    0  0.00000000000E+00  0.00000000000E+00  0.28978308718E+03  0.30369512324E+03  0.90865231314E+02 0.  0.
        -11    1    3    3    0    0 -0.10445189707E+02 -0.36478926517E+02  0.22840177835E+03  0.23153225785E+03  0.51100000000E-03 0. -1.
         11    1    3    3    0    0  0.10445189707E+02  0.36478926517E+02  0.61381308828E+02  0.72162865391E+02  0.51100000000E-03 0.  1.
<mgrwt>
<rscale>  0 0.90865231E+02</rscale>
<asrwt>0</asrwt>
<pdfrwt beam="1">  1        2 0.45652159E-01 0.90865231E+02</pdfrwt>
<pdfrwt beam="2">  1       -2 0.10701569E-02 0.90865231E+02</pdfrwt>
<totfact> 0.18057213E+05</totfact>
</mgrwt>
</event>
<event>
 5    1  0.2809073E+000  0.7658847E+02  0.7818608E-02  0.1339021E+00
          2   -1    0    0  501    0  0.00000000000E+00  0.00000000000E+00  0.46056691771E+02  0.46056691844E+02  0.26000000000E-02 0.  1.
         -2   -1    0    0    0  501 -0.00000000000E+00 -0.00000000000E+00 -0.31840074899E+02  0.31840075006E+02  0.26000000000E-02 0. -1.
         23    2    1    2    0    0  0.00000000000E+00  0.00000000000E+00  0.14216616871E+02  0.77896766850E+02  0.76588472307E+02 0.  0.
        -11    1    3    3    0    0 -0.15350221010E+02 -0.36278937805E+01  0.42599339935E+02  0.45425704854E+02  0.51100000000E-03 0.  1.
         11    1    3    3    0    0  0.15350221010E+02  0.36278937805E+01 -0.28382723064E+02  0.32471061996E+02  0.51100000000E-03 0. -1.
<mgrwt>
<rscale>  0 0.76588472E+02</rscale>
<asrwt>0</asrwt>
<pdfrwt beam="1">  1        2 0.70856449E-02 0.76588472E+02</pdfrwt>
<pdfrwt beam="2">  1       -2 0.48984731E-02 0.76588472E+02</pdfrwt>
<totfact> 0.16170874E+05</totfact>
</mgrwt>
</event>
<event>
 5    1  0.2809073E+000  0.9274669E+02  0.7818608E-02  0.1296333E+00
          2   -1    0    0  501    0  0.00000000000E+00  0.00000000000E+00  0.22306719573E+03  0.22306719575E+03  0.26000000000E-02 0. -1.
         -2   -1    0    0    0  501 -0.00000000000E+00 -0.00000000000E+00 -0.96405343849E+01  0.96405347355E+01  0.26000000000E-02 0.  1.
         23    2    1    2    0    0  0.00000000000E+00  0.00000000000E+00  0.21342666135E+03  0.23270773048E+03  0.92746687556E+02 0.  0.
        -11    1    3    3    0    0  0.38291589760E+02 -0.20214360388E+02  0.65058209910E+02  0.78150092062E+02  0.51100000000E-03 0.  1.
         11    1    3    3    0    0 -0.38291589760E+02  0.20214360388E+02  0.14836845144E+03  0.15455763842E+03  0.51100000000E-03 0. -1.
<mgrwt>
<rscale>  0 0.92746688E+02</rscale>
<asrwt>0</asrwt>
<pdfrwt beam="1">  1        2 0.34318028E-01 0.92746688E+02</pdfrwt>
<pdfrwt beam="2">  1       -2 0.14831593E-02 0.92746688E+02</pdfrwt>
<totfact> 0.15373105E+05</totfact>
</mgrwt>
</event>
<event>
 5    1  0.2809073E+000  0.9085045E+02  0.7818608E-02  0.1300805E+00
          2   -1    0    0  501    0  0.00000000000E+00  0.00000000000E+00  0.13060440795E+02  0.13060441054E+02  0.26000000000E-02 0.  1.
         -2   -1    0    0    0  501 -0.00000000000E+00 -0.00000000000E+00 -0.15799243709E+03  0.15799243712E+03  0.26000000000E-02 0. -1.
         23    2    1    2    0    0  0.00000000000E+00  0.00000000000E+00 -0.14493199630E+03  0.17105287817E+03  0.90850446224E+02 0.  0.
        -11    1    3    3    0    0 -0.22717328159E+02 -0.13349748466E+02 -0.27985146741E+01  0.26497631355E+02  0.51100000000E-03 0.  1.
         11    1    3    3    0    0  0.22717328159E+02  0.13349748466E+02 -0.14213348162E+03  0.14455524682E+03  0.51100000000E-03 0. -1.
<mgrwt>
<rscale>  0 0.90850446E+02</rscale>
<asrwt>0</asrwt>
<pdfrwt beam="1">  1        2 0.20092987E-02 0.90850446E+02</pdfrwt>
<pdfrwt beam="2">  1       -2 0.24306527E-01 0.90850446E+02</pdfrwt>
<totfact> 0.69155805E+04</totfact>
</mgrwt>
</event>
<event>
 5    1  0.2809073E+000  0.7488662E+02  0.7818608E-02  0.1344222E+00
         -2   -1    0    0    0  501 -0.00000000000E+00  0.00000000000E+00  0.46074342698E+01  0.46074350034E+01  0.26000000000E-02 0. -1.
          2   -1    0    0  501    0  0.00000000000E+00 -0.00000000000E+00 -0.30429114778E+03  0.30429114779E+03  0.26000000000E-02 0.  1.
         23    2    1    2    0    0  0.00000000000E+00  0.00000000000E+00 -0.29968371351E+03  0.30889858279E+03  0.74886623032E+02 0.  0.
        -11    1    3    3    0    0 -0.12316351840E+02 -0.35348728349E+02 -0.14620713814E+03  0.15092300143E+03  0.51100000000E-03 0.  1.
         11    1    3    3    0    0  0.12316351840E+02  0.35348728349E+02 -0.15347657537E+03  0.15797558136E+03  0.51100000000E-03 0. -1.
<mgrwt>
<rscale>  0 0.74886623E+02</rscale>
<asrwt>0</asrwt>
<pdfrwt beam="2">  1        2 0.46814007E-01 0.74886623E+02</pdfrwt>
<pdfrwt beam="1">  1       -2 0.70883634E-03 0.74886623E+02</pdfrwt>
<totfact> 0.30356051E+05</totfact>
</mgrwt>
</event>
<event>
 5    1  0.2809073E+000  0.9257221E+02  0.7818608E-02  0.1296740E+00
          2   -1    0    0  501    0  0.00000000000E+00  0.00000000000E+00  0.51441901241E+02  0.51441901307E+02  0.26000000000E-02 0. -1.
         -2   -1    0    0    0  501 -0.00000000000E+00 -0.00000000000E+00 -0.41647054080E+02  0.41647054161E+02  0.26000000000E-02 0.  1.
         23    2    1    2    0    0  0.00000000000E+00  0.00000000000E+00  0.97948471610E+01  0.93088955468E+02  0.92572212890E+02 0.  0.
        -11    1    3    3    0    0 -0.46456754658E+01  0.13799843209E+02 -0.39283984711E+02  0.41895697013E+02  0.51100000000E-03 0.  1.
         11    1    3    3    0    0  0.46456754658E+01 -0.13799843209E+02  0.49078831872E+02  0.51193258456E+02  0.51100000000E-03 0. -1.
<mgrwt>
<rscale>  0 0.92572213E+02</rscale>
<asrwt>0</asrwt>
<pdfrwt beam="1">  1        2 0.79141386E-02 0.92572213E+02</pdfrwt>
<pdfrwt beam="2">  1       -2 0.64072391E-02 0.92572213E+02</pdfrwt>
<totfact> 0.97512627E+04</totfact>
</mgrwt>
</event>
<event>
 5    1  0.2809073E+000  0.9287242E+02  0.7818608E-02  0.1296041E+00
         -2   -1    0    0    0  501 -0.00000000000E+00  0.00000000000E+00  0.20445018913E+03  0.20445018915E+03  0.26000000000E-02 0.  1.
          2   -1    0    0  501    0  0.00000000000E+00 -0.00000000000E+00 -0.10546928472E+02  0.10546928792E+02  0.26000000000E-02 0. -1.
         23    2    1    2    0    0  0.00000000000E+00  0.00000000000E+00  0.19390326066E+03  0.21499711794E+03  0.92872419092E+02 0.  0.
        -11    1    3    3    0    0  0.62684323370E+00  0.34168265115E+02  0.24169451468E+02  0.41857205567E+02  0.51100000000E-03 0. -1.
         11    1    3    3    0    0 -0.62684323370E+00 -0.34168265115E+02  0.16973380919E+03  0.17313991237E+03  0.51100000000E-03 0.  1.
<mgrwt>
<rscale>  0 0.92872419E+02</rscale>
<asrwt>0</asrwt>
<pdfrwt beam="2">  1        2 0.16226044E-02 0.92872419E+02</pdfrwt>
<pdfrwt beam="1">  1       -2 0.31453875E-01 0.92872419E+02</pdfrwt>
<totfact> 0.58882525E+04</totfact>
</mgrwt>
</event>
<event>
 5    1  0.2809073E+000  0.9473232E+02  0.7818608E-02  0.1291780E+00
         -2   -1    0    0    0  501 -0.00000000000E+00  0.00000000000E+00  0.80794125272E+01  0.80794129455E+01  0.26000000000E-02 0.  1.
          2   -1    0    0  501    0  0.00000000000E+00 -0.00000000000E+00 -0.27768764496E+03  0.27768764497E+03  0.26000000000E-02 0. -1.
         23    2    1    2    0    0  0.00000000000E+00  0.00000000000E+00 -0.26960823243E+03  0.28576705792E+03  0.94732319698E+02 0.  0.
        -11    1    3    3    0    0 -0.40377641042E+02 -0.19565355764E+02 -0.18059209914E+03  0.18608241001E+03  0.51100000000E-03 0. -1.
         11    1    3    3    0    0  0.40377641042E+02  0.19565355764E+02 -0.89016133291E+02  0.99684647909E+02  0.51100000000E-03 0.  1.
<mgrwt>
<rscale>  0 0.94732320E+02</rscale>
<asrwt>0</asrwt>
<pdfrwt beam="2">  1        2 0.42721169E-01 0.94732320E+02</pdfrwt>
<pdfrwt beam="1">  1       -2 0.12429868E-02 0.94732320E+02</pdfrwt>
<totfact> 0.15754962E+05</totfact>
</mgrwt>
</event>
<event>
 5    1  0.2809073E+000  0.9104369E+02  0.7818608E-02  0.1300344E+00
         -2   -1    0    0    0  501 -0.00000000000E+00  0.00000000000E+00  0.25361056113E+03  0.25361056114E+03  0.26000000000E-02 0.  1.
          2   -1    0    0  501    0  0.00000000000E+00 -0.00000000000E+00 -0.81709471806E+01  0.81709475942E+01  0.26000000000E-02 0. -1.
         23    2    1    2    0    0  0.00000000000E+00  0.00000000000E+00  0.24543961395E+03  0.26178150874E+03  0.91043694022E+02 0.  0.
        -11    1    3    3    0    0  0.18320535830E+02  0.36622127097E+02  0.17989615277E+03  0.18449782656E+03  0.51100000000E-03 0.  1.
         11    1    3    3    0    0 -0.18320535830E+02 -0.36622127097E+02  0.65543461182E+02  0.77283682173E+02  0.51100000000E-03 0. -1.
<mgrwt>
<rscale>  0 0.91043694E+02</rscale>
<asrwt>0</asrwt>
<pdfrwt beam="2">  1        2 0.12570691E-02 0.91043694E+02</pdfrwt>
<pdfrwt beam="1">  1       -2 0.39017001E-01 0.91043694E+02</pdfrwt>
<totfact> 0.55984430E+04</totfact>
</mgrwt>
</event>
<event>
 4    1  0.2809073E+000  0.5106134E+02  0.7818608E-02  0.1439700E+00
         -2   -1    0    0    0  501 -0.00000000000E+00  0.00000000000E+00  0.15272066599E+03  0.15272066601E+03  0.26000000000E-02 0.  1.
          2   -1    0    0  501    0  0.00000000000E+00 -0.00000000000E+00 -0.42680216657E+01  0.42680224576E+01  0.26000000000E-02 0. -1.
        -11    1    1    2    0    0 -0.12908343927E+00 -0.22834100682E+02  0.10933535411E+03  0.11169437083E+03  0.51100000000E-03 0.  1.
         11    1    1    2    0    0  0.12908343927E+00  0.22834100682E+02  0.39117290214E+02  0.45294317639E+02  0.51100000000E-03 0. -1.
<mgrwt>
<rscale>  0 0.51061343E+02</rscale>
<asrwt>0</asrwt>
<pdfrwt beam="2">  1        2 0.65661880E-03 0.51061343E+02</pdfrwt>
<pdfrwt beam="1">  1       -2 0.23495486E-01 0.51061343E+02</pdfrwt>
<totfact> 0.29618033E+05</totfact>
</mgrwt>
</event>
<event>
 5    1  0.2809073E+000  0.8898527E+02  0.7818608E-02  0.1305328E+00
          2   -1    0    0  501    0  0.00000000000E+00  0.00000000000E+00  0.77921224672E+02  0.77921224716E+02  0.26000000000E-02 0. -1.
         -2   -1    0    0    0  501 -0.00000000000E+00 -0.00000000000E+00 -0.25405073891E+02  0.25405074024E+02  0.26000000000E-02 0.  1.
         23    2    1    2    0    0  0.00000000000E+00  0.00000000000E+00  0.52516150781E+02  0.10332629874E+03  0.88985267985E+02 0.  0.
        -11    1    3    3    0    0 -0.14673644252E+01 -0.21586125891E+02  0.71401451259E+02  0.74607514578E+02  0.51100000000E-03 0. -1.
         11    1    3    3    0    0  0.14673644252E+01  0.21586125891E+02 -0.18885300478E+02  0.28718784162E+02  0.51100000000E-03 0.  1.
<mgrwt>
<rscale>  0 0.88985268E+02</rscale>
<asrwt>0</asrwt>
<pdfrwt beam="1">  1        2 0.11987880E-01 0.88985268E+02</pdfrwt>
<pdfrwt beam="2">  1       -2 0.39084730E-02 0.88985268E+02</pdfrwt>
<totfact> 0.12195913E+05</totfact>
</mgrwt>
</event>
<event>
 5    1  0.2809073E+000  0.9152134E+02  0.7818608E-02  0.1299209E+00
         -2   -1    0    0    0  501 -0.00000000000E+00  0.00000000000E+00  0.12700472067E+02  0.12700472333E+02  0.26000000000E-02 0.  1.
          2   -1    0    0  501    0  0.00000000000E+00 -0.00000000000E+00 -0.16487880828E+03  0.16487880830E+03  0.26000000000E-02 0. -1.
         23    2    1    2    0    0  0.00000000000E+00  0.00000000000E+00 -0.15217833622E+03  0.17757928064E+03  0.91521335754E+02 0.  0.
        -11    1    3    3    0    0 -0.22818754966E+02  0.14378139263E+02 -0.14781780838E+03  0.15025821422E+03  0.51100000000E-03 0. -1.
         11    1    3    3    0    0  0.22818754966E+02 -0.14378139263E+02 -0.43605278380E+01  0.27321066417E+02  0.51100000000E-03 0.  1.
<mgrwt>
<rscale>  0 0.91521336E+02</rscale>
<asrwt>0</asrwt>
<pdfrwt beam="2">  1        2 0.25365969E-01 0.91521336E+02</pdfrwt>
<pdfrwt beam="1">  1       -2 0.19539189E-02 0.91521336E+02</pdfrwt>
<totfact> 0.14296246E+05</totfact>
</mgrwt>
</event>
<event>
 5    1  0.2809073E+000  0.9460843E+02  0.7818608E-02  0.1292060E+00
          2   -1    0    0  501    0  0.00000000000E+00  0.00000000000E+00  0.69398577667E+02  0.69398577715E+02  0.26000000000E-02 0. -1.
         -2   -1    0    0    0  501 -0.00000000000E+00 -0.00000000000E+00 -0.32244016829E+02  0.32244016934E+02  0.26000000000E-02 0.  1.
         23    2    1    2    0    0  0.00000000000E+00  0.00000000000E+00  0.37154560838E+02  0.10164259465E+03  0.94608433324E+02 0.  0.
        -11    1    3    3    0    0 -0.30365867044E+02 -0.34520489712E+02  0.66167738223E+01  0.46449238824E+02  0.51100000000E-03 0.  1.
         11    1    3    3    0    0  0.30365867044E+02  0.34520489712E+02  0.30537787015E+02  0.55193355826E+02  0.51100000000E-03 0. -1.
<mgrwt>
<rscale>  0 0.94608433E+02</rscale>
<asrwt>0</asrwt>
<pdfrwt beam="1">  1        2 0.10676704E-01 0.94608433E+02</pdfrwt>
<pdfrwt beam="2">  1       -2 0.49606181E-02 0.94608433E+02</pdfrwt>
<totfact> 0.99472885E+04</totfact>
</mgrwt>
</event>
<event>
 5    1  0.2809073E+000  0.9105797E+02  0.7818608E-02  0.1300310E+00
         -2   -1    0    0    0  501 -0.00000000000E+00  0.00000000000E+00  0.64691606739E+02  0.64691606792E+02  0.26000000000E-02 0.  1.
          2   -1    0    0  501    0  0.00000000000E+00 -0.00000000000E+00 -0.32042615888E+02  0.32042615993E+02  0.26000000000E-02 0. -1.
         23    2    1    2    0    0  0.00000000000E+00  0.00000000000E+00  0.32648990852E+02  0.96734222785E+02  0.91057966451E+02 0.  0.
        -11    1    3    3    0    0  0.20444631466E+02  0.17156196239E+02  0.55509751641E+02  0.61592617680E+02  0.51100000000E-03 0.  1.
         11    1    3    3    0    0 -0.20444631466E+02 -0.17156196239E+02 -0.22860760790E+02  0.35141605105E+02  0.51100000000E-03 0. -1.
<mgrwt>
<rscale>  0 0.91057966E+02</rscale>
<asrwt>0</asrwt>
<pdfrwt beam="2">  1        2 0.49296333E-02 0.91057966E+02</pdfrwt>
<pdfrwt beam="1">  1       -2 0.99525547E-02 0.91057966E+02</pdfrwt>
<totfact> 0.90374118E+04</totfact>
</mgrwt>
</event>
<event>
 5    1  0.2809073E+000  0.9141985E+02  0.7818608E-02  0.1299449E+00
          2   -1    0    0  501    0  0.00000000000E+00  0.00000000000E+00  0.12216140038E+03  0.12216140040E+03  0.26000000000E-02 0. -1.
         -2   -1    0    0    0  501 -0.00000000000E+00 -0.00000000000E+00 -0.17103579683E+02  0.17103579881E+02  0.26000000000E-02 0.  1.
         23    2    1    2    0    0  0.00000000000E+00  0.00000000000E+00  0.10505782069E+03  0.13926498028E+03  0.91419850388E+02 0.  0.
        -11    1    3    3    0    0 -0.30031471454E+02  0.24486928169E+02  0.89465137282E+02  0.97496203608E+02  0.51100000000E-03 0. -1.
         11    1    3    3    0    0  0.30031471454E+02 -0.24486928169E+02  0.15592683411E+02  0.41768776677E+02  0.51100000000E-03 0.  1.
<mgrwt>
<rscale>  0 0.91419850E+02</rscale>
<asrwt>0</asrwt>
<pdfrwt beam="1">  1        2 0.18794062E-01 0.91419850E+02</pdfrwt>
<pdfrwt beam="2">  1       -2 0.26313199E-02 0.91419850E+02</pdfrwt>
<totfact> 0.12966332E+05</totfact>
</mgrwt>
</event>
<event>
 5    1  0.2809073E+000  0.8354598E+02  0.7818608E-02  0.1319279E+00
          2   -1    0    0  501    0  0.00000000000E+00  0.00000000000E+00  0.23420077260E+03  0.23420077261E+03  0.26000000000E-02 0. -1.
         -2   -1    0    0    0  501 -0.00000000000E+00 -0.00000000000E+00 -0.74507974778E+01  0.74507979315E+01  0.26000000000E-02 0.  1.
         23    2    1    2    0    0  0.00000000000E+00  0.00000000000E+00  0.22674997512E+03  0.24165157054E+03  0.83545977338E+02 0.  0.
        -11    1    3    3    0    0 -0.36453605812E+02 -0.63953587795E+01  0.57346990762E+02  0.68252789982E+02  0.51100000000E-03 0. -1.
         11    1    3    3    0    0  0.36453605812E+02  0.63953587795E+01  0.16940298436E+03  0.17339878056E+03  0.51100000000E-03 0.  1.
<mgrwt>
<rscale>  0 0.83545977E+02</rscale>
<asrwt>0</asrwt>
<pdfrwt beam="1">  1        2 0.36030888E-01 0.83545977E+02</pdfrwt>
<pdfrwt beam="2">  1       -2 0.11462766E-02 0.83545977E+02</pdfrwt>
<totfact> 0.20688044E+05</totfact>
</mgrwt>
</event>
<event>
 5    1  0.2809073E+000  0.9068467E+02  0.7818608E-02  0.1301202E+00
         -2   -1    0    0    0  501 -0.00000000000E+00  0.00000000000E+00  0.55323645009E+02  0.55323645070E+02  0.26000000000E-02 0.  1.
          2   -1    0    0  501    0  0.00000000000E+00 -0.00000000000E+00 -0.37161823703E+02  0.37161823794E+02  0.26000000000E-02 0. -1.
         23    2    1    2    0    0  0.00000000000E+00  0.00000000000E+00  0.18161821305E+02  0.92485468864E+02  0.90684674548E+02 0.  0.
        -11    1    3    3    0    0 -0.57609808232E+01 -0.40761486965E+02 -0.10302822311E+02  0.42436256521E+02  0.51100000000E-03 0. -1.
         11    1    3    3    0    0  0.57609808232E+01  0.40761486965E+02  0.28464643617E+02  0.50049212343E+02  0.51100000000E-03 0.  1.
<mgrwt>
<rscale>  0 0.90684675E+02</rscale>
<asrwt>0</asrwt>
<pdfrwt beam="2">  1        2 0.57172036E-02 0.90684675E+02</pdfrwt>
<pdfrwt beam="1">  1       -2 0.85113300E-02 0.90684675E+02</pdfrwt>
<totfact> 0.95072234E+04</totfact>
</mgrwt>
</event>
<event>
 5    1  0.2809073E+000  0.7160530E+02  0.7818608E-02  0.1354718E+00
         -2   -1    0    0    0  501 -0.00000000000E+00  0.00000000000E+00  0.76145301298E+02  0.76145301342E+02  0.26000000000E-02 0. -1.
          2   -1    0    0  501    0  0.00000000000E+00 -0.00000000000E+00 -0.16833996055E+02  0.16833996256E+02  0.26000000000E-02 0.  1.
         23    2    1    2    0    0  0.00000000000E+00  0.00000000000E+00  0.59311305243E+02  0.92979297598E+02  0.71605299051E+02 0.  0.
        -11    1    3    3    0    0 -0.11834639882E+02  0.26226378194E+02  0.19897911003E+01  0.28841651881E+02  0.51100000000E-03 0.  1.
         11    1    3    3    0    0  0.11834639882E+02 -0.26226378194E+02  0.57321514142E+02  0.64137645717E+02  0.51100000000E-03 0. -1.
<mgrwt>
<rscale>  0 0.71605299E+02</rscale>
<asrwt>0</asrwt>
<pdfrwt beam="2">  1        2 0.25898456E-02 0.71605299E+02</pdfrwt>
<pdfrwt beam="1">  1       -2 0.11714661E-01 0.71605299E+02</pdfrwt>
<totfact> 0.15612934E+05</totfact>
</mgrwt>
</event>
<event>
 5    1  0.2809073E+000  0.6782657E+02  0.7818608E-02  0.1367644E+00
          2   -1    0    0  501    0  0.00000000000E+00  0.00000000000E+00  0.35571299919E+03  0.35571299920E+03  0.26000000000E-02 0. -1.
         -2   -1    0    0    0  501 -0.00000000000E+00 -0.00000000000E+00 -0.32332550951E+01  0.32332561405E+01  0.26000000000E-02 0.  1.
         23    2    1    2    0    0  0.00000000000E+00  0.00000000000E+00  0.35247974409E+03  0.35894625534E+03  0.67826574625E+02 0.  0.
        -11    1    3    3    0    0  0.33703536545E+02 -0.37632871179E+01  0.17548492434E+03  0.17873178055E+03  0.51100000000E-03 0. -1.
         11    1    3    3    0    0 -0.33703536545E+02  0.37632871179E+01  0.17699481975E+03  0.18021447479E+03  0.51100000000E-03 0.  1.
<mgrwt>
<rscale>  0 0.67826575E+02</rscale>
<asrwt>0</asrwt>
<pdfrwt beam="1">  1        2 0.54725105E-01 0.67826575E+02</pdfrwt>
<pdfrwt beam="2">  1       -2 0.49742369E-03 0.67826575E+02</pdfrwt>
<totfact> 0.41494747E+05</totfact>
</mgrwt>
</event>
<event>
 5    1  0.2809073E+000  0.8998021E+02  0.7818608E-02  0.1302900E+00
         -2   -1    0    0    0  501 -0.00000000000E+00  0.00000000000E+00  0.80020822180E+01  0.80020826404E+01  0.26000000000E-02 0.  1.
          2   -1    0    0  501    0  0.00000000000E+00 -0.00000000000E+00 -0.25294787198E+03  0.25294787199E+03  0.26000000000E-02 0. -1.
         23    2    1    2    0    0  0.00000000000E+00  0.00000000000E+00 -0.24494578976E+03  0.26094995464E+03  0.89980213943E+02 0.  0.
        -11    1    3    3    0    0  0.82521015216E+01 -0.40960644375E+02 -0.17084762431E+03  0.17588286528E+03  0.51100000000E-03 0. -1.
         11    1    3    3    0    0 -0.82521015216E+01  0.40960644375E+02 -0.74098165452E+02  0.85067089352E+02  0.51100000000E-03 0.  1.
<mgrwt>
<rscale>  0 0.89980214E+02</rscale>
<asrwt>0</asrwt>
<pdfrwt beam="2">  1        2 0.38915051E-01 0.89980214E+02</pdfrwt>
<pdfrwt beam="1">  1       -2 0.12310898E-02 0.89980214E+02</pdfrwt>
<totfact> 0.17465236E+05</totfact>
</mgrwt>
</event>
<event>
 5    1  0.2809073E+000  0.9141167E+02  0.7818608E-02  0.1299469E+00
         -2   -1    0    0    0  501 -0.00000000000E+00  0.00000000000E+00  0.24485926467E+03  0.24485926469E+03  0.26000000000E-02 0.  1.
          2   -1    0    0  501    0  0.00000000000E+00 -0.00000000000E+00 -0.85315268439E+01  0.85315272400E+01  0.26000000000E-02 0. -1.
         23    2    1    2    0    0  0.00000000000E+00  0.00000000000E+00  0.23632773783E+03  0.25339079193E+03  0.91411671935E+02 0.  0.
        -11    1    3    3    0    0 -0.40126625363E+02 -0.16520208774E+02  0.78382410309E+02  0.89592776534E+02  0.51100000000E-03 0. -1.
         11    1    3    3    0    0  0.40126625363E+02  0.16520208774E+02  0.15794532752E+03  0.16379801539E+03  0.51100000000E-03 0.  1.
<mgrwt>
<rscale>  0 0.91411672E+02</rscale>
<asrwt>0</asrwt>
<pdfrwt beam="2">  1        2 0.13125426E-02 0.91411672E+02</pdfrwt>
<pdfrwt beam="1">  1       -2 0.37670658E-01 0.91411672E+02</pdfrwt>
<totfact> 0.56384960E+04</totfact>
</mgrwt>
</event>
<event>
 5    1  0.2809073E+000  0.9190837E+02  0.7818608E-02  0.1298295E+00
         -2   -1    0    0    0  501 -0.00000000000E+00  0.00000000000E+00  0.44958532520E+02  0.44958532595E+02  0.26000000000E-02 0.  1.
          2   -1    0    0  501    0  0.00000000000E+00 -0.00000000000E+00 -0.46971884167E+02  0.46971884239E+02  0.26000000000E-02 0. -1.
         23    2    1    2    0    0  0.00000000000E+00  0.00000000000E+00 -0.20133516469E+01  0.91930416834E+02  0.91908367162E+02 0.  0.
        -11    1    3    3    0    0  0.27030814226E+01  0.11248887010E+02 -0.45491415317E+02  0.46939460755E+02  0.51100000000E-03 0. -1.
         11    1    3    3    0    0 -0.27030814226E+01 -0.11248887010E+02  0.43478063670E+02  0.44990956079E+02  0.51100000000E-03 0.  1.
<mgrwt>
<rscale>  0 0.91908367E+02</rscale>
<asrwt>0</asrwt>
<pdfrwt beam="2">  1        2 0.72264437E-02 0.91908367E+02</pdfrwt>
<pdfrwt beam="1">  1       -2 0.69166973E-02 0.91908367E+02</pdfrwt>
<totfact> 0.97189987E+04</totfact>
</mgrwt>
</event>
<event>
 5    1  0.2809073E+000  0.9113473E+02  0.7818608E-02  0.1300127E+00
         -2   -1    0    0    0  501 -0.00000000000E+00  0.00000000000E+00  0.35846548956E+02  0.35846549051E+02  0.26000000000E-02 0.  1.
          2   -1    0    0  501    0  0.00000000000E+00 -0.00000000000E+00 -0.57924259215E+02  0.57924259273E+02  0.26000000000E-02 0. -1.
         23    2    1    2    0    0  0.00000000000E+00  0.00000000000E+00 -0.22077710258E+02  0.93770808324E+02  0.91134731049E+02 0.  0.
        -11    1    3    3    0    0  0.39057053317E+02 -0.53216250567E+01  0.12483093922E+02  0.41347318428E+02  0.51100000000E-03 0.  1.
         11    1    3    3    0    0 -0.39057053317E+02  0.53216250567E+01 -0.34560804180E+02  0.52423489896E+02  0.51100000000E-03 0. -1.
<mgrwt>
<rscale>  0 0.91134731E+02</rscale>
<asrwt>0</asrwt>
<pdfrwt beam="2">  1        2 0.89114245E-02 0.91134731E+02</pdfrwt>
<pdfrwt beam="1">  1       -2 0.55148537E-02 0.91134731E+02</pdfrwt>
<totfact> 0.10521255E+05</totfact>
</mgrwt>
</event>
<event>
 5    1  0.2809073E+000  0.9283984E+02  0.7818608E-02  0.1296117E+00
          2   -1    0    0  501    0  0.00000000000E+00  0.00000000000E+00  0.36809323004E+02  0.36809323096E+02  0.26000000000E-02 0. -1.
         -2   -1    0    0    0  501 -0.00000000000E+00 -0.00000000000E+00 -0.58539764857E+02  0.58539764915E+02  0.26000000000E-02 0.  1.
         23    2    1    2    0    0  0.00000000000E+00  0.00000000000E+00 -0.21730441853E+02  0.95349088011E+02  0.92839843178E+02 0.  0.
        -11    1    3    3    0    0 -0.26499673451E+02 -0.59637525901E+00 -0.50003206269E+02  0.56594248771E+02  0.51100000000E-03 0.  1.
         11    1    3    3    0    0  0.26499673451E+02  0.59637525901E+00  0.28272764416E+02  0.38754839240E+02  0.51100000000E-03 0. -1.
<mgrwt>
<rscale>  0 0.92839843E+02</rscale>
<asrwt>0</asrwt>
<pdfrwt beam="1">  1        2 0.56629728E-02 0.92839843E+02</pdfrwt>
<pdfrwt beam="2">  1       -2 0.90061177E-02 0.92839843E+02</pdfrwt>
<totfact> 0.88548884E+04</totfact>
</mgrwt>
</event>
<event>
 5    1  0.2809073E+000  0.8973941E+02  0.7818608E-02  0.1303484E+00
         -2   -1    0    0    0  501 -0.00000000000E+00  0.00000000000E+00  0.18719350835E+02  0.18719351015E+02  0.26000000000E-02 0.  1.
          2   -1    0    0  501    0  0.00000000000E+00 -0.00000000000E+00 -0.10755129112E+03  0.10755129116E+03  0.26000000000E-02 0. -1.
         23    2    1    2    0    0  0.00000000000E+00  0.00000000000E+00 -0.88831940289E+02  0.12627064217E+03  0.89739408615E+02 0.  0.
        -11    1    3    3    0    0 -0.26654526992E+02 -0.28696830776E+01 -0.95043362303E+02  0.98751909391E+02  0.51100000000E-03 0. -1.
         11    1    3    3    0    0  0.26654526992E+02  0.28696830776E+01  0.62114220142E+01  0.27518732780E+02  0.51100000000E-03 0.  1.
<mgrwt>
<rscale>  0 0.89739409E+02</rscale>
<asrwt>0</asrwt>
<pdfrwt beam="2">  1        2 0.16546352E-01 0.89739409E+02</pdfrwt>
<pdfrwt beam="1">  1       -2 0.28799002E-02 0.89739409E+02</pdfrwt>
<totfact> 0.13103751E+05</totfact>
</mgrwt>
</event>
<event>
 5    1  0.2809073E+000  0.9031535E+02  0.7818608E-02  0.1302090E+00
         -2   -1    0    0    0  501 -0.00000000000E+00  0.00000000000E+00  0.19782045200E+02  0.19782045371E+02  0.26000000000E-02 0. -1.
          2   -1    0    0  501    0  0.00000000000E+00 -0.00000000000E+00 -0.10308416369E+03  0.10308416372E+03  0.26000000000E-02 0.  1.
         23    2    1    2    0    0  0.00000000000E+00  0.00000000000E+00 -0.83302118488E+02  0.12286620909E+03  0.90315349703E+02 0.  0.
        -11    1    3    3    0    0 -0.22862760061E+02  0.22502658575E+01 -0.94540286726E+02  0.97291496589E+02  0.51100000000E-03 0.  1.
         11    1    3    3    0    0  0.22862760061E+02 -0.22502658575E+01  0.11238168238E+02  0.25574712503E+02  0.51100000000E-03 0. -1.
<mgrwt>
<rscale>  0 0.90315350E+02</rscale>
<asrwt>0</asrwt>
<pdfrwt beam="2">  1        2 0.15859102E-01 0.90315350E+02</pdfrwt>
<pdfrwt beam="1">  1       -2 0.30433916E-02 0.90315350E+02</pdfrwt>
<totfact> 0.12709149E+05</totfact>
</mgrwt>
</event>
<event>
 5    1  0.2809073E+000  0.9311846E+02  0.7818608E-02  0.1295471E+00
         -2   -1    0    0    0  501 -0.00000000000E+00  0.00000000000E+00  0.49898433692E+03  0.49898433693E+03  0.26000000000E-02 0. -1.
          2   -1    0    0  501    0  0.00000000000E+00 -0.00000000000E+00 -0.43443480312E+01  0.43443488092E+01  0.26000000000E-02 0.  1.
         23    2    1    2    0    0  0.00000000000E+00  0.00000000000E+00  0.49463998889E+03  0.50332868574E+03  0.93118458303E+02 0.  0.
        -11    1    3    3    0    0 -0.30310201960E+02  0.35230931155E+02  0.23219014997E+03  0.23679567689E+03  0.51100000000E-03 0.  1.
         11    1    3    3    0    0  0.30310201960E+02 -0.35230931155E+02  0.26244983893E+03  0.26653300885E+03  0.51100000000E-03 0. -1.
<mgrwt>
<rscale>  0 0.93118458E+02</rscale>
<asrwt>0</asrwt>
<pdfrwt beam="2">  1        2 0.66836150E-03 0.93118458E+02</pdfrwt>
<pdfrwt beam="1">  1       -2 0.76766798E-01 0.93118458E+02</pdfrwt>
<totfact> 0.34428441E+04</totfact>
</mgrwt>
</event>
<event>
 5    1  0.2809073E+000  0.9001878E+02  0.7818608E-02  0.1302806E+00
         -2   -1    0    0    0  501 -0.00000000000E+00  0.00000000000E+00  0.31863538141E+02  0.31863538247E+02  0.26000000000E-02 0.  1.
          2   -1    0    0  501    0  0.00000000000E+00 -0.00000000000E+00 -0.63578786332E+02  0.63578786385E+02  0.26000000000E-02 0. -1.
         23    2    1    2    0    0  0.00000000000E+00  0.00000000000E+00 -0.31715248191E+02  0.95442324632E+02  0.90018777837E+02 0.  0.
        -11    1    3    3    0    0 -0.21442674841E+02  0.30649100355E+00  0.26098815175E+02  0.33779141417E+02  0.51100000000E-03 0.  1.
         11    1    3    3    0    0  0.21442674841E+02 -0.30649100355E+00 -0.57814063366E+02  0.61663183215E+02  0.51100000000E-03 0. -1.
<mgrwt>
<rscale>  0 0.90018778E+02</rscale>
<asrwt>0</asrwt>
<pdfrwt beam="2">  1        2 0.97813518E-02 0.90018778E+02</pdfrwt>
<pdfrwt beam="1">  1       -2 0.49020828E-02 0.90018778E+02</pdfrwt>
<totfact> 0.11167550E+05</totfact>
</mgrwt>
</event>
<event>
 5    1  0.2809073E+000  0.9279124E+02  0.7818608E-02  0.1296230E+00
          2   -1    0    0  501    0  0.00000000000E+00  0.00000000000E+00  0.54835828340E+02  0.54835828402E+02  0.26000000000E-02 0. -1.
         -2   -1    0    0    0  501 -0.00000000000E+00 -0.00000000000E+00 -0.39254510242E+02  0.39254510328E+02  0.26000000000E-02 0.  1.
         23    2    1    2    0    0  0.00000000000E+00  0.00000000000E+00  0.15581318099E+02  0.94090338730E+02  0.92791240797E+02 0.  0.
        -11    1    3    3    0    0  0.28081026831E+02 -0.13759173524E+02 -0.26963000998E+02  0.41289978772E+02  0.51100000000E-03 0.  1.
         11    1    3    3    0    0 -0.28081026831E+02  0.13759173524E+02  0.42544319097E+02  0.52800359957E+02  0.51100000000E-03 0. -1.
<mgrwt>
<rscale>  0 0.92791241E+02</rscale>
<asrwt>0</asrwt>
<pdfrwt beam="1">  1        2 0.84362812E-02 0.92791241E+02</pdfrwt>
<pdfrwt beam="2">  1       -2 0.60391555E-02 0.92791241E+02</pdfrwt>
<totfact> 0.98518596E+04</totfact>
</mgrwt>
</event>
<event>
 5    1  0.2809073E+000  0.9197753E+02  0.7818608E-02  0.1298132E+00
         -2   -1    0    0    0  501 -0.00000000000E+00  0.00000000000E+00  0.93474921451E+01  0.93474925067E+01  0.26000000000E-02 0.  1.
          2   -1    0    0  501    0  0.00000000000E+00 -0.00000000000E+00 -0.22626029995E+03  0.22626029997E+03  0.26000000000E-02 0. -1.
         23    2    1    2    0    0  0.00000000000E+00  0.00000000000E+00 -0.21691280781E+03  0.23560779247E+03  0.91977528144E+02 0.  0.
        -11    1    3    3    0    0  0.12876122539E+02  0.35398855079E+02 -0.17604003682E+03  0.18002490948E+03  0.51100000000E-03 0. -1.
         11    1    3    3    0    0 -0.12876122539E+02 -0.35398855079E+02 -0.40872770989E+02  0.55582882987E+02  0.51100000000E-03 0.  1.
<mgrwt>
<rscale>  0 0.91977528E+02</rscale>
<asrwt>0</asrwt>
<pdfrwt beam="2">  1        2 0.34809273E-01 0.91977528E+02</pdfrwt>
<pdfrwt beam="1">  1       -2 0.14380759E-02 0.91977528E+02</pdfrwt>
<totfact> 0.15803879E+05</totfact>
</mgrwt>
</event>
<event>
 5    1  0.2809073E+000  0.9233542E+02  0.7818608E-02  0.1297293E+00
         -2   -1    0    0    0  501 -0.00000000000E+00  0.00000000000E+00  0.10836967788E+03  0.10836967792E+03  0.26000000000E-02 0.  1.
          2   -1    0    0  501    0  0.00000000000E+00 -0.00000000000E+00 -0.19668394148E+02  0.19668394320E+02  0.26000000000E-02 0. -1.
         23    2    1    2    0    0  0.00000000000E+00  0.00000000000E+00  0.88701283736E+02  0.12803807224E+03  0.92335422267E+02 0.  0.
        -11    1    3    3    0    0  0.11750381748E+02 -0.20416971347E+02 -0.10707603853E+02  0.25876185398E+02  0.51100000000E-03 0. -1.
         11    1    3    3    0    0 -0.11750381748E+02  0.20416971347E+02  0.99408887589E+02  0.10216188684E+03  0.51100000000E-03 0.  1.
<mgrwt>
<rscale>  0 0.92335422E+02</rscale>
<asrwt>0</asrwt>
<pdfrwt beam="2">  1        2 0.30259069E-02 0.92335422E+02</pdfrwt>
<pdfrwt beam="1">  1       -2 0.16672258E-01 0.92335422E+02</pdfrwt>
<totfact> 0.75463372E+04</totfact>
</mgrwt>
</event>
<event>
 5    1  0.2809073E+000  0.9036819E+02  0.7818608E-02  0.1301963E+00
         -2   -1    0    0    0  501 -0.00000000000E+00  0.00000000000E+00  0.16102685478E+02  0.16102685688E+02  0.26000000000E-02 0.  1.
          2   -1    0    0  501    0  0.00000000000E+00 -0.00000000000E+00 -0.12678645110E+03  0.12678645112E+03  0.26000000000E-02 0. -1.
         23    2    1    2    0    0  0.00000000000E+00  0.00000000000E+00 -0.11068376562E+03  0.14288913681E+03  0.90368188246E+02 0.  0.
        -11    1    3    3    0    0 -0.16562264785E+02  0.24048347291E+02 -0.82020391782E+00  0.29211373761E+02  0.51100000000E-03 0.  1.
         11    1    3    3    0    0  0.16562264785E+02 -0.24048347291E+02 -0.10986356170E+03  0.11367776305E+03  0.51100000000E-03 0. -1.
<mgrwt>
<rscale>  0 0.90368188E+02</rscale>
<asrwt>0</asrwt>
<pdfrwt beam="2">  1        2 0.19505607E-01 0.90368188E+02</pdfrwt>
<pdfrwt beam="1">  1       -2 0.24773363E-02 0.90368188E+02</pdfrwt>
<totfact> 0.13544324E+05</totfact>
</mgrwt>
</event>
<event>
 5    1  0.2809073E+000  0.8665979E+02  0.7818608E-02  0.1311148E+00
          2   -1    0    0  501    0  0.00000000000E+00  0.00000000000E+00  0.12856235835E+02  0.12856236097E+02  0.26000000000E-02 0. -1.
         -2   -1    0    0    0  501 -0.00000000000E+00 -0.00000000000E+00 -0.14603649347E+03  0.14603649349E+03  0.26000000000E-02 0.  1.
         23    2    1    2    0    0  0.00000000000E+00  0.00000000000E+00 -0.13318025763E+03  0.15889272959E+03  0.86659785903E+02 0.  0.
        -11    1    3    3    0    0  0.98884336023E+01 -0.27933826485E+02 -0.86264352025E+01  0.30862520405E+02  0.51100000000E-03 0. -1.
         11    1    3    3    0    0 -0.98884336023E+01  0.27933826485E+02 -0.12455382243E+03  0.12803020918E+03  0.51100000000E-03 0.  1.
<mgrwt>
<rscale>  0 0.86659786E+02</rscale>
<asrwt>0</asrwt>
<pdfrwt beam="1">  1        2 0.19778826E-02 0.86659786E+02</pdfrwt>
<pdfrwt beam="2">  1       -2 0.22467152E-01 0.86659786E+02</pdfrwt>
<totfact> 0.80197521E+04</totfact>
</mgrwt>
</event>
<event>
 5    1  0.2809073E+000  0.9071580E+02  0.7818608E-02  0.1301127E+00
          2   -1    0    0  501    0  0.00000000000E+00  0.00000000000E+00  0.10791218677E+02  0.10791218990E+02  0.26000000000E-02 0.  1.
         -2   -1    0    0    0  501 -0.00000000000E+00 -0.00000000000E+00 -0.19064937769E+03  0.19064937770E+03  0.26000000000E-02 0. -1.
         23    2    1    2    0    0  0.00000000000E+00  0.00000000000E+00 -0.17985815901E+03  0.20144059670E+03  0.90715801460E+02 0.  0.
        -11    1    3    3    0    0  0.28156276684E+02  0.30386310721E+02 -0.48909512390E+02  0.64095586420E+02  0.51100000000E-03 0.  1.
         11    1    3    3    0    0 -0.28156276684E+02 -0.30386310721E+02 -0.13094864662E+03  0.13734501028E+03  0.51100000000E-03 0. -1.
<mgrwt>
<rscale>  0 0.90715801E+02</rscale>
<asrwt>0</asrwt>
<pdfrwt beam="1">  1        2 0.16601877E-02 0.90715801E+02</pdfrwt>
<pdfrwt beam="2">  1       -2 0.29330671E-01 0.90715801E+02</pdfrwt>
<totfact> 0.64432675E+04</totfact>
</mgrwt>
</event>
<event>
 5    1  0.2809073E+000  0.8815250E+02  0.7818608E-02  0.1307388E+00
         -2   -1    0    0    0  501 -0.00000000000E+00  0.00000000000E+00  0.16302071308E+02  0.16302071515E+02  0.26000000000E-02 0. -1.
          2   -1    0    0  501    0  0.00000000000E+00 -0.00000000000E+00 -0.11916988604E+03  0.11916988606E+03  0.26000000000E-02 0.  1.
         23    2    1    2    0    0  0.00000000000E+00  0.00000000000E+00 -0.10286781473E+03  0.13547195758E+03  0.88152504124E+02 0.  0.
        -11    1    3    3    0    0  0.35353344782E+02  0.77598409885E+01 -0.12779971607E+02  0.38384916230E+02  0.51100000000E-03 0. -1.
         11    1    3    3    0    0 -0.35353344782E+02 -0.77598409885E+01 -0.90087843121E+02  0.97087041349E+02  0.51100000000E-03 0.  1.
<mgrwt>
<rscale>  0 0.88152504E+02</rscale>
<asrwt>0</asrwt>
<pdfrwt beam="2">  1        2 0.18333828E-01 0.88152504E+02</pdfrwt>
<pdfrwt beam="1">  1       -2 0.25080111E-02 0.88152504E+02</pdfrwt>
<totfact> 0.14205710E+05</totfact>
</mgrwt>
</event>
<event>
 5    1  0.2809073E+000  0.9141894E+02  0.7818608E-02  0.1299451E+00
         -2   -1    0    0    0  501 -0.00000000000E+00  0.00000000000E+00  0.13300071638E+02  0.13300071892E+02  0.26000000000E-02 0.  1.
          2   -1    0    0  501    0  0.00000000000E+00 -0.00000000000E+00 -0.15709355623E+03  0.15709355625E+03  0.26000000000E-02 0. -1.
         23    2    1    2    0    0  0.00000000000E+00  0.00000000000E+00 -0.14379348459E+03  0.17039362814E+03  0.91418938412E+02 0.  0.
        -11    1    3    3    0    0  0.37212018830E+02  0.80191324561E+01 -0.24732384255E+02  0.45395282376E+02  0.51100000000E-03 0.  1.
         11    1    3    3    0    0 -0.37212018830E+02 -0.80191324561E+01 -0.11906110033E+03  0.12499834576E+03  0.51100000000E-03 0. -1.
<mgrwt>
<rscale>  0 0.91418938E+02</rscale>
<asrwt>0</asrwt>
<pdfrwt beam="2">  1        2 0.24168238E-01 0.91418938E+02</pdfrwt>
<pdfrwt beam="1">  1       -2 0.20461650E-02 0.91418938E+02</pdfrwt>
<totfact> 0.14101830E+05</totfact>
</mgrwt>
</event>
<event>
 5    1  0.2809073E+000  0.8251786E+02  0.7818608E-02  0.1322054E+00
         -2   -1    0    0    0  501 -0.00000000000E+00  0.00000000000E+00  0.21002419720E+03  0.21002419721E+03  0.26000000000E-02 0.  1.
          2   -1    0    0  501    0  0.00000000000E+00 -0.00000000000E+00 -0.81052521829E+01  0.81052525999E+01  0.26000000000E-02 0. -1.
         23    2    1    2    0    0  0.00000000000E+00  0.00000000000E+00  0.20191894501E+03  0.21812944981E+03  0.82517855765E+02 0.  0.
        -11    1    3    3    0    0  0.32490270207E+02  0.23751542359E+02  0.76942756863E+02  0.86832835129E+02  0.51100000000E-03 0. -1.
         11    1    3    3    0    0 -0.32490270207E+02 -0.23751542359E+02  0.12497618815E+03  0.13129661468E+03  0.51100000000E-03 0.  1.
<mgrwt>
<rscale>  0 0.82517856E+02</rscale>
<asrwt>0</asrwt>
<pdfrwt beam="2">  1        2 0.12469619E-02 0.82517856E+02</pdfrwt>
<pdfrwt beam="1">  1       -2 0.32311415E-01 0.82517856E+02</pdfrwt>
<totfact> 0.78673326E+04</totfact>
</mgrwt>
</event>
<event>
 5    1  0.2809073E+000  0.1151442E+03  0.7818608E-02  0.1251330E+00
         -2   -1    0    0    0  501 -0.00000000000E+00  0.00000000000E+00  0.82815885864E+01  0.82815889945E+01  0.26000000000E-02 0.  1.
          2   -1    0    0  501    0  0.00000000000E+00 -0.00000000000E+00 -0.40023077340E+03  0.40023077341E+03  0.26000000000E-02 0. -1.
         23    2    1    2    0    0  0.00000000000E+00  0.00000000000E+00 -0.39194918481E+03  0.40851236240E+03  0.11514419985E+03 0.  0.
        -11    1    3    3    0    0  0.20035220445E+02  0.48180298853E+02 -0.10966701181E+03  0.12144795073E+03  0.51100000000E-03 0.  1.
         11    1    3    3    0    0 -0.20035220445E+02 -0.48180298853E+02 -0.28228217300E+03  0.28706441167E+03  0.51100000000E-03 0. -1.
<mgrwt>
<rscale>  0 0.11514420E+03</rscale>
<asrwt>0</asrwt>
<pdfrwt beam="2">  1        2 0.61573950E-01 0.11514420E+03</pdfrwt>
<pdfrwt beam="1">  1       -2 0.12740909E-02 0.11514420E+03</pdfrwt>
<totfact> 0.10660032E+05</totfact>
</mgrwt>
</event>
<event>
 5    1  0.2809073E+000  0.9257123E+02  0.7818608E-02  0.1296742E+00
          2   -1    0    0  501    0  0.00000000000E+00  0.00000000000E+00  0.20719981974E+03  0.20719981976E+03  0.26000000000E-02 0.  1.
         -2   -1    0    0    0  501 -0.00000000000E+00 -0.00000000000E+00 -0.10339575177E+02  0.10339575504E+02  0.26000000000E-02 0. -1.
         23    2    1    2    0    0  0.00000000000E+00  0.00000000000E+00  0.19686024457E+03  0.21753939526E+03  0.92571229876E+02 0.  0.
        -11    1    3    3    0    0  0.10950052453E+02  0.31306671047E+02  0.22560484234E+02  0.40112177077E+02  0.51100000000E-03 0. -1.
         11    1    3    3    0    0 -0.10950052453E+02 -0.31306671047E+02  0.17429976033E+03  0.17742721819E+03  0.51100000000E-03 0.  1.
<mgrwt>
<rscale>  0 0.92571230E+02</rscale>
<asrwt>0</asrwt>
<pdfrwt beam="1">  1        2 0.31876895E-01 0.92571230E+02</pdfrwt>
<pdfrwt beam="2">  1       -2 0.15907039E-02 0.92571230E+02</pdfrwt>
<totfact> 0.15039770E+05</totfact>
</mgrwt>
</event>
<event>
 5    1  0.2809073E+000  0.9132977E+02  0.7818608E-02  0.1299663E+00
          2   -1    0    0  501    0  0.00000000000E+00  0.00000000000E+00  0.11532422736E+03  0.11532422739E+03  0.26000000000E-02 0. -1.
         -2   -1    0    0    0  501 -0.00000000000E+00 -0.00000000000E+00 -0.18081903184E+02  0.18081903371E+02  0.26000000000E-02 0.  1.
         23    2    1    2    0    0  0.00000000000E+00  0.00000000000E+00  0.97242324181E+02  0.13340613077E+03  0.91329765760E+02 0.  0.
        -11    1    3    3    0    0 -0.35491424918E+02 -0.22851485742E+02  0.23175899736E+02  0.48155518606E+02  0.51100000000E-03 0.  1.
         11    1    3    3    0    0  0.35491424918E+02  0.22851485742E+02  0.74066424445E+02  0.85250612160E+02  0.51100000000E-03 0. -1.
<mgrwt>
<rscale>  0 0.91329766E+02</rscale>
<asrwt>0</asrwt>
<pdfrwt beam="1">  1        2 0.17742189E-01 0.91329766E+02</pdfrwt>
<pdfrwt beam="2">  1       -2 0.27818312E-02 0.91329766E+02</pdfrwt>
<totfact> 0.12764322E+05</totfact>
</mgrwt>
</event>
<event>
 5    1  0.2809073E+000  0.9228408E+02  0.7818608E-02  0.1297413E+00
         -2   -1    0    0    0  501 -0.00000000000E+00  0.00000000000E+00  0.12357418307E+02  0.12357418580E+02  0.26000000000E-02 0.  1.
          2   -1    0    0  501    0  0.00000000000E+00 -0.00000000000E+00 -0.17229228680E+03  0.17229228682E+03  0.26000000000E-02 0. -1.
         23    2    1    2    0    0  0.00000000000E+00  0.00000000000E+00 -0.15993486849E+03  0.18464970540E+03  0.92284080666E+02 0.  0.
        -11    1    3    3    0    0  0.45197547176E+02 -0.44527887663E+01 -0.96277064536E+02  0.10645148545E+03  0.51100000000E-03 0.  1.
         11    1    3    3    0    0 -0.45197547176E+02  0.44527887663E+01 -0.63657803955E+02  0.78198219949E+02  0.51100000000E-03 0. -1.
<mgrwt>
<rscale>  0 0.92284081E+02</rscale>
<asrwt>0</asrwt>
<pdfrwt beam="2">  1        2 0.26506504E-01 0.92284081E+02</pdfrwt>
<pdfrwt beam="1">  1       -2 0.19011414E-02 0.92284081E+02</pdfrwt>
<totfact> 0.14194952E+05</totfact>
</mgrwt>
</event>
<event>
 5    1  0.2809073E+000  0.9054106E+02  0.7818608E-02  0.1301547E+00
         -2   -1    0    0    0  501 -0.00000000000E+00  0.00000000000E+00  0.23424745846E+02  0.23424745991E+02  0.26000000000E-02 0. -1.
          2   -1    0    0  501    0  0.00000000000E+00 -0.00000000000E+00 -0.87489568025E+02  0.87489568064E+02  0.26000000000E-02 0.  1.
         23    2    1    2    0    0  0.00000000000E+00  0.00000000000E+00 -0.64064822179E+02  0.11091431405E+03  0.90541060416E+02 0.  0.
        -11    1    3    3    0    0  0.36784329528E+02  0.23849393584E+02 -0.18197831607E+02  0.47466214812E+02  0.51100000000E-03 0. -1.
         11    1    3    3    0    0 -0.36784329528E+02 -0.23849393584E+02 -0.45866990572E+02  0.63448099242E+02  0.51100000000E-03 0.  1.
<mgrwt>
<rscale>  0 0.90541060E+02</rscale>
<asrwt>0</asrwt>
<pdfrwt beam="2">  1        2 0.13459933E-01 0.90541060E+02</pdfrwt>
<pdfrwt beam="1">  1       -2 0.36038071E-02 0.90541060E+02</pdfrwt>
<totfact> 0.12017503E+05</totfact>
</mgrwt>
</event>
<event>
 5    1  0.2809073E+000  0.9123272E+02  0.7818608E-02  0.1299894E+00
         -2   -1    0    0    0  501 -0.00000000000E+00  0.00000000000E+00  0.63875496314E+01  0.63875501606E+01  0.26000000000E-02 0.  1.
          2   -1    0    0  501    0  0.00000000000E+00 -0.00000000000E+00 -0.32576686563E+03  0.32576686564E+03  0.26000000000E-02 0. -1.
         23    2    1    2    0    0  0.00000000000E+00  0.00000000000E+00 -0.31937931600E+03  0.33215441580E+03  0.91232715888E+02 0.  0.
        -11    1    3    3    0    0  0.32246894801E+02  0.30306571142E+02 -0.19998551218E+03  0.20482323003E+03  0.51100000000E-03 0.  1.
         11    1    3    3    0    0 -0.32246894801E+02 -0.30306571142E+02 -0.11939380382E+03  0.12733118577E+03  0.51100000000E-03 0. -1.
<mgrwt>
<rscale>  0 0.91232716E+02</rscale>
<asrwt>0</asrwt>
<pdfrwt beam="2">  1        2 0.50117966E-01 0.91232716E+02</pdfrwt>
<pdfrwt beam="1">  1       -2 0.98270024E-03 0.91232716E+02</pdfrwt>
<totfact> 0.18493838E+05</totfact>
</mgrwt>
</event>
<event>
 5    1  0.2809073E+000  0.8478719E+02  0.7818608E-02  0.1315990E+00
         -2   -1    0    0    0  501 -0.00000000000E+00  0.00000000000E+00  0.48244327436E+02  0.48244327506E+02  0.26000000000E-02 0.  1.
          2   -1    0    0  501    0  0.00000000000E+00 -0.00000000000E+00 -0.37252397381E+02  0.37252397472E+02  0.26000000000E-02 0. -1.
         23    2    1    2    0    0  0.00000000000E+00  0.00000000000E+00  0.10991930054E+02  0.85496724978E+02  0.84787189219E+02 0.  0.
        -11    1    3    3    0    0  0.89214301191E+01  0.13116711662E+02  0.45138784904E+02  0.47845061846E+02  0.51100000000E-03 0.  1.
         11    1    3    3    0    0 -0.89214301191E+01 -0.13116711662E+02 -0.34146854850E+02  0.37651663132E+02  0.51100000000E-03 0. -1.
<mgrwt>
<rscale>  0 0.84787189E+02</rscale>
<asrwt>0</asrwt>
<pdfrwt beam="2">  1        2 0.57311381E-02 0.84787189E+02</pdfrwt>
<pdfrwt beam="1">  1       -2 0.74222042E-02 0.84787189E+02</pdfrwt>
<totfact> 0.11550208E+05</totfact>
</mgrwt>
</event>
<event>
 5    1  0.2809073E+000  0.9224650E+02  0.7818608E-02  0.1297501E+00
          2   -1    0    0  501    0  0.00000000000E+00  0.00000000000E+00  0.41053453620E+03  0.41053453621E+03  0.26000000000E-02 0. -1.
         -2   -1    0    0    0  501 -0.00000000000E+00 -0.00000000000E+00 -0.51819130182E+01  0.51819136704E+01  0.26000000000E-02 0.  1.
         23    2    1    2    0    0  0.00000000000E+00  0.00000000000E+00  0.40535262318E+03  0.41571644988E+03  0.92246504429E+02 0.  0.
        -11    1    3    3    0    0 -0.26125533111E+02  0.37988644339E+02  0.19684587487E+03  0.20217314123E+03  0.51100000000E-03 0.  1.
         11    1    3    3    0    0  0.26125533111E+02 -0.37988644339E+02  0.20850674831E+03  0.21354330865E+03  0.51100000000E-03 0. -1.
<mgrwt>
<rscale>  0 0.92246504E+02</rscale>
<asrwt>0</asrwt>
<pdfrwt beam="1">  1        2 0.63159165E-01 0.92246504E+02</pdfrwt>
<pdfrwt beam="2">  1       -2 0.79721737E-03 0.92246504E+02</pdfrwt>
<totfact> 0.19533375E+05</totfact>
</mgrwt>
</event>
<event>
 5    1  0.2809073E+000  0.9017830E+02  0.7818608E-02  0.1302421E+00
          2   -1    0    0  501    0  0.00000000000E+00  0.00000000000E+00  0.31689333429E+03  0.31689333430E+03  0.26000000000E-02 0.  1.
         -2   -1    0    0    0  501 -0.00000000000E+00 -0.00000000000E+00 -0.64155062959E+01  0.64155068227E+01  0.26000000000E-02 0. -1.
         23    2    1    2    0    0  0.00000000000E+00  0.00000000000E+00  0.31047782799E+03  0.32330884112E+03  0.90178296017E+02 0.  0.
        -11    1    3    3    0    0  0.10726360295E+02 -0.40618227187E+02  0.96531468113E+02  0.10527687078E+03  0.51100000000E-03 0. -1.
         11    1    3    3    0    0 -0.10726360295E+02  0.40618227187E+02  0.21394635988E+03  0.21803197034E+03  0.51100000000E-03 0.  1.
<mgrwt>
<rscale>  0 0.90178296E+02</rscale>
<asrwt>0</asrwt>
<pdfrwt beam="1">  1        2 0.48752813E-01 0.90178296E+02</pdfrwt>
<pdfrwt beam="2">  1       -2 0.98700116E-03 0.90178296E+02</pdfrwt>
<totfact> 0.18881157E+05</totfact>
</mgrwt>
</event>
<event>
 5    1  0.2809073E+000  0.9140231E+02  0.7818608E-02  0.1299491E+00
         -2   -1    0    0    0  501 -0.00000000000E+00  0.00000000000E+00  0.61285521143E+02  0.61285521198E+02  0.26000000000E-02 0.  1.
          2   -1    0    0  501    0  0.00000000000E+00 -0.00000000000E+00 -0.34079755052E+02  0.34079755151E+02  0.26000000000E-02 0. -1.
         23    2    1    2    0    0  0.00000000000E+00  0.00000000000E+00  0.27205766091E+02  0.95365276349E+02  0.91402309733E+02 0.  0.
        -11    1    3    3    0    0  0.55199794948E+01 -0.41173912682E+02  0.33476973724E+02  0.53352310438E+02  0.51100000000E-03 0. -1.
         11    1    3    3    0    0 -0.55199794948E+01  0.41173912682E+02 -0.62712076328E+01  0.42012965910E+02  0.51100000000E-03 0.  1.
<mgrwt>
<rscale>  0 0.91402310E+02</rscale>
<asrwt>0</asrwt>
<pdfrwt beam="2">  1        2 0.52430393E-02 0.91402310E+02</pdfrwt>
<pdfrwt beam="1">  1       -2 0.94285416E-02 0.91402310E+02</pdfrwt>
<totfact> 0.90836114E+04</totfact>
</mgrwt>
</event>
<event>
 5    1  0.2809073E+000  0.8869387E+02  0.7818608E-02  0.1306046E+00
         -2   -1    0    0    0  501 -0.00000000000E+00  0.00000000000E+00  0.27409246138E+02  0.27409246262E+02  0.26000000000E-02 0.  1.
          2   -1    0    0  501    0  0.00000000000E+00 -0.00000000000E+00 -0.71751364721E+02  0.71751364768E+02  0.26000000000E-02 0. -1.
         23    2    1    2    0    0  0.00000000000E+00  0.00000000000E+00 -0.44342118583E+02  0.99160611030E+02  0.88693874081E+02 0.  0.
        -11    1    3    3    0    0 -0.22258730520E+02  0.35455090326E+02 -0.38531339089E+02  0.56896209071E+02  0.51100000000E-03 0. -1.
         11    1    3    3    0    0  0.22258730520E+02 -0.35455090326E+02 -0.58107794940E+01  0.42264401959E+02  0.51100000000E-03 0.  1.
<mgrwt>
<rscale>  0 0.88693874E+02</rscale>
<asrwt>0</asrwt>
<pdfrwt beam="2">  1        2 0.11038671E-01 0.88693874E+02</pdfrwt>
<pdfrwt beam="1">  1       -2 0.42168071E-02 0.88693874E+02</pdfrwt>
<totfact> 0.12028566E+05</totfact>
</mgrwt>
</event>
<event>
 5    1  0.2809073E+000  0.9276177E+02  0.7818608E-02  0.1296298E+00
          2   -1    0    0  501    0  0.00000000000E+00  0.00000000000E+00  0.47578326932E+02  0.47578327003E+02  0.26000000000E-02 0. -1.
         -2   -1    0    0    0  501 -0.00000000000E+00 -0.00000000000E+00 -0.45213575052E+02  0.45213575127E+02  0.26000000000E-02 0.  1.
         23    2    1    2    0    0  0.00000000000E+00  0.00000000000E+00  0.23647518796E+01  0.92791902130E+02  0.92761765019E+02 0.  0.
        -11    1    3    3    0    0 -0.35704207139E+02 -0.67876903549E+01  0.30007065438E+02  0.47130532824E+02  0.51100000000E-03 0. -1.
         11    1    3    3    0    0  0.35704207139E+02  0.67876903549E+01 -0.27642313558E+02  0.45661369306E+02  0.51100000000E-03 0.  1.
<mgrwt>
<rscale>  0 0.92761765E+02</rscale>
<asrwt>0</asrwt>
<pdfrwt beam="1">  1        2 0.73197426E-02 0.92761765E+02</pdfrwt>
<pdfrwt beam="2">  1       -2 0.69559346E-02 0.92761765E+02</pdfrwt>
<totfact> 0.94962901E+04</totfact>
</mgrwt>
</event>
<event>
 5    1  0.2809073E+000  0.9108727E+02  0.7818608E-02  0.1300240E+00
         -2   -1    0    0    0  501 -0.00000000000E+00  0.00000000000E+00  0.23235022960E+03  0.23235022961E+03  0.26000000000E-02 0.  1.
          2   -1    0    0  501    0  0.00000000000E+00 -0.00000000000E+00 -0.89271381410E+01  0.89271385196E+01  0.26000000000E-02 0. -1.
         23    2    1    2    0    0  0.00000000000E+00  0.00000000000E+00  0.22342309146E+03  0.24127736813E+03  0.91087269015E+02 0.  0.
        -11    1    3    3    0    0 -0.34724487476E+02  0.40991839548E+01  0.18901238411E+03  0.19221934004E+03  0.51100000000E-03 0.  1.
         11    1    3    3    0    0  0.34724487476E+02 -0.40991839548E+01  0.34410707348E+02  0.49058028090E+02  0.51100000000E-03 0. -1.
<mgrwt>
<rscale>  0 0.91087269E+02</rscale>
<asrwt>0</asrwt>
<pdfrwt beam="2">  1        2 0.13734060E-02 0.91087269E+02</pdfrwt>
<pdfrwt beam="1">  1       -2 0.35746187E-01 0.91087269E+02</pdfrwt>
<totfact> 0.58365117E+04</totfact>
</mgrwt>
</event>
<event>
 5    1  0.2809073E+000  0.9064621E+02  0.7818608E-02  0.1301294E+00
         -2   -1    0    0    0  501 -0.00000000000E+00  0.00000000000E+00  0.31881850858E+02  0.31881850964E+02  0.26000000000E-02 0.  1.
          2   -1    0    0  501    0  0.00000000000E+00 -0.00000000000E+00 -0.64431140188E+02  0.64431140240E+02  0.26000000000E-02 0. -1.
         23    2    1    2    0    0  0.00000000000E+00  0.00000000000E+00 -0.32549289330E+02  0.96312991204E+02  0.90646213593E+02 0.  0.
        -11    1    3    3    0    0 -0.39240995438E+02 -0.22668461428E+02 -0.15546885300E+02  0.47910546952E+02  0.51100000000E-03 0.  1.
         11    1    3    3    0    0  0.39240995438E+02  0.22668461428E+02 -0.17002404030E+02  0.48402444252E+02  0.51100000000E-03 0. -1.
<mgrwt>
<rscale>  0 0.90646214E+02</rscale>
<asrwt>0</asrwt>
<pdfrwt beam="2">  1        2 0.99124831E-02 0.90646214E+02</pdfrwt>
<pdfrwt beam="1">  1       -2 0.49049002E-02 0.90646214E+02</pdfrwt>
<totfact> 0.10991693E+05</totfact>
</mgrwt>
</event>
<event>
 5    1  0.2809073E+000  0.9711702E+02  0.7818608E-02  0.1286478E+00
          2   -1    0    0  501    0  0.00000000000E+00  0.00000000000E+00  0.15915194033E+03  0.15915194035E+03  0.26000000000E-02 0. -1.
         -2   -1    0    0    0  501 -0.00000000000E+00 -0.00000000000E+00 -0.14815585014E+02  0.14815585242E+02  0.26000000000E-02 0.  1.
         23    2    1    2    0    0  0.00000000000E+00  0.00000000000E+00  0.14433635532E+03  0.17396752559E+03  0.97117024743E+02 0.  0.
        -11    1    3    3    0    0  0.38135564297E+02 -0.28323292179E+02  0.54130126708E+02  0.72018058581E+02  0.51100000000E-03 0.  1.
         11    1    3    3    0    0 -0.38135564297E+02  0.28323292179E+02  0.90206228609E+02  0.10194946701E+03  0.51100000000E-03 0. -1.
<mgrwt>
<rscale>  0 0.97117025E+02</rscale>
<asrwt>0</asrwt>
<pdfrwt beam="1">  1        2 0.24484913E-01 0.97117025E+02</pdfrwt>
<pdfrwt beam="2">  1       -2 0.22793209E-02 0.97117025E+02</pdfrwt>
<totfact> 0.12015117E+05</totfact>
</mgrwt>
</event>
<event>
 5    1  0.2809073E+000  0.9152643E+02  0.7818608E-02  0.1299197E+00
          2   -1    0    0  501    0  0.00000000000E+00  0.00000000000E+00  0.92703971710E+01  0.92703975356E+01  0.26000000000E-02 0. -1.
         -2   -1    0    0    0  501 -0.00000000000E+00 -0.00000000000E+00 -0.22590960645E+03  0.22590960647E+03  0.26000000000E-02 0.  1.
         23    2    1    2    0    0  0.00000000000E+00  0.00000000000E+00 -0.21663920928E+03  0.23518000400E+03  0.91526429433E+02 0.  0.
        -11    1    3    3    0    0 -0.14537367006E+02  0.43071823933E+02 -0.94782597850E+02  0.10512020696E+03  0.51100000000E-03 0. -1.
         11    1    3    3    0    0  0.14537367006E+02 -0.43071823933E+02 -0.12185661143E+03  0.13005979704E+03  0.51100000000E-03 0.  1.
<mgrwt>
<rscale>  0 0.91526429E+02</rscale>
<asrwt>0</asrwt>
<pdfrwt beam="1">  1        2 0.14262151E-02 0.91526429E+02</pdfrwt>
<pdfrwt beam="2">  1       -2 0.34755320E-01 0.91526429E+02</pdfrwt>
<totfact> 0.58419397E+04</totfact>
</mgrwt>
</event>
<event>
 5    1  0.2809073E+000  0.9235092E+02  0.7818608E-02  0.1297256E+00
          2   -1    0    0  501    0  0.00000000000E+00  0.00000000000E+00  0.11043643031E+03  0.11043643034E+03  0.26000000000E-02 0. -1.
         -2   -1    0    0    0  501 -0.00000000000E+00 -0.00000000000E+00 -0.19306792285E+02  0.19306792460E+02  0.26000000000E-02 0.  1.
         23    2    1    2    0    0  0.00000000000E+00  0.00000000000E+00  0.91129638028E+02  0.12974322280E+03  0.92350922770E+02 0.  0.
        -11    1    3    3    0    0 -0.11076999123E+02 -0.20929172845E+02 -0.10127174684E+02  0.25754414241E+02  0.51100000000E-03 0.  1.
         11    1    3    3    0    0  0.11076999123E+02  0.20929172845E+02  0.10125681271E+03  0.10398880856E+03  0.51100000000E-03 0. -1.
<mgrwt>
<rscale>  0 0.92350923E+02</rscale>
<asrwt>0</asrwt>
<pdfrwt beam="1">  1        2 0.16990220E-01 0.92350923E+02</pdfrwt>
<pdfrwt beam="2">  1       -2 0.29702758E-02 0.92350923E+02</pdfrwt>
<totfact> 0.12212523E+05</totfact>
</mgrwt>
</event>
<event>
 5    1  0.2809073E+000  0.9117677E+02  0.7818608E-02  0.1300027E+00
         -2   -1    0    0    0  501 -0.00000000000E+00  0.00000000000E+00  0.19501676499E+02  0.19501676672E+02  0.26000000000E-02 0.  1.
          2   -1    0    0  501    0  0.00000000000E+00 -0.00000000000E+00 -0.10657037082E+03  0.10657037085E+03  0.26000000000E-02 0. -1.
         23    2    1    2    0    0  0.00000000000E+00  0.00000000000E+00 -0.87068694320E+02  0.12607204752E+03  0.91176771362E+02 0.  0.
        -11    1    3    3    0    0 -0.23503614418E+02  0.26853303620E+01  0.10350456709E+02  0.25821751377E+02  0.51100000000E-03 0.  1.
         11    1    3    3    0    0  0.23503614418E+02 -0.26853303620E+01 -0.97419151029E+02  0.10025029615E+03  0.51100000000E-03 0. -1.
<mgrwt>
<rscale>  0 0.91176771E+02</rscale>
<asrwt>0</asrwt>
<pdfrwt beam="2">  1        2 0.16395441E-01 0.91176771E+02</pdfrwt>
<pdfrwt beam="1">  1       -2 0.30002580E-02 0.91176771E+02</pdfrwt>
<totfact> 0.12509849E+05</totfact>
</mgrwt>
</event>
<event>
 5    1  0.2809073E+000  0.8302500E+02  0.7818608E-02  0.1320680E+00
          2   -1    0    0  501    0  0.00000000000E+00  0.00000000000E+00  0.86495115890E+02  0.86495115929E+02  0.26000000000E-02 0. -1.
         -2   -1    0    0    0  501 -0.00000000000E+00 -0.00000000000E+00 -0.19923524888E+02  0.19923525058E+02  0.26000000000E-02 0.  1.
         23    2    1    2    0    0  0.00000000000E+00  0.00000000000E+00  0.66571591002E+02  0.10641864099E+03  0.83024998771E+02 0.  0.
        -11    1    3    3    0    0 -0.34262159502E+02 -0.17333000759E+02  0.53510065156E+02  0.65860880364E+02  0.51100000000E-03 0. -1.
         11    1    3    3    0    0  0.34262159502E+02  0.17333000759E+02  0.13061525846E+02  0.40557760623E+02  0.51100000000E-03 0.  1.
<mgrwt>
<rscale>  0 0.83024999E+02</rscale>
<asrwt>0</asrwt>
<pdfrwt beam="1">  1        2 0.13306941E-01 0.83024999E+02</pdfrwt>
<pdfrwt beam="2">  1       -2 0.30651577E-02 0.83024999E+02</pdfrwt>
<totfact> 0.15196166E+05</totfact>
</mgrwt>
</event>
<event>
 5    1  0.2809073E+000  0.9327276E+02  0.7818608E-02  0.1295114E+00
         -2   -1    0    0    0  501 -0.00000000000E+00  0.00000000000E+00  0.15251302653E+02  0.15251302874E+02  0.26000000000E-02 0.  1.
          2   -1    0    0  501    0  0.00000000000E+00 -0.00000000000E+00 -0.14260761367E+03  0.14260761369E+03  0.26000000000E-02 0. -1.
         23    2    1    2    0    0  0.00000000000E+00  0.00000000000E+00 -0.12735631102E+03  0.15785891657E+03  0.93272759067E+02 0.  0.
        -11    1    3    3    0    0  0.23353172281E+02  0.26806819950E+02 -0.11476013014E+03  0.12014101599E+03  0.51100000000E-03 0. -1.
         11    1    3    3    0    0 -0.23353172281E+02 -0.26806819950E+02 -0.12596180873E+02  0.37717900581E+02  0.51100000000E-03 0.  1.
<mgrwt>
<rscale>  0 0.93272759E+02</rscale>
<asrwt>0</asrwt>
<pdfrwt beam="2">  1        2 0.21939632E-01 0.93272759E+02</pdfrwt>
<pdfrwt beam="1">  1       -2 0.23463544E-02 0.93272759E+02</pdfrwt>
<totfact> 0.12918822E+05</totfact>
</mgrwt>
</event>
<event>
 5    1  0.2809073E+000  0.9092595E+02  0.7818608E-02  0.1300625E+00
          2   -1    0    0  501    0  0.00000000000E+00  0.00000000000E+00  0.49144737299E+02  0.49144737368E+02  0.26000000000E-02 0. -1.
         -2   -1    0    0    0  501 -0.00000000000E+00 -0.00000000000E+00 -0.42057042354E+02  0.42057042434E+02  0.26000000000E-02 0.  1.
         23    2    1    2    0    0  0.00000000000E+00  0.00000000000E+00  0.70876949455E+01  0.91201779802E+02  0.90925954597E+02 0.  0.
        -11    1    3    3    0    0  0.23157032001E+01  0.32380037937E+02  0.35468892666E+02  0.48081926806E+02  0.51100000000E-03 0. -1.
         11    1    3    3    0    0 -0.23157032001E+01 -0.32380037937E+02 -0.28381197721E+02  0.43119852996E+02  0.51100000000E-03 0.  1.
<mgrwt>
<rscale>  0 0.90925955E+02</rscale>
<asrwt>0</asrwt>
<pdfrwt beam="1">  1        2 0.75607288E-02 0.90925955E+02</pdfrwt>
<pdfrwt beam="2">  1       -2 0.64703143E-02 0.90925955E+02</pdfrwt>
<totfact> 0.10141727E+05</totfact>
</mgrwt>
</event>
<event>
 5    1  0.2809073E+000  0.9047965E+02  0.7818608E-02  0.1301694E+00
          2   -1    0    0  501    0  0.00000000000E+00  0.00000000000E+00  0.12364482901E+02  0.12364483174E+02  0.26000000000E-02 0. -1.
         -2   -1    0    0    0  501 -0.00000000000E+00 -0.00000000000E+00 -0.16552584948E+03  0.16552584950E+03  0.26000000000E-02 0.  1.
         23    2    1    2    0    0  0.00000000000E+00  0.00000000000E+00 -0.15316136658E+03  0.17789033267E+03  0.90479645483E+02 0.  0.
        -11    1    3    3    0    0 -0.62986269818E+01 -0.42777633743E+02 -0.50420503293E+02  0.66421576337E+02  0.51100000000E-03 0. -1.
         11    1    3    3    0    0  0.62986269818E+01  0.42777633743E+02 -0.10274086328E+03  0.11146875634E+03  0.51100000000E-03 0.  1.
<mgrwt>
<rscale>  0 0.90479645E+02</rscale>
<asrwt>0</asrwt>
<pdfrwt beam="1">  1        2 0.19022283E-02 0.90479645E+02</pdfrwt>
<pdfrwt beam="2">  1       -2 0.25465514E-01 0.90479645E+02</pdfrwt>
<totfact> 0.68651740E+04</totfact>
</mgrwt>
</event>
<event>
 5    1  0.2809073E+000  0.9083186E+02  0.7818608E-02  0.1300850E+00
         -2   -1    0    0    0  501 -0.00000000000E+00  0.00000000000E+00  0.20539712809E+03  0.20539712811E+03  0.26000000000E-02 0. -1.
          2   -1    0    0  501    0  0.00000000000E+00 -0.00000000000E+00 -0.10042043218E+02  0.10042043555E+02  0.26000000000E-02 0.  1.
         23    2    1    2    0    0  0.00000000000E+00  0.00000000000E+00  0.19535508487E+03  0.21543917166E+03  0.90831863906E+02 0.  0.
        -11    1    3    3    0    0  0.26701899607E+02 -0.36726588388E+02  0.95592020118E+02  0.10582848410E+03  0.51100000000E-03 0. -1.
         11    1    3    3    0    0 -0.26701899607E+02  0.36726588388E+02  0.99763064753E+02  0.10961068756E+03  0.51100000000E-03 0.  1.
<mgrwt>
<rscale>  0 0.90831864E+02</rscale>
<asrwt>0</asrwt>
<pdfrwt beam="2">  1        2 0.15449298E-02 0.90831864E+02</pdfrwt>
<pdfrwt beam="1">  1       -2 0.31599558E-01 0.90831864E+02</pdfrwt>
<totfact> 0.62198390E+04</totfact>
</mgrwt>
</event>
<event>
 5    1  0.2809073E+000  0.9330790E+02  0.7818608E-02  0.1295033E+00
          2   -1    0    0  501    0  0.00000000000E+00  0.00000000000E+00  0.15517480865E+02  0.15517481083E+02  0.26000000000E-02 0. -1.
         -2   -1    0    0    0  501 -0.00000000000E+00 -0.00000000000E+00 -0.14026703406E+03  0.14026703409E+03  0.26000000000E-02 0.  1.
         23    2    1    2    0    0  0.00000000000E+00  0.00000000000E+00 -0.12474955320E+03  0.15578451517E+03  0.93307899685E+02 0.  0.
        -11    1    3    3    0    0 -0.18230269053E+02 -0.36961995757E+02 -0.98879302411E+02  0.10712445232E+03  0.51100000000E-03 0.  1.
         11    1    3    3    0    0  0.18230269053E+02  0.36961995757E+02 -0.25870250786E+02  0.48660062845E+02  0.51100000000E-03 0. -1.
<mgrwt>
<rscale>  0 0.93307900E+02</rscale>
<asrwt>0</asrwt>
<pdfrwt beam="1">  1        2 0.23873049E-02 0.93307900E+02</pdfrwt>
<pdfrwt beam="2">  1       -2 0.21579543E-01 0.93307900E+02</pdfrwt>
<totfact> 0.67492601E+04</totfact>
</mgrwt>
</event>
<event>
 5    1  0.2809073E+000  0.7811592E+02  0.7818608E-02  0.1334485E+00
         -2   -1    0    0    0  501 -0.00000000000E+00  0.00000000000E+00  0.17633743288E+03  0.17633743290E+03  0.26000000000E-02 0.  1.
          2   -1    0    0  501    0  0.00000000000E+00 -0.00000000000E+00 -0.86511654590E+01  0.86511658497E+01  0.26000000000E-02 0. -1.
         23    2    1    2    0    0  0.00000000000E+00  0.00000000000E+00  0.16768626742E+03  0.18498859875E+03  0.78115922740E+02 0.  0.
        -11    1    3    3    0    0  0.26958418258E+01  0.38324771739E+02  0.67187144040E+02  0.77396175723E+02  0.51100000000E-03 0. -1.
         11    1    3    3    0    0 -0.26958418258E+01 -0.38324771739E+02  0.10049912338E+03  0.10759242303E+03  0.51100000000E-03 0.  1.
<mgrwt>
<rscale>  0 0.78115923E+02</rscale>
<asrwt>0</asrwt>
<pdfrwt beam="2">  1        2 0.13309487E-02 0.78115923E+02</pdfrwt>
<pdfrwt beam="1">  1       -2 0.27128832E-01 0.78115923E+02</pdfrwt>
<totfact> 0.97236431E+04</totfact>
</mgrwt>
</event>
<event>
 5    1  0.2809073E+000  0.9197386E+02  0.7818608E-02  0.1298141E+00
         -2   -1    0    0    0  501 -0.00000000000E+00  0.00000000000E+00  0.14267824160E+03  0.14267824162E+03  0.26000000000E-02 0.  1.
          2   -1    0    0  501    0  0.00000000000E+00 -0.00000000000E+00 -0.14822147455E+02  0.14822147683E+02  0.26000000000E-02 0. -1.
         23    2    1    2    0    0  0.00000000000E+00  0.00000000000E+00  0.12785609415E+03  0.15750038931E+03  0.91973864886E+02 0.  0.
        -11    1    3    3    0    0 -0.38496060005E+02 -0.20766234176E+02  0.39612813820E+02  0.59011508511E+02  0.51100000000E-03 0.  1.
         11    1    3    3    0    0  0.38496060005E+02  0.20766234176E+02  0.88243280325E+02  0.98488880797E+02  0.51100000000E-03 0. -1.
<mgrwt>
<rscale>  0 0.91973865E+02</rscale>
<asrwt>0</asrwt>
<pdfrwt beam="2">  1        2 0.22803303E-02 0.91973865E+02</pdfrwt>
<pdfrwt beam="1">  1       -2 0.21950499E-01 0.91973865E+02</pdfrwt>
<totfact> 0.69574431E+04</totfact>
</mgrwt>
</event>
<event>
 5    1  0.2809073E+000  0.8943654E+02  0.7818608E-02  0.1304222E+00
          2   -1    0    0  501    0  0.00000000000E+00  0.00000000000E+00  0.22320634217E+02  0.22320634369E+02  0.26000000000E-02 0. -1.
         -2   -1    0    0    0  501 -0.00000000000E+00 -0.00000000000E+00 -0.89590800836E+02  0.89590800874E+02  0.26000000000E-02 0.  1.
         23    2    1    2    0    0  0.00000000000E+00  0.00000000000E+00 -0.67270166619E+02  0.11191143524E+03  0.89436536277E+02 0.  0.
        -11    1    3    3    0    0  0.98788966502E+01  0.34922775428E+02 -0.94465750524E+00  0.36305443403E+02  0.51100000000E-03 0. -1.
         11    1    3    3    0    0 -0.98788966502E+01 -0.34922775428E+02 -0.66325509114E+02  0.75605991840E+02  0.51100000000E-03 0.  1.
<mgrwt>
<rscale>  0 0.89436536E+02</rscale>
<asrwt>0</asrwt>
<pdfrwt beam="1">  1        2 0.34339438E-02 0.89436536E+02</pdfrwt>
<pdfrwt beam="2">  1       -2 0.13783200E-01 0.89436536E+02</pdfrwt>
<totfact> 0.86433248E+04</totfact>
</mgrwt>
</event>
<event>
 5    1  0.2809073E+000  0.8905028E+02  0.7818608E-02  0.1305168E+00
          2   -1    0    0  501    0  0.00000000000E+00  0.00000000000E+00  0.46647140442E+02  0.46647140515E+02  0.26000000000E-02 0. -1.
         -2   -1    0    0    0  501 -0.00000000000E+00 -0.00000000000E+00 -0.42499666537E+02  0.42499666616E+02  0.26000000000E-02 0.  1.
         23    2    1    2    0    0  0.00000000000E+00  0.00000000000E+00  0.41474739056E+01  0.89146807131E+02  0.89050276147E+02 0.  0.
        -11    1    3    3    0    0  0.38793365515E+02 -0.21800853788E+02  0.56031565727E+00  0.44502993020E+02  0.51100000000E-03 0.  1.
         11    1    3    3    0    0 -0.38793365515E+02  0.21800853788E+02  0.35871582483E+01  0.44643814111E+02  0.51100000000E-03 0. -1.
<mgrwt>
<rscale>  0 0.89050276E+02</rscale>
<asrwt>0</asrwt>
<pdfrwt beam="1">  1        2 0.71764832E-02 0.89050276E+02</pdfrwt>
<pdfrwt beam="2">  1       -2 0.65384102E-02 0.89050276E+02</pdfrwt>
<totfact> 0.10618640E+05</totfact>
</mgrwt>
</event>
<event>
 5    1  0.2809073E+000  0.9217435E+02  0.7818608E-02  0.1297670E+00
          2   -1    0    0  501    0  0.00000000000E+00  0.00000000000E+00  0.15568145567E+02  0.15568145784E+02  0.26000000000E-02 0. -1.
         -2   -1    0    0    0  501 -0.00000000000E+00 -0.00000000000E+00 -0.13643419944E+03  0.13643419946E+03  0.26000000000E-02 0.  1.
         23    2    1    2    0    0  0.00000000000E+00  0.00000000000E+00 -0.12086605387E+03  0.15200234525E+03  0.92174345575E+02 0.  0.
        -11    1    3    3    0    0  0.22782272384E+02 -0.37264855574E+01 -0.12621246721E+03  0.12830629567E+03  0.51100000000E-03 0.  1.
         11    1    3    3    0    0 -0.22782272384E+02  0.37264855574E+01  0.53464133389E+01  0.23696049575E+02  0.51100000000E-03 0. -1.
<mgrwt>
<rscale>  0 0.92174346E+02</rscale>
<asrwt>0</asrwt>
<pdfrwt beam="1">  1        2 0.23950994E-02 0.92174346E+02</pdfrwt>
<pdfrwt beam="2">  1       -2 0.20989876E-01 0.92174346E+02</pdfrwt>
<totfact> 0.70287810E+04</totfact>
</mgrwt>
</event>
<event>
 5    1  0.2809073E+000  0.9951469E+02  0.7818608E-02  0.1281320E+00
         -2   -1    0    0    0  501 -0.00000000000E+00  0.00000000000E+00  0.34076065741E+02  0.34076065840E+02  0.26000000000E-02 0.  1.
          2   -1    0    0  501    0  0.00000000000E+00 -0.00000000000E+00 -0.72654906891E+02  0.72654906938E+02  0.26000000000E-02 0. -1.
         23    2    1    2    0    0  0.00000000000E+00  0.00000000000E+00 -0.38578841150E+02  0.10673097278E+03  0.99514690200E+02 0.  0.
        -11    1    3    3    0    0  0.10751054298E+02 -0.24377073678E+02  0.25781300159E+02  0.37074281217E+02  0.51100000000E-03 0.  1.
         11    1    3    3    0    0 -0.10751054298E+02  0.24377073678E+02 -0.64360141309E+02  0.69656691561E+02  0.51100000000E-03 0. -1.
<mgrwt>
<rscale>  0 0.99514690E+02</rscale>
<asrwt>0</asrwt>
<pdfrwt beam="2">  1        2 0.11177678E-01 0.99514690E+02</pdfrwt>
<pdfrwt beam="1">  1       -2 0.52424717E-02 0.99514690E+02</pdfrwt>
<totfact> 0.87366151E+04</totfact>
</mgrwt>
</event>
<event>
 5    1  0.2809073E+000  0.9214161E+02  0.7818608E-02  0.1297747E+00
         -2   -1    0    0    0  501 -0.00000000000E+00  0.00000000000E+00  0.33210134076E+02  0.33210134178E+02  0.26000000000E-02 0.  1.
          2   -1    0    0  501    0  0.00000000000E+00 -0.00000000000E+00 -0.63911782302E+02  0.63911782355E+02  0.26000000000E-02 0. -1.
         23    2    1    2    0    0  0.00000000000E+00  0.00000000000E+00 -0.30701648226E+02  0.97121916533E+02  0.92141605516E+02 0.  0.
        -11    1    3    3    0    0  0.31469255276E+02 -0.84660190231E+01  0.18975178110E+02  0.37710010479E+02  0.51100000000E-03 0.  1.
         11    1    3    3    0    0 -0.31469255276E+02  0.84660190231E+01 -0.49676826337E+02  0.59411906053E+02  0.51100000000E-03 0. -1.
<mgrwt>
<rscale>  0 0.92141606E+02</rscale>
<asrwt>0</asrwt>
<pdfrwt beam="2">  1        2 0.98325819E-02 0.92141606E+02</pdfrwt>
<pdfrwt beam="1">  1       -2 0.51092514E-02 0.92141606E+02</pdfrwt>
<totfact> 0.10474183E+05</totfact>
</mgrwt>
</event>
<event>
 5    1  0.2809073E+000  0.6627623E+02  0.7818608E-02  0.1373234E+00
         -2   -1    0    0    0  501 -0.00000000000E+00  0.00000000000E+00  0.77919548889E+01  0.77919553227E+01  0.26000000000E-02 0.  1.
          2   -1    0    0  501    0  0.00000000000E+00 -0.00000000000E+00 -0.14093185591E+03  0.14093185593E+03  0.26000000000E-02 0. -1.
         23    2    1    2    0    0  0.00000000000E+00  0.00000000000E+00 -0.13313990102E+03  0.14872381126E+03  0.66276230964E+02 0.  0.
        -11    1    3    3    0    0  0.10524861016E+02 -0.30087629586E+02 -0.86902186463E+02  0.92563643867E+02  0.51100000000E-03 0. -1.
         11    1    3    3    0    0 -0.10524861016E+02  0.30087629586E+02 -0.46237714557E+02  0.56160167389E+02  0.51100000000E-03 0.  1.
<mgrwt>
<rscale>  0 0.66276231E+02</rscale>
<asrwt>0</asrwt>
<pdfrwt beam="2">  1        2 0.21681822E-01 0.66276231E+02</pdfrwt>
<pdfrwt beam="1">  1       -2 0.11987624E-02 0.66276231E+02</pdfrwt>
<totfact> 0.32006945E+05</totfact>
</mgrwt>
</event>
<event>
 5    1  0.2809073E+000  0.9085881E+02  0.7818608E-02  0.1300785E+00
          2   -1    0    0  501    0  0.00000000000E+00  0.00000000000E+00  0.38094541222E+02  0.38094541311E+02  0.26000000000E-02 0. -1.
         -2   -1    0    0    0  501 -0.00000000000E+00 -0.00000000000E+00 -0.54176552240E+02  0.54176552302E+02  0.26000000000E-02 0.  1.
         23    2    1    2    0    0  0.00000000000E+00  0.00000000000E+00 -0.16082011018E+02  0.92271093613E+02  0.90858811561E+02 0.  0.
        -11    1    3    3    0    0 -0.18662644306E+02 -0.10381421453E+02 -0.48761176331E+02  0.53232701616E+02  0.51100000000E-03 0.  1.
         11    1    3    3    0    0  0.18662644306E+02  0.10381421453E+02  0.32679165314E+02  0.39038391997E+02  0.51100000000E-03 0. -1.
<mgrwt>
<rscale>  0 0.90858812E+02</rscale>
<asrwt>0</asrwt>
<pdfrwt beam="1">  1        2 0.58606987E-02 0.90858812E+02</pdfrwt>
<pdfrwt beam="2">  1       -2 0.83348542E-02 0.90858812E+02</pdfrwt>
<totfact> 0.95151446E+04</totfact>
</mgrwt>
</event>
<event>
 5    1  0.2809073E+000  0.1066825E+03  0.7818608E-02  0.1266840E+00
         -2   -1    0    0    0  501 -0.00000000000E+00  0.00000000000E+00  0.12353251611E+02  0.12353251885E+02  0.26000000000E-02 0.  1.
          2   -1    0    0  501    0  0.00000000000E+00 -0.00000000000E+00 -0.23032711136E+03  0.23032711137E+03  0.26000000000E-02 0. -1.
         23    2    1    2    0    0  0.00000000000E+00  0.00000000000E+00 -0.21797385975E+03  0.24268036326E+03  0.10668249705E+03 0.  0.
        -11    1    3    3    0    0 -0.31896554492E+02 -0.18152572585E+02 -0.20932169194E+02  0.42249991566E+02  0.51100000000E-03 0.  1.
         11    1    3    3    0    0  0.31896554492E+02  0.18152572585E+02 -0.19704169055E+03  0.20043037169E+03  0.51100000000E-03 0. -1.
<mgrwt>
<rscale>  0 0.10668250E+03</rscale>
<asrwt>0</asrwt>
<pdfrwt beam="2">  1        2 0.35434937E-01 0.10668250E+03</pdfrwt>
<pdfrwt beam="1">  1       -2 0.19005004E-02 0.10668250E+03</pdfrwt>
<totfact> 0.10642127E+05</totfact>
</mgrwt>
</event>
<event>
 5    1  0.2809073E+000  0.8588830E+02  0.7818608E-02  0.1313126E+00
          2   -1    0    0  501    0  0.00000000000E+00  0.00000000000E+00  0.24173770259E+03  0.24173770260E+03  0.26000000000E-02 0. -1.
         -2   -1    0    0    0  501 -0.00000000000E+00 -0.00000000000E+00 -0.76289289108E+01  0.76289293539E+01  0.26000000000E-02 0.  1.
         23    2    1    2    0    0  0.00000000000E+00  0.00000000000E+00  0.23410877368E+03  0.24936663196E+03  0.85888295014E+02 0.  0.
        -11    1    3    3    0    0  0.33487684055E+02  0.11594796719E+02  0.18747777068E+03  0.19079774316E+03  0.51100000000E-03 0. -1.
         11    1    3    3    0    0 -0.33487684055E+02 -0.11594796719E+02  0.46631002997E+02  0.58568888798E+02  0.51100000000E-03 0.  1.
<mgrwt>
<rscale>  0 0.85888295E+02</rscale>
<asrwt>0</asrwt>
<pdfrwt beam="1">  1        2 0.37190403E-01 0.85888295E+02</pdfrwt>
<pdfrwt beam="2">  1       -2 0.11736818E-02 0.85888295E+02</pdfrwt>
<totfact> 0.19445689E+05</totfact>
</mgrwt>
</event>
<event>
 5    1  0.2809073E+000  0.9338430E+02  0.7818608E-02  0.1294857E+00
          2   -1    0    0  501    0  0.00000000000E+00  0.00000000000E+00  0.56753783106E+02  0.56753783166E+02  0.26000000000E-02 0. -1.
         -2   -1    0    0    0  501 -0.00000000000E+00 -0.00000000000E+00 -0.38414298887E+02  0.38414298975E+02  0.26000000000E-02 0.  1.
         23    2    1    2    0    0  0.00000000000E+00  0.00000000000E+00  0.18339484219E+02  0.95168082141E+02  0.93384298343E+02 0.  0.
        -11    1    3    3    0    0 -0.40924865942E+02  0.14363071444E+02 -0.84525928259E+01  0.44188106991E+02  0.51100000000E-03 0.  1.
         11    1    3    3    0    0  0.40924865942E+02 -0.14363071444E+02  0.26792077045E+02  0.50979975150E+02  0.51100000000E-03 0. -1.
<mgrwt>
<rscale>  0 0.93384298E+02</rscale>
<asrwt>0</asrwt>
<pdfrwt beam="1">  1        2 0.87313513E-02 0.93384298E+02</pdfrwt>
<pdfrwt beam="2">  1       -2 0.59098921E-02 0.93384298E+02</pdfrwt>
<totfact> 0.97645258E+04</totfact>
</mgrwt>
</event>
<event>
 5    1  0.2809073E+000  0.9102356E+02  0.7818608E-02  0.1300392E+00
         -2   -1    0    0    0  501 -0.00000000000E+00  0.00000000000E+00  0.12492431122E+03  0.12492431124E+03  0.26000000000E-02 0.  1.
          2   -1    0    0  501    0  0.00000000000E+00 -0.00000000000E+00 -0.16580617100E+02  0.16580617303E+02  0.26000000000E-02 0. -1.
         23    2    1    2    0    0  0.00000000000E+00  0.00000000000E+00  0.10834369412E+03  0.14150492855E+03  0.91023561500E+02 0.  0.
        -11    1    3    3    0    0  0.60932371970E+00 -0.44694708577E+02  0.67484672621E+02  0.80945471085E+02  0.51100000000E-03 0.  1.
         11    1    3    3    0    0 -0.60932371970E+00  0.44694708577E+02  0.40859021496E+02  0.60559457461E+02  0.51100000000E-03 0. -1.
<mgrwt>
<rscale>  0 0.91023561E+02</rscale>
<asrwt>0</asrwt>
<pdfrwt beam="2">  1        2 0.25508643E-02 0.91023561E+02</pdfrwt>
<pdfrwt beam="1">  1       -2 0.19219124E-01 0.91023561E+02</pdfrwt>
<totfact> 0.74747053E+04</totfact>
</mgrwt>
</event>
<event>
 5    1  0.2809073E+000  0.7442081E+02  0.7818608E-02  0.1345674E+00
          2   -1    0    0  501    0  0.00000000000E+00  0.00000000000E+00  0.11021846532E+03  0.11021846535E+03  0.26000000000E-02 0.  1.
         -2   -1    0    0    0  501 -0.00000000000E+00 -0.00000000000E+00 -0.12562452416E+02  0.12562452685E+02  0.26000000000E-02 0. -1.
         23    2    1    2    0    0  0.00000000000E+00  0.00000000000E+00  0.97656012904E+02  0.12278091804E+03  0.74420810110E+02 0.  0.
        -11    1    3    3    0    0  0.81564546277E+01 -0.32681895867E+02  0.74912911880E+02  0.82137558012E+02  0.51100000000E-03 0.  1.
         11    1    3    3    0    0 -0.81564546277E+01  0.32681895867E+02  0.22743101024E+02  0.40643360024E+02  0.51100000000E-03 0. -1.
<mgrwt>
<rscale>  0 0.74420810E+02</rscale>
<asrwt>0</asrwt>
<pdfrwt beam="1">  1        2 0.16956687E-01 0.74420810E+02</pdfrwt>
<pdfrwt beam="2">  1       -2 0.19326850E-02 0.74420810E+02</pdfrwt>
<totfact> 0.21886473E+05</totfact>
</mgrwt>
</event>
<event>
 5    1  0.2809073E+000  0.9692552E+02  0.7818608E-02  0.1286897E+00
          2   -1    0    0  501    0  0.00000000000E+00  0.00000000000E+00  0.21388009996E+02  0.21388010154E+02  0.26000000000E-02 0. -1.
         -2   -1    0    0    0  501 -0.00000000000E+00 -0.00000000000E+00 -0.10981101884E+03  0.10981101887E+03  0.26000000000E-02 0.  1.
         23    2    1    2    0    0  0.00000000000E+00  0.00000000000E+00 -0.88423008848E+02  0.13119902903E+03  0.96925521532E+02 0.  0.
        -11    1    3    3    0    0  0.12437095487E+02  0.12622213984E+02 -0.10526858041E+03  0.10674959322E+03  0.51100000000E-03 0.  1.
         11    1    3    3    0    0 -0.12437095487E+02 -0.12622213984E+02  0.16845571562E+02  0.24449435812E+02  0.51100000000E-03 0. -1.
<mgrwt>
<rscale>  0 0.96925522E+02</rscale>
<asrwt>0</asrwt>
<pdfrwt beam="1">  1        2 0.32904632E-02 0.96925522E+02</pdfrwt>
<pdfrwt beam="2">  1       -2 0.16894003E-01 0.96925522E+02</pdfrwt>
<totfact> 0.66569378E+04</totfact>
</mgrwt>
</event>
<event>
 5    1  0.2809073E+000  0.9430200E+02  0.7818608E-02  0.1292756E+00
         -2   -1    0    0    0  501 -0.00000000000E+00  0.00000000000E+00  0.39676562538E+02  0.39676562623E+02  0.26000000000E-02 0. -1.
          2   -1    0    0  501    0  0.00000000000E+00 -0.00000000000E+00 -0.56033499991E+02  0.56033500051E+02  0.26000000000E-02 0.  1.
         23    2    1    2    0    0  0.00000000000E+00  0.00000000000E+00 -0.16356937453E+02  0.95710062674E+02  0.94301997297E+02 0.  0.
        -11    1    3    3    0    0  0.21500174023E+02 -0.10885192749E+02  0.32954084307E+02  0.40825440316E+02  0.51100000000E-03 0. -1.
         11    1    3    3    0    0 -0.21500174023E+02  0.10885192749E+02 -0.49311021759E+02  0.54884622358E+02  0.51100000000E-03 0.  1.
<mgrwt>
<rscale>  0 0.94301997E+02</rscale>
<asrwt>0</asrwt>
<pdfrwt beam="2">  1        2 0.86205385E-02 0.94301997E+02</pdfrwt>
<pdfrwt beam="1">  1       -2 0.61040865E-02 0.94301997E+02</pdfrwt>
<totfact> 0.94635820E+04</totfact>
</mgrwt>
</event>
<event>
 5    1  0.2809073E+000  0.9746617E+02  0.7818608E-02  0.1285716E+00
         -2   -1    0    0    0  501 -0.00000000000E+00  0.00000000000E+00  0.32855766098E+02  0.32855766201E+02  0.26000000000E-02 0.  1.
          2   -1    0    0  501    0  0.00000000000E+00 -0.00000000000E+00 -0.72283003596E+02  0.72283003643E+02  0.26000000000E-02 0. -1.
         23    2    1    2    0    0  0.00000000000E+00  0.00000000000E+00 -0.39427237498E+02  0.10513876984E+03  0.97466167810E+02 0.  0.
        -11    1    3    3    0    0  0.41093768092E+02 -0.25555076485E+02 -0.13502420775E+02  0.50240173937E+02  0.51100000000E-03 0. -1.
         11    1    3    3    0    0 -0.41093768092E+02  0.25555076485E+02 -0.25924816723E+02  0.54898595907E+02  0.51100000000E-03 0.  1.
<mgrwt>
<rscale>  0 0.97466168E+02</rscale>
<asrwt>0</asrwt>
<pdfrwt beam="2">  1        2 0.11120462E-01 0.97466168E+02</pdfrwt>
<pdfrwt beam="1">  1       -2 0.50547333E-02 0.97466168E+02</pdfrwt>
<totfact> 0.92527445E+04</totfact>
</mgrwt>
</event>
<event>
 5    1  0.2809073E+000  0.9205274E+02  0.7818608E-02  0.1297955E+00
          2   -1    0    0  501    0  0.00000000000E+00  0.00000000000E+00  0.89497496802E+02  0.89497496840E+02  0.26000000000E-02 0. -1.
         -2   -1    0    0    0  501 -0.00000000000E+00 -0.00000000000E+00 -0.23670234224E+02  0.23670234366E+02  0.26000000000E-02 0.  1.
         23    2    1    2    0    0  0.00000000000E+00  0.00000000000E+00  0.65827262578E+02  0.11316773121E+03  0.92052739708E+02 0.  0.
        -11    1    3    3    0    0 -0.25843915958E+02 -0.25916021565E+02  0.67223634922E+02  0.76541265068E+02  0.51100000000E-03 0. -1.
         11    1    3    3    0    0  0.25843915958E+02  0.25916021565E+02 -0.13963723434E+01  0.36626466139E+02  0.51100000000E-03 0.  1.
<mgrwt>
<rscale>  0 0.92052740E+02</rscale>
<asrwt>0</asrwt>
<pdfrwt beam="1">  1        2 0.13768846E-01 0.92052740E+02</pdfrwt>
<pdfrwt beam="2">  1       -2 0.36415745E-02 0.92052740E+02</pdfrwt>
<totfact> 0.11556044E+05</totfact>
</mgrwt>
</event>
<event>
 5    1  0.2809073E+000  0.9061850E+02  0.7818608E-02  0.1301361E+00
          2   -1    0    0  501    0  0.00000000000E+00  0.00000000000E+00  0.20853604176E+03  0.20853604177E+03  0.26000000000E-02 0. -1.
         -2   -1    0    0    0  501 -0.00000000000E+00 -0.00000000000E+00 -0.98444768138E+01  0.98444771571E+01  0.26000000000E-02 0.  1.
         23    2    1    2    0    0  0.00000000000E+00  0.00000000000E+00  0.19869156494E+03  0.21838051893E+03  0.90618502904E+02 0.  0.
        -11    1    3    3    0    0 -0.42266808614E+02 -0.15706199936E+02  0.88633171938E+02  0.99443486438E+02  0.51100000000E-03 0.  1.
         11    1    3    3    0    0  0.42266808614E+02  0.15706199936E+02  0.11005839300E+03  0.11893703249E+03  0.51100000000E-03 0. -1.
<mgrwt>
<rscale>  0 0.90618503E+02</rscale>
<asrwt>0</asrwt>
<pdfrwt beam="1">  1        2 0.32082467E-01 0.90618503E+02</pdfrwt>
<pdfrwt beam="2">  1       -2 0.15145350E-02 0.90618503E+02</pdfrwt>
<totfact> 0.15965641E+05</totfact>
</mgrwt>
</event>
<event>
 5    1  0.2809073E+000  0.9209843E+02  0.7818608E-02  0.1297848E+00
          2   -1    0    0  501    0  0.00000000000E+00  0.00000000000E+00  0.11594756325E+03  0.11594756328E+03  0.26000000000E-02 0. -1.
         -2   -1    0    0    0  501 -0.00000000000E+00 -0.00000000000E+00 -0.18288700121E+02  0.18288700305E+02  0.26000000000E-02 0.  1.
         23    2    1    2    0    0  0.00000000000E+00  0.00000000000E+00  0.97658863132E+02  0.13423626359E+03  0.92098430571E+02 0.  0.
        -11    1    3    3    0    0 -0.28470334901E+02  0.33164224513E+02  0.27702556065E+02  0.51748018027E+02  0.51100000000E-03 0.  1.
         11    1    3    3    0    0  0.28470334901E+02 -0.33164224513E+02  0.69956307067E+02  0.82488245560E+02  0.51100000000E-03 0. -1.
<mgrwt>
<rscale>  0 0.92098431E+02</rscale>
<asrwt>0</asrwt>
<pdfrwt beam="1">  1        2 0.17838087E-01 0.92098431E+02</pdfrwt>
<pdfrwt beam="2">  1       -2 0.28136462E-02 0.92098431E+02</pdfrwt>
<totfact> 0.12495674E+05</totfact>
</mgrwt>
</event>
<event>
 5    1  0.2809073E+000  0.8722924E+02  0.7818608E-02  0.1309704E+00
          2   -1    0    0  501    0  0.00000000000E+00  0.00000000000E+00  0.18376255721E+02  0.18376255905E+02  0.26000000000E-02 0. -1.
         -2   -1    0    0    0  501 -0.00000000000E+00 -0.00000000000E+00 -0.10351592049E+03  0.10351592053E+03  0.26000000000E-02 0.  1.
         23    2    1    2    0    0  0.00000000000E+00  0.00000000000E+00 -0.85139664772E+02  0.12189217643E+03  0.87229239120E+02 0.  0.
        -11    1    3    3    0    0  0.16888998713E+02  0.36440867981E+02 -0.66327711773E+02  0.77540573160E+02  0.51100000000E-03 0.  1.
         11    1    3    3    0    0 -0.16888998713E+02 -0.36440867981E+02 -0.18811952999E+02  0.44351603270E+02  0.51100000000E-03 0. -1.
<mgrwt>
<rscale>  0 0.87229239E+02</rscale>
<asrwt>0</asrwt>
<pdfrwt beam="1">  1        2 0.28271164E-02 0.87229239E+02</pdfrwt>
<pdfrwt beam="2">  1       -2 0.15925526E-01 0.87229239E+02</pdfrwt>
<totfact> 0.88189140E+04</totfact>
</mgrwt>
</event>
<event>
 5    1  0.2809073E+000  0.9155787E+02  0.7818608E-02  0.1299122E+00
          2   -1    0    0  501    0  0.00000000000E+00  0.00000000000E+00  0.95800880360E+02  0.95800880395E+02  0.26000000000E-02 0. -1.
         -2   -1    0    0    0  501 -0.00000000000E+00 -0.00000000000E+00 -0.21875697404E+02  0.21875697559E+02  0.26000000000E-02 0.  1.
         23    2    1    2    0    0  0.00000000000E+00  0.00000000000E+00  0.73925182955E+02  0.11767657795E+03  0.91557874178E+02 0.  0.
        -11    1    3    3    0    0 -0.44698490939E+02  0.16153736786E+01  0.49499511844E+02  0.66714062966E+02  0.51100000000E-03 0.  1.
         11    1    3    3    0    0  0.44698490939E+02 -0.16153736786E+01  0.24425671111E+02  0.50962514988E+02  0.51100000000E-03 0. -1.
<mgrwt>
<rscale>  0 0.91557874E+02</rscale>
<asrwt>0</asrwt>
<pdfrwt beam="1">  1        2 0.14738597E-01 0.91557874E+02</pdfrwt>
<pdfrwt beam="2">  1       -2 0.33654920E-02 0.91557874E+02</pdfrwt>
<totfact> 0.11970715E+05</totfact>
</mgrwt>
</event>
<event>
 5    1  0.2809073E+000  0.8663880E+02  0.7818608E-02  0.1311202E+00
         -2   -1    0    0    0  501 -0.00000000000E+00  0.00000000000E+00  0.21378247434E+02  0.21378247592E+02  0.26000000000E-02 0.  1.
          2   -1    0    0  501    0  0.00000000000E+00 -0.00000000000E+00 -0.87779431319E+02  0.87779431357E+02  0.26000000000E-02 0. -1.
         23    2    1    2    0    0  0.00000000000E+00  0.00000000000E+00 -0.66401183885E+02  0.10915767895E+03  0.86638799924E+02 0.  0.
        -11    1    3    3    0    0  0.34675112649E+01 -0.29644531639E+02  0.63565523878E+01  0.30516022824E+02  0.51100000000E-03 0.  1.
         11    1    3    3    0    0 -0.34675112649E+01  0.29644531639E+02 -0.72757736273E+02  0.78641656126E+02  0.51100000000E-03 0. -1.
<mgrwt>
<rscale>  0 0.86638800E+02</rscale>
<asrwt>0</asrwt>
<pdfrwt beam="2">  1        2 0.13504528E-01 0.86638800E+02</pdfrwt>
<pdfrwt beam="1">  1       -2 0.32889612E-02 0.86638800E+02</pdfrwt>
<totfact> 0.13580446E+05</totfact>
</mgrwt>
</event>
<event>
 5    1  0.2809073E+000  0.9404782E+02  0.7818608E-02  0.1293335E+00
          2   -1    0    0  501    0  0.00000000000E+00  0.00000000000E+00  0.33267589255E+02  0.33267589356E+02  0.26000000000E-02 0. -1.
         -2   -1    0    0    0  501 -0.00000000000E+00 -0.00000000000E+00 -0.66468537730E+02  0.66468537781E+02  0.26000000000E-02 0.  1.
         23    2    1    2    0    0  0.00000000000E+00  0.00000000000E+00 -0.33200948475E+02  0.99736127137E+02  0.94047818032E+02 0.  0.
        -11    1    3    3    0    0  0.31426025141E+02  0.14595915164E+02 -0.50313369345E+02  0.61090677937E+02  0.51100000000E-03 0.  1.
         11    1    3    3    0    0 -0.31426025141E+02 -0.14595915164E+02  0.17112420870E+02  0.38645449200E+02  0.51100000000E-03 0. -1.
<mgrwt>
<rscale>  0 0.94047818E+02</rscale>
<asrwt>0</asrwt>
<pdfrwt beam="1">  1        2 0.51180907E-02 0.94047818E+02</pdfrwt>
<pdfrwt beam="2">  1       -2 0.10225929E-01 0.94047818E+02</pdfrwt>
<totfact> 0.82963352E+04</totfact>
</mgrwt>
</event>
<event>
 5    1  0.2809073E+000  0.9140184E+02  0.7818608E-02  0.1299492E+00
         -2   -1    0    0    0  501 -0.00000000000E+00  0.00000000000E+00  0.11532774099E+02  0.11532774392E+02  0.26000000000E-02 0.  1.
          2   -1    0    0  501    0  0.00000000000E+00 -0.00000000000E+00 -0.18109900691E+03  0.18109900692E+03  0.26000000000E-02 0. -1.
         23    2    1    2    0    0  0.00000000000E+00  0.00000000000E+00 -0.16956623281E+03  0.19263178132E+03  0.91401837316E+02 0.  0.
        -11    1    3    3    0    0  0.18320692375E+02 -0.24180726187E+02 -0.15681671106E+03  0.15972425037E+03  0.51100000000E-03 0. -1.
         11    1    3    3    0    0 -0.18320692375E+02  0.24180726187E+02 -0.12749521748E+02  0.32907530948E+02  0.51100000000E-03 0.  1.
<mgrwt>
<rscale>  0 0.91401837E+02</rscale>
<asrwt>0</asrwt>
<pdfrwt beam="2">  1        2 0.27861384E-01 0.91401837E+02</pdfrwt>
<pdfrwt beam="1">  1       -2 0.17742731E-02 0.91401837E+02</pdfrwt>
<totfact> 0.14827826E+05</totfact>
</mgrwt>
</event>
<event>
 5    1  0.2809073E+000  0.9077151E+02  0.7818608E-02  0.1300994E+00
          2   -1    0    0  501    0  0.00000000000E+00  0.00000000000E+00  0.35908026511E+02  0.35908026605E+02  0.26000000000E-02 0. -1.
         -2   -1    0    0    0  501 -0.00000000000E+00 -0.00000000000E+00 -0.57365074696E+02  0.57365074755E+02  0.26000000000E-02 0.  1.
         23    2    1    2    0    0  0.00000000000E+00  0.00000000000E+00 -0.21457048185E+02  0.93273101360E+02  0.90771507207E+02 0.  0.
        -11    1    3    3    0    0 -0.31071366050E+02 -0.30636539220E+02 -0.23556123056E+02  0.49587480852E+02  0.51100000000E-03 0.  1.
         11    1    3    3    0    0  0.31071366050E+02  0.30636539220E+02  0.20990748718E+01  0.43685620508E+02  0.51100000000E-03 0. -1.
<mgrwt>
<rscale>  0 0.90771507E+02</rscale>
<asrwt>0</asrwt>
<pdfrwt beam="1">  1        2 0.55243118E-02 0.90771507E+02</pdfrwt>
<pdfrwt beam="2">  1       -2 0.88253961E-02 0.90771507E+02</pdfrwt>
<totfact> 0.93969643E+04</totfact>
</mgrwt>
</event>
<event>
 5    1  0.2809073E+000  0.8956544E+02  0.7818608E-02  0.1303907E+00
         -2   -1    0    0    0  501 -0.00000000000E+00  0.00000000000E+00  0.47770405068E+02  0.47770405138E+02  0.26000000000E-02 0.  1.
          2   -1    0    0  501    0  0.00000000000E+00 -0.00000000000E+00 -0.41981891288E+02  0.41981891369E+02  0.26000000000E-02 0. -1.
         23    2    1    2    0    0  0.00000000000E+00  0.00000000000E+00  0.57885137794E+01  0.89752296507E+02  0.89565438851E+02 0.  0.
        -11    1    3    3    0    0  0.70194208664E+01  0.90047497862E+01 -0.40498903901E+02  0.42077535639E+02  0.51100000000E-03 0. -1.
         11    1    3    3    0    0 -0.70194208664E+01 -0.90047497862E+01  0.46287417681E+02  0.47674760868E+02  0.51100000000E-03 0.  1.
<mgrwt>
<rscale>  0 0.89565439E+02</rscale>
<asrwt>0</asrwt>
<pdfrwt beam="2">  1        2 0.64587525E-02 0.89565439E+02</pdfrwt>
<pdfrwt beam="1">  1       -2 0.73492931E-02 0.89565439E+02</pdfrwt>
<totfact> 0.10167726E+05</totfact>
</mgrwt>
</event>
<event>
 5    1  0.2809073E+000  0.8711068E+02  0.7818608E-02  0.1310003E+00
         -2   -1    0    0    0  501 -0.00000000000E+00  0.00000000000E+00  0.16549161006E+02  0.16549161211E+02  0.26000000000E-02 0.  1.
          2   -1    0    0  501    0  0.00000000000E+00 -0.00000000000E+00 -0.11463225708E+03  0.11463225711E+03  0.26000000000E-02 0. -1.
         23    2    1    2    0    0  0.00000000000E+00  0.00000000000E+00 -0.98083096077E+02  0.13118141832E+03  0.87110681190E+02 0.  0.
        -11    1    3    3    0    0  0.17428405106E+02 -0.39631824778E+02 -0.41876667561E+02  0.60233596323E+02  0.51100000000E-03 0.  1.
         11    1    3    3    0    0 -0.17428405106E+02  0.39631824778E+02 -0.56206428517E+02  0.70947822001E+02  0.51100000000E-03 0. -1.
<mgrwt>
<rscale>  0 0.87110681E+02</rscale>
<asrwt>0</asrwt>
<pdfrwt beam="2">  1        2 0.17635731E-01 0.87110681E+02</pdfrwt>
<pdfrwt beam="1">  1       -2 0.25460249E-02 0.87110681E+02</pdfrwt>
<totfact> 0.14494670E+05</totfact>
</mgrwt>
</event>
<event>
 5    1  0.2809073E+000  0.8209795E+02  0.7818608E-02  0.1323201E+00
          2   -1    0    0  501    0  0.00000000000E+00  0.00000000000E+00  0.15721995185E+02  0.15721995400E+02  0.26000000000E-02 0. -1.
         -2   -1    0    0    0  501 -0.00000000000E+00 -0.00000000000E+00 -0.10717586219E+03  0.10717586222E+03  0.26000000000E-02 0.  1.
         23    2    1    2    0    0  0.00000000000E+00  0.00000000000E+00 -0.91453867006E+02  0.12289785762E+03  0.82097951361E+02 0.  0.
        -11    1    3    3    0    0 -0.66105270491E+01  0.16836582921E+02  0.94347739273E+01  0.20400601747E+02  0.51100000000E-03 0. -1.
         11    1    3    3    0    0  0.66105270491E+01 -0.16836582921E+02 -0.10088864093E+03  0.10249725587E+03  0.51100000000E-03 0.  1.
<mgrwt>
<rscale>  0 0.82097951E+02</rscale>
<asrwt>0</asrwt>
<pdfrwt beam="1">  1        2 0.24187686E-02 0.82097951E+02</pdfrwt>
<pdfrwt beam="2">  1       -2 0.16488594E-01 0.82097951E+02</pdfrwt>
<totfact> 0.10153854E+05</totfact>
</mgrwt>
</event>
<event>
 5    1  0.2809073E+000  0.9144182E+02  0.7818608E-02  0.1299397E+00
         -2   -1    0    0    0  501 -0.00000000000E+00  0.00000000000E+00  0.10140414469E+02  0.10140414802E+02  0.26000000000E-02 0.  1.
          2   -1    0    0  501    0  0.00000000000E+00 -0.00000000000E+00 -0.20614556453E+03  0.20614556455E+03  0.26000000000E-02 0. -1.
         23    2    1    2    0    0  0.00000000000E+00  0.00000000000E+00 -0.19600515006E+03  0.21628597935E+03  0.91441817635E+02 0.  0.
        -11    1    3    3    0    0  0.13973278343E+02 -0.38464271374E+02 -0.49780400044E+02  0.64442539590E+02  0.51100000000E-03 0.  1.
         11    1    3    3    0    0 -0.13973278343E+02  0.38464271374E+02 -0.14622475002E+03  0.15184343976E+03  0.51100000000E-03 0. -1.
<mgrwt>
<rscale>  0 0.91441818E+02</rscale>
<asrwt>0</asrwt>
<pdfrwt beam="2">  1        2 0.31714699E-01 0.91441818E+02</pdfrwt>
<pdfrwt beam="1">  1       -2 0.15600639E-02 0.91441818E+02</pdfrwt>
<totfact> 0.15516825E+05</totfact>
</mgrwt>
</event>
<event>
 5    1  0.2809073E+000  0.8443889E+02  0.7818608E-02  0.1316906E+00
          2   -1    0    0  501    0  0.00000000000E+00  0.00000000000E+00  0.20011211512E+03  0.20011211514E+03  0.26000000000E-02 0. -1.
         -2   -1    0    0    0  501 -0.00000000000E+00 -0.00000000000E+00 -0.89074137418E+01  0.89074141212E+01  0.26000000000E-02 0.  1.
         23    2    1    2    0    0  0.00000000000E+00  0.00000000000E+00  0.19120470138E+03  0.20901952926E+03  0.84438887855E+02 0.  0.
        -11    1    3    3    0    0 -0.11755229096E+02  0.34629284657E+02  0.43377477795E+02  0.56736040988E+02  0.51100000000E-03 0.  1.
         11    1    3    3    0    0  0.11755229096E+02 -0.34629284657E+02  0.14782722358E+03  0.15228348827E+03  0.51100000000E-03 0. -1.
<mgrwt>
<rscale>  0 0.84438888E+02</rscale>
<asrwt>0</asrwt>
<pdfrwt beam="1">  1        2 0.30786479E-01 0.84438888E+02</pdfrwt>
<pdfrwt beam="2">  1       -2 0.13703714E-02 0.84438888E+02</pdfrwt>
<totfact> 0.19003180E+05</totfact>
</mgrwt>
</event>
<event>
 5    1  0.2809073E+000  0.9097823E+02  0.7818608E-02  0.1300500E+00
         -2   -1    0    0    0  501 -0.00000000000E+00  0.00000000000E+00  0.11750504797E+02  0.11750505085E+02  0.26000000000E-02 0.  1.
          2   -1    0    0  501    0  0.00000000000E+00 -0.00000000000E+00 -0.17609961502E+03  0.17609961504E+03  0.26000000000E-02 0. -1.
         23    2    1    2    0    0  0.00000000000E+00  0.00000000000E+00 -0.16434911022E+03  0.18785012012E+03  0.90978225964E+02 0.  0.
        -11    1    3    3    0    0  0.27550053020E+02  0.33552550961E+02 -0.11021913986E+03  0.11846112395E+03  0.51100000000E-03 0.  1.
         11    1    3    3    0    0 -0.27550053020E+02 -0.33552550961E+02 -0.54129970366E+02  0.69388996170E+02  0.51100000000E-03 0. -1.
<mgrwt>
<rscale>  0 0.90978226E+02</rscale>
<asrwt>0</asrwt>
<pdfrwt beam="2">  1        2 0.27092247E-01 0.90978226E+02</pdfrwt>
<pdfrwt beam="1">  1       -2 0.18077701E-02 0.90978226E+02</pdfrwt>
<totfact> 0.14866899E+05</totfact>
</mgrwt>
</event>
<event>
 5    1  0.2809073E+000  0.9047402E+02  0.7818608E-02  0.1301708E+00
         -2   -1    0    0    0  501 -0.00000000000E+00  0.00000000000E+00  0.12367992187E+03  0.12367992190E+03  0.26000000000E-02 0.  1.
          2   -1    0    0  501    0  0.00000000000E+00 -0.00000000000E+00 -0.16545830561E+02  0.16545830766E+02  0.26000000000E-02 0. -1.
         23    2    1    2    0    0  0.00000000000E+00  0.00000000000E+00  0.10713409131E+03  0.14022575266E+03  0.90474019417E+02 0.  0.
        -11    1    3    3    0    0  0.19590339672E+02 -0.34715078999E+02  0.86717134450E+02  0.95439926267E+02  0.51100000000E-03 0.  1.
         11    1    3    3    0    0 -0.19590339672E+02  0.34715078999E+02  0.20416956859E+02  0.44785826396E+02  0.51100000000E-03 0. -1.
<mgrwt>
<rscale>  0 0.90474019E+02</rscale>
<asrwt>0</asrwt>
<pdfrwt beam="2">  1        2 0.25455124E-02 0.90474019E+02</pdfrwt>
<pdfrwt beam="1">  1       -2 0.19027680E-01 0.90474019E+02</pdfrwt>
<totfact> 0.76142788E+04</totfact>
</mgrwt>
</event>
<event>
 5    1  0.2809073E+000  0.9751123E+02  0.7818608E-02  0.1285618E+00
         -2   -1    0    0    0  501 -0.00000000000E+00  0.00000000000E+00  0.28762547854E+02  0.28762547971E+02  0.26000000000E-02 0. -1.
          2   -1    0    0  501    0  0.00000000000E+00 -0.00000000000E+00 -0.82646020915E+02  0.82646020956E+02  0.26000000000E-02 0.  1.
         23    2    1    2    0    0  0.00000000000E+00  0.00000000000E+00 -0.53883473062E+02  0.11140856893E+03  0.97511233000E+02 0.  0.
        -11    1    3    3    0    0  0.79031573957E+01  0.39522400827E+02  0.44022861050E+01  0.40544545714E+02  0.51100000000E-03 0. -1.
         11    1    3    3    0    0 -0.79031573957E+01 -0.39522400827E+02 -0.58285759167E+02  0.70864023213E+02  0.51100000000E-03 0.  1.
<mgrwt>
<rscale>  0 0.97511233E+02</rscale>
<asrwt>0</asrwt>
<pdfrwt beam="2">  1        2 0.12714772E-01 0.97511233E+02</pdfrwt>
<pdfrwt beam="1">  1       -2 0.44250074E-02 0.97511233E+02</pdfrwt>
<totfact> 0.96107716E+04</totfact>
</mgrwt>
</event>
<event>
 5    1  0.2809073E+000  0.8640393E+02  0.7818608E-02  0.1311801E+00
          2   -1    0    0  501    0  0.00000000000E+00  0.00000000000E+00  0.17277662165E+03  0.17277662167E+03  0.26000000000E-02 0. -1.
         -2   -1    0    0    0  501 -0.00000000000E+00 -0.00000000000E+00 -0.10802443004E+02  0.10802443317E+02  0.26000000000E-02 0.  1.
         23    2    1    2    0    0  0.00000000000E+00  0.00000000000E+00  0.16197417865E+03  0.18357906499E+03  0.86403926724E+02 0.  0.
        -11    1    3    3    0    0 -0.29104632972E+02  0.19754605250E+02  0.13427694305E+03  0.13880785829E+03  0.51100000000E-03 0. -1.
         11    1    3    3    0    0  0.29104632972E+02 -0.19754605250E+02  0.27697235604E+02  0.44771206700E+02  0.51100000000E-03 0.  1.
<mgrwt>
<rscale>  0 0.86403927E+02</rscale>
<asrwt>0</asrwt>
<pdfrwt beam="1">  1        2 0.26581020E-01 0.86403927E+02</pdfrwt>
<pdfrwt beam="2">  1       -2 0.16619143E-02 0.86403927E+02</pdfrwt>
<totfact> 0.16967334E+05</totfact>
</mgrwt>
</event>
<event>
 5    1  0.2809073E+000  0.8967503E+02  0.7818608E-02  0.1303641E+00
          2   -1    0    0  501    0  0.00000000000E+00  0.00000000000E+00  0.34001819541E+02  0.34001819640E+02  0.26000000000E-02 0.  1.
         -2   -1    0    0    0  501 -0.00000000000E+00 -0.00000000000E+00 -0.59126333143E+02  0.59126333200E+02  0.26000000000E-02 0. -1.
         23    2    1    2    0    0  0.00000000000E+00  0.00000000000E+00 -0.25124513602E+02  0.93128152840E+02  0.89675033692E+02 0.  0.
        -11    1    3    3    0    0  0.17750637790E+02  0.29891059454E+02  0.16844960632E+02  0.38630470825E+02  0.51100000000E-03 0.  1.
         11    1    3    3    0    0 -0.17750637790E+02 -0.29891059454E+02 -0.41969474234E+02  0.54497682015E+02  0.51100000000E-03 0. -1.
<mgrwt>
<rscale>  0 0.89675034E+02</rscale>
<asrwt>0</asrwt>
<pdfrwt beam="1">  1        2 0.52310492E-02 0.89675034E+02</pdfrwt>
<pdfrwt beam="2">  1       -2 0.90963590E-02 0.89675034E+02</pdfrwt>
<totfact> 0.95998474E+04</totfact>
</mgrwt>
</event>
<event>
 5    1  0.2809073E+000  0.1021831E+03  0.7818608E-02  0.1275771E+00
          2   -1    0    0  501    0  0.00000000000E+00  0.00000000000E+00  0.26189581740E+03  0.26189581742E+03  0.26000000000E-02 0.  1.
         -2   -1    0    0    0  501 -0.00000000000E+00 -0.00000000000E+00 -0.99671168274E+01  0.99671171665E+01  0.26000000000E-02 0. -1.
         23    2    1    2    0    0  0.00000000000E+00  0.00000000000E+00  0.25192870058E+03  0.27186293458E+03  0.10218309560E+03 0.  0.
        -11    1    3    3    0    0 -0.47743386230E+02 -0.19975234209E+01  0.17406989788E+03  0.18050969607E+03  0.51100000000E-03 0. -1.
         11    1    3    3    0    0  0.47743386230E+02  0.19975234209E+01  0.77858802697E+02  0.91353238510E+02  0.51100000000E-03 0.  1.
<mgrwt>
<rscale>  0 0.10218310E+03</rscale>
<asrwt>0</asrwt>
<pdfrwt beam="1">  1        2 0.40291661E-01 0.10218310E+03</pdfrwt>
<pdfrwt beam="2">  1       -2 0.15334027E-02 0.10218310E+03</pdfrwt>
<totfact> 0.12563229E+05</totfact>
</mgrwt>
</event>
<event>
 5    1  0.2809073E+000  0.9254588E+02  0.7818608E-02  0.1296801E+00
         -2   -1    0    0    0  501 -0.00000000000E+00  0.00000000000E+00  0.65461380765E+02  0.65461380817E+02  0.26000000000E-02 0. -1.
          2   -1    0    0  501    0  0.00000000000E+00 -0.00000000000E+00 -0.32709131170E+02  0.32709131273E+02  0.26000000000E-02 0.  1.
         23    2    1    2    0    0  0.00000000000E+00  0.00000000000E+00  0.32752249595E+02  0.98170512090E+02  0.92545878300E+02 0.  0.
        -11    1    3    3    0    0  0.87332726632E+01 -0.38014432170E+02  0.42785370343E+02  0.57896070854E+02  0.51100000000E-03 0. -1.
         11    1    3    3    0    0 -0.87332726632E+01  0.38014432170E+02 -0.10033120748E+02  0.40274441236E+02  0.51100000000E-03 0.  1.
<mgrwt>
<rscale>  0 0.92545878E+02</rscale>
<asrwt>0</asrwt>
<pdfrwt beam="2">  1        2 0.50321741E-02 0.92545878E+02</pdfrwt>
<pdfrwt beam="1">  1       -2 0.10070981E-01 0.92545878E+02</pdfrwt>
<totfact> 0.86619444E+04</totfact>
</mgrwt>
</event>
<event>
 5    1  0.2809073E+000  0.9132594E+02  0.7818608E-02  0.1299672E+00
          2   -1    0    0  501    0  0.00000000000E+00  0.00000000000E+00  0.73875091649E+02  0.73875091695E+02  0.26000000000E-02 0. -1.
         -2   -1    0    0    0  501 -0.00000000000E+00 -0.00000000000E+00 -0.28224761369E+02  0.28224761489E+02  0.26000000000E-02 0.  1.
         23    2    1    2    0    0  0.00000000000E+00  0.00000000000E+00  0.45650330279E+02  0.10209985318E+03  0.91325940266E+02 0.  0.
        -11    1    3    3    0    0 -0.35028761469E+02  0.75474458883E+01 -0.88181611812E+01  0.36901734869E+02  0.51100000000E-03 0.  1.
         11    1    3    3    0    0  0.35028761469E+02 -0.75474458883E+01  0.54468491461E+02  0.65198118314E+02  0.51100000000E-03 0. -1.
<mgrwt>
<rscale>  0 0.91325940E+02</rscale>
<asrwt>0</asrwt>
<pdfrwt beam="1">  1        2 0.11365399E-01 0.91325940E+02</pdfrwt>
<pdfrwt beam="2">  1       -2 0.43422710E-02 0.91325940E+02</pdfrwt>
<totfact> 0.11178236E+05</totfact>
</mgrwt>
</event>
<event>
 5    1  0.2809073E+000  0.9072624E+02  0.7818608E-02  0.1301102E+00
          2   -1    0    0  501    0  0.00000000000E+00  0.00000000000E+00  0.17604125541E+03  0.17604125543E+03  0.26000000000E-02 0. -1.
         -2   -1    0    0    0  501 -0.00000000000E+00 -0.00000000000E+00 -0.11689376051E+02  0.11689376340E+02  0.26000000000E-02 0.  1.
         23    2    1    2    0    0  0.00000000000E+00  0.00000000000E+00  0.16435187936E+03  0.18773063177E+03  0.90726235761E+02 0.  0.
        -11    1    3    3    0    0 -0.55628816219E+01  0.44809130370E+02  0.91197420976E+02  0.10176332055E+03  0.51100000000E-03 0.  1.
         11    1    3    3    0    0  0.55628816219E+01 -0.44809130370E+02  0.73154458380E+02  0.85967311216E+02  0.51100000000E-03 0. -1.
<mgrwt>
<rscale>  0 0.90726236E+02</rscale>
<asrwt>0</asrwt>
<pdfrwt beam="1">  1        2 0.27083271E-01 0.90726236E+02</pdfrwt>
<pdfrwt beam="2">  1       -2 0.17983655E-02 0.90726236E+02</pdfrwt>
<totfact> 0.14976816E+05</totfact>
</mgrwt>
</event>
<event>
 5    1  0.2809073E+000  0.8958328E+02  0.7818608E-02  0.1303864E+00
          2   -1    0    0  501    0  0.00000000000E+00  0.00000000000E+00  0.16811429261E+03  0.16811429263E+03  0.26000000000E-02 0. -1.
         -2   -1    0    0    0  501 -0.00000000000E+00 -0.00000000000E+00 -0.11934089386E+02  0.11934089669E+02  0.26000000000E-02 0.  1.
         23    2    1    2    0    0  0.00000000000E+00  0.00000000000E+00  0.15618020323E+03  0.18004838230E+03  0.89583280189E+02 0.  0.
        -11    1    3    3    0    0  0.29075335390E+02  0.22472907121E+02  0.12956267647E+03  0.13467328546E+03  0.51100000000E-03 0. -1.
         11    1    3    3    0    0 -0.29075335390E+02 -0.22472907121E+02  0.26617526760E+02  0.45375096844E+02  0.51100000000E-03 0.  1.
<mgrwt>
<rscale>  0 0.89583280E+02</rscale>
<asrwt>0</asrwt>
<pdfrwt beam="1">  1        2 0.25863736E-01 0.89583280E+02</pdfrwt>
<pdfrwt beam="2">  1       -2 0.18360139E-02 0.89583280E+02</pdfrwt>
<totfact> 0.15250092E+05</totfact>
</mgrwt>
</event>
<event>
 5    1  0.2809073E+000  0.9254196E+02  0.7818608E-02  0.1296810E+00
         -2   -1    0    0    0  501 -0.00000000000E+00  0.00000000000E+00  0.89515225713E+02  0.89515225750E+02  0.26000000000E-02 0.  1.
          2   -1    0    0  501    0  0.00000000000E+00 -0.00000000000E+00 -0.23917756972E+02  0.23917757114E+02  0.26000000000E-02 0. -1.
         23    2    1    2    0    0  0.00000000000E+00  0.00000000000E+00  0.65597468740E+02  0.11343298286E+03  0.92541956411E+02 0.  0.
        -11    1    3    3    0    0 -0.88945220921E+01 -0.24244780726E+02  0.79859764036E+02  0.83931542508E+02  0.51100000000E-03 0.  1.
         11    1    3    3    0    0  0.88945220921E+01  0.24244780726E+02 -0.14262295296E+02  0.29501440356E+02  0.51100000000E-03 0. -1.
<mgrwt>
<rscale>  0 0.92541956E+02</rscale>
<asrwt>0</asrwt>
<pdfrwt beam="2">  1        2 0.36796549E-02 0.92541956E+02</pdfrwt>
<pdfrwt beam="1">  1       -2 0.13771573E-01 0.92541956E+02</pdfrwt>
<totfact> 0.79454644E+04</totfact>
</mgrwt>
</event>
<event>
 5    1  0.2809073E+000  0.9234753E+02  0.7818608E-02  0.1297264E+00
         -2   -1    0    0    0  501 -0.00000000000E+00  0.00000000000E+00  0.75429852980E+02  0.75429853025E+02  0.26000000000E-02 0.  1.
          2   -1    0    0  501    0  0.00000000000E+00 -0.00000000000E+00 -0.28264892794E+02  0.28264892914E+02  0.26000000000E-02 0. -1.
         23    2    1    2    0    0  0.00000000000E+00  0.00000000000E+00  0.47164960186E+02  0.10369474594E+03  0.92347533080E+02 0.  0.
        -11    1    3    3    0    0 -0.41221350757E+02 -0.35620041472E+01  0.56685220883E+00  0.41378846691E+02  0.51100000000E-03 0. -1.
         11    1    3    3    0    0  0.41221350757E+02  0.35620041472E+01  0.46598107977E+02  0.62315899248E+02  0.51100000000E-03 0.  1.
<mgrwt>
<rscale>  0 0.92347533E+02</rscale>
<asrwt>0</asrwt>
<pdfrwt beam="2">  1        2 0.43484451E-02 0.92347533E+02</pdfrwt>
<pdfrwt beam="1">  1       -2 0.11604593E-01 0.92347533E+02</pdfrwt>
<totfact> 0.83800928E+04</totfact>
</mgrwt>
</event>
<event>
 5    1  0.2809073E+000  0.8986605E+02  0.7818608E-02  0.1303176E+00
         -2   -1    0    0    0  501 -0.00000000000E+00  0.00000000000E+00  0.16196151728E+03  0.16196151730E+03  0.26000000000E-02 0. -1.
          2   -1    0    0  501    0  0.00000000000E+00 -0.00000000000E+00 -0.12465780614E+02  0.12465780885E+02  0.26000000000E-02 0.  1.
         23    2    1    2    0    0  0.00000000000E+00  0.00000000000E+00  0.14949573667E+03  0.17442729819E+03  0.89866050716E+02 0.  0.
        -11    1    3    3    0    0  0.23022167159E+02  0.34505356627E+02  0.41222595512E+02  0.58480271867E+02  0.51100000000E-03 0.  1.
         11    1    3    3    0    0 -0.23022167159E+02 -0.34505356627E+02  0.10827314116E+03  0.11594702632E+03  0.51100000000E-03 0. -1.
<mgrwt>
<rscale>  0 0.89866051E+02</rscale>
<asrwt>0</asrwt>
<pdfrwt beam="2">  1        2 0.19178124E-02 0.89866051E+02</pdfrwt>
<pdfrwt beam="1">  1       -2 0.24917157E-01 0.89866051E+02</pdfrwt>
<totfact> 0.70429762E+04</totfact>
</mgrwt>
</event>
<event>
 5    1  0.2809073E+000  0.9162935E+02  0.7818608E-02  0.1298953E+00
         -2   -1    0    0    0  501 -0.00000000000E+00  0.00000000000E+00  0.46668506289E+02  0.46668506361E+02  0.26000000000E-02 0.  1.
          2   -1    0    0  501    0  0.00000000000E+00 -0.00000000000E+00 -0.44976464893E+02  0.44976464969E+02  0.26000000000E-02 0. -1.
         23    2    1    2    0    0  0.00000000000E+00  0.00000000000E+00  0.16920413954E+01  0.91644971330E+02  0.91629349916E+02 0.  0.
        -11    1    3    3    0    0  0.40855701792E+01 -0.42072829826E+02  0.18517353341E+02  0.46148751535E+02  0.51100000000E-03 0.  1.
         11    1    3    3    0    0 -0.40855701792E+01  0.42072829826E+02 -0.16825311945E+02  0.45496219795E+02  0.51100000000E-03 0. -1.
<mgrwt>
<rscale>  0 0.91629350E+02</rscale>
<asrwt>0</asrwt>
<pdfrwt beam="2">  1        2 0.69194562E-02 0.91629350E+02</pdfrwt>
<pdfrwt beam="1">  1       -2 0.71797702E-02 0.91629350E+02</pdfrwt>
<totfact> 0.96938760E+04</totfact>
</mgrwt>
</event>
<event>
 5    1  0.2809073E+000  0.1051150E+03  0.7818608E-02  0.1269893E+00
         -2   -1    0    0    0  501 -0.00000000000E+00  0.00000000000E+00  0.25891306934E+02  0.25891307065E+02  0.26000000000E-02 0.  1.
          2   -1    0    0  501    0  0.00000000000E+00 -0.00000000000E+00 -0.10668788814E+03  0.10668788817E+03  0.26000000000E-02 0. -1.
         23    2    1    2    0    0  0.00000000000E+00  0.00000000000E+00 -0.80796581205E+02  0.13257919524E+03  0.10511496314E+03 0.  0.
        -11    1    3    3    0    0  0.30585684745E+02 -0.14121395870E+02  0.10482843464E+02  0.35281552403E+02  0.51100000000E-03 0.  1.
         11    1    3    3    0    0 -0.30585684745E+02  0.14121395870E+02 -0.91279424670E+02  0.97297642833E+02  0.51100000000E-03 0. -1.
<mgrwt>
<rscale>  0 0.10511496E+03</rscale>
<asrwt>0</asrwt>
<pdfrwt beam="2">  1        2 0.16413521E-01 0.10511496E+03</pdfrwt>
<pdfrwt beam="1">  1       -2 0.39832781E-02 0.10511496E+03</pdfrwt>
<totfact> 0.84307914E+04</totfact>
</mgrwt>
</event>
<event>
 5    1  0.2809073E+000  0.9172531E+02  0.7818608E-02  0.1298727E+00
          2   -1    0    0  501    0  0.00000000000E+00  0.00000000000E+00  0.12388774505E+02  0.12388774777E+02  0.26000000000E-02 0. -1.
         -2   -1    0    0    0  501 -0.00000000000E+00 -0.00000000000E+00 -0.16978137416E+03  0.16978137418E+03  0.26000000000E-02 0.  1.
         23    2    1    2    0    0  0.00000000000E+00  0.00000000000E+00 -0.15739259966E+03  0.18217014896E+03  0.91725311365E+02 0.  0.
        -11    1    3    3    0    0  0.25829225311E+02  0.26510401694E+01 -0.15377823861E+03  0.15595487669E+03  0.51100000000E-03 0.  1.
         11    1    3    3    0    0 -0.25829225311E+02 -0.26510401694E+01 -0.36143610527E+01  0.26215272271E+02  0.51100000000E-03 0. -1.
<mgrwt>
<rscale>  0 0.91725311E+02</rscale>
<asrwt>0</asrwt>
<pdfrwt beam="1">  1        2 0.19059654E-02 0.91725311E+02</pdfrwt>
<pdfrwt beam="2">  1       -2 0.26120210E-01 0.91725311E+02</pdfrwt>
<totfact> 0.65657646E+04</totfact>
</mgrwt>
</event>
<event>
 5    1  0.2809073E+000  0.6321163E+02  0.7818608E-02  0.1384828E+00
         -2   -1    0    0    0  501 -0.00000000000E+00  0.00000000000E+00  0.52786880416E+02  0.52786880480E+02  0.26000000000E-02 0.  1.
          2   -1    0    0  501    0  0.00000000000E+00 -0.00000000000E+00 -0.18923783607E+02  0.18923783786E+02  0.26000000000E-02 0. -1.
         23    2    1    2    0    0  0.00000000000E+00  0.00000000000E+00  0.33863096809E+02  0.71710664266E+02  0.63211629025E+02 0.  0.
        -11    1    3    3    0    0  0.23343105916E+02 -0.71036307973E+01 -0.58584185925E+01  0.25093489852E+02  0.51100000000E-03 0. -1.
         11    1    3    3    0    0 -0.23343105916E+02  0.71036307973E+01  0.39721515401E+02  0.46617174414E+02  0.51100000000E-03 0.  1.
<mgrwt>
<rscale>  0 0.63211629E+02</rscale>
<asrwt>0</asrwt>
<pdfrwt beam="2">  1        2 0.29113514E-02 0.63211629E+02</pdfrwt>
<pdfrwt beam="1">  1       -2 0.81210585E-02 0.63211629E+02</pdfrwt>
<totfact> 0.22936853E+05</totfact>
</mgrwt>
</event>
<event>
 5    1  0.2809073E+000  0.9268865E+02  0.7818608E-02  0.1296468E+00
          2   -1    0    0  501    0  0.00000000000E+00  0.00000000000E+00  0.21005389997E+03  0.21005389998E+03  0.26000000000E-02 0. -1.
         -2   -1    0    0    0  501 -0.00000000000E+00 -0.00000000000E+00 -0.10224978426E+02  0.10224978756E+02  0.26000000000E-02 0.  1.
         23    2    1    2    0    0  0.00000000000E+00  0.00000000000E+00  0.19982892154E+03  0.22027887874E+03  0.92688653751E+02 0.  0.
        -11    1    3    3    0    0 -0.39034458724E+02  0.24862488543E+02  0.10571845636E+03  0.11540461135E+03  0.51100000000E-03 0. -1.
         11    1    3    3    0    0  0.39034458724E+02 -0.24862488543E+02  0.94110465180E+02  0.10487426739E+03  0.51100000000E-03 0.  1.
<mgrwt>
<rscale>  0 0.92688654E+02</rscale>
<asrwt>0</asrwt>
<pdfrwt beam="1">  1        2 0.32315981E-01 0.92688654E+02</pdfrwt>
<pdfrwt beam="2">  1       -2 0.15730738E-02 0.92688654E+02</pdfrwt>
<totfact> 0.15063449E+05</totfact>
</mgrwt>
</event>
<event>
 5    1  0.2809073E+000  0.9176492E+02  0.7818608E-02  0.1298633E+00
         -2   -1    0    0    0  501 -0.00000000000E+00  0.00000000000E+00  0.52427539813E+02  0.52427539878E+02  0.26000000000E-02 0. -1.
          2   -1    0    0  501    0  0.00000000000E+00 -0.00000000000E+00 -0.40154470030E+02  0.40154470114E+02  0.26000000000E-02 0.  1.
         23    2    1    2    0    0  0.00000000000E+00  0.00000000000E+00  0.12273069783E+02  0.92582009992E+02  0.91764918854E+02 0.  0.
        -11    1    3    3    0    0 -0.97240480942E+01  0.33622793129E+02  0.36068032903E+02  0.50258853219E+02  0.51100000000E-03 0. -1.
         11    1    3    3    0    0  0.97240480942E+01 -0.33622793129E+02 -0.23794963120E+02  0.42323156773E+02  0.51100000000E-03 0.  1.
<mgrwt>
<rscale>  0 0.91764919E+02</rscale>
<asrwt>0</asrwt>
<pdfrwt beam="2">  1        2 0.61776108E-02 0.91764919E+02</pdfrwt>
<pdfrwt beam="1">  1       -2 0.80657754E-02 0.91764919E+02</pdfrwt>
<totfact> 0.93719488E+04</totfact>
</mgrwt>
</event>
<event>
 5    1  0.2809073E+000  0.1043449E+03  0.7818608E-02  0.1271416E+00
          2   -1    0    0  501    0  0.00000000000E+00  0.00000000000E+00  0.15689844945E+02  0.15689845161E+02  0.26000000000E-02 0. -1.
         -2   -1    0    0    0  501 -0.00000000000E+00 -0.00000000000E+00 -0.17348579663E+03  0.17348579665E+03  0.26000000000E-02 0.  1.
         23    2    1    2    0    0  0.00000000000E+00  0.00000000000E+00 -0.15779595168E+03  0.18917564181E+03  0.10434491404E+03 0.  0.
        -11    1    3    3    0    0 -0.21942171827E+02  0.22917296209E+02 -0.15398492658E+03  0.15721965203E+03  0.51100000000E-03 0.  1.
         11    1    3    3    0    0  0.21942171827E+02 -0.22917296209E+02 -0.38110250995E+01  0.31955989776E+02  0.51100000000E-03 0. -1.
<mgrwt>
<rscale>  0 0.10434491E+03</rscale>
<asrwt>0</asrwt>
<pdfrwt beam="1">  1        2 0.24138224E-02 0.10434491E+03</pdfrwt>
<pdfrwt beam="2">  1       -2 0.26690121E-01 0.10434491E+03</pdfrwt>
<totfact> 0.46881726E+04</totfact>
</mgrwt>
</event>
<event>
 5    1  0.2809073E+000  0.8125317E+02  0.7818608E-02  0.1325532E+00
         -2   -1    0    0    0  501 -0.00000000000E+00  0.00000000000E+00  0.12008323545E+02  0.12008323826E+02  0.26000000000E-02 0. -1.
          2   -1    0    0  501    0  0.00000000000E+00 -0.00000000000E+00 -0.13744793862E+03  0.13744793865E+03  0.26000000000E-02 0.  1.
         23    2    1    2    0    0  0.00000000000E+00  0.00000000000E+00 -0.12543961508E+03  0.14945626248E+03  0.81253168318E+02 0.  0.
        -11    1    3    3    0    0  0.25965771943E+02  0.27327676122E+02 -0.90584965585E+02  0.98115539978E+02  0.51100000000E-03 0.  1.
         11    1    3    3    0    0 -0.25965771943E+02 -0.27327676122E+02 -0.34854649495E+02  0.51340722497E+02  0.51100000000E-03 0. -1.
<mgrwt>
<rscale>  0 0.81253168E+02</rscale>
<asrwt>0</asrwt>
<pdfrwt beam="2">  1        2 0.21145836E-01 0.81253168E+02</pdfrwt>
<pdfrwt beam="1">  1       -2 0.18474345E-02 0.81253168E+02</pdfrwt>
<totfact> 0.18529343E+05</totfact>
</mgrwt>
</event>
<event>
 5    1  0.2809073E+000  0.9099914E+02  0.7818608E-02  0.1300450E+00
         -2   -1    0    0    0  501 -0.00000000000E+00  0.00000000000E+00  0.57080180536E+02  0.57080180595E+02  0.26000000000E-02 0.  1.
          2   -1    0    0  501    0  0.00000000000E+00 -0.00000000000E+00 -0.36268474136E+02  0.36268474229E+02  0.26000000000E-02 0. -1.
         23    2    1    2    0    0  0.00000000000E+00  0.00000000000E+00  0.20811706400E+02  0.93348654824E+02  0.90999144140E+02 0.  0.
        -11    1    3    3    0    0 -0.75306057660E+01  0.20289538517E+02 -0.30650439926E+02  0.37520992316E+02  0.51100000000E-03 0. -1.
         11    1    3    3    0    0  0.75306057660E+01 -0.20289538517E+02  0.51462146325E+02  0.55827662508E+02  0.51100000000E-03 0.  1.
<mgrwt>
<rscale>  0 0.90999144E+02</rscale>
<asrwt>0</asrwt>
<pdfrwt beam="2">  1        2 0.55797653E-02 0.90999144E+02</pdfrwt>
<pdfrwt beam="1">  1       -2 0.87815663E-02 0.90999144E+02</pdfrwt>
<totfact> 0.93528027E+04</totfact>
</mgrwt>
</event>
<event>
 5    1  0.2809073E+000  0.8887639E+02  0.7818608E-02  0.1305596E+00
         -2   -1    0    0    0  501 -0.00000000000E+00  0.00000000000E+00  0.65637413951E+02  0.65637414002E+02  0.26000000000E-02 0.  1.
          2   -1    0    0  501    0  0.00000000000E+00 -0.00000000000E+00 -0.30085787639E+02  0.30085787751E+02  0.26000000000E-02 0. -1.
         23    2    1    2    0    0  0.00000000000E+00  0.00000000000E+00  0.35551626312E+02  0.95723201753E+02  0.88876392931E+02 0.  0.
        -11    1    3    3    0    0 -0.11624236226E+02 -0.42747129336E+02  0.13996444378E+02  0.46457942160E+02  0.51100000000E-03 0. -1.
         11    1    3    3    0    0  0.11624236226E+02  0.42747129336E+02  0.21555181935E+02  0.49265259593E+02  0.51100000000E-03 0.  1.
<mgrwt>
<rscale>  0 0.88876393E+02</rscale>
<asrwt>0</asrwt>
<pdfrwt beam="2">  1        2 0.46285828E-02 0.88876393E+02</pdfrwt>
<pdfrwt beam="1">  1       -2 0.10098064E-01 0.88876393E+02</pdfrwt>
<totfact> 0.95478393E+04</totfact>
</mgrwt>
</event>
<event>
 5    1  0.2809073E+000  0.8979259E+02  0.7818608E-02  0.1303355E+00
          2   -1    0    0  501    0  0.00000000000E+00  0.00000000000E+00  0.14753061616E+02  0.14753061845E+02  0.26000000000E-02 0.  1.
         -2   -1    0    0    0  501 -0.00000000000E+00 -0.00000000000E+00 -0.13662771691E+03  0.13662771694E+03  0.26000000000E-02 0. -1.
         23    2    1    2    0    0  0.00000000000E+00  0.00000000000E+00 -0.12187465530E+03  0.15138077878E+03  0.89792586449E+02 0.  0.
        -11    1    3    3    0    0  0.11398139123E+02 -0.42050300619E+02 -0.79214454425E+02  0.90405061516E+02  0.51100000000E-03 0.  1.
         11    1    3    3    0    0 -0.11398139123E+02  0.42050300619E+02 -0.42660200873E+02  0.60975717268E+02  0.51100000000E-03 0. -1.
<mgrwt>
<rscale>  0 0.89792586E+02</rscale>
<asrwt>0</asrwt>
<pdfrwt beam="1">  1        2 0.22697019E-02 0.89792586E+02</pdfrwt>
<pdfrwt beam="2">  1       -2 0.21019648E-01 0.89792586E+02</pdfrwt>
<totfact> 0.75049772E+04</totfact>
</mgrwt>
</event>
<event>
 5    1  0.2809073E+000  0.9057433E+02  0.7818608E-02  0.1301467E+00
         -2   -1    0    0    0  501 -0.00000000000E+00  0.00000000000E+00  0.41957500805E+02  0.41957500886E+02  0.26000000000E-02 0.  1.
          2   -1    0    0  501    0  0.00000000000E+00 -0.00000000000E+00 -0.48881068638E+02  0.48881068707E+02  0.26000000000E-02 0. -1.
         23    2    1    2    0    0  0.00000000000E+00  0.00000000000E+00 -0.69235678327E+01  0.90838569593E+02  0.90574333749E+02 0.  0.
        -11    1    3    3    0    0 -0.39707825627E+00  0.45176287372E+02 -0.31050473859E+00  0.45179099430E+02  0.51100000000E-03 0.  1.
         11    1    3    3    0    0  0.39707825627E+00 -0.45176287372E+02 -0.66130630941E+01  0.45659470163E+02  0.51100000000E-03 0. -1.
<mgrwt>
<rscale>  0 0.90574334E+02</rscale>
<asrwt>0</asrwt>
<pdfrwt beam="2">  1        2 0.75201644E-02 0.90574334E+02</pdfrwt>
<pdfrwt beam="1">  1       -2 0.64550001E-02 0.90574334E+02</pdfrwt>
<totfact> 0.10240018E+05</totfact>
</mgrwt>
</event>
<event>
 5    1  0.2809073E+000  0.9240340E+02  0.7818608E-02  0.1297134E+00
          2   -1    0    0  501    0  0.00000000000E+00  0.00000000000E+00  0.32637636300E+02  0.32637636403E+02  0.26000000000E-02 0. -1.
         -2   -1    0    0    0  501 -0.00000000000E+00 -0.00000000000E+00 -0.65402931300E+02  0.65402931351E+02  0.26000000000E-02 0.  1.
         23    2    1    2    0    0  0.00000000000E+00  0.00000000000E+00 -0.32765295000E+02  0.98040567755E+02  0.92403400204E+02 0.  0.
        -11    1    3    3    0    0 -0.55906362895E+01 -0.10591539381E+02  0.30962020184E+02  0.33197629655E+02  0.51100000000E-03 0. -1.
         11    1    3    3    0    0  0.55906362895E+01  0.10591539381E+02 -0.63727315184E+02  0.64842938100E+02  0.51100000000E-03 0.  1.
<mgrwt>
<rscale>  0 0.92403400E+02</rscale>
<asrwt>0</asrwt>
<pdfrwt beam="1">  1        2 0.50211749E-02 0.92403400E+02</pdfrwt>
<pdfrwt beam="2">  1       -2 0.10061989E-01 0.92403400E+02</pdfrwt>
<totfact> 0.86964278E+04</totfact>
</mgrwt>
</event>
<event>
 5    1  0.2809073E+000  0.8481934E+02  0.7818608E-02  0.1315906E+00
          2   -1    0    0  501    0  0.00000000000E+00  0.00000000000E+00  0.35805797510E+03  0.35805797511E+03  0.26000000000E-02 0. -1.
         -2   -1    0    0    0  501 -0.00000000000E+00 -0.00000000000E+00 -0.50231533715E+01  0.50231540444E+01  0.26000000000E-02 0.  1.
         23    2    1    2    0    0  0.00000000000E+00  0.00000000000E+00  0.35303482173E+03  0.36308112916E+03  0.84819343282E+02 0.  0.
        -11    1    3    3    0    0  0.58833581110E+01  0.41913051256E+02  0.16498151696E+03  0.17032386417E+03  0.51100000000E-03 0. -1.
         11    1    3    3    0    0 -0.58833581110E+01 -0.41913051256E+02  0.18805330478E+03  0.19275726499E+03  0.51100000000E-03 0.  1.
<mgrwt>
<rscale>  0 0.84819343E+02</rscale>
<asrwt>0</asrwt>
<pdfrwt beam="1">  1        2 0.55085866E-01 0.84819343E+02</pdfrwt>
<pdfrwt beam="2">  1       -2 0.77279254E-03 0.84819343E+02</pdfrwt>
<totfact> 0.23223985E+05</totfact>
</mgrwt>
</event>
<event>
 5    1  0.2809073E+000  0.9407297E+02  0.7818608E-02  0.1293278E+00
          2   -1    0    0  501    0  0.00000000000E+00  0.00000000000E+00  0.46632282399E+02  0.46632282471E+02  0.26000000000E-02 0. -1.
         -2   -1    0    0    0  501 -0.00000000000E+00 -0.00000000000E+00 -0.47444192349E+02  0.47444192420E+02  0.26000000000E-02 0.  1.
         23    2    1    2    0    0  0.00000000000E+00  0.00000000000E+00 -0.81190994987E+00  0.94076474891E+02  0.94072971305E+02 0.  0.
        -11    1    3    3    0    0 -0.42702482121E+02  0.10723769279E+01 -0.20098793662E+02  0.47208192917E+02  0.51100000000E-03 0.  1.
         11    1    3    3    0    0  0.42702482121E+02 -0.10723769279E+01  0.19286883712E+02  0.46868281974E+02  0.51100000000E-03 0. -1.
<mgrwt>
<rscale>  0 0.94072971E+02</rscale>
<asrwt>0</asrwt>
<pdfrwt beam="1">  1        2 0.71741973E-02 0.94072971E+02</pdfrwt>
<pdfrwt beam="2">  1       -2 0.72991066E-02 0.94072971E+02</pdfrwt>
<totfact> 0.90716868E+04</totfact>
</mgrwt>
</event>
<event>
 5    1  0.2809073E+000  0.9149889E+02  0.7818608E-02  0.1299262E+00
         -2   -1    0    0    0  501 -0.00000000000E+00  0.00000000000E+00  0.14680950127E+02  0.14680950357E+02  0.26000000000E-02 0.  1.
          2   -1    0    0  501    0  0.00000000000E+00 -0.00000000000E+00 -0.14256649818E+03  0.14256649821E+03  0.26000000000E-02 0. -1.
         23    2    1    2    0    0  0.00000000000E+00  0.00000000000E+00 -0.12788554806E+03  0.15724744856E+03  0.91498888945E+02 0.  0.
        -11    1    3    3    0    0 -0.40194541425E+01 -0.36362380274E+02 -0.16732592379E+02  0.40228824974E+02  0.51100000000E-03 0.  1.
         11    1    3    3    0    0  0.40194541425E+01  0.36362380274E+02 -0.11115295568E+03  0.11701862359E+03  0.51100000000E-03 0. -1.
<mgrwt>
<rscale>  0 0.91498889E+02</rscale>
<asrwt>0</asrwt>
<pdfrwt beam="2">  1        2 0.21933306E-01 0.91498889E+02</pdfrwt>
<pdfrwt beam="1">  1       -2 0.22586078E-02 0.91498889E+02</pdfrwt>
<totfact> 0.13611537E+05</totfact>
</mgrwt>
</event>
<event>
 5    1  0.2809073E+000  0.9203244E+02  0.7818608E-02  0.1298003E+00
         -2   -1    0    0    0  501 -0.00000000000E+00  0.00000000000E+00  0.64251229041E+01  0.64251234301E+01  0.26000000000E-02 0.  1.
          2   -1    0    0  501    0  0.00000000000E+00 -0.00000000000E+00 -0.32956446917E+03  0.32956446918E+03  0.26000000000E-02 0. -1.
         23    2    1    2    0    0  0.00000000000E+00  0.00000000000E+00 -0.32313934627E+03  0.33598959261E+03  0.92032435790E+02 0.  0.
        -11    1    3    3    0    0 -0.35858752904E+02 -0.28309972435E+02 -0.14151113522E+03  0.14870341654E+03  0.51100000000E-03 0.  1.
         11    1    3    3    0    0  0.35858752904E+02  0.28309972435E+02 -0.18162821105E+03  0.18728617608E+03  0.51100000000E-03 0. -1.
<mgrwt>
<rscale>  0 0.92032436E+02</rscale>
<asrwt>0</asrwt>
<pdfrwt beam="2">  1        2 0.50702213E-01 0.92032436E+02</pdfrwt>
<pdfrwt beam="1">  1       -2 0.98848075E-03 0.92032436E+02</pdfrwt>
<totfact> 0.18145956E+05</totfact>
</mgrwt>
</event>
<event>
 5    1  0.2809073E+000  0.9367994E+02  0.7818608E-02  0.1294177E+00
          2   -1    0    0  501    0  0.00000000000E+00  0.00000000000E+00  0.28046165896E+02  0.28046166017E+02  0.26000000000E-02 0. -1.
         -2   -1    0    0    0  501 -0.00000000000E+00 -0.00000000000E+00 -0.78227548521E+02  0.78227548565E+02  0.26000000000E-02 0.  1.
         23    2    1    2    0    0  0.00000000000E+00  0.00000000000E+00 -0.50181382625E+02  0.10627371458E+03  0.93679940482E+02 0.  0.
        -11    1    3    3    0    0 -0.38701863888E+02 -0.10293368708E+02 -0.52650554408E+02  0.66150348355E+02  0.51100000000E-03 0.  1.
         11    1    3    3    0    0  0.38701863888E+02  0.10293368708E+02  0.24691717828E+01  0.40123366226E+02  0.51100000000E-03 0. -1.
<mgrwt>
<rscale>  0 0.93679940E+02</rscale>
<asrwt>0</asrwt>
<pdfrwt beam="1">  1        2 0.43147948E-02 0.93679940E+02</pdfrwt>
<pdfrwt beam="2">  1       -2 0.12035007E-01 0.93679940E+02</pdfrwt>
<totfact> 0.80099794E+04</totfact>
</mgrwt>
</event>
<event>
 5    1  0.2809073E+000  0.9005099E+02  0.7818608E-02  0.1302728E+00
          2   -1    0    0  501    0  0.00000000000E+00  0.00000000000E+00  0.16762439938E+02  0.16762440139E+02  0.26000000000E-02 0.  1.
         -2   -1    0    0    0  501 -0.00000000000E+00 -0.00000000000E+00 -0.12094273874E+03  0.12094273877E+03  0.26000000000E-02 0. -1.
         23    2    1    2    0    0  0.00000000000E+00  0.00000000000E+00 -0.10418029881E+03  0.13770517891E+03  0.90050994662E+02 0.  0.
        -11    1    3    3    0    0 -0.27909953745E+02  0.34249460878E+02 -0.65360173409E+02  0.78891972702E+02  0.51100000000E-03 0.  1.
         11    1    3    3    0    0  0.27909953745E+02 -0.34249460878E+02 -0.38820125397E+02  0.58813206209E+02  0.51100000000E-03 0. -1.
<mgrwt>
<rscale>  0 0.90050995E+02</rscale>
<asrwt>0</asrwt>
<pdfrwt beam="1">  1        2 0.25788370E-02 0.90050995E+02</pdfrwt>
<pdfrwt beam="2">  1       -2 0.18606575E-01 0.90050995E+02</pdfrwt>
<totfact> 0.77607332E+04</totfact>
</mgrwt>
</event>
<event>
 5    1  0.2809073E+000  0.8493620E+02  0.7818608E-02  0.1315599E+00
         -2   -1    0    0    0  501 -0.00000000000E+00  0.00000000000E+00  0.89789726630E+02  0.89789726668E+02  0.26000000000E-02 0.  1.
          2   -1    0    0  501    0  0.00000000000E+00 -0.00000000000E+00 -0.20086257675E+02  0.20086257844E+02  0.26000000000E-02 0. -1.
         23    2    1    2    0    0  0.00000000000E+00  0.00000000000E+00  0.69703468955E+02  0.10987598451E+03  0.84936201869E+02 0.  0.
        -11    1    3    3    0    0  0.86585716384E+01 -0.15204287894E+02  0.84910325322E+02  0.86694316883E+02  0.51100000000E-03 0.  1.
         11    1    3    3    0    0 -0.86585716384E+01  0.15204287894E+02 -0.15206856368E+02  0.23181667628E+02  0.51100000000E-03 0. -1.
<mgrwt>
<rscale>  0 0.84936202E+02</rscale>
<asrwt>0</asrwt>
<pdfrwt beam="2">  1        2 0.30901935E-02 0.84936202E+02</pdfrwt>
<pdfrwt beam="1">  1       -2 0.13813804E-01 0.84936202E+02</pdfrwt>
<totfact> 0.98151878E+04</totfact>
</mgrwt>
</event>
<event>
 5    1  0.2809073E+000  0.9098780E+02  0.7818608E-02  0.1300477E+00
          2   -1    0    0  501    0  0.00000000000E+00  0.00000000000E+00  0.28350284665E+02  0.28350284784E+02  0.26000000000E-02 0. -1.
         -2   -1    0    0    0  501 -0.00000000000E+00 -0.00000000000E+00 -0.73004372965E+02  0.73004373011E+02  0.26000000000E-02 0.  1.
         23    2    1    2    0    0  0.00000000000E+00  0.00000000000E+00 -0.44654088300E+02  0.10135465779E+03  0.90987796186E+02 0.  0.
        -11    1    3    3    0    0 -0.17036613896E+02  0.30229600746E+02  0.10446556218E+02  0.36238177540E+02  0.51100000000E-03 0.  1.
         11    1    3    3    0    0  0.17036613896E+02 -0.30229600746E+02 -0.55100644517E+02  0.65116480255E+02  0.51100000000E-03 0. -1.
<mgrwt>
<rscale>  0 0.90987796E+02</rscale>
<asrwt>0</asrwt>
<pdfrwt beam="1">  1        2 0.43615823E-02 0.90987796E+02</pdfrwt>
<pdfrwt beam="2">  1       -2 0.11231442E-01 0.90987796E+02</pdfrwt>
<totfact> 0.87673944E+04</totfact>
</mgrwt>
</event>
<event>
 5    1  0.2809073E+000  0.8335754E+02  0.7818608E-02  0.1319784E+00
         -2   -1    0    0    0  501 -0.00000000000E+00  0.00000000000E+00  0.51598660061E+01  0.51598666612E+01  0.26000000000E-02 0.  1.
          2   -1    0    0  501    0  0.00000000000E+00 -0.00000000000E+00 -0.33665987432E+03  0.33665987433E+03  0.26000000000E-02 0. -1.
         23    2    1    2    0    0  0.00000000000E+00  0.00000000000E+00 -0.33150000831E+03  0.34181974099E+03  0.83357542065E+02 0.  0.
        -11    1    3    3    0    0 -0.21902741605E+01  0.40032555963E+02 -0.11904634761E+03  0.12561622394E+03  0.51100000000E-03 0.  1.
         11    1    3    3    0    0  0.21902741605E+01 -0.40032555963E+02 -0.21245366070E+03  0.21620351705E+03  0.51100000000E-03 0. -1.
<mgrwt>
<rscale>  0 0.83357542E+02</rscale>
<asrwt>0</asrwt>
<pdfrwt beam="2">  1        2 0.51793810E-01 0.83357542E+02</pdfrwt>
<pdfrwt beam="1">  1       -2 0.79382586E-03 0.83357542E+02</pdfrwt>
<totfact> 0.23775691E+05</totfact>
</mgrwt>
</event>
<event>
 5    1  0.2809073E+000  0.9434899E+02  0.7818608E-02  0.1292649E+00
         -2   -1    0    0    0  501 -0.00000000000E+00  0.00000000000E+00  0.21565011512E+02  0.21565011669E+02  0.26000000000E-02 0.  1.
          2   -1    0    0  501    0  0.00000000000E+00 -0.00000000000E+00 -0.10319646852E+03  0.10319646855E+03  0.26000000000E-02 0. -1.
         23    2    1    2    0    0  0.00000000000E+00  0.00000000000E+00 -0.81631457009E+02  0.12476148022E+03  0.94348991377E+02 0.  0.
        -11    1    3    3    0    0  0.40138115321E+02  0.15702671994E+02 -0.15456052086E+02  0.45787899663E+02  0.51100000000E-03 0.  1.
         11    1    3    3    0    0 -0.40138115321E+02 -0.15702671994E+02 -0.66175404923E+02  0.78973580559E+02  0.51100000000E-03 0. -1.
<mgrwt>
<rscale>  0 0.94348991E+02</rscale>
<asrwt>0</asrwt>
<pdfrwt beam="2">  1        2 0.15876379E-01 0.94348991E+02</pdfrwt>
<pdfrwt beam="1">  1       -2 0.33176942E-02 0.94348991E+02</pdfrwt>
<totfact> 0.11271037E+05</totfact>
</mgrwt>
</event>
<event>
 5    1  0.2809073E+000  0.9362617E+02  0.7818608E-02  0.1294301E+00
         -2   -1    0    0    0  501 -0.00000000000E+00  0.00000000000E+00  0.36381664973E+02  0.36381665066E+02  0.26000000000E-02 0. -1.
          2   -1    0    0  501    0  0.00000000000E+00 -0.00000000000E+00 -0.60235417047E+02  0.60235417103E+02  0.26000000000E-02 0.  1.
         23    2    1    2    0    0  0.00000000000E+00  0.00000000000E+00 -0.23853752074E+02  0.96617082169E+02  0.93626166636E+02 0.  0.
        -11    1    3    3    0    0 -0.21179868537E+02 -0.27561923719E+01 -0.54914320125E+02  0.58921693651E+02  0.51100000000E-03 0.  1.
         11    1    3    3    0    0  0.21179868537E+02  0.27561923719E+01  0.31060568051E+02  0.37695388518E+02  0.51100000000E-03 0. -1.
<mgrwt>
<rscale>  0 0.93626167E+02</rscale>
<asrwt>0</asrwt>
<pdfrwt beam="2">  1        2 0.92669872E-02 0.93626167E+02</pdfrwt>
<pdfrwt beam="1">  1       -2 0.55971792E-02 0.93626167E+02</pdfrwt>
<totfact> 0.98508253E+04</totfact>
</mgrwt>
</event>
<event>
 5    1  0.2809073E+000  0.9886656E+02  0.7818608E-02  0.1282698E+00
         -2   -1    0    0    0  501 -0.00000000000E+00  0.00000000000E+00  0.36031317638E+03  0.36031317639E+03  0.26000000000E-02 0.  1.
          2   -1    0    0  501    0  0.00000000000E+00 -0.00000000000E+00 -0.67820141982E+01  0.67820146965E+01  0.26000000000E-02 0. -1.
         23    2    1    2    0    0  0.00000000000E+00  0.00000000000E+00  0.35353116219E+03  0.36709519109E+03  0.98866559993E+02 0.  0.
        -11    1    3    3    0    0  0.27015233401E+02  0.41379831412E+02  0.17216397984E+03  0.17911602173E+03  0.51100000000E-03 0.  1.
         11    1    3    3    0    0 -0.27015233401E+02 -0.41379831412E+02  0.18136718234E+03  0.18797916936E+03  0.51100000000E-03 0. -1.
<mgrwt>
<rscale>  0 0.98866560E+02</rscale>
<asrwt>0</asrwt>
<pdfrwt beam="2">  1        2 0.10433867E-02 0.98866560E+02</pdfrwt>
<pdfrwt beam="1">  1       -2 0.55432804E-01 0.98866560E+02</pdfrwt>
<totfact> 0.37071123E+04</totfact>
</mgrwt>
</event>
<event>
 5    1  0.2809073E+000  0.9137628E+02  0.7818608E-02  0.1299553E+00
          2   -1    0    0  501    0  0.00000000000E+00  0.00000000000E+00  0.28339347670E+03  0.28339347671E+03  0.26000000000E-02 0. -1.
         -2   -1    0    0    0  501 -0.00000000000E+00 -0.00000000000E+00 -0.73657526955E+01  0.73657531544E+01  0.26000000000E-02 0.  1.
         23    2    1    2    0    0  0.00000000000E+00  0.00000000000E+00  0.27602772400E+03  0.29075922986E+03  0.91376284305E+02 0.  0.
        -11    1    3    3    0    0 -0.33383454628E+02  0.30713180549E+02  0.12068676639E+03  0.12893040791E+03  0.51100000000E-03 0.  1.
         11    1    3    3    0    0  0.33383454628E+02 -0.30713180549E+02  0.15534095761E+03  0.16182882195E+03  0.51100000000E-03 0. -1.
<mgrwt>
<rscale>  0 0.91376284E+02</rscale>
<asrwt>0</asrwt>
<pdfrwt beam="1">  1        2 0.43599001E-01 0.91376284E+02</pdfrwt>
<pdfrwt beam="2">  1       -2 0.11331926E-02 0.91376284E+02</pdfrwt>
<totfact> 0.17486159E+05</totfact>
</mgrwt>
</event>
<event>
 5    1  0.2809073E+000  0.8014877E+02  0.7818608E-02  0.1328630E+00
         -2   -1    0    0    0  501 -0.00000000000E+00  0.00000000000E+00  0.91704931981E+01  0.91704935667E+01  0.26000000000E-02 0.  1.
          2   -1    0    0  501    0  0.00000000000E+00 -0.00000000000E+00 -0.17512214400E+03  0.17512214402E+03  0.26000000000E-02 0. -1.
         23    2    1    2    0    0  0.00000000000E+00  0.00000000000E+00 -0.16595165080E+03  0.18429263759E+03  0.80148773319E+02 0.  0.
        -11    1    3    3    0    0 -0.18697391433E+01  0.39864816918E+02 -0.74603765680E+02  0.84607454791E+02  0.51100000000E-03 0. -1.
         11    1    3    3    0    0  0.18697391433E+01 -0.39864816918E+02 -0.91347885121E+02  0.99685182794E+02  0.51100000000E-03 0.  1.
<mgrwt>
<rscale>  0 0.80148773E+02</rscale>
<asrwt>0</asrwt>
<pdfrwt beam="2">  1        2 0.26941866E-01 0.80148773E+02</pdfrwt>
<pdfrwt beam="1">  1       -2 0.14108453E-02 0.80148773E+02</pdfrwt>
<totfact> 0.20836052E+05</totfact>
</mgrwt>
</event>
<event>
 5    1  0.2809073E+000  0.9196708E+02  0.7818608E-02  0.1298157E+00
         -2   -1    0    0    0  501 -0.00000000000E+00  0.00000000000E+00  0.87249255745E+02  0.87249255784E+02  0.26000000000E-02 0.  1.
          2   -1    0    0  501    0  0.00000000000E+00 -0.00000000000E+00 -0.24235003603E+02  0.24235003742E+02  0.26000000000E-02 0. -1.
         23    2    1    2    0    0  0.00000000000E+00  0.00000000000E+00  0.63014252142E+02  0.11148425953E+03  0.91967081877E+02 0.  0.
        -11    1    3    3    0    0  0.52088610522E+01  0.21708116842E+02  0.80239414163E+02  0.83287082767E+02  0.51100000000E-03 0.  1.
         11    1    3    3    0    0 -0.52088610522E+01 -0.21708116842E+02 -0.17225162021E+02  0.28197176759E+02  0.51100000000E-03 0. -1.
<mgrwt>
<rscale>  0 0.91967082E+02</rscale>
<asrwt>0</asrwt>
<pdfrwt beam="2">  1        2 0.37284621E-02 0.91967082E+02</pdfrwt>
<pdfrwt beam="1">  1       -2 0.13422963E-01 0.91967082E+02</pdfrwt>
<totfact> 0.81284541E+04</totfact>
</mgrwt>
</event>
<event>
 5    1  0.2809073E+000  0.8857272E+02  0.7818608E-02  0.1306345E+00
         -2   -1    0    0    0  501 -0.00000000000E+00  0.00000000000E+00  0.18388792476E+02  0.18388792660E+02  0.26000000000E-02 0. -1.
          2   -1    0    0  501    0  0.00000000000E+00 -0.00000000000E+00 -0.10665636397E+03  0.10665636401E+03  0.26000000000E-02 0.  1.
         23    2    1    2    0    0  0.00000000000E+00  0.00000000000E+00 -0.88267571499E+02  0.12504515667E+03  0.88572721688E+02 0.  0.
        -11    1    3    3    0    0 -0.93993081323E+01 -0.25695895173E+02  0.50289053319E+01  0.27819344191E+02  0.51100000000E-03 0. -1.
         11    1    3    3    0    0  0.93993081323E+01  0.25695895173E+02 -0.93296476831E+02  0.97225812475E+02  0.51100000000E-03 0.  1.
<mgrwt>
<rscale>  0 0.88572722E+02</rscale>
<asrwt>0</asrwt>
<pdfrwt beam="2">  1        2 0.16408671E-01 0.88572722E+02</pdfrwt>
<pdfrwt beam="1">  1       -2 0.28290451E-02 0.88572722E+02</pdfrwt>
<totfact> 0.13546189E+05</totfact>
</mgrwt>
</event>
<event>
 5    1  0.2809073E+000  0.9181448E+02  0.7818608E-02  0.1298516E+00
         -2   -1    0    0    0  501 -0.00000000000E+00  0.00000000000E+00  0.28742222744E+02  0.28742222862E+02  0.26000000000E-02 0.  1.
          2   -1    0    0  501    0  0.00000000000E+00 -0.00000000000E+00 -0.73323303299E+02  0.73323303345E+02  0.26000000000E-02 0. -1.
         23    2    1    2    0    0  0.00000000000E+00  0.00000000000E+00 -0.44581080555E+02  0.10206552621E+03  0.91814480865E+02 0.  0.
        -11    1    3    3    0    0 -0.67376491391E+01  0.45408206999E+02 -0.21827441113E+02  0.50830486567E+02  0.51100000000E-03 0.  1.
         11    1    3    3    0    0  0.67376491391E+01 -0.45408206999E+02 -0.22753639443E+02  0.51235039641E+02  0.51100000000E-03 0. -1.
<mgrwt>
<rscale>  0 0.91814481E+02</rscale>
<asrwt>0</asrwt>
<pdfrwt beam="2">  1        2 0.11280508E-01 0.91814481E+02</pdfrwt>
<pdfrwt beam="1">  1       -2 0.44218805E-02 0.91814481E+02</pdfrwt>
<totfact> 0.10989593E+05</totfact>
</mgrwt>
</event>
<event>
 5    1  0.2809073E+000  0.8996462E+02  0.7818608E-02  0.1302937E+00
         -2   -1    0    0    0  501 -0.00000000000E+00  0.00000000000E+00  0.13684729733E+02  0.13684729980E+02  0.26000000000E-02 0.  1.
          2   -1    0    0  501    0  0.00000000000E+00 -0.00000000000E+00 -0.14785884621E+03  0.14785884623E+03  0.26000000000E-02 0. -1.
         23    2    1    2    0    0  0.00000000000E+00  0.00000000000E+00 -0.13417411648E+03  0.16154357621E+03  0.89964623508E+02 0.  0.
        -11    1    3    3    0    0  0.73173292448E+01 -0.23065091801E+02 -0.13517610035E+03  0.13732486983E+03  0.51100000000E-03 0. -1.
         11    1    3    3    0    0 -0.73173292448E+01  0.23065091801E+02  0.10019838721E+01  0.24218706385E+02  0.51100000000E-03 0.  1.
<mgrwt>
<rscale>  0 0.89964624E+02</rscale>
<asrwt>0</asrwt>
<pdfrwt beam="2">  1        2 0.22747514E-01 0.89964624E+02</pdfrwt>
<pdfrwt beam="1">  1       -2 0.21053432E-02 0.89964624E+02</pdfrwt>
<totfact> 0.14427021E+05</totfact>
</mgrwt>
</event>
<event>
 5    1  0.2809073E+000  0.1056176E+03  0.7818608E-02  0.1268908E+00
         -2   -1    0    0    0  501 -0.00000000000E+00  0.00000000000E+00  0.69528850644E+01  0.69528855505E+01  0.26000000000E-02 0.  1.
          2   -1    0    0  501    0  0.00000000000E+00 -0.00000000000E+00 -0.40109531619E+03  0.40109531620E+03  0.26000000000E-02 0. -1.
         23    2    1    2    0    0  0.00000000000E+00  0.00000000000E+00 -0.39414243113E+03  0.40804820175E+03  0.10561760714E+03 0.  0.
        -11    1    3    3    0    0  0.99032470133E+01  0.51789743749E+02 -0.18579558663E+03  0.19313273122E+03  0.51100000000E-03 0.  1.
         11    1    3    3    0    0 -0.99032470133E+01 -0.51789743749E+02 -0.20834684450E+03  0.21491547052E+03  0.51100000000E-03 0. -1.
<mgrwt>
<rscale>  0 0.10561761E+03</rscale>
<asrwt>0</asrwt>
<pdfrwt beam="2">  1        2 0.61706954E-01 0.10561761E+03</pdfrwt>
<pdfrwt beam="1">  1       -2 0.10696750E-02 0.10561761E+03</pdfrwt>
<totfact> 0.13481980E+05</totfact>
</mgrwt>
</event>
<event>
 5    1  0.2809073E+000  0.9169121E+02  0.7818608E-02  0.1298807E+00
          2   -1    0    0  501    0  0.00000000000E+00  0.00000000000E+00  0.10377253949E+02  0.10377254274E+02  0.26000000000E-02 0. -1.
         -2   -1    0    0    0  501 -0.00000000000E+00 -0.00000000000E+00 -0.20254101064E+03  0.20254101066E+03  0.26000000000E-02 0.  1.
         23    2    1    2    0    0  0.00000000000E+00  0.00000000000E+00 -0.19216375670E+03  0.21291826494E+03  0.91691210897E+02 0.  0.
        -11    1    3    3    0    0 -0.22549190059E+02 -0.33616837395E+02 -0.46101624212E+02  0.61350774111E+02  0.51100000000E-03 0. -1.
         11    1    3    3    0    0  0.22549190059E+02  0.33616837395E+02 -0.14606213248E+03  0.15156749082E+03  0.51100000000E-03 0.  1.
<mgrwt>
<rscale>  0 0.91691211E+02</rscale>
<asrwt>0</asrwt>
<pdfrwt beam="1">  1        2 0.15965008E-02 0.91691211E+02</pdfrwt>
<pdfrwt beam="2">  1       -2 0.31160153E-01 0.91691211E+02</pdfrwt>
<totfact> 0.61093020E+04</totfact>
</mgrwt>
</event>
<event>
 5    1  0.2809073E+000  0.8257770E+02  0.7818608E-02  0.1321891E+00
         -2   -1    0    0    0  501 -0.00000000000E+00  0.00000000000E+00  0.14071937045E+03  0.14071937048E+03  0.26000000000E-02 0.  1.
          2   -1    0    0  501    0  0.00000000000E+00 -0.00000000000E+00 -0.12114673129E+02  0.12114673408E+02  0.26000000000E-02 0. -1.
         23    2    1    2    0    0  0.00000000000E+00  0.00000000000E+00  0.12860469732E+03  0.15283404388E+03  0.82577701569E+02 0.  0.
        -11    1    3    3    0    0 -0.85347129415E+01  0.29512637868E+02  0.13248291470E+02  0.33456753370E+02  0.51100000000E-03 0. -1.
         11    1    3    3    0    0  0.85347129415E+01 -0.29512637868E+02  0.11535640585E+03  0.11937729051E+03  0.51100000000E-03 0.  1.
<mgrwt>
<rscale>  0 0.82577702E+02</rscale>
<asrwt>0</asrwt>
<pdfrwt beam="2">  1        2 0.18637959E-02 0.82577702E+02</pdfrwt>
<pdfrwt beam="1">  1       -2 0.21649133E-01 0.82577702E+02</pdfrwt>
<totfact> 0.91760952E+04</totfact>
</mgrwt>
</event>
<event>
 5    1  0.2809073E+000  0.8962891E+02  0.7818608E-02  0.1303753E+00
         -2   -1    0    0    0  501 -0.00000000000E+00  0.00000000000E+00  0.74782964156E+01  0.74782968675E+01  0.26000000000E-02 0.  1.
          2   -1    0    0  501    0  0.00000000000E+00 -0.00000000000E+00 -0.26855518895E+03  0.26855518896E+03  0.26000000000E-02 0. -1.
         23    2    1    2    0    0  0.00000000000E+00  0.00000000000E+00 -0.26107689253E+03  0.27603348583E+03  0.89628909867E+02 0.  0.
        -11    1    3    3    0    0  0.41765477656E+02 -0.96588893379E+01 -0.90302637266E+02  0.99961070245E+02  0.51100000000E-03 0. -1.
         11    1    3    3    0    0 -0.41765477656E+02  0.96588893379E+01 -0.17077425527E+03  0.17607241558E+03  0.51100000000E-03 0.  1.
<mgrwt>
<rscale>  0 0.89628910E+02</rscale>
<asrwt>0</asrwt>
<pdfrwt beam="2">  1        2 0.41316176E-01 0.89628910E+02</pdfrwt>
<pdfrwt beam="1">  1       -2 0.11505074E-02 0.89628910E+02</pdfrwt>
<totfact> 0.18045522E+05</totfact>
</mgrwt>
</event>
<event>
 5    1  0.2809073E+000  0.8839043E+02  0.7818608E-02  0.1306797E+00
          2   -1    0    0  501    0  0.00000000000E+00  0.00000000000E+00  0.70324318320E+02  0.70324318368E+02  0.26000000000E-02 0. -1.
         -2   -1    0    0    0  501 -0.00000000000E+00 -0.00000000000E+00 -0.27774417858E+02  0.27774417980E+02  0.26000000000E-02 0.  1.
         23    2    1    2    0    0  0.00000000000E+00  0.00000000000E+00  0.42549900461E+02  0.98098736348E+02  0.88390429594E+02 0.  0.
        -11    1    3    3    0    0 -0.28120011036E+02  0.33752874737E+02  0.15926350286E+02  0.46729436198E+02  0.51100000000E-03 0.  1.
         11    1    3    3    0    0  0.28120011036E+02 -0.33752874737E+02  0.26623550175E+02  0.51369300150E+02  0.51100000000E-03 0. -1.
<mgrwt>
<rscale>  0 0.88390430E+02</rscale>
<asrwt>0</asrwt>
<pdfrwt beam="1">  1        2 0.10819126E-01 0.88390430E+02</pdfrwt>
<pdfrwt beam="2">  1       -2 0.42729874E-02 0.88390430E+02</pdfrwt>
<totfact> 0.12077053E+05</totfact>
</mgrwt>
</event>
<event>
 5    1  0.2809073E+000  0.9319051E+02  0.7818608E-02  0.1295304E+00
         -2   -1    0    0    0  501 -0.00000000000E+00  0.00000000000E+00  0.28946477723E+02  0.28946477839E+02  0.26000000000E-02 0.  1.
          2   -1    0    0  501    0  0.00000000000E+00 -0.00000000000E+00 -0.75004564920E+02  0.75004564965E+02  0.26000000000E-02 0. -1.
         23    2    1    2    0    0  0.00000000000E+00  0.00000000000E+00 -0.46058087197E+02  0.10395104280E+03  0.93190514023E+02 0.  0.
        -11    1    3    3    0    0  0.22604588158E+02 -0.99473864147E+01 -0.67103445209E+02  0.71503777952E+02  0.51100000000E-03 0. -1.
         11    1    3    3    0    0 -0.22604588158E+02  0.99473864147E+01  0.21045358012E+02  0.32447264852E+02  0.51100000000E-03 0.  1.
<mgrwt>
<rscale>  0 0.93190514E+02</rscale>
<asrwt>0</asrwt>
<pdfrwt beam="2">  1        2 0.11539164E-01 0.93190514E+02</pdfrwt>
<pdfrwt beam="1">  1       -2 0.44533043E-02 0.93190514E+02</pdfrwt>
<totfact> 0.10609240E+05</totfact>
</mgrwt>
</event>
<event>
 5    1  0.2809073E+000  0.9058102E+02  0.7818608E-02  0.1301451E+00
         -2   -1    0    0    0  501 -0.00000000000E+00  0.00000000000E+00  0.32169249976E+02  0.32169250081E+02  0.26000000000E-02 0. -1.
          2   -1    0    0  501    0  0.00000000000E+00 -0.00000000000E+00 -0.63763700357E+02  0.63763700410E+02  0.26000000000E-02 0.  1.
         23    2    1    2    0    0  0.00000000000E+00  0.00000000000E+00 -0.31594450381E+02  0.95932950491E+02  0.90581022819E+02 0.  0.
        -11    1    3    3    0    0 -0.26223520167E+02 -0.36017044323E+02 -0.24422746587E+02  0.50807194793E+02  0.51100000000E-03 0.  1.
         11    1    3    3    0    0  0.26223520167E+02  0.36017044323E+02 -0.71717037943E+01  0.45125755697E+02  0.51100000000E-03 0. -1.
<mgrwt>
<rscale>  0 0.90581023E+02</rscale>
<asrwt>0</asrwt>
<pdfrwt beam="2">  1        2 0.98098000E-02 0.90581023E+02</pdfrwt>
<pdfrwt beam="1">  1       -2 0.49491154E-02 0.90581023E+02</pdfrwt>
<totfact> 0.10982875E+05</totfact>
</mgrwt>
</event>
<event>
 5    1  0.2809073E+000  0.8097631E+02  0.7818608E-02  0.1326303E+00
         -2   -1    0    0    0  501 -0.00000000000E+00  0.00000000000E+00  0.42298263099E+02  0.42298263179E+02  0.26000000000E-02 0.  1.
          2   -1    0    0  501    0  0.00000000000E+00 -0.00000000000E+00 -0.38755511379E+02  0.38755511466E+02  0.26000000000E-02 0. -1.
         23    2    1    2    0    0  0.00000000000E+00  0.00000000000E+00  0.35427517195E+01  0.81053774645E+02  0.80976313169E+02 0.  0.
        -11    1    3    3    0    0  0.33269468408E+02  0.23063436994E+02  0.10557309291E+01  0.40495607443E+02  0.51100000000E-03 0. -1.
         11    1    3    3    0    0 -0.33269468408E+02 -0.23063436994E+02  0.24870207903E+01  0.40558167202E+02  0.51100000000E-03 0.  1.
<mgrwt>
<rscale>  0 0.80976313E+02</rscale>
<asrwt>0</asrwt>
<pdfrwt beam="2">  1        2 0.59623864E-02 0.80976313E+02</pdfrwt>
<pdfrwt beam="1">  1       -2 0.65074251E-02 0.80976313E+02</pdfrwt>
<totfact> 0.13291722E+05</totfact>
</mgrwt>
</event>
<event>
 5    1  0.2809073E+000  0.8757699E+02  0.7818608E-02  0.1308828E+00
          2   -1    0    0  501    0  0.00000000000E+00  0.00000000000E+00  0.25912642021E+03  0.25912642022E+03  0.26000000000E-02 0. -1.
         -2   -1    0    0    0  501 -0.00000000000E+00 -0.00000000000E+00 -0.73996011618E+01  0.73996016186E+01  0.26000000000E-02 0.  1.
         23    2    1    2    0    0  0.00000000000E+00  0.00000000000E+00  0.25172681905E+03  0.26652602184E+03  0.87576988362E+02 0.  0.
        -11    1    3    3    0    0  0.12687831884E+01  0.40414855264E+02  0.74715305744E+02  0.84954971893E+02  0.51100000000E-03 0.  1.
         11    1    3    3    0    0 -0.12687831884E+01 -0.40414855264E+02  0.17701151331E+03  0.18157104995E+03  0.51100000000E-03 0. -1.
<mgrwt>
<rscale>  0 0.87576988E+02</rscale>
<asrwt>0</asrwt>
<pdfrwt beam="1">  1        2 0.39865607E-01 0.87576988E+02</pdfrwt>
<pdfrwt beam="2">  1       -2 0.11384001E-02 0.87576988E+02</pdfrwt>
<totfact> 0.18941183E+05</totfact>
</mgrwt>
</event>
<event>
 5    1  0.2809073E+000  0.9748726E+02  0.7818608E-02  0.1285670E+00
         -2   -1    0    0    0  501 -0.00000000000E+00  0.00000000000E+00  0.48315454301E+02  0.48315454371E+02  0.26000000000E-02 0.  1.
          2   -1    0    0  501    0  0.00000000000E+00 -0.00000000000E+00 -0.49175595154E+02  0.49175595223E+02  0.26000000000E-02 0. -1.
         23    2    1    2    0    0  0.00000000000E+00  0.00000000000E+00 -0.86014085316E+00  0.97491049594E+02  0.97487255109E+02 0.  0.
        -11    1    3    3    0    0  0.31185231513E+02 -0.69496078033E+01  0.36383391875E+02  0.48420728183E+02  0.51100000000E-03 0.  1.
         11    1    3    3    0    0 -0.31185231513E+02  0.69496078033E+01 -0.37243532728E+02  0.49070321412E+02  0.51100000000E-03 0. -1.
<mgrwt>
<rscale>  0 0.97487255E+02</rscale>
<asrwt>0</asrwt>
<pdfrwt beam="2">  1        2 0.75654762E-02 0.97487255E+02</pdfrwt>
<pdfrwt beam="1">  1       -2 0.74331468E-02 0.97487255E+02</pdfrwt>
<totfact> 0.83015129E+04</totfact>
</mgrwt>
</event>
<event>
 5    1  0.2809073E+000  0.9147755E+02  0.7818608E-02  0.1299313E+00
          2   -1    0    0  501    0  0.00000000000E+00  0.00000000000E+00  0.36675096330E+02  0.36675096423E+02  0.26000000000E-02 0. -1.
         -2   -1    0    0    0  501 -0.00000000000E+00 -0.00000000000E+00 -0.57042406519E+02  0.57042406578E+02  0.26000000000E-02 0.  1.
         23    2    1    2    0    0  0.00000000000E+00  0.00000000000E+00 -0.20367310188E+02  0.93717503000E+02  0.91477554866E+02 0.  0.
        -11    1    3    3    0    0 -0.39531443186E+02 -0.11568295910E+02  0.10189854014E+02  0.42431045188E+02  0.51100000000E-03 0. -1.
         11    1    3    3    0    0  0.39531443186E+02  0.11568295910E+02 -0.30557164202E+02  0.51286457813E+02  0.51100000000E-03 0.  1.
<mgrwt>
<rscale>  0 0.91477555E+02</rscale>
<asrwt>0</asrwt>
<pdfrwt beam="1">  1        2 0.56423226E-02 0.91477555E+02</pdfrwt>
<pdfrwt beam="2">  1       -2 0.87757548E-02 0.91477555E+02</pdfrwt>
<totfact> 0.92374152E+04</totfact>
</mgrwt>
</event>
<event>
 5    1  0.2809073E+000  0.8443025E+02  0.7818608E-02  0.1316929E+00
         -2   -1    0    0    0  501 -0.00000000000E+00  0.00000000000E+00  0.89023043464E+01  0.89023047260E+01  0.26000000000E-02 0.  1.
          2   -1    0    0  501    0  0.00000000000E+00 -0.00000000000E+00 -0.20018598392E+03  0.20018598394E+03  0.26000000000E-02 0. -1.
         23    2    1    2    0    0  0.00000000000E+00  0.00000000000E+00 -0.19128367957E+03  0.20908828866E+03  0.84430245675E+02 0.  0.
        -11    1    3    3    0    0 -0.49975576656E+01  0.41856584639E+02 -0.90012402405E+02  0.99394073501E+02  0.51100000000E-03 0. -1.
         11    1    3    3    0    0  0.49975576656E+01 -0.41856584639E+02 -0.10127127717E+03  0.10969421516E+03  0.51100000000E-03 0.  1.
<mgrwt>
<rscale>  0 0.84430246E+02</rscale>
<asrwt>0</asrwt>
<pdfrwt beam="2">  1        2 0.30797840E-01 0.84430246E+02</pdfrwt>
<pdfrwt beam="1">  1       -2 0.13695855E-02 0.84430246E+02</pdfrwt>
<totfact> 0.19010868E+05</totfact>
</mgrwt>
</event>
<event>
 5    1  0.2809073E+000  0.8765088E+02  0.7818608E-02  0.1308642E+00
          2   -1    0    0  501    0  0.00000000000E+00  0.00000000000E+00  0.71943369740E+01  0.71943374438E+01  0.26000000000E-02 0. -1.
         -2   -1    0    0    0  501 -0.00000000000E+00 -0.00000000000E+00 -0.26696958451E+03  0.26696958452E+03  0.26000000000E-02 0.  1.
         23    2    1    2    0    0  0.00000000000E+00  0.00000000000E+00 -0.25977524753E+03  0.27416392196E+03  0.87650880632E+02 0.  0.
        -11    1    3    3    0    0 -0.35744417490E+02  0.23712972299E+02 -0.10178849264E+03  0.11045752881E+03  0.51100000000E-03 0.  1.
         11    1    3    3    0    0  0.35744417490E+02 -0.23712972299E+02 -0.15798675489E+03  0.16370639315E+03  0.51100000000E-03 0. -1.
<mgrwt>
<rscale>  0 0.87650881E+02</rscale>
<asrwt>0</asrwt>
<pdfrwt beam="1">  1        2 0.11068213E-02 0.87650881E+02</pdfrwt>
<pdfrwt beam="2">  1       -2 0.41072236E-01 0.87650881E+02</pdfrwt>
<totfact> 0.60112116E+04</totfact>
</mgrwt>
</event>
<event>
 4    1  0.2809073E+000  0.4632747E+02  0.7818608E-02  0.1466221E+00
         -2   -1    0    0    0  501 -0.00000000000E+00  0.00000000000E+00  0.41161990499E+02  0.41161990581E+02  0.26000000000E-02 0. -1.
          2   -1    0    0  501    0  0.00000000000E+00 -0.00000000000E+00 -0.13035295739E+02  0.13035295998E+02  0.26000000000E-02 0.  1.
        -11    1    1    2    0    0 -0.22295577386E+02 -0.36681224943E+01  0.80968966184E+01  0.24002242161E+02  0.51100000000E-03 0.  1.
         11    1    1    2    0    0  0.22295577386E+02  0.36681224943E+01  0.20029798141E+02  0.30195044419E+02  0.51100000000E-03 0. -1.
<mgrwt>
<rscale>  0 0.46327475E+02</rscale>
<asrwt>0</asrwt>
<pdfrwt beam="2">  1        2 0.20054302E-02 0.46327475E+02</pdfrwt>
<pdfrwt beam="1">  1       -2 0.63326138E-02 0.46327475E+02</pdfrwt>
<totfact> 0.50519902E+05</totfact>
</mgrwt>
</event>
<event>
 5    1  0.2809073E+000  0.8664948E+02  0.7818608E-02  0.1311174E+00
          2   -1    0    0  501    0  0.00000000000E+00  0.00000000000E+00  0.37539683372E+01  0.37539692376E+01  0.26000000000E-02 0. -1.
         -2   -1    0    0    0  501 -0.00000000000E+00 -0.00000000000E+00 -0.50001295607E+03  0.50001295607E+03  0.26000000000E-02 0.  1.
         23    2    1    2    0    0  0.00000000000E+00  0.00000000000E+00 -0.49625898773E+03  0.50376692531E+03  0.86649478562E+02 0.  0.
        -11    1    3    3    0    0 -0.29633959006E+02  0.31601627871E+02 -0.25072055994E+03  0.25443591253E+03  0.51100000000E-03 0. -1.
         11    1    3    3    0    0  0.29633959006E+02 -0.31601627871E+02 -0.24553842779E+03  0.24933101278E+03  0.51100000000E-03 0.  1.
<mgrwt>
<rscale>  0 0.86649479E+02</rscale>
<asrwt>0</asrwt>
<pdfrwt beam="1">  1        2 0.57753405E-03 0.86649479E+02</pdfrwt>
<pdfrwt beam="2">  1       -2 0.76925018E-01 0.86649479E+02</pdfrwt>
<totfact> 0.41411719E+04</totfact>
</mgrwt>
</event>
<event>
 5    1  0.2809073E+000  0.1132463E+03  0.7818608E-02  0.1254674E+00
          2   -1    0    0  501    0  0.00000000000E+00  0.00000000000E+00  0.21178323426E+03  0.21178323427E+03  0.26000000000E-02 0.  1.
         -2   -1    0    0    0  501 -0.00000000000E+00 -0.00000000000E+00 -0.15138966706E+02  0.15138966929E+02  0.26000000000E-02 0. -1.
         23    2    1    2    0    0  0.00000000000E+00  0.00000000000E+00  0.19664426755E+03  0.22692220120E+03  0.11324626898E+03 0.  0.
        -11    1    3    3    0    0  0.41645657533E+02  0.31746915290E+02  0.14148294327E+03  0.15086301952E+03  0.51100000000E-03 0. -1.
         11    1    3    3    0    0 -0.41645657533E+02 -0.31746915290E+02  0.55161324283E+02  0.76059181685E+02  0.51100000000E-03 0.  1.
<mgrwt>
<rscale>  0 0.11324627E+03</rscale>
<asrwt>0</asrwt>
<pdfrwt beam="1">  1        2 0.32582031E-01 0.11324627E+03</pdfrwt>
<pdfrwt beam="2">  1       -2 0.23290722E-02 0.11324627E+03</pdfrwt>
<totfact> 0.87478573E+04</totfact>
</mgrwt>
</event>
<event>
 5    1  0.2809073E+000  0.9034097E+02  0.7818608E-02  0.1302028E+00
         -2   -1    0    0    0  501 -0.00000000000E+00  0.00000000000E+00  0.10431103008E+02  0.10431103332E+02  0.26000000000E-02 0.  1.
          2   -1    0    0  501    0  0.00000000000E+00 -0.00000000000E+00 -0.19560467199E+03  0.19560467201E+03  0.26000000000E-02 0. -1.
         23    2    1    2    0    0  0.00000000000E+00  0.00000000000E+00 -0.18517356898E+03  0.20603577534E+03  0.90340965627E+02 0.  0.
        -11    1    3    3    0    0  0.36361962874E+02  0.34034322854E+01 -0.15321066723E+03  0.15750328330E+03  0.51100000000E-03 0. -1.
         11    1    3    3    0    0 -0.36361962874E+02 -0.34034322854E+01 -0.31962901750E+02  0.48532492043E+02  0.51100000000E-03 0.  1.
<mgrwt>
<rscale>  0 0.90340966E+02</rscale>
<asrwt>0</asrwt>
<pdfrwt beam="2">  1        2 0.30093024E-01 0.90340966E+02</pdfrwt>
<pdfrwt beam="1">  1       -2 0.16047852E-02 0.90340966E+02</pdfrwt>
<totfact> 0.15729415E+05</totfact>
</mgrwt>
</event>
<event>
 5    1  0.2809073E+000  0.8796032E+02  0.7818608E-02  0.1307868E+00
          2   -1    0    0  501    0  0.00000000000E+00  0.00000000000E+00  0.11872950054E+03  0.11872950057E+03  0.26000000000E-02 0. -1.
         -2   -1    0    0    0  501 -0.00000000000E+00 -0.00000000000E+00 -0.16291272466E+02  0.16291272674E+02  0.26000000000E-02 0.  1.
         23    2    1    2    0    0  0.00000000000E+00  0.00000000000E+00  0.10243822807E+03  0.13502077324E+03  0.87960324215E+02 0.  0.
        -11    1    3    3    0    0  0.36096419546E+02 -0.55704200181E+01  0.88827819282E+02  0.96043545134E+02  0.51100000000E-03 0. -1.
         11    1    3    3    0    0 -0.36096419546E+02  0.55704200181E+01  0.13610408791E+02  0.38977228107E+02  0.51100000000E-03 0.  1.
<mgrwt>
<rscale>  0 0.87960324E+02</rscale>
<asrwt>0</asrwt>
<pdfrwt beam="1">  1        2 0.18266077E-01 0.87960324E+02</pdfrwt>
<pdfrwt beam="2">  1       -2 0.25063496E-02 0.87960324E+02</pdfrwt>
<totfact> 0.14273562E+05</totfact>
</mgrwt>
</event>
<event>
 5    1  0.2809073E+000  0.9150455E+02  0.7818608E-02  0.1299249E+00
          2   -1    0    0  501    0  0.00000000000E+00  0.00000000000E+00  0.82304881674E+02  0.82304881715E+02  0.26000000000E-02 0.  1.
         -2   -1    0    0    0  501 -0.00000000000E+00 -0.00000000000E+00 -0.25433129489E+02  0.25433129621E+02  0.26000000000E-02 0. -1.
         23    2    1    2    0    0  0.00000000000E+00  0.00000000000E+00  0.56871752185E+02  0.10773801134E+03  0.91504551199E+02 0.  0.
        -11    1    3    3    0    0  0.41756104139E+02 -0.55658279297E+01  0.74159612954E+01  0.42773206048E+02  0.51100000000E-03 0. -1.
         11    1    3    3    0    0 -0.41756104139E+02  0.55658279297E+01  0.49455790890E+02  0.64964805289E+02  0.51100000000E-03 0.  1.
<mgrwt>
<rscale>  0 0.91504551E+02</rscale>
<asrwt>0</asrwt>
<pdfrwt beam="1">  1        2 0.12662290E-01 0.91504551E+02</pdfrwt>
<pdfrwt beam="2">  1       -2 0.39127891E-02 0.91504551E+02</pdfrwt>
<totfact> 0.11464733E+05</totfact>
</mgrwt>
</event>
<event>
 5    1  0.2809073E+000  0.9142797E+02  0.7818608E-02  0.1299430E+00
          2   -1    0    0  501    0  0.00000000000E+00  0.00000000000E+00  0.36762879278E+03  0.36762879279E+03  0.26000000000E-02 0.  1.
         -2   -1    0    0    0  501 -0.00000000000E+00 -0.00000000000E+00 -0.56844519162E+01  0.56844525108E+01  0.26000000000E-02 0. -1.
         23    2    1    2    0    0  0.00000000000E+00  0.00000000000E+00  0.36194434087E+03  0.37331324530E+03  0.91427967456E+02 0.  0.
        -11    1    3    3    0    0 -0.18060093089E+01  0.43814449273E+02  0.12823786457E+03  0.13552829057E+03  0.51100000000E-03 0.  1.
         11    1    3    3    0    0  0.18060093089E+01 -0.43814449273E+02  0.23370647630E+03  0.23778495473E+03  0.51100000000E-03 0. -1.
<mgrwt>
<rscale>  0 0.91427967E+02</rscale>
<asrwt>0</asrwt>
<pdfrwt beam="1">  1        2 0.56558295E-01 0.91427967E+02</pdfrwt>
<pdfrwt beam="2">  1       -2 0.87453082E-03 0.91427967E+02</pdfrwt>
<totfact> 0.19222168E+05</totfact>
</mgrwt>
</event>
<event>
 5    1  0.2809073E+000  0.9585969E+02  0.7818608E-02  0.1289252E+00
         -2   -1    0    0    0  501 -0.00000000000E+00  0.00000000000E+00  0.28029952534E+02  0.28029952654E+02  0.26000000000E-02 0.  1.
          2   -1    0    0  501    0  0.00000000000E+00 -0.00000000000E+00 -0.81957681669E+02  0.81957681710E+02  0.26000000000E-02 0. -1.
         23    2    1    2    0    0  0.00000000000E+00  0.00000000000E+00 -0.53927729135E+02  0.10998763436E+03  0.95859687791E+02 0.  0.
        -11    1    3    3    0    0 -0.25846287709E+01 -0.14088589484E+02  0.25516785177E+02  0.29262176706E+02  0.51100000000E-03 0.  1.
         11    1    3    3    0    0  0.25846287709E+01  0.14088589484E+02 -0.79444514312E+02  0.80725457658E+02  0.51100000000E-03 0. -1.
<mgrwt>
<rscale>  0 0.95859688E+02</rscale>
<asrwt>0</asrwt>
<pdfrwt beam="2">  1        2 0.12608874E-01 0.95859688E+02</pdfrwt>
<pdfrwt beam="1">  1       -2 0.43123004E-02 0.95859688E+02</pdfrwt>
<totfact> 0.10057398E+05</totfact>
</mgrwt>
</event>
<event>
 5    1  0.2809073E+000  0.9186627E+02  0.7818608E-02  0.1298394E+00
         -2   -1    0    0    0  501 -0.00000000000E+00  0.00000000000E+00  0.30499259619E+02  0.30499259730E+02  0.26000000000E-02 0.  1.
          2   -1    0    0  501    0  0.00000000000E+00 -0.00000000000E+00 -0.69177190777E+02  0.69177190825E+02  0.26000000000E-02 0. -1.
         23    2    1    2    0    0  0.00000000000E+00  0.00000000000E+00 -0.38677931157E+02  0.99676450555E+02  0.91866274751E+02 0.  0.
        -11    1    3    3    0    0  0.22857511136E+02 -0.17024604487E+02  0.19744991931E+02  0.34672289799E+02  0.51100000000E-03 0.  1.
         11    1    3    3    0    0 -0.22857511136E+02  0.17024604487E+02 -0.58422923088E+02  0.65004160757E+02  0.51100000000E-03 0. -1.
<mgrwt>
<rscale>  0 0.91866275E+02</rscale>
<asrwt>0</asrwt>
<pdfrwt beam="2">  1        2 0.10642645E-01 0.91866275E+02</pdfrwt>
<pdfrwt beam="1">  1       -2 0.46921938E-02 0.91866275E+02</pdfrwt>
<totfact> 0.10795384E+05</totfact>
</mgrwt>
</event>
<event>
 5    1  0.2809073E+000  0.9721529E+02  0.7818608E-02  0.1286263E+00
          2   -1    0    0  501    0  0.00000000000E+00  0.00000000000E+00  0.20156617087E+03  0.20156617088E+03  0.26000000000E-02 0. -1.
         -2   -1    0    0    0  501 -0.00000000000E+00 -0.00000000000E+00 -0.11721723651E+02  0.11721723940E+02  0.26000000000E-02 0.  1.
         23    2    1    2    0    0  0.00000000000E+00  0.00000000000E+00  0.18984444721E+03  0.21328789482E+03  0.97215286552E+02 0.  0.
        -11    1    3    3    0    0  0.14379181562E+02  0.44600759569E+02  0.12325037028E+03  0.13185841797E+03  0.51100000000E-03 0. -1.
         11    1    3    3    0    0 -0.14379181562E+02 -0.44600759569E+02  0.66594076936E+02  0.81429476848E+02  0.51100000000E-03 0.  1.
<mgrwt>
<rscale>  0 0.97215287E+02</rscale>
<asrwt>0</asrwt>
<pdfrwt beam="1">  1        2 0.31010175E-01 0.97215287E+02</pdfrwt>
<pdfrwt beam="2">  1       -2 0.18033424E-02 0.97215287E+02</pdfrwt>
<totfact> 0.13042303E+05</totfact>
</mgrwt>
</event>
<event>
 5    1  0.2809073E+000  0.9112054E+02  0.7818608E-02  0.1300161E+00
         -2   -1    0    0    0  501 -0.00000000000E+00  0.00000000000E+00  0.31199348790E+02  0.31199348898E+02  0.26000000000E-02 0.  1.
          2   -1    0    0  501    0  0.00000000000E+00 -0.00000000000E+00 -0.66531452177E+02  0.66531452228E+02  0.26000000000E-02 0. -1.
         23    2    1    2    0    0  0.00000000000E+00  0.00000000000E+00 -0.35332103387E+02  0.97730801126E+02  0.91120535331E+02 0.  0.
        -11    1    3    3    0    0  0.15666253324E+02  0.41423871814E+02 -0.61958777476E+01  0.44718648801E+02  0.51100000000E-03 0.  1.
         11    1    3    3    0    0 -0.15666253324E+02 -0.41423871814E+02 -0.29136225640E+02  0.53012152325E+02  0.51100000000E-03 0. -1.
<mgrwt>
<rscale>  0 0.91120535E+02</rscale>
<asrwt>0</asrwt>
<pdfrwt beam="2">  1        2 0.10235608E-01 0.91120535E+02</pdfrwt>
<pdfrwt beam="1">  1       -2 0.47998999E-02 0.91120535E+02</pdfrwt>
<totfact> 0.10927110E+05</totfact>
</mgrwt>
</event>
<event>
 5    1  0.2809073E+000  0.9166370E+02  0.7818608E-02  0.1298872E+00
          2   -1    0    0  501    0  0.00000000000E+00  0.00000000000E+00  0.24264807955E+03  0.24264807957E+03  0.26000000000E-02 0.  1.
         -2   -1    0    0    0  501 -0.00000000000E+00 -0.00000000000E+00 -0.86568097127E+01  0.86568101032E+01  0.26000000000E-02 0. -1.
         23    2    1    2    0    0  0.00000000000E+00  0.00000000000E+00  0.23399126984E+03  0.25130488967E+03  0.91663696252E+02 0.  0.
        -11    1    3    3    0    0 -0.20868956313E+02  0.33187487654E+02  0.51907355429E+02  0.65048414448E+02  0.51100000000E-03 0. -1.
         11    1    3    3    0    0  0.20868956313E+02 -0.33187487654E+02  0.18208391441E+03  0.18625647522E+03  0.51100000000E-03 0.  1.
<mgrwt>
<rscale>  0 0.91663696E+02</rscale>
<asrwt>0</asrwt>
<pdfrwt beam="1">  1        2 0.37330464E-01 0.91663696E+02</pdfrwt>
<pdfrwt beam="2">  1       -2 0.13318173E-02 0.91663696E+02</pdfrwt>
<totfact> 0.16366325E+05</totfact>
</mgrwt>
</event>
<event>
 5    1  0.2809073E+000  0.1106794E+03  0.7818608E-02  0.1259317E+00
         -2   -1    0    0    0  501 -0.00000000000E+00  0.00000000000E+00  0.34237913992E+02  0.34237914091E+02  0.26000000000E-02 0.  1.
          2   -1    0    0  501    0  0.00000000000E+00 -0.00000000000E+00 -0.89447186409E+02  0.89447186447E+02  0.26000000000E-02 0. -1.
         23    2    1    2    0    0  0.00000000000E+00  0.00000000000E+00 -0.55209272417E+02  0.12368510054E+03  0.11067944856E+03 0.  0.
        -11    1    3    3    0    0  0.31431627190E+02 -0.38076184273E+01  0.23116411949E+02  0.39202214830E+02  0.51100000000E-03 0.  1.
         11    1    3    3    0    0 -0.31431627190E+02  0.38076184273E+01 -0.78325684366E+02  0.84482885708E+02  0.51100000000E-03 0. -1.
<mgrwt>
<rscale>  0 0.11067945E+03</rscale>
<asrwt>0</asrwt>
<pdfrwt beam="2">  1        2 0.13761106E-01 0.11067945E+03</pdfrwt>
<pdfrwt beam="1">  1       -2 0.52673714E-02 0.11067945E+03</pdfrwt>
<totfact> 0.68812767E+04</totfact>
</mgrwt>
</event>
<event>
 5    1  0.2809073E+000  0.9178103E+02  0.7818608E-02  0.1298595E+00
          2   -1    0    0  501    0  0.00000000000E+00  0.00000000000E+00  0.15408513714E+02  0.15408513934E+02  0.26000000000E-02 0. -1.
         -2   -1    0    0    0  501 -0.00000000000E+00 -0.00000000000E+00 -0.13667375055E+03  0.13667375057E+03  0.26000000000E-02 0.  1.
         23    2    1    2    0    0  0.00000000000E+00  0.00000000000E+00 -0.12126523683E+03  0.15208226451E+03  0.91781030246E+02 0.  0.
        -11    1    3    3    0    0  0.28729009575E+01 -0.25876837997E+02 -0.12325090236E+03  0.12597082693E+03  0.51100000000E-03 0.  1.
         11    1    3    3    0    0 -0.28729009575E+01  0.25876837997E+02  0.19856655235E+01  0.26111437579E+02  0.51100000000E-03 0. -1.
<mgrwt>
<rscale>  0 0.91781030E+02</rscale>
<asrwt>0</asrwt>
<pdfrwt beam="1">  1        2 0.23705407E-02 0.91781030E+02</pdfrwt>
<pdfrwt beam="2">  1       -2 0.21026730E-01 0.91781030E+02</pdfrwt>
<totfact> 0.71007745E+04</totfact>
</mgrwt>
</event>
<event>
 5    1  0.2809073E+000  0.9115102E+02  0.7818608E-02  0.1300088E+00
         -2   -1    0    0    0  501 -0.00000000000E+00  0.00000000000E+00  0.52304606413E+01  0.52304612875E+01  0.26000000000E-02 0.  1.
          2   -1    0    0  501    0  0.00000000000E+00 -0.00000000000E+00 -0.39712126741E+03  0.39712126742E+03  0.26000000000E-02 0. -1.
         23    2    1    2    0    0  0.00000000000E+00  0.00000000000E+00 -0.39189080677E+03  0.40235172870E+03  0.91151023926E+02 0.  0.
        -11    1    3    3    0    0  0.43710987748E+02  0.12745824958E+02 -0.18709425064E+03  0.19255483668E+03  0.51100000000E-03 0.  1.
         11    1    3    3    0    0 -0.43710987748E+02 -0.12745824958E+02 -0.20479655612E+03  0.20979689203E+03  0.51100000000E-03 0. -1.
<mgrwt>
<rscale>  0 0.91151024E+02</rscale>
<asrwt>0</asrwt>
<pdfrwt beam="2">  1        2 0.61095556E-01 0.91151024E+02</pdfrwt>
<pdfrwt beam="1">  1       -2 0.80468661E-03 0.91151024E+02</pdfrwt>
<totfact> 0.19925943E+05</totfact>
</mgrwt>
</event>
<event>
 5    1  0.2809073E+000  0.9043737E+02  0.7818608E-02  0.1301796E+00
         -2   -1    0    0    0  501 -0.00000000000E+00  0.00000000000E+00  0.59338984209E+02  0.59338984266E+02  0.26000000000E-02 0. -1.
          2   -1    0    0  501    0  0.00000000000E+00 -0.00000000000E+00 -0.34458453640E+02  0.34458453738E+02  0.26000000000E-02 0.  1.
         23    2    1    2    0    0  0.00000000000E+00  0.00000000000E+00  0.24880530570E+02  0.93797438004E+02  0.90437373771E+02 0.  0.
        -11    1    3    3    0    0  0.68309186920E+01 -0.12338437219E+02  0.56999633080E+02  0.58718452421E+02  0.51100000000E-03 0. -1.
         11    1    3    3    0    0 -0.68309186920E+01  0.12338437219E+02 -0.32119102510E+02  0.35078985583E+02  0.51100000000E-03 0.  1.
<mgrwt>
<rscale>  0 0.90437374E+02</rscale>
<asrwt>0</asrwt>
<pdfrwt beam="2">  1        2 0.53013006E-02 0.90437374E+02</pdfrwt>
<pdfrwt beam="1">  1       -2 0.91290745E-02 0.90437374E+02</pdfrwt>
<totfact> 0.93976651E+04</totfact>
</mgrwt>
</event>
<event>
 5    1  0.2809073E+000  0.9013014E+02  0.7818608E-02  0.1302537E+00
         -2   -1    0    0    0  501 -0.00000000000E+00  0.00000000000E+00  0.10274300209E+02  0.10274300538E+02  0.26000000000E-02 0.  1.
          2   -1    0    0  501    0  0.00000000000E+00 -0.00000000000E+00 -0.19766413999E+03  0.19766414000E+03  0.26000000000E-02 0. -1.
         23    2    1    2    0    0  0.00000000000E+00  0.00000000000E+00 -0.18738983978E+03  0.20793844054E+03  0.90130144809E+02 0.  0.
        -11    1    3    3    0    0  0.37691549036E+02  0.85463749383E+01 -0.14716606939E+03  0.15215631888E+03  0.51100000000E-03 0. -1.
         11    1    3    3    0    0 -0.37691549036E+02 -0.85463749383E+01 -0.40223770384E+02  0.55782121665E+02  0.51100000000E-03 0.  1.
<mgrwt>
<rscale>  0 0.90130145E+02</rscale>
<asrwt>0</asrwt>
<pdfrwt beam="2">  1        2 0.30409865E-01 0.90130145E+02</pdfrwt>
<pdfrwt beam="1">  1       -2 0.15806617E-02 0.90130145E+02</pdfrwt>
<totfact> 0.15888298E+05</totfact>
</mgrwt>
</event>
<event>
 5    1  0.2809073E+000  0.8937699E+02  0.7818608E-02  0.1304367E+00
          2   -1    0    0  501    0  0.00000000000E+00  0.00000000000E+00  0.61856626384E+02  0.61856626439E+02  0.26000000000E-02 0. -1.
         -2   -1    0    0    0  501 -0.00000000000E+00 -0.00000000000E+00 -0.32285331940E+02  0.32285332045E+02  0.26000000000E-02 0.  1.
         23    2    1    2    0    0  0.00000000000E+00  0.00000000000E+00  0.29571294444E+02  0.94141958484E+02  0.89376993081E+02 0.  0.
        -11    1    3    3    0    0  0.10628879632E+02  0.25372529352E+02  0.51881465641E+02  0.58723290143E+02  0.51100000000E-03 0. -1.
         11    1    3    3    0    0 -0.10628879632E+02 -0.25372529352E+02 -0.22310171197E+02  0.35418668341E+02  0.51100000000E-03 0.  1.
<mgrwt>
<rscale>  0 0.89376993E+02</rscale>
<asrwt>0</asrwt>
<pdfrwt beam="1">  1        2 0.95164041E-02 0.89376993E+02</pdfrwt>
<pdfrwt beam="2">  1       -2 0.49669741E-02 0.89376993E+02</pdfrwt>
<totfact> 0.11310210E+05</totfact>
</mgrwt>
</event>
<event>
 5    1  0.2809073E+000  0.1085451E+03  0.7818608E-02  0.1263288E+00
         -2   -1    0    0    0  501 -0.00000000000E+00  0.00000000000E+00  0.10746716518E+03  0.10746716521E+03  0.26000000000E-02 0. -1.
          2   -1    0    0  501    0  0.00000000000E+00 -0.00000000000E+00 -0.27408444988E+02  0.27408445112E+02  0.26000000000E-02 0.  1.
         23    2    1    2    0    0  0.00000000000E+00  0.00000000000E+00  0.80058720189E+02  0.13487561032E+03  0.10854506705E+03 0.  0.
        -11    1    3    3    0    0  0.35442209097E+02  0.23415444375E+02 -0.19446405488E+01  0.42523109577E+02  0.51100000000E-03 0.  1.
         11    1    3    3    0    0 -0.35442209097E+02 -0.23415444375E+02  0.82003360738E+02  0.92352500743E+02  0.51100000000E-03 0. -1.
<mgrwt>
<rscale>  0 0.10854507E+03</rscale>
<asrwt>0</asrwt>
<pdfrwt beam="2">  1        2 0.42166838E-02 0.10854507E+03</pdfrwt>
<pdfrwt beam="1">  1       -2 0.16533410E-01 0.10854507E+03</pdfrwt>
<totfact> 0.50563870E+04</totfact>
</mgrwt>
</event>
<event>
 5    1  0.2809073E+000  0.9122608E+02  0.7818608E-02  0.1299909E+00
          2   -1    0    0  501    0  0.00000000000E+00  0.00000000000E+00  0.19948371532E+02  0.19948371701E+02  0.26000000000E-02 0. -1.
         -2   -1    0    0    0  501 -0.00000000000E+00 -0.00000000000E+00 -0.10429670259E+03  0.10429670262E+03  0.26000000000E-02 0.  1.
         23    2    1    2    0    0  0.00000000000E+00  0.00000000000E+00 -0.84348331056E+02  0.12424507432E+03  0.91226079282E+02 0.  0.
        -11    1    3    3    0    0 -0.38174996772E+02  0.52882354752E+01 -0.89456319883E+01  0.39564126995E+02  0.51100000000E-03 0. -1.
         11    1    3    3    0    0  0.38174996772E+02 -0.52882354752E+01 -0.75402699068E+02  0.84680947326E+02  0.51100000000E-03 0.  1.
<mgrwt>
<rscale>  0 0.91226079E+02</rscale>
<asrwt>0</asrwt>
<pdfrwt beam="1">  1        2 0.30689803E-02 0.91226079E+02</pdfrwt>
<pdfrwt beam="2">  1       -2 0.16045646E-01 0.91226079E+02</pdfrwt>
<totfact> 0.78696217E+04</totfact>
</mgrwt>
</event>
<event>
 5    1  0.2809073E+000  0.9217716E+02  0.7818608E-02  0.1297663E+00
         -2   -1    0    0    0  501 -0.00000000000E+00  0.00000000000E+00  0.68029816343E+01  0.68029821311E+01  0.26000000000E-02 0.  1.
          2   -1    0    0  501    0  0.00000000000E+00 -0.00000000000E+00 -0.31223910473E+03  0.31223910474E+03  0.26000000000E-02 0. -1.
         23    2    1    2    0    0  0.00000000000E+00  0.00000000000E+00 -0.30543612310E+03  0.31904208688E+03  0.92177155001E+02 0.  0.
        -11    1    3    3    0    0  0.26804479724E+02  0.34240858714E+02 -0.99858129457E+02  0.10891539174E+03  0.51100000000E-03 0.  1.
         11    1    3    3    0    0 -0.26804479724E+02 -0.34240858714E+02 -0.20557799364E+03  0.21012669514E+03  0.51100000000E-03 0. -1.
<mgrwt>
<rscale>  0 0.92177155E+02</rscale>
<asrwt>0</asrwt>
<pdfrwt beam="2">  1        2 0.48036774E-01 0.92177155E+02</pdfrwt>
<pdfrwt beam="1">  1       -2 0.10466128E-02 0.92177155E+02</pdfrwt>
<totfact> 0.17711692E+05</totfact>
</mgrwt>
</event>
<event>
 5    1  0.2809073E+000  0.9125923E+02  0.7818608E-02  0.1299831E+00
         -2   -1    0    0    0  501 -0.00000000000E+00  0.00000000000E+00  0.20003156942E+02  0.20003157111E+02  0.26000000000E-02 0.  1.
          2   -1    0    0  501    0  0.00000000000E+00 -0.00000000000E+00 -0.10408665177E+03  0.10408665180E+03  0.26000000000E-02 0. -1.
         23    2    1    2    0    0  0.00000000000E+00  0.00000000000E+00 -0.84083494825E+02  0.12408980891E+03  0.91259227332E+02 0.  0.
        -11    1    3    3    0    0 -0.12376328703E+02  0.24596804996E+02  0.74331053924E+01  0.28520648383E+02  0.51100000000E-03 0.  1.
         11    1    3    3    0    0  0.12376328703E+02 -0.24596804996E+02 -0.91516600217E+02  0.95569160527E+02  0.51100000000E-03 0. -1.
<mgrwt>
<rscale>  0 0.91259227E+02</rscale>
<asrwt>0</asrwt>
<pdfrwt beam="2">  1        2 0.16013331E-01 0.91259227E+02</pdfrwt>
<pdfrwt beam="1">  1       -2 0.30774088E-02 0.91259227E+02</pdfrwt>
<totfact> 0.12388186E+05</totfact>
</mgrwt>
</event>
<event>
 5    1  0.2809073E+000  0.9231497E+02  0.7818608E-02  0.1297341E+00
         -2   -1    0    0    0  501 -0.00000000000E+00  0.00000000000E+00  0.81384162995E+02  0.81384163037E+02  0.26000000000E-02 0.  1.
          2   -1    0    0  501    0  0.00000000000E+00 -0.00000000000E+00 -0.26178477892E+02  0.26178478022E+02  0.26000000000E-02 0. -1.
         23    2    1    2    0    0  0.00000000000E+00  0.00000000000E+00  0.55205685103E+02  0.10756264106E+03  0.92314972154E+02 0.  0.
        -11    1    3    3    0    0  0.38173067302E+02  0.25026246911E+02  0.35592326097E+02  0.57881860535E+02  0.51100000000E-03 0.  1.
         11    1    3    3    0    0 -0.38173067302E+02 -0.25026246911E+02  0.19613359005E+02  0.49680780523E+02  0.51100000000E-03 0. -1.
<mgrwt>
<rscale>  0 0.92314972E+02</rscale>
<asrwt>0</asrwt>
<pdfrwt beam="2">  1        2 0.40274582E-02 0.92314972E+02</pdfrwt>
<pdfrwt beam="1">  1       -2 0.12520640E-01 0.92314972E+02</pdfrwt>
<totfact> 0.82129061E+04</totfact>
</mgrwt>
</event>
<event>
 5    1  0.2809073E+000  0.9006906E+02  0.7818608E-02  0.1302685E+00
          2   -1    0    0  501    0  0.00000000000E+00  0.00000000000E+00  0.23289877933E+02  0.23289878078E+02  0.26000000000E-02 0. -1.
         -2   -1    0    0    0  501 -0.00000000000E+00 -0.00000000000E+00 -0.87081136184E+02  0.87081136223E+02  0.26000000000E-02 0.  1.
         23    2    1    2    0    0  0.00000000000E+00  0.00000000000E+00 -0.63791258251E+02  0.11037101430E+03  0.90069063326E+02 0.  0.
        -11    1    3    3    0    0  0.31129733627E+02  0.28129619247E+02 -0.51947873097E+02  0.66775124966E+02  0.51100000000E-03 0.  1.
         11    1    3    3    0    0 -0.31129733627E+02 -0.28129619247E+02 -0.11843385155E+02  0.43595889335E+02  0.51100000000E-03 0. -1.
<mgrwt>
<rscale>  0 0.90069063E+02</rscale>
<asrwt>0</asrwt>
<pdfrwt beam="1">  1        2 0.35830582E-02 0.90069063E+02</pdfrwt>
<pdfrwt beam="2">  1       -2 0.13397098E-01 0.90069063E+02</pdfrwt>
<totfact> 0.85627456E+04</totfact>
</mgrwt>
</event>
<event>
 5    1  0.2809073E+000  0.9201903E+02  0.7818608E-02  0.1298035E+00
         -2   -1    0    0    0  501 -0.00000000000E+00  0.00000000000E+00  0.13604650807E+03  0.13604650809E+03  0.26000000000E-02 0. -1.
          2   -1    0    0  501    0  0.00000000000E+00 -0.00000000000E+00 -0.15559939543E+02  0.15559939760E+02  0.26000000000E-02 0.  1.
         23    2    1    2    0    0  0.00000000000E+00  0.00000000000E+00  0.12048656852E+03  0.15160644785E+03  0.92019029747E+02 0.  0.
        -11    1    3    3    0    0  0.13288716495E+02 -0.26035898204E+02  0.17047934304E+01  0.29280783840E+02  0.51100000000E-03 0.  1.
         11    1    3    3    0    0 -0.13288716495E+02  0.26035898204E+02  0.11878177509E+03  0.12232566401E+03  0.51100000000E-03 0. -1.
<mgrwt>
<rscale>  0 0.92019030E+02</rscale>
<asrwt>0</asrwt>
<pdfrwt beam="2">  1        2 0.23938368E-02 0.92019030E+02</pdfrwt>
<pdfrwt beam="1">  1       -2 0.20930233E-01 0.92019030E+02</pdfrwt>
<totfact> 0.70657421E+04</totfact>
</mgrwt>
</event>
<event>
 5    1  0.2809073E+000  0.9148980E+02  0.7818608E-02  0.1299284E+00
         -2   -1    0    0    0  501 -0.00000000000E+00  0.00000000000E+00  0.44882738379E+02  0.44882738455E+02  0.26000000000E-02 0.  1.
          2   -1    0    0  501    0  0.00000000000E+00 -0.00000000000E+00 -0.46623625619E+02  0.46623625692E+02  0.26000000000E-02 0. -1.
         23    2    1    2    0    0  0.00000000000E+00  0.00000000000E+00 -0.17408872400E+01  0.91506364147E+02  0.91489802661E+02 0.  0.
        -11    1    3    3    0    0  0.43099985387E+02  0.54371566666E+01  0.13464791402E+02  0.45480457570E+02  0.51100000000E-03 0.  1.
         11    1    3    3    0    0 -0.43099985387E+02 -0.54371566666E+01 -0.15205678642E+02  0.46025906577E+02  0.51100000000E-03 0. -1.
<mgrwt>
<rscale>  0 0.91489803E+02</rscale>
<asrwt>0</asrwt>
<pdfrwt beam="2">  1        2 0.71728655E-02 0.91489803E+02</pdfrwt>
<pdfrwt beam="1">  1       -2 0.69050367E-02 0.91489803E+02</pdfrwt>
<totfact> 0.98280754E+04</totfact>
</mgrwt>
</event>
<event>
 4    1  0.2809073E+000  0.1515633E+03  0.7818608E-02  0.1198565E+00
          2   -1    0    0  501    0  0.00000000000E+00  0.00000000000E+00  0.26783348269E+03  0.26783348270E+03  0.26000000000E-02 0. -1.
         -2   -1    0    0    0  501 -0.00000000000E+00 -0.00000000000E+00 -0.21441902805E+02  0.21441902963E+02  0.26000000000E-02 0.  1.
        -11    1    1    2    0    0  0.48486851456E+01 -0.75236122466E+02  0.13784065152E+03  0.15711151798E+03  0.51100000000E-03 0.  1.
         11    1    1    2    0    0 -0.48486851456E+01  0.75236122466E+02  0.10855092836E+03  0.13216386768E+03  0.51100000000E-03 0. -1.
<mgrwt>
<rscale>  0 0.15156331E+03</rscale>
<asrwt>0</asrwt>
<pdfrwt beam="1">  1        2 0.41205151E-01 0.15156331E+03</pdfrwt>
<pdfrwt beam="2">  1       -2 0.32987543E-02 0.15156331E+03</pdfrwt>
<totfact> 0.42393346E+04</totfact>
</mgrwt>
</event>
<event>
 5    1  0.2809073E+000  0.9223698E+02  0.7818608E-02  0.1297523E+00
          2   -1    0    0  501    0  0.00000000000E+00  0.00000000000E+00  0.10684707204E+03  0.10684707207E+03  0.26000000000E-02 0. -1.
         -2   -1    0    0    0  501 -0.00000000000E+00 -0.00000000000E+00 -0.19906159974E+02  0.19906160144E+02  0.26000000000E-02 0.  1.
         23    2    1    2    0    0  0.00000000000E+00  0.00000000000E+00  0.86940912061E+02  0.12675323221E+03  0.92236975698E+02 0.  0.
        -11    1    3    3    0    0 -0.66950427325E+01  0.39339082895E+02  0.75242062119E+02  0.85168978815E+02  0.51100000000E-03 0. -1.
         11    1    3    3    0    0  0.66950427325E+01 -0.39339082895E+02  0.11698849942E+02  0.41584253396E+02  0.51100000000E-03 0.  1.
<mgrwt>
<rscale>  0 0.92236976E+02</rscale>
<asrwt>0</asrwt>
<pdfrwt beam="1">  1        2 0.16438011E-01 0.92236976E+02</pdfrwt>
<pdfrwt beam="2">  1       -2 0.30624861E-02 0.92236976E+02</pdfrwt>
<totfact> 0.12128034E+05</totfact>
</mgrwt>
</event>
<event>
 5    1  0.2809073E+000  0.9106462E+02  0.7818608E-02  0.1300294E+00
          2   -1    0    0  501    0  0.00000000000E+00  0.00000000000E+00  0.32822863553E+02  0.32822863656E+02  0.26000000000E-02 0. -1.
         -2   -1    0    0    0  501 -0.00000000000E+00 -0.00000000000E+00 -0.63163015215E+02  0.63163015269E+02  0.26000000000E-02 0.  1.
         23    2    1    2    0    0  0.00000000000E+00  0.00000000000E+00 -0.30340151662E+02  0.95985878924E+02  0.91064615246E+02 0.  0.
        -11    1    3    3    0    0  0.41838458419E+02 -0.97009319104E+01  0.76744753931E+00  0.42955251819E+02  0.51100000000E-03 0.  1.
         11    1    3    3    0    0 -0.41838458419E+02  0.97009319104E+01 -0.31107599202E+02  0.53030627105E+02  0.51100000000E-03 0. -1.
<mgrwt>
<rscale>  0 0.91064615E+02</rscale>
<asrwt>0</asrwt>
<pdfrwt beam="1">  1        2 0.50496713E-02 0.91064615E+02</pdfrwt>
<pdfrwt beam="2">  1       -2 0.97173870E-02 0.91064615E+02</pdfrwt>
<totfact> 0.90928823E+04</totfact>
</mgrwt>
</event>
<event>
 5    1  0.2809073E+000  0.9190162E+02  0.7818608E-02  0.1298311E+00
          2   -1    0    0  501    0  0.00000000000E+00  0.00000000000E+00  0.29217649769E+02  0.29217649885E+02  0.26000000000E-02 0. -1.
         -2   -1    0    0    0  501 -0.00000000000E+00 -0.00000000000E+00 -0.72267169848E+02  0.72267169895E+02  0.26000000000E-02 0.  1.
         23    2    1    2    0    0  0.00000000000E+00  0.00000000000E+00 -0.43049520079E+02  0.10148481978E+03  0.91901618411E+02 0.  0.
        -11    1    3    3    0    0  0.14866721659E+02 -0.26735601735E+02 -0.59388170531E+02  0.66803941592E+02  0.51100000000E-03 0.  1.
         11    1    3    3    0    0 -0.14866721659E+02  0.26735601735E+02  0.16338650451E+02  0.34680878187E+02  0.51100000000E-03 0. -1.
<mgrwt>
<rscale>  0 0.91901618E+02</rscale>
<asrwt>0</asrwt>
<pdfrwt beam="1">  1        2 0.44950231E-02 0.91901618E+02</pdfrwt>
<pdfrwt beam="2">  1       -2 0.11118026E-01 0.91901618E+02</pdfrwt>
<totfact> 0.85793576E+04</totfact>
</mgrwt>
</event>
<event>
 5    1  0.2809073E+000  0.8931668E+02  0.7818608E-02  0.1304515E+00
          2   -1    0    0  501    0  0.00000000000E+00  0.00000000000E+00  0.15542191470E+02  0.15542191687E+02  0.26000000000E-02 0. -1.
         -2   -1    0    0    0  501 -0.00000000000E+00 -0.00000000000E+00 -0.12831958202E+03  0.12831958204E+03  0.26000000000E-02 0.  1.
         23    2    1    2    0    0  0.00000000000E+00  0.00000000000E+00 -0.11277739055E+03  0.14386177373E+03  0.89316684457E+02 0.  0.
        -11    1    3    3    0    0  0.16378767669E+02  0.22247336263E+02 -0.11290450872E+03  0.11623526182E+03  0.51100000000E-03 0.  1.
         11    1    3    3    0    0 -0.16378767669E+02 -0.22247336263E+02  0.12711817007E+00  0.27626511912E+02  0.51100000000E-03 0. -1.
<mgrwt>
<rscale>  0 0.89316684E+02</rscale>
<asrwt>0</asrwt>
<pdfrwt beam="1">  1        2 0.23911065E-02 0.89316684E+02</pdfrwt>
<pdfrwt beam="2">  1       -2 0.19741473E-01 0.89316684E+02</pdfrwt>
<totfact> 0.77694275E+04</totfact>
</mgrwt>
</event>
<event>
 5    1  0.2809073E+000  0.9034077E+02  0.7818608E-02  0.1302029E+00
         -2   -1    0    0    0  501 -0.00000000000E+00  0.00000000000E+00  0.27203308236E+03  0.27203308237E+03  0.26000000000E-02 0.  1.
          2   -1    0    0  501    0  0.00000000000E+00 -0.00000000000E+00 -0.75004252560E+01  0.75004257066E+01  0.26000000000E-02 0. -1.
         23    2    1    2    0    0  0.00000000000E+00  0.00000000000E+00  0.26453265711E+03  0.27953350808E+03  0.90340774097E+02 0.  0.
        -11    1    3    3    0    0 -0.17691922863E+02  0.37509784713E+02  0.76882891148E+02  0.87355406446E+02  0.51100000000E-03 0. -1.
         11    1    3    3    0    0  0.17691922863E+02 -0.37509784713E+02  0.18764976596E+03  0.19217810164E+03  0.51100000000E-03 0.  1.
<mgrwt>
<rscale>  0 0.90340774E+02</rscale>
<asrwt>0</asrwt>
<pdfrwt beam="2">  1        2 0.11539116E-02 0.90340774E+02</pdfrwt>
<pdfrwt beam="1">  1       -2 0.41851244E-01 0.90340774E+02</pdfrwt>
<totfact> 0.55082047E+04</totfact>
</mgrwt>
</event>
<event>
 5    1  0.2809073E+000  0.8900626E+02  0.7818608E-02  0.1305276E+00
          2   -1    0    0  501    0  0.00000000000E+00  0.00000000000E+00  0.85939588182E+02  0.85939588221E+02  0.26000000000E-02 0. -1.
         -2   -1    0    0    0  501 -0.00000000000E+00 -0.00000000000E+00 -0.23045590620E+02  0.23045590767E+02  0.26000000000E-02 0.  1.
         23    2    1    2    0    0  0.00000000000E+00  0.00000000000E+00  0.62893997562E+02  0.10898517899E+03  0.89006259947E+02 0.  0.
        -11    1    3    3    0    0 -0.92472796469E+01 -0.13800784869E+02 -0.19106633481E+02  0.25318714167E+02  0.51100000000E-03 0.  1.
         11    1    3    3    0    0  0.92472796469E+01  0.13800784869E+02  0.82000631043E+02  0.83666464821E+02  0.51100000000E-03 0. -1.
<mgrwt>
<rscale>  0 0.89006260E+02</rscale>
<asrwt>0</asrwt>
<pdfrwt beam="1">  1        2 0.13221475E-01 0.89006260E+02</pdfrwt>
<pdfrwt beam="2">  1       -2 0.35454755E-02 0.89006260E+02</pdfrwt>
<totfact> 0.12532865E+05</totfact>
</mgrwt>
</event>
<event>
 5    1  0.2809073E+000  0.9097261E+02  0.7818608E-02  0.1300513E+00
         -2   -1    0    0    0  501 -0.00000000000E+00  0.00000000000E+00  0.28198884317E+02  0.28198884437E+02  0.26000000000E-02 0.  1.
          2   -1    0    0  501    0  0.00000000000E+00 -0.00000000000E+00 -0.73371838770E+02  0.73371838816E+02  0.26000000000E-02 0. -1.
         23    2    1    2    0    0  0.00000000000E+00  0.00000000000E+00 -0.45172954453E+02  0.10157072325E+03  0.90972611307E+02 0.  0.
        -11    1    3    3    0    0 -0.26872638219E+02  0.10254774284E+01  0.18372618363E+02  0.32569055783E+02  0.51100000000E-03 0.  1.
         11    1    3    3    0    0  0.26872638219E+02 -0.10254774284E+01 -0.63545572816E+02  0.69001667470E+02  0.51100000000E-03 0. -1.
<mgrwt>
<rscale>  0 0.90972611E+02</rscale>
<asrwt>0</asrwt>
<pdfrwt beam="2">  1        2 0.11287975E-01 0.90972611E+02</pdfrwt>
<pdfrwt beam="1">  1       -2 0.43382899E-02 0.90972611E+02</pdfrwt>
<totfact> 0.11278258E+05</totfact>
</mgrwt>
</event>
<event>
 5    1  0.2809073E+000  0.9095895E+02  0.7818608E-02  0.1300546E+00
          2   -1    0    0  501    0  0.00000000000E+00  0.00000000000E+00  0.90756677994E+02  0.90756678031E+02  0.26000000000E-02 0. -1.
         -2   -1    0    0    0  501 -0.00000000000E+00 -0.00000000000E+00 -0.22790417591E+02  0.22790417740E+02  0.26000000000E-02 0.  1.
         23    2    1    2    0    0  0.00000000000E+00  0.00000000000E+00  0.67966260402E+02  0.11354709577E+03  0.90958949009E+02 0.  0.
        -11    1    3    3    0    0  0.35348443593E+02  0.10342231788E+02  0.67558323274E+00  0.36836539411E+02  0.51100000000E-03 0.  1.
         11    1    3    3    0    0 -0.35348443593E+02 -0.10342231788E+02  0.67290677170E+02  0.76710556360E+02  0.51100000000E-03 0. -1.
<mgrwt>
<rscale>  0 0.90958949E+02</rscale>
<asrwt>0</asrwt>
<pdfrwt beam="1">  1        2 0.13962566E-01 0.90958949E+02</pdfrwt>
<pdfrwt beam="2">  1       -2 0.35062181E-02 0.90958949E+02</pdfrwt>
<totfact> 0.11994401E+05</totfact>
</mgrwt>
</event>
<event>
 5    1  0.2809073E+000  0.9018022E+02  0.7818608E-02  0.1302416E+00
         -2   -1    0    0    0  501 -0.00000000000E+00  0.00000000000E+00  0.13836706992E+03  0.13836706995E+03  0.26000000000E-02 0.  1.
          2   -1    0    0  501    0  0.00000000000E+00 -0.00000000000E+00 -0.14693653592E+02  0.14693653822E+02  0.26000000000E-02 0. -1.
         23    2    1    2    0    0  0.00000000000E+00  0.00000000000E+00  0.12367341633E+03  0.15306072377E+03  0.90180215425E+02 0.  0.
        -11    1    3    3    0    0  0.37969077099E+02  0.24091483354E+02  0.56190253651E+02  0.71968013670E+02  0.51100000000E-03 0. -1.
         11    1    3    3    0    0 -0.37969077099E+02 -0.24091483354E+02  0.67483162679E+02  0.81092710100E+02  0.51100000000E-03 0.  1.
<mgrwt>
<rscale>  0 0.90180215E+02</rscale>
<asrwt>0</asrwt>
<pdfrwt beam="2">  1        2 0.22605621E-02 0.90180215E+02</pdfrwt>
<pdfrwt beam="1">  1       -2 0.21287241E-01 0.90180215E+02</pdfrwt>
<totfact> 0.73914938E+04</totfact>
</mgrwt>
</event>
<event>
 5    1  0.2809073E+000  0.9047065E+02  0.7818608E-02  0.1301716E+00
          2   -1    0    0  501    0  0.00000000000E+00  0.00000000000E+00  0.35882004453E+03  0.35882004454E+03  0.26000000000E-02 0. -1.
         -2   -1    0    0    0  501 -0.00000000000E+00 -0.00000000000E+00 -0.57026756987E+01  0.57026762914E+01  0.26000000000E-02 0.  1.
         23    2    1    2    0    0  0.00000000000E+00  0.00000000000E+00  0.35311736883E+03  0.36452272083E+03  0.90470646242E+02 0.  0.
        -11    1    3    3    0    0 -0.41982727986E+02 -0.23897658059E+01  0.10938192950E+03  0.11718646223E+03  0.51100000000E-03 0.  1.
         11    1    3    3    0    0  0.41982727986E+02  0.23897658059E+01  0.24373543933E+03  0.24733625859E+03  0.51100000000E-03 0. -1.
<mgrwt>
<rscale>  0 0.90470646E+02</rscale>
<asrwt>0</asrwt>
<pdfrwt beam="1">  1        2 0.55203079E-01 0.90470646E+02</pdfrwt>
<pdfrwt beam="2">  1       -2 0.87733485E-03 0.90470646E+02</pdfrwt>
<totfact> 0.19594051E+05</totfact>
</mgrwt>
</event>
<event>
 5    1  0.2809073E+000  0.8642450E+02  0.7818608E-02  0.1311749E+00
         -2   -1    0    0    0  501 -0.00000000000E+00  0.00000000000E+00  0.16710270877E+02  0.16710271079E+02  0.26000000000E-02 0.  1.
          2   -1    0    0  501    0  0.00000000000E+00 -0.00000000000E+00 -0.11174554980E+03  0.11174554983E+03  0.26000000000E-02 0. -1.
         23    2    1    2    0    0  0.00000000000E+00  0.00000000000E+00 -0.95035278919E+02  0.12845582090E+03  0.86424497019E+02 0.  0.
        -11    1    3    3    0    0 -0.40805863993E+02 -0.13406499539E+02 -0.54559429444E+02  0.69437627463E+02  0.51100000000E-03 0. -1.
         11    1    3    3    0    0  0.40805863993E+02  0.13406499539E+02 -0.40475849474E+02  0.59018193441E+02  0.51100000000E-03 0.  1.
<mgrwt>
<rscale>  0 0.86424497E+02</rscale>
<asrwt>0</asrwt>
<pdfrwt beam="2">  1        2 0.17191623E-01 0.86424497E+02</pdfrwt>
<pdfrwt beam="1">  1       -2 0.25708110E-02 0.86424497E+02</pdfrwt>
<totfact> 0.14692976E+05</totfact>
</mgrwt>
</event>
<event>
 5    1  0.2809073E+000  0.8660614E+02  0.7818608E-02  0.1311285E+00
          2   -1    0    0  501    0  0.00000000000E+00  0.00000000000E+00  0.87714398425E+02  0.87714398464E+02  0.26000000000E-02 0. -1.
         -2   -1    0    0    0  501 -0.00000000000E+00 -0.00000000000E+00 -0.21377968683E+02  0.21377968841E+02  0.26000000000E-02 0.  1.
         23    2    1    2    0    0  0.00000000000E+00  0.00000000000E+00  0.66336429742E+02  0.10909236730E+03  0.86606135425E+02 0.  0.
        -11    1    3    3    0    0  0.13323483943E+02 -0.31416174945E+02 -0.41157596536E+00  0.34127125101E+02  0.51100000000E-03 0.  1.
         11    1    3    3    0    0 -0.13323483943E+02  0.31416174945E+02  0.66748005707E+02  0.74965242204E+02  0.51100000000E-03 0. -1.
<mgrwt>
<rscale>  0 0.86606135E+02</rscale>
<asrwt>0</asrwt>
<pdfrwt beam="1">  1        2 0.13494523E-01 0.86606135E+02</pdfrwt>
<pdfrwt beam="2">  1       -2 0.32889183E-02 0.86606135E+02</pdfrwt>
<totfact> 0.13591608E+05</totfact>
</mgrwt>
</event>
<event>
 5    1  0.2809073E+000  0.9153372E+02  0.7818608E-02  0.1299180E+00
         -2   -1    0    0    0  501 -0.00000000000E+00  0.00000000000E+00  0.49517421434E+02  0.49517421503E+02  0.26000000000E-02 0.  1.
          2   -1    0    0  501    0  0.00000000000E+00 -0.00000000000E+00 -0.42300370655E+02  0.42300370735E+02  0.26000000000E-02 0. -1.
         23    2    1    2    0    0  0.00000000000E+00  0.00000000000E+00  0.72170507797E+01  0.91817792237E+02  0.91533715916E+02 0.  0.
        -11    1    3    3    0    0 -0.10156271969E+02 -0.69970050900E+01  0.47819080670E+02  0.49383928731E+02  0.51100000000E-03 0.  1.
         11    1    3    3    0    0  0.10156271969E+02  0.69970050900E+01 -0.40602029891E+02  0.42433863506E+02  0.51100000000E-03 0. -1.
<mgrwt>
<rscale>  0 0.91533716E+02</rscale>
<asrwt>0</asrwt>
<pdfrwt beam="2">  1        2 0.65077494E-02 0.91533716E+02</pdfrwt>
<pdfrwt beam="1">  1       -2 0.76180648E-02 0.91533716E+02</pdfrwt>
<totfact> 0.95692852E+04</totfact>
</mgrwt>
</event>
<event>
 5    1  0.2809073E+000  0.9327974E+02  0.7818608E-02  0.1295098E+00
         -2   -1    0    0    0  501 -0.00000000000E+00  0.00000000000E+00  0.36058592508E+02  0.36058592602E+02  0.26000000000E-02 0.  1.
          2   -1    0    0  501    0  0.00000000000E+00 -0.00000000000E+00 -0.60326192003E+02  0.60326192059E+02  0.26000000000E-02 0. -1.
         23    2    1    2    0    0  0.00000000000E+00  0.00000000000E+00 -0.24267599495E+02  0.96384784660E+02  0.93279742328E+02 0.  0.
        -11    1    3    3    0    0 -0.22859501250E+02 -0.33889117996E+02  0.11069162665E+02  0.42350389353E+02  0.51100000000E-03 0.  1.
         11    1    3    3    0    0  0.22859501250E+02  0.33889117996E+02 -0.35336762160E+02  0.54034395307E+02  0.51100000000E-03 0. -1.
<mgrwt>
<rscale>  0 0.93279742E+02</rscale>
<asrwt>0</asrwt>
<pdfrwt beam="2">  1        2 0.92809526E-02 0.93279742E+02</pdfrwt>
<pdfrwt beam="1">  1       -2 0.55474758E-02 0.93279742E+02</pdfrwt>
<totfact> 0.99589769E+04</totfact>
</mgrwt>
</event>
<event>
 5    1  0.2809073E+000  0.9129504E+02  0.7818608E-02  0.1299746E+00
         -2   -1    0    0    0  501 -0.00000000000E+00  0.00000000000E+00  0.54262467652E+02  0.54262467714E+02  0.26000000000E-02 0.  1.
          2   -1    0    0  501    0  0.00000000000E+00 -0.00000000000E+00 -0.38400320374E+02  0.38400320462E+02  0.26000000000E-02 0. -1.
         23    2    1    2    0    0  0.00000000000E+00  0.00000000000E+00  0.15862147278E+02  0.92662788176E+02  0.91295041466E+02 0.  0.
        -11    1    3    3    0    0  0.18217714619E+02 -0.39043750576E+02 -0.73745180170E+01  0.43711361238E+02  0.51100000000E-03 0. -1.
         11    1    3    3    0    0 -0.18217714619E+02  0.39043750576E+02  0.23236665295E+02  0.48951426938E+02  0.51100000000E-03 0.  1.
<mgrwt>
<rscale>  0 0.91295041E+02</rscale>
<asrwt>0</asrwt>
<pdfrwt beam="2">  1        2 0.59077416E-02 0.91295041E+02</pdfrwt>
<pdfrwt beam="1">  1       -2 0.83480719E-02 0.91295041E+02</pdfrwt>
<totfact> 0.94030479E+04</totfact>
</mgrwt>
</event>
<event>
 5    1  0.2809073E+000  0.9099839E+02  0.7818608E-02  0.1300452E+00
          2   -1    0    0  501    0  0.00000000000E+00  0.00000000000E+00  0.34408178382E+02  0.34408178480E+02  0.26000000000E-02 0. -1.
         -2   -1    0    0    0  501 -0.00000000000E+00 -0.00000000000E+00 -0.60165250122E+02  0.60165250178E+02  0.26000000000E-02 0.  1.
         23    2    1    2    0    0  0.00000000000E+00  0.00000000000E+00 -0.25757071740E+02  0.94573428659E+02  0.90998388247E+02 0.  0.
        -11    1    3    3    0    0 -0.34580983222E+02  0.27587150410E+01  0.17718213084E+02  0.38953690254E+02  0.51100000000E-03 0.  1.
         11    1    3    3    0    0  0.34580983222E+02 -0.27587150410E+01 -0.43475284825E+02  0.55619738404E+02  0.51100000000E-03 0. -1.
<mgrwt>
<rscale>  0 0.90998388E+02</rscale>
<asrwt>0</asrwt>
<pdfrwt beam="1">  1        2 0.52935659E-02 0.90998388E+02</pdfrwt>
<pdfrwt beam="2">  1       -2 0.92561923E-02 0.90998388E+02</pdfrwt>
<totfact> 0.92256465E+04</totfact>
</mgrwt>
</event>
<event>
 5    1  0.2809073E+000  0.9131439E+02  0.7818608E-02  0.1299700E+00
         -2   -1    0    0    0  501 -0.00000000000E+00  0.00000000000E+00  0.82901493640E+01  0.82901497717E+01  0.26000000000E-02 0.  1.
          2   -1    0    0  501    0  0.00000000000E+00 -0.00000000000E+00 -0.25145256128E+03  0.25145256130E+03  0.26000000000E-02 0. -1.
         23    2    1    2    0    0  0.00000000000E+00  0.00000000000E+00 -0.24316241192E+03  0.25974271107E+03  0.91314387600E+02 0.  0.
        -11    1    3    3    0    0 -0.38821128877E+02  0.20873896383E+02 -0.87711513110E+02  0.98163685393E+02  0.51100000000E-03 0.  1.
         11    1    3    3    0    0  0.38821128877E+02 -0.20873896383E+02 -0.15545089881E+03  0.16157902568E+03  0.51100000000E-03 0. -1.
<mgrwt>
<rscale>  0 0.91314388E+02</rscale>
<asrwt>0</asrwt>
<pdfrwt beam="2">  1        2 0.38685004E-01 0.91314388E+02</pdfrwt>
<pdfrwt beam="1">  1       -2 0.12754078E-02 0.91314388E+02</pdfrwt>
<totfact> 0.16754254E+05</totfact>
</mgrwt>
</event>
<event>
 5    1  0.2809073E+000  0.9219262E+02  0.7818608E-02  0.1297627E+00
          2   -1    0    0  501    0  0.00000000000E+00  0.00000000000E+00  0.27699805774E+02  0.27699805897E+02  0.26000000000E-02 0.  1.
         -2   -1    0    0    0  501 -0.00000000000E+00 -0.00000000000E+00 -0.76710642813E+02  0.76710642857E+02  0.26000000000E-02 0. -1.
         23    2    1    2    0    0  0.00000000000E+00  0.00000000000E+00 -0.49010837039E+02  0.10441044875E+03  0.92192622599E+02 0.  0.
        -11    1    3    3    0    0  0.45379386670E+02 -0.80559115528E+01 -0.25441702143E+02  0.52644721043E+02  0.51100000000E-03 0.  1.
         11    1    3    3    0    0 -0.45379386670E+02  0.80559115528E+01 -0.23569134896E+02  0.51765727711E+02  0.51100000000E-03 0. -1.
<mgrwt>
<rscale>  0 0.92192623E+02</rscale>
<asrwt>0</asrwt>
<pdfrwt beam="1">  1        2 0.42615086E-02 0.92192623E+02</pdfrwt>
<pdfrwt beam="2">  1       -2 0.11801637E-01 0.92192623E+02</pdfrwt>
<totfact> 0.83758523E+04</totfact>
</mgrwt>
</event>
<event>
 5    1  0.2809073E+000  0.9030100E+02  0.7818608E-02  0.1302124E+00
          2   -1    0    0  501    0  0.00000000000E+00  0.00000000000E+00  0.15984335179E+03  0.15984335181E+03  0.26000000000E-02 0. -1.
         -2   -1    0    0    0  501 -0.00000000000E+00 -0.00000000000E+00 -0.12753533808E+02  0.12753534073E+02  0.26000000000E-02 0.  1.
         23    2    1    2    0    0  0.00000000000E+00  0.00000000000E+00  0.14708981799E+03  0.17259688589E+03  0.90300999235E+02 0.  0.
        -11    1    3    3    0    0  0.36120547623E+02  0.43017922849E+00  0.21772748919E+02  0.42177382689E+02  0.51100000000E-03 0.  1.
         11    1    3    3    0    0 -0.36120547623E+02 -0.43017922849E+00  0.12531706907E+03  0.13041950320E+03  0.51100000000E-03 0. -1.
<mgrwt>
<rscale>  0 0.90300999E+02</rscale>
<asrwt>0</asrwt>
<pdfrwt beam="1">  1        2 0.24591285E-01 0.90300999E+02</pdfrwt>
<pdfrwt beam="2">  1       -2 0.19620821E-02 0.90300999E+02</pdfrwt>
<totfact> 0.14666866E+05</totfact>
</mgrwt>
</event>
<event>
 5    1  0.2809073E+000  0.9217489E+02  0.7818608E-02  0.1297669E+00
          2   -1    0    0  501    0  0.00000000000E+00  0.00000000000E+00  0.28354875265E+03  0.28354875266E+03  0.26000000000E-02 0.  1.
         -2   -1    0    0    0  501 -0.00000000000E+00 -0.00000000000E+00 -0.74909609613E+01  0.74909614125E+01  0.26000000000E-02 0. -1.
         23    2    1    2    0    0  0.00000000000E+00  0.00000000000E+00  0.27605779168E+03  0.29103971407E+03  0.92174892548E+02 0.  0.
        -11    1    3    3    0    0 -0.78070405186E+01 -0.37407232962E+02  0.21937913044E+03  0.22268240575E+03  0.51100000000E-03 0.  1.
         11    1    3    3    0    0  0.78070405186E+01  0.37407232962E+02  0.56678661246E+02  0.68357308317E+02  0.51100000000E-03 0. -1.
<mgrwt>
<rscale>  0 0.92174893E+02</rscale>
<asrwt>0</asrwt>
<pdfrwt beam="1">  1        2 0.43622876E-01 0.92174893E+02</pdfrwt>
<pdfrwt beam="2">  1       -2 0.11524558E-02 0.92174893E+02</pdfrwt>
<totfact> 0.17087348E+05</totfact>
</mgrwt>
</event>
<event>
 5    1  0.2809073E+000  0.9230905E+02  0.7818608E-02  0.1297354E+00
         -2   -1    0    0    0  501 -0.00000000000E+00  0.00000000000E+00  0.26629687366E+03  0.26629687368E+03  0.26000000000E-02 0.  1.
          2   -1    0    0  501    0  0.00000000000E+00 -0.00000000000E+00 -0.79994934117E+01  0.79994938342E+01  0.26000000000E-02 0. -1.
         23    2    1    2    0    0  0.00000000000E+00  0.00000000000E+00  0.25829738025E+03  0.27429636751E+03  0.92309049310E+02 0.  0.
        -11    1    3    3    0    0  0.10912624460E+02  0.42417688775E+02  0.85893764337E+02  0.96416204270E+02  0.51100000000E-03 0. -1.
         11    1    3    3    0    0 -0.10912624460E+02 -0.42417688775E+02  0.17240361591E+03  0.17788016324E+03  0.51100000000E-03 0.  1.
<mgrwt>
<rscale>  0 0.92309049E+02</rscale>
<asrwt>0</asrwt>
<pdfrwt beam="2">  1        2 0.12306916E-02 0.92309049E+02</pdfrwt>
<pdfrwt beam="1">  1       -2 0.40968742E-01 0.92309049E+02</pdfrwt>
<totfact> 0.52698041E+04</totfact>
</mgrwt>
</event>
<event>
 4    1  0.2809073E+000  0.3935153E+02  0.7818608E-02  0.1513038E+00
         -2   -1    0    0    0  501 -0.00000000000E+00  0.00000000000E+00  0.20018979700E+02  0.20018979869E+02  0.26000000000E-02 0.  1.
          2   -1    0    0  501    0  0.00000000000E+00 -0.00000000000E+00 -0.19338435290E+02  0.19338435464E+02  0.26000000000E-02 0. -1.
        -11    1    1    2    0    0 -0.13035000087E+02  0.11089982728E+02 -0.93687437239E+01  0.19510825287E+02  0.51100000000E-03 0. -1.
         11    1    1    2    0    0  0.13035000087E+02 -0.11089982728E+02  0.10049288134E+02  0.19846590045E+02  0.51100000000E-03 0.  1.
<mgrwt>
<rscale>  0 0.39351531E+02</rscale>
<asrwt>0</asrwt>
<pdfrwt beam="2">  1        2 0.29751439E-02 0.39351531E+02</pdfrwt>
<pdfrwt beam="1">  1       -2 0.30798430E-02 0.39351531E+02</pdfrwt>
<totfact> 0.81831145E+05</totfact>
</mgrwt>
</event>
<event>
 5    1  0.2809073E+000  0.9069351E+02  0.7818608E-02  0.1301181E+00
          2   -1    0    0  501    0  0.00000000000E+00  0.00000000000E+00  0.30709240399E+03  0.30709240400E+03  0.26000000000E-02 0. -1.
         -2   -1    0    0    0  501 -0.00000000000E+00 -0.00000000000E+00 -0.66961223538E+01  0.66961228586E+01  0.26000000000E-02 0.  1.
         23    2    1    2    0    0  0.00000000000E+00  0.00000000000E+00  0.30039628164E+03  0.31378852686E+03  0.90693514475E+02 0.  0.
        -11    1    3    3    0    0  0.35525507390E+02  0.15784563732E+02  0.69418000738E+02  0.79561755601E+02  0.51100000000E-03 0.  1.
         11    1    3    3    0    0 -0.35525507390E+02 -0.15784563732E+02  0.23097828090E+03  0.23422677126E+03  0.51100000000E-03 0. -1.
<mgrwt>
<rscale>  0 0.90693514E+02</rscale>
<asrwt>0</asrwt>
<pdfrwt beam="1">  1        2 0.47244981E-01 0.90693514E+02</pdfrwt>
<pdfrwt beam="2">  1       -2 0.10301728E-02 0.90693514E+02</pdfrwt>
<totfact> 0.18381487E+05</totfact>
</mgrwt>
</event>
<event>
 5    1  0.2809073E+000  0.8835056E+02  0.7818608E-02  0.1306896E+00
          2   -1    0    0  501    0  0.00000000000E+00  0.00000000000E+00  0.12080707377E+03  0.12080707379E+03  0.26000000000E-02 0. -1.
         -2   -1    0    0    0  501 -0.00000000000E+00 -0.00000000000E+00 -0.16153485828E+02  0.16153486037E+02  0.26000000000E-02 0.  1.
         23    2    1    2    0    0  0.00000000000E+00  0.00000000000E+00  0.10465358794E+03  0.13696055983E+03  0.88350560162E+02 0.  0.
        -11    1    3    3    0    0 -0.38774999071E+02 -0.16313871954E+02  0.31424306886E+02  0.52508380613E+02  0.51100000000E-03 0.  1.
         11    1    3    3    0    0  0.38774999071E+02  0.16313871954E+02  0.73229281052E+02  0.84452179219E+02  0.51100000000E-03 0. -1.
<mgrwt>
<rscale>  0 0.88350560E+02</rscale>
<asrwt>0</asrwt>
<pdfrwt beam="1">  1        2 0.18585704E-01 0.88350560E+02</pdfrwt>
<pdfrwt beam="2">  1       -2 0.24851517E-02 0.88350560E+02</pdfrwt>
<totfact> 0.14180508E+05</totfact>
</mgrwt>
</event>
<event>
 5    1  0.2809073E+000  0.8771411E+02  0.7818608E-02  0.1308484E+00
          2   -1    0    0  501    0  0.00000000000E+00  0.00000000000E+00  0.15246359151E+03  0.15246359153E+03  0.26000000000E-02 0. -1.
         -2   -1    0    0    0  501 -0.00000000000E+00 -0.00000000000E+00 -0.12615740134E+02  0.12615740402E+02  0.26000000000E-02 0.  1.
         23    2    1    2    0    0  0.00000000000E+00  0.00000000000E+00  0.13984785137E+03  0.16507933193E+03  0.87714105463E+02 0.  0.
        -11    1    3    3    0    0  0.49686806502E+01 -0.42220088762E+02  0.90212840832E+02  0.99727530470E+02  0.51100000000E-03 0. -1.
         11    1    3    3    0    0 -0.49686806502E+01  0.42220088762E+02  0.49635010539E+02  0.65351801459E+02  0.51100000000E-03 0.  1.
<mgrwt>
<rscale>  0 0.87714105E+02</rscale>
<asrwt>0</asrwt>
<pdfrwt beam="1">  1        2 0.23455936E-01 0.87714105E+02</pdfrwt>
<pdfrwt beam="2">  1       -2 0.19408832E-02 0.87714105E+02</pdfrwt>
<totfact> 0.15610497E+05</totfact>
</mgrwt>
</event>
<event>
 5    1  0.2809073E+000  0.8995941E+02  0.7818608E-02  0.1302950E+00
          2   -1    0    0  501    0  0.00000000000E+00  0.00000000000E+00  0.20555290763E+03  0.20555290765E+03  0.26000000000E-02 0. -1.
         -2   -1    0    0    0  501 -0.00000000000E+00 -0.00000000000E+00 -0.98425940353E+01  0.98425943787E+01  0.26000000000E-02 0.  1.
         23    2    1    2    0    0  0.00000000000E+00  0.00000000000E+00  0.19571031359E+03  0.21539550203E+03  0.89959409988E+02 0.  0.
        -11    1    3    3    0    0  0.22507558069E+02  0.37406308511E+02  0.71917253790E+02  0.84130336262E+02  0.51100000000E-03 0. -1.
         11    1    3    3    0    0 -0.22507558069E+02 -0.37406308511E+02  0.12379305980E+03  0.13126516576E+03  0.51100000000E-03 0.  1.
<mgrwt>
<rscale>  0 0.89959410E+02</rscale>
<asrwt>0</asrwt>
<pdfrwt beam="1">  1        2 0.31623527E-01 0.89959410E+02</pdfrwt>
<pdfrwt beam="2">  1       -2 0.15142451E-02 0.89959410E+02</pdfrwt>
<totfact> 0.16196754E+05</totfact>
</mgrwt>
</event>
<event>
 5    1  0.2809073E+000  0.9157012E+02  0.7818608E-02  0.1299093E+00
         -2   -1    0    0    0  501 -0.00000000000E+00  0.00000000000E+00  0.20376646757E+02  0.20376646923E+02  0.26000000000E-02 0.  1.
          2   -1    0    0  501    0  0.00000000000E+00 -0.00000000000E+00 -0.10287618750E+03  0.10287618753E+03  0.26000000000E-02 0. -1.
         23    2    1    2    0    0  0.00000000000E+00  0.00000000000E+00 -0.82499540741E+02  0.12325283445E+03  0.91570120555E+02 0.  0.
        -11    1    3    3    0    0 -0.30705596693E+02  0.30239118706E+02 -0.20439737528E+02  0.47697178521E+02  0.51100000000E-03 0.  1.
         11    1    3    3    0    0  0.30705596693E+02 -0.30239118706E+02 -0.62059803213E+02  0.75555655933E+02  0.51100000000E-03 0. -1.
<mgrwt>
<rscale>  0 0.91570121E+02</rscale>
<asrwt>0</asrwt>
<pdfrwt beam="2">  1        2 0.15827106E-01 0.91570121E+02</pdfrwt>
<pdfrwt beam="1">  1       -2 0.31348688E-02 0.91570121E+02</pdfrwt>
<totfact> 0.12228647E+05</totfact>
</mgrwt>
</event>
<event>
 5    1  0.2809073E+000  0.9439249E+02  0.7818608E-02  0.1292550E+00
         -2   -1    0    0    0  501 -0.00000000000E+00  0.00000000000E+00  0.52680430217E+01  0.52680436633E+01  0.26000000000E-02 0. -1.
          2   -1    0    0  501    0  0.00000000000E+00 -0.00000000000E+00 -0.42282981022E+03  0.42282981023E+03  0.26000000000E-02 0.  1.
         23    2    1    2    0    0  0.00000000000E+00  0.00000000000E+00 -0.41756176720E+03  0.42809785389E+03  0.94392494832E+02 0.  0.
        -11    1    3    3    0    0 -0.10940172544E+01 -0.46487777713E+02 -0.17216685611E+03  0.17833602186E+03  0.51100000000E-03 0.  1.
         11    1    3    3    0    0  0.10940172544E+01  0.46487777713E+02 -0.24539491109E+03  0.24976183203E+03  0.51100000000E-03 0. -1.
<mgrwt>
<rscale>  0 0.94392495E+02</rscale>
<asrwt>0</asrwt>
<pdfrwt beam="2">  1        2 0.65050713E-01 0.94392495E+02</pdfrwt>
<pdfrwt beam="1">  1       -2 0.81046854E-03 0.94392495E+02</pdfrwt>
<totfact> 0.18566786E+05</totfact>
</mgrwt>
</event>
<event>
 5    1  0.2809073E+000  0.8918743E+02  0.7818608E-02  0.1304831E+00
         -2   -1    0    0    0  501 -0.00000000000E+00  0.00000000000E+00  0.10742720079E+03  0.10742720082E+03  0.26000000000E-02 0.  1.
          2   -1    0    0  501    0  0.00000000000E+00 -0.00000000000E+00 -0.18511133104E+02  0.18511133287E+02  0.26000000000E-02 0. -1.
         23    2    1    2    0    0  0.00000000000E+00  0.00000000000E+00  0.88916067681E+02  0.12593833410E+03  0.89187425710E+02 0.  0.
        -11    1    3    3    0    0 -0.25489755709E+02 -0.32926156318E+02  0.66995377432E+02  0.78881176548E+02  0.51100000000E-03 0.  1.
         11    1    3    3    0    0  0.25489755709E+02  0.32926156318E+02  0.21920690249E+02  0.47057157556E+02  0.51100000000E-03 0. -1.
<mgrwt>
<rscale>  0 0.89187426E+02</rscale>
<asrwt>0</asrwt>
<pdfrwt beam="2">  1        2 0.28478666E-02 0.89187426E+02</pdfrwt>
<pdfrwt beam="1">  1       -2 0.16527262E-01 0.89187426E+02</pdfrwt>
<totfact> 0.82513117E+04</totfact>
</mgrwt>
</event>
<event>
 5    1  0.2809073E+000  0.8963453E+02  0.7818608E-02  0.1303739E+00
          2   -1    0    0  501    0  0.00000000000E+00  0.00000000000E+00  0.11993727222E+02  0.11993727504E+02  0.26000000000E-02 0. -1.
         -2   -1    0    0    0  501 -0.00000000000E+00 -0.00000000000E+00 -0.16746979857E+03  0.16746979859E+03  0.26000000000E-02 0.  1.
         23    2    1    2    0    0  0.00000000000E+00  0.00000000000E+00 -0.15547607135E+03  0.17946352610E+03  0.89634527033E+02 0.  0.
        -11    1    3    3    0    0  0.34445204121E+02  0.54845241631E+01 -0.13408532865E+03  0.13854756386E+03  0.51100000000E-03 0.  1.
         11    1    3    3    0    0 -0.34445204121E+02 -0.54845241631E+01 -0.21390742703E+02  0.40915962239E+02  0.51100000000E-03 0. -1.
<mgrwt>
<rscale>  0 0.89634527E+02</rscale>
<asrwt>0</asrwt>
<pdfrwt beam="1">  1        2 0.18451889E-02 0.89634527E+02</pdfrwt>
<pdfrwt beam="2">  1       -2 0.25764583E-01 0.89634527E+02</pdfrwt>
<totfact> 0.69990148E+04</totfact>
</mgrwt>
</event>
<event>
 5    1  0.2809073E+000  0.8952789E+02  0.7818608E-02  0.1303999E+00
          2   -1    0    0  501    0  0.00000000000E+00  0.00000000000E+00  0.24504481269E+02  0.24504481407E+02  0.26000000000E-02 0.  1.
         -2   -1    0    0    0  501 -0.00000000000E+00 -0.00000000000E+00 -0.81773229816E+02  0.81773229857E+02  0.26000000000E-02 0. -1.
         23    2    1    2    0    0  0.00000000000E+00  0.00000000000E+00 -0.57268748547E+02  0.10627771126E+03  0.89527885887E+02 0.  0.
        -11    1    3    3    0    0 -0.19462913518E+02 -0.65620464183E+01  0.18580579858E+02  0.27696631635E+02  0.51100000000E-03 0.  1.
         11    1    3    3    0    0  0.19462913518E+02  0.65620464183E+01 -0.75849328405E+02  0.78581079629E+02  0.51100000000E-03 0. -1.
<mgrwt>
<rscale>  0 0.89527886E+02</rscale>
<asrwt>0</asrwt>
<pdfrwt beam="1">  1        2 0.37699202E-02 0.89527886E+02</pdfrwt>
<pdfrwt beam="2">  1       -2 0.12580497E-01 0.89527886E+02</pdfrwt>
<totfact> 0.88444845E+04</totfact>
</mgrwt>
</event>
<event>
 5    1  0.2809073E+000  0.9069190E+02  0.7818608E-02  0.1301185E+00
         -2   -1    0    0    0  501 -0.00000000000E+00  0.00000000000E+00  0.58539170769E+01  0.58539176542E+01  0.26000000000E-02 0.  1.
          2   -1    0    0  501    0  0.00000000000E+00 -0.00000000000E+00 -0.35126142395E+03  0.35126142396E+03  0.26000000000E-02 0. -1.
         23    2    1    2    0    0  0.00000000000E+00  0.00000000000E+00 -0.34540750688E+03  0.35711534162E+03  0.90691903783E+02 0.  0.
        -11    1    3    3    0    0  0.40523238183E+02 -0.18968855607E+02 -0.20172125693E+03  0.20662385102E+03  0.51100000000E-03 0. -1.
         11    1    3    3    0    0 -0.40523238183E+02  0.18968855607E+02 -0.14368624995E+03  0.15049149059E+03  0.51100000000E-03 0.  1.
<mgrwt>
<rscale>  0 0.90691904E+02</rscale>
<asrwt>0</asrwt>
<pdfrwt beam="2">  1        2 0.54040203E-01 0.90691904E+02</pdfrwt>
<pdfrwt beam="1">  1       -2 0.90060295E-03 0.90691904E+02</pdfrwt>
<totfact> 0.19316707E+05</totfact>
</mgrwt>
</event>
<event>
 5    1  0.2809073E+000  0.9022836E+02  0.7818608E-02  0.1302300E+00
          2   -1    0    0  501    0  0.00000000000E+00  0.00000000000E+00  0.45536561309E+02  0.45536561384E+02  0.26000000000E-02 0. -1.
         -2   -1    0    0    0  501 -0.00000000000E+00 -0.00000000000E+00 -0.44695715507E+02  0.44695715583E+02  0.26000000000E-02 0.  1.
         23    2    1    2    0    0  0.00000000000E+00  0.00000000000E+00  0.84084580207E+00  0.90232276966E+02  0.90228359094E+02 0.  0.
        -11    1    3    3    0    0 -0.38491771095E+02 -0.81768134214E+01 -0.21644362473E+02  0.44910523788E+02  0.51100000000E-03 0.  1.
         11    1    3    3    0    0  0.38491771095E+02  0.81768134214E+01  0.22485208275E+02  0.45321753179E+02  0.51100000000E-03 0. -1.
<mgrwt>
<rscale>  0 0.90228359E+02</rscale>
<asrwt>0</asrwt>
<pdfrwt beam="1">  1        2 0.70056248E-02 0.90228359E+02</pdfrwt>
<pdfrwt beam="2">  1       -2 0.68762639E-02 0.90228359E+02</pdfrwt>
<totfact> 0.10164551E+05</totfact>
</mgrwt>
</event>
<event>
 5    1  0.2809073E+000  0.9083809E+02  0.7818608E-02  0.1300835E+00
          2   -1    0    0  501    0  0.00000000000E+00  0.00000000000E+00  0.59630258540E+02  0.59630258597E+02  0.26000000000E-02 0. -1.
         -2   -1    0    0    0  501 -0.00000000000E+00 -0.00000000000E+00 -0.34594675709E+02  0.34594675807E+02  0.26000000000E-02 0.  1.
         23    2    1    2    0    0  0.00000000000E+00  0.00000000000E+00  0.25035582831E+02  0.94224934404E+02  0.90838085931E+02 0.  0.
        -11    1    3    3    0    0  0.19579322159E+02  0.39557100681E+02  0.14050230055E+01  0.44159802541E+02  0.51100000000E-03 0.  1.
         11    1    3    3    0    0 -0.19579322159E+02 -0.39557100681E+02  0.23630559826E+02  0.50065131863E+02  0.51100000000E-03 0. -1.
<mgrwt>
<rscale>  0 0.90838086E+02</rscale>
<asrwt>0</asrwt>
<pdfrwt beam="1">  1        2 0.91738859E-02 0.90838086E+02</pdfrwt>
<pdfrwt beam="2">  1       -2 0.53222579E-02 0.90838086E+02</pdfrwt>
<totfact> 0.10701115E+05</totfact>
</mgrwt>
</event>
<event>
 5    1  0.2809073E+000  0.9150215E+02  0.7818608E-02  0.1299254E+00
         -2   -1    0    0    0  501 -0.00000000000E+00  0.00000000000E+00  0.11987338667E+02  0.11987338949E+02  0.26000000000E-02 0.  1.
          2   -1    0    0  501    0  0.00000000000E+00 -0.00000000000E+00 -0.17461431644E+03  0.17461431646E+03  0.26000000000E-02 0. -1.
         23    2    1    2    0    0  0.00000000000E+00  0.00000000000E+00 -0.16262697778E+03  0.18660165541E+03  0.91502152442E+02 0.  0.
        -11    1    3    3    0    0  0.36148306012E+02 -0.83095229463E+00 -0.13847872908E+03  0.14312144814E+03  0.51100000000E-03 0. -1.
         11    1    3    3    0    0 -0.36148306012E+02  0.83095229463E+00 -0.24148248700E+02  0.43480207277E+02  0.51100000000E-03 0.  1.
<mgrwt>
<rscale>  0 0.91502152E+02</rscale>
<asrwt>0</asrwt>
<pdfrwt beam="2">  1        2 0.26863739E-01 0.91502152E+02</pdfrwt>
<pdfrwt beam="1">  1       -2 0.18442061E-02 0.91502152E+02</pdfrwt>
<totfact> 0.14594298E+05</totfact>
</mgrwt>
</event>
<event>
 5    1  0.2809073E+000  0.9126394E+02  0.7818608E-02  0.1299819E+00
          2   -1    0    0  501    0  0.00000000000E+00  0.00000000000E+00  0.17217359541E+02  0.17217359737E+02  0.26000000000E-02 0. -1.
         -2   -1    0    0    0  501 -0.00000000000E+00 -0.00000000000E+00 -0.12094054714E+03  0.12094054717E+03  0.26000000000E-02 0.  1.
         23    2    1    2    0    0  0.00000000000E+00  0.00000000000E+00 -0.10372318760E+03  0.13815790691E+03  0.91263944661E+02 0.  0.
        -11    1    3    3    0    0 -0.25725750813E+02  0.36769911148E+02 -0.64384920181E+02  0.78480943978E+02  0.51100000000E-03 0.  1.
         11    1    3    3    0    0  0.25725750813E+02 -0.36769911148E+02 -0.39338267423E+02  0.59676962932E+02  0.51100000000E-03 0. -1.
<mgrwt>
<rscale>  0 0.91263945E+02</rscale>
<asrwt>0</asrwt>
<pdfrwt beam="1">  1        2 0.26488246E-02 0.91263945E+02</pdfrwt>
<pdfrwt beam="2">  1       -2 0.18606238E-01 0.91263945E+02</pdfrwt>
<totfact> 0.75045936E+04</totfact>
</mgrwt>
</event>
<event>
 5    1  0.2809073E+000  0.8194097E+02  0.7818608E-02  0.1323632E+00
          2   -1    0    0  501    0  0.00000000000E+00  0.00000000000E+00  0.80354389347E+01  0.80354393553E+01  0.26000000000E-02 0. -1.
         -2   -1    0    0    0  501 -0.00000000000E+00 -0.00000000000E+00 -0.20889717236E+03  0.20889717238E+03  0.26000000000E-02 0.  1.
         23    2    1    2    0    0  0.00000000000E+00  0.00000000000E+00 -0.20086173342E+03  0.21693261173E+03  0.81940967031E+02 0.  0.
        -11    1    3    3    0    0  0.26933483037E+02  0.30842491152E+02 -0.10408848447E+03  0.11185295869E+03  0.51100000000E-03 0.  1.
         11    1    3    3    0    0 -0.26933483037E+02 -0.30842491152E+02 -0.96773248958E+02  0.10507965304E+03  0.51100000000E-03 0. -1.
<mgrwt>
<rscale>  0 0.81940967E+02</rscale>
<asrwt>0</asrwt>
<pdfrwt beam="1">  1        2 0.12362216E-02 0.81940967E+02</pdfrwt>
<pdfrwt beam="2">  1       -2 0.32138022E-01 0.81940967E+02</pdfrwt>
<totfact> 0.80281080E+04</totfact>
</mgrwt>
</event>
<event>
 5    1  0.2809073E+000  0.9024985E+02  0.7818608E-02  0.1302248E+00
         -2   -1    0    0    0  501 -0.00000000000E+00  0.00000000000E+00  0.51973525953E+01  0.51973532456E+01  0.26000000000E-02 0.  1.
          2   -1    0    0  501    0  0.00000000000E+00 -0.00000000000E+00 -0.39178769632E+03  0.39178769633E+03  0.26000000000E-02 0. -1.
         23    2    1    2    0    0  0.00000000000E+00  0.00000000000E+00 -0.38659034373E+03  0.39698504958E+03  0.90249851658E+02 0.  0.
        -11    1    3    3    0    0  0.15727785984E+02  0.41456521849E+02 -0.23016392662E+03  0.23439590349E+03  0.51100000000E-03 0.  1.
         11    1    3    3    0    0 -0.15727785984E+02 -0.41456521849E+02 -0.15642641711E+03  0.16258914609E+03  0.51100000000E-03 0. -1.
<mgrwt>
<rscale>  0 0.90249852E+02</rscale>
<asrwt>0</asrwt>
<pdfrwt beam="2">  1        2 0.60275007E-01 0.90249852E+02</pdfrwt>
<pdfrwt beam="1">  1       -2 0.79959307E-03 0.90249852E+02</pdfrwt>
<totfact> 0.20359150E+05</totfact>
</mgrwt>
</event>
<event>
 5    1  0.2809073E+000  0.9314203E+02  0.7818608E-02  0.1295416E+00
          2   -1    0    0  501    0  0.00000000000E+00  0.00000000000E+00  0.28478764748E+02  0.28478764867E+02  0.26000000000E-02 0. -1.
         -2   -1    0    0    0  501 -0.00000000000E+00 -0.00000000000E+00 -0.76157079941E+02  0.76157079985E+02  0.26000000000E-02 0.  1.
         23    2    1    2    0    0  0.00000000000E+00  0.00000000000E+00 -0.47678315193E+02  0.10463584485E+03  0.93142032876E+02 0.  0.
        -11    1    3    3    0    0 -0.12472830892E+02  0.44066647173E+02 -0.33332970016E+02  0.56643868105E+02  0.51100000000E-03 0.  1.
         11    1    3    3    0    0  0.12472830892E+02 -0.44066647173E+02 -0.14345345177E+02  0.47991976747E+02  0.51100000000E-03 0. -1.
<mgrwt>
<rscale>  0 0.93142033E+02</rscale>
<asrwt>0</asrwt>
<pdfrwt beam="1">  1        2 0.43813485E-02 0.93142033E+02</pdfrwt>
<pdfrwt beam="2">  1       -2 0.11716474E-01 0.93142033E+02</pdfrwt>
<totfact> 0.81844930E+04</totfact>
</mgrwt>
</event>
<event>
 5    1  0.2809073E+000  0.8982883E+02  0.7818608E-02  0.1303267E+00
          2   -1    0    0  501    0  0.00000000000E+00  0.00000000000E+00  0.26746853493E+02  0.26746853619E+02  0.26000000000E-02 0. -1.
         -2   -1    0    0    0  501 -0.00000000000E+00 -0.00000000000E+00 -0.75422137515E+02  0.75422137559E+02  0.26000000000E-02 0.  1.
         23    2    1    2    0    0  0.00000000000E+00  0.00000000000E+00 -0.48675284022E+02  0.10216899118E+03  0.89828834368E+02 0.  0.
        -11    1    3    3    0    0 -0.46194321531E+01  0.21496594138E+02  0.20207106096E+02  0.29862515801E+02  0.51100000000E-03 0. -1.
         11    1    3    3    0    0  0.46194321531E+01 -0.21496594138E+02 -0.68882390117E+02  0.72306475377E+02  0.51100000000E-03 0.  1.
<mgrwt>
<rscale>  0 0.89828834E+02</rscale>
<asrwt>0</asrwt>
<pdfrwt beam="1">  1        2 0.41149006E-02 0.89828834E+02</pdfrwt>
<pdfrwt beam="2">  1       -2 0.11603406E-01 0.89828834E+02</pdfrwt>
<totfact> 0.89672450E+04</totfact>
</mgrwt>
</event>
<event>
 5    1  0.2809073E+000  0.8947148E+02  0.7818608E-02  0.1304137E+00
          2   -1    0    0  501    0  0.00000000000E+00  0.00000000000E+00  0.12562737334E+03  0.12562737337E+03  0.26000000000E-02 0. -1.
         -2   -1    0    0    0  501 -0.00000000000E+00 -0.00000000000E+00 -0.15930337204E+02  0.15930337417E+02  0.26000000000E-02 0.  1.
         23    2    1    2    0    0  0.00000000000E+00  0.00000000000E+00  0.10969703614E+03  0.14155771079E+03  0.89471480069E+02 0.  0.
        -11    1    3    3    0    0 -0.10873343200E+02 -0.39192596839E+02  0.84320673054E+02  0.93617654019E+02  0.51100000000E-03 0. -1.
         11    1    3    3    0    0  0.10873343200E+02  0.39192596839E+02  0.25376363086E+02  0.47940056770E+02  0.51100000000E-03 0.  1.
<mgrwt>
<rscale>  0 0.89471480E+02</rscale>
<asrwt>0</asrwt>
<pdfrwt beam="1">  1        2 0.19327289E-01 0.89471480E+02</pdfrwt>
<pdfrwt beam="2">  1       -2 0.24508211E-02 0.89471480E+02</pdfrwt>
<totfact> 0.13875600E+05</totfact>
</mgrwt>
</event>
<event>
 5    1  0.2809073E+000  0.9055491E+02  0.7818608E-02  0.1301513E+00
          2   -1    0    0  501    0  0.00000000000E+00  0.00000000000E+00  0.35649937199E+03  0.35649937200E+03  0.26000000000E-02 0. -1.
         -2   -1    0    0    0  501 -0.00000000000E+00 -0.00000000000E+00 -0.57504942964E+01  0.57504948841E+01  0.26000000000E-02 0.  1.
         23    2    1    2    0    0  0.00000000000E+00  0.00000000000E+00  0.35074887770E+03  0.36224986689E+03  0.90554905190E+02 0.  0.
        -11    1    3    3    0    0  0.37550373825E+02  0.24002260940E+02  0.14339462471E+03  0.15016043920E+03  0.51100000000E-03 0.  1.
         11    1    3    3    0    0 -0.37550373825E+02 -0.24002260940E+02  0.20735425299E+03  0.21208942769E+03  0.51100000000E-03 0. -1.
<mgrwt>
<rscale>  0 0.90554905E+02</rscale>
<asrwt>0</asrwt>
<pdfrwt beam="1">  1        2 0.54846074E-01 0.90554905E+02</pdfrwt>
<pdfrwt beam="2">  1       -2 0.88469121E-03 0.90554905E+02</pdfrwt>
<totfact> 0.19499523E+05</totfact>
</mgrwt>
</event>
<event>
 5    1  0.2809073E+000  0.8773341E+02  0.7818608E-02  0.1308435E+00
         -2   -1    0    0    0  501 -0.00000000000E+00  0.00000000000E+00  0.49584047152E+02  0.49584047220E+02  0.26000000000E-02 0.  1.
          2   -1    0    0  501    0  0.00000000000E+00 -0.00000000000E+00 -0.38808609452E+02  0.38808609539E+02  0.26000000000E-02 0. -1.
         23    2    1    2    0    0  0.00000000000E+00  0.00000000000E+00  0.10775437699E+02  0.88392656759E+02  0.87733412742E+02 0.  0.
        -11    1    3    3    0    0  0.30843355257E+02 -0.90229042043E+01 -0.24695692096E+02  0.40529033693E+02  0.51100000000E-03 0. -1.
         11    1    3    3    0    0 -0.30843355257E+02  0.90229042043E+01  0.35471129795E+02  0.47863623066E+02  0.51100000000E-03 0.  1.
<mgrwt>
<rscale>  0 0.87733413E+02</rscale>
<asrwt>0</asrwt>
<pdfrwt beam="2">  1        2 0.59705554E-02 0.87733413E+02</pdfrwt>
<pdfrwt beam="1">  1       -2 0.76283149E-02 0.87733413E+02</pdfrwt>
<totfact> 0.10577774E+05</totfact>
</mgrwt>
</event>
<event>
 5    1  0.2809073E+000  0.9439101E+02  0.7818608E-02  0.1292554E+00
          2   -1    0    0  501    0  0.00000000000E+00  0.00000000000E+00  0.24954385722E+03  0.24954385723E+03  0.26000000000E-02 0. -1.
         -2   -1    0    0    0  501 -0.00000000000E+00 -0.00000000000E+00 -0.89259476518E+01  0.89259480305E+01  0.26000000000E-02 0.  1.
         23    2    1    2    0    0  0.00000000000E+00  0.00000000000E+00  0.24061790957E+03  0.25846980526E+03  0.94391005017E+02 0.  0.
        -11    1    3    3    0    0  0.12047323016E+02  0.35441043379E+02  0.41599952901E+02  0.55962144610E+02  0.51100000000E-03 0.  1.
         11    1    3    3    0    0 -0.12047323016E+02 -0.35441043379E+02  0.19901795666E+03  0.20250766065E+03  0.51100000000E-03 0. -1.
<mgrwt>
<rscale>  0 0.94391005E+02</rscale>
<asrwt>0</asrwt>
<pdfrwt beam="1">  1        2 0.38391357E-01 0.94391005E+02</pdfrwt>
<pdfrwt beam="2">  1       -2 0.13732229E-02 0.94391005E+02</pdfrwt>
<totfact> 0.15284559E+05</totfact>
</mgrwt>
</event>
<event>
 5    1  0.2809073E+000  0.9433397E+02  0.7818608E-02  0.1292683E+00
          2   -1    0    0  501    0  0.00000000000E+00  0.00000000000E+00  0.77984999874E+02  0.77984999917E+02  0.26000000000E-02 0. -1.
         -2   -1    0    0    0  501 -0.00000000000E+00 -0.00000000000E+00 -0.28527596303E+02  0.28527596422E+02  0.26000000000E-02 0.  1.
         23    2    1    2    0    0  0.00000000000E+00  0.00000000000E+00  0.49457403570E+02  0.10651259634E+03  0.94333972730E+02 0.  0.
        -11    1    3    3    0    0  0.33808126859E+02  0.32710966298E+02  0.28595414871E+02  0.55051743931E+02  0.51100000000E-03 0. -1.
         11    1    3    3    0    0 -0.33808126859E+02 -0.32710966298E+02  0.20861988699E+02  0.51460852408E+02  0.51100000000E-03 0.  1.
<mgrwt>
<rscale>  0 0.94333973E+02</rscale>
<asrwt>0</asrwt>
<pdfrwt beam="1">  1        2 0.11997692E-01 0.94333973E+02</pdfrwt>
<pdfrwt beam="2">  1       -2 0.43888610E-02 0.94333973E+02</pdfrwt>
<totfact> 0.10368227E+05</totfact>
</mgrwt>
</event>
<event>
 5    1  0.2809073E+000  0.9175331E+02  0.7818608E-02  0.1298661E+00
          2   -1    0    0  501    0  0.00000000000E+00  0.00000000000E+00  0.15488022050E+03  0.15488022052E+03  0.26000000000E-02 0.  1.
         -2   -1    0    0    0  501 -0.00000000000E+00 -0.00000000000E+00 -0.13588999605E+02  0.13588999854E+02  0.26000000000E-02 0. -1.
         23    2    1    2    0    0  0.00000000000E+00  0.00000000000E+00  0.14129122089E+03  0.16846922038E+03  0.91753305729E+02 0.  0.
        -11    1    3    3    0    0 -0.21018970694E+01 -0.35059062297E+02  0.12483767653E+03  0.12968423690E+03  0.51100000000E-03 0.  1.
         11    1    3    3    0    0  0.21018970694E+01  0.35059062297E+02  0.16453544369E+02  0.38784983473E+02  0.51100000000E-03 0. -1.
<mgrwt>
<rscale>  0 0.91753306E+02</rscale>
<asrwt>0</asrwt>
<pdfrwt beam="1">  1        2 0.23827728E-01 0.91753306E+02</pdfrwt>
<pdfrwt beam="2">  1       -2 0.20906152E-02 0.91753306E+02</pdfrwt>
<totfact> 0.13894835E+05</totfact>
</mgrwt>
</event>
<event>
 5    1  0.2809073E+000  0.9932055E+02  0.7818608E-02  0.1281731E+00
          2   -1    0    0  501    0  0.00000000000E+00  0.00000000000E+00  0.27540136516E+02  0.27540136639E+02  0.26000000000E-02 0.  1.
         -2   -1    0    0    0  501 -0.00000000000E+00 -0.00000000000E+00 -0.89547223287E+02  0.89547223325E+02  0.26000000000E-02 0. -1.
         23    2    1    2    0    0  0.00000000000E+00  0.00000000000E+00 -0.62007086771E+02  0.11708735996E+03  0.99320546985E+02 0.  0.
        -11    1    3    3    0    0  0.18088225017E+02  0.28035289751E+02 -0.74366294259E+02  0.81507711769E+02  0.51100000000E-03 0. -1.
         11    1    3    3    0    0 -0.18088225017E+02 -0.28035289751E+02  0.12359207488E+02  0.35579648195E+02  0.51100000000E-03 0.  1.
<mgrwt>
<rscale>  0 0.99320547E+02</rscale>
<asrwt>0</asrwt>
<pdfrwt beam="1">  1        2 0.42369441E-02 0.99320547E+02</pdfrwt>
<pdfrwt beam="2">  1       -2 0.13776496E-01 0.99320547E+02</pdfrwt>
<totfact> 0.66716467E+04</totfact>
</mgrwt>
</event>
<event>
 5    1  0.2809073E+000  0.8406482E+02  0.7818608E-02  0.1317896E+00
         -2   -1    0    0    0  501 -0.00000000000E+00  0.00000000000E+00  0.79569925349E+02  0.79569925392E+02  0.26000000000E-02 0.  1.
          2   -1    0    0  501    0  0.00000000000E+00 -0.00000000000E+00 -0.22203407062E+02  0.22203407215E+02  0.26000000000E-02 0. -1.
         23    2    1    2    0    0  0.00000000000E+00  0.00000000000E+00  0.57366518287E+02  0.10177333261E+03  0.84064819095E+02 0.  0.
        -11    1    3    3    0    0 -0.24774905991E+02 -0.33933956401E+02  0.27243605664E+02  0.50075177620E+02  0.51100000000E-03 0. -1.
         11    1    3    3    0    0  0.24774905991E+02  0.33933956401E+02  0.30122912623E+02  0.51698154987E+02  0.51100000000E-03 0.  1.
<mgrwt>
<rscale>  0 0.84064819E+02</rscale>
<asrwt>0</asrwt>
<pdfrwt beam="2">  1        2 0.34159088E-02 0.84064819E+02</pdfrwt>
<pdfrwt beam="1">  1       -2 0.12241527E-01 0.84064819E+02</pdfrwt>
<totfact> 0.10402920E+05</totfact>
</mgrwt>
</event>
<event>
 5    1  0.2809073E+000  0.9165443E+02  0.7818608E-02  0.1298894E+00
          2   -1    0    0  501    0  0.00000000000E+00  0.00000000000E+00  0.10724932098E+03  0.10724932102E+03  0.26000000000E-02 0. -1.
         -2   -1    0    0    0  501 -0.00000000000E+00 -0.00000000000E+00 -0.19581788947E+02  0.19581789119E+02  0.26000000000E-02 0.  1.
         23    2    1    2    0    0  0.00000000000E+00  0.00000000000E+00  0.87667532037E+02  0.12683111013E+03  0.91654428832E+02 0.  0.
        -11    1    3    3    0    0 -0.45360302557E+02  0.33127221042E+01  0.36054611354E+02  0.58038488746E+02  0.51100000000E-03 0.  1.
         11    1    3    3    0    0  0.45360302557E+02 -0.33127221042E+01  0.51612920684E+02  0.68792621389E+02  0.51100000000E-03 0. -1.
<mgrwt>
<rscale>  0 0.91654429E+02</rscale>
<asrwt>0</asrwt>
<pdfrwt beam="1">  1        2 0.16499896E-01 0.91654429E+02</pdfrwt>
<pdfrwt beam="2">  1       -2 0.30125829E-02 0.91654429E+02</pdfrwt>
<totfact> 0.12355758E+05</totfact>
</mgrwt>
</event>
<event>
 5    1  0.2809073E+000  0.9142240E+02  0.7818608E-02  0.1299443E+00
         -2   -1    0    0    0  501 -0.00000000000E+00  0.00000000000E+00  0.23761961058E+02  0.23761961200E+02  0.26000000000E-02 0.  1.
          2   -1    0    0  501    0  0.00000000000E+00 -0.00000000000E+00 -0.87935244073E+02  0.87935244111E+02  0.26000000000E-02 0. -1.
         23    2    1    2    0    0  0.00000000000E+00  0.00000000000E+00 -0.64173283015E+02  0.11169720531E+03  0.91422401092E+02 0.  0.
        -11    1    3    3    0    0 -0.40987176651E+02  0.20152470465E+02 -0.34353722267E+02  0.57151106284E+02  0.51100000000E-03 0.  1.
         11    1    3    3    0    0  0.40987176651E+02 -0.20152470465E+02 -0.29819560748E+02  0.54546099027E+02  0.51100000000E-03 0. -1.
<mgrwt>
<rscale>  0 0.91422401E+02</rscale>
<asrwt>0</asrwt>
<pdfrwt beam="2">  1        2 0.13528499E-01 0.91422401E+02</pdfrwt>
<pdfrwt beam="1">  1       -2 0.36556864E-02 0.91422401E+02</pdfrwt>
<totfact> 0.11717154E+05</totfact>
</mgrwt>
</event>
<event>
 5    1  0.2809073E+000  0.9126746E+02  0.7818608E-02  0.1299811E+00
          2   -1    0    0  501    0  0.00000000000E+00  0.00000000000E+00  0.13546831466E+02  0.13546831715E+02  0.26000000000E-02 0. -1.
         -2   -1    0    0    0  501 -0.00000000000E+00 -0.00000000000E+00 -0.15372136089E+03  0.15372136091E+03  0.26000000000E-02 0.  1.
         23    2    1    2    0    0  0.00000000000E+00  0.00000000000E+00 -0.14017452942E+03  0.16726819263E+03  0.91267461702E+02 0.  0.
        -11    1    3    3    0    0 -0.40818045475E+02  0.68777214120E+01 -0.10529379520E+03  0.11313796532E+03  0.51100000000E-03 0.  1.
         11    1    3    3    0    0  0.40818045475E+02 -0.68777214120E+01 -0.34880734220E+02  0.54130227306E+02  0.51100000000E-03 0. -1.
<mgrwt>
<rscale>  0 0.91267462E+02</rscale>
<asrwt>0</asrwt>
<pdfrwt beam="1">  1        2 0.20841280E-02 0.91267462E+02</pdfrwt>
<pdfrwt beam="2">  1       -2 0.23649439E-01 0.91267462E+02</pdfrwt>
<totfact> 0.69057662E+04</totfact>
</mgrwt>
</event>
<event>
 5    1  0.2809073E+000  0.9287920E+02  0.7818608E-02  0.1296025E+00
         -2   -1    0    0    0  501 -0.00000000000E+00  0.00000000000E+00  0.20880474814E+02  0.20880474976E+02  0.26000000000E-02 0.  1.
          2   -1    0    0  501    0  0.00000000000E+00 -0.00000000000E+00 -0.10328484156E+03  0.10328484159E+03  0.26000000000E-02 0. -1.
         23    2    1    2    0    0  0.00000000000E+00  0.00000000000E+00 -0.82404366748E+02  0.12416531657E+03  0.92879202085E+02 0.  0.
        -11    1    3    3    0    0 -0.25759537225E+02  0.30108702200E+02 -0.88253840130E+01  0.40595259692E+02  0.51100000000E-03 0.  1.
         11    1    3    3    0    0  0.25759537225E+02 -0.30108702200E+02 -0.73578982735E+02  0.83570056879E+02  0.51100000000E-03 0. -1.
<mgrwt>
<rscale>  0 0.92879202E+02</rscale>
<asrwt>0</asrwt>
<pdfrwt beam="2">  1        2 0.15889975E-01 0.92879202E+02</pdfrwt>
<pdfrwt beam="1">  1       -2 0.32123808E-02 0.92879202E+02</pdfrwt>
<totfact> 0.11773755E+05</totfact>
</mgrwt>
</event>
<event>
 5    1  0.2809073E+000  0.1012450E+03  0.7818608E-02  0.1277699E+00
          2   -1    0    0  501    0  0.00000000000E+00  0.00000000000E+00  0.21815295421E+03  0.21815295423E+03  0.26000000000E-02 0. -1.
         -2   -1    0    0    0  501 -0.00000000000E+00 -0.00000000000E+00 -0.11746977032E+02  0.11746977320E+02  0.26000000000E-02 0.  1.
         23    2    1    2    0    0  0.00000000000E+00  0.00000000000E+00  0.20640597718E+03  0.22989993155E+03  0.10124500536E+03 0.  0.
        -11    1    3    3    0    0  0.10758738478E+02 -0.49370149944E+02  0.11019285716E+03  0.12122552507E+03  0.51100000000E-03 0.  1.
         11    1    3    3    0    0 -0.10758738478E+02  0.49370149944E+02  0.96213120018E+02  0.10867440648E+03  0.51100000000E-03 0. -1.
<mgrwt>
<rscale>  0 0.10124501E+03</rscale>
<asrwt>0</asrwt>
<pdfrwt beam="1">  1        2 0.33561991E-01 0.10124501E+03</pdfrwt>
<pdfrwt beam="2">  1       -2 0.18072274E-02 0.10124501E+03</pdfrwt>
<totfact> 0.12026076E+05</totfact>
</mgrwt>
</event>
<event>
 5    1  0.2809073E+000  0.9030077E+02  0.7818608E-02  0.1302125E+00
          2   -1    0    0  501    0  0.00000000000E+00  0.00000000000E+00  0.73260860067E+02  0.73260860113E+02  0.26000000000E-02 0. -1.
         -2   -1    0    0    0  501 -0.00000000000E+00 -0.00000000000E+00 -0.27826004951E+02  0.27826005072E+02  0.26000000000E-02 0.  1.
         23    2    1    2    0    0  0.00000000000E+00  0.00000000000E+00  0.45434855116E+02  0.10108686518E+03  0.90300765520E+02 0.  0.
        -11    1    3    3    0    0  0.19037457115E+02 -0.18604867002E+02 -0.18107712439E+02  0.32194022731E+02  0.51100000000E-03 0.  1.
         11    1    3    3    0    0 -0.19037457115E+02  0.18604867002E+02  0.63542567555E+02  0.68892842454E+02  0.51100000000E-03 0. -1.
<mgrwt>
<rscale>  0 0.90300766E+02</rscale>
<asrwt>0</asrwt>
<pdfrwt beam="1">  1        2 0.11270901E-01 0.90300766E+02</pdfrwt>
<pdfrwt beam="2">  1       -2 0.42809239E-02 0.90300766E+02</pdfrwt>
<totfact> 0.11508703E+05</totfact>
</mgrwt>
</event>
<event>
 5    1  0.2809073E+000  0.9175318E+02  0.7818608E-02  0.1298661E+00
          2   -1    0    0  501    0  0.00000000000E+00  0.00000000000E+00  0.42108483669E+02  0.42108483749E+02  0.26000000000E-02 0. -1.
         -2   -1    0    0    0  501 -0.00000000000E+00 -0.00000000000E+00 -0.49981887965E+02  0.49981888032E+02  0.26000000000E-02 0.  1.
         23    2    1    2    0    0  0.00000000000E+00  0.00000000000E+00 -0.78734042956E+01  0.92090371781E+02  0.91753180215E+02 0.  0.
        -11    1    3    3    0    0 -0.37527469006E+01 -0.45266102429E+02 -0.10406972265E+02  0.46598371327E+02  0.51100000000E-03 0.  1.
         11    1    3    3    0    0  0.37527469006E+01  0.45266102429E+02  0.25335679690E+01  0.45492000454E+02  0.51100000000E-03 0. -1.
<mgrwt>
<rscale>  0 0.91753180E+02</rscale>
<asrwt>0</asrwt>
<pdfrwt beam="1">  1        2 0.64782283E-02 0.91753180E+02</pdfrwt>
<pdfrwt beam="2">  1       -2 0.76895212E-02 0.91753180E+02</pdfrwt>
<totfact> 0.94920362E+04</totfact>
</mgrwt>
</event>
<event>
 5    1  0.2809073E+000  0.8970036E+02  0.7818608E-02  0.1303579E+00
         -2   -1    0    0    0  501 -0.00000000000E+00  0.00000000000E+00  0.12882883727E+03  0.12882883730E+03  0.26000000000E-02 0.  1.
          2   -1    0    0  501    0  0.00000000000E+00 -0.00000000000E+00 -0.15614038521E+02  0.15614038738E+02  0.26000000000E-02 0. -1.
         23    2    1    2    0    0  0.00000000000E+00  0.00000000000E+00  0.11321479875E+03  0.14444287604E+03  0.89700355527E+02 0.  0.
        -11    1    3    3    0    0 -0.39217917586E+02 -0.65330840196E+01  0.90030440155E+02  0.98418526717E+02  0.51100000000E-03 0.  1.
         11    1    3    3    0    0  0.39217917586E+02  0.65330840196E+01  0.23184358599E+02  0.46024349321E+02  0.51100000000E-03 0. -1.
<mgrwt>
<rscale>  0 0.89700356E+02</rscale>
<asrwt>0</asrwt>
<pdfrwt beam="2">  1        2 0.24021597E-02 0.89700356E+02</pdfrwt>
<pdfrwt beam="1">  1       -2 0.19819822E-01 0.89700356E+02</pdfrwt>
<totfact> 0.76759900E+04</totfact>
</mgrwt>
</event>
<event>
 5    1  0.2809073E+000  0.8847471E+02  0.7818608E-02  0.1306588E+00
          2   -1    0    0  501    0  0.00000000000E+00  0.00000000000E+00  0.64028346758E+02  0.64028346810E+02  0.26000000000E-02 0.  1.
         -2   -1    0    0    0  501 -0.00000000000E+00 -0.00000000000E+00 -0.30563705542E+02  0.30563705652E+02  0.26000000000E-02 0. -1.
         23    2    1    2    0    0  0.00000000000E+00  0.00000000000E+00  0.33464641216E+02  0.94592052463E+02  0.88474709253E+02 0.  0.
        -11    1    3    3    0    0  0.36377749170E+02  0.23503115715E+02  0.26366856460E+02  0.50704518564E+02  0.51100000000E-03 0.  1.
         11    1    3    3    0    0 -0.36377749170E+02 -0.23503115715E+02  0.70977847556E+01  0.43887533898E+02  0.51100000000E-03 0. -1.
<mgrwt>
<rscale>  0 0.88474709E+02</rscale>
<asrwt>0</asrwt>
<pdfrwt beam="1">  1        2 0.98505149E-02 0.88474709E+02</pdfrwt>
<pdfrwt beam="2">  1       -2 0.47021085E-02 0.88474709E+02</pdfrwt>
<totfact> 0.11743692E+05</totfact>
</mgrwt>
</event>
<event>
 5    1  0.2809073E+000  0.9079105E+02  0.7818608E-02  0.1300947E+00
         -2   -1    0    0    0  501 -0.00000000000E+00  0.00000000000E+00  0.27328636632E+03  0.27328636634E+03  0.26000000000E-02 0.  1.
          2   -1    0    0  501    0  0.00000000000E+00 -0.00000000000E+00 -0.75406378518E+01  0.75406383001E+01  0.26000000000E-02 0. -1.
         23    2    1    2    0    0  0.00000000000E+00  0.00000000000E+00  0.26574572847E+03  0.28082700464E+03  0.90791047641E+02 0.  0.
        -11    1    3    3    0    0 -0.25980001162E+02  0.27633974836E+02  0.21002459650E+03  0.21342194863E+03  0.51100000000E-03 0.  1.
         11    1    3    3    0    0  0.25980001162E+02 -0.27633974836E+02  0.55721131976E+02  0.67405056001E+02  0.51100000000E-03 0. -1.
<mgrwt>
<rscale>  0 0.90791048E+02</rscale>
<asrwt>0</asrwt>
<pdfrwt beam="2">  1        2 0.11600979E-02 0.90791048E+02</pdfrwt>
<pdfrwt beam="1">  1       -2 0.42044065E-01 0.90791048E+02</pdfrwt>
<totfact> 0.54251406E+04</totfact>
</mgrwt>
</event>
<event>
 5    1  0.2809073E+000  0.9153137E+02  0.7818608E-02  0.1299185E+00
         -2   -1    0    0    0  501 -0.00000000000E+00  0.00000000000E+00  0.13429202782E+02  0.13429203034E+02  0.26000000000E-02 0.  1.
          2   -1    0    0  501    0  0.00000000000E+00 -0.00000000000E+00 -0.15596591948E+03  0.15596591950E+03  0.26000000000E-02 0. -1.
         23    2    1    2    0    0  0.00000000000E+00  0.00000000000E+00 -0.14253671670E+03  0.16939512254E+03  0.91531371298E+02 0.  0.
        -11    1    3    3    0    0 -0.12612957827E+02  0.35413799904E+02 -0.22963383858E+02  0.44051571223E+02  0.51100000000E-03 0.  1.
         11    1    3    3    0    0  0.12612957827E+02 -0.35413799904E+02 -0.11957333284E+03  0.12534355131E+03  0.51100000000E-03 0. -1.
<mgrwt>
<rscale>  0 0.91531371E+02</rscale>
<asrwt>0</asrwt>
<pdfrwt beam="2">  1        2 0.23994756E-01 0.91531371E+02</pdfrwt>
<pdfrwt beam="1">  1       -2 0.20660313E-02 0.91531371E+02</pdfrwt>
<totfact> 0.14020097E+05</totfact>
</mgrwt>
</event>
<event>
 5    1  0.2809073E+000  0.9070912E+02  0.7818608E-02  0.1301143E+00
         -2   -1    0    0    0  501 -0.00000000000E+00  0.00000000000E+00  0.11248200037E+02  0.11248200338E+02  0.26000000000E-02 0. -1.
          2   -1    0    0  501    0  0.00000000000E+00 -0.00000000000E+00 -0.18287691943E+03  0.18287691945E+03  0.26000000000E-02 0.  1.
         23    2    1    2    0    0  0.00000000000E+00  0.00000000000E+00 -0.17162871940E+03  0.19412511979E+03  0.90709121986E+02 0.  0.
        -11    1    3    3    0    0 -0.85751330549E+00  0.45165779589E+02 -0.77160048347E+02  0.89411162816E+02  0.51100000000E-03 0. -1.
         11    1    3    3    0    0  0.85751330549E+00 -0.45165779589E+02 -0.94468671048E+02  0.10471395697E+03  0.51100000000E-03 0.  1.
<mgrwt>
<rscale>  0 0.90709122E+02</rscale>
<asrwt>0</asrwt>
<pdfrwt beam="2">  1        2 0.28134909E-01 0.90709122E+02</pdfrwt>
<pdfrwt beam="1">  1       -2 0.17304925E-02 0.90709122E+02</pdfrwt>
<totfact> 0.15188084E+05</totfact>
</mgrwt>
</event>
<event>
 5    1  0.2809073E+000  0.9150266E+02  0.7818608E-02  0.1299253E+00
          2   -1    0    0  501    0  0.00000000000E+00  0.00000000000E+00  0.17268245047E+02  0.17268245243E+02  0.26000000000E-02 0. -1.
         -2   -1    0    0    0  501 -0.00000000000E+00 -0.00000000000E+00 -0.12121580186E+03  0.12121580189E+03  0.26000000000E-02 0.  1.
         23    2    1    2    0    0  0.00000000000E+00  0.00000000000E+00 -0.10394755681E+03  0.13848404713E+03  0.91502659755E+02 0.  0.
        -11    1    3    3    0    0  0.27566302489E+02 -0.36088650154E+02 -0.60385646099E+02  0.75556058380E+02  0.51100000000E-03 0. -1.
         11    1    3    3    0    0 -0.27566302489E+02  0.36088650154E+02 -0.43561910715E+02  0.62927988751E+02  0.51100000000E-03 0.  1.
<mgrwt>
<rscale>  0 0.91502660E+02</rscale>
<asrwt>0</asrwt>
<pdfrwt beam="1">  1        2 0.26566532E-02 0.91502660E+02</pdfrwt>
<pdfrwt beam="2">  1       -2 0.18648584E-01 0.91502660E+02</pdfrwt>
<totfact> 0.74499829E+04</totfact>
</mgrwt>
</event>
<event>
 5    1  0.2809073E+000  0.8938650E+02  0.7818608E-02  0.1304344E+00
          2   -1    0    0  501    0  0.00000000000E+00  0.00000000000E+00  0.13808041110E+03  0.13808041112E+03  0.26000000000E-02 0. -1.
         -2   -1    0    0    0  501 -0.00000000000E+00 -0.00000000000E+00 -0.14466111089E+02  0.14466111322E+02  0.26000000000E-02 0.  1.
         23    2    1    2    0    0  0.00000000000E+00  0.00000000000E+00  0.12361430001E+03  0.15254652245E+03  0.89386499782E+02 0.  0.
        -11    1    3    3    0    0  0.96974834177E+01 -0.32518610557E+02  0.12169432154E+02  0.36049913959E+02  0.51100000000E-03 0.  1.
         11    1    3    3    0    0 -0.96974834177E+01  0.32518610557E+02  0.11144486786E+03  0.11649660849E+03  0.51100000000E-03 0. -1.
<mgrwt>
<rscale>  0 0.89386500E+02</rscale>
<asrwt>0</asrwt>
<pdfrwt beam="1">  1        2 0.21243140E-01 0.89386500E+02</pdfrwt>
<pdfrwt beam="2">  1       -2 0.22255556E-02 0.89386500E+02</pdfrwt>
<totfact> 0.14348840E+05</totfact>
</mgrwt>
</event>
<event>
 5    1  0.2809073E+000  0.9123065E+02  0.7818608E-02  0.1299899E+00
         -2   -1    0    0    0  501 -0.00000000000E+00  0.00000000000E+00  0.53051075307E+01  0.53051081678E+01  0.26000000000E-02 0.  1.
          2   -1    0    0  501    0  0.00000000000E+00 -0.00000000000E+00 -0.39221780326E+03  0.39221780327E+03  0.26000000000E-02 0. -1.
         23    2    1    2    0    0  0.00000000000E+00  0.00000000000E+00 -0.38691269573E+03  0.39752291144E+03  0.91230647265E+02 0.  0.
        -11    1    3    3    0    0  0.45267295434E+02 -0.39041534164E+01 -0.21109539459E+03  0.21592970168E+03  0.51100000000E-03 0. -1.
         11    1    3    3    0    0 -0.45267295434E+02  0.39041534164E+01 -0.17581730114E+03  0.18159320976E+03  0.51100000000E-03 0.  1.
<mgrwt>
<rscale>  0 0.91230647E+02</rscale>
<asrwt>0</asrwt>
<pdfrwt beam="2">  1        2 0.60341178E-01 0.91230647E+02</pdfrwt>
<pdfrwt beam="1">  1       -2 0.81617074E-03 0.91230647E+02</pdfrwt>
<totfact> 0.19791333E+05</totfact>
</mgrwt>
</event>
<event>
 5    1  0.2809073E+000  0.9102557E+02  0.7818608E-02  0.1300387E+00
          2   -1    0    0  501    0  0.00000000000E+00  0.00000000000E+00  0.48834919317E+03  0.48834919317E+03  0.26000000000E-02 0. -1.
         -2   -1    0    0    0  501 -0.00000000000E+00 -0.00000000000E+00 -0.42416642484E+01  0.42416650452E+01  0.26000000000E-02 0.  1.
         23    2    1    2    0    0  0.00000000000E+00  0.00000000000E+00  0.48410752892E+03  0.49259085822E+03  0.91025568086E+02 0.  0.
        -11    1    3    3    0    0 -0.45243051691E+02 -0.49401284794E+01  0.24057258279E+03  0.24483975614E+03  0.51100000000E-03 0. -1.
         11    1    3    3    0    0  0.45243051691E+02  0.49401284794E+01  0.24353494613E+03  0.24775110208E+03  0.51100000000E-03 0.  1.
<mgrwt>
<rscale>  0 0.91025568E+02</rscale>
<asrwt>0</asrwt>
<pdfrwt beam="1">  1        2 0.75130640E-01 0.91025568E+02</pdfrwt>
<pdfrwt beam="2">  1       -2 0.65256384E-03 0.91025568E+02</pdfrwt>
<totfact> 0.21478353E+05</totfact>
</mgrwt>
</event>
<event>
 5    1  0.2809073E+000  0.9151591E+02  0.7818608E-02  0.1299222E+00
          2   -1    0    0  501    0  0.00000000000E+00  0.00000000000E+00  0.60897130869E+01  0.60897136420E+01  0.26000000000E-02 0. -1.
         -2   -1    0    0    0  501 -0.00000000000E+00 -0.00000000000E+00 -0.34382412862E+03  0.34382412863E+03  0.26000000000E-02 0.  1.
         23    2    1    2    0    0  0.00000000000E+00  0.00000000000E+00 -0.33773441553E+03  0.34991384227E+03  0.91515908879E+02 0.  0.
        -11    1    3    3    0    0 -0.36777835635E+02 -0.21463875699E+02 -0.10483212372E+03  0.11315070180E+03  0.51100000000E-03 0.  1.
         11    1    3    3    0    0  0.36777835635E+02  0.21463875699E+02 -0.23290229181E+03  0.23676314047E+03  0.51100000000E-03 0. -1.
<mgrwt>
<rscale>  0 0.91515909E+02</rscale>
<asrwt>0</asrwt>
<pdfrwt beam="1">  1        2 0.93687925E-03 0.91515909E+02</pdfrwt>
<pdfrwt beam="2">  1       -2 0.52896005E-01 0.91515909E+02</pdfrwt>
<totfact> 0.46622274E+04</totfact>
</mgrwt>
</event>
<event>
 5    1  0.2809073E+000  0.8966001E+02  0.7818608E-02  0.1303677E+00
         -2   -1    0    0    0  501 -0.00000000000E+00  0.00000000000E+00  0.79212659863E+01  0.79212664130E+01  0.26000000000E-02 0.  1.
          2   -1    0    0  501    0  0.00000000000E+00 -0.00000000000E+00 -0.25371316000E+03  0.25371316002E+03  0.26000000000E-02 0. -1.
         23    2    1    2    0    0  0.00000000000E+00  0.00000000000E+00 -0.24579189402E+03  0.26163442643E+03  0.89660012986E+02 0.  0.
        -11    1    3    3    0    0  0.31510199273E+01 -0.43890191289E+02 -0.14790498065E+03  0.15431189558E+03  0.51100000000E-03 0. -1.
         11    1    3    3    0    0 -0.31510199273E+01  0.43890191289E+02 -0.97886913367E+02  0.10732253084E+03  0.51100000000E-03 0.  1.
<mgrwt>
<rscale>  0 0.89660013E+02</rscale>
<asrwt>0</asrwt>
<pdfrwt beam="2">  1        2 0.39032788E-01 0.89660013E+02</pdfrwt>
<pdfrwt beam="1">  1       -2 0.12186565E-02 0.89660013E+02</pdfrwt>
<totfact> 0.17652019E+05</totfact>
</mgrwt>
</event>
<event>
 5    1  0.2809073E+000  0.9119020E+02  0.7818608E-02  0.1299995E+00
         -2   -1    0    0    0  501 -0.00000000000E+00  0.00000000000E+00  0.14920555182E+02  0.14920555409E+02  0.26000000000E-02 0.  1.
          2   -1    0    0  501    0  0.00000000000E+00 -0.00000000000E+00 -0.13933215535E+03  0.13933215537E+03  0.26000000000E-02 0. -1.
         23    2    1    2    0    0  0.00000000000E+00  0.00000000000E+00 -0.12441160017E+03  0.15425271078E+03  0.91190199735E+02 0.  0.
        -11    1    3    3    0    0 -0.15585344945E+02 -0.42824101847E+02 -0.59750747500E+02  0.75146247432E+02  0.51100000000E-03 0. -1.
         11    1    3    3    0    0  0.15585344945E+02  0.42824101847E+02 -0.64660852668E+02  0.79106463352E+02  0.51100000000E-03 0.  1.
<mgrwt>
<rscale>  0 0.91190200E+02</rscale>
<asrwt>0</asrwt>
<pdfrwt beam="2">  1        2 0.21435715E-01 0.91190200E+02</pdfrwt>
<pdfrwt beam="1">  1       -2 0.22954701E-02 0.91190200E+02</pdfrwt>
<totfact> 0.13632087E+05</totfact>
</mgrwt>
</event>
<event>
 5    1  0.2809073E+000  0.9085851E+02  0.7818608E-02  0.1300786E+00
          2   -1    0    0  501    0  0.00000000000E+00  0.00000000000E+00  0.19704804999E+03  0.19704805001E+03  0.26000000000E-02 0. -1.
         -2   -1    0    0    0  501 -0.00000000000E+00 -0.00000000000E+00 -0.10473675086E+02  0.10473675408E+02  0.26000000000E-02 0.  1.
         23    2    1    2    0    0  0.00000000000E+00  0.00000000000E+00  0.18657437490E+03  0.20752172542E+03  0.90858511701E+02 0.  0.
        -11    1    3    3    0    0  0.25208433463E+00  0.30744026443E+02  0.16967557055E+03  0.17243856282E+03  0.51100000000E-03 0. -1.
         11    1    3    3    0    0 -0.25208433463E+00 -0.30744026443E+02  0.16898804359E+02  0.35083162592E+02  0.51100000000E-03 0.  1.
<mgrwt>
<rscale>  0 0.90858512E+02</rscale>
<asrwt>0</asrwt>
<pdfrwt beam="1">  1        2 0.30315085E-01 0.90858512E+02</pdfrwt>
<pdfrwt beam="2">  1       -2 0.16113346E-02 0.90858512E+02</pdfrwt>
<totfact> 0.15530678E+05</totfact>
</mgrwt>
</event>
<event>
 5    1  0.2809073E+000  0.9163714E+02  0.7818608E-02  0.1298935E+00
          2   -1    0    0  501    0  0.00000000000E+00  0.00000000000E+00  0.45171714466E+02  0.45171714541E+02  0.26000000000E-02 0. -1.
         -2   -1    0    0    0  501 -0.00000000000E+00 -0.00000000000E+00 -0.46474690467E+02  0.46474690540E+02  0.26000000000E-02 0.  1.
         23    2    1    2    0    0  0.00000000000E+00  0.00000000000E+00 -0.13029760011E+01  0.91646405080E+02  0.91637142130E+02 0.  0.
        -11    1    3    3    0    0 -0.21903740047E+02 -0.21483556943E+02  0.33381709499E+02  0.45339338066E+02  0.51100000000E-03 0. -1.
         11    1    3    3    0    0  0.21903740047E+02  0.21483556943E+02 -0.34684685500E+02  0.46307067014E+02  0.51100000000E-03 0.  1.
<mgrwt>
<rscale>  0 0.91637142E+02</rscale>
<asrwt>0</asrwt>
<pdfrwt beam="1">  1        2 0.69494945E-02 0.91637142E+02</pdfrwt>
<pdfrwt beam="2">  1       -2 0.71499525E-02 0.91637142E+02</pdfrwt>
<totfact> 0.97024420E+04</totfact>
</mgrwt>
</event>
<event>
 5    1  0.2809073E+000  0.7802448E+02  0.7818608E-02  0.1334753E+00
          2   -1    0    0  501    0  0.00000000000E+00  0.00000000000E+00  0.38773218025E+02  0.38773218112E+02  0.26000000000E-02 0.  1.
         -2   -1    0    0    0  501 -0.00000000000E+00 -0.00000000000E+00 -0.39252738518E+02  0.39252738604E+02  0.26000000000E-02 0. -1.
         23    2    1    2    0    0  0.00000000000E+00  0.00000000000E+00 -0.47952049320E+00  0.78025956717E+02  0.78024483219E+02 0.  0.
        -11    1    3    3    0    0  0.10898336421E+02  0.35983095652E+02  0.10171876512E+02  0.38948992047E+02  0.51100000000E-03 0.  1.
         11    1    3    3    0    0 -0.10898336421E+02 -0.35983095652E+02 -0.10651397005E+02  0.39076964670E+02  0.51100000000E-03 0. -1.
<mgrwt>
<rscale>  0 0.78024483E+02</rscale>
<asrwt>0</asrwt>
<pdfrwt beam="1">  1        2 0.59651104E-02 0.78024483E+02</pdfrwt>
<pdfrwt beam="2">  1       -2 0.60388829E-02 0.78024483E+02</pdfrwt>
<totfact> 0.14761181E+05</totfact>
</mgrwt>
</event>
<event>
 5    1  0.2809073E+000  0.9137523E+02  0.7818608E-02  0.1299555E+00
         -2   -1    0    0    0  501 -0.00000000000E+00  0.00000000000E+00  0.64103081745E+02  0.64103081797E+02  0.26000000000E-02 0.  1.
          2   -1    0    0  501    0  0.00000000000E+00 -0.00000000000E+00 -0.32562526628E+02  0.32562526732E+02  0.26000000000E-02 0. -1.
         23    2    1    2    0    0  0.00000000000E+00  0.00000000000E+00  0.31540555116E+02  0.96665608529E+02  0.91375233271E+02 0.  0.
        -11    1    3    3    0    0  0.22199564650E+02 -0.23334292106E+02 -0.18510302398E+02  0.37147559191E+02  0.51100000000E-03 0. -1.
         11    1    3    3    0    0 -0.22199564650E+02  0.23334292106E+02  0.50050857515E+02  0.59518049338E+02  0.51100000000E-03 0.  1.
<mgrwt>
<rscale>  0 0.91375233E+02</rscale>
<asrwt>0</asrwt>
<pdfrwt beam="2">  1        2 0.50096196E-02 0.91375233E+02</pdfrwt>
<pdfrwt beam="1">  1       -2 0.98620125E-02 0.91375233E+02</pdfrwt>
<totfact> 0.89831869E+04</totfact>
</mgrwt>
</event>
<event>
 5    1  0.2809073E+000  0.9255998E+02  0.7818608E-02  0.1296768E+00
          2   -1    0    0  501    0  0.00000000000E+00  0.00000000000E+00  0.16525760626E+03  0.16525760628E+03  0.26000000000E-02 0. -1.
         -2   -1    0    0    0  501 -0.00000000000E+00 -0.00000000000E+00 -0.12960599316E+02  0.12960599576E+02  0.26000000000E-02 0.  1.
         23    2    1    2    0    0  0.00000000000E+00  0.00000000000E+00  0.15229700694E+03  0.17821820585E+03  0.92559983656E+02 0.  0.
        -11    1    3    3    0    0 -0.10845355275E+02  0.41963579444E+02  0.44906943455E+02  0.62411515777E+02  0.51100000000E-03 0.  1.
         11    1    3    3    0    0  0.10845355275E+02 -0.41963579444E+02  0.10739006349E+03  0.11580669008E+03  0.51100000000E-03 0. -1.
<mgrwt>
<rscale>  0 0.92559984E+02</rscale>
<asrwt>0</asrwt>
<pdfrwt beam="1">  1        2 0.25424247E-01 0.92559984E+02</pdfrwt>
<pdfrwt beam="2">  1       -2 0.19939384E-02 0.92559984E+02</pdfrwt>
<totfact> 0.13876497E+05</totfact>
</mgrwt>
</event>
<event>
 5    1  0.2809073E+000  0.9138676E+02  0.7818608E-02  0.1299528E+00
          2   -1    0    0  501    0  0.00000000000E+00  0.00000000000E+00  0.70307985476E+02  0.70307985524E+02  0.26000000000E-02 0. -1.
         -2   -1    0    0    0  501 -0.00000000000E+00 -0.00000000000E+00 -0.29696272033E+02  0.29696272147E+02  0.26000000000E-02 0.  1.
         23    2    1    2    0    0  0.00000000000E+00  0.00000000000E+00  0.40611713442E+02  0.10000425767E+03  0.91386762080E+02 0.  0.
        -11    1    3    3    0    0  0.11245040550E+02  0.25253209703E+02 -0.19507752425E+02  0.33833828371E+02  0.51100000000E-03 0.  1.
         11    1    3    3    0    0 -0.11245040550E+02 -0.25253209703E+02  0.60119465868E+02  0.66170429300E+02  0.51100000000E-03 0. -1.
<mgrwt>
<rscale>  0 0.91386762E+02</rscale>
<asrwt>0</asrwt>
<pdfrwt beam="1">  1        2 0.10816613E-01 0.91386762E+02</pdfrwt>
<pdfrwt beam="2">  1       -2 0.45686573E-02 0.91386762E+02</pdfrwt>
<totfact> 0.11004323E+05</totfact>
</mgrwt>
</event>
<event>
 5    1  0.2809073E+000  0.9067639E+02  0.7818608E-02  0.1301222E+00
         -2   -1    0    0    0  501 -0.00000000000E+00  0.00000000000E+00  0.23816606100E+02  0.23816606242E+02  0.26000000000E-02 0.  1.
          2   -1    0    0  501    0  0.00000000000E+00 -0.00000000000E+00 -0.86307499297E+02  0.86307499336E+02  0.26000000000E-02 0. -1.
         23    2    1    2    0    0  0.00000000000E+00  0.00000000000E+00 -0.62490893197E+02  0.11012410558E+03  0.90676385552E+02 0.  0.
        -11    1    3    3    0    0 -0.48465132903E+01 -0.36679141370E+02 -0.63070772708E+02  0.73121614267E+02  0.51100000000E-03 0. -1.
         11    1    3    3    0    0  0.48465132903E+01  0.36679141370E+02  0.57987951153E+00  0.37002491311E+02  0.51100000000E-03 0.  1.
<mgrwt>
<rscale>  0 0.90676386E+02</rscale>
<asrwt>0</asrwt>
<pdfrwt beam="2">  1        2 0.13278077E-01 0.90676386E+02</pdfrwt>
<pdfrwt beam="1">  1       -2 0.36640933E-02 0.90676386E+02</pdfrwt>
<totfact> 0.11920539E+05</totfact>
</mgrwt>
</event>
<event>
 5    1  0.2809073E+000  0.9439832E+02  0.7818608E-02  0.1292537E+00
          2   -1    0    0  501    0  0.00000000000E+00  0.00000000000E+00  0.18928946226E+03  0.18928946227E+03  0.26000000000E-02 0. -1.
         -2   -1    0    0    0  501 -0.00000000000E+00 -0.00000000000E+00 -0.11769068410E+02  0.11769068697E+02  0.26000000000E-02 0.  1.
         23    2    1    2    0    0  0.00000000000E+00  0.00000000000E+00  0.17752039385E+03  0.20105853097E+03  0.94398319079E+02 0.  0.
        -11    1    3    3    0    0  0.90215737972E+01  0.29333797446E+02  0.12383323673E+02  0.33093914423E+02  0.51100000000E-03 0.  1.
         11    1    3    3    0    0 -0.90215737972E+01 -0.29333797446E+02  0.16513707017E+03  0.16796461655E+03  0.51100000000E-03 0. -1.
<mgrwt>
<rscale>  0 0.94398319E+02</rscale>
<asrwt>0</asrwt>
<pdfrwt beam="1">  1        2 0.29121454E-01 0.94398319E+02</pdfrwt>
<pdfrwt beam="2">  1       -2 0.18106261E-02 0.94398319E+02</pdfrwt>
<totfact> 0.13805573E+05</totfact>
</mgrwt>
</event>
<event>
 5    1  0.2809073E+000  0.9225017E+02  0.7818608E-02  0.1297492E+00
         -2   -1    0    0    0  501 -0.00000000000E+00  0.00000000000E+00  0.33915429598E+02  0.33915429698E+02  0.26000000000E-02 0.  1.
          2   -1    0    0  501    0  0.00000000000E+00 -0.00000000000E+00 -0.62730254142E+02  0.62730254196E+02  0.26000000000E-02 0. -1.
         23    2    1    2    0    0  0.00000000000E+00  0.00000000000E+00 -0.28814824544E+02  0.96645683894E+02  0.92250171283E+02 0.  0.
        -11    1    3    3    0    0  0.37953707144E+02 -0.15892262514E+02  0.74298401347E+01  0.41812084598E+02  0.51100000000E-03 0.  1.
         11    1    3    3    0    0 -0.37953707144E+02  0.15892262514E+02 -0.36244664678E+02  0.54833599295E+02  0.51100000000E-03 0. -1.
<mgrwt>
<rscale>  0 0.92250171E+02</rscale>
<asrwt>0</asrwt>
<pdfrwt beam="2">  1        2 0.96508084E-02 0.92250171E+02</pdfrwt>
<pdfrwt beam="1">  1       -2 0.52177584E-02 0.92250171E+02</pdfrwt>
<totfact> 0.10386447E+05</totfact>
</mgrwt>
</event>
<event>
 5    1  0.2809073E+000  0.8772614E+02  0.7818608E-02  0.1308453E+00
          2   -1    0    0  501    0  0.00000000000E+00  0.00000000000E+00  0.17320774138E+02  0.17320774333E+02  0.26000000000E-02 0.  1.
         -2   -1    0    0    0  501 -0.00000000000E+00 -0.00000000000E+00 -0.11107869756E+03  0.11107869759E+03  0.26000000000E-02 0. -1.
         23    2    1    2    0    0  0.00000000000E+00  0.00000000000E+00 -0.93757923423E+02  0.12839947192E+03  0.87726143115E+02 0.  0.
        -11    1    3    3    0    0 -0.49267735839E+01  0.26849778268E+02 -0.97130755325E+02  0.10089384184E+03  0.51100000000E-03 0. -1.
         11    1    3    3    0    0  0.49267735839E+01 -0.26849778268E+02  0.33728319028E+01  0.27505630083E+02  0.51100000000E-03 0.  1.
<mgrwt>
<rscale>  0 0.87726143E+02</rscale>
<asrwt>0</asrwt>
<pdfrwt beam="1">  1        2 0.26647346E-02 0.87726143E+02</pdfrwt>
<pdfrwt beam="2">  1       -2 0.17089030E-01 0.87726143E+02</pdfrwt>
<totfact> 0.85112934E+04</totfact>
</mgrwt>
</event>
<event>
 5    1  0.2809073E+000  0.9114312E+02  0.7818608E-02  0.1300107E+00
         -2   -1    0    0    0  501 -0.00000000000E+00  0.00000000000E+00  0.32065670324E+02  0.32065670429E+02  0.26000000000E-02 0.  1.
          2   -1    0    0  501    0  0.00000000000E+00 -0.00000000000E+00 -0.64766060944E+02  0.64766060996E+02  0.26000000000E-02 0. -1.
         23    2    1    2    0    0  0.00000000000E+00  0.00000000000E+00 -0.32700390620E+02  0.96831731425E+02  0.91143121869E+02 0.  0.
        -11    1    3    3    0    0 -0.39350966947E+02 -0.19041105275E+02 -0.26741213333E+01  0.43797411053E+02  0.51100000000E-03 0. -1.
         11    1    3    3    0    0  0.39350966947E+02  0.19041105275E+02 -0.30026269287E+02  0.53034320372E+02  0.51100000000E-03 0.  1.
<mgrwt>
<rscale>  0 0.91143122E+02</rscale>
<asrwt>0</asrwt>
<pdfrwt beam="2">  1        2 0.99640093E-02 0.91143122E+02</pdfrwt>
<pdfrwt beam="1">  1       -2 0.49331801E-02 0.91143122E+02</pdfrwt>
<totfact> 0.10839613E+05</totfact>
</mgrwt>
</event>
<event>
 5    1  0.2809073E+000  0.9120965E+02  0.7818608E-02  0.1299949E+00
         -2   -1    0    0    0  501 -0.00000000000E+00  0.00000000000E+00  0.13174741311E+02  0.13174741568E+02  0.26000000000E-02 0.  1.
          2   -1    0    0  501    0  0.00000000000E+00 -0.00000000000E+00 -0.15786269786E+03  0.15786269788E+03  0.26000000000E-02 0. -1.
         23    2    1    2    0    0  0.00000000000E+00  0.00000000000E+00 -0.14468795655E+03  0.17103743945E+03  0.91209653673E+02 0.  0.
        -11    1    3    3    0    0 -0.41213617903E+02  0.73530448122E+01 -0.10626254997E+03  0.11421190434E+03  0.51100000000E-03 0. -1.
         11    1    3    3    0    0  0.41213617903E+02 -0.73530448122E+01 -0.38425406586E+02  0.56825535107E+02  0.51100000000E-03 0.  1.
<mgrwt>
<rscale>  0 0.91209654E+02</rscale>
<asrwt>0</asrwt>
<pdfrwt beam="2">  1        2 0.24286567E-01 0.91209654E+02</pdfrwt>
<pdfrwt beam="1">  1       -2 0.20268834E-02 0.91209654E+02</pdfrwt>
<totfact> 0.14213660E+05</totfact>
</mgrwt>
</event>
<event>
 5    1  0.2809073E+000  0.8497283E+02  0.7818608E-02  0.1315504E+00
          2   -1    0    0  501    0  0.00000000000E+00  0.00000000000E+00  0.18493383970E+03  0.18493383972E+03  0.26000000000E-02 0. -1.
         -2   -1    0    0    0  501 -0.00000000000E+00 -0.00000000000E+00 -0.97607627687E+01  0.97607631150E+01  0.26000000000E-02 0.  1.
         23    2    1    2    0    0  0.00000000000E+00  0.00000000000E+00  0.17517307693E+03  0.19469460283E+03  0.84972827956E+02 0.  0.
        -11    1    3    3    0    0 -0.83080468007E+01 -0.31194898065E+02  0.15087461515E+03  0.15428964581E+03  0.51100000000E-03 0. -1.
         11    1    3    3    0    0  0.83080468007E+01  0.31194898065E+02  0.24298461782E+02  0.40404957025E+02  0.51100000000E-03 0.  1.
<mgrwt>
<rscale>  0 0.84972828E+02</rscale>
<asrwt>0</asrwt>
<pdfrwt beam="1">  1        2 0.28451362E-01 0.84972828E+02</pdfrwt>
<pdfrwt beam="2">  1       -2 0.15016557E-02 0.84972828E+02</pdfrwt>
<totfact> 0.18170746E+05</totfact>
</mgrwt>
</event>
<event>
 5    1  0.2809073E+000  0.8978663E+02  0.7818608E-02  0.1303369E+00
          2   -1    0    0  501    0  0.00000000000E+00  0.00000000000E+00  0.12240093611E+03  0.12240093614E+03  0.26000000000E-02 0. -1.
         -2   -1    0    0    0  501 -0.00000000000E+00 -0.00000000000E+00 -0.16465639725E+02  0.16465639930E+02  0.26000000000E-02 0.  1.
         23    2    1    2    0    0  0.00000000000E+00  0.00000000000E+00  0.10593529639E+03  0.13886657607E+03  0.89786630009E+02 0.  0.
        -11    1    3    3    0    0 -0.30983730148E+02  0.24173519747E+02  0.19399779005E+02  0.43825814500E+02  0.51100000000E-03 0.  1.
         11    1    3    3    0    0  0.30983730148E+02 -0.24173519747E+02  0.86535517380E+02  0.95040761568E+02  0.51100000000E-03 0. -1.
<mgrwt>
<rscale>  0 0.89786630E+02</rscale>
<asrwt>0</asrwt>
<pdfrwt beam="1">  1        2 0.18830913E-01 0.89786630E+02</pdfrwt>
<pdfrwt beam="2">  1       -2 0.25331754E-02 0.89786630E+02</pdfrwt>
<totfact> 0.13628629E+05</totfact>
</mgrwt>
</event>
<event>
 5    1  0.2809073E+000  0.9122454E+02  0.7818608E-02  0.1299913E+00
         -2   -1    0    0    0  501 -0.00000000000E+00  0.00000000000E+00  0.54319554063E+02  0.54319554125E+02  0.26000000000E-02 0.  1.
          2   -1    0    0  501    0  0.00000000000E+00 -0.00000000000E+00 -0.38300738250E+02  0.38300738338E+02  0.26000000000E-02 0. -1.
         23    2    1    2    0    0  0.00000000000E+00  0.00000000000E+00  0.16018815813E+02  0.92620292463E+02  0.91224536808E+02 0.  0.
        -11    1    3    3    0    0  0.84487667984E+00 -0.35619213955E+02  0.36923846458E+02  0.51310940908E+02  0.51100000000E-03 0.  1.
         11    1    3    3    0    0 -0.84487667984E+00  0.35619213955E+02 -0.20905030645E+02  0.41309351555E+02  0.51100000000E-03 0. -1.
<mgrwt>
<rscale>  0 0.91224537E+02</rscale>
<asrwt>0</asrwt>
<pdfrwt beam="2">  1        2 0.58924213E-02 0.91224537E+02</pdfrwt>
<pdfrwt beam="1">  1       -2 0.83568545E-02 0.91224537E+02</pdfrwt>
<totfact> 0.94178623E+04</totfact>
</mgrwt>
</event>
<event>
 5    1  0.2809073E+000  0.9224035E+02  0.7818608E-02  0.1297515E+00
         -2   -1    0    0    0  501 -0.00000000000E+00  0.00000000000E+00  0.50761625289E+02  0.50761625355E+02  0.26000000000E-02 0.  1.
          2   -1    0    0  501    0  0.00000000000E+00 -0.00000000000E+00 -0.41903120893E+02  0.41903120973E+02  0.26000000000E-02 0. -1.
         23    2    1    2    0    0  0.00000000000E+00  0.00000000000E+00  0.88585043959E+01  0.92664746329E+02  0.92240349696E+02 0.  0.
        -11    1    3    3    0    0 -0.26921573330E+00 -0.37896940748E+02  0.30833635611E+02  0.48856562306E+02  0.51100000000E-03 0.  1.
         11    1    3    3    0    0  0.26921573330E+00  0.37896940748E+02 -0.21975131215E+02  0.43808184022E+02  0.51100000000E-03 0. -1.
<mgrwt>
<rscale>  0 0.92240350E+02</rscale>
<asrwt>0</asrwt>
<pdfrwt beam="2">  1        2 0.64466340E-02 0.92240350E+02</pdfrwt>
<pdfrwt beam="1">  1       -2 0.78094809E-02 0.92240350E+02</pdfrwt>
<totfact> 0.93357485E+04</totfact>
</mgrwt>
</event>
<event>
 5    1  0.2809073E+000  0.8982601E+02  0.7818608E-02  0.1303274E+00
         -2   -1    0    0    0  501 -0.00000000000E+00  0.00000000000E+00  0.29896906845E+03  0.29896906846E+03  0.26000000000E-02 0.  1.
          2   -1    0    0  501    0  0.00000000000E+00 -0.00000000000E+00 -0.67471128577E+01  0.67471133586E+01  0.26000000000E-02 0. -1.
         23    2    1    2    0    0  0.00000000000E+00  0.00000000000E+00  0.29222195559E+03  0.30571618182E+03  0.89826012359E+02 0.  0.
        -11    1    3    3    0    0  0.28286599922E+02 -0.29410536212E+02  0.20997096262E+03  0.21389931398E+03  0.51100000000E-03 0.  1.
         11    1    3    3    0    0 -0.28286599922E+02  0.29410536212E+02  0.82250992969E+02  0.91816867841E+02  0.51100000000E-03 0. -1.
<mgrwt>
<rscale>  0 0.89826012E+02</rscale>
<asrwt>0</asrwt>
<pdfrwt beam="2">  1        2 0.10380174E-02 0.89826012E+02</pdfrwt>
<pdfrwt beam="1">  1       -2 0.45995243E-01 0.89826012E+02</pdfrwt>
<totfact> 0.53100342E+04</totfact>
</mgrwt>
</event>
<event>
 5    1  0.2809073E+000  0.9167891E+02  0.7818608E-02  0.1298836E+00
         -2   -1    0    0    0  501 -0.00000000000E+00  0.00000000000E+00  0.10977491628E+03  0.10977491631E+03  0.26000000000E-02 0.  1.
          2   -1    0    0  501    0  0.00000000000E+00 -0.00000000000E+00 -0.19141489618E+02  0.19141489795E+02  0.26000000000E-02 0. -1.
         23    2    1    2    0    0  0.00000000000E+00  0.00000000000E+00  0.90633426665E+02  0.12891640611E+03  0.91678905616E+02 0.  0.
        -11    1    3    3    0    0 -0.38615504667E+02 -0.33794580802E+01  0.79722796610E+02  0.88647065587E+02  0.51100000000E-03 0.  1.
         11    1    3    3    0    0  0.38615504667E+02  0.33794580802E+01  0.10910630054E+02  0.40269340521E+02  0.51100000000E-03 0. -1.
<mgrwt>
<rscale>  0 0.91678906E+02</rscale>
<asrwt>0</asrwt>
<pdfrwt beam="2">  1        2 0.29448446E-02 0.91678906E+02</pdfrwt>
<pdfrwt beam="1">  1       -2 0.16888449E-01 0.91678906E+02</pdfrwt>
<totfact> 0.76515675E+04</totfact>
</mgrwt>
</event>
<event>
 5    1  0.2809073E+000  0.9075319E+02  0.7818608E-02  0.1301038E+00
          2   -1    0    0  501    0  0.00000000000E+00  0.00000000000E+00  0.69439470298E+02  0.69439470347E+02  0.26000000000E-02 0. -1.
         -2   -1    0    0    0  501 -0.00000000000E+00 -0.00000000000E+00 -0.29652230090E+02  0.29652230204E+02  0.26000000000E-02 0.  1.
         23    2    1    2    0    0  0.00000000000E+00  0.00000000000E+00  0.39787240208E+02  0.99091700551E+02  0.90753185259E+02 0.  0.
        -11    1    3    3    0    0  0.34613575738E+02 -0.10394269490E+02 -0.10066429162E+02  0.37516309253E+02  0.51100000000E-03 0.  1.
         11    1    3    3    0    0 -0.34613575738E+02  0.10394269490E+02  0.49853669370E+02  0.61575391298E+02  0.51100000000E-03 0. -1.
<mgrwt>
<rscale>  0 0.90753185E+02</rscale>
<asrwt>0</asrwt>
<pdfrwt beam="1">  1        2 0.10682995E-01 0.90753185E+02</pdfrwt>
<pdfrwt beam="2">  1       -2 0.45618816E-02 0.90753185E+02</pdfrwt>
<totfact> 0.11182072E+05</totfact>
</mgrwt>
</event>
<event>
 5    1  0.2809073E+000  0.9294010E+02  0.7818608E-02  0.1295884E+00
         -2   -1    0    0    0  501 -0.00000000000E+00  0.00000000000E+00  0.29356896142E+02  0.29356896258E+02  0.26000000000E-02 0. -1.
          2   -1    0    0  501    0  0.00000000000E+00 -0.00000000000E+00 -0.73559052024E+02  0.73559052070E+02  0.26000000000E-02 0.  1.
         23    2    1    2    0    0  0.00000000000E+00  0.00000000000E+00 -0.44202155882E+02  0.10291594833E+03  0.92940098104E+02 0.  0.
        -11    1    3    3    0    0  0.35425102692E+02 -0.80503915390E+01 -0.54189360999E+02  0.65239815684E+02  0.51100000000E-03 0.  1.
         11    1    3    3    0    0 -0.35425102692E+02  0.80503915390E+01  0.99872051174E+01  0.37676132644E+02  0.51100000000E-03 0. -1.
<mgrwt>
<rscale>  0 0.92940098E+02</rscale>
<asrwt>0</asrwt>
<pdfrwt beam="2">  1        2 0.11316777E-01 0.92940098E+02</pdfrwt>
<pdfrwt beam="1">  1       -2 0.45164456E-02 0.92940098E+02</pdfrwt>
<totfact> 0.10630641E+05</totfact>
</mgrwt>
</event>
<event>
 5    1  0.2809073E+000  0.8975360E+02  0.7818608E-02  0.1303449E+00
         -2   -1    0    0    0  501 -0.00000000000E+00  0.00000000000E+00  0.22166279346E+03  0.22166279347E+03  0.26000000000E-02 0.  1.
          2   -1    0    0  501    0  0.00000000000E+00 -0.00000000000E+00 -0.90855433211E+01  0.90855436931E+01  0.26000000000E-02 0. -1.
         23    2    1    2    0    0  0.00000000000E+00  0.00000000000E+00  0.21257725013E+03  0.23074833716E+03  0.89753595076E+02 0.  0.
        -11    1    3    3    0    0 -0.27106366232E+02 -0.32871049453E+02  0.14252531108E+03  0.14875726968E+03  0.51100000000E-03 0. -1.
         11    1    3    3    0    0  0.27106366232E+02  0.32871049453E+02  0.70051939053E+02  0.81991067488E+02  0.51100000000E-03 0.  1.
<mgrwt>
<rscale>  0 0.89753595E+02</rscale>
<asrwt>0</asrwt>
<pdfrwt beam="2">  1        2 0.13977759E-02 0.89753595E+02</pdfrwt>
<pdfrwt beam="1">  1       -2 0.34101969E-01 0.89753595E+02</pdfrwt>
<totfact> 0.61961700E+04</totfact>
</mgrwt>
</event>
<event>
 5    1  0.2809073E+000  0.9372690E+02  0.7818608E-02  0.1294069E+00
          2   -1    0    0  501    0  0.00000000000E+00  0.00000000000E+00  0.90358933685E+02  0.90358933722E+02  0.26000000000E-02 0.  1.
         -2   -1    0    0    0  501 -0.00000000000E+00 -0.00000000000E+00 -0.24305099622E+02  0.24305099761E+02  0.26000000000E-02 0. -1.
         23    2    1    2    0    0  0.00000000000E+00  0.00000000000E+00  0.66053834063E+02  0.11466403348E+03  0.93726898915E+02 0.  0.
        -11    1    3    3    0    0  0.35563915757E+02  0.27062586644E+02  0.15768643187E+02  0.47390144630E+02  0.51100000000E-03 0.  1.
         11    1    3    3    0    0 -0.35563915757E+02 -0.27062586644E+02  0.50285190876E+02  0.67273888854E+02  0.51100000000E-03 0. -1.
<mgrwt>
<rscale>  0 0.93726899E+02</rscale>
<asrwt>0</asrwt>
<pdfrwt beam="1">  1        2 0.13901374E-01 0.93726899E+02</pdfrwt>
<pdfrwt beam="2">  1       -2 0.37392462E-02 0.93726899E+02</pdfrwt>
<totfact> 0.11023649E+05</totfact>
</mgrwt>
</event>
<event>
 5    1  0.2809073E+000  0.8993407E+02  0.7818608E-02  0.1303011E+00
         -2   -1    0    0    0  501 -0.00000000000E+00  0.00000000000E+00  0.87639170153E+02  0.87639170191E+02  0.26000000000E-02 0.  1.
          2   -1    0    0  501    0  0.00000000000E+00 -0.00000000000E+00 -0.23072267612E+02  0.23072267758E+02  0.26000000000E-02 0. -1.
         23    2    1    2    0    0  0.00000000000E+00  0.00000000000E+00  0.64566902541E+02  0.11071143795E+03  0.89934073572E+02 0.  0.
        -11    1    3    3    0    0  0.69225307197E+01  0.14460510194E+02 -0.19434509739E+02  0.25193807884E+02  0.51100000000E-03 0. -1.
         11    1    3    3    0    0 -0.69225307197E+01 -0.14460510194E+02  0.84001412280E+02  0.85517630065E+02  0.51100000000E-03 0.  1.
<mgrwt>
<rscale>  0 0.89934074E+02</rscale>
<asrwt>0</asrwt>
<pdfrwt beam="2">  1        2 0.35495797E-02 0.89934074E+02</pdfrwt>
<pdfrwt beam="1">  1       -2 0.13482949E-01 0.89934074E+02</pdfrwt>
<totfact> 0.85790169E+04</totfact>
</mgrwt>
</event>
<event>
 5    1  0.2809073E+000  0.1200922E+03  0.7818608E-02  0.1242945E+00
         -2   -1    0    0    0  501 -0.00000000000E+00  0.00000000000E+00  0.90552338303E+02  0.90552338341E+02  0.26000000000E-02 0.  1.
          2   -1    0    0  501    0  0.00000000000E+00 -0.00000000000E+00 -0.39817145424E+02  0.39817145508E+02  0.26000000000E-02 0. -1.
         23    2    1    2    0    0  0.00000000000E+00  0.00000000000E+00  0.50735192880E+02  0.13036948385E+03  0.12009222507E+03 0.  0.
        -11    1    3    3    0    0 -0.91160475109E+00 -0.38817946933E+02  0.75089815977E+02  0.84534871450E+02  0.51100000000E-03 0.  1.
         11    1    3    3    0    0  0.91160475109E+00  0.38817946933E+02 -0.24354623097E+02  0.45834612399E+02  0.51100000000E-03 0. -1.
<mgrwt>
<rscale>  0 0.12009223E+03</rscale>
<asrwt>0</asrwt>
<pdfrwt beam="2">  1        2 0.61257148E-02 0.12009223E+03</pdfrwt>
<pdfrwt beam="1">  1       -2 0.13931129E-01 0.12009223E+03</pdfrwt>
<totfact> 0.41731908E+04</totfact>
</mgrwt>
</event>
<event>
 5    1  0.2809073E+000  0.9193100E+02  0.7818608E-02  0.1298242E+00
          2   -1    0    0  501    0  0.00000000000E+00  0.00000000000E+00  0.15698692855E+02  0.15698693070E+02  0.26000000000E-02 0. -1.
         -2   -1    0    0    0  501 -0.00000000000E+00 -0.00000000000E+00 -0.13458617038E+03  0.13458617040E+03  0.26000000000E-02 0.  1.
         23    2    1    2    0    0  0.00000000000E+00  0.00000000000E+00 -0.11888747752E+03  0.15028486347E+03  0.91930995194E+02 0.  0.
        -11    1    3    3    0    0  0.20765737009E+02 -0.58513092224E+01  0.69075393587E+01  0.22653206250E+02  0.51100000000E-03 0. -1.
         11    1    3    3    0    0 -0.20765737009E+02  0.58513092224E+01 -0.12579501688E+03  0.12763165722E+03  0.51100000000E-03 0.  1.
<mgrwt>
<rscale>  0 0.91930995E+02</rscale>
<asrwt>0</asrwt>
<pdfrwt beam="1">  1        2 0.24151836E-02 0.91930995E+02</pdfrwt>
<pdfrwt beam="2">  1       -2 0.20705564E-01 0.91930995E+02</pdfrwt>
<totfact> 0.71092746E+04</totfact>
</mgrwt>
</event>
<event>
 5    1  0.2809073E+000  0.9060608E+02  0.7818608E-02  0.1301391E+00
         -2   -1    0    0    0  501 -0.00000000000E+00  0.00000000000E+00  0.32453854733E+02  0.32453854837E+02  0.26000000000E-02 0.  1.
          2   -1    0    0  501    0  0.00000000000E+00 -0.00000000000E+00 -0.63239498409E+02  0.63239498463E+02  0.26000000000E-02 0. -1.
         23    2    1    2    0    0  0.00000000000E+00  0.00000000000E+00 -0.30785643676E+02  0.95693353300E+02  0.90606081525E+02 0.  0.
        -11    1    3    3    0    0  0.44666660278E+02  0.59066563904E+01 -0.20387668916E+02  0.49453575949E+02  0.51100000000E-03 0. -1.
         11    1    3    3    0    0 -0.44666660278E+02 -0.59066563904E+01 -0.10397974760E+02  0.46239777351E+02  0.51100000000E-03 0.  1.
<mgrwt>
<rscale>  0 0.90606082E+02</rscale>
<asrwt>0</asrwt>
<pdfrwt beam="2">  1        2 0.97291536E-02 0.90606082E+02</pdfrwt>
<pdfrwt beam="1">  1       -2 0.49929007E-02 0.90606082E+02</pdfrwt>
<totfact> 0.10949895E+05</totfact>
</mgrwt>
</event>
<event>
 5    1  0.2809073E+000  0.9199915E+02  0.7818608E-02  0.1298081E+00
         -2   -1    0    0    0  501 -0.00000000000E+00  0.00000000000E+00  0.21289247257E+02  0.21289247416E+02  0.26000000000E-02 0.  1.
          2   -1    0    0  501    0  0.00000000000E+00 -0.00000000000E+00 -0.99391058747E+02  0.99391058781E+02  0.26000000000E-02 0. -1.
         23    2    1    2    0    0  0.00000000000E+00  0.00000000000E+00 -0.78101811490E+02  0.12068030620E+03  0.91999148614E+02 0.  0.
        -11    1    3    3    0    0  0.13909993952E+02 -0.28320685823E+02 -0.82958678197E+02  0.88756360142E+02  0.51100000000E-03 0. -1.
         11    1    3    3    0    0 -0.13909993952E+02  0.28320685823E+02  0.48568667071E+01  0.31923946055E+02  0.51100000000E-03 0.  1.
<mgrwt>
<rscale>  0 0.91999149E+02</rscale>
<asrwt>0</asrwt>
<pdfrwt beam="2">  1        2 0.15290932E-01 0.91999149E+02</pdfrwt>
<pdfrwt beam="1">  1       -2 0.32752689E-02 0.91999149E+02</pdfrwt>
<totfact> 0.11945351E+05</totfact>
</mgrwt>
</event>
<event>
 5    1  0.2809073E+000  0.9085190E+02  0.7818608E-02  0.1300802E+00
          2   -1    0    0  501    0  0.00000000000E+00  0.00000000000E+00  0.32040633024E+02  0.32040633130E+02  0.26000000000E-02 0. -1.
         -2   -1    0    0    0  501 -0.00000000000E+00 -0.00000000000E+00 -0.64403130210E+02  0.64403130262E+02  0.26000000000E-02 0.  1.
         23    2    1    2    0    0  0.00000000000E+00  0.00000000000E+00 -0.32362497186E+02  0.96443763392E+02  0.90851902969E+02 0.  0.
        -11    1    3    3    0    0  0.24235849761E+02  0.23905554007E+01 -0.56887554527E+02  0.61881217094E+02  0.51100000000E-03 0.  1.
         11    1    3    3    0    0 -0.24235849761E+02 -0.23905554007E+01  0.24525057341E+02  0.34562546298E+02  0.51100000000E-03 0. -1.
<mgrwt>
<rscale>  0 0.90851903E+02</rscale>
<asrwt>0</asrwt>
<pdfrwt beam="1">  1        2 0.49293282E-02 0.90851903E+02</pdfrwt>
<pdfrwt beam="2">  1       -2 0.99081738E-02 0.90851903E+02</pdfrwt>
<totfact> 0.90977925E+04</totfact>
</mgrwt>
</event>
<event>
 5    1  0.2809073E+000  0.9472332E+02  0.7818608E-02  0.1291800E+00
          2   -1    0    0  501    0  0.00000000000E+00  0.00000000000E+00  0.79574342644E+01  0.79574346891E+01  0.26000000000E-02 0. -1.
         -2   -1    0    0    0  501 -0.00000000000E+00 -0.00000000000E+00 -0.28189068359E+03  0.28189068360E+03  0.26000000000E-02 0.  1.
         23    2    1    2    0    0  0.00000000000E+00  0.00000000000E+00 -0.27393324933E+03  0.28984811829E+03  0.94723315983E+02 0.  0.
        -11    1    3    3    0    0 -0.84424357923E+01  0.46547018754E+02 -0.14396244450E+03  0.15153575520E+03  0.51100000000E-03 0.  1.
         11    1    3    3    0    0  0.84424357923E+01 -0.46547018754E+02 -0.12997080483E+03  0.13831236309E+03  0.51100000000E-03 0. -1.
<mgrwt>
<rscale>  0 0.94723316E+02</rscale>
<asrwt>0</asrwt>
<pdfrwt beam="1">  1        2 0.12242209E-02 0.94723316E+02</pdfrwt>
<pdfrwt beam="2">  1       -2 0.43367790E-01 0.94723316E+02</pdfrwt>
<totfact> 0.47839555E+04</totfact>
</mgrwt>
</event>
<event>
 5    1  0.2809073E+000  0.9196049E+02  0.7818608E-02  0.1298172E+00
          2   -1    0    0  501    0  0.00000000000E+00  0.00000000000E+00  0.18238101645E+03  0.18238101647E+03  0.26000000000E-02 0. -1.
         -2   -1    0    0    0  501 -0.00000000000E+00 -0.00000000000E+00 -0.11592120298E+02  0.11592120589E+02  0.26000000000E-02 0.  1.
         23    2    1    2    0    0  0.00000000000E+00  0.00000000000E+00  0.17078889615E+03  0.19397313706E+03  0.91960485271E+02 0.  0.
        -11    1    3    3    0    0  0.20716005935E+02 -0.31510964933E+02  0.29903610888E+02  0.48128159712E+02  0.51100000000E-03 0.  1.
         11    1    3    3    0    0 -0.20716005935E+02  0.31510964933E+02  0.14088528526E+03  0.14584497735E+03  0.51100000000E-03 0. -1.
<mgrwt>
<rscale>  0 0.91960485E+02</rscale>
<asrwt>0</asrwt>
<pdfrwt beam="1">  1        2 0.28058618E-01 0.91960485E+02</pdfrwt>
<pdfrwt beam="2">  1       -2 0.17834031E-02 0.91960485E+02</pdfrwt>
<totfact> 0.14622294E+05</totfact>
</mgrwt>
</event>
<event>
 4    1  0.2809073E+000  0.1327122E+03  0.7818608E-02  0.1223486E+00
         -2   -1    0    0    0  501 -0.00000000000E+00  0.00000000000E+00  0.12893868335E+03  0.12893868338E+03  0.26000000000E-02 0.  1.
          2   -1    0    0  501    0  0.00000000000E+00 -0.00000000000E+00 -0.34149020363E+02  0.34149020462E+02  0.26000000000E-02 0. -1.
        -11    1    1    2    0    0 -0.54637443868E+02  0.15541323737E+02  0.52467167063E+01  0.57046569156E+02  0.51100000000E-03 0.  1.
         11    1    1    2    0    0  0.54637443868E+02 -0.15541323737E+02  0.89542946280E+02  0.10604113468E+03  0.51100000000E-03 0. -1.
<mgrwt>
<rscale>  0 0.13271217E+03</rscale>
<asrwt>0</asrwt>
<pdfrwt beam="2">  1        2 0.52536954E-02 0.13271217E+03</pdfrwt>
<pdfrwt beam="1">  1       -2 0.19836721E-01 0.13271217E+03</pdfrwt>
<totfact> 0.28735862E+04</totfact>
</mgrwt>
</event>
<event>
 5    1  0.2809073E+000  0.8722827E+02  0.7818608E-02  0.1309706E+00
         -2   -1    0    0    0  501 -0.00000000000E+00  0.00000000000E+00  0.80767286766E+01  0.80767290951E+01  0.26000000000E-02 0.  1.
          2   -1    0    0  501    0  0.00000000000E+00 -0.00000000000E+00 -0.23551526460E+03  0.23551526462E+03  0.26000000000E-02 0. -1.
         23    2    1    2    0    0  0.00000000000E+00  0.00000000000E+00 -0.22743853593E+03  0.24359199371E+03  0.87228273951E+02 0.  0.
        -11    1    3    3    0    0 -0.20218603747E+02  0.32966159338E+02 -0.17003208140E+03  0.17437450589E+03  0.51100000000E-03 0. -1.
         11    1    3    3    0    0  0.20218603747E+02 -0.32966159338E+02 -0.57406454532E+02  0.69217487828E+02  0.51100000000E-03 0.  1.
<mgrwt>
<rscale>  0 0.87228274E+02</rscale>
<asrwt>0</asrwt>
<pdfrwt beam="2">  1        2 0.36233113E-01 0.87228274E+02</pdfrwt>
<pdfrwt beam="1">  1       -2 0.12425739E-02 0.87228274E+02</pdfrwt>
<totfact> 0.18482970E+05</totfact>
</mgrwt>
</event>
<event>
 5    1  0.2809073E+000  0.9777307E+02  0.7818608E-02  0.1285050E+00
          2   -1    0    0  501    0  0.00000000000E+00  0.00000000000E+00  0.66452754010E+02  0.66452754061E+02  0.26000000000E-02 0. -1.
         -2   -1    0    0    0  501 -0.00000000000E+00 -0.00000000000E+00 -0.35963794763E+02  0.35963794857E+02  0.26000000000E-02 0.  1.
         23    2    1    2    0    0  0.00000000000E+00  0.00000000000E+00  0.30488959247E+02  0.10241654892E+03  0.97773068154E+02 0.  0.
        -11    1    3    3    0    0 -0.10439738381E+02  0.41931040877E+02 -0.87037927538E+01  0.44078978380E+02  0.51100000000E-03 0.  1.
         11    1    3    3    0    0  0.10439738381E+02 -0.41931040877E+02  0.39192752001E+02  0.58337570537E+02  0.51100000000E-03 0. -1.
<mgrwt>
<rscale>  0 0.97773068E+02</rscale>
<asrwt>0</asrwt>
<pdfrwt beam="1">  1        2 0.10223500E-01 0.97773068E+02</pdfrwt>
<pdfrwt beam="2">  1       -2 0.55328916E-02 0.97773068E+02</pdfrwt>
<totfact> 0.89522325E+04</totfact>
</mgrwt>
</event>
<event>
 5    1  0.2809073E+000  0.9126871E+02  0.7818608E-02  0.1299808E+00
         -2   -1    0    0    0  501 -0.00000000000E+00  0.00000000000E+00  0.54372261816E+02  0.54372261879E+02  0.26000000000E-02 0. -1.
          2   -1    0    0  501    0  0.00000000000E+00 -0.00000000000E+00 -0.38300673786E+02  0.38300673874E+02  0.26000000000E-02 0.  1.
         23    2    1    2    0    0  0.00000000000E+00  0.00000000000E+00  0.16071588031E+02  0.92672935753E+02  0.91268708105E+02 0.  0.
        -11    1    3    3    0    0  0.14325293993E+02 -0.17078419233E+02  0.48468136857E+02  0.53348352759E+02  0.51100000000E-03 0. -1.
         11    1    3    3    0    0 -0.14325293993E+02  0.17078419233E+02 -0.32396548826E+02  0.39324582993E+02  0.51100000000E-03 0.  1.
<mgrwt>
<rscale>  0 0.91268708E+02</rscale>
<asrwt>0</asrwt>
<pdfrwt beam="2">  1        2 0.58924114E-02 0.91268708E+02</pdfrwt>
<pdfrwt beam="1">  1       -2 0.83649633E-02 0.91268708E+02</pdfrwt>
<totfact> 0.94046026E+04</totfact>
</mgrwt>
</event>
<event>
 5    1  0.2809073E+000  0.9119524E+02  0.7818608E-02  0.1299983E+00
         -2   -1    0    0    0  501 -0.00000000000E+00  0.00000000000E+00  0.51360304786E+01  0.51360311367E+01  0.26000000000E-02 0. -1.
          2   -1    0    0  501    0  0.00000000000E+00 -0.00000000000E+00 -0.40481510882E+03  0.40481510883E+03  0.26000000000E-02 0.  1.
         23    2    1    2    0    0  0.00000000000E+00  0.00000000000E+00 -0.39967907834E+03  0.40995113996E+03  0.91195238334E+02 0.  0.
        -11    1    3    3    0    0  0.41444088619E+02 -0.18528328308E+02 -0.18064532012E+03  0.18626229654E+03  0.51100000000E-03 0. -1.
         11    1    3    3    0    0 -0.41444088619E+02  0.18528328308E+02 -0.21903375822E+03  0.22368884343E+03  0.51100000000E-03 0.  1.
<mgrwt>
<rscale>  0 0.91195238E+02</rscale>
<asrwt>0</asrwt>
<pdfrwt beam="2">  1        2 0.62279223E-01 0.91195238E+02</pdfrwt>
<pdfrwt beam="1">  1       -2 0.79015890E-03 0.91195238E+02</pdfrwt>
<totfact> 0.20037178E+05</totfact>
</mgrwt>
</event>
<event>
 5    1  0.2809073E+000  0.9164471E+02  0.7818608E-02  0.1298917E+00
          2   -1    0    0  501    0  0.00000000000E+00  0.00000000000E+00  0.27453522140E+03  0.27453522141E+03  0.26000000000E-02 0. -1.
         -2   -1    0    0    0  501 -0.00000000000E+00 -0.00000000000E+00 -0.76481552278E+01  0.76481556698E+01  0.26000000000E-02 0.  1.
         23    2    1    2    0    0  0.00000000000E+00  0.00000000000E+00  0.26688706617E+03  0.28218337708E+03  0.91644706401E+02 0.  0.
        -11    1    3    3    0    0 -0.38524846692E+02  0.23064395795E+02  0.10529746293E+03  0.11447133207E+03  0.51100000000E-03 0. -1.
         11    1    3    3    0    0  0.38524846692E+02 -0.23064395795E+02  0.16158960324E+03  0.16771204501E+03  0.51100000000E-03 0.  1.
<mgrwt>
<rscale>  0 0.91644706E+02</rscale>
<asrwt>0</asrwt>
<pdfrwt beam="1">  1        2 0.42236182E-01 0.91644706E+02</pdfrwt>
<pdfrwt beam="2">  1       -2 0.11766395E-02 0.91644706E+02</pdfrwt>
<totfact> 0.17144978E+05</totfact>
</mgrwt>
</event>
<event>
 5    1  0.2809073E+000  0.9666010E+02  0.7818608E-02  0.1287480E+00
         -2   -1    0    0    0  501 -0.00000000000E+00  0.00000000000E+00  0.25329527646E+02  0.25329527779E+02  0.26000000000E-02 0.  1.
          2   -1    0    0  501    0  0.00000000000E+00 -0.00000000000E+00 -0.92216244369E+02  0.92216244406E+02  0.26000000000E-02 0. -1.
         23    2    1    2    0    0  0.00000000000E+00  0.00000000000E+00 -0.66886716723E+02  0.11754577219E+03  0.96660103893E+02 0.  0.
        -11    1    3    3    0    0  0.98900989788E+01 -0.16327631610E+02 -0.87437400866E+02  0.89496953480E+02  0.51100000000E-03 0. -1.
         11    1    3    3    0    0 -0.98900989788E+01  0.16327631610E+02  0.20550684142E+02  0.28048818706E+02  0.51100000000E-03 0.  1.
<mgrwt>
<rscale>  0 0.96660104E+02</rscale>
<asrwt>0</asrwt>
<pdfrwt beam="2">  1        2 0.14187114E-01 0.96660104E+02</pdfrwt>
<pdfrwt beam="1">  1       -2 0.38968505E-02 0.96660104E+02</pdfrwt>
<totfact> 0.10179892E+05</totfact>
</mgrwt>
</event>
<event>
 5    1  0.2809073E+000  0.9465537E+02  0.7818608E-02  0.1291954E+00
          2   -1    0    0  501    0  0.00000000000E+00  0.00000000000E+00  0.11398842685E+03  0.11398842688E+03  0.26000000000E-02 0. -1.
         -2   -1    0    0    0  501 -0.00000000000E+00 -0.00000000000E+00 -0.19650324278E+02  0.19650324450E+02  0.26000000000E-02 0.  1.
         23    2    1    2    0    0  0.00000000000E+00  0.00000000000E+00  0.94338102577E+02  0.13363875133E+03  0.94655365724E+02 0.  0.
        -11    1    3    3    0    0 -0.20573354534E+02 -0.40484949045E+02  0.28353035779E+02  0.53536797197E+02  0.51100000000E-03 0.  1.
         11    1    3    3    0    0  0.20573354534E+02  0.40484949045E+02  0.65985066797E+02  0.80101954137E+02  0.51100000000E-03 0. -1.
<mgrwt>
<rscale>  0 0.94655366E+02</rscale>
<asrwt>0</asrwt>
<pdfrwt beam="1">  1        2 0.17536681E-01 0.94655366E+02</pdfrwt>
<pdfrwt beam="2">  1       -2 0.30231268E-02 0.94655366E+02</pdfrwt>
<totfact> 0.11526500E+05</totfact>
</mgrwt>
</event>
<event>
 5    1  0.2809073E+000  0.9112014E+02  0.7818608E-02  0.1300162E+00
         -2   -1    0    0    0  501 -0.00000000000E+00  0.00000000000E+00  0.17885922191E+03  0.17885922193E+03  0.26000000000E-02 0.  1.
          2   -1    0    0  501    0  0.00000000000E+00 -0.00000000000E+00 -0.11605328279E+02  0.11605328570E+02  0.26000000000E-02 0. -1.
         23    2    1    2    0    0  0.00000000000E+00  0.00000000000E+00  0.16725389363E+03  0.19046455050E+03  0.91120140816E+02 0.  0.
        -11    1    3    3    0    0 -0.33432796937E+02  0.15460756771E+02  0.13967286840E+03  0.14444825052E+03  0.51100000000E-03 0.  1.
         11    1    3    3    0    0  0.33432796937E+02 -0.15460756771E+02  0.27581025237E+02  0.46016299985E+02  0.51100000000E-03 0. -1.
<mgrwt>
<rscale>  0 0.91120141E+02</rscale>
<asrwt>0</asrwt>
<pdfrwt beam="2">  1        2 0.17854353E-02 0.91120141E+02</pdfrwt>
<pdfrwt beam="1">  1       -2 0.27516801E-01 0.91120141E+02</pdfrwt>
<totfact> 0.65405138E+04</totfact>
</mgrwt>
</event>
<event>
 5    1  0.2809073E+000  0.9205618E+02  0.7818608E-02  0.1297947E+00
         -2   -1    0    0    0  501 -0.00000000000E+00  0.00000000000E+00  0.30451332448E+02  0.30451332559E+02  0.26000000000E-02 0.  1.
          2   -1    0    0  501    0  0.00000000000E+00 -0.00000000000E+00 -0.69572822000E+02  0.69572822049E+02  0.26000000000E-02 0. -1.
         23    2    1    2    0    0  0.00000000000E+00  0.00000000000E+00 -0.39121489552E+02  0.10002415461E+03  0.92056181543E+02 0.  0.
        -11    1    3    3    0    0 -0.15021106509E+02 -0.91000197095E+00 -0.66824329822E+02  0.68497830629E+02  0.51100000000E-03 0. -1.
         11    1    3    3    0    0  0.15021106509E+02  0.91000197095E+00  0.27702840270E+02  0.31526323979E+02  0.51100000000E-03 0.  1.
<mgrwt>
<rscale>  0 0.92056182E+02</rscale>
<asrwt>0</asrwt>
<pdfrwt beam="2">  1        2 0.10703511E-01 0.92056182E+02</pdfrwt>
<pdfrwt beam="1">  1       -2 0.46848204E-02 0.92056182E+02</pdfrwt>
<totfact> 0.10750029E+05</totfact>
</mgrwt>
</event>
<event>
 5    1  0.2809073E+000  0.8992534E+02  0.7818608E-02  0.1303033E+00
          2   -1    0    0  501    0  0.00000000000E+00  0.00000000000E+00  0.14834915852E+02  0.14834916080E+02  0.26000000000E-02 0. -1.
         -2   -1    0    0    0  501 -0.00000000000E+00 -0.00000000000E+00 -0.13627591275E+03  0.13627591277E+03  0.26000000000E-02 0.  1.
         23    2    1    2    0    0  0.00000000000E+00  0.00000000000E+00 -0.12144099690E+03  0.15111082885E+03  0.89925340531E+02 0.  0.
        -11    1    3    3    0    0 -0.29881232523E+02  0.12968743113E+02 -0.86397810830E+01  0.33700477333E+02  0.51100000000E-03 0. -1.
         11    1    3    3    0    0  0.29881232523E+02 -0.12968743113E+02 -0.11280121581E+03  0.11741035152E+03  0.51100000000E-03 0.  1.
<mgrwt>
<rscale>  0 0.89925341E+02</rscale>
<asrwt>0</asrwt>
<pdfrwt beam="1">  1        2 0.22822949E-02 0.89925341E+02</pdfrwt>
<pdfrwt beam="2">  1       -2 0.20965524E-01 0.89925341E+02</pdfrwt>
<totfact> 0.74837297E+04</totfact>
</mgrwt>
</event>
<event>
 5    1  0.2809073E+000  0.9270606E+02  0.7818608E-02  0.1296428E+00
          2   -1    0    0  501    0  0.00000000000E+00  0.00000000000E+00  0.10075421454E+02  0.10075421790E+02  0.26000000000E-02 0. -1.
         -2   -1    0    0    0  501 -0.00000000000E+00 -0.00000000000E+00 -0.21325194727E+03  0.21325194729E+03  0.26000000000E-02 0.  1.
         23    2    1    2    0    0  0.00000000000E+00  0.00000000000E+00 -0.20317652582E+03  0.22332736908E+03  0.92706057708E+02 0.  0.
        -11    1    3    3    0    0 -0.27267725694E+02 -0.33640764582E+02 -0.61758112568E+02  0.75427411293E+02  0.51100000000E-03 0. -1.
         11    1    3    3    0    0  0.27267725694E+02  0.33640764582E+02 -0.14141841325E+03  0.14789995779E+03  0.51100000000E-03 0.  1.
<mgrwt>
<rscale>  0 0.92706058E+02</rscale>
<asrwt>0</asrwt>
<pdfrwt beam="1">  1        2 0.15500650E-02 0.92706058E+02</pdfrwt>
<pdfrwt beam="2">  1       -2 0.32807989E-01 0.92706058E+02</pdfrwt>
<totfact> 0.58051901E+04</totfact>
</mgrwt>
</event>
<event>
 5    1  0.2809073E+000  0.8865728E+02  0.7818608E-02  0.1306136E+00
          2   -1    0    0  501    0  0.00000000000E+00  0.00000000000E+00  0.77521387604E+01  0.77521391964E+01  0.26000000000E-02 0.  1.
         -2   -1    0    0    0  501 -0.00000000000E+00 -0.00000000000E+00 -0.25348208308E+03  0.25348208309E+03  0.26000000000E-02 0. -1.
         23    2    1    2    0    0  0.00000000000E+00  0.00000000000E+00 -0.24572994432E+03  0.26123422229E+03  0.88657280355E+02 0.  0.
        -11    1    3    3    0    0  0.41577542346E+02  0.48726447408E+00 -0.77589536953E+02  0.88028777675E+02  0.51100000000E-03 0.  1.
         11    1    3    3    0    0 -0.41577542346E+02 -0.48726447408E+00 -0.16814040736E+03  0.17320544461E+03  0.51100000000E-03 0. -1.
<mgrwt>
<rscale>  0 0.88657280E+02</rscale>
<asrwt>0</asrwt>
<pdfrwt beam="1">  1        2 0.11926370E-02 0.88657280E+02</pdfrwt>
<pdfrwt beam="2">  1       -2 0.38997237E-01 0.88657280E+02</pdfrwt>
<totfact> 0.59944879E+04</totfact>
</mgrwt>
</event>
<event>
 5    1  0.2809073E+000  0.9127792E+02  0.7818608E-02  0.1299786E+00
          2   -1    0    0  501    0  0.00000000000E+00  0.00000000000E+00  0.68154268285E+02  0.68154268335E+02  0.26000000000E-02 0. -1.
         -2   -1    0    0    0  501 -0.00000000000E+00 -0.00000000000E+00 -0.30561766171E+02  0.30561766282E+02  0.26000000000E-02 0.  1.
         23    2    1    2    0    0  0.00000000000E+00  0.00000000000E+00  0.37592502114E+02  0.98716034617E+02  0.91277923263E+02 0.  0.
        -11    1    3    3    0    0  0.86154001219E+01 -0.37806059911E+02 -0.72357781788E+01  0.39444641858E+02  0.51100000000E-03 0.  1.
         11    1    3    3    0    0 -0.86154001219E+01  0.37806059911E+02  0.44828280293E+02  0.59271392758E+02  0.51100000000E-03 0. -1.
<mgrwt>
<rscale>  0 0.91277923E+02</rscale>
<asrwt>0</asrwt>
<pdfrwt beam="1">  1        2 0.10485272E-01 0.91277923E+02</pdfrwt>
<pdfrwt beam="2">  1       -2 0.47018102E-02 0.91277923E+02</pdfrwt>
<totfact> 0.10946541E+05</totfact>
</mgrwt>
</event>
<event>
 4    1  0.2809073E+000  0.1301928E+03  0.7818608E-02  0.1227170E+00
          2   -1    0    0  501    0  0.00000000000E+00  0.00000000000E+00  0.41308861122E+03  0.41308861123E+03  0.26000000000E-02 0. -1.
         -2   -1    0    0    0  501 -0.00000000000E+00 -0.00000000000E+00 -0.10258191707E+02  0.10258192036E+02  0.26000000000E-02 0.  1.
        -11    1    1    2    0    0  0.38778079130E+02 -0.48566318221E+02  0.26439363588E+03  0.27159974481E+03  0.51100000000E-03 0.  1.
         11    1    1    2    0    0 -0.38778079130E+02  0.48566318221E+02  0.13843678363E+03  0.15174705845E+03  0.51100000000E-03 0. -1.
<mgrwt>
<rscale>  0 0.13019281E+03</rscale>
<asrwt>0</asrwt>
<pdfrwt beam="1">  1        2 0.63552097E-01 0.13019281E+03</pdfrwt>
<pdfrwt beam="2">  1       -2 0.15781833E-02 0.13019281E+03</pdfrwt>
<totfact> 0.77025143E+04</totfact>
</mgrwt>
</event>
<event>
 5    1  0.2809073E+000  0.9032533E+02  0.7818608E-02  0.1302066E+00
         -2   -1    0    0    0  501 -0.00000000000E+00  0.00000000000E+00  0.24654076690E+02  0.24654076827E+02  0.26000000000E-02 0.  1.
          2   -1    0    0  501    0  0.00000000000E+00 -0.00000000000E+00 -0.82731399027E+02  0.82731399068E+02  0.26000000000E-02 0. -1.
         23    2    1    2    0    0  0.00000000000E+00  0.00000000000E+00 -0.58077322337E+02  0.10738547589E+03  0.90325329024E+02 0.  0.
        -11    1    3    3    0    0 -0.29327496807E+02 -0.15633253148E+02  0.73176869861E+01  0.34030122187E+02  0.51100000000E-03 0.  1.
         11    1    3    3    0    0  0.29327496807E+02  0.15633253148E+02 -0.65395009323E+02  0.73355353708E+02  0.51100000000E-03 0. -1.
<mgrwt>
<rscale>  0 0.90325329E+02</rscale>
<asrwt>0</asrwt>
<pdfrwt beam="2">  1        2 0.12727907E-01 0.90325329E+02</pdfrwt>
<pdfrwt beam="1">  1       -2 0.37929349E-02 0.90325329E+02</pdfrwt>
<totfact> 0.11902389E+05</totfact>
</mgrwt>
</event>
<event>
 5    1  0.2809073E+000  0.9080744E+02  0.7818608E-02  0.1300908E+00
         -2   -1    0    0    0  501 -0.00000000000E+00  0.00000000000E+00  0.16436922969E+02  0.16436923175E+02  0.26000000000E-02 0. -1.
          2   -1    0    0  501    0  0.00000000000E+00 -0.00000000000E+00 -0.12541872362E+03  0.12541872365E+03  0.26000000000E-02 0.  1.
         23    2    1    2    0    0  0.00000000000E+00  0.00000000000E+00 -0.10898180065E+03  0.14185564682E+03  0.90807442770E+02 0.  0.
        -11    1    3    3    0    0 -0.19294151055E+02  0.15624290154E+02 -0.11387585350E+03  0.11655081604E+03  0.51100000000E-03 0.  1.
         11    1    3    3    0    0  0.19294151055E+02 -0.15624290154E+02  0.48940528479E+01  0.25304830789E+02  0.51100000000E-03 0. -1.
<mgrwt>
<rscale>  0 0.90807443E+02</rscale>
<asrwt>0</asrwt>
<pdfrwt beam="2">  1        2 0.19295188E-01 0.90807443E+02</pdfrwt>
<pdfrwt beam="1">  1       -2 0.25287575E-02 0.90807443E+02</pdfrwt>
<totfact> 0.13319561E+05</totfact>
</mgrwt>
</event>
<event>
 5    1  0.2809073E+000  0.8899974E+02  0.7818608E-02  0.1305292E+00
         -2   -1    0    0    0  501 -0.00000000000E+00  0.00000000000E+00  0.11950209755E+02  0.11950210038E+02  0.26000000000E-02 0. -1.
          2   -1    0    0  501    0  0.00000000000E+00 -0.00000000000E+00 -0.16570740648E+03  0.16570740650E+03  0.26000000000E-02 0.  1.
         23    2    1    2    0    0  0.00000000000E+00  0.00000000000E+00 -0.15375719673E+03  0.17765761654E+03  0.88999736905E+02 0.  0.
        -11    1    3    3    0    0  0.41734521863E+02  0.13896835941E+02 -0.63436587119E+02  0.77195161441E+02  0.51100000000E-03 0.  1.
         11    1    3    3    0    0 -0.41734521863E+02 -0.13896835941E+02 -0.90320609606E+02  0.10046245510E+03  0.51100000000E-03 0. -1.
<mgrwt>
<rscale>  0 0.88999737E+02</rscale>
<asrwt>0</asrwt>
<pdfrwt beam="2">  1        2 0.25493445E-01 0.88999737E+02</pdfrwt>
<pdfrwt beam="1">  1       -2 0.18384940E-02 0.88999737E+02</pdfrwt>
<totfact> 0.15443779E+05</totfact>
</mgrwt>
</event>
<event>
 5    1  0.2809073E+000  0.8943635E+02  0.7818608E-02  0.1304222E+00
          2   -1    0    0  501    0  0.00000000000E+00  0.00000000000E+00  0.68015127204E+02  0.68015127254E+02  0.26000000000E-02 0. -1.
         -2   -1    0    0    0  501 -0.00000000000E+00 -0.00000000000E+00 -0.29401037464E+02  0.29401037579E+02  0.26000000000E-02 0.  1.
         23    2    1    2    0    0  0.00000000000E+00  0.00000000000E+00  0.38614089739E+02  0.97416164833E+02  0.89436353036E+02 0.  0.
        -11    1    3    3    0    0 -0.31883033400E+02  0.27075293150E+02  0.20809165751E+01  0.41879941882E+02  0.51100000000E-03 0.  1.
         11    1    3    3    0    0  0.31883033400E+02 -0.27075293150E+02  0.36533173164E+02  0.55536222951E+02  0.51100000000E-03 0. -1.
<mgrwt>
<rscale>  0 0.89436353E+02</rscale>
<asrwt>0</asrwt>
<pdfrwt beam="1">  1        2 0.10463866E-01 0.89436353E+02</pdfrwt>
<pdfrwt beam="2">  1       -2 0.45232366E-02 0.89436353E+02</pdfrwt>
<totfact> 0.11581825E+05</totfact>
</mgrwt>
</event>
<event>
 5    1  0.2809073E+000  0.9040441E+02  0.7818608E-02  0.1301875E+00
         -2   -1    0    0    0  501 -0.00000000000E+00  0.00000000000E+00  0.19313687393E+02  0.19313687568E+02  0.26000000000E-02 0. -1.
          2   -1    0    0  501    0  0.00000000000E+00 -0.00000000000E+00 -0.10579230458E+03  0.10579230461E+03  0.26000000000E-02 0.  1.
         23    2    1    2    0    0  0.00000000000E+00  0.00000000000E+00 -0.86478617184E+02  0.12510599218E+03  0.90404413878E+02 0.  0.
        -11    1    3    3    0    0 -0.16219127052E+02  0.12255197707E+02  0.12630976553E+02  0.23933063366E+02  0.51100000000E-03 0. -1.
         11    1    3    3    0    0  0.16219127052E+02 -0.12255197707E+02 -0.99109593737E+02  0.10117292881E+03  0.51100000000E-03 0.  1.
<mgrwt>
<rscale>  0 0.90404414E+02</rscale>
<asrwt>0</asrwt>
<pdfrwt beam="2">  1        2 0.16275739E-01 0.90404414E+02</pdfrwt>
<pdfrwt beam="1">  1       -2 0.29713366E-02 0.90404414E+02</pdfrwt>
<totfact> 0.12776247E+05</totfact>
</mgrwt>
</event>
<event>
 5    1  0.2809073E+000  0.8698420E+02  0.7818608E-02  0.1310324E+00
          2   -1    0    0  501    0  0.00000000000E+00  0.00000000000E+00  0.49484231402E+02  0.49484231471E+02  0.26000000000E-02 0. -1.
         -2   -1    0    0    0  501 -0.00000000000E+00 -0.00000000000E+00 -0.38225567451E+02  0.38225567539E+02  0.26000000000E-02 0.  1.
         23    2    1    2    0    0  0.00000000000E+00  0.00000000000E+00  0.11258663951E+02  0.87709799010E+02  0.86984201602E+02 0.  0.
        -11    1    3    3    0    0  0.15451183007E+02 -0.24561662132E+01 -0.35289853451E+02  0.38602403625E+02  0.51100000000E-03 0.  1.
         11    1    3    3    0    0 -0.15451183007E+02  0.24561662132E+01  0.46548517403E+02  0.49107395384E+02  0.51100000000E-03 0. -1.
<mgrwt>
<rscale>  0 0.86984202E+02</rscale>
<asrwt>0</asrwt>
<pdfrwt beam="1">  1        2 0.76129586E-02 0.86984202E+02</pdfrwt>
<pdfrwt beam="2">  1       -2 0.58808566E-02 0.86984202E+02</pdfrwt>
<totfact> 0.11521461E+05</totfact>
</mgrwt>
</event>
<event>
 5    1  0.2809073E+000  0.9122362E+02  0.7818608E-02  0.1299915E+00
         -2   -1    0    0    0  501 -0.00000000000E+00  0.00000000000E+00  0.69590532701E+02  0.69590532749E+02  0.26000000000E-02 0. -1.
          2   -1    0    0  501    0  0.00000000000E+00 -0.00000000000E+00 -0.29895405965E+02  0.29895406079E+02  0.26000000000E-02 0.  1.
         23    2    1    2    0    0  0.00000000000E+00  0.00000000000E+00  0.39695126735E+02  0.99485938828E+02  0.91223620504E+02 0.  0.
        -11    1    3    3    0    0  0.78939946206E+01  0.38579441511E+02  0.44948468305E+02  0.59758290316E+02  0.51100000000E-03 0. -1.
         11    1    3    3    0    0 -0.78939946206E+01 -0.38579441511E+02 -0.52533415693E+01  0.39727648511E+02  0.51100000000E-03 0.  1.
<mgrwt>
<rscale>  0 0.91223621E+02</rscale>
<asrwt>0</asrwt>
<pdfrwt beam="2">  1        2 0.45992933E-02 0.91223621E+02</pdfrwt>
<pdfrwt beam="1">  1       -2 0.10706236E-01 0.91223621E+02</pdfrwt>
<totfact> 0.88248916E+04</totfact>
</mgrwt>
</event>
<event>
 5    1  0.2809073E+000  0.8164874E+02  0.7818608E-02  0.1324437E+00
          2   -1    0    0  501    0  0.00000000000E+00  0.00000000000E+00  0.11984710330E+03  0.11984710333E+03  0.26000000000E-02 0. -1.
         -2   -1    0    0    0  501 -0.00000000000E+00 -0.00000000000E+00 -0.13906295462E+02  0.13906295705E+02  0.26000000000E-02 0.  1.
         23    2    1    2    0    0  0.00000000000E+00  0.00000000000E+00  0.10594080784E+03  0.13375339904E+03  0.81648741496E+02 0.  0.
        -11    1    3    3    0    0  0.54289029277E+01 -0.29565263388E+02  0.98221827498E+02  0.10271857273E+03  0.51100000000E-03 0. -1.
         11    1    3    3    0    0 -0.54289029277E+01  0.29565263388E+02  0.77189803450E+01  0.31034826309E+02  0.51100000000E-03 0.  1.
<mgrwt>
<rscale>  0 0.81648741E+02</rscale>
<asrwt>0</asrwt>
<pdfrwt beam="1">  1        2 0.18438016E-01 0.81648741E+02</pdfrwt>
<pdfrwt beam="2">  1       -2 0.21394301E-02 0.81648741E+02</pdfrwt>
<totfact> 0.17511081E+05</totfact>
</mgrwt>
</event>
<event>
 5    1  0.2809073E+000  0.8845153E+02  0.7818608E-02  0.1306645E+00
          2   -1    0    0  501    0  0.00000000000E+00  0.00000000000E+00  0.48584909583E+02  0.48584909653E+02  0.26000000000E-02 0. -1.
         -2   -1    0    0    0  501 -0.00000000000E+00 -0.00000000000E+00 -0.40257734140E+02  0.40257734224E+02  0.26000000000E-02 0.  1.
         23    2    1    2    0    0  0.00000000000E+00  0.00000000000E+00  0.83271754428E+01  0.88842643877E+02  0.88451532040E+02 0.  0.
        -11    1    3    3    0    0  0.61374359995E+01  0.29220128079E+02 -0.28606345786E+02  0.41349812879E+02  0.51100000000E-03 0.  1.
         11    1    3    3    0    0 -0.61374359995E+01 -0.29220128079E+02  0.36933521228E+02  0.47492830998E+02  0.51100000000E-03 0. -1.
<mgrwt>
<rscale>  0 0.88451532E+02</rscale>
<asrwt>0</asrwt>
<pdfrwt beam="1">  1        2 0.74746015E-02 0.88451532E+02</pdfrwt>
<pdfrwt beam="2">  1       -2 0.61934976E-02 0.88451532E+02</pdfrwt>
<totfact> 0.10937400E+05</totfact>
</mgrwt>
</event>
<event>
 5    1  0.2809073E+000  0.8879500E+02  0.7818608E-02  0.1305796E+00
         -2   -1    0    0    0  501 -0.00000000000E+00  0.00000000000E+00  0.15368724818E+02  0.15368725038E+02  0.26000000000E-02 0.  1.
          2   -1    0    0  501    0  0.00000000000E+00 -0.00000000000E+00 -0.12825644444E+03  0.12825644447E+03  0.26000000000E-02 0. -1.
         23    2    1    2    0    0  0.00000000000E+00  0.00000000000E+00 -0.11288771962E+03  0.14362516951E+03  0.88795000276E+02 0.  0.
        -11    1    3    3    0    0  0.23411119084E+02  0.96206938465E+01  0.25557912957E+01  0.25439542375E+02  0.51100000000E-03 0.  1.
         11    1    3    3    0    0 -0.23411119084E+02 -0.96206938465E+01 -0.11544351092E+03  0.11818562713E+03  0.51100000000E-03 0. -1.
<mgrwt>
<rscale>  0 0.88795000E+02</rscale>
<asrwt>0</asrwt>
<pdfrwt beam="2">  1        2 0.19731760E-01 0.88795000E+02</pdfrwt>
<pdfrwt beam="1">  1       -2 0.23644193E-02 0.88795000E+02</pdfrwt>
<totfact> 0.14260186E+05</totfact>
</mgrwt>
</event>
<event>
 5    1  0.2809073E+000  0.9142106E+02  0.7818608E-02  0.1299446E+00
         -2   -1    0    0    0  501 -0.00000000000E+00  0.00000000000E+00  0.10585235997E+03  0.10585236001E+03  0.26000000000E-02 0.  1.
          2   -1    0    0  501    0  0.00000000000E+00 -0.00000000000E+00 -0.19739310006E+02  0.19739310177E+02  0.26000000000E-02 0. -1.
         23    2    1    2    0    0  0.00000000000E+00  0.00000000000E+00  0.86113049969E+02  0.12559167018E+03  0.91421060181E+02 0.  0.
        -11    1    3    3    0    0 -0.17908560097E+02 -0.20291812373E+02  0.93662412735E+02  0.97494213847E+02  0.51100000000E-03 0.  1.
         11    1    3    3    0    0  0.17908560097E+02  0.20291812373E+02 -0.75493627661E+01  0.28097456336E+02  0.51100000000E-03 0. -1.
<mgrwt>
<rscale>  0 0.91421060E+02</rscale>
<asrwt>0</asrwt>
<pdfrwt beam="2">  1        2 0.30368170E-02 0.91421060E+02</pdfrwt>
<pdfrwt beam="1">  1       -2 0.16284978E-01 0.91421060E+02</pdfrwt>
<totfact> 0.77925508E+04</totfact>
</mgrwt>
</event>
<event>
 5    1  0.2809073E+000  0.8872672E+02  0.7818608E-02  0.1305965E+00
          2   -1    0    0  501    0  0.00000000000E+00  0.00000000000E+00  0.56193419115E+02  0.56193419176E+02  0.26000000000E-02 0. -1.
         -2   -1    0    0    0  501 -0.00000000000E+00 -0.00000000000E+00 -0.35023807679E+02  0.35023807775E+02  0.26000000000E-02 0.  1.
         23    2    1    2    0    0  0.00000000000E+00  0.00000000000E+00  0.21169611437E+02  0.91217226951E+02  0.88726715504E+02 0.  0.
        -11    1    3    3    0    0  0.28828333535E+02  0.25401615785E+02 -0.12214071534E+02  0.40317470686E+02  0.51100000000E-03 0.  1.
         11    1    3    3    0    0 -0.28828333535E+02 -0.25401615785E+02  0.33383682970E+02  0.50899756264E+02  0.51100000000E-03 0. -1.
<mgrwt>
<rscale>  0 0.88726716E+02</rscale>
<asrwt>0</asrwt>
<pdfrwt beam="1">  1        2 0.86451413E-02 0.88726716E+02</pdfrwt>
<pdfrwt beam="2">  1       -2 0.53882782E-02 0.88726716E+02</pdfrwt>
<totfact> 0.11255910E+05</totfact>
</mgrwt>
</event>
<event>
 5    1  0.2809073E+000  0.9177309E+02  0.7818608E-02  0.1298614E+00
         -2   -1    0    0    0  501 -0.00000000000E+00  0.00000000000E+00  0.26510232638E+02  0.26510232766E+02  0.26000000000E-02 0.  1.
          2   -1    0    0  501    0  0.00000000000E+00 -0.00000000000E+00 -0.79424992149E+02  0.79424992192E+02  0.26000000000E-02 0. -1.
         23    2    1    2    0    0  0.00000000000E+00  0.00000000000E+00 -0.52914759511E+02  0.10593522496E+03  0.91773090352E+02 0.  0.
        -11    1    3    3    0    0 -0.17351240112E+02 -0.31485255528E+02  0.64596443276E+01  0.36525523326E+02  0.51100000000E-03 0.  1.
         11    1    3    3    0    0  0.17351240112E+02  0.31485255528E+02 -0.59374403838E+02  0.69409701631E+02  0.51100000000E-03 0. -1.
<mgrwt>
<rscale>  0 0.91773090E+02</rscale>
<asrwt>0</asrwt>
<pdfrwt beam="2">  1        2 0.12219229E-01 0.91773090E+02</pdfrwt>
<pdfrwt beam="1">  1       -2 0.40784974E-02 0.91773090E+02</pdfrwt>
<totfact> 0.11255778E+05</totfact>
</mgrwt>
</event>
<event>
 5    1  0.2809073E+000  0.9051738E+02  0.7818608E-02  0.1301604E+00
          2   -1    0    0  501    0  0.00000000000E+00  0.00000000000E+00  0.23187434386E+03  0.23187434387E+03  0.26000000000E-02 0. -1.
         -2   -1    0    0    0  501 -0.00000000000E+00 -0.00000000000E+00 -0.88338746174E+01  0.88338750000E+01  0.26000000000E-02 0.  1.
         23    2    1    2    0    0  0.00000000000E+00  0.00000000000E+00  0.22304046924E+03  0.24070821887E+03  0.90517377965E+02 0.  0.
        -11    1    3    3    0    0  0.19194302736E+02 -0.28899007632E+02  0.18881133458E+03  0.19197211768E+03  0.51100000000E-03 0. -1.
         11    1    3    3    0    0 -0.19194302736E+02  0.28899007632E+02  0.34229134657E+02  0.48736101191E+02  0.51100000000E-03 0.  1.
<mgrwt>
<rscale>  0 0.90517378E+02</rscale>
<asrwt>0</asrwt>
<pdfrwt beam="1">  1        2 0.35672975E-01 0.90517378E+02</pdfrwt>
<pdfrwt beam="2">  1       -2 0.13590577E-02 0.90517378E+02</pdfrwt>
<totfact> 0.16646886E+05</totfact>
</mgrwt>
</event>
<event>
 5    1  0.2809073E+000  0.9109914E+02  0.7818608E-02  0.1300212E+00
          2   -1    0    0  501    0  0.00000000000E+00  0.00000000000E+00  0.22422958463E+02  0.22422958613E+02  0.26000000000E-02 0. -1.
         -2   -1    0    0    0  501 -0.00000000000E+00 -0.00000000000E+00 -0.92528524191E+02  0.92528524227E+02  0.26000000000E-02 0.  1.
         23    2    1    2    0    0  0.00000000000E+00  0.00000000000E+00 -0.70105565728E+02  0.11495148284E+03  0.91099138641E+02 0.  0.
        -11    1    3    3    0    0  0.27773224339E+02  0.35618241953E+02 -0.27614187622E+02  0.52939158553E+02  0.51100000000E-03 0. -1.
         11    1    3    3    0    0 -0.27773224339E+02 -0.35618241953E+02 -0.42491378106E+02  0.62012324288E+02  0.51100000000E-03 0.  1.
<mgrwt>
<rscale>  0 0.91099139E+02</rscale>
<asrwt>0</asrwt>
<pdfrwt beam="1">  1        2 0.34496860E-02 0.91099139E+02</pdfrwt>
<pdfrwt beam="2">  1       -2 0.14235157E-01 0.91099139E+02</pdfrwt>
<totfact> 0.81822172E+04</totfact>
</mgrwt>
</event>
<event>
 5    1  0.2809073E+000  0.8946310E+02  0.7818608E-02  0.1304157E+00
         -2   -1    0    0    0  501 -0.00000000000E+00  0.00000000000E+00  0.77499539512E+01  0.77499543873E+01  0.26000000000E-02 0.  1.
          2   -1    0    0  501    0  0.00000000000E+00 -0.00000000000E+00 -0.25818364592E+03  0.25818364593E+03  0.26000000000E-02 0. -1.
         23    2    1    2    0    0  0.00000000000E+00  0.00000000000E+00 -0.25043369197E+03  0.26593360032E+03  0.89463096895E+02 0.  0.
        -11    1    3    3    0    0  0.35471876056E+02  0.34482148421E+00 -0.44216143857E+02  0.56687214349E+02  0.51100000000E-03 0.  1.
         11    1    3    3    0    0 -0.35471876056E+02 -0.34482148421E+00 -0.20621754811E+03  0.20924638597E+03  0.51100000000E-03 0. -1.
<mgrwt>
<rscale>  0 0.89463097E+02</rscale>
<asrwt>0</asrwt>
<pdfrwt beam="2">  1        2 0.39720554E-01 0.89463097E+02</pdfrwt>
<pdfrwt beam="1">  1       -2 0.11923008E-02 0.89463097E+02</pdfrwt>
<totfact> 0.17871160E+05</totfact>
</mgrwt>
</event>
<event>
 5    1  0.2809073E+000  0.9194870E+02  0.7818608E-02  0.1298200E+00
          2   -1    0    0  501    0  0.00000000000E+00  0.00000000000E+00  0.22227178115E+02  0.22227178268E+02  0.26000000000E-02 0. -1.
         -2   -1    0    0    0  501 -0.00000000000E+00 -0.00000000000E+00 -0.95092641108E+02  0.95092641144E+02  0.26000000000E-02 0.  1.
         23    2    1    2    0    0  0.00000000000E+00  0.00000000000E+00 -0.72865462993E+02  0.11731981941E+03  0.91948704882E+02 0.  0.
        -11    1    3    3    0    0  0.20570118004E+02  0.15498527650E+02 -0.85023720218E+02  0.88838995458E+02  0.51100000000E-03 0.  1.
         11    1    3    3    0    0 -0.20570118004E+02 -0.15498527650E+02  0.12158257225E+02  0.28480823953E+02  0.51100000000E-03 0. -1.
<mgrwt>
<rscale>  0 0.91948705E+02</rscale>
<asrwt>0</asrwt>
<pdfrwt beam="1">  1        2 0.34195659E-02 0.91948705E+02</pdfrwt>
<pdfrwt beam="2">  1       -2 0.14629637E-01 0.91948705E+02</pdfrwt>
<totfact> 0.79323202E+04</totfact>
</mgrwt>
</event>
<event>
 5    1  0.2809073E+000  0.8995129E+02  0.7818608E-02  0.1302970E+00
          2   -1    0    0  501    0  0.00000000000E+00  0.00000000000E+00  0.21010897191E+03  0.21010897192E+03  0.26000000000E-02 0. -1.
         -2   -1    0    0    0  501 -0.00000000000E+00 -0.00000000000E+00 -0.96274250720E+01  0.96274254231E+01  0.26000000000E-02 0.  1.
         23    2    1    2    0    0  0.00000000000E+00  0.00000000000E+00  0.20048154684E+03  0.21973639735E+03  0.89951285135E+02 0.  0.
        -11    1    3    3    0    0 -0.46327955006E+01  0.34681177761E+02  0.16927251371E+03  0.17285089176E+03  0.51100000000E-03 0. -1.
         11    1    3    3    0    0  0.46327955006E+01 -0.34681177761E+02  0.31209033126E+02  0.46885505585E+02  0.51100000000E-03 0.  1.
<mgrwt>
<rscale>  0 0.89951285E+02</rscale>
<asrwt>0</asrwt>
<pdfrwt beam="1">  1        2 0.32324457E-01 0.89951285E+02</pdfrwt>
<pdfrwt beam="2">  1       -2 0.14811423E-02 0.89951285E+02</pdfrwt>
<totfact> 0.16330024E+05</totfact>
</mgrwt>
</event>
<event>
 5    1  0.2809073E+000  0.9056290E+02  0.7818608E-02  0.1301494E+00
         -2   -1    0    0    0  501 -0.00000000000E+00  0.00000000000E+00  0.55434213060E+01  0.55434219158E+01  0.26000000000E-02 0.  1.
          2   -1    0    0  501    0  0.00000000000E+00 -0.00000000000E+00 -0.36988161101E+03  0.36988161102E+03  0.26000000000E-02 0. -1.
         23    2    1    2    0    0  0.00000000000E+00  0.00000000000E+00 -0.36433818971E+03  0.37542503294E+03  0.90562900117E+02 0.  0.
        -11    1    3    3    0    0 -0.37372620839E+02 -0.22620130345E+02 -0.23157260457E+03  0.23565706922E+03  0.51100000000E-03 0. -1.
         11    1    3    3    0    0  0.37372620839E+02  0.22620130345E+02 -0.13276558514E+03  0.13976796372E+03  0.51100000000E-03 0.  1.
<mgrwt>
<rscale>  0 0.90562900E+02</rscale>
<asrwt>0</asrwt>
<pdfrwt beam="2">  1        2 0.56904844E-01 0.90562900E+02</pdfrwt>
<pdfrwt beam="1">  1       -2 0.85283438E-03 0.90562900E+02</pdfrwt>
<totfact> 0.19757680E+05</totfact>
</mgrwt>
</event>
<event>
 5    1  0.2809073E+000  0.9601092E+02  0.7818608E-02  0.1288915E+00
         -2   -1    0    0    0  501 -0.00000000000E+00  0.00000000000E+00  0.15877659284E+02  0.15877659497E+02  0.26000000000E-02 0.  1.
          2   -1    0    0  501    0  0.00000000000E+00 -0.00000000000E+00 -0.14514256087E+03  0.14514256089E+03  0.26000000000E-02 0. -1.
         23    2    1    2    0    0  0.00000000000E+00  0.00000000000E+00 -0.12926490158E+03  0.16102022039E+03  0.96010919131E+02 0.  0.
        -11    1    3    3    0    0  0.33459386675E+02  0.15825846126E+02 -0.13363096182E+02  0.39351750940E+02  0.51100000000E-03 0.  1.
         11    1    3    3    0    0 -0.33459386675E+02 -0.15825846126E+02 -0.11590180540E+03  0.12166846945E+03  0.51100000000E-03 0. -1.
<mgrwt>
<rscale>  0 0.96010919E+02</rscale>
<asrwt>0</asrwt>
<pdfrwt beam="2">  1        2 0.22329624E-01 0.96010919E+02</pdfrwt>
<pdfrwt beam="1">  1       -2 0.24427169E-02 0.96010919E+02</pdfrwt>
<totfact> 0.12008378E+05</totfact>
</mgrwt>
</event>
<event>
 5    1  0.2809073E+000  0.9380744E+02  0.7818608E-02  0.1293885E+00
          2   -1    0    0  501    0  0.00000000000E+00  0.00000000000E+00  0.32786082058E+03  0.32786082059E+03  0.26000000000E-02 0. -1.
         -2   -1    0    0    0  501 -0.00000000000E+00 -0.00000000000E+00 -0.67100389637E+01  0.67100394674E+01  0.26000000000E-02 0.  1.
         23    2    1    2    0    0  0.00000000000E+00  0.00000000000E+00  0.32115078162E+03  0.33457086006E+03  0.93807440360E+02 0.  0.
        -11    1    3    3    0    0  0.12021865944E+02 -0.44700807705E+02  0.18756646019E+03  0.19319385202E+03  0.51100000000E-03 0. -1.
         11    1    3    3    0    0 -0.12021865944E+02  0.44700807705E+02  0.13358432143E+03  0.14137700804E+03  0.51100000000E-03 0.  1.
<mgrwt>
<rscale>  0 0.93807440E+02</rscale>
<asrwt>0</asrwt>
<pdfrwt beam="1">  1        2 0.50440124E-01 0.93807440E+02</pdfrwt>
<pdfrwt beam="2">  1       -2 0.10323138E-02 0.93807440E+02</pdfrwt>
<totfact> 0.17210345E+05</totfact>
</mgrwt>
</event>
<event>
 5    1  0.2809073E+000  0.9025688E+02  0.7818608E-02  0.1302231E+00
          2   -1    0    0  501    0  0.00000000000E+00  0.00000000000E+00  0.29411455911E+03  0.29411455912E+03  0.26000000000E-02 0. -1.
         -2   -1    0    0    0  501 -0.00000000000E+00 -0.00000000000E+00 -0.69244304189E+01  0.69244309071E+01  0.26000000000E-02 0.  1.
         23    2    1    2    0    0  0.00000000000E+00  0.00000000000E+00  0.28719012869E+03  0.30103899002E+03  0.90256875083E+02 0.  0.
        -11    1    3    3    0    0 -0.11715018719E+02  0.41099353256E+02  0.19194940157E+03  0.19664936121E+03  0.51100000000E-03 0. -1.
         11    1    3    3    0    0  0.11715018719E+02 -0.41099353256E+02  0.95240727116E+02  0.10438962881E+03  0.51100000000E-03 0.  1.
<mgrwt>
<rscale>  0 0.90256875E+02</rscale>
<asrwt>0</asrwt>
<pdfrwt beam="1">  1        2 0.45248398E-01 0.90256875E+02</pdfrwt>
<pdfrwt beam="2">  1       -2 0.10652969E-02 0.90256875E+02</pdfrwt>
<totfact> 0.18322710E+05</totfact>
</mgrwt>
</event>
<event>
 5    1  0.2809073E+000  0.9128170E+02  0.7818608E-02  0.1299777E+00
          2   -1    0    0  501    0  0.00000000000E+00  0.00000000000E+00  0.51805974157E+02  0.51805974222E+02  0.26000000000E-02 0. -1.
         -2   -1    0    0    0  501 -0.00000000000E+00 -0.00000000000E+00 -0.40209402080E+02  0.40209402164E+02  0.26000000000E-02 0.  1.
         23    2    1    2    0    0  0.00000000000E+00  0.00000000000E+00  0.11596572077E+02  0.92015376387E+02  0.91281701384E+02 0.  0.
        -11    1    3    3    0    0 -0.30770158525E+02  0.18219204226E+02 -0.22790644939E+02  0.42404664311E+02  0.51100000000E-03 0.  1.
         11    1    3    3    0    0  0.30770158525E+02 -0.18219204226E+02  0.34387217016E+02  0.49610712076E+02  0.51100000000E-03 0. -1.
<mgrwt>
<rscale>  0 0.91281701E+02</rscale>
<asrwt>0</asrwt>
<pdfrwt beam="1">  1        2 0.79701498E-02 0.91281701E+02</pdfrwt>
<pdfrwt beam="2">  1       -2 0.61860619E-02 0.91281701E+02</pdfrwt>
<totfact> 0.10168758E+05</totfact>
</mgrwt>
</event>
<event>
 5    1  0.2809073E+000  0.9845418E+02  0.7818608E-02  0.1283581E+00
          2   -1    0    0  501    0  0.00000000000E+00  0.00000000000E+00  0.37190698243E+03  0.37190698244E+03  0.26000000000E-02 0. -1.
         -2   -1    0    0    0  501 -0.00000000000E+00 -0.00000000000E+00 -0.65158929336E+01  0.65158934523E+01  0.26000000000E-02 0.  1.
         23    2    1    2    0    0  0.00000000000E+00  0.00000000000E+00  0.36539108949E+03  0.37842287589E+03  0.98454175709E+02 0.  0.
        -11    1    3    3    0    0  0.44930194129E+01 -0.48616691334E+02  0.20686356831E+03  0.21254718487E+03  0.51100000000E-03 0. -1.
         11    1    3    3    0    0 -0.44930194129E+01  0.48616691334E+02  0.15852752118E+03  0.16587569102E+03  0.51100000000E-03 0.  1.
<mgrwt>
<rscale>  0 0.98454176E+02</rscale>
<asrwt>0</asrwt>
<pdfrwt beam="1">  1        2 0.57216466E-01 0.98454176E+02</pdfrwt>
<pdfrwt beam="2">  1       -2 0.10024450E-02 0.98454176E+02</pdfrwt>
<totfact> 0.15840044E+05</totfact>
</mgrwt>
</event>
<event>
 5    1  0.2809073E+000  0.9280875E+02  0.7818608E-02  0.1296189E+00
         -2   -1    0    0    0  501 -0.00000000000E+00  0.00000000000E+00  0.61942204519E+01  0.61942209976E+01  0.26000000000E-02 0.  1.
          2   -1    0    0  501    0  0.00000000000E+00 -0.00000000000E+00 -0.34764116201E+03  0.34764116202E+03  0.26000000000E-02 0. -1.
         23    2    1    2    0    0  0.00000000000E+00  0.00000000000E+00 -0.34144694156E+03  0.35383538302E+03  0.92808751612E+02 0.  0.
        -11    1    3    3    0    0 -0.41951450625E+02  0.46811126966E+01 -0.97236773763E+02  0.10600390180E+03  0.51100000000E-03 0.  1.
         11    1    3    3    0    0  0.41951450625E+02 -0.46811126966E+01 -0.24421016780E+03  0.24783148122E+03  0.51100000000E-03 0. -1.
<mgrwt>
<rscale>  0 0.92808752E+02</rscale>
<asrwt>0</asrwt>
<pdfrwt beam="2">  1        2 0.53483241E-01 0.92808752E+02</pdfrwt>
<pdfrwt beam="1">  1       -2 0.95295730E-03 0.92808752E+02</pdfrwt>
<totfact> 0.18096566E+05</totfact>
</mgrwt>
</event>
<event>
 5    1  0.2809073E+000  0.9335040E+02  0.7818608E-02  0.1294935E+00
         -2   -1    0    0    0  501 -0.00000000000E+00  0.00000000000E+00  0.14707998303E+03  0.14707998305E+03  0.26000000000E-02 0. -1.
          2   -1    0    0  501    0  0.00000000000E+00 -0.00000000000E+00 -0.14812174484E+02  0.14812174713E+02  0.26000000000E-02 0.  1.
         23    2    1    2    0    0  0.00000000000E+00  0.00000000000E+00  0.13226780854E+03  0.16189215776E+03  0.93350402080E+02 0.  0.
        -11    1    3    3    0    0 -0.27779681444E+02 -0.26197516780E+02  0.19581423789E+02  0.42912151477E+02  0.51100000000E-03 0.  1.
         11    1    3    3    0    0  0.27779681444E+02  0.26197516780E+02  0.11268638476E+03  0.11898000629E+03  0.51100000000E-03 0. -1.
<mgrwt>
<rscale>  0 0.93350402E+02</rscale>
<asrwt>0</asrwt>
<pdfrwt beam="2">  1        2 0.22787960E-02 0.93350402E+02</pdfrwt>
<pdfrwt beam="1">  1       -2 0.22627690E-01 0.93350402E+02</pdfrwt>
<totfact> 0.66280773E+04</totfact>
</mgrwt>
</event>
<event>
 5    1  0.2809073E+000  0.9230799E+02  0.7818608E-02  0.1297357E+00
          2   -1    0    0  501    0  0.00000000000E+00  0.00000000000E+00  0.23624722160E+02  0.23624722303E+02  0.26000000000E-02 0.  1.
         -2   -1    0    0    0  501 -0.00000000000E+00 -0.00000000000E+00 -0.90167886629E+02  0.90167886667E+02  0.26000000000E-02 0. -1.
         23    2    1    2    0    0  0.00000000000E+00  0.00000000000E+00 -0.66543164470E+02  0.11379260897E+03  0.92307990545E+02 0.  0.
        -11    1    3    3    0    0  0.44236125194E+01  0.24285812391E+02 -0.81345994835E+02  0.85009057794E+02  0.51100000000E-03 0. -1.
         11    1    3    3    0    0 -0.44236125194E+01 -0.24285812391E+02  0.14802830365E+02  0.28783551175E+02  0.51100000000E-03 0.  1.
<mgrwt>
<rscale>  0 0.92307991E+02</rscale>
<asrwt>0</asrwt>
<pdfrwt beam="1">  1        2 0.36345727E-02 0.92307991E+02</pdfrwt>
<pdfrwt beam="2">  1       -2 0.13871982E-01 0.92307991E+02</pdfrwt>
<totfact> 0.79786488E+04</totfact>
</mgrwt>
</event>
<event>
 5    1  0.2809073E+000  0.9181509E+02  0.7818608E-02  0.1298515E+00
          2   -1    0    0  501    0  0.00000000000E+00  0.00000000000E+00  0.17276502762E+03  0.17276502763E+03  0.26000000000E-02 0. -1.
         -2   -1    0    0    0  501 -0.00000000000E+00 -0.00000000000E+00 -0.12198664339E+02  0.12198664616E+02  0.26000000000E-02 0.  1.
         23    2    1    2    0    0  0.00000000000E+00  0.00000000000E+00  0.16056636328E+03  0.18496369225E+03  0.91815088276E+02 0.  0.
        -11    1    3    3    0    0 -0.17561272202E+02  0.23554840322E+02  0.92223292445E+01  0.30794157578E+02  0.51100000000E-03 0.  1.
         11    1    3    3    0    0  0.17561272202E+02 -0.23554840322E+02  0.15134403403E+03  0.15416953467E+03  0.51100000000E-03 0. -1.
<mgrwt>
<rscale>  0 0.91815088E+02</rscale>
<asrwt>0</asrwt>
<pdfrwt beam="1">  1        2 0.26579236E-01 0.91815088E+02</pdfrwt>
<pdfrwt beam="2">  1       -2 0.18767176E-02 0.91815088E+02</pdfrwt>
<totfact> 0.14406041E+05</totfact>
</mgrwt>
</event>
<event>
 5    1  0.2809073E+000  0.9089756E+02  0.7818608E-02  0.1300693E+00
          2   -1    0    0  501    0  0.00000000000E+00  0.00000000000E+00  0.37988961981E+02  0.37988962070E+02  0.26000000000E-02 0. -1.
         -2   -1    0    0    0  501 -0.00000000000E+00 -0.00000000000E+00 -0.54373471793E+02  0.54373471855E+02  0.26000000000E-02 0.  1.
         23    2    1    2    0    0  0.00000000000E+00  0.00000000000E+00 -0.16384509812E+02  0.92362433925E+02  0.90897563437E+02 0.  0.
        -11    1    3    3    0    0 -0.43422760390E+02  0.17896046687E+01 -0.21705177439E+02  0.48578323691E+02  0.51100000000E-03 0.  1.
         11    1    3    3    0    0  0.43422760390E+02 -0.17896046687E+01  0.53206676273E+01  0.43784110234E+02  0.51100000000E-03 0. -1.
<mgrwt>
<rscale>  0 0.90897563E+02</rscale>
<asrwt>0</asrwt>
<pdfrwt beam="1">  1        2 0.58444557E-02 0.90897563E+02</pdfrwt>
<pdfrwt beam="2">  1       -2 0.83651495E-02 0.90897563E+02</pdfrwt>
<totfact> 0.94965587E+04</totfact>
</mgrwt>
</event>
<event>
 5    1  0.2809073E+000  0.9092200E+02  0.7818608E-02  0.1300634E+00
         -2   -1    0    0    0  501 -0.00000000000E+00  0.00000000000E+00  0.11126853504E+03  0.11126853507E+03  0.26000000000E-02 0.  1.
          2   -1    0    0  501    0  0.00000000000E+00 -0.00000000000E+00 -0.18574004767E+02  0.18574004949E+02  0.26000000000E-02 0. -1.
         23    2    1    2    0    0  0.00000000000E+00  0.00000000000E+00  0.92694530273E+02  0.12984254002E+03  0.90921995448E+02 0.  0.
        -11    1    3    3    0    0 -0.16821171387E+02 -0.42224411145E+02  0.45030955824E+02  0.63981557390E+02  0.51100000000E-03 0.  1.
         11    1    3    3    0    0  0.16821171387E+02  0.42224411145E+02  0.47663574450E+02  0.65860982630E+02  0.51100000000E-03 0. -1.
<mgrwt>
<rscale>  0 0.90921995E+02</rscale>
<asrwt>0</asrwt>
<pdfrwt beam="2">  1        2 0.28575392E-02 0.90921995E+02</pdfrwt>
<pdfrwt beam="1">  1       -2 0.17118236E-01 0.90921995E+02</pdfrwt>
<totfact> 0.77791399E+04</totfact>
</mgrwt>
</event>
<event>
 5    1  0.2809073E+000  0.9266742E+02  0.7818608E-02  0.1296518E+00
         -2   -1    0    0    0  501 -0.00000000000E+00  0.00000000000E+00  0.77486789747E+02  0.77486789791E+02  0.26000000000E-02 0.  1.
          2   -1    0    0  501    0  0.00000000000E+00 -0.00000000000E+00 -0.27705528808E+02  0.27705528930E+02  0.26000000000E-02 0. -1.
         23    2    1    2    0    0  0.00000000000E+00  0.00000000000E+00  0.49781260940E+02  0.10519231872E+03  0.92667415941E+02 0.  0.
        -11    1    3    3    0    0 -0.11746102793E+02 -0.16789714741E+02  0.72063955138E+02  0.74920485064E+02  0.51100000000E-03 0.  1.
         11    1    3    3    0    0  0.11746102793E+02  0.16789714741E+02 -0.22282694199E+02  0.30271833656E+02  0.51100000000E-03 0. -1.
<mgrwt>
<rscale>  0 0.92667416E+02</rscale>
<asrwt>0</asrwt>
<pdfrwt beam="2">  1        2 0.42623891E-02 0.92667416E+02</pdfrwt>
<pdfrwt beam="1">  1       -2 0.11921044E-01 0.92667416E+02</pdfrwt>
<totfact> 0.82480938E+04</totfact>
</mgrwt>
</event>
<event>
 5    1  0.2809073E+000  0.9560636E+02  0.7818608E-02  0.1289816E+00
         -2   -1    0    0    0  501 -0.00000000000E+00  0.00000000000E+00  0.56816827925E+02  0.56816827984E+02  0.26000000000E-02 0.  1.
          2   -1    0    0  501    0  0.00000000000E+00 -0.00000000000E+00 -0.40219495439E+02  0.40219495523E+02  0.26000000000E-02 0. -1.
         23    2    1    2    0    0  0.00000000000E+00  0.00000000000E+00  0.16597332485E+02  0.97036323507E+02  0.95606362938E+02 0.  0.
        -11    1    3    3    0    0  0.33155180972E+02 -0.19312121505E+02 -0.20639530605E+02  0.43568501078E+02  0.51100000000E-03 0. -1.
         11    1    3    3    0    0 -0.33155180972E+02  0.19312121505E+02  0.37236863090E+02  0.53467822430E+02  0.51100000000E-03 0.  1.
<mgrwt>
<rscale>  0 0.95606363E+02</rscale>
<asrwt>0</asrwt>
<pdfrwt beam="2">  1        2 0.61876147E-02 0.95606363E+02</pdfrwt>
<pdfrwt beam="1">  1       -2 0.87410504E-02 0.95606363E+02</pdfrwt>
<totfact> 0.83194854E+04</totfact>
</mgrwt>
</event>
<event>
 5    1  0.2809073E+000  0.9223615E+02  0.7818608E-02  0.1297525E+00
          2   -1    0    0  501    0  0.00000000000E+00  0.00000000000E+00  0.99401572746E+02  0.99401572780E+02  0.26000000000E-02 0.  1.
         -2   -1    0    0    0  501 -0.00000000000E+00 -0.00000000000E+00 -0.21396810946E+02  0.21396811104E+02  0.26000000000E-02 0. -1.
         23    2    1    2    0    0  0.00000000000E+00  0.00000000000E+00  0.78004761800E+02  0.12079838388E+03  0.92236146306E+02 0.  0.
        -11    1    3    3    0    0 -0.44832719964E+00 -0.19736370558E+02  0.93588070812E+02  0.95647542147E+02  0.51100000000E-03 0.  1.
         11    1    3    3    0    0  0.44832719964E+00  0.19736370558E+02 -0.15583309012E+02  0.25150841737E+02  0.51100000000E-03 0. -1.
<mgrwt>
<rscale>  0 0.92236146E+02</rscale>
<asrwt>0</asrwt>
<pdfrwt beam="1">  1        2 0.15292550E-01 0.92236146E+02</pdfrwt>
<pdfrwt beam="2">  1       -2 0.32918170E-02 0.92236146E+02</pdfrwt>
<totfact> 0.11861204E+05</totfact>
</mgrwt>
</event>
<event>
 5    1  0.2809073E+000  0.9094165E+02  0.7818608E-02  0.1300587E+00
          2   -1    0    0  501    0  0.00000000000E+00  0.00000000000E+00  0.25045805367E+03  0.25045805369E+03  0.26000000000E-02 0. -1.
         -2   -1    0    0    0  501 -0.00000000000E+00 -0.00000000000E+00 -0.82552577457E+01  0.82552581551E+01  0.26000000000E-02 0.  1.
         23    2    1    2    0    0  0.00000000000E+00  0.00000000000E+00  0.24220279593E+03  0.25871331184E+03  0.90941648154E+02 0.  0.
        -11    1    3    3    0    0 -0.44098979596E+02 -0.21568471651E+01  0.15203343386E+03  0.15831467716E+03  0.51100000000E-03 0. -1.
         11    1    3    3    0    0  0.44098979596E+02  0.21568471651E+01  0.90169362065E+02  0.10039863469E+03  0.51100000000E-03 0.  1.
<mgrwt>
<rscale>  0 0.90941648E+02</rscale>
<asrwt>0</asrwt>
<pdfrwt beam="1">  1        2 0.38532013E-01 0.90941648E+02</pdfrwt>
<pdfrwt beam="2">  1       -2 0.12700395E-02 0.90941648E+02</pdfrwt>
<totfact> 0.16914007E+05</totfact>
</mgrwt>
</event>
<event>
 5    1  0.2809073E+000  0.9265351E+02  0.7818608E-02  0.1296550E+00
          2   -1    0    0  501    0  0.00000000000E+00  0.00000000000E+00  0.14384966557E+03  0.14384966560E+03  0.26000000000E-02 0.  1.
         -2   -1    0    0    0  501 -0.00000000000E+00 -0.00000000000E+00 -0.14919520642E+02  0.14919520868E+02  0.26000000000E-02 0. -1.
         23    2    1    2    0    0  0.00000000000E+00  0.00000000000E+00  0.12893014493E+03  0.15876918647E+03  0.92653506673E+02 0.  0.
        -11    1    3    3    0    0  0.36671257906E+02  0.27874219735E+02  0.72932098102E+02  0.86260328171E+02  0.51100000000E-03 0.  1.
         11    1    3    3    0    0 -0.36671257906E+02 -0.27874219735E+02  0.55998046831E+02  0.72508858296E+02  0.51100000000E-03 0. -1.
<mgrwt>
<rscale>  0 0.92653507E+02</rscale>
<asrwt>0</asrwt>
<pdfrwt beam="1">  1        2 0.22130719E-01 0.92653507E+02</pdfrwt>
<pdfrwt beam="2">  1       -2 0.22953108E-02 0.92653507E+02</pdfrwt>
<totfact> 0.13194271E+05</totfact>
</mgrwt>
</event>
<event>
 5    1  0.2809073E+000  0.8939426E+02  0.7818608E-02  0.1304325E+00
         -2   -1    0    0    0  501 -0.00000000000E+00  0.00000000000E+00  0.94775945287E+01  0.94775948853E+01  0.26000000000E-02 0.  1.
          2   -1    0    0  501    0  0.00000000000E+00 -0.00000000000E+00 -0.21079540592E+03  0.21079540594E+03  0.26000000000E-02 0. -1.
         23    2    1    2    0    0  0.00000000000E+00  0.00000000000E+00 -0.20131781139E+03  0.22027300082E+03  0.89394259925E+02 0.  0.
        -11    1    3    3    0    0 -0.28545024568E+02  0.33680180631E+02 -0.83470340981E+02  0.94427066134E+02  0.51100000000E-03 0. -1.
         11    1    3    3    0    0  0.28545024568E+02 -0.33680180631E+02 -0.11784747041E+03  0.12584593469E+03  0.51100000000E-03 0.  1.
<mgrwt>
<rscale>  0 0.89394260E+02</rscale>
<asrwt>0</asrwt>
<pdfrwt beam="2">  1        2 0.32430059E-01 0.89394260E+02</pdfrwt>
<pdfrwt beam="1">  1       -2 0.14580917E-02 0.89394260E+02</pdfrwt>
<totfact> 0.16624012E+05</totfact>
</mgrwt>
</event>
<event>
 5    1  0.2809073E+000  0.9057890E+02  0.7818608E-02  0.1301456E+00
          2   -1    0    0  501    0  0.00000000000E+00  0.00000000000E+00  0.31425696917E+03  0.31425696919E+03  0.26000000000E-02 0. -1.
         -2   -1    0    0    0  501 -0.00000000000E+00 -0.00000000000E+00 -0.65269335018E+01  0.65269340196E+01  0.26000000000E-02 0.  1.
         23    2    1    2    0    0  0.00000000000E+00  0.00000000000E+00  0.30773003567E+03  0.32078390321E+03  0.90578903174E+02 0.  0.
        -11    1    3    3    0    0 -0.42439488832E+02 -0.15783178833E+02  0.15725353404E+03  0.16364257672E+03  0.51100000000E-03 0.  1.
         11    1    3    3    0    0  0.42439488832E+02  0.15783178833E+02  0.15047650163E+03  0.15714132649E+03  0.51100000000E-03 0. -1.
<mgrwt>
<rscale>  0 0.90578903E+02</rscale>
<asrwt>0</asrwt>
<pdfrwt beam="1">  1        2 0.48347226E-01 0.90578903E+02</pdfrwt>
<pdfrwt beam="2">  1       -2 0.10041437E-02 0.90578903E+02</pdfrwt>
<totfact> 0.18602054E+05</totfact>
</mgrwt>
</event>
<event>
 5    1  0.2809073E+000  0.8934434E+02  0.7818608E-02  0.1304447E+00
          2   -1    0    0  501    0  0.00000000000E+00  0.00000000000E+00  0.68593101198E+02  0.68593101247E+02  0.26000000000E-02 0. -1.
         -2   -1    0    0    0  501 -0.00000000000E+00 -0.00000000000E+00 -0.29093342160E+02  0.29093342276E+02  0.26000000000E-02 0.  1.
         23    2    1    2    0    0  0.00000000000E+00  0.00000000000E+00  0.39499759038E+02  0.97686443523E+02  0.89344335490E+02 0.  0.
        -11    1    3    3    0    0 -0.79712705135E+01 -0.15668639684E+02 -0.25152313114E+02  0.30686907280E+02  0.51100000000E-03 0.  1.
         11    1    3    3    0    0  0.79712705135E+01  0.15668639684E+02  0.64652072151E+02  0.66999536244E+02  0.51100000000E-03 0. -1.
<mgrwt>
<rscale>  0 0.89344335E+02</rscale>
<asrwt>0</asrwt>
<pdfrwt beam="1">  1        2 0.10552785E-01 0.89344335E+02</pdfrwt>
<pdfrwt beam="2">  1       -2 0.44758989E-02 0.89344335E+02</pdfrwt>
<totfact> 0.11641961E+05</totfact>
</mgrwt>
</event>
<event>
 5    1  0.2809073E+000  0.9121427E+02  0.7818608E-02  0.1299938E+00
          2   -1    0    0  501    0  0.00000000000E+00  0.00000000000E+00  0.13928201587E+03  0.13928201590E+03  0.26000000000E-02 0. -1.
         -2   -1    0    0    0  501 -0.00000000000E+00 -0.00000000000E+00 -0.14933807458E+02  0.14933807685E+02  0.26000000000E-02 0.  1.
         23    2    1    2    0    0  0.00000000000E+00  0.00000000000E+00  0.12434820841E+03  0.15421582358E+03  0.91214271401E+02 0.  0.
        -11    1    3    3    0    0  0.69648625879E+01 -0.37778970785E+02  0.10373403260E+03  0.11061875729E+03  0.51100000000E-03 0. -1.
         11    1    3    3    0    0 -0.69648625879E+01  0.37778970785E+02  0.20614175812E+02  0.43597066291E+02  0.51100000000E-03 0.  1.
<mgrwt>
<rscale>  0 0.91214271E+02</rscale>
<asrwt>0</asrwt>
<pdfrwt beam="1">  1        2 0.21428003E-01 0.91214271E+02</pdfrwt>
<pdfrwt beam="2">  1       -2 0.22975088E-02 0.91214271E+02</pdfrwt>
<totfact> 0.13620656E+05</totfact>
</mgrwt>
</event>
<event>
 5    1  0.2809073E+000  0.8648474E+02  0.7818608E-02  0.1311595E+00
          2   -1    0    0  501    0  0.00000000000E+00  0.00000000000E+00  0.10699689691E+03  0.10699689695E+03  0.26000000000E-02 0. -1.
         -2   -1    0    0    0  501 -0.00000000000E+00 -0.00000000000E+00 -0.17476232244E+02  0.17476232437E+02  0.26000000000E-02 0.  1.
         23    2    1    2    0    0  0.00000000000E+00  0.00000000000E+00  0.89520664671E+02  0.12447312938E+03  0.86484741633E+02 0.  0.
        -11    1    3    3    0    0 -0.18730568883E+02 -0.26751160429E+02  0.85555984318E+02  0.91576663228E+02  0.51100000000E-03 0. -1.
         11    1    3    3    0    0  0.18730568883E+02  0.26751160429E+02  0.39646803529E+01  0.32896466156E+02  0.51100000000E-03 0.  1.
<mgrwt>
<rscale>  0 0.86484742E+02</rscale>
<asrwt>0</asrwt>
<pdfrwt beam="1">  1        2 0.16461061E-01 0.86484742E+02</pdfrwt>
<pdfrwt beam="2">  1       -2 0.26886512E-02 0.86484742E+02</pdfrwt>
<totfact> 0.14471051E+05</totfact>
</mgrwt>
</event>
<event>
 5    1  0.2809073E+000  0.9353572E+02  0.7818608E-02  0.1294508E+00
          2   -1    0    0  501    0  0.00000000000E+00  0.00000000000E+00  0.19767145238E+02  0.19767145409E+02  0.26000000000E-02 0. -1.
         -2   -1    0    0    0  501 -0.00000000000E+00 -0.00000000000E+00 -0.11064990991E+03  0.11064990994E+03  0.26000000000E-02 0.  1.
         23    2    1    2    0    0  0.00000000000E+00  0.00000000000E+00 -0.90882764672E+02  0.13041705535E+03  0.93535722650E+02 0.  0.
        -11    1    3    3    0    0 -0.20892737462E+02  0.12625717183E+02 -0.10106193793E+03  0.10396841112E+03  0.51100000000E-03 0.  1.
         11    1    3    3    0    0  0.20892737462E+02 -0.12625717183E+02  0.10179173256E+02  0.26448644228E+02  0.51100000000E-03 0. -1.
<mgrwt>
<rscale>  0 0.93535723E+02</rscale>
<asrwt>0</asrwt>
<pdfrwt beam="1">  1        2 0.30410993E-02 0.93535723E+02</pdfrwt>
<pdfrwt beam="2">  1       -2 0.17023063E-01 0.93535723E+02</pdfrwt>
<totfact> 0.72591270E+04</totfact>
</mgrwt>
</event>
<event>
 5    1  0.2809073E+000  0.9299807E+02  0.7818608E-02  0.1295750E+00
          2   -1    0    0  501    0  0.00000000000E+00  0.00000000000E+00  0.22567381262E+03  0.22567381263E+03  0.26000000000E-02 0. -1.
         -2   -1    0    0    0  501 -0.00000000000E+00 -0.00000000000E+00 -0.95809088578E+01  0.95809092106E+01  0.26000000000E-02 0.  1.
         23    2    1    2    0    0  0.00000000000E+00  0.00000000000E+00  0.21609290376E+03  0.23525472184E+03  0.92998070379E+02 0.  0.
        -11    1    3    3    0    0 -0.37873053944E+02 -0.78274251296E+01  0.42737586887E+02  0.57637992092E+02  0.51100000000E-03 0.  1.
         11    1    3    3    0    0  0.37873053944E+02  0.78274251296E+01  0.17335531687E+03  0.17761672975E+03  0.51100000000E-03 0. -1.
<mgrwt>
<rscale>  0 0.92998070E+02</rscale>
<asrwt>0</asrwt>
<pdfrwt beam="1">  1        2 0.34719046E-01 0.92998070E+02</pdfrwt>
<pdfrwt beam="2">  1       -2 0.14739861E-02 0.92998070E+02</pdfrwt>
<totfact> 0.15326888E+05</totfact>
</mgrwt>
</event>
<event>
 5    1  0.2809073E+000  0.9008105E+02  0.7818608E-02  0.1302656E+00
         -2   -1    0    0    0  501 -0.00000000000E+00  0.00000000000E+00  0.18197967407E+03  0.18197967408E+03  0.26000000000E-02 0. -1.
          2   -1    0    0  501    0  0.00000000000E+00 -0.00000000000E+00 -0.11147666602E+02  0.11147666905E+02  0.26000000000E-02 0.  1.
         23    2    1    2    0    0  0.00000000000E+00  0.00000000000E+00  0.17083200746E+03  0.19312734099E+03  0.90081047194E+02 0.  0.
        -11    1    3    3    0    0  0.85638329726E+01  0.34595980301E+02  0.26373138932E+02  0.44336932071E+02  0.51100000000E-03 0.  1.
         11    1    3    3    0    0 -0.85638329726E+01 -0.34595980301E+02  0.14445886853E+03  0.14879040892E+03  0.51100000000E-03 0. -1.
<mgrwt>
<rscale>  0 0.90081047E+02</rscale>
<asrwt>0</asrwt>
<pdfrwt beam="2">  1        2 0.17150258E-02 0.90081047E+02</pdfrwt>
<pdfrwt beam="1">  1       -2 0.27996870E-01 0.90081047E+02</pdfrwt>
<totfact> 0.66870377E+04</totfact>
</mgrwt>
</event>
<event>
 5    1  0.2809073E+000  0.8952401E+02  0.7818608E-02  0.1304008E+00
          2   -1    0    0  501    0  0.00000000000E+00  0.00000000000E+00  0.34629347925E+02  0.34629348023E+02  0.26000000000E-02 0. -1.
         -2   -1    0    0    0  501 -0.00000000000E+00 -0.00000000000E+00 -0.57859515121E+02  0.57859515180E+02  0.26000000000E-02 0.  1.
         23    2    1    2    0    0  0.00000000000E+00  0.00000000000E+00 -0.23230167196E+02  0.92488863203E+02  0.89524014368E+02 0.  0.
        -11    1    3    3    0    0 -0.27560085446E+02 -0.34521025892E+02 -0.19092013451E+02  0.48122391007E+02  0.51100000000E-03 0.  1.
         11    1    3    3    0    0  0.27560085446E+02  0.34521025892E+02 -0.41381537444E+01  0.44366472195E+02  0.51100000000E-03 0. -1.
<mgrwt>
<rscale>  0 0.89524014E+02</rscale>
<asrwt>0</asrwt>
<pdfrwt beam="1">  1        2 0.53275920E-02 0.89524014E+02</pdfrwt>
<pdfrwt beam="2">  1       -2 0.89014638E-02 0.89524014E+02</pdfrwt>
<totfact> 0.96927254E+04</totfact>
</mgrwt>
</event>
<event>
 5    1  0.2809073E+000  0.8932990E+02  0.7818608E-02  0.1304483E+00
          2   -1    0    0  501    0  0.00000000000E+00  0.00000000000E+00  0.30085862877E+02  0.30085862989E+02  0.26000000000E-02 0.  1.
         -2   -1    0    0    0  501 -0.00000000000E+00 -0.00000000000E+00 -0.66308803907E+02  0.66308803958E+02  0.26000000000E-02 0. -1.
         23    2    1    2    0    0  0.00000000000E+00  0.00000000000E+00 -0.36222941030E+02  0.96394666948E+02  0.89329896222E+02 0.  0.
        -11    1    3    3    0    0  0.25157324025E+02  0.16198270727E+02 -0.53895551397E+02  0.61644183726E+02  0.51100000000E-03 0. -1.
         11    1    3    3    0    0 -0.25157324025E+02 -0.16198270727E+02  0.17672610367E+02  0.34750483221E+02  0.51100000000E-03 0.  1.
<mgrwt>
<rscale>  0 0.89329896E+02</rscale>
<asrwt>0</asrwt>
<pdfrwt beam="1">  1        2 0.46285943E-02 0.89329896E+02</pdfrwt>
<pdfrwt beam="2">  1       -2 0.10201354E-01 0.89329896E+02</pdfrwt>
<totfact> 0.94056755E+04</totfact>
</mgrwt>
</event>
<event>
 5    1  0.2809073E+000  0.9247539E+02  0.7818608E-02  0.1296966E+00
          2   -1    0    0  501    0  0.00000000000E+00  0.00000000000E+00  0.72957541031E+02  0.72957541078E+02  0.26000000000E-02 0. -1.
         -2   -1    0    0    0  501 -0.00000000000E+00 -0.00000000000E+00 -0.29303679978E+02  0.29303680093E+02  0.26000000000E-02 0.  1.
         23    2    1    2    0    0  0.00000000000E+00  0.00000000000E+00  0.43653861053E+02  0.10226122117E+03  0.92475390081E+02 0.  0.
        -11    1    3    3    0    0 -0.12250270235E+02  0.32623432625E+02  0.55433098819E+02  0.65476605914E+02  0.51100000000E-03 0. -1.
         11    1    3    3    0    0  0.12250270235E+02 -0.32623432625E+02 -0.11779237766E+02  0.36784615257E+02  0.51100000000E-03 0.  1.
<mgrwt>
<rscale>  0 0.92475390E+02</rscale>
<asrwt>0</asrwt>
<pdfrwt beam="1">  1        2 0.11224237E-01 0.92475390E+02</pdfrwt>
<pdfrwt beam="2">  1       -2 0.45082585E-02 0.92475390E+02</pdfrwt>
<totfact> 0.10756019E+05</totfact>
</mgrwt>
</event>
<event>
 5    1  0.2809073E+000  0.9287980E+02  0.7818608E-02  0.1296024E+00
          2   -1    0    0  501    0  0.00000000000E+00  0.00000000000E+00  0.16257294011E+03  0.16257294013E+03  0.26000000000E-02 0. -1.
         -2   -1    0    0    0  501 -0.00000000000E+00 -0.00000000000E+00 -0.13265824686E+02  0.13265824941E+02  0.26000000000E-02 0.  1.
         23    2    1    2    0    0  0.00000000000E+00  0.00000000000E+00  0.14930711543E+03  0.17583876507E+03  0.92879796436E+02 0.  0.
        -11    1    3    3    0    0 -0.45423126627E+02 -0.15893367248E+01  0.56605848400E+02  0.72594824176E+02  0.51100000000E-03 0.  1.
         11    1    3    3    0    0  0.45423126627E+02  0.15893367248E+01  0.92701267026E+02  0.10324394090E+03  0.51100000000E-03 0. -1.
<mgrwt>
<rscale>  0 0.92879796E+02</rscale>
<asrwt>0</asrwt>
<pdfrwt beam="1">  1        2 0.25011222E-01 0.92879796E+02</pdfrwt>
<pdfrwt beam="2">  1       -2 0.20408961E-02 0.92879796E+02</pdfrwt>
<totfact> 0.13668950E+05</totfact>
</mgrwt>
</event>
<event>
 5    1  0.2809073E+000  0.9082804E+02  0.7818608E-02  0.1300859E+00
          2   -1    0    0  501    0  0.00000000000E+00  0.00000000000E+00  0.77415132568E+02  0.77415132612E+02  0.26000000000E-02 0. -1.
         -2   -1    0    0    0  501 -0.00000000000E+00 -0.00000000000E+00 -0.26641216332E+02  0.26641216459E+02  0.26000000000E-02 0.  1.
         23    2    1    2    0    0  0.00000000000E+00  0.00000000000E+00  0.50773916237E+02  0.10405634907E+03  0.90828041991E+02 0.  0.
        -11    1    3    3    0    0 -0.25030534083E-01 -0.44594873159E+02  0.35224138689E+02  0.56828190937E+02  0.51100000000E-03 0.  1.
         11    1    3    3    0    0  0.25030534083E-01  0.44594873159E+02  0.15549777548E+02  0.47228158133E+02  0.51100000000E-03 0. -1.
<mgrwt>
<rscale>  0 0.90828042E+02</rscale>
<asrwt>0</asrwt>
<pdfrwt beam="1">  1        2 0.11910020E-01 0.90828042E+02</pdfrwt>
<pdfrwt beam="2">  1       -2 0.40986487E-02 0.90828042E+02</pdfrwt>
<totfact> 0.11500610E+05</totfact>
</mgrwt>
</event>
<event>
 5    1  0.2809073E+000  0.9220443E+02  0.7818608E-02  0.1297599E+00
         -2   -1    0    0    0  501 -0.00000000000E+00  0.00000000000E+00  0.10933863612E+02  0.10933863921E+02  0.26000000000E-02 0.  1.
          2   -1    0    0  501    0  0.00000000000E+00 -0.00000000000E+00 -0.19438821091E+03  0.19438821093E+03  0.26000000000E-02 0. -1.
         23    2    1    2    0    0  0.00000000000E+00  0.00000000000E+00 -0.18345434730E+03  0.20532207485E+03  0.92204429815E+02 0.  0.
        -11    1    3    3    0    0 -0.45192863352E+02 -0.42955530984E+01 -0.73833850970E+02  0.86673434359E+02  0.51100000000E-03 0.  1.
         11    1    3    3    0    0  0.45192863352E+02  0.42955530984E+01 -0.10962049633E+03  0.11864864049E+03  0.51100000000E-03 0. -1.
<mgrwt>
<rscale>  0 0.92204430E+02</rscale>
<asrwt>0</asrwt>
<pdfrwt beam="2">  1        2 0.29905876E-01 0.92204430E+02</pdfrwt>
<pdfrwt beam="1">  1       -2 0.16821330E-02 0.92204430E+02</pdfrwt>
<totfact> 0.14853900E+05</totfact>
</mgrwt>
</event>
<event>
 5    1  0.2809073E+000  0.9220473E+02  0.7818608E-02  0.1297599E+00
         -2   -1    0    0    0  501 -0.00000000000E+00  0.00000000000E+00  0.15752523142E+03  0.15752523144E+03  0.26000000000E-02 0.  1.
          2   -1    0    0  501    0  0.00000000000E+00 -0.00000000000E+00 -0.13492618743E+02  0.13492618993E+02  0.26000000000E-02 0. -1.
         23    2    1    2    0    0  0.00000000000E+00  0.00000000000E+00  0.14403261267E+03  0.17101785043E+03  0.92204726844E+02 0.  0.
        -11    1    3    3    0    0 -0.10643967089E+02  0.22866028632E+02  0.14359375828E+03  0.14579203242E+03  0.51100000000E-03 0.  1.
         11    1    3    3    0    0  0.10643967089E+02 -0.22866028632E+02  0.43885439518E+00  0.25225818009E+02  0.51100000000E-03 0. -1.
<mgrwt>
<rscale>  0 0.92204727E+02</rscale>
<asrwt>0</asrwt>
<pdfrwt beam="2">  1        2 0.20757873E-02 0.92204727E+02</pdfrwt>
<pdfrwt beam="1">  1       -2 0.24234653E-01 0.92204727E+02</pdfrwt>
<totfact> 0.66680970E+04</totfact>
</mgrwt>
</event>
<event>
 5    1  0.2809073E+000  0.8997682E+02  0.7818608E-02  0.1302908E+00
          2   -1    0    0  501    0  0.00000000000E+00  0.00000000000E+00  0.19179362887E+03  0.19179362889E+03  0.26000000000E-02 0. -1.
         -2   -1    0    0    0  501 -0.00000000000E+00 -0.00000000000E+00 -0.10552785520E+02  0.10552785840E+02  0.26000000000E-02 0.  1.
         23    2    1    2    0    0  0.00000000000E+00  0.00000000000E+00  0.18124084335E+03  0.20234641473E+03  0.89976820654E+02 0.  0.
        -11    1    3    3    0    0  0.27226369910E+02  0.14192309114E+02  0.16671817537E+02  0.34937749737E+02  0.51100000000E-03 0.  1.
         11    1    3    3    0    0 -0.27226369910E+02 -0.14192309114E+02  0.16456902582E+03  0.16740866499E+03  0.51100000000E-03 0. -1.
<mgrwt>
<rscale>  0 0.89976821E+02</rscale>
<asrwt>0</asrwt>
<pdfrwt beam="1">  1        2 0.29506712E-01 0.89976821E+02</pdfrwt>
<pdfrwt beam="2">  1       -2 0.16235055E-02 0.89976821E+02</pdfrwt>
<totfact> 0.15789237E+05</totfact>
</mgrwt>
</event>
<event>
 5    1  0.2809073E+000  0.1183882E+03  0.7818608E-02  0.1245780E+00
         -2   -1    0    0    0  501 -0.00000000000E+00  0.00000000000E+00  0.97514299636E+01  0.97514303102E+01  0.26000000000E-02 0.  1.
          2   -1    0    0  501    0  0.00000000000E+00 -0.00000000000E+00 -0.35932586398E+03  0.35932586399E+03  0.26000000000E-02 0. -1.
         23    2    1    2    0    0  0.00000000000E+00  0.00000000000E+00 -0.34957443401E+03  0.36907729430E+03  0.11838819303E+03 0.  0.
        -11    1    3    3    0    0  0.81615737689E+01 -0.47935958280E+02 -0.69552003827E+02  0.84864295314E+02  0.51100000000E-03 0.  1.
         11    1    3    3    0    0 -0.81615737689E+01  0.47935958280E+02 -0.28002243019E+03  0.28421299898E+03  0.51100000000E-03 0. -1.
<mgrwt>
<rscale>  0 0.11838819E+03</rscale>
<asrwt>0</asrwt>
<pdfrwt beam="2">  1        2 0.55280892E-01 0.11838819E+03</pdfrwt>
<pdfrwt beam="1">  1       -2 0.15002203E-02 0.11838819E+03</pdfrwt>
<totfact> 0.94905485E+04</totfact>
</mgrwt>
</event>
<event>
 5    1  0.2809073E+000  0.8714000E+02  0.7818608E-02  0.1309929E+00
         -2   -1    0    0    0  501 -0.00000000000E+00  0.00000000000E+00  0.41732999318E+02  0.41732999399E+02  0.26000000000E-02 0.  1.
          2   -1    0    0  501    0  0.00000000000E+00 -0.00000000000E+00 -0.45487864519E+02  0.45487864594E+02  0.26000000000E-02 0. -1.
         23    2    1    2    0    0  0.00000000000E+00  0.00000000000E+00 -0.37548652019E+01  0.87220863992E+02  0.87140002886E+02 0.  0.
        -11    1    3    3    0    0  0.77316435099E+00 -0.19731146803E+02  0.36997107457E+02  0.41936879924E+02  0.51100000000E-03 0.  1.
         11    1    3    3    0    0 -0.77316435099E+00  0.19731146803E+02 -0.40751972659E+02  0.45283984069E+02  0.51100000000E-03 0. -1.
<mgrwt>
<rscale>  0 0.87140003E+02</rscale>
<asrwt>0</asrwt>
<pdfrwt beam="2">  1        2 0.69981330E-02 0.87140003E+02</pdfrwt>
<pdfrwt beam="1">  1       -2 0.64204614E-02 0.87140003E+02</pdfrwt>
<totfact> 0.11222788E+05</totfact>
</mgrwt>
</event>
<event>
 5    1  0.2809073E+000  0.8842929E+02  0.7818608E-02  0.1306701E+00
         -2   -1    0    0    0  501 -0.00000000000E+00  0.00000000000E+00  0.57144017319E+01  0.57144023234E+01  0.26000000000E-02 0.  1.
          2   -1    0    0  501    0  0.00000000000E+00 -0.00000000000E+00 -0.34210660315E+03  0.34210660316E+03  0.26000000000E-02 0. -1.
         23    2    1    2    0    0  0.00000000000E+00  0.00000000000E+00 -0.33639220142E+03  0.34782100549E+03  0.88429286328E+02 0.  0.
        -11    1    3    3    0    0 -0.20334112695E+02  0.36627533640E+02 -0.22380532876E+03  0.22769250655E+03  0.51100000000E-03 0.  1.
         11    1    3    3    0    0  0.20334112695E+02 -0.36627533640E+02 -0.11258687266E+03  0.12012849893E+03  0.51100000000E-03 0. -1.
<mgrwt>
<rscale>  0 0.88429286E+02</rscale>
<asrwt>0</asrwt>
<pdfrwt beam="2">  1        2 0.52631769E-01 0.88429286E+02</pdfrwt>
<pdfrwt beam="1">  1       -2 0.87913904E-03 0.88429286E+02</pdfrwt>
<totfact> 0.20457970E+05</totfact>
</mgrwt>
</event>
<event>
 5    1  0.2809073E+000  0.9007609E+02  0.7818608E-02  0.1302668E+00
         -2   -1    0    0    0  501 -0.00000000000E+00  0.00000000000E+00  0.18718245169E+02  0.18718245349E+02  0.26000000000E-02 0.  1.
          2   -1    0    0  501    0  0.00000000000E+00 -0.00000000000E+00 -0.10836621068E+03  0.10836621071E+03  0.26000000000E-02 0. -1.
         23    2    1    2    0    0  0.00000000000E+00  0.00000000000E+00 -0.89647965514E+02  0.12708445606E+03  0.90076085906E+02 0.  0.
        -11    1    3    3    0    0  0.25979803611E+02 -0.13211005349E+02 -0.93266823199E+02  0.97714795030E+02  0.51100000000E-03 0. -1.
         11    1    3    3    0    0 -0.25979803611E+02  0.13211005349E+02  0.36188576842E+01  0.29369661033E+02  0.51100000000E-03 0.  1.
<mgrwt>
<rscale>  0 0.90076086E+02</rscale>
<asrwt>0</asrwt>
<pdfrwt beam="2">  1        2 0.16671724E-01 0.90076086E+02</pdfrwt>
<pdfrwt beam="1">  1       -2 0.28797301E-02 0.90076086E+02</pdfrwt>
<totfact> 0.13000491E+05</totfact>
</mgrwt>
</event>
<event>
 5    1  0.2809073E+000  0.9416643E+02  0.7818608E-02  0.1293065E+00
          2   -1    0    0  501    0  0.00000000000E+00  0.00000000000E+00  0.25870277247E+02  0.25870277377E+02  0.26000000000E-02 0. -1.
         -2   -1    0    0    0  501 -0.00000000000E+00 -0.00000000000E+00 -0.85690203647E+02  0.85690203687E+02  0.26000000000E-02 0.  1.
         23    2    1    2    0    0  0.00000000000E+00  0.00000000000E+00 -0.59819926400E+02  0.11156048106E+03  0.94166434257E+02 0.  0.
        -11    1    3    3    0    0 -0.36416000441E+02 -0.29405929945E+02 -0.23869592417E+02  0.52541328937E+02  0.51100000000E-03 0. -1.
         11    1    3    3    0    0  0.36416000441E+02  0.29405929945E+02 -0.35950333983E+02  0.59019152127E+02  0.51100000000E-03 0.  1.
<mgrwt>
<rscale>  0 0.94166434E+02</rscale>
<asrwt>0</asrwt>
<pdfrwt beam="1">  1        2 0.39800427E-02 0.94166434E+02</pdfrwt>
<pdfrwt beam="2">  1       -2 0.13183108E-01 0.94166434E+02</pdfrwt>
<totfact> 0.77074402E+04</totfact>
</mgrwt>
</event>
<event>
 5    1  0.2809073E+000  0.8463204E+02  0.7818608E-02  0.1316398E+00
         -2   -1    0    0    0  501 -0.00000000000E+00  0.00000000000E+00  0.10176407350E+02  0.10176407682E+02  0.26000000000E-02 0.  1.
          2   -1    0    0  501    0  0.00000000000E+00 -0.00000000000E+00 -0.17596047964E+03  0.17596047965E+03  0.26000000000E-02 0. -1.
         23    2    1    2    0    0  0.00000000000E+00  0.00000000000E+00 -0.16578407229E+03  0.18613688734E+03  0.84632040054E+02 0.  0.
        -11    1    3    3    0    0  0.22496144627E+02 -0.14426997064E+02 -0.10733005233E+02  0.28799516818E+02  0.51100000000E-03 0.  1.
         11    1    3    3    0    0 -0.22496144627E+02  0.14426997064E+02 -0.15505106705E+03  0.15733737052E+03  0.51100000000E-03 0. -1.
<mgrwt>
<rscale>  0 0.84632040E+02</rscale>
<asrwt>0</asrwt>
<pdfrwt beam="2">  1        2 0.27070841E-01 0.84632040E+02</pdfrwt>
<pdfrwt beam="1">  1       -2 0.15656013E-02 0.84632040E+02</pdfrwt>
<totfact> 0.18050003E+05</totfact>
</mgrwt>
</event>
<event>
 5    1  0.2809073E+000  0.9021049E+02  0.7818608E-02  0.1302343E+00
         -2   -1    0    0    0  501 -0.00000000000E+00  0.00000000000E+00  0.50227922164E+01  0.50227928893E+01  0.26000000000E-02 0.  1.
          2   -1    0    0  501    0  0.00000000000E+00 -0.00000000000E+00 -0.40505021891E+03  0.40505021892E+03  0.26000000000E-02 0. -1.
         23    2    1    2    0    0  0.00000000000E+00  0.00000000000E+00 -0.40002742669E+03  0.41007301181E+03  0.90210492216E+02 0.  0.
        -11    1    3    3    0    0 -0.32266885585E+02 -0.28818216976E+02 -0.14200584085E+03  0.14844965601E+03  0.51100000000E-03 0.  1.
         11    1    3    3    0    0  0.32266885585E+02  0.28818216976E+02 -0.25802158585E+03  0.26162335580E+03  0.51100000000E-03 0. -1.
<mgrwt>
<rscale>  0 0.90210492E+02</rscale>
<asrwt>0</asrwt>
<pdfrwt beam="2">  1        2 0.62315393E-01 0.90210492E+02</pdfrwt>
<pdfrwt beam="1">  1       -2 0.77273764E-03 0.90210492E+02</pdfrwt>
<totfact> 0.20626731E+05</totfact>
</mgrwt>
</event>
<event>
 5    1  0.2809073E+000  0.8478674E+02  0.7818608E-02  0.1315991E+00
         -2   -1    0    0    0  501 -0.00000000000E+00  0.00000000000E+00  0.74781104110E+01  0.74781108630E+01  0.26000000000E-02 0.  1.
          2   -1    0    0  501    0  0.00000000000E+00 -0.00000000000E+00 -0.24032780833E+03  0.24032780834E+03  0.26000000000E-02 0. -1.
         23    2    1    2    0    0  0.00000000000E+00  0.00000000000E+00 -0.23284969792E+03  0.24780591920E+03  0.84786742908E+02 0.  0.
        -11    1    3    3    0    0  0.37717063104E+02  0.11428172497E+02 -0.16208050905E+03  0.16680309167E+03  0.51100000000E-03 0. -1.
         11    1    3    3    0    0 -0.37717063104E+02 -0.11428172497E+02 -0.70769188863E+02  0.81002827533E+02  0.51100000000E-03 0.  1.
<mgrwt>
<rscale>  0 0.84786743E+02</rscale>
<asrwt>0</asrwt>
<pdfrwt beam="2">  1        2 0.36973503E-01 0.84786743E+02</pdfrwt>
<pdfrwt beam="1">  1       -2 0.11504787E-02 0.84786743E+02</pdfrwt>
<totfact> 0.20081712E+05</totfact>
</mgrwt>
</event>
<event>
 5    1  0.2809073E+000  0.8605294E+02  0.7818608E-02  0.1312702E+00
         -2   -1    0    0    0  501 -0.00000000000E+00  0.00000000000E+00  0.71386468293E+02  0.71386468340E+02  0.26000000000E-02 0.  1.
          2   -1    0    0  501    0  0.00000000000E+00 -0.00000000000E+00 -0.25933165264E+02  0.25933165394E+02  0.26000000000E-02 0. -1.
         23    2    1    2    0    0  0.00000000000E+00  0.00000000000E+00  0.45453303029E+02  0.97319633735E+02  0.86052939252E+02 0.  0.
        -11    1    3    3    0    0  0.29899326640E+02 -0.15572687933E+02 -0.75095093812E+01  0.34537965696E+02  0.51100000000E-03 0. -1.
         11    1    3    3    0    0 -0.29899326640E+02  0.15572687933E+02  0.52962812410E+02  0.62781668039E+02  0.51100000000E-03 0.  1.
<mgrwt>
<rscale>  0 0.86052939E+02</rscale>
<asrwt>0</asrwt>
<pdfrwt beam="2">  1        2 0.39897177E-02 0.86052939E+02</pdfrwt>
<pdfrwt beam="1">  1       -2 0.10982534E-01 0.86052939E+02</pdfrwt>
<totfact> 0.10106002E+05</totfact>
</mgrwt>
</event>
<event>
 5    1  0.2809073E+000  0.9106736E+02  0.7818608E-02  0.1300287E+00
         -2   -1    0    0    0  501 -0.00000000000E+00  0.00000000000E+00  0.38242117626E+02  0.38242117715E+02  0.26000000000E-02 0. -1.
          2   -1    0    0  501    0  0.00000000000E+00 -0.00000000000E+00 -0.54215518244E+02  0.54215518306E+02  0.26000000000E-02 0.  1.
         23    2    1    2    0    0  0.00000000000E+00  0.00000000000E+00 -0.15973400618E+02  0.92457636021E+02  0.91067364798E+02 0.  0.
        -11    1    3    3    0    0 -0.14725397549E+02 -0.70196126992E+01 -0.51146915115E+02  0.53685372510E+02  0.51100000000E-03 0.  1.
         11    1    3    3    0    0  0.14725397549E+02  0.70196126992E+01  0.35173514498E+02  0.38772263511E+02  0.51100000000E-03 0. -1.
<mgrwt>
<rscale>  0 0.91067365E+02</rscale>
<asrwt>0</asrwt>
<pdfrwt beam="2">  1        2 0.83408489E-02 0.91067365E+02</pdfrwt>
<pdfrwt beam="1">  1       -2 0.58834027E-02 0.91067365E+02</pdfrwt>
<totfact> 0.10360109E+05</totfact>
</mgrwt>
</event>
<event>
 5    1  0.2809073E+000  0.7656349E+02  0.7818608E-02  0.1339097E+00
          2   -1    0    0  501    0  0.00000000000E+00  0.00000000000E+00  0.78170793984E+02  0.78170794028E+02  0.26000000000E-02 0. -1.
         -2   -1    0    0    0  501 -0.00000000000E+00 -0.00000000000E+00 -0.18747306244E+02  0.18747306424E+02  0.26000000000E-02 0.  1.
         23    2    1    2    0    0  0.00000000000E+00  0.00000000000E+00  0.59423487741E+02  0.96918100451E+02  0.76563485421E+02 0.  0.
        -11    1    3    3    0    0 -0.10537278305E+02 -0.16771382484E+02  0.71180321869E+02  0.73884719165E+02  0.51100000000E-03 0. -1.
         11    1    3    3    0    0  0.10537278305E+02  0.16771382484E+02 -0.11756834128E+02  0.23033381286E+02  0.51100000000E-03 0.  1.
<mgrwt>
<rscale>  0 0.76563485E+02</rscale>
<asrwt>0</asrwt>
<pdfrwt beam="1">  1        2 0.12026276E-01 0.76563485E+02</pdfrwt>
<pdfrwt beam="2">  1       -2 0.28842009E-02 0.76563485E+02</pdfrwt>
<totfact> 0.18425067E+05</totfact>
</mgrwt>
</event>
<event>
 5    1  0.2809073E+000  0.9029248E+02  0.7818608E-02  0.1302145E+00
          2   -1    0    0  501    0  0.00000000000E+00  0.00000000000E+00  0.95172594012E+01  0.95172597563E+01  0.26000000000E-02 0. -1.
         -2   -1    0    0    0  501 -0.00000000000E+00 -0.00000000000E+00 -0.21415651384E+03  0.21415651386E+03  0.26000000000E-02 0.  1.
         23    2    1    2    0    0  0.00000000000E+00  0.00000000000E+00 -0.20463925444E+03  0.22367377361E+03  0.90292483323E+02 0.  0.
        -11    1    3    3    0    0 -0.15336856604E+02  0.40897106894E+02 -0.74032644124E+02  0.85957110928E+02  0.51100000000E-03 0. -1.
         11    1    3    3    0    0  0.15336856604E+02 -0.40897106894E+02 -0.13060661031E+03  0.13771666268E+03  0.51100000000E-03 0.  1.
<mgrwt>
<rscale>  0 0.90292483E+02</rscale>
<asrwt>0</asrwt>
<pdfrwt beam="1">  1        2 0.14641939E-02 0.90292483E+02</pdfrwt>
<pdfrwt beam="2">  1       -2 0.32947152E-01 0.90292483E+02</pdfrwt>
<totfact> 0.61987333E+04</totfact>
</mgrwt>
</event>
<event>
 5    1  0.2809073E+000  0.7164097E+02  0.7818608E-02  0.1354600E+00
          2   -1    0    0  501    0  0.00000000000E+00  0.00000000000E+00  0.73207271063E+02  0.73207271109E+02  0.26000000000E-02 0.  1.
         -2   -1    0    0    0  501 -0.00000000000E+00 -0.00000000000E+00 -0.17527043959E+02  0.17527044152E+02  0.26000000000E-02 0. -1.
         23    2    1    2    0    0  0.00000000000E+00  0.00000000000E+00  0.55680227104E+02  0.90734315261E+02  0.71640967857E+02 0.  0.
        -11    1    3    3    0    0 -0.27691459902E+02 -0.20635010239E+02  0.39887752493E+02  0.52760339255E+02  0.51100000000E-03 0.  1.
         11    1    3    3    0    0  0.27691459902E+02  0.20635010239E+02  0.15792474611E+02  0.37973976006E+02  0.51100000000E-03 0. -1.
<mgrwt>
<rscale>  0 0.71640968E+02</rscale>
<asrwt>0</asrwt>
<pdfrwt beam="1">  1        2 0.11262657E-01 0.71640968E+02</pdfrwt>
<pdfrwt beam="2">  1       -2 0.26964684E-02 0.71640968E+02</pdfrwt>
<totfact> 0.21667982E+05</totfact>
</mgrwt>
</event>
<event>
 5    1  0.2809073E+000  0.9451672E+02  0.7818608E-02  0.1292268E+00
          2   -1    0    0  501    0  0.00000000000E+00  0.00000000000E+00  0.24777540531E+03  0.24777540533E+03  0.26000000000E-02 0. -1.
         -2   -1    0    0    0  501 -0.00000000000E+00 -0.00000000000E+00 -0.90136172255E+01  0.90136176005E+01  0.26000000000E-02 0.  1.
         23    2    1    2    0    0  0.00000000000E+00  0.00000000000E+00  0.23876178809E+03  0.25678902293E+03  0.94516722569E+02 0.  0.
        -11    1    3    3    0    0  0.26122195587E+02  0.25914474105E+02  0.38812098895E+02  0.53481848242E+02  0.51100000000E-03 0.  1.
         11    1    3    3    0    0 -0.26122195587E+02 -0.25914474105E+02  0.19994968919E+03  0.20330717469E+03  0.51100000000E-03 0. -1.
<mgrwt>
<rscale>  0 0.94516723E+02</rscale>
<asrwt>0</asrwt>
<pdfrwt beam="1">  1        2 0.38119287E-01 0.94516723E+02</pdfrwt>
<pdfrwt beam="2">  1       -2 0.13867106E-02 0.94516723E+02</pdfrwt>
<totfact> 0.15189666E+05</totfact>
</mgrwt>
</event>
<event>
 5    1  0.2809073E+000  0.9173928E+02  0.7818608E-02  0.1298694E+00
          2   -1    0    0  501    0  0.00000000000E+00  0.00000000000E+00  0.86511258628E+02  0.86511258667E+02  0.26000000000E-02 0. -1.
         -2   -1    0    0    0  501 -0.00000000000E+00 -0.00000000000E+00 -0.24320810005E+02  0.24320810144E+02  0.26000000000E-02 0.  1.
         23    2    1    2    0    0  0.00000000000E+00  0.00000000000E+00  0.62190448623E+02  0.11083206881E+03  0.91739280447E+02 0.  0.
        -11    1    3    3    0    0 -0.26043151707E+02 -0.61894297272E+01  0.76096183505E+02  0.80667118056E+02  0.51100000000E-03 0. -1.
         11    1    3    3    0    0  0.26043151707E+02  0.61894297272E+01 -0.13905734882E+02  0.30164950755E+02  0.51100000000E-03 0.  1.
<mgrwt>
<rscale>  0 0.91739280E+02</rscale>
<asrwt>0</asrwt>
<pdfrwt beam="1">  1        2 0.13309424E-01 0.91739280E+02</pdfrwt>
<pdfrwt beam="2">  1       -2 0.37416632E-02 0.91739280E+02</pdfrwt>
<totfact> 0.11549751E+05</totfact>
</mgrwt>
</event>
<event>
 5    1  0.2809073E+000  0.8914953E+02  0.7818608E-02  0.1304924E+00
         -2   -1    0    0    0  501 -0.00000000000E+00  0.00000000000E+00  0.76031010966E+01  0.76031015411E+01  0.26000000000E-02 0. -1.
          2   -1    0    0  501    0  0.00000000000E+00 -0.00000000000E+00 -0.26132883795E+03  0.26132883796E+03  0.26000000000E-02 0.  1.
         23    2    1    2    0    0  0.00000000000E+00  0.00000000000E+00 -0.25372573685E+03  0.26893193950E+03  0.89149529126E+02 0.  0.
        -11    1    3    3    0    0 -0.31392527360E+02  0.23503858746E+02 -0.19078341037E+03  0.19477225630E+03  0.51100000000E-03 0.  1.
         11    1    3    3    0    0  0.31392527360E+02 -0.23503858746E+02 -0.62942326477E+02  0.74159683201E+02  0.51100000000E-03 0. -1.
<mgrwt>
<rscale>  0 0.89149529E+02</rscale>
<asrwt>0</asrwt>
<pdfrwt beam="2">  1        2 0.40204430E-01 0.89149529E+02</pdfrwt>
<pdfrwt beam="1">  1       -2 0.11697081E-02 0.89149529E+02</pdfrwt>
<totfact> 0.18120710E+05</totfact>
</mgrwt>
</event>
<event>
 5    1  0.2809073E+000  0.8690550E+02  0.7818608E-02  0.1310523E+00
         -2   -1    0    0    0  501 -0.00000000000E+00  0.00000000000E+00  0.67783289922E+01  0.67783294909E+01  0.26000000000E-02 0.  1.
          2   -1    0    0  501    0  0.00000000000E+00 -0.00000000000E+00 -0.27855559759E+03  0.27855559760E+03  0.26000000000E-02 0. -1.
         23    2    1    2    0    0  0.00000000000E+00  0.00000000000E+00 -0.27177726860E+03  0.28533392709E+03  0.86905501689E+02 0.  0.
        -11    1    3    3    0    0 -0.19339766892E+02 -0.38527324979E+02 -0.15379980948E+03  0.15972715094E+03  0.51100000000E-03 0. -1.
         11    1    3    3    0    0  0.19339766892E+02  0.38527324979E+02 -0.11797745912E+03  0.12560677615E+03  0.51100000000E-03 0.  1.
<mgrwt>
<rscale>  0 0.86905502E+02</rscale>
<asrwt>0</asrwt>
<pdfrwt beam="2">  1        2 0.42854698E-01 0.86905502E+02</pdfrwt>
<pdfrwt beam="1">  1       -2 0.10428201E-02 0.86905502E+02</pdfrwt>
<totfact> 0.19858150E+05</totfact>
</mgrwt>
</event>
<event>
 5    1  0.2809073E+000  0.9503802E+02  0.7818608E-02  0.1291090E+00
         -2   -1    0    0    0  501 -0.00000000000E+00  0.00000000000E+00  0.14228071403E+03  0.14228071406E+03  0.26000000000E-02 0.  1.
          2   -1    0    0  501    0  0.00000000000E+00 -0.00000000000E+00 -0.15870430001E+02  0.15870430214E+02  0.26000000000E-02 0. -1.
         23    2    1    2    0    0  0.00000000000E+00  0.00000000000E+00  0.12641028403E+03  0.15815114427E+03  0.95038016210E+02 0.  0.
        -11    1    3    3    0    0 -0.29365132480E+02  0.16162289198E+02  0.71543035869E+01  0.34274110605E+02  0.51100000000E-03 0. -1.
         11    1    3    3    0    0  0.29365132480E+02 -0.16162289198E+02  0.11925598045E+03  0.12387703367E+03  0.51100000000E-03 0.  1.
<mgrwt>
<rscale>  0 0.95038016E+02</rscale>
<asrwt>0</asrwt>
<pdfrwt beam="2">  1        2 0.24416046E-02 0.95038016E+02</pdfrwt>
<pdfrwt beam="1">  1       -2 0.21889341E-01 0.95038016E+02</pdfrwt>
<totfact> 0.64103547E+04</totfact>
</mgrwt>
</event>
<event>
 5    1  0.2809073E+000  0.1090078E+03  0.7818608E-02  0.1262418E+00
          2   -1    0    0  501    0  0.00000000000E+00  0.00000000000E+00  0.24203898042E+03  0.24203898044E+03  0.26000000000E-02 0. -1.
         -2   -1    0    0    0  501 -0.00000000000E+00 -0.00000000000E+00 -0.12273534063E+02  0.12273534338E+02  0.26000000000E-02 0.  1.
         23    2    1    2    0    0  0.00000000000E+00  0.00000000000E+00  0.22976544636E+03  0.25431251478E+03  0.10900777417E+03 0.  0.
        -11    1    3    3    0    0 -0.47825347319E+02  0.15016009406E+02  0.64958710213E+02  0.82051072007E+02  0.51100000000E-03 0.  1.
         11    1    3    3    0    0  0.47825347319E+02 -0.15016009406E+02  0.16480673615E+03  0.17226144277E+03  0.51100000000E-03 0. -1.
<mgrwt>
<rscale>  0 0.10900777E+03</rscale>
<asrwt>0</asrwt>
<pdfrwt beam="1">  1        2 0.37236761E-01 0.10900777E+03</pdfrwt>
<pdfrwt beam="2">  1       -2 0.18882363E-02 0.10900777E+03</pdfrwt>
<totfact> 0.10223600E+05</totfact>
</mgrwt>
</event>
<event>
 5    1  0.2809073E+000  0.8681594E+02  0.7818608E-02  0.1310751E+00
         -2   -1    0    0    0  501 -0.00000000000E+00  0.00000000000E+00  0.60082357842E+01  0.60082363467E+01  0.26000000000E-02 0.  1.
          2   -1    0    0  501    0  0.00000000000E+00 -0.00000000000E+00 -0.31361149434E+03  0.31361149435E+03  0.26000000000E-02 0. -1.
         23    2    1    2    0    0  0.00000000000E+00  0.00000000000E+00 -0.30760325856E+03  0.31961973070E+03  0.86815940800E+02 0.  0.
        -11    1    3    3    0    0  0.89619566758E+01 -0.41558582594E+02 -0.18606945271E+03  0.19086454277E+03  0.51100000000E-03 0. -1.
         11    1    3    3    0    0 -0.89619566758E+01  0.41558582594E+02 -0.12153380585E+03  0.12875518793E+03  0.51100000000E-03 0.  1.
<mgrwt>
<rscale>  0 0.86815941E+02</rscale>
<asrwt>0</asrwt>
<pdfrwt beam="2">  1        2 0.48247910E-01 0.86815941E+02</pdfrwt>
<pdfrwt beam="1">  1       -2 0.92434426E-03 0.86815941E+02</pdfrwt>
<totfact> 0.20805545E+05</totfact>
</mgrwt>
</event>
<event>
 5    1  0.2809073E+000  0.8286187E+02  0.7818608E-02  0.1321121E+00
          2   -1    0    0  501    0  0.00000000000E+00  0.00000000000E+00  0.12788822211E+03  0.12788822213E+03  0.26000000000E-02 0. -1.
         -2   -1    0    0    0  501 -0.00000000000E+00 -0.00000000000E+00 -0.13422053328E+02  0.13422053579E+02  0.26000000000E-02 0.  1.
         23    2    1    2    0    0  0.00000000000E+00  0.00000000000E+00  0.11446616878E+03  0.14131027571E+03  0.82861874388E+02 0.  0.
        -11    1    3    3    0    0 -0.29984161586E+02  0.21826849496E+02  0.88727617996E+02  0.96166790008E+02  0.51100000000E-03 0. -1.
         11    1    3    3    0    0  0.29984161586E+02 -0.21826849496E+02  0.25738550784E+02  0.45143485706E+02  0.51100000000E-03 0.  1.
<mgrwt>
<rscale>  0 0.82861874E+02</rscale>
<asrwt>0</asrwt>
<pdfrwt beam="1">  1        2 0.19675111E-01 0.82861874E+02</pdfrwt>
<pdfrwt beam="2">  1       -2 0.20649313E-02 0.82861874E+02</pdfrwt>
<totfact> 0.17176716E+05</totfact>
</mgrwt>
</event>
<event>
 5    1  0.2809073E+000  0.8956605E+02  0.7818608E-02  0.1303906E+00
         -2   -1    0    0    0  501 -0.00000000000E+00  0.00000000000E+00  0.31937689202E+03  0.31937689203E+03  0.26000000000E-02 0. -1.
          2   -1    0    0  501    0  0.00000000000E+00 -0.00000000000E+00 -0.62794744946E+01  0.62794750329E+01  0.26000000000E-02 0.  1.
         23    2    1    2    0    0  0.00000000000E+00  0.00000000000E+00  0.31309741753E+03  0.32565636707E+03  0.89566045731E+02 0.  0.
        -11    1    3    3    0    0  0.12795295725E+02  0.40932792225E+02  0.10965979021E+03  0.11774753781E+03  0.51100000000E-03 0.  1.
         11    1    3    3    0    0 -0.12795295725E+02 -0.40932792225E+02  0.20343762732E+03  0.20790882925E+03  0.51100000000E-03 0. -1.
<mgrwt>
<rscale>  0 0.89566046E+02</rscale>
<asrwt>0</asrwt>
<pdfrwt beam="2">  1        2 0.96607298E-03 0.89566046E+02</pdfrwt>
<pdfrwt beam="1">  1       -2 0.49134909E-01 0.89566046E+02</pdfrwt>
<totfact> 0.51512521E+04</totfact>
</mgrwt>
</event>
<event>
 5    1  0.2809073E+000  0.9335715E+02  0.7818608E-02  0.1294920E+00
         -2   -1    0    0    0  501 -0.00000000000E+00  0.00000000000E+00  0.57818471081E+02  0.57818471140E+02  0.26000000000E-02 0.  1.
          2   -1    0    0  501    0  0.00000000000E+00 -0.00000000000E+00 -0.37685005834E+02  0.37685005924E+02  0.26000000000E-02 0. -1.
         23    2    1    2    0    0  0.00000000000E+00  0.00000000000E+00  0.20133465248E+02  0.95503477063E+02  0.93357151351E+02 0.  0.
        -11    1    3    3    0    0  0.29130489376E+02 -0.32142309490E+02  0.27701852920E+02  0.51469467902E+02  0.51100000000E-03 0. -1.
         11    1    3    3    0    0 -0.29130489376E+02  0.32142309490E+02 -0.75683876720E+01  0.44034009162E+02  0.51100000000E-03 0.  1.
<mgrwt>
<rscale>  0 0.93357151E+02</rscale>
<asrwt>0</asrwt>
<pdfrwt beam="2">  1        2 0.57976932E-02 0.93357151E+02</pdfrwt>
<pdfrwt beam="1">  1       -2 0.88951494E-02 0.93357151E+02</pdfrwt>
<totfact> 0.87663177E+04</totfact>
</mgrwt>
</event>
<event>
 5    1  0.2809073E+000  0.7980938E+02  0.7818608E-02  0.1329593E+00
          2   -1    0    0  501    0  0.00000000000E+00  0.00000000000E+00  0.17249659709E+02  0.17249659905E+02  0.26000000000E-02 0. -1.
         -2   -1    0    0    0  501 -0.00000000000E+00 -0.00000000000E+00 -0.92313946942E+02  0.92313946978E+02  0.26000000000E-02 0.  1.
         23    2    1    2    0    0  0.00000000000E+00  0.00000000000E+00 -0.75064287233E+02  0.10956360688E+03  0.79809377490E+02 0.  0.
        -11    1    3    3    0    0 -0.81083252524E+01 -0.38931163056E+02 -0.32978243392E+02  0.51661832457E+02  0.51100000000E-03 0. -1.
         11    1    3    3    0    0  0.81083252524E+01  0.38931163056E+02 -0.42086043841E+02  0.57901774426E+02  0.51100000000E-03 0.  1.
<mgrwt>
<rscale>  0 0.79809377E+02</rscale>
<asrwt>0</asrwt>
<pdfrwt beam="1">  1        2 0.26537939E-02 0.79809377E+02</pdfrwt>
<pdfrwt beam="2">  1       -2 0.14202145E-01 0.79809377E+02</pdfrwt>
<totfact> 0.11366604E+05</totfact>
</mgrwt>
</event>
<event>
 5    1  0.2809073E+000  0.8983370E+02  0.7818608E-02  0.1303255E+00
         -2   -1    0    0    0  501 -0.00000000000E+00  0.00000000000E+00  0.12177009196E+03  0.12177009199E+03  0.26000000000E-02 0.  1.
          2   -1    0    0  501    0  0.00000000000E+00 -0.00000000000E+00 -0.16568300152E+02  0.16568300356E+02  0.26000000000E-02 0. -1.
         23    2    1    2    0    0  0.00000000000E+00  0.00000000000E+00  0.10520179181E+03  0.13833839235E+03  0.89833700784E+02 0.  0.
        -11    1    3    3    0    0 -0.25802187085E+02  0.33556579443E+02  0.29464549874E+02  0.51574766910E+02  0.51100000000E-03 0. -1.
         11    1    3    3    0    0  0.25802187085E+02 -0.33556579443E+02  0.75737241936E+02  0.86763625435E+02  0.51100000000E-03 0.  1.
<mgrwt>
<rscale>  0 0.89833701E+02</rscale>
<asrwt>0</asrwt>
<pdfrwt beam="2">  1        2 0.25489693E-02 0.89833701E+02</pdfrwt>
<pdfrwt beam="1">  1       -2 0.18733860E-01 0.89833701E+02</pdfrwt>
<totfact> 0.77906985E+04</totfact>
</mgrwt>
</event>
<event>
 5    1  0.2809073E+000  0.9948941E+02  0.7818608E-02  0.1281373E+00
          2   -1    0    0  501    0  0.00000000000E+00  0.00000000000E+00  0.90473569117E+01  0.90473572853E+01  0.26000000000E-02 0. -1.
         -2   -1    0    0    0  501 -0.00000000000E+00 -0.00000000000E+00 -0.27350922897E+03  0.27350922898E+03  0.26000000000E-02 0.  1.
         23    2    1    2    0    0  0.00000000000E+00  0.00000000000E+00 -0.26446187206E+03  0.28255658626E+03  0.99489409841E+02 0.  0.
        -11    1    3    3    0    0 -0.15708473528E+02 -0.46870281388E+02 -0.11642927473E+03  0.12648855850E+03  0.51100000000E-03 0. -1.
         11    1    3    3    0    0  0.15708473528E+02  0.46870281388E+02 -0.14803259733E+03  0.15606802776E+03  0.51100000000E-03 0.  1.
<mgrwt>
<rscale>  0 0.99489410E+02</rscale>
<asrwt>0</asrwt>
<pdfrwt beam="1">  1        2 0.13919013E-02 0.99489410E+02</pdfrwt>
<pdfrwt beam="2">  1       -2 0.42078337E-01 0.99489410E+02</pdfrwt>
<totfact> 0.42839886E+04</totfact>
</mgrwt>
</event>
<event>
 5    1  0.2809073E+000  0.8452581E+02  0.7818608E-02  0.1316677E+00
          2   -1    0    0  501    0  0.00000000000E+00  0.00000000000E+00  0.40930477706E+02  0.40930477789E+02  0.26000000000E-02 0. -1.
         -2   -1    0    0    0  501 -0.00000000000E+00 -0.00000000000E+00 -0.43638703997E+02  0.43638704075E+02  0.26000000000E-02 0.  1.
         23    2    1    2    0    0  0.00000000000E+00  0.00000000000E+00 -0.27082262913E+01  0.84569181863E+02  0.84525806896E+02 0.  0.
        -11    1    3    3    0    0 -0.41755481488E+02  0.22736937454E+01  0.47697376644E+01  0.42088481978E+02  0.51100000000E-03 0. -1.
         11    1    3    3    0    0  0.41755481488E+02 -0.22736937454E+01 -0.74779639557E+01  0.42480699885E+02  0.51100000000E-03 0.  1.
<mgrwt>
<rscale>  0 0.84525807E+02</rscale>
<asrwt>0</asrwt>
<pdfrwt beam="1">  1        2 0.62969966E-02 0.84525807E+02</pdfrwt>
<pdfrwt beam="2">  1       -2 0.67136468E-02 0.84525807E+02</pdfrwt>
<totfact> 0.11922836E+05</totfact>
</mgrwt>
</event>
<event>
 5    1  0.2809073E+000  0.9001647E+02  0.7818608E-02  0.1302812E+00
         -2   -1    0    0    0  501 -0.00000000000E+00  0.00000000000E+00  0.25813277263E+02  0.25813277394E+02  0.26000000000E-02 0.  1.
          2   -1    0    0  501    0  0.00000000000E+00 -0.00000000000E+00 -0.78476710038E+02  0.78476710081E+02  0.26000000000E-02 0. -1.
         23    2    1    2    0    0  0.00000000000E+00  0.00000000000E+00 -0.52663432775E+02  0.10428998748E+03  0.90016467027E+02 0.  0.
        -11    1    3    3    0    0 -0.29141775005E+02 -0.31943624498E+02 -0.11856464841E+02  0.44835409614E+02  0.51100000000E-03 0.  1.
         11    1    3    3    0    0  0.29141775005E+02  0.31943624498E+02 -0.40806967934E+02  0.59454577862E+02  0.51100000000E-03 0. -1.
<mgrwt>
<rscale>  0 0.90016467E+02</rscale>
<asrwt>0</asrwt>
<pdfrwt beam="2">  1        2 0.12073340E-01 0.90016467E+02</pdfrwt>
<pdfrwt beam="1">  1       -2 0.39712735E-02 0.90016467E+02</pdfrwt>
<totfact> 0.11836318E+05</totfact>
</mgrwt>
</event>
<event>
 5    1  0.2809073E+000  0.8790744E+02  0.7818608E-02  0.1308000E+00
         -2   -1    0    0    0  501 -0.00000000000E+00  0.00000000000E+00  0.46861352903E+02  0.46861352975E+02  0.26000000000E-02 0.  1.
          2   -1    0    0  501    0  0.00000000000E+00 -0.00000000000E+00 -0.41226498281E+02  0.41226498363E+02  0.26000000000E-02 0. -1.
         23    2    1    2    0    0  0.00000000000E+00  0.00000000000E+00  0.56348546220E+01  0.88087851338E+02  0.87907439769E+02 0.  0.
        -11    1    3    3    0    0 -0.11850435047E+02  0.66947691111E+01  0.44696461192E+02  0.46722867930E+02  0.51100000000E-03 0.  1.
         11    1    3    3    0    0  0.11850435047E+02 -0.66947691111E+01 -0.39061606570E+02  0.41364983408E+02  0.51100000000E-03 0. -1.
<mgrwt>
<rscale>  0 0.87907440E+02</rscale>
<asrwt>0</asrwt>
<pdfrwt beam="2">  1        2 0.63425382E-02 0.87907440E+02</pdfrwt>
<pdfrwt beam="1">  1       -2 0.72094389E-02 0.87907440E+02</pdfrwt>
<totfact> 0.10678522E+05</totfact>
</mgrwt>
</event>
<event>
 5    1  0.2809073E+000  0.8648957E+02  0.7818608E-02  0.1311582E+00
          2   -1    0    0  501    0  0.00000000000E+00  0.00000000000E+00  0.78876300556E+01  0.78876304841E+01  0.26000000000E-02 0.  1.
         -2   -1    0    0    0  501 -0.00000000000E+00 -0.00000000000E+00 -0.23709418097E+03  0.23709418098E+03  0.26000000000E-02 0. -1.
         23    2    1    2    0    0  0.00000000000E+00  0.00000000000E+00 -0.22920655091E+03  0.24498181147E+03  0.86489565661E+02 0.  0.
        -11    1    3    3    0    0 -0.67156884370E+01  0.39548655148E+02 -0.68850298710E+02  0.79684127829E+02  0.51100000000E-03 0.  1.
         11    1    3    3    0    0  0.67156884370E+01 -0.39548655148E+02 -0.16035625220E+03  0.16529768364E+03  0.51100000000E-03 0. -1.
<mgrwt>
<rscale>  0 0.86489566E+02</rscale>
<asrwt>0</asrwt>
<pdfrwt beam="1">  1        2 0.12134818E-02 0.86489566E+02</pdfrwt>
<pdfrwt beam="2">  1       -2 0.36476023E-01 0.86489566E+02</pdfrwt>
<totfact> 0.65995631E+04</totfact>
</mgrwt>
</event>
<event>
 5    1  0.2809073E+000  0.7556004E+02  0.7818608E-02  0.1342145E+00
          2   -1    0    0  501    0  0.00000000000E+00  0.00000000000E+00  0.11949355142E+02  0.11949355425E+02  0.26000000000E-02 0.  1.
         -2   -1    0    0    0  501 -0.00000000000E+00 -0.00000000000E+00 -0.11944828776E+03  0.11944828778E+03  0.26000000000E-02 0. -1.
         23    2    1    2    0    0  0.00000000000E+00  0.00000000000E+00 -0.10749893261E+03  0.13139764321E+03  0.75560043197E+02 0.  0.
        -11    1    3    3    0    0  0.22756784565E+02  0.52198219857E+01 -0.20980875106E+01  0.23441837743E+02  0.51100000000E-03 0.  1.
         11    1    3    3    0    0 -0.22756784565E+02 -0.52198219857E+01 -0.10540084510E+03  0.10795580547E+03  0.51100000000E-03 0. -1.
<mgrwt>
<rscale>  0 0.75560043E+02</rscale>
<asrwt>0</asrwt>
<pdfrwt beam="1">  1        2 0.18383624E-02 0.75560043E+02</pdfrwt>
<pdfrwt beam="2">  1       -2 0.18376659E-01 0.75560043E+02</pdfrwt>
<totfact> 0.12096934E+05</totfact>
</mgrwt>
</event>
<event>
 5    1  0.2809073E+000  0.9828661E+02  0.7818608E-02  0.1283941E+00
          2   -1    0    0  501    0  0.00000000000E+00  0.00000000000E+00  0.53738873720E+02  0.53738873783E+02  0.26000000000E-02 0. -1.
         -2   -1    0    0    0  501 -0.00000000000E+00 -0.00000000000E+00 -0.44940737217E+02  0.44940737292E+02  0.26000000000E-02 0.  1.
         23    2    1    2    0    0  0.00000000000E+00  0.00000000000E+00  0.87981365035E+01  0.98679611075E+02  0.98286613717E+02 0.  0.
        -11    1    3    3    0    0 -0.38079314810E+02 -0.73804268189E+01 -0.25897069541E+02  0.46638644143E+02  0.51100000000E-03 0.  1.
         11    1    3    3    0    0  0.38079314810E+02  0.73804268189E+01  0.34695206045E+02  0.52040966932E+02  0.51100000000E-03 0. -1.
<mgrwt>
<rscale>  0 0.98286614E+02</rscale>
<asrwt>0</asrwt>
<pdfrwt beam="1">  1        2 0.82675190E-02 0.98286614E+02</pdfrwt>
<pdfrwt beam="2">  1       -2 0.69139596E-02 0.98286614E+02</pdfrwt>
<totfact> 0.83087822E+04</totfact>
</mgrwt>
</event>
<event>
 5    1  0.2809073E+000  0.8841310E+02  0.7818608E-02  0.1306741E+00
         -2   -1    0    0    0  501 -0.00000000000E+00  0.00000000000E+00  0.32236257882E+02  0.32236257987E+02  0.26000000000E-02 0. -1.
          2   -1    0    0  501    0  0.00000000000E+00 -0.00000000000E+00 -0.60621766761E+02  0.60621766817E+02  0.26000000000E-02 0.  1.
         23    2    1    2    0    0  0.00000000000E+00  0.00000000000E+00 -0.28385508879E+02  0.92858024804E+02  0.88413096633E+02 0.  0.
        -11    1    3    3    0    0  0.22188093730E+02  0.17838871531E+02  0.21325817523E+02  0.35571439867E+02  0.51100000000E-03 0. -1.
         11    1    3    3    0    0 -0.22188093730E+02 -0.17838871531E+02 -0.49711326402E+02  0.57286584937E+02  0.51100000000E-03 0.  1.
<mgrwt>
<rscale>  0 0.88413097E+02</rscale>
<asrwt>0</asrwt>
<pdfrwt beam="2">  1        2 0.93264257E-02 0.88413097E+02</pdfrwt>
<pdfrwt beam="1">  1       -2 0.49594243E-02 0.88413097E+02</pdfrwt>
<totfact> 0.11596920E+05</totfact>
</mgrwt>
</event>
<event>
 5    1  0.2809073E+000  0.9117136E+02  0.7818608E-02  0.1300040E+00
         -2   -1    0    0    0  501 -0.00000000000E+00  0.00000000000E+00  0.98019390409E+01  0.98019393858E+01  0.26000000000E-02 0.  1.
          2   -1    0    0  501    0  0.00000000000E+00 -0.00000000000E+00 -0.21200437844E+03  0.21200437846E+03  0.26000000000E-02 0. -1.
         23    2    1    2    0    0  0.00000000000E+00  0.00000000000E+00 -0.20220243940E+03  0.22180631784E+03  0.91171355894E+02 0.  0.
        -11    1    3    3    0    0 -0.19430571427E+02 -0.29145519949E+02 -0.30128424057E+02  0.46203142485E+02  0.51100000000E-03 0.  1.
         11    1    3    3    0    0  0.19430571427E+02  0.29145519949E+02 -0.17207401534E+03  0.17560317536E+03  0.51100000000E-03 0. -1.
<mgrwt>
<rscale>  0 0.91171356E+02</rscale>
<asrwt>0</asrwt>
<pdfrwt beam="2">  1        2 0.32616055E-01 0.91171356E+02</pdfrwt>
<pdfrwt beam="1">  1       -2 0.15079908E-02 0.91171356E+02</pdfrwt>
<totfact> 0.15801415E+05</totfact>
</mgrwt>
</event>
<event>
 5    1  0.2809073E+000  0.8584480E+02  0.7818608E-02  0.1313238E+00
         -2   -1    0    0    0  501 -0.00000000000E+00  0.00000000000E+00  0.10500661869E+03  0.10500661873E+03  0.26000000000E-02 0.  1.
          2   -1    0    0  501    0  0.00000000000E+00 -0.00000000000E+00 -0.17544916651E+02  0.17544916844E+02  0.26000000000E-02 0. -1.
         23    2    1    2    0    0  0.00000000000E+00  0.00000000000E+00  0.87461702042E+02  0.12255153557E+03  0.85844799180E+02 0.  0.
        -11    1    3    3    0    0 -0.10322003219E+02  0.40592288540E+02  0.30334665449E+02  0.51715274025E+02  0.51100000000E-03 0. -1.
         11    1    3    3    0    0  0.10322003219E+02 -0.40592288540E+02  0.57127036593E+02  0.70836261544E+02  0.51100000000E-03 0.  1.
<mgrwt>
<rscale>  0 0.85844799E+02</rscale>
<asrwt>0</asrwt>
<pdfrwt beam="2">  1        2 0.26992180E-02 0.85844799E+02</pdfrwt>
<pdfrwt beam="1">  1       -2 0.16154864E-01 0.85844799E+02</pdfrwt>
<totfact> 0.91388149E+04</totfact>
</mgrwt>
</event>
<event>
 5    1  0.2809073E+000  0.9018708E+02  0.7818608E-02  0.1302399E+00
         -2   -1    0    0    0  501 -0.00000000000E+00  0.00000000000E+00  0.22452143190E+02  0.22452143341E+02  0.26000000000E-02 0.  1.
          2   -1    0    0  501    0  0.00000000000E+00 -0.00000000000E+00 -0.90567186566E+02  0.90567186604E+02  0.26000000000E-02 0. -1.
         23    2    1    2    0    0  0.00000000000E+00  0.00000000000E+00 -0.68115043376E+02  0.11301932994E+03  0.90187082262E+02 0.  0.
        -11    1    3    3    0    0  0.18548114036E+02  0.40557297761E+02 -0.25697817456E+02  0.51471397477E+02  0.51100000000E-03 0. -1.
         11    1    3    3    0    0 -0.18548114036E+02 -0.40557297761E+02 -0.42417225920E+02  0.61547932467E+02  0.51100000000E-03 0.  1.
<mgrwt>
<rscale>  0 0.90187082E+02</rscale>
<asrwt>0</asrwt>
<pdfrwt beam="2">  1        2 0.13933413E-01 0.90187082E+02</pdfrwt>
<pdfrwt beam="1">  1       -2 0.34541759E-02 0.90187082E+02</pdfrwt>
<totfact> 0.12272131E+05</totfact>
</mgrwt>
</event>
<event>
 5    1  0.2809073E+000  0.9054415E+02  0.7818608E-02  0.1301539E+00
         -2   -1    0    0    0  501 -0.00000000000E+00  0.00000000000E+00  0.14674977366E+02  0.14674977596E+02  0.26000000000E-02 0.  1.
          2   -1    0    0  501    0  0.00000000000E+00 -0.00000000000E+00 -0.13966364602E+03  0.13966364605E+03  0.26000000000E-02 0. -1.
         23    2    1    2    0    0  0.00000000000E+00  0.00000000000E+00 -0.12498866866E+03  0.15433862364E+03  0.90544151968E+02 0.  0.
        -11    1    3    3    0    0  0.35697098711E+02 -0.20841356518E+02 -0.31021357351E+02  0.51681424226E+02  0.51100000000E-03 0.  1.
         11    1    3    3    0    0 -0.35697098711E+02  0.20841356518E+02 -0.93967311306E+02  0.10265719942E+03  0.51100000000E-03 0. -1.
<mgrwt>
<rscale>  0 0.90544152E+02</rscale>
<asrwt>0</asrwt>
<pdfrwt beam="2">  1        2 0.21486714E-01 0.90544152E+02</pdfrwt>
<pdfrwt beam="1">  1       -2 0.22576889E-02 0.90544152E+02</pdfrwt>
<totfact> 0.13909097E+05</totfact>
</mgrwt>
</event>
<event>
 5    1  0.2809073E+000  0.9398591E+02  0.7818608E-02  0.1293477E+00
         -2   -1    0    0    0  501 -0.00000000000E+00  0.00000000000E+00  0.49770284920E+01  0.49770291711E+01  0.26000000000E-02 0.  1.
          2   -1    0    0  501    0  0.00000000000E+00 -0.00000000000E+00 -0.44370601376E+03  0.44370601377E+03  0.26000000000E-02 0. -1.
         23    2    1    2    0    0  0.00000000000E+00  0.00000000000E+00 -0.43872898527E+03  0.44868304294E+03  0.93985905892E+02 0.  0.
        -11    1    3    3    0    0  0.35480169095E+02 -0.30810375745E+02 -0.22158308453E+03  0.22651089378E+03  0.51100000000E-03 0.  1.
         11    1    3    3    0    0 -0.35480169095E+02  0.30810375745E+02 -0.21714590074E+03  0.22217214916E+03  0.51100000000E-03 0. -1.
<mgrwt>
<rscale>  0 0.93985906E+02</rscale>
<asrwt>0</asrwt>
<pdfrwt beam="2">  1        2 0.68262432E-01 0.93985906E+02</pdfrwt>
<pdfrwt beam="1">  1       -2 0.76569710E-03 0.93985906E+02</pdfrwt>
<totfact> 0.19100237E+05</totfact>
</mgrwt>
</event>
<event>
 5    1  0.2809073E+000  0.8386052E+02  0.7818608E-02  0.1318440E+00
          2   -1    0    0  501    0  0.00000000000E+00  0.00000000000E+00  0.54216944928E+02  0.54216944990E+02  0.26000000000E-02 0.  1.
         -2   -1    0    0    0  501 -0.00000000000E+00 -0.00000000000E+00 -0.32427990889E+02  0.32427990993E+02  0.26000000000E-02 0. -1.
         23    2    1    2    0    0  0.00000000000E+00  0.00000000000E+00  0.21788954039E+02  0.86644935983E+02  0.83860517607E+02 0.  0.
        -11    1    3    3    0    0 -0.34965344523E+02 -0.23140494107E+02  0.10586558355E+02  0.43245034434E+02  0.51100000000E-03 0.  1.
         11    1    3    3    0    0  0.34965344523E+02  0.23140494107E+02  0.11202395684E+02  0.43399901549E+02  0.51100000000E-03 0. -1.
<mgrwt>
<rscale>  0 0.83860518E+02</rscale>
<asrwt>0</asrwt>
<pdfrwt beam="1">  1        2 0.83410685E-02 0.83860518E+02</pdfrwt>
<pdfrwt beam="2">  1       -2 0.49889217E-02 0.83860518E+02</pdfrwt>
<totfact> 0.13064409E+05</totfact>
</mgrwt>
</event>
<event>
 5    1  0.2809073E+000  0.9223820E+02  0.7818608E-02  0.1297520E+00
         -2   -1    0    0    0  501 -0.00000000000E+00  0.00000000000E+00  0.68242857910E+01  0.68242862863E+01  0.26000000000E-02 0.  1.
          2   -1    0    0  501    0  0.00000000000E+00 -0.00000000000E+00 -0.31167678034E+03  0.31167678036E+03  0.26000000000E-02 0. -1.
         23    2    1    2    0    0  0.00000000000E+00  0.00000000000E+00 -0.30485249455E+03  0.31850106664E+03  0.92238202586E+02 0.  0.
        -11    1    3    3    0    0  0.33250724514E+02 -0.24426075259E+02 -0.22358942577E+03  0.22736419056E+03  0.51100000000E-03 0. -1.
         11    1    3    3    0    0 -0.33250724514E+02  0.24426075259E+02 -0.81263068784E+02  0.91136876081E+02  0.51100000000E-03 0.  1.
<mgrwt>
<rscale>  0 0.92238203E+02</rscale>
<asrwt>0</asrwt>
<pdfrwt beam="2">  1        2 0.47950263E-01 0.92238203E+02</pdfrwt>
<pdfrwt beam="1">  1       -2 0.10498904E-02 0.92238203E+02</pdfrwt>
<totfact> 0.17668547E+05</totfact>
</mgrwt>
</event>
<event>
 5    1  0.2809073E+000  0.9062576E+02  0.7818608E-02  0.1301343E+00
          2   -1    0    0  501    0  0.00000000000E+00  0.00000000000E+00  0.72573351294E+02  0.72573351341E+02  0.26000000000E-02 0. -1.
         -2   -1    0    0    0  501 -0.00000000000E+00 -0.00000000000E+00 -0.28292165226E+02  0.28292165345E+02  0.26000000000E-02 0.  1.
         23    2    1    2    0    0  0.00000000000E+00  0.00000000000E+00  0.44281186068E+02  0.10086551669E+03  0.90625763537E+02 0.  0.
        -11    1    3    3    0    0  0.69069529130E+01 -0.35571922726E+02  0.52421056579E+02  0.63726249365E+02  0.51100000000E-03 0. -1.
         11    1    3    3    0    0 -0.69069529130E+01  0.35571922726E+02 -0.81398705111E+01  0.37139267321E+02  0.51100000000E-03 0.  1.
<mgrwt>
<rscale>  0 0.90625764E+02</rscale>
<asrwt>0</asrwt>
<pdfrwt beam="1">  1        2 0.11165131E-01 0.90625764E+02</pdfrwt>
<pdfrwt beam="2">  1       -2 0.43526408E-02 0.90625764E+02</pdfrwt>
<totfact> 0.11364207E+05</totfact>
</mgrwt>
</event>
<event>
 5    1  0.2809073E+000  0.9000677E+02  0.7818608E-02  0.1302835E+00
          2   -1    0    0  501    0  0.00000000000E+00  0.00000000000E+00  0.29953558023E+02  0.29953558136E+02  0.26000000000E-02 0. -1.
         -2   -1    0    0    0  501 -0.00000000000E+00 -0.00000000000E+00 -0.67614826850E+02  0.67614826900E+02  0.26000000000E-02 0.  1.
         23    2    1    2    0    0  0.00000000000E+00  0.00000000000E+00 -0.37661268827E+02  0.97568385036E+02  0.90006769683E+02 0.  0.
        -11    1    3    3    0    0 -0.65525540959E+01  0.40538786276E+02 -0.38788683630E+02  0.56487973374E+02  0.51100000000E-03 0.  1.
         11    1    3    3    0    0  0.65525540959E+01 -0.40538786276E+02  0.11274148026E+01  0.41080411662E+02  0.51100000000E-03 0. -1.
<mgrwt>
<rscale>  0 0.90006770E+02</rscale>
<asrwt>0</asrwt>
<pdfrwt beam="1">  1        2 0.46082397E-02 0.90006770E+02</pdfrwt>
<pdfrwt beam="2">  1       -2 0.10402281E-01 0.90006770E+02</pdfrwt>
<totfact> 0.91877198E+04</totfact>
</mgrwt>
</event>
<event>
 5    1  0.2809073E+000  0.9637183E+02  0.7818608E-02  0.1288116E+00
          2   -1    0    0  501    0  0.00000000000E+00  0.00000000000E+00  0.96453728472E+02  0.96453728507E+02  0.26000000000E-02 0.  1.
         -2   -1    0    0    0  501 -0.00000000000E+00 -0.00000000000E+00 -0.24072501592E+02  0.24072501732E+02  0.26000000000E-02 0. -1.
         23    2    1    2    0    0  0.00000000000E+00  0.00000000000E+00  0.72381226880E+02  0.12052623024E+03  0.96371832872E+02 0.  0.
        -11    1    3    3    0    0 -0.33692609782E+02 -0.15327177146E+02  0.74773707895E+02  0.83433936176E+02  0.51100000000E-03 0.  1.
         11    1    3    3    0    0  0.33692609782E+02  0.15327177146E+02 -0.23924810148E+01  0.37092294063E+02  0.51100000000E-03 0. -1.
<mgrwt>
<rscale>  0 0.96371833E+02</rscale>
<asrwt>0</asrwt>
<pdfrwt beam="1">  1        2 0.14839035E-01 0.96371833E+02</pdfrwt>
<pdfrwt beam="2">  1       -2 0.37034618E-02 0.96371833E+02</pdfrwt>
<totfact> 0.10407164E+05</totfact>
</mgrwt>
</event>
<event>
 5    1  0.2809073E+000  0.8896974E+02  0.7818608E-02  0.1305366E+00
         -2   -1    0    0    0  501 -0.00000000000E+00  0.00000000000E+00  0.98696386897E+02  0.98696386932E+02  0.26000000000E-02 0.  1.
          2   -1    0    0  501    0  0.00000000000E+00 -0.00000000000E+00 -0.20050416037E+02  0.20050416206E+02  0.26000000000E-02 0. -1.
         23    2    1    2    0    0  0.00000000000E+00  0.00000000000E+00  0.78645970860E+02  0.11874680314E+03  0.88969739366E+02 0.  0.
        -11    1    3    3    0    0 -0.35261413896E+02 -0.37743158866E+01  0.34774705665E+01  0.35632928201E+02  0.51100000000E-03 0. -1.
         11    1    3    3    0    0  0.35261413896E+02  0.37743158866E+01  0.75168500293E+02  0.83113874937E+02  0.51100000000E-03 0.  1.
<mgrwt>
<rscale>  0 0.88969739E+02</rscale>
<asrwt>0</asrwt>
<pdfrwt beam="2">  1        2 0.30846794E-02 0.88969739E+02</pdfrwt>
<pdfrwt beam="1">  1       -2 0.15184060E-01 0.88969739E+02</pdfrwt>
<totfact> 0.85148924E+04</totfact>
</mgrwt>
</event>
<event>
 5    1  0.2809073E+000  0.9025139E+02  0.7818608E-02  0.1302244E+00
          2   -1    0    0  501    0  0.00000000000E+00  0.00000000000E+00  0.13976942567E+02  0.13976942809E+02  0.26000000000E-02 0. -1.
         -2   -1    0    0    0  501 -0.00000000000E+00 -0.00000000000E+00 -0.14569196455E+03  0.14569196457E+03  0.26000000000E-02 0.  1.
         23    2    1    2    0    0  0.00000000000E+00  0.00000000000E+00 -0.13171502198E+03  0.15966890738E+03  0.90251387628E+02 0.  0.
        -11    1    3    3    0    0 -0.19821136811E+02 -0.33095596878E+02 -0.24437601945E+02  0.45666096683E+02  0.51100000000E-03 0. -1.
         11    1    3    3    0    0  0.19821136811E+02  0.33095596878E+02 -0.10727742004E+03  0.11400281070E+03  0.51100000000E-03 0.  1.
<mgrwt>
<rscale>  0 0.90251388E+02</rscale>
<asrwt>0</asrwt>
<pdfrwt beam="1">  1        2 0.21502990E-02 0.90251388E+02</pdfrwt>
<pdfrwt beam="2">  1       -2 0.22414147E-01 0.90251388E+02</pdfrwt>
<totfact> 0.72439370E+04</totfact>
</mgrwt>
</event>
<event>
 5    1  0.2809073E+000  0.9336902E+02  0.7818608E-02  0.1294892E+00
          2   -1    0    0  501    0  0.00000000000E+00  0.00000000000E+00  0.19694912056E+02  0.19694912227E+02  0.26000000000E-02 0. -1.
         -2   -1    0    0    0  501 -0.00000000000E+00 -0.00000000000E+00 -0.11066022319E+03  0.11066022322E+03  0.26000000000E-02 0.  1.
         23    2    1    2    0    0  0.00000000000E+00  0.00000000000E+00 -0.90965311137E+02  0.13035513545E+03  0.93369017924E+02 0.  0.
        -11    1    3    3    0    0 -0.34153810491E+01 -0.22534655330E+02 -0.10236469956E+03  0.10487138425E+03  0.51100000000E-03 0.  1.
         11    1    3    3    0    0  0.34153810491E+01  0.22534655330E+02  0.11399388422E+02  0.25483751200E+02  0.51100000000E-03 0. -1.
<mgrwt>
<rscale>  0 0.93369018E+02</rscale>
<asrwt>0</asrwt>
<pdfrwt beam="1">  1        2 0.30299865E-02 0.93369018E+02</pdfrwt>
<pdfrwt beam="2">  1       -2 0.17024649E-01 0.93369018E+02</pdfrwt>
<totfact> 0.72913846E+04</totfact>
</mgrwt>
</event>
<event>
 5    1  0.2809073E+000  0.9160003E+02  0.7818608E-02  0.1299023E+00
          2   -1    0    0  501    0  0.00000000000E+00  0.00000000000E+00  0.51853800324E+02  0.51853800390E+02  0.26000000000E-02 0. -1.
         -2   -1    0    0    0  501 -0.00000000000E+00 -0.00000000000E+00 -0.40452996146E+02  0.40452996230E+02  0.26000000000E-02 0.  1.
         23    2    1    2    0    0  0.00000000000E+00  0.00000000000E+00  0.11400804178E+02  0.92306796620E+02  0.91600034750E+02 0.  0.
        -11    1    3    3    0    0  0.36230836638E+01  0.18997336238E+02  0.47537187617E+02  0.51320655941E+02  0.51100000000E-03 0. -1.
         11    1    3    3    0    0 -0.36230836638E+01 -0.18997336238E+02 -0.36136383439E+02  0.40986140679E+02  0.51100000000E-03 0.  1.
<mgrwt>
<rscale>  0 0.91600035E+02</rscale>
<asrwt>0</asrwt>
<pdfrwt beam="1">  1        2 0.79775077E-02 0.91600035E+02</pdfrwt>
<pdfrwt beam="2">  1       -2 0.62235379E-02 0.91600035E+02</pdfrwt>
<totfact> 0.10070803E+05</totfact>
</mgrwt>
</event>
<event>
 5    1  0.2809073E+000  0.8804244E+02  0.7818608E-02  0.1307663E+00
          2   -1    0    0  501    0  0.00000000000E+00  0.00000000000E+00  0.63733219888E+02  0.63733219941E+02  0.26000000000E-02 0. -1.
         -2   -1    0    0    0  501 -0.00000000000E+00 -0.00000000000E+00 -0.30405930517E+02  0.30405930628E+02  0.26000000000E-02 0.  1.
         23    2    1    2    0    0  0.00000000000E+00  0.00000000000E+00  0.33327289372E+02  0.94139150569E+02  0.88042441203E+02 0.  0.
        -11    1    3    3    0    0  0.87377027661E+01  0.37299361150E+02  0.39851232060E+02  0.55278481245E+02  0.51100000000E-03 0. -1.
         11    1    3    3    0    0 -0.87377027661E+01 -0.37299361150E+02 -0.65239426883E+01  0.38860669324E+02  0.51100000000E-03 0.  1.
<mgrwt>
<rscale>  0 0.88042441E+02</rscale>
<asrwt>0</asrwt>
<pdfrwt beam="1">  1        2 0.98051107E-02 0.88042441E+02</pdfrwt>
<pdfrwt beam="2">  1       -2 0.46778355E-02 0.88042441E+02</pdfrwt>
<totfact> 0.11890768E+05</totfact>
</mgrwt>
</event>
<event>
 5    1  0.2809073E+000  0.9150874E+02  0.7818608E-02  0.1299239E+00
          2   -1    0    0  501    0  0.00000000000E+00  0.00000000000E+00  0.16745599335E+03  0.16745599337E+03  0.26000000000E-02 0.  1.
         -2   -1    0    0    0  501 -0.00000000000E+00 -0.00000000000E+00 -0.12501567001E+02  0.12501567271E+02  0.26000000000E-02 0. -1.
         23    2    1    2    0    0  0.00000000000E+00  0.00000000000E+00  0.15495442635E+03  0.17995756064E+03  0.91508739401E+02 0.  0.
        -11    1    3    3    0    0 -0.39026871845E+02  0.22007159174E+02  0.95719714622E+02  0.10568668577E+03  0.51100000000E-03 0.  1.
         11    1    3    3    0    0  0.39026871845E+02 -0.22007159174E+02  0.59234711728E+02  0.74270874875E+02  0.51100000000E-03 0. -1.
<mgrwt>
<rscale>  0 0.91508739E+02</rscale>
<asrwt>0</asrwt>
<pdfrwt beam="1">  1        2 0.25762457E-01 0.91508739E+02</pdfrwt>
<pdfrwt beam="2">  1       -2 0.19233183E-02 0.91508739E+02</pdfrwt>
<totfact> 0.14379031E+05</totfact>
</mgrwt>
</event>
<event>
 5    1  0.2809073E+000  0.9025247E+02  0.7818608E-02  0.1302241E+00
         -2   -1    0    0    0  501 -0.00000000000E+00  0.00000000000E+00  0.89591001440E+02  0.89591001478E+02  0.26000000000E-02 0.  1.
          2   -1    0    0  501    0  0.00000000000E+00 -0.00000000000E+00 -0.22729706743E+02  0.22729706891E+02  0.26000000000E-02 0. -1.
         23    2    1    2    0    0  0.00000000000E+00  0.00000000000E+00  0.66861294697E+02  0.11232070837E+03  0.90252472542E+02 0.  0.
        -11    1    3    3    0    0  0.28369145058E+02 -0.54877191052E+01 -0.97067812365E+01  0.30481880758E+02  0.51100000000E-03 0. -1.
         11    1    3    3    0    0 -0.28369145058E+02  0.54877191052E+01  0.76568075934E+02  0.81838827611E+02  0.51100000000E-03 0.  1.
<mgrwt>
<rscale>  0 0.90252473E+02</rscale>
<asrwt>0</asrwt>
<pdfrwt beam="2">  1        2 0.34968779E-02 0.90252473E+02</pdfrwt>
<pdfrwt beam="1">  1       -2 0.13783231E-01 0.90252473E+02</pdfrwt>
<totfact> 0.84514348E+04</totfact>
</mgrwt>
</event>
<event>
 5    1  0.2809073E+000  0.8336078E+02  0.7818608E-02  0.1319776E+00
         -2   -1    0    0    0  501 -0.00000000000E+00  0.00000000000E+00  0.15062723305E+02  0.15062723530E+02  0.26000000000E-02 0.  1.
          2   -1    0    0  501    0  0.00000000000E+00 -0.00000000000E+00 -0.11533471790E+03  0.11533471793E+03  0.26000000000E-02 0. -1.
         23    2    1    2    0    0  0.00000000000E+00  0.00000000000E+00 -0.10027199460E+03  0.13039744146E+03  0.83360781183E+02 0.  0.
        -11    1    3    3    0    0 -0.23119599534E+02  0.20815798451E+02 -0.93526544703E+02  0.98564841156E+02  0.51100000000E-03 0. -1.
         11    1    3    3    0    0  0.23119599534E+02 -0.20815798451E+02 -0.67454498963E+01  0.31832600308E+02  0.51100000000E-03 0.  1.
<mgrwt>
<rscale>  0 0.83360781E+02</rscale>
<asrwt>0</asrwt>
<pdfrwt beam="2">  1        2 0.17743802E-01 0.83360781E+02</pdfrwt>
<pdfrwt beam="1">  1       -2 0.23173421E-02 0.83360781E+02</pdfrwt>
<totfact> 0.16362166E+05</totfact>
</mgrwt>
</event>
<event>
 5    1  0.2809073E+000  0.9038442E+02  0.7818608E-02  0.1301923E+00
          2   -1    0    0  501    0  0.00000000000E+00  0.00000000000E+00  0.25243158951E+02  0.25243159085E+02  0.26000000000E-02 0. -1.
         -2   -1    0    0    0  501 -0.00000000000E+00 -0.00000000000E+00 -0.80906515306E+02  0.80906515348E+02  0.26000000000E-02 0.  1.
         23    2    1    2    0    0  0.00000000000E+00  0.00000000000E+00 -0.55663356355E+02  0.10614967443E+03  0.90384424220E+02 0.  0.
        -11    1    3    3    0    0  0.62450577230E+01  0.13302671822E+02 -0.78021996934E+02  0.79393915569E+02  0.51100000000E-03 0.  1.
         11    1    3    3    0    0 -0.62450577230E+01 -0.13302671822E+02  0.22358640579E+02  0.26755758864E+02  0.51100000000E-03 0. -1.
<mgrwt>
<rscale>  0 0.90384424E+02</rscale>
<asrwt>0</asrwt>
<pdfrwt beam="1">  1        2 0.38835630E-02 0.90384424E+02</pdfrwt>
<pdfrwt beam="2">  1       -2 0.12447156E-01 0.90384424E+02</pdfrwt>
<totfact> 0.86652770E+04</totfact>
</mgrwt>
</event>
<event>
 5    1  0.2809073E+000  0.9128595E+02  0.7818608E-02  0.1299767E+00
         -2   -1    0    0    0  501 -0.00000000000E+00  0.00000000000E+00  0.91776462893E+01  0.91776466576E+01  0.26000000000E-02 0.  1.
          2   -1    0    0  501    0  0.00000000000E+00 -0.00000000000E+00 -0.22699512384E+03  0.22699512386E+03  0.26000000000E-02 0. -1.
         23    2    1    2    0    0  0.00000000000E+00  0.00000000000E+00 -0.21781747755E+03  0.23617277051E+03  0.91285946372E+02 0.  0.
        -11    1    3    3    0    0 -0.22628687229E+02  0.28399481850E+02 -0.37365360450E+02  0.52103341705E+02  0.51100000000E-03 0.  1.
         11    1    3    3    0    0  0.22628687229E+02 -0.28399481850E+02 -0.18045211710E+03  0.18406942881E+03  0.51100000000E-03 0. -1.
<mgrwt>
<rscale>  0 0.91285946E+02</rscale>
<asrwt>0</asrwt>
<pdfrwt beam="2">  1        2 0.34922323E-01 0.91285946E+02</pdfrwt>
<pdfrwt beam="1">  1       -2 0.14119458E-02 0.91285946E+02</pdfrwt>
<totfact> 0.16146987E+05</totfact>
</mgrwt>
</event>
<event>
 5    1  0.2809073E+000  0.8906905E+02  0.7818608E-02  0.1305122E+00
          2   -1    0    0  501    0  0.00000000000E+00  0.00000000000E+00  0.11336949939E+03  0.11336949942E+03  0.26000000000E-02 0. -1.
         -2   -1    0    0    0  501 -0.00000000000E+00 -0.00000000000E+00 -0.17494334360E+02  0.17494334553E+02  0.26000000000E-02 0.  1.
         23    2    1    2    0    0  0.00000000000E+00  0.00000000000E+00  0.95875165028E+02  0.13086383397E+03  0.89069050586E+02 0.  0.
        -11    1    3    3    0    0 -0.12317459464E+02  0.17823148451E+02  0.10510480326E+03  0.10731451019E+03  0.51100000000E-03 0. -1.
         11    1    3    3    0    0  0.12317459464E+02 -0.17823148451E+02 -0.92296382334E+01  0.23549323781E+02  0.51100000000E-03 0.  1.
<mgrwt>
<rscale>  0 0.89069051E+02</rscale>
<asrwt>0</asrwt>
<pdfrwt beam="1">  1        2 0.17441462E-01 0.89069051E+02</pdfrwt>
<pdfrwt beam="2">  1       -2 0.26914360E-02 0.89069051E+02</pdfrwt>
<totfact> 0.13595865E+05</totfact>
</mgrwt>
</event>
<event>
 5    1  0.2809073E+000  0.9066358E+02  0.7818608E-02  0.1301253E+00
          2   -1    0    0  501    0  0.00000000000E+00  0.00000000000E+00  0.13532416876E+03  0.13532416879E+03  0.26000000000E-02 0. -1.
         -2   -1    0    0    0  501 -0.00000000000E+00 -0.00000000000E+00 -0.15185544249E+02  0.15185544471E+02  0.26000000000E-02 0.  1.
         23    2    1    2    0    0  0.00000000000E+00  0.00000000000E+00  0.12013862451E+03  0.15050971326E+03  0.90663579706E+02 0.  0.
        -11    1    3    3    0    0  0.28682091118E+02 -0.21468794297E+02  0.10617679329E+03  0.11205839065E+03  0.51100000000E-03 0. -1.
         11    1    3    3    0    0 -0.28682091118E+02  0.21468794297E+02  0.13961831219E+02  0.38451322613E+02  0.51100000000E-03 0.  1.
<mgrwt>
<rscale>  0 0.90663580E+02</rscale>
<asrwt>0</asrwt>
<pdfrwt beam="1">  1        2 0.20819103E-01 0.90663580E+02</pdfrwt>
<pdfrwt beam="2">  1       -2 0.23362376E-02 0.90663580E+02</pdfrwt>
<totfact> 0.13714736E+05</totfact>
</mgrwt>
</event>
<event>
 5    1  0.2809073E+000  0.7633727E+02  0.7818608E-02  0.1339779E+00
         -2   -1    0    0    0  501 -0.00000000000E+00  0.00000000000E+00  0.16122011419E+02  0.16122011629E+02  0.26000000000E-02 0.  1.
          2   -1    0    0  501    0  0.00000000000E+00 -0.00000000000E+00 -0.90363701720E+02  0.90363701758E+02  0.26000000000E-02 0. -1.
         23    2    1    2    0    0  0.00000000000E+00  0.00000000000E+00 -0.74241690301E+02  0.10648571339E+03  0.76337268596E+02 0.  0.
        -11    1    3    3    0    0  0.35938039294E+00  0.30645781848E+02 -0.68855335845E+02  0.75368099179E+02  0.51100000000E-03 0. -1.
         11    1    3    3    0    0 -0.35938039294E+00 -0.30645781848E+02 -0.53863544569E+01  0.31117614207E+02  0.51100000000E-03 0.  1.
<mgrwt>
<rscale>  0 0.76337269E+02</rscale>
<asrwt>0</asrwt>
<pdfrwt beam="2">  1        2 0.13902108E-01 0.76337269E+02</pdfrwt>
<pdfrwt beam="1">  1       -2 0.24803095E-02 0.76337269E+02</pdfrwt>
<totfact> 0.19316548E+05</totfact>
</mgrwt>
</event>
<event>
 5    1  0.2809073E+000  0.1114754E+03  0.7818608E-02  0.1257862E+00
         -2   -1    0    0    0  501 -0.00000000000E+00  0.00000000000E+00  0.56344136531E+02  0.56344136591E+02  0.26000000000E-02 0.  1.
          2   -1    0    0  501    0  0.00000000000E+00 -0.00000000000E+00 -0.55137832510E+02  0.55137832571E+02  0.26000000000E-02 0. -1.
         23    2    1    2    0    0  0.00000000000E+00  0.00000000000E+00  0.12063040217E+01  0.11148196916E+03  0.11147544249E+03 0.  0.
        -11    1    3    3    0    0 -0.25500227668E+02 -0.48795960771E+02  0.92861813455E+01  0.55834940342E+02  0.51100000000E-03 0.  1.
         11    1    3    3    0    0  0.25500227668E+02  0.48795960771E+02 -0.80798773238E+01  0.55647028820E+02  0.51100000000E-03 0. -1.
<mgrwt>
<rscale>  0 0.11147544E+03</rscale>
<asrwt>0</asrwt>
<pdfrwt beam="2">  1        2 0.84827435E-02 0.11147544E+03</pdfrwt>
<pdfrwt beam="1">  1       -2 0.86683287E-02 0.11147544E+03</pdfrwt>
<totfact> 0.57976060E+04</totfact>
</mgrwt>
</event>
<event>
 5    1  0.2809073E+000  0.9179928E+02  0.7818608E-02  0.1298552E+00
          2   -1    0    0  501    0  0.00000000000E+00  0.00000000000E+00  0.21038830055E+03  0.21038830056E+03  0.26000000000E-02 0. -1.
         -2   -1    0    0    0  501 -0.00000000000E+00 -0.00000000000E+00 -0.10013754936E+02  0.10013755274E+02  0.26000000000E-02 0.  1.
         23    2    1    2    0    0  0.00000000000E+00  0.00000000000E+00  0.20037454561E+03  0.22040205584E+03  0.91799279346E+02 0.  0.
        -11    1    3    3    0    0  0.18379797418E+02 -0.34257802606E+02  0.41604858752E+02  0.56941884976E+02  0.51100000000E-03 0.  1.
         11    1    3    3    0    0 -0.18379797418E+02  0.34257802606E+02  0.15876968686E+03  0.16346017086E+03  0.51100000000E-03 0. -1.
<mgrwt>
<rscale>  0 0.91799279E+02</rscale>
<asrwt>0</asrwt>
<pdfrwt beam="1">  1        2 0.32367430E-01 0.91799279E+02</pdfrwt>
<pdfrwt beam="2">  1       -2 0.15405778E-02 0.91799279E+02</pdfrwt>
<totfact> 0.15468926E+05</totfact>
</mgrwt>
</event>
<event>
 5    1  0.2809073E+000  0.8987121E+02  0.7818608E-02  0.1303164E+00
         -2   -1    0    0    0  501 -0.00000000000E+00  0.00000000000E+00  0.10183877632E+02  0.10183877964E+02  0.26000000000E-02 0.  1.
          2   -1    0    0  501    0  0.00000000000E+00 -0.00000000000E+00 -0.19827503133E+03  0.19827503135E+03  0.26000000000E-02 0. -1.
         23    2    1    2    0    0  0.00000000000E+00  0.00000000000E+00 -0.18809115370E+03  0.20845890931E+03  0.89871212141E+02 0.  0.
        -11    1    3    3    0    0  0.26565157121E+02  0.20975119746E+02 -0.25490026730E+02  0.42372215946E+02  0.51100000000E-03 0.  1.
         11    1    3    3    0    0 -0.26565157121E+02 -0.20975119746E+02 -0.16260112697E+03  0.16608669337E+03  0.51100000000E-03 0. -1.
<mgrwt>
<rscale>  0 0.89871212E+02</rscale>
<asrwt>0</asrwt>
<pdfrwt beam="2">  1        2 0.30503848E-01 0.89871212E+02</pdfrwt>
<pdfrwt beam="1">  1       -2 0.15667506E-02 0.89871212E+02</pdfrwt>
<totfact> 0.16029396E+05</totfact>
</mgrwt>
</event>
<event>
 5    1  0.2809073E+000  0.9032900E+02  0.7818608E-02  0.1302057E+00
         -2   -1    0    0    0  501 -0.00000000000E+00  0.00000000000E+00  0.16942290117E+02  0.16942290316E+02  0.26000000000E-02 0. -1.
          2   -1    0    0  501    0  0.00000000000E+00 -0.00000000000E+00 -0.12039883799E+03  0.12039883802E+03  0.26000000000E-02 0.  1.
         23    2    1    2    0    0  0.00000000000E+00  0.00000000000E+00 -0.10345654787E+03  0.13734112833E+03  0.90328999962E+02 0.  0.
        -11    1    3    3    0    0  0.57355456513E+01 -0.21865200149E+02 -0.11117879267E+03  0.11345354732E+03  0.51100000000E-03 0.  1.
         11    1    3    3    0    0 -0.57355456513E+01  0.21865200149E+02  0.77222447954E+01  0.23887581008E+02  0.51100000000E-03 0. -1.
<mgrwt>
<rscale>  0 0.90329000E+02</rscale>
<asrwt>0</asrwt>
<pdfrwt beam="2">  1        2 0.18522898E-01 0.90329000E+02</pdfrwt>
<pdfrwt beam="1">  1       -2 0.26065063E-02 0.90329000E+02</pdfrwt>
<totfact> 0.13336083E+05</totfact>
</mgrwt>
</event>
<event>
 4    1  0.2809073E+000  0.3165191E+02  0.7818608E-02  0.1580515E+00
         -2   -1    0    0    0  501 -0.00000000000E+00  0.00000000000E+00  0.19872750657E+02  0.19872750827E+02  0.26000000000E-02 0. -1.
          2   -1    0    0  501    0  0.00000000000E+00 -0.00000000000E+00 -0.12603227764E+02  0.12603228032E+02  0.26000000000E-02 0.  1.
        -11    1    1    2    0    0 -0.10403202617E+02 -0.53634069995E+00  0.15859082415E+02  0.18974318995E+02  0.51100000000E-03 0. -1.
         11    1    1    2    0    0  0.10403202617E+02  0.53634069995E+00 -0.85895595220E+01  0.13501659864E+02  0.51100000000E-03 0.  1.
<mgrwt>
<rscale>  0 0.31651907E+02</rscale>
<asrwt>0</asrwt>
<pdfrwt beam="2">  1        2 0.19389582E-02 0.31651907E+02</pdfrwt>
<pdfrwt beam="1">  1       -2 0.30573463E-02 0.31651907E+02</pdfrwt>
<totfact> 0.13468748E+06</totfact>
</mgrwt>
</event>
<event>
 5    1  0.2809073E+000  0.9253731E+02  0.7818608E-02  0.1296821E+00
         -2   -1    0    0    0  501 -0.00000000000E+00  0.00000000000E+00  0.10277350934E+02  0.10277351263E+02  0.26000000000E-02 0.  1.
          2   -1    0    0  501    0  0.00000000000E+00 -0.00000000000E+00 -0.20830155572E+03  0.20830155573E+03  0.26000000000E-02 0. -1.
         23    2    1    2    0    0  0.00000000000E+00  0.00000000000E+00 -0.19802420478E+03  0.21857890699E+03  0.92537305469E+02 0.  0.
        -11    1    3    3    0    0  0.42970428913E+02 -0.14432407519E+02 -0.77102640942E+02  0.89440311875E+02  0.51100000000E-03 0.  1.
         11    1    3    3    0    0 -0.42970428913E+02  0.14432407519E+02 -0.12092156384E+03  0.12913859512E+03  0.51100000000E-03 0. -1.
<mgrwt>
<rscale>  0 0.92537305E+02</rscale>
<asrwt>0</asrwt>
<pdfrwt beam="2">  1        2 0.32046390E-01 0.92537305E+02</pdfrwt>
<pdfrwt beam="1">  1       -2 0.15811311E-02 0.92537305E+02</pdfrwt>
<totfact> 0.15083779E+05</totfact>
</mgrwt>
</event>
<event>
 5    1  0.2809073E+000  0.9546837E+02  0.7818608E-02  0.1290125E+00
          2   -1    0    0  501    0  0.00000000000E+00  0.00000000000E+00  0.17317642054E+02  0.17317642250E+02  0.26000000000E-02 0. -1.
         -2   -1    0    0    0  501 -0.00000000000E+00 -0.00000000000E+00 -0.13157404459E+03  0.13157404461E+03  0.26000000000E-02 0.  1.
         23    2    1    2    0    0  0.00000000000E+00  0.00000000000E+00 -0.11425640253E+03  0.14889168686E+03  0.95468365949E+02 0.  0.
        -11    1    3    3    0    0 -0.44221496223E+02 -0.53856790138E+01 -0.30386500409E+02  0.53924815011E+02  0.51100000000E-03 0.  1.
         11    1    3    3    0    0  0.44221496223E+02  0.53856790138E+01 -0.83869902124E+02  0.94966871851E+02  0.51100000000E-03 0. -1.
<mgrwt>
<rscale>  0 0.95468366E+02</rscale>
<asrwt>0</asrwt>
<pdfrwt beam="1">  1        2 0.26642527E-02 0.95468366E+02</pdfrwt>
<pdfrwt beam="2">  1       -2 0.20242160E-01 0.95468366E+02</pdfrwt>
<totfact> 0.65140145E+04</totfact>
</mgrwt>
</event>
<event>
 5    1  0.2809073E+000  0.9093587E+02  0.7818608E-02  0.1300601E+00
         -2   -1    0    0    0  501 -0.00000000000E+00  0.00000000000E+00  0.15040844921E+02  0.15040845146E+02  0.26000000000E-02 0.  1.
          2   -1    0    0  501    0  0.00000000000E+00 -0.00000000000E+00 -0.13744792849E+03  0.13744792851E+03  0.26000000000E-02 0. -1.
         23    2    1    2    0    0  0.00000000000E+00  0.00000000000E+00 -0.12240708357E+03  0.15248877366E+03  0.90935867425E+02 0.  0.
        -11    1    3    3    0    0  0.42080568295E+02 -0.10896498795E+02 -0.38842132711E+02  0.58294246610E+02  0.51100000000E-03 0.  1.
         11    1    3    3    0    0 -0.42080568295E+02  0.10896498795E+02 -0.83564950855E+02  0.94194527047E+02  0.51100000000E-03 0. -1.
<mgrwt>
<rscale>  0 0.90935867E+02</rscale>
<asrwt>0</asrwt>
<pdfrwt beam="2">  1        2 0.21145834E-01 0.90935867E+02</pdfrwt>
<pdfrwt beam="1">  1       -2 0.23139762E-02 0.90935867E+02</pdfrwt>
<totfact> 0.13673878E+05</totfact>
</mgrwt>
</event>
<event>
 5    1  0.2809073E+000  0.8964666E+02  0.7818608E-02  0.1303710E+00
          2   -1    0    0  501    0  0.00000000000E+00  0.00000000000E+00  0.11106230725E+03  0.11106230728E+03  0.26000000000E-02 0. -1.
         -2   -1    0    0    0  501 -0.00000000000E+00 -0.00000000000E+00 -0.18090124207E+02  0.18090124394E+02  0.26000000000E-02 0.  1.
         23    2    1    2    0    0  0.00000000000E+00  0.00000000000E+00  0.92972183045E+02  0.12915243168E+03  0.89646660774E+02 0.  0.
        -11    1    3    3    0    0  0.10440797658E+02 -0.25070481094E+02 -0.48877813984E+01  0.27594015388E+02  0.51100000000E-03 0.  1.
         11    1    3    3    0    0 -0.10440797658E+02  0.25070481094E+02  0.97859964443E+02  0.10155841629E+03  0.51100000000E-03 0. -1.
<mgrwt>
<rscale>  0 0.89646661E+02</rscale>
<asrwt>0</asrwt>
<pdfrwt beam="1">  1        2 0.17086508E-01 0.89646661E+02</pdfrwt>
<pdfrwt beam="2">  1       -2 0.27830961E-02 0.89646661E+02</pdfrwt>
<totfact> 0.13272507E+05</totfact>
</mgrwt>
</event>
<event>
 5    1  0.2809073E+000  0.9227599E+02  0.7818608E-02  0.1297432E+00
         -2   -1    0    0    0  501 -0.00000000000E+00  0.00000000000E+00  0.18598792611E+02  0.18598792793E+02  0.26000000000E-02 0.  1.
          2   -1    0    0  501    0  0.00000000000E+00 -0.00000000000E+00 -0.11445446025E+03  0.11445446028E+03  0.26000000000E-02 0. -1.
         23    2    1    2    0    0  0.00000000000E+00  0.00000000000E+00 -0.95855667637E+02  0.13305325307E+03  0.92275994356E+02 0.  0.
        -11    1    3    3    0    0 -0.23947906221E+02 -0.39223481965E+02 -0.53825743910E+02  0.70775662890E+02  0.51100000000E-03 0. -1.
         11    1    3    3    0    0  0.23947906221E+02  0.39223481965E+02 -0.42029923727E+02  0.62277590180E+02  0.51100000000E-03 0.  1.
<mgrwt>
<rscale>  0 0.92275994E+02</rscale>
<asrwt>0</asrwt>
<pdfrwt beam="2">  1        2 0.17608378E-01 0.92275994E+02</pdfrwt>
<pdfrwt beam="1">  1       -2 0.28613528E-02 0.92275994E+02</pdfrwt>
<totfact> 0.12378715E+05</totfact>
</mgrwt>
</event>
<event>
 5    1  0.2809073E+000  0.9243891E+02  0.7818608E-02  0.1297051E+00
         -2   -1    0    0    0  501 -0.00000000000E+00  0.00000000000E+00  0.37891406386E+02  0.37891406476E+02  0.26000000000E-02 0.  1.
          2   -1    0    0  501    0  0.00000000000E+00 -0.00000000000E+00 -0.56377898890E+02  0.56377898950E+02  0.26000000000E-02 0. -1.
         23    2    1    2    0    0  0.00000000000E+00  0.00000000000E+00 -0.18486492504E+02  0.94269305426E+02  0.92438907070E+02 0.  0.
        -11    1    3    3    0    0 -0.90730618345E+01  0.42293512121E+02  0.73634342713E+01  0.43878033036E+02  0.51100000000E-03 0.  1.
         11    1    3    3    0    0  0.90730618345E+01 -0.42293512121E+02 -0.25849926775E+02  0.50391272390E+02  0.51100000000E-03 0. -1.
<mgrwt>
<rscale>  0 0.92438907E+02</rscale>
<asrwt>0</asrwt>
<pdfrwt beam="2">  1        2 0.86735230E-02 0.92438907E+02</pdfrwt>
<pdfrwt beam="1">  1       -2 0.58294471E-02 0.92438907E+02</pdfrwt>
<totfact> 0.10033155E+05</totfact>
</mgrwt>
</event>
<event>
 5    1  0.2809073E+000  0.8988626E+02  0.7818608E-02  0.1303127E+00
          2   -1    0    0  501    0  0.00000000000E+00  0.00000000000E+00  0.75693600622E+02  0.75693600667E+02  0.26000000000E-02 0.  1.
         -2   -1    0    0    0  501 -0.00000000000E+00 -0.00000000000E+00 -0.26685015125E+02  0.26685015252E+02  0.26000000000E-02 0. -1.
         23    2    1    2    0    0  0.00000000000E+00  0.00000000000E+00  0.49008585497E+02  0.10237861592E+03  0.89886258933E+02 0.  0.
        -11    1    3    3    0    0  0.17995960059E+02  0.27551282566E+02  0.59368180142E+02  0.67878631123E+02  0.51100000000E-03 0.  1.
         11    1    3    3    0    0 -0.17995960059E+02 -0.27551282566E+02 -0.10359594645E+02  0.34499984796E+02  0.51100000000E-03 0. -1.
<mgrwt>
<rscale>  0 0.89886259E+02</rscale>
<asrwt>0</asrwt>
<pdfrwt beam="1">  1        2 0.11645169E-01 0.89886259E+02</pdfrwt>
<pdfrwt beam="2">  1       -2 0.41053870E-02 0.89886259E+02</pdfrwt>
<totfact> 0.11763757E+05</totfact>
</mgrwt>
</event>
<event>
 5    1  0.2809073E+000  0.9038443E+02  0.7818608E-02  0.1301923E+00
         -2   -1    0    0    0  501 -0.00000000000E+00  0.00000000000E+00  0.10719369917E+02  0.10719370232E+02  0.26000000000E-02 0.  1.
          2   -1    0    0  501    0  0.00000000000E+00 -0.00000000000E+00 -0.19052763332E+03  0.19052763334E+03  0.26000000000E-02 0. -1.
         23    2    1    2    0    0  0.00000000000E+00  0.00000000000E+00 -0.17980826340E+03  0.20124700357E+03  0.90384428183E+02 0.  0.
        -11    1    3    3    0    0  0.10834557063E+02 -0.34256984897E+02 -0.15093837884E+03  0.15515580185E+03  0.51100000000E-03 0. -1.
         11    1    3    3    0    0 -0.10834557063E+02  0.34256984897E+02 -0.28869884564E+02  0.46091201720E+02  0.51100000000E-03 0.  1.
<mgrwt>
<rscale>  0 0.90384428E+02</rscale>
<asrwt>0</asrwt>
<pdfrwt beam="2">  1        2 0.29311941E-01 0.90384428E+02</pdfrwt>
<pdfrwt beam="1">  1       -2 0.16491340E-02 0.90384428E+02</pdfrwt>
<totfact> 0.15561477E+05</totfact>
</mgrwt>
</event>
<event>
 5    1  0.2809073E+000  0.8926415E+02  0.7818608E-02  0.1304644E+00
         -2   -1    0    0    0  501 -0.00000000000E+00  0.00000000000E+00  0.53568436872E+02  0.53568436935E+02  0.26000000000E-02 0.  1.
          2   -1    0    0  501    0  0.00000000000E+00 -0.00000000000E+00 -0.37186487908E+02  0.37186487999E+02  0.26000000000E-02 0. -1.
         23    2    1    2    0    0  0.00000000000E+00  0.00000000000E+00  0.16381948964E+02  0.90754924934E+02  0.89264148166E+02 0.  0.
        -11    1    3    3    0    0 -0.12379636765E+02  0.27472160967E+02 -0.25283764040E+02  0.39335019498E+02  0.51100000000E-03 0. -1.
         11    1    3    3    0    0  0.12379636765E+02 -0.27472160967E+02  0.41665713004E+02  0.51419905436E+02  0.51100000000E-03 0.  1.
<mgrwt>
<rscale>  0 0.89264148E+02</rscale>
<asrwt>0</asrwt>
<pdfrwt beam="2">  1        2 0.57209982E-02 0.89264148E+02</pdfrwt>
<pdfrwt beam="1">  1       -2 0.82412980E-02 0.89264148E+02</pdfrwt>
<totfact> 0.99545964E+04</totfact>
</mgrwt>
</event>
<event>
 5    1  0.2809073E+000  0.9138619E+02  0.7818608E-02  0.1299529E+00
         -2   -1    0    0    0  501 -0.00000000000E+00  0.00000000000E+00  0.42898451883E+02  0.42898451962E+02  0.26000000000E-02 0.  1.
          2   -1    0    0  501    0  0.00000000000E+00 -0.00000000000E+00 -0.48669798381E+02  0.48669798450E+02  0.26000000000E-02 0. -1.
         23    2    1    2    0    0  0.00000000000E+00  0.00000000000E+00 -0.57713464980E+01  0.91568250412E+02  0.91386191753E+02 0.  0.
        -11    1    3    3    0    0  0.13583467730E+02 -0.99128607991E+01 -0.45456589481E+02  0.48467276923E+02  0.51100000000E-03 0. -1.
         11    1    3    3    0    0 -0.13583467730E+02  0.99128607991E+01  0.39685242983E+02  0.43100973489E+02  0.51100000000E-03 0.  1.
<mgrwt>
<rscale>  0 0.91386192E+02</rscale>
<asrwt>0</asrwt>
<pdfrwt beam="2">  1        2 0.74876614E-02 0.91386192E+02</pdfrwt>
<pdfrwt beam="1">  1       -2 0.65997618E-02 0.91386192E+02</pdfrwt>
<totfact> 0.99711532E+04</totfact>
</mgrwt>
</event>
<event>
 5    1  0.2809073E+000  0.9089690E+02  0.7818608E-02  0.1300694E+00
         -2   -1    0    0    0  501 -0.00000000000E+00  0.00000000000E+00  0.21558004752E+02  0.21558004909E+02  0.26000000000E-02 0.  1.
          2   -1    0    0  501    0  0.00000000000E+00 -0.00000000000E+00 -0.95814140840E+02  0.95814140876E+02  0.26000000000E-02 0. -1.
         23    2    1    2    0    0  0.00000000000E+00  0.00000000000E+00 -0.74256136088E+02  0.11737214578E+03  0.90896902363E+02 0.  0.
        -11    1    3    3    0    0  0.24353597195E+02 -0.34929791108E+02 -0.16614650584E+02  0.45708146073E+02  0.51100000000E-03 0.  1.
         11    1    3    3    0    0 -0.24353597195E+02  0.34929791108E+02 -0.57641485505E+02  0.71663999711E+02  0.51100000000E-03 0. -1.
<mgrwt>
<rscale>  0 0.90896902E+02</rscale>
<asrwt>0</asrwt>
<pdfrwt beam="2">  1        2 0.14740637E-01 0.90896902E+02</pdfrwt>
<pdfrwt beam="1">  1       -2 0.33166162E-02 0.90896902E+02</pdfrwt>
<totfact> 0.12212968E+05</totfact>
</mgrwt>
</event>
<event>
 5    1  0.2809073E+000  0.9120474E+02  0.7818608E-02  0.1299960E+00
         -2   -1    0    0    0  501 -0.00000000000E+00  0.00000000000E+00  0.14348904189E+03  0.14348904192E+03  0.26000000000E-02 0.  1.
          2   -1    0    0  501    0  0.00000000000E+00 -0.00000000000E+00 -0.14492926582E+02  0.14492926815E+02  0.26000000000E-02 0. -1.
         23    2    1    2    0    0  0.00000000000E+00  0.00000000000E+00  0.12899611531E+03  0.15798196873E+03  0.91204740441E+02 0.  0.
        -11    1    3    3    0    0 -0.13402700829E+02 -0.34491023003E+02  0.11066329001E+03  0.11668601807E+03  0.51100000000E-03 0.  1.
         11    1    3    3    0    0  0.13402700829E+02  0.34491023003E+02  0.18332825308E+02  0.41295950666E+02  0.51100000000E-03 0. -1.
<mgrwt>
<rscale>  0 0.91204740E+02</rscale>
<asrwt>0</asrwt>
<pdfrwt beam="2">  1        2 0.22296810E-02 0.91204740E+02</pdfrwt>
<pdfrwt beam="1">  1       -2 0.22075238E-01 0.91204740E+02</pdfrwt>
<totfact> 0.70925470E+04</totfact>
</mgrwt>
</event>
<event>
 5    1  0.2809073E+000  0.9402908E+02  0.7818608E-02  0.1293378E+00
          2   -1    0    0  501    0  0.00000000000E+00  0.00000000000E+00  0.30568770842E+02  0.30568770952E+02  0.26000000000E-02 0. -1.
         -2   -1    0    0    0  501 -0.00000000000E+00 -0.00000000000E+00 -0.72308015639E+02  0.72308015685E+02  0.26000000000E-02 0.  1.
         23    2    1    2    0    0  0.00000000000E+00  0.00000000000E+00 -0.41739244797E+02  0.10287678664E+03  0.94029084185E+02 0.  0.
        -11    1    3    3    0    0  0.41114792206E+02  0.20471859342E+02 -0.31856650280E+02  0.55896058272E+02  0.51100000000E-03 0. -1.
         11    1    3    3    0    0 -0.41114792206E+02 -0.20471859342E+02 -0.98825945173E+01  0.46980728365E+02  0.51100000000E-03 0.  1.
<mgrwt>
<rscale>  0 0.94029084E+02</rscale>
<asrwt>0</asrwt>
<pdfrwt beam="1">  1        2 0.47028879E-02 0.94029084E+02</pdfrwt>
<pdfrwt beam="2">  1       -2 0.11124310E-01 0.94029084E+02</pdfrwt>
<totfact> 0.81120429E+04</totfact>
</mgrwt>
</event>
<event>
 5    1  0.2809073E+000  0.9579570E+02  0.7818608E-02  0.1289394E+00
          2   -1    0    0  501    0  0.00000000000E+00  0.00000000000E+00  0.28743186234E+02  0.28743186352E+02  0.26000000000E-02 0. -1.
         -2   -1    0    0    0  501 -0.00000000000E+00 -0.00000000000E+00 -0.79817316782E+02  0.79817316824E+02  0.26000000000E-02 0.  1.
         23    2    1    2    0    0  0.00000000000E+00  0.00000000000E+00 -0.51074130547E+02  0.10856050318E+03  0.95795699479E+02 0.  0.
        -11    1    3    3    0    0 -0.12616046974E+01  0.46226438570E+02 -0.11395085242E+02  0.47626917150E+02  0.51100000000E-03 0.  1.
         11    1    3    3    0    0  0.12616046974E+01 -0.46226438570E+02 -0.39679045306E+02  0.60933586026E+02  0.51100000000E-03 0. -1.
<mgrwt>
<rscale>  0 0.95795699E+02</rscale>
<asrwt>0</asrwt>
<pdfrwt beam="1">  1        2 0.44220287E-02 0.95795699E+02</pdfrwt>
<pdfrwt beam="2">  1       -2 0.12279587E-01 0.95795699E+02</pdfrwt>
<totfact> 0.75402418E+04</totfact>
</mgrwt>
</event>
<event>
 5    1  0.2809073E+000  0.9271438E+02  0.7818608E-02  0.1296408E+00
         -2   -1    0    0    0  501 -0.00000000000E+00  0.00000000000E+00  0.18813873539E+02  0.18813873718E+02  0.26000000000E-02 0.  1.
          2   -1    0    0  501    0  0.00000000000E+00 -0.00000000000E+00 -0.11422364187E+03  0.11422364190E+03  0.26000000000E-02 0. -1.
         23    2    1    2    0    0  0.00000000000E+00  0.00000000000E+00 -0.95409768333E+02  0.13303751562E+03  0.92714382212E+02 0.  0.
        -11    1    3    3    0    0 -0.17953315429E+01  0.46109212897E+02 -0.54074761653E+02  0.71087007093E+02  0.51100000000E-03 0.  1.
         11    1    3    3    0    0  0.17953315429E+01 -0.46109212897E+02 -0.41335006680E+02  0.61950508528E+02  0.51100000000E-03 0. -1.
<mgrwt>
<rscale>  0 0.92714382E+02</rscale>
<asrwt>0</asrwt>
<pdfrwt beam="2">  1        2 0.17572868E-01 0.92714382E+02</pdfrwt>
<pdfrwt beam="1">  1       -2 0.28944422E-02 0.92714382E+02</pdfrwt>
<totfact> 0.12210796E+05</totfact>
</mgrwt>
</event>
<event>
 5    1  0.2809073E+000  0.9120012E+02  0.7818608E-02  0.1299971E+00
         -2   -1    0    0    0  501 -0.00000000000E+00  0.00000000000E+00  0.43552008236E+01  0.43552015997E+01  0.26000000000E-02 0.  1.
          2   -1    0    0  501    0  0.00000000000E+00 -0.00000000000E+00 -0.47744423012E+03  0.47744423012E+03  0.26000000000E-02 0. -1.
         23    2    1    2    0    0  0.00000000000E+00  0.00000000000E+00 -0.47308902929E+03  0.48179943172E+03  0.91200124844E+02 0.  0.
        -11    1    3    3    0    0  0.19524185334E+02 -0.40946373199E+02 -0.21201100426E+03  0.21680974429E+03  0.51100000000E-03 0.  1.
         11    1    3    3    0    0 -0.19524185334E+02  0.40946373199E+02 -0.26107802503E+03  0.26498968743E+03  0.51100000000E-03 0. -1.
<mgrwt>
<rscale>  0 0.91200125E+02</rscale>
<asrwt>0</asrwt>
<pdfrwt beam="2">  1        2 0.73452917E-01 0.91200125E+02</pdfrwt>
<pdfrwt beam="1">  1       -2 0.67003133E-03 0.91200125E+02</pdfrwt>
<totfact> 0.21210328E+05</totfact>
</mgrwt>
</event>
<event>
 5    1  0.2809073E+000  0.9202564E+02  0.7818608E-02  0.1298019E+00
         -2   -1    0    0    0  501 -0.00000000000E+00  0.00000000000E+00  0.89269386446E+01  0.89269390232E+01  0.26000000000E-02 0.  1.
          2   -1    0    0  501    0  0.00000000000E+00 -0.00000000000E+00 -0.23716747452E+03  0.23716747454E+03  0.26000000000E-02 0. -1.
         23    2    1    2    0    0  0.00000000000E+00  0.00000000000E+00 -0.22824053588E+03  0.24609441356E+03  0.92025638643E+02 0.  0.
        -11    1    3    3    0    0  0.13116184009E+02 -0.40586421627E+02 -0.67965225392E+02  0.80240661552E+02  0.51100000000E-03 0.  1.
         11    1    3    3    0    0 -0.13116184009E+02  0.40586421627E+02 -0.16027531049E+03  0.16585375201E+03  0.51100000000E-03 0. -1.
<mgrwt>
<rscale>  0 0.92025639E+02</rscale>
<asrwt>0</asrwt>
<pdfrwt beam="2">  1        2 0.36487299E-01 0.92025639E+02</pdfrwt>
<pdfrwt beam="1">  1       -2 0.13733754E-02 0.92025639E+02</pdfrwt>
<totfact> 0.16057970E+05</totfact>
</mgrwt>
</event>
<event>
 5    1  0.2809073E+000  0.8888225E+02  0.7818608E-02  0.1305581E+00
          2   -1    0    0  501    0  0.00000000000E+00  0.00000000000E+00  0.17376077769E+02  0.17376077964E+02  0.26000000000E-02 0. -1.
         -2   -1    0    0    0  501 -0.00000000000E+00 -0.00000000000E+00 -0.11366280801E+03  0.11366280804E+03  0.26000000000E-02 0.  1.
         23    2    1    2    0    0  0.00000000000E+00  0.00000000000E+00 -0.96286730240E+02  0.13103888600E+03  0.88882254835E+02 0.  0.
        -11    1    3    3    0    0 -0.16937361817E+02  0.35775658384E+02 -0.18355190621E+02  0.43631238593E+02  0.51100000000E-03 0. -1.
         11    1    3    3    0    0  0.16937361817E+02 -0.35775658384E+02 -0.77931539619E+02  0.87407647410E+02  0.51100000000E-03 0.  1.
<mgrwt>
<rscale>  0 0.88882255E+02</rscale>
<asrwt>0</asrwt>
<pdfrwt beam="1">  1        2 0.26732428E-02 0.88882255E+02</pdfrwt>
<pdfrwt beam="2">  1       -2 0.17486585E-01 0.88882255E+02</pdfrwt>
<totfact> 0.81786319E+04</totfact>
</mgrwt>
</event>
<event>
 5    1  0.2809073E+000  0.9071037E+02  0.7818608E-02  0.1301141E+00
         -2   -1    0    0    0  501 -0.00000000000E+00  0.00000000000E+00  0.51057191390E+02  0.51057191456E+02  0.26000000000E-02 0.  1.
          2   -1    0    0  501    0  0.00000000000E+00 -0.00000000000E+00 -0.40289970198E+02  0.40289970282E+02  0.26000000000E-02 0. -1.
         23    2    1    2    0    0  0.00000000000E+00  0.00000000000E+00  0.10767221192E+02  0.91347161738E+02  0.90710368236E+02 0.  0.
        -11    1    3    3    0    0 -0.31025099942E+02  0.17503394337E+02 -0.22887786806E+02  0.42341190640E+02  0.51100000000E-03 0. -1.
         11    1    3    3    0    0  0.31025099942E+02 -0.17503394337E+02  0.33655007998E+02  0.49005971098E+02  0.51100000000E-03 0.  1.
<mgrwt>
<rscale>  0 0.90710368E+02</rscale>
<asrwt>0</asrwt>
<pdfrwt beam="2">  1        2 0.61984570E-02 0.90710368E+02</pdfrwt>
<pdfrwt beam="1">  1       -2 0.78549524E-02 0.90710368E+02</pdfrwt>
<totfact> 0.96995319E+04</totfact>
</mgrwt>
</event>
<event>
 5    1  0.2809073E+000  0.9040014E+02  0.7818608E-02  0.1301886E+00
          2   -1    0    0  501    0  0.00000000000E+00  0.00000000000E+00  0.36588169680E+03  0.36588169681E+03  0.26000000000E-02 0.  1.
         -2   -1    0    0    0  501 -0.00000000000E+00 -0.00000000000E+00 -0.55838987470E+01  0.55838993523E+01  0.26000000000E-02 0. -1.
         23    2    1    2    0    0  0.00000000000E+00  0.00000000000E+00  0.36029779805E+03  0.37146559616E+03  0.90400142974E+02 0.  0.
        -11    1    3    3    0    0  0.41522586684E+02  0.14586658869E+02  0.13781280482E+03  0.14466950264E+03  0.51100000000E-03 0.  1.
         11    1    3    3    0    0 -0.41522586684E+02 -0.14586658869E+02  0.22248499323E+03  0.22679609352E+03  0.51100000000E-03 0. -1.
<mgrwt>
<rscale>  0 0.90400143E+02</rscale>
<asrwt>0</asrwt>
<pdfrwt beam="1">  1        2 0.56289504E-01 0.90400143E+02</pdfrwt>
<pdfrwt beam="2">  1       -2 0.85906121E-03 0.90400143E+02</pdfrwt>
<totfact> 0.19774199E+05</totfact>
</mgrwt>
</event>
<event>
 5    1  0.2809073E+000  0.9097824E+02  0.7818608E-02  0.1300500E+00
         -2   -1    0    0    0  501 -0.00000000000E+00  0.00000000000E+00  0.11054176233E+03  0.11054176236E+03  0.26000000000E-02 0.  1.
          2   -1    0    0  501    0  0.00000000000E+00 -0.00000000000E+00 -0.18719259775E+02  0.18719259955E+02  0.26000000000E-02 0. -1.
         23    2    1    2    0    0  0.00000000000E+00  0.00000000000E+00  0.91822502553E+02  0.12926102231E+03  0.90978238687E+02 0.  0.
        -11    1    3    3    0    0  0.15685237897E+02  0.23413997346E+02  0.96643980092E+02  0.10066926466E+03  0.51100000000E-03 0.  1.
         11    1    3    3    0    0 -0.15685237897E+02 -0.23413997346E+02 -0.48214775396E+01  0.28591757650E+02  0.51100000000E-03 0. -1.
<mgrwt>
<rscale>  0 0.90978239E+02</rscale>
<asrwt>0</asrwt>
<pdfrwt beam="2">  1        2 0.28798862E-02 0.90978239E+02</pdfrwt>
<pdfrwt beam="1">  1       -2 0.17006425E-01 0.90978239E+02</pdfrwt>
<totfact> 0.77830044E+04</totfact>
</mgrwt>
</event>
<event>
 5    1  0.2809073E+000  0.8617030E+02  0.7818608E-02  0.1312400E+00
         -2   -1    0    0    0  501 -0.00000000000E+00  0.00000000000E+00  0.27780630958E+03  0.27780630959E+03  0.26000000000E-02 0. -1.
          2   -1    0    0  501    0  0.00000000000E+00 -0.00000000000E+00 -0.66821020145E+01  0.66821025203E+01  0.26000000000E-02 0.  1.
         23    2    1    2    0    0  0.00000000000E+00  0.00000000000E+00  0.27112420756E+03  0.28448841211E+03  0.86170300557E+02 0.  0.
        -11    1    3    3    0    0  0.73514858245E+01 -0.38710488713E+02  0.78019521694E+02  0.87404759858E+02  0.51100000000E-03 0.  1.
         11    1    3    3    0    0 -0.73514858245E+01  0.38710488713E+02  0.19310468587E+03  0.19708365225E+03  0.51100000000E-03 0. -1.
<mgrwt>
<rscale>  0 0.86170301E+02</rscale>
<asrwt>0</asrwt>
<pdfrwt beam="2">  1        2 0.10280158E-02 0.86170301E+02</pdfrwt>
<pdfrwt beam="1">  1       -2 0.42739429E-01 0.86170301E+02</pdfrwt>
<totfact> 0.61495848E+04</totfact>
</mgrwt>
</event>
<event>
 5    1  0.2809073E+000  0.9158332E+02  0.7818608E-02  0.1299062E+00
          2   -1    0    0  501    0  0.00000000000E+00  0.00000000000E+00  0.14631469381E+02  0.14631469612E+02  0.26000000000E-02 0. -1.
         -2   -1    0    0    0  501 -0.00000000000E+00 -0.00000000000E+00 -0.14331274419E+03  0.14331274421E+03  0.26000000000E-02 0.  1.
         23    2    1    2    0    0  0.00000000000E+00  0.00000000000E+00 -0.12868127481E+03  0.15794421382E+03  0.91583318319E+02 0.  0.
        -11    1    3    3    0    0 -0.25728460840E+02 -0.16131996355E+02 -0.52324929959E+01  0.30815158393E+02  0.51100000000E-03 0. -1.
         11    1    3    3    0    0  0.25728460840E+02  0.16131996355E+02 -0.12344878181E+03  0.12712905543E+03  0.51100000000E-03 0.  1.
<mgrwt>
<rscale>  0 0.91583318E+02</rscale>
<asrwt>0</asrwt>
<pdfrwt beam="1">  1        2 0.22509954E-02 0.91583318E+02</pdfrwt>
<pdfrwt beam="2">  1       -2 0.22048114E-01 0.91583318E+02</pdfrwt>
<totfact> 0.70216696E+04</totfact>
</mgrwt>
</event>
<event>
 5    1  0.2809073E+000  0.6816321E+02  0.7818608E-02  0.1366453E+00
          2   -1    0    0  501    0  0.00000000000E+00  0.00000000000E+00  0.12813618422E+02  0.12813618685E+02  0.26000000000E-02 0.  1.
         -2   -1    0    0    0  501 -0.00000000000E+00 -0.00000000000E+00 -0.90650094849E+02  0.90650094886E+02  0.26000000000E-02 0. -1.
         23    2    1    2    0    0  0.00000000000E+00  0.00000000000E+00 -0.77836476427E+02  0.10346371357E+03  0.68163208283E+02 0.  0.
        -11    1    3    3    0    0  0.14030016147E+02 -0.11646614423E+02  0.47870348588E+01  0.18852073722E+02  0.51100000000E-03 0.  1.
         11    1    3    3    0    0 -0.14030016147E+02  0.11646614423E+02 -0.82623511286E+02  0.84611639850E+02  0.51100000000E-03 0. -1.
<mgrwt>
<rscale>  0 0.68163208E+02</rscale>
<asrwt>0</asrwt>
<pdfrwt beam="1">  1        2 0.19713260E-02 0.68163208E+02</pdfrwt>
<pdfrwt beam="2">  1       -2 0.13946168E-01 0.68163208E+02</pdfrwt>
<totfact> 0.16884104E+05</totfact>
</mgrwt>
</event>
<event>
 5    1  0.2809073E+000  0.9243762E+02  0.7818608E-02  0.1297054E+00
          2   -1    0    0  501    0  0.00000000000E+00  0.00000000000E+00  0.33778348011E+03  0.33778348012E+03  0.26000000000E-02 0. -1.
         -2   -1    0    0    0  501 -0.00000000000E+00 -0.00000000000E+00 -0.63241051820E+01  0.63241057165E+01  0.26000000000E-02 0.  1.
         23    2    1    2    0    0  0.00000000000E+00  0.00000000000E+00  0.33145937493E+03  0.34410758584E+03  0.92437618980E+02 0.  0.
        -11    1    3    3    0    0 -0.40268401478E+02 -0.93583410174E+01  0.24265827003E+03  0.24615474547E+03  0.51100000000E-03 0. -1.
         11    1    3    3    0    0  0.40268401478E+02  0.93583410174E+01  0.88801104904E+02  0.97952840370E+02  0.51100000000E-03 0.  1.
<mgrwt>
<rscale>  0 0.92437619E+02</rscale>
<asrwt>0</asrwt>
<pdfrwt beam="1">  1        2 0.51966699E-01 0.92437619E+02</pdfrwt>
<pdfrwt beam="2">  1       -2 0.97293913E-03 0.92437619E+02</pdfrwt>
<totfact> 0.18098412E+05</totfact>
</mgrwt>
</event>
<event>
 5    1  0.2809073E+000  0.1018421E+03  0.7818608E-02  0.1276469E+00
          2   -1    0    0  501    0  0.00000000000E+00  0.00000000000E+00  0.11424438212E+03  0.11424438215E+03  0.26000000000E-02 0. -1.
         -2   -1    0    0    0  501 -0.00000000000E+00 -0.00000000000E+00 -0.22696541327E+02  0.22696541475E+02  0.26000000000E-02 0.  1.
         23    2    1    2    0    0  0.00000000000E+00  0.00000000000E+00  0.91547840798E+02  0.13694092363E+03  0.10184208074E+03 0.  0.
        -11    1    3    3    0    0 -0.13488431169E+02 -0.42679192850E+02  0.78421297028E+02  0.90295908576E+02  0.51100000000E-03 0. -1.
         11    1    3    3    0    0  0.13488431169E+02  0.42679192850E+02  0.13126543770E+02  0.46645015054E+02  0.51100000000E-03 0.  1.
<mgrwt>
<rscale>  0 0.10184208E+03</rscale>
<asrwt>0</asrwt>
<pdfrwt beam="1">  1        2 0.17576059E-01 0.10184208E+03</pdfrwt>
<pdfrwt beam="2">  1       -2 0.34917756E-02 0.10184208E+03</pdfrwt>
<totfact> 0.94185013E+04</totfact>
</mgrwt>
</event>
<event>
 5    1  0.2809073E+000  0.9074446E+02  0.7818608E-02  0.1301059E+00
          2   -1    0    0  501    0  0.00000000000E+00  0.00000000000E+00  0.31931396481E+02  0.31931396587E+02  0.26000000000E-02 0. -1.
         -2   -1    0    0    0  501 -0.00000000000E+00 -0.00000000000E+00 -0.64470692600E+02  0.64470692653E+02  0.26000000000E-02 0.  1.
         23    2    1    2    0    0  0.00000000000E+00  0.00000000000E+00 -0.32539296119E+02  0.96402089240E+02  0.90744459985E+02 0.  0.
        -11    1    3    3    0    0  0.33908976984E+02  0.52195137340E+01 -0.47812176474E+02  0.58847822926E+02  0.51100000000E-03 0.  1.
         11    1    3    3    0    0 -0.33908976984E+02 -0.52195137340E+01  0.15272880355E+02  0.37554266313E+02  0.51100000000E-03 0. -1.
<mgrwt>
<rscale>  0 0.90744460E+02</rscale>
<asrwt>0</asrwt>
<pdfrwt beam="1">  1        2 0.49125225E-02 0.90744460E+02</pdfrwt>
<pdfrwt beam="2">  1       -2 0.99185681E-02 0.90744460E+02</pdfrwt>
<totfact> 0.91213526E+04</totfact>
</mgrwt>
</event>
<event>
 5    1  0.2809073E+000  0.9128814E+02  0.7818608E-02  0.1299762E+00
          2   -1    0    0  501    0  0.00000000000E+00  0.00000000000E+00  0.43361288792E+02  0.43361288870E+02  0.26000000000E-02 0. -1.
         -2   -1    0    0    0  501 -0.00000000000E+00 -0.00000000000E+00 -0.48047031249E+02  0.48047031319E+02  0.26000000000E-02 0.  1.
         23    2    1    2    0    0  0.00000000000E+00  0.00000000000E+00 -0.46857424570E+01  0.91408320189E+02  0.91288141713E+02 0.  0.
        -11    1    3    3    0    0  0.68340237819E+01  0.11383815092E+02 -0.46070558580E+02  0.47945714044E+02  0.51100000000E-03 0.  1.
         11    1    3    3    0    0 -0.68340237819E+01 -0.11383815092E+02  0.41384816123E+02  0.43462606145E+02  0.51100000000E-03 0. -1.
<mgrwt>
<rscale>  0 0.91288142E+02</rscale>
<asrwt>0</asrwt>
<pdfrwt beam="1">  1        2 0.66709675E-02 0.91288142E+02</pdfrwt>
<pdfrwt beam="2">  1       -2 0.73918510E-02 0.91288142E+02</pdfrwt>
<totfact> 0.97059607E+04</totfact>
</mgrwt>
</event>
<event>
 5    1  0.2809073E+000  0.9156508E+02  0.7818608E-02  0.1299105E+00
          2   -1    0    0  501    0  0.00000000000E+00  0.00000000000E+00  0.74278746478E+02  0.74278746523E+02  0.26000000000E-02 0. -1.
         -2   -1    0    0    0  501 -0.00000000000E+00 -0.00000000000E+00 -0.28218584333E+02  0.28218584453E+02  0.26000000000E-02 0.  1.
         23    2    1    2    0    0  0.00000000000E+00  0.00000000000E+00  0.46060162145E+02  0.10249733098E+03  0.91565082430E+02 0.  0.
        -11    1    3    3    0    0  0.30849939573E+02 -0.31084655825E+02  0.80927243300E+01  0.44536129005E+02  0.51100000000E-03 0.  1.
         11    1    3    3    0    0 -0.30849939573E+02  0.31084655825E+02  0.37967437815E+02  0.57961201971E+02  0.51100000000E-03 0. -1.
<mgrwt>
<rscale>  0 0.91565082E+02</rscale>
<asrwt>0</asrwt>
<pdfrwt beam="1">  1        2 0.11427499E-01 0.91565082E+02</pdfrwt>
<pdfrwt beam="2">  1       -2 0.43413207E-02 0.91565082E+02</pdfrwt>
<totfact> 0.11113876E+05</totfact>
</mgrwt>
</event>
<event>
 5    1  0.2809073E+000  0.9704661E+02  0.7818608E-02  0.1286632E+00
          2   -1    0    0  501    0  0.00000000000E+00  0.00000000000E+00  0.33436542084E+03  0.33436542085E+03  0.26000000000E-02 0. -1.
         -2   -1    0    0    0  501 -0.00000000000E+00 -0.00000000000E+00 -0.70417304924E+01  0.70417309724E+01  0.26000000000E-02 0.  1.
         23    2    1    2    0    0  0.00000000000E+00  0.00000000000E+00  0.32732369035E+03  0.34140715182E+03  0.97046612784E+02 0.  0.
        -11    1    3    3    0    0 -0.37689584678E+02 -0.19559317789E+02  0.24627347515E+03  0.24990737538E+03  0.51100000000E-03 0. -1.
         11    1    3    3    0    0  0.37689584678E+02  0.19559317789E+02  0.81050215199E+02  0.91499776445E+02  0.51100000000E-03 0.  1.
<mgrwt>
<rscale>  0 0.97046613E+02</rscale>
<asrwt>0</asrwt>
<pdfrwt beam="1">  1        2 0.51440826E-01 0.97046613E+02</pdfrwt>
<pdfrwt beam="2">  1       -2 0.10833434E-02 0.97046613E+02</pdfrwt>
<totfact> 0.15829960E+05</totfact>
</mgrwt>
</event>
<event>
 5    1  0.2809073E+000  0.9240079E+02  0.7818608E-02  0.1297140E+00
          2   -1    0    0  501    0  0.00000000000E+00  0.00000000000E+00  0.28731939679E+02  0.28731939797E+02  0.26000000000E-02 0. -1.
         -2   -1    0    0    0  501 -0.00000000000E+00 -0.00000000000E+00 -0.74289321394E+02  0.74289321440E+02  0.26000000000E-02 0.  1.
         23    2    1    2    0    0  0.00000000000E+00  0.00000000000E+00 -0.45557381715E+02  0.10302126124E+03  0.92400785917E+02 0.  0.
        -11    1    3    3    0    0  0.27305142749E+02  0.35496856715E+02 -0.35436008816E+02  0.57107866167E+02  0.51100000000E-03 0.  1.
         11    1    3    3    0    0 -0.27305142749E+02 -0.35496856715E+02 -0.10121372899E+02  0.45913395069E+02  0.51100000000E-03 0. -1.
<mgrwt>
<rscale>  0 0.92400786E+02</rscale>
<asrwt>0</asrwt>
<pdfrwt beam="1">  1        2 0.44202985E-02 0.92400786E+02</pdfrwt>
<pdfrwt beam="2">  1       -2 0.11429126E-01 0.92400786E+02</pdfrwt>
<totfact> 0.84032271E+04</totfact>
</mgrwt>
</event>
<event>
 5    1  0.2809073E+000  0.8971610E+02  0.7818608E-02  0.1303541E+00
         -2   -1    0    0    0  501 -0.00000000000E+00  0.00000000000E+00  0.76424925709E+02  0.76424925753E+02  0.26000000000E-02 0.  1.
          2   -1    0    0  501    0  0.00000000000E+00 -0.00000000000E+00 -0.26329692598E+02  0.26329692727E+02  0.26000000000E-02 0. -1.
         23    2    1    2    0    0  0.00000000000E+00  0.00000000000E+00  0.50095233110E+02  0.10275461848E+03  0.89716103563E+02 0.  0.
        -11    1    3    3    0    0  0.32674837110E+02  0.10331881076E+01  0.60228710967E+02  0.68528899618E+02  0.51100000000E-03 0.  1.
         11    1    3    3    0    0 -0.32674837110E+02 -0.10331881076E+01 -0.10133477857E+02  0.34225718861E+02  0.51100000000E-03 0. -1.
<mgrwt>
<rscale>  0 0.89716104E+02</rscale>
<asrwt>0</asrwt>
<pdfrwt beam="2">  1        2 0.40507220E-02 0.89716104E+02</pdfrwt>
<pdfrwt beam="1">  1       -2 0.11757681E-01 0.89716104E+02</pdfrwt>
<totfact> 0.89628278E+04</totfact>
</mgrwt>
</event>
<event>
 5    1  0.2809073E+000  0.8479073E+02  0.7818608E-02  0.1315981E+00
         -2   -1    0    0    0  501 -0.00000000000E+00  0.00000000000E+00  0.13589041120E+02  0.13589041369E+02  0.26000000000E-02 0.  1.
          2   -1    0    0  501    0  0.00000000000E+00 -0.00000000000E+00 -0.13226592113E+03  0.13226592116E+03  0.26000000000E-02 0. -1.
         23    2    1    2    0    0  0.00000000000E+00  0.00000000000E+00 -0.11867688001E+03  0.14585496253E+03  0.84790732067E+02 0.  0.
        -11    1    3    3    0    0  0.28886655686E+02 -0.12060794186E+02 -0.10156288605E+02  0.32909752834E+02  0.51100000000E-03 0.  1.
         11    1    3    3    0    0 -0.28886655686E+02  0.12060794186E+02 -0.10852059141E+03  0.11294520970E+03  0.51100000000E-03 0. -1.
<mgrwt>
<rscale>  0 0.84790732E+02</rscale>
<asrwt>0</asrwt>
<pdfrwt beam="2">  1        2 0.20348602E-01 0.84790732E+02</pdfrwt>
<pdfrwt beam="1">  1       -2 0.20906218E-02 0.84790732E+02</pdfrwt>
<totfact> 0.16319198E+05</totfact>
</mgrwt>
</event>
<event>
 5    1  0.2809073E+000  0.9043935E+02  0.7818608E-02  0.1301791E+00
          2   -1    0    0  501    0  0.00000000000E+00  0.00000000000E+00  0.77091864578E+01  0.77091868962E+01  0.26000000000E-02 0. -1.
         -2   -1    0    0    0  501 -0.00000000000E+00 -0.00000000000E+00 -0.26524442984E+03  0.26524442985E+03  0.26000000000E-02 0.  1.
         23    2    1    2    0    0  0.00000000000E+00  0.00000000000E+00 -0.25753524338E+03  0.27295361675E+03  0.90439346041E+02 0.  0.
        -11    1    3    3    0    0 -0.39525531795E+02  0.10546812981E+02 -0.18692478474E+03  0.19134883872E+03  0.51100000000E-03 0.  1.
         11    1    3    3    0    0  0.39525531795E+02 -0.10546812981E+02 -0.70610458635E+02  0.81604778026E+02  0.51100000000E-03 0. -1.
<mgrwt>
<rscale>  0 0.90439346E+02</rscale>
<asrwt>0</asrwt>
<pdfrwt beam="1">  1        2 0.11860289E-02 0.90439346E+02</pdfrwt>
<pdfrwt beam="2">  1       -2 0.40806828E-01 0.90439346E+02</pdfrwt>
<totfact> 0.55658627E+04</totfact>
</mgrwt>
</event>
<event>
 5    1  0.2809073E+000  0.8972247E+02  0.7818608E-02  0.1303525E+00
          2   -1    0    0  501    0  0.00000000000E+00  0.00000000000E+00  0.20643451267E+03  0.20643451269E+03  0.26000000000E-02 0. -1.
         -2   -1    0    0    0  501 -0.00000000000E+00 -0.00000000000E+00 -0.97490023145E+01  0.97490026612E+01  0.26000000000E-02 0.  1.
         23    2    1    2    0    0  0.00000000000E+00  0.00000000000E+00  0.19668551036E+03  0.21618351535E+03  0.89722473908E+02 0.  0.
        -11    1    3    3    0    0 -0.31868494792E+02  0.23997691679E+02  0.48902212726E+02  0.63110352368E+02  0.51100000000E-03 0.  1.
         11    1    3    3    0    0  0.31868494792E+02 -0.23997691679E+02  0.14778329763E+03  0.15307316298E+03  0.51100000000E-03 0. -1.
<mgrwt>
<rscale>  0 0.89722474E+02</rscale>
<asrwt>0</asrwt>
<pdfrwt beam="1">  1        2 0.31759157E-01 0.89722474E+02</pdfrwt>
<pdfrwt beam="2">  1       -2 0.14998465E-02 0.89722474E+02</pdfrwt>
<totfact> 0.16337100E+05</totfact>
</mgrwt>
</event>
<event>
 5    1  0.2809073E+000  0.9123893E+02  0.7818608E-02  0.1299879E+00
          2   -1    0    0  501    0  0.00000000000E+00  0.00000000000E+00  0.11214184940E+03  0.11214184943E+03  0.26000000000E-02 0. -1.
         -2   -1    0    0    0  501 -0.00000000000E+00 -0.00000000000E+00 -0.18558064331E+02  0.18558064513E+02  0.26000000000E-02 0.  1.
         23    2    1    2    0    0  0.00000000000E+00  0.00000000000E+00  0.93583785067E+02  0.13069991394E+03  0.91238931804E+02 0.  0.
        -11    1    3    3    0    0  0.40869966346E+02 -0.15385993930E+02  0.27893037002E+02  0.51817993706E+02  0.51100000000E-03 0.  1.
         11    1    3    3    0    0 -0.40869966346E+02  0.15385993930E+02  0.65690748065E+02  0.78881920235E+02  0.51100000000E-03 0. -1.
<mgrwt>
<rscale>  0 0.91238932E+02</rscale>
<asrwt>0</asrwt>
<pdfrwt beam="1">  1        2 0.17252592E-01 0.91238932E+02</pdfrwt>
<pdfrwt beam="2">  1       -2 0.28550868E-02 0.91238932E+02</pdfrwt>
<totfact> 0.12686668E+05</totfact>
</mgrwt>
</event>
<event>
 5    1  0.2809073E+000  0.8947276E+02  0.7818608E-02  0.1304134E+00
         -2   -1    0    0    0  501 -0.00000000000E+00  0.00000000000E+00  0.14247379443E+03  0.14247379445E+03  0.26000000000E-02 0.  1.
          2   -1    0    0  501    0  0.00000000000E+00 -0.00000000000E+00 -0.14047099973E+02  0.14047100214E+02  0.26000000000E-02 0. -1.
         23    2    1    2    0    0  0.00000000000E+00  0.00000000000E+00  0.12842669446E+03  0.15652089467E+03  0.89472759086E+02 0.  0.
        -11    1    3    3    0    0  0.93317401844E+01 -0.41048300568E+02  0.37723292464E+02  0.56525137319E+02  0.51100000000E-03 0. -1.
         11    1    3    3    0    0 -0.93317401844E+01  0.41048300568E+02  0.90703401993E+02  0.99995757349E+02  0.51100000000E-03 0.  1.
<mgrwt>
<rscale>  0 0.89472759E+02</rscale>
<asrwt>0</asrwt>
<pdfrwt beam="2">  1        2 0.21610923E-02 0.89472759E+02</pdfrwt>
<pdfrwt beam="1">  1       -2 0.21919046E-01 0.89472759E+02</pdfrwt>
<totfact> 0.74630911E+04</totfact>
</mgrwt>
</event>
<event>
 5    1  0.2809073E+000  0.9232141E+02  0.7818608E-02  0.1297325E+00
          2   -1    0    0  501    0  0.00000000000E+00  0.00000000000E+00  0.74518360382E+02  0.74518360427E+02  0.26000000000E-02 0. -1.
         -2   -1    0    0    0  501 -0.00000000000E+00 -0.00000000000E+00 -0.28594437134E+02  0.28594437252E+02  0.26000000000E-02 0.  1.
         23    2    1    2    0    0  0.00000000000E+00  0.00000000000E+00  0.45923923248E+02  0.10311279768E+03  0.92321407695E+02 0.  0.
        -11    1    3    3    0    0  0.28550002247E+02  0.35202969626E+02  0.13195795209E+02  0.47206786697E+02  0.51100000000E-03 0.  1.
         11    1    3    3    0    0 -0.28550002247E+02 -0.35202969626E+02  0.32728128039E+02  0.55906010983E+02  0.51100000000E-03 0. -1.
<mgrwt>
<rscale>  0 0.92321408E+02</rscale>
<asrwt>0</asrwt>
<pdfrwt beam="1">  1        2 0.11464363E-01 0.92321408E+02</pdfrwt>
<pdfrwt beam="2">  1       -2 0.43991442E-02 0.92321408E+02</pdfrwt>
<totfact> 0.10871078E+05</totfact>
</mgrwt>
</event>
<event>
 5    1  0.2809073E+000  0.8073177E+02  0.7818608E-02  0.1326988E+00
         -2   -1    0    0    0  501 -0.00000000000E+00  0.00000000000E+00  0.83112499029E+01  0.83112503096E+01  0.26000000000E-02 0. -1.
          2   -1    0    0  501    0  0.00000000000E+00 -0.00000000000E+00 -0.19604806521E+03  0.19604806523E+03  0.26000000000E-02 0.  1.
         23    2    1    2    0    0  0.00000000000E+00  0.00000000000E+00 -0.18773681531E+03  0.20435931554E+03  0.80731765898E+02 0.  0.
        -11    1    3    3    0    0 -0.39241688398E+02 -0.25448296916E+01 -0.11693252011E+03  0.12336774508E+03  0.51100000000E-03 0.  1.
         11    1    3    3    0    0  0.39241688398E+02  0.25448296916E+01 -0.70804295194E+02  0.80991570455E+02  0.51100000000E-03 0. -1.
<mgrwt>
<rscale>  0 0.80731766E+02</rscale>
<asrwt>0</asrwt>
<pdfrwt beam="2">  1        2 0.30161237E-01 0.80731766E+02</pdfrwt>
<pdfrwt beam="1">  1       -2 0.12786540E-02 0.80731766E+02</pdfrwt>
<totfact> 0.21258814E+05</totfact>
</mgrwt>
</event>
<event>
 5    1  0.2809073E+000  0.9195846E+02  0.7818608E-02  0.1298177E+00
          2   -1    0    0  501    0  0.00000000000E+00  0.00000000000E+00  0.12615913421E+02  0.12615913688E+02  0.26000000000E-02 0. -1.
         -2   -1    0    0    0  501 -0.00000000000E+00 -0.00000000000E+00 -0.16757324572E+03  0.16757324574E+03  0.26000000000E-02 0.  1.
         23    2    1    2    0    0  0.00000000000E+00  0.00000000000E+00 -0.15495733230E+03  0.18018915943E+03  0.91958459873E+02 0.  0.
        -11    1    3    3    0    0 -0.12788596578E+02  0.25785664562E+02 -0.72205002994E+01  0.29674641096E+02  0.51100000000E-03 0. -1.
         11    1    3    3    0    0  0.12788596578E+02 -0.25785664562E+02 -0.14773683200E+03  0.15051451833E+03  0.51100000000E-03 0.  1.
<mgrwt>
<rscale>  0 0.91958460E+02</rscale>
<asrwt>0</asrwt>
<pdfrwt beam="1">  1        2 0.19409099E-02 0.91958460E+02</pdfrwt>
<pdfrwt beam="2">  1       -2 0.25780498E-01 0.91958460E+02</pdfrwt>
<totfact> 0.65569004E+04</totfact>
</mgrwt>
</event>
<event>
 5    1  0.2809073E+000  0.9152522E+02  0.7818608E-02  0.1299200E+00
         -2   -1    0    0    0  501 -0.00000000000E+00  0.00000000000E+00  0.44451553128E+02  0.44451553204E+02  0.26000000000E-02 0.  1.
          2   -1    0    0  501    0  0.00000000000E+00 -0.00000000000E+00 -0.47112334185E+02  0.47112334256E+02  0.26000000000E-02 0. -1.
         23    2    1    2    0    0  0.00000000000E+00  0.00000000000E+00 -0.26607810566E+01  0.91563887460E+02  0.91525219099E+02 0.  0.
        -11    1    3    3    0    0  0.35571739618E+02 -0.21364254778E+02  0.17976374027E+02  0.45220902966E+02  0.51100000000E-03 0.  1.
         11    1    3    3    0    0 -0.35571739618E+02  0.21364254778E+02 -0.20637155084E+02  0.46342984494E+02  0.51100000000E-03 0. -1.
<mgrwt>
<rscale>  0 0.91525219E+02</rscale>
<asrwt>0</asrwt>
<pdfrwt beam="2">  1        2 0.72480514E-02 0.91525219E+02</pdfrwt>
<pdfrwt beam="1">  1       -2 0.68387005E-02 0.91525219E+02</pdfrwt>
<totfact> 0.98438934E+04</totfact>
</mgrwt>
</event>
<event>
 5    1  0.2809073E+000  0.9077939E+02  0.7818608E-02  0.1300975E+00
         -2   -1    0    0    0  501 -0.00000000000E+00  0.00000000000E+00  0.19428587804E+02  0.19428587978E+02  0.26000000000E-02 0.  1.
          2   -1    0    0  501    0  0.00000000000E+00 -0.00000000000E+00 -0.10604087772E+03  0.10604087776E+03  0.26000000000E-02 0. -1.
         23    2    1    2    0    0  0.00000000000E+00  0.00000000000E+00 -0.86612289920E+02  0.12546946573E+03  0.90779392301E+02 0.  0.
        -11    1    3    3    0    0 -0.12956796028E+02 -0.43380457056E+02 -0.38831374576E+02  0.59645773274E+02  0.51100000000E-03 0.  1.
         11    1    3    3    0    0  0.12956796028E+02  0.43380457056E+02 -0.47780915344E+02  0.65823692460E+02  0.51100000000E-03 0. -1.
<mgrwt>
<rscale>  0 0.90779392E+02</rscale>
<asrwt>0</asrwt>
<pdfrwt beam="2">  1        2 0.16313981E-01 0.90779392E+02</pdfrwt>
<pdfrwt beam="1">  1       -2 0.29890136E-02 0.90779392E+02</pdfrwt>
<totfact> 0.12641232E+05</totfact>
</mgrwt>
</event>
<event>
 5    1  0.2809073E+000  0.9341778E+02  0.7818608E-02  0.1294780E+00
          2   -1    0    0  501    0  0.00000000000E+00  0.00000000000E+00  0.76464108407E+02  0.76464108451E+02  0.26000000000E-02 0. -1.
         -2   -1    0    0    0  501 -0.00000000000E+00 -0.00000000000E+00 -0.28532608068E+02  0.28532608186E+02  0.26000000000E-02 0.  1.
         23    2    1    2    0    0  0.00000000000E+00  0.00000000000E+00  0.47931500339E+02  0.10499671664E+03  0.93417780855E+02 0.  0.
        -11    1    3    3    0    0  0.36036417769E+01 -0.21491509259E+02  0.70400568807E+02  0.73696073795E+02  0.51100000000E-03 0. -1.
         11    1    3    3    0    0 -0.36036417769E+01  0.21491509259E+02 -0.22469068468E+02  0.31300642842E+02  0.51100000000E-03 0.  1.
<mgrwt>
<rscale>  0 0.93417781E+02</rscale>
<asrwt>0</asrwt>
<pdfrwt beam="1">  1        2 0.11763709E-01 0.93417781E+02</pdfrwt>
<pdfrwt beam="2">  1       -2 0.43896321E-02 0.93417781E+02</pdfrwt>
<totfact> 0.10595262E+05</totfact>
</mgrwt>
</event>
<event>
 5    1  0.2809073E+000  0.9123238E+02  0.7818608E-02  0.1299894E+00
         -2   -1    0    0    0  501 -0.00000000000E+00  0.00000000000E+00  0.79995247204E+01  0.79995251429E+01  0.26000000000E-02 0.  1.
          2   -1    0    0  501    0  0.00000000000E+00 -0.00000000000E+00 -0.26012002405E+03  0.26012002406E+03  0.26000000000E-02 0. -1.
         23    2    1    2    0    0  0.00000000000E+00  0.00000000000E+00 -0.25212049933E+03  0.26811954920E+03  0.91232376293E+02 0.  0.
        -11    1    3    3    0    0  0.31502127196E+02 -0.30004330409E+02 -0.85743923600E+02  0.96149177302E+02  0.51100000000E-03 0.  1.
         11    1    3    3    0    0 -0.31502127196E+02  0.30004330409E+02 -0.16637657573E+03  0.17197037190E+03  0.51100000000E-03 0. -1.
<mgrwt>
<rscale>  0 0.91232376E+02</rscale>
<asrwt>0</asrwt>
<pdfrwt beam="2">  1        2 0.40018459E-01 0.91232376E+02</pdfrwt>
<pdfrwt beam="1">  1       -2 0.12306963E-02 0.91232376E+02</pdfrwt>
<totfact> 0.17007367E+05</totfact>
</mgrwt>
</event>
<event>
 5    1  0.2809073E+000  0.9127604E+02  0.7818608E-02  0.1299791E+00
          2   -1    0    0  501    0  0.00000000000E+00  0.00000000000E+00  0.18832617172E+02  0.18832617352E+02  0.26000000000E-02 0. -1.
         -2   -1    0    0    0  501 -0.00000000000E+00 -0.00000000000E+00 -0.11059689963E+03  0.11059689966E+03  0.26000000000E-02 0.  1.
         23    2    1    2    0    0  0.00000000000E+00  0.00000000000E+00 -0.91764282457E+02  0.12942951701E+03  0.91276044716E+02 0.  0.
        -11    1    3    3    0    0  0.32055964118E+02  0.32289229042E+02 -0.40838772795E+02  0.61139058804E+02  0.51100000000E-03 0. -1.
         11    1    3    3    0    0 -0.32055964118E+02 -0.32289229042E+02 -0.50925509662E+02  0.68290458208E+02  0.51100000000E-03 0.  1.
<mgrwt>
<rscale>  0 0.91276045E+02</rscale>
<asrwt>0</asrwt>
<pdfrwt beam="1">  1        2 0.28973258E-02 0.91276045E+02</pdfrwt>
<pdfrwt beam="2">  1       -2 0.17014907E-01 0.91276045E+02</pdfrwt>
<totfact> 0.77184266E+04</totfact>
</mgrwt>
</event>
<event>
 5    1  0.2809073E+000  0.9077882E+02  0.7818608E-02  0.1300977E+00
          2   -1    0    0  501    0  0.00000000000E+00  0.00000000000E+00  0.12449059007E+03  0.12449059009E+03  0.26000000000E-02 0. -1.
         -2   -1    0    0    0  501 -0.00000000000E+00 -0.00000000000E+00 -0.16549031515E+02  0.16549031720E+02  0.26000000000E-02 0.  1.
         23    2    1    2    0    0  0.00000000000E+00  0.00000000000E+00  0.10794155855E+03  0.14103962181E+03  0.90778823845E+02 0.  0.
        -11    1    3    3    0    0 -0.21487611977E+01  0.41279158225E+02  0.24837537022E+02  0.48223327592E+02  0.51100000000E-03 0.  1.
         11    1    3    3    0    0  0.21487611977E+01 -0.41279158225E+02  0.83104021529E+02  0.92816294221E+02  0.51100000000E-03 0. -1.
<mgrwt>
<rscale>  0 0.90778824E+02</rscale>
<asrwt>0</asrwt>
<pdfrwt beam="1">  1        2 0.19152399E-01 0.90778824E+02</pdfrwt>
<pdfrwt beam="2">  1       -2 0.25460048E-02 0.90778824E+02</pdfrwt>
<totfact> 0.13298945E+05</totfact>
</mgrwt>
</event>
<event>
 5    1  0.2809073E+000  0.9299054E+02  0.7818608E-02  0.1295767E+00
          2   -1    0    0  501    0  0.00000000000E+00  0.00000000000E+00  0.15232826923E+03  0.15232826926E+03  0.26000000000E-02 0.  1.
         -2   -1    0    0    0  501 -0.00000000000E+00 -0.00000000000E+00 -0.14191785950E+02  0.14191786188E+02  0.26000000000E-02 0. -1.
         23    2    1    2    0    0  0.00000000000E+00  0.00000000000E+00  0.13813648329E+03  0.16652005544E+03  0.92990541729E+02 0.  0.
        -11    1    3    3    0    0  0.41547722554E+02 -0.18627433979E+02  0.85925347847E+02  0.97243817021E+02  0.51100000000E-03 0.  1.
         11    1    3    3    0    0 -0.41547722554E+02  0.18627433979E+02  0.52211135439E+02  0.69276238424E+02  0.51100000000E-03 0. -1.
<mgrwt>
<rscale>  0 0.92990542E+02</rscale>
<asrwt>0</asrwt>
<pdfrwt beam="1">  1        2 0.23435120E-01 0.92990542E+02</pdfrwt>
<pdfrwt beam="2">  1       -2 0.21833515E-02 0.92990542E+02</pdfrwt>
<totfact> 0.13321750E+05</totfact>
</mgrwt>
</event>
<event>
 5    1  0.2809073E+000  0.9100450E+02  0.7818608E-02  0.1300437E+00
          2   -1    0    0  501    0  0.00000000000E+00  0.00000000000E+00  0.15407121541E+03  0.15407121544E+03  0.26000000000E-02 0. -1.
         -2   -1    0    0    0  501 -0.00000000000E+00 -0.00000000000E+00 -0.13438297840E+02  0.13438298092E+02  0.26000000000E-02 0.  1.
         23    2    1    2    0    0  0.00000000000E+00  0.00000000000E+00  0.14063291757E+03  0.16750951353E+03  0.91004503279E+02 0.  0.
        -11    1    3    3    0    0 -0.44859189061E+02  0.39593552119E+01  0.58326405044E+02  0.73688485278E+02  0.51100000000E-03 0.  1.
         11    1    3    3    0    0  0.44859189061E+02 -0.39593552119E+01  0.82306512530E+02  0.93821028251E+02  0.51100000000E-03 0. -1.
<mgrwt>
<rscale>  0 0.91004503E+02</rscale>
<asrwt>0</asrwt>
<pdfrwt beam="1">  1        2 0.23703263E-01 0.91004503E+02</pdfrwt>
<pdfrwt beam="2">  1       -2 0.20674306E-02 0.91004503E+02</pdfrwt>
<totfact> 0.14181924E+05</totfact>
</mgrwt>
</event>
<event>
 5    1  0.2809073E+000  0.9105294E+02  0.7818608E-02  0.1300322E+00
          2   -1    0    0  501    0  0.00000000000E+00  0.00000000000E+00  0.88350300805E+01  0.88350304630E+01  0.26000000000E-02 0. -1.
         -2   -1    0    0    0  501 -0.00000000000E+00 -0.00000000000E+00 -0.23459560687E+03  0.23459560689E+03  0.26000000000E-02 0.  1.
         23    2    1    2    0    0  0.00000000000E+00  0.00000000000E+00 -0.22576057679E+03  0.24343063735E+03  0.91052936071E+02 0.  0.
        -11    1    3    3    0    0  0.36783376692E+02 -0.20852286184E+02 -0.67760186786E+02  0.79870379701E+02  0.51100000000E-03 0.  1.
         11    1    3    3    0    0 -0.36783376692E+02  0.20852286184E+02 -0.15800039001E+03  0.16356025765E+03  0.51100000000E-03 0. -1.
<mgrwt>
<rscale>  0 0.91052936E+02</rscale>
<asrwt>0</asrwt>
<pdfrwt beam="1">  1        2 0.13592356E-02 0.91052936E+02</pdfrwt>
<pdfrwt beam="2">  1       -2 0.36091627E-01 0.91052936E+02</pdfrwt>
<totfact> 0.58153905E+04</totfact>
</mgrwt>
</event>
<event>
 5    1  0.2809073E+000  0.8964737E+02  0.7818608E-02  0.1303708E+00
          2   -1    0    0  501    0  0.00000000000E+00  0.00000000000E+00  0.27519602856E+02  0.27519602979E+02  0.26000000000E-02 0. -1.
         -2   -1    0    0    0  501 -0.00000000000E+00 -0.00000000000E+00 -0.73008422489E+02  0.73008422535E+02  0.26000000000E-02 0.  1.
         23    2    1    2    0    0  0.00000000000E+00  0.00000000000E+00 -0.45488819633E+02  0.10052802551E+03  0.89647371418E+02 0.  0.
        -11    1    3    3    0    0 -0.10151360607E+02  0.36008930896E+02 -0.50428203716E+02  0.62790898678E+02  0.51100000000E-03 0.  1.
         11    1    3    3    0    0  0.10151360607E+02 -0.36008930896E+02  0.49393840832E+01  0.37737126836E+02  0.51100000000E-03 0. -1.
<mgrwt>
<rscale>  0 0.89647371E+02</rscale>
<asrwt>0</asrwt>
<pdfrwt beam="1">  1        2 0.42337851E-02 0.89647371E+02</pdfrwt>
<pdfrwt beam="2">  1       -2 0.11232065E-01 0.89647371E+02</pdfrwt>
<totfact> 0.90907083E+04</totfact>
</mgrwt>
</event>
<event>
 4    1  0.2809073E+000  0.2274463E+03  0.7818608E-02  0.1128450E+00
         -2   -1    0    0    0  501 -0.00000000000E+00  0.00000000000E+00  0.63873555271E+02  0.63873555324E+02  0.26000000000E-02 0. -1.
          2   -1    0    0  501    0  0.00000000000E+00 -0.00000000000E+00 -0.20247747706E+03  0.20247747707E+03  0.26000000000E-02 0.  1.
        -11    1    1    2    0    0 -0.46771260324E+01  0.48319212953E+02  0.51130364424E+02  0.70504865185E+02  0.51100000000E-03 0. -1.
         11    1    1    2    0    0  0.46771260324E+01 -0.48319212953E+02 -0.18973428621E+03  0.19584616721E+03  0.51100000000E-03 0.  1.
<mgrwt>
<rscale>  0 0.22744631E+03</rscale>
<asrwt>0</asrwt>
<pdfrwt beam="2">  1        2 0.31150381E-01 0.22744631E+03</pdfrwt>
<pdfrwt beam="1">  1       -2 0.98267009E-02 0.22744631E+03</pdfrwt>
<totfact> 0.11226373E+04</totfact>
</mgrwt>
</event>
<event>
 5    1  0.2809073E+000  0.8884233E+02  0.7818608E-02  0.1305680E+00
         -2   -1    0    0    0  501 -0.00000000000E+00  0.00000000000E+00  0.68554464203E+01  0.68554469133E+01  0.26000000000E-02 0.  1.
          2   -1    0    0  501    0  0.00000000000E+00 -0.00000000000E+00 -0.28783533554E+03  0.28783533555E+03  0.26000000000E-02 0. -1.
         23    2    1    2    0    0  0.00000000000E+00  0.00000000000E+00 -0.28097988912E+03  0.29469078246E+03  0.88842327638E+02 0.  0.
        -11    1    3    3    0    0 -0.25811857418E+02  0.35914403485E+02 -0.12675599242E+03  0.13425043007E+03  0.51100000000E-03 0. -1.
         11    1    3    3    0    0  0.25811857418E+02 -0.35914403485E+02 -0.15422389670E+03  0.16044035239E+03  0.51100000000E-03 0.  1.
<mgrwt>
<rscale>  0 0.88842328E+02</rscale>
<asrwt>0</asrwt>
<pdfrwt beam="2">  1        2 0.44282350E-01 0.88842328E+02</pdfrwt>
<pdfrwt beam="1">  1       -2 0.10546843E-02 0.88842328E+02</pdfrwt>
<totfact> 0.18957054E+05</totfact>
</mgrwt>
</event>
<event>
 5    1  0.2809073E+000  0.8950576E+02  0.7818608E-02  0.1304053E+00
         -2   -1    0    0    0  501 -0.00000000000E+00  0.00000000000E+00  0.50579017122E+02  0.50579017189E+02  0.26000000000E-02 0. -1.
          2   -1    0    0  501    0  0.00000000000E+00 -0.00000000000E+00 -0.39597846428E+02  0.39597846514E+02  0.26000000000E-02 0.  1.
         23    2    1    2    0    0  0.00000000000E+00  0.00000000000E+00  0.10981170694E+02  0.90176863702E+02  0.89505757565E+02 0.  0.
        -11    1    3    3    0    0 -0.14768067779E+02 -0.95525019047E+01 -0.35969808743E+02  0.40039646100E+02  0.51100000000E-03 0.  1.
         11    1    3    3    0    0  0.14768067779E+02  0.95525019047E+01  0.46950979436E+02  0.50137217602E+02  0.51100000000E-03 0. -1.
<mgrwt>
<rscale>  0 0.89505758E+02</rscale>
<asrwt>0</asrwt>
<pdfrwt beam="2">  1        2 0.60919763E-02 0.89505758E+02</pdfrwt>
<pdfrwt beam="1">  1       -2 0.77813873E-02 0.89505758E+02</pdfrwt>
<totfact> 0.10036511E+05</totfact>
</mgrwt>
</event>
<event>
 5    1  0.2809073E+000  0.8174785E+02  0.7818608E-02  0.1324163E+00
          2   -1    0    0  501    0  0.00000000000E+00  0.00000000000E+00  0.35801219241E+03  0.35801219242E+03  0.26000000000E-02 0. -1.
         -2   -1    0    0    0  501 -0.00000000000E+00 -0.00000000000E+00 -0.46665382528E+01  0.46665389771E+01  0.26000000000E-02 0.  1.
         23    2    1    2    0    0  0.00000000000E+00  0.00000000000E+00  0.35334565416E+03  0.36267873140E+03  0.81747849487E+02 0.  0.
        -11    1    3    3    0    0 -0.33246823338E+02  0.21000559027E+02  0.12720913553E+03  0.13314855953E+03  0.51100000000E-03 0. -1.
         11    1    3    3    0    0  0.33246823338E+02 -0.21000559027E+02  0.22613651863E+03  0.22953017187E+03  0.51100000000E-03 0.  1.
<mgrwt>
<rscale>  0 0.81747849E+02</rscale>
<asrwt>0</asrwt>
<pdfrwt beam="1">  1        2 0.55078802E-01 0.81747849E+02</pdfrwt>
<pdfrwt beam="2">  1       -2 0.71792897E-03 0.81747849E+02</pdfrwt>
<totfact> 0.25591583E+05</totfact>
</mgrwt>
</event>
<event>
 5    1  0.2809073E+000  0.8930554E+02  0.7818608E-02  0.1304542E+00
          2   -1    0    0  501    0  0.00000000000E+00  0.00000000000E+00  0.17812968649E+03  0.17812968651E+03  0.26000000000E-02 0. -1.
         -2   -1    0    0    0  501 -0.00000000000E+00 -0.00000000000E+00 -0.11193361588E+02  0.11193361890E+02  0.26000000000E-02 0.  1.
         23    2    1    2    0    0  0.00000000000E+00  0.00000000000E+00  0.16693632490E+03  0.18932304840E+03  0.89305543405E+02 0.  0.
        -11    1    3    3    0    0 -0.20669797380E+02  0.38931820395E+02  0.68337194128E+02  0.81319734779E+02  0.51100000000E-03 0.  1.
         11    1    3    3    0    0  0.20669797380E+02 -0.38931820395E+02  0.98599130771E+02  0.10800331362E+03  0.51100000000E-03 0. -1.
<mgrwt>
<rscale>  0 0.89305543E+02</rscale>
<asrwt>0</asrwt>
<pdfrwt beam="1">  1        2 0.27404564E-01 0.89305543E+02</pdfrwt>
<pdfrwt beam="2">  1       -2 0.17220559E-02 0.89305543E+02</pdfrwt>
<totfact> 0.15692593E+05</totfact>
</mgrwt>
</event>
<event>
 5    1  0.2809073E+000  0.9256204E+02  0.7818608E-02  0.1296763E+00
          2   -1    0    0  501    0  0.00000000000E+00  0.00000000000E+00  0.14262961911E+03  0.14262961914E+03  0.26000000000E-02 0.  1.
         -2   -1    0    0    0  501 -0.00000000000E+00 -0.00000000000E+00 -0.15017445830E+02  0.15017446055E+02  0.26000000000E-02 0. -1.
         23    2    1    2    0    0  0.00000000000E+00  0.00000000000E+00  0.12761217328E+03  0.15764706519E+03  0.92562035381E+02 0.  0.
        -11    1    3    3    0    0  0.25738926306E+02 -0.20710844343E+02  0.11900763636E+03  0.12350809250E+03  0.51100000000E-03 0.  1.
         11    1    3    3    0    0 -0.25738926306E+02  0.20710844343E+02  0.86045369278E+01  0.34138972697E+02  0.51100000000E-03 0. -1.
<mgrwt>
<rscale>  0 0.92562035E+02</rscale>
<asrwt>0</asrwt>
<pdfrwt beam="1">  1        2 0.21943019E-01 0.92562035E+02</pdfrwt>
<pdfrwt beam="2">  1       -2 0.23103763E-02 0.92562035E+02</pdfrwt>
<totfact> 0.13191841E+05</totfact>
</mgrwt>
</event>
<event>
 5    1  0.2809073E+000  0.9229120E+02  0.7818608E-02  0.1297396E+00
         -2   -1    0    0    0  501 -0.00000000000E+00  0.00000000000E+00  0.48023913097E+02  0.48023913168E+02  0.26000000000E-02 0.  1.
          2   -1    0    0  501    0  0.00000000000E+00 -0.00000000000E+00 -0.44340748327E+02  0.44340748403E+02  0.26000000000E-02 0. -1.
         23    2    1    2    0    0  0.00000000000E+00  0.00000000000E+00  0.36831647704E+01  0.92364661571E+02  0.92291196787E+02 0.  0.
        -11    1    3    3    0    0 -0.41006001589E+02  0.17705364270E+02  0.13445817981E+02  0.46645065245E+02  0.51100000000E-03 0.  1.
         11    1    3    3    0    0  0.41006001589E+02 -0.17705364270E+02 -0.97626532107E+01  0.45719596326E+02  0.51100000000E-03 0. -1.
<mgrwt>
<rscale>  0 0.92291197E+02</rscale>
<asrwt>0</asrwt>
<pdfrwt beam="2">  1        2 0.68216536E-02 0.92291197E+02</pdfrwt>
<pdfrwt beam="1">  1       -2 0.73882943E-02 0.92291197E+02</pdfrwt>
<totfact> 0.94596906E+04</totfact>
</mgrwt>
</event>
<event>
 5    1  0.2809073E+000  0.9121206E+02  0.7818608E-02  0.1299943E+00
          2   -1    0    0  501    0  0.00000000000E+00  0.00000000000E+00  0.14619920064E+03  0.14619920066E+03  0.26000000000E-02 0. -1.
         -2   -1    0    0    0  501 -0.00000000000E+00 -0.00000000000E+00 -0.14226549357E+02  0.14226549595E+02  0.26000000000E-02 0.  1.
         23    2    1    2    0    0  0.00000000000E+00  0.00000000000E+00  0.13197265128E+03  0.16042575026E+03  0.91212064219E+02 0.  0.
        -11    1    3    3    0    0  0.15392338108E+02  0.26820720129E+02  0.12494319800E+03  0.12871316105E+03  0.51100000000E-03 0. -1.
         11    1    3    3    0    0 -0.15392338108E+02 -0.26820720129E+02  0.70294532853E+01  0.31712589210E+02  0.51100000000E-03 0.  1.
<mgrwt>
<rscale>  0 0.91212064E+02</rscale>
<asrwt>0</asrwt>
<pdfrwt beam="1">  1        2 0.22492184E-01 0.91212064E+02</pdfrwt>
<pdfrwt beam="2">  1       -2 0.21887000E-02 0.91212064E+02</pdfrwt>
<totfact> 0.13845265E+05</totfact>
</mgrwt>
</event>
<event>
 5    1  0.2809073E+000  0.9179497E+02  0.7818608E-02  0.1298562E+00
          2   -1    0    0  501    0  0.00000000000E+00  0.00000000000E+00  0.25396750942E+03  0.25396750943E+03  0.26000000000E-02 0. -1.
         -2   -1    0    0    0  501 -0.00000000000E+00 -0.00000000000E+00 -0.82946800843E+01  0.82946804918E+01  0.26000000000E-02 0.  1.
         23    2    1    2    0    0  0.00000000000E+00  0.00000000000E+00  0.24567282933E+03  0.26226218992E+03  0.91794973666E+02 0.  0.
        -11    1    3    3    0    0  0.12774029168E+02 -0.35131732925E+02  0.46752933976E+02  0.59860264911E+02  0.51100000000E-03 0.  1.
         11    1    3    3    0    0 -0.12774029168E+02  0.35131732925E+02  0.19891989535E+03  0.20240192501E+03  0.51100000000E-03 0. -1.
<mgrwt>
<rscale>  0 0.91794974E+02</rscale>
<asrwt>0</asrwt>
<pdfrwt beam="1">  1        2 0.39071926E-01 0.91794974E+02</pdfrwt>
<pdfrwt beam="2">  1       -2 0.12761046E-02 0.91794974E+02</pdfrwt>
<totfact> 0.16581191E+05</totfact>
</mgrwt>
</event>
<event>
 5    1  0.2809073E+000  0.9385274E+02  0.7818608E-02  0.1293781E+00
         -2   -1    0    0    0  501 -0.00000000000E+00  0.00000000000E+00  0.68392310253E+01  0.68392315195E+01  0.26000000000E-02 0. -1.
          2   -1    0    0  501    0  0.00000000000E+00 -0.00000000000E+00 -0.32197833050E+03  0.32197833051E+03  0.26000000000E-02 0.  1.
         23    2    1    2    0    0  0.00000000000E+00  0.00000000000E+00 -0.31513909947E+03  0.32881756203E+03  0.93852741471E+02 0.  0.
        -11    1    3    3    0    0 -0.35788123603E+02  0.26186242002E+02 -0.10379548887E+03  0.11287166417E+03  0.51100000000E-03 0.  1.
         11    1    3    3    0    0  0.35788123603E+02 -0.26186242002E+02 -0.21134361060E+03  0.21594589786E+03  0.51100000000E-03 0. -1.
<mgrwt>
<rscale>  0 0.93852741E+02</rscale>
<asrwt>0</asrwt>
<pdfrwt beam="2">  1        2 0.49535116E-01 0.93852741E+02</pdfrwt>
<pdfrwt beam="1">  1       -2 0.10521897E-02 0.93852741E+02</pdfrwt>
<totfact> 0.17072976E+05</totfact>
</mgrwt>
</event>
<event>
 5    1  0.2809073E+000  0.8534093E+02  0.7818608E-02  0.1314543E+00
          2   -1    0    0  501    0  0.00000000000E+00  0.00000000000E+00  0.36255275571E+03  0.36255275572E+03  0.26000000000E-02 0. -1.
         -2   -1    0    0    0  501 -0.00000000000E+00 -0.00000000000E+00 -0.50220784923E+01  0.50220791653E+01  0.26000000000E-02 0.  1.
         23    2    1    2    0    0  0.00000000000E+00  0.00000000000E+00  0.35753067722E+03  0.36757483488E+03  0.85340928567E+02 0.  0.
        -11    1    3    3    0    0 -0.30766592093E+02 -0.27626804150E+02  0.13339810229E+03  0.13965986249E+03  0.51100000000E-03 0.  1.
         11    1    3    3    0    0  0.30766592093E+02  0.27626804150E+02  0.22413257493E+03  0.22791497239E+03  0.51100000000E-03 0. -1.
<mgrwt>
<rscale>  0 0.85340929E+02</rscale>
<asrwt>0</asrwt>
<pdfrwt beam="1">  1        2 0.55777358E-01 0.85340929E+02</pdfrwt>
<pdfrwt beam="2">  1       -2 0.77262737E-03 0.85340929E+02</pdfrwt>
<totfact> 0.22954517E+05</totfact>
</mgrwt>
</event>
<event>
 5    1  0.2809073E+000  0.9053063E+02  0.7818608E-02  0.1301572E+00
          2   -1    0    0  501    0  0.00000000000E+00  0.00000000000E+00  0.20623943552E+02  0.20623943716E+02  0.26000000000E-02 0. -1.
         -2   -1    0    0    0  501 -0.00000000000E+00 -0.00000000000E+00 -0.99348050131E+02  0.99348050165E+02  0.26000000000E-02 0.  1.
         23    2    1    2    0    0  0.00000000000E+00  0.00000000000E+00 -0.78724106578E+02  0.11997199388E+03  0.90530626637E+02 0.  0.
        -11    1    3    3    0    0 -0.26001909359E+02  0.10408012079E+02 -0.86486649856E+02  0.90908561804E+02  0.51100000000E-03 0.  1.
         11    1    3    3    0    0  0.26001909359E+02 -0.10408012079E+02  0.77625432771E+01  0.29063432078E+02  0.51100000000E-03 0. -1.
<mgrwt>
<rscale>  0 0.90530627E+02</rscale>
<asrwt>0</asrwt>
<pdfrwt beam="1">  1        2 0.31729145E-02 0.90530627E+02</pdfrwt>
<pdfrwt beam="2">  1       -2 0.15284315E-01 0.90530627E+02</pdfrwt>
<totfact> 0.81388531E+04</totfact>
</mgrwt>
</event>
<event>
 5    1  0.2809073E+000  0.9398502E+02  0.7818608E-02  0.1293479E+00
          2   -1    0    0  501    0  0.00000000000E+00  0.00000000000E+00  0.13077014170E+03  0.13077014173E+03  0.26000000000E-02 0. -1.
         -2   -1    0    0    0  501 -0.00000000000E+00 -0.00000000000E+00 -0.16886850339E+02  0.16886850539E+02  0.26000000000E-02 0.  1.
         23    2    1    2    0    0  0.00000000000E+00  0.00000000000E+00  0.11388329136E+03  0.14765699227E+03  0.93985016432E+02 0.  0.
        -11    1    3    3    0    0 -0.53012110065E+01  0.42150644458E+02  0.25382454593E+02  0.49487863843E+02  0.51100000000E-03 0.  1.
         11    1    3    3    0    0  0.53012110065E+01 -0.42150644458E+02  0.88500836770E+02  0.98169128424E+02  0.51100000000E-03 0. -1.
<mgrwt>
<rscale>  0 0.93985016E+02</rscale>
<asrwt>0</asrwt>
<pdfrwt beam="1">  1        2 0.20118483E-01 0.93985016E+02</pdfrwt>
<pdfrwt beam="2">  1       -2 0.25979770E-02 0.93985016E+02</pdfrwt>
<totfact> 0.12291193E+05</totfact>
</mgrwt>
</event>
<event>
 5    1  0.2809073E+000  0.8987425E+02  0.7818608E-02  0.1303157E+00
          2   -1    0    0  501    0  0.00000000000E+00  0.00000000000E+00  0.22795624859E+03  0.22795624861E+03  0.26000000000E-02 0. -1.
         -2   -1    0    0    0  501 -0.00000000000E+00 -0.00000000000E+00 -0.88584766297E+01  0.88584770112E+01  0.26000000000E-02 0.  1.
         23    2    1    2    0    0  0.00000000000E+00  0.00000000000E+00  0.21909777197E+03  0.23681472562E+03  0.89874248764E+02 0.  0.
        -11    1    3    3    0    0 -0.44426062524E+02 -0.59956004393E+01  0.11776508877E+03  0.12600888219E+03  0.51100000000E-03 0. -1.
         11    1    3    3    0    0  0.44426062524E+02  0.59956004393E+01  0.10133268319E+03  0.11080584344E+03  0.51100000000E-03 0.  1.
<mgrwt>
<rscale>  0 0.89874249E+02</rscale>
<asrwt>0</asrwt>
<pdfrwt beam="1">  1        2 0.35070197E-01 0.89874249E+02</pdfrwt>
<pdfrwt beam="2">  1       -2 0.13628424E-02 0.89874249E+02</pdfrwt>
<totfact> 0.16861978E+05</totfact>
</mgrwt>
</event>
