<event>
 5    1  0.1242969E+001  0.9087012E+02  0.7546771E-02  0.1300758E+00
          4   -1    0    0  501    0  0.00000000000E+00  0.00000000000E+00  0.11432800846E+02  0.11432800846E+02  0.00000000000E+00 0.  1.
         -4   -1    0    0    0  501 -0.00000000000E+00 -0.00000000000E+00 -0.18056333169E+03  0.18056333169E+03  0.00000000000E+00 0. -1.
         23    2    1    2    0    0  0.00000000000E+00  0.00000000000E+00 -0.16913053084E+03  0.19199613254E+03  0.90870118551E+02 0.  0.
        -11    1    3    3    0    0  0.16443240112E+02 -0.33351235936E+02 -0.29401342806E+02  0.47403839957E+02  0.00000000000E+00 0.  1.
         11    1    3    3    0    0 -0.16443240112E+02  0.33351235936E+02 -0.13972918804E+03  0.14459229258E+03  0.00000000000E+00 0. -1.
<mgrwt>
<rscale>  0 0.90870119E+02</rscale>
<asrwt>0</asrwt>
<pdfrwt beam="1">  1        4 0.17588925E-02 0.90870119E+02</pdfrwt>
<pdfrwt beam="2">  1       -4 0.27778973E-01 0.90870119E+02</pdfrwt>
<totfact> 0.21922169E+04</totfact>
</mgrwt>
</event>
<event>
 5    1  0.1242969E+001  0.9145591E+02  0.7546771E-02  0.1299364E+00
          3   -1    0    0  501    0  0.00000000000E+00  0.00000000000E+00  0.79010749502E+01  0.79010749502E+01  0.00000000000E+00 0. -1.
         -3   -1    0    0    0  501 -0.00000000000E+00 -0.00000000000E+00 -0.26465335206E+03  0.26465335206E+03  0.00000000000E+00 0.  1.
         23    2    1    2    0    0  0.00000000000E+00  0.00000000000E+00 -0.25675227711E+03  0.27255442701E+03  0.91455912229E+02 0.  0.
        -11    1    3    3    0    0 -0.42277797450E+02  0.15685279066E+02 -0.15099520562E+03  0.15758487318E+03  0.00000000000E+00 0.  1.
         11    1    3    3    0    0  0.42277797450E+02 -0.15685279066E+02 -0.10575707149E+03  0.11496955383E+03  0.00000000000E+00 0. -1.
<mgrwt>
<rscale>  0 0.91455912E+02</rscale>
<asrwt>0</asrwt>
<pdfrwt beam="1">  1        3 0.12155501E-02 0.91455912E+02</pdfrwt>
<pdfrwt beam="2">  1       -3 0.40715896E-01 0.91455912E+02</pdfrwt>
<totfact> 0.24921765E+04</totfact>
</mgrwt>
</event>
<event>
 5    1  0.1242969E+001  0.7707221E+02  0.7546771E-02  0.1337572E+00
         -1   -1    0    0    0  501 -0.00000000000E+00  0.00000000000E+00  0.73944351389E+02  0.73944351389E+02  0.00000000000E+00 0.  1.
          1   -1    0    0  501    0  0.00000000000E+00 -0.00000000000E+00 -0.20083096969E+02  0.20083096969E+02  0.00000000000E+00 0. -1.
         23    2    1    2    0    0  0.00000000000E+00  0.00000000000E+00  0.53861254420E+02  0.94027448358E+02  0.77072214948E+02 0.  0.
        -13    1    3    3    0    0 -0.38233046170E+02 -0.47624838648E+01  0.27863348205E+02  0.47548009898E+02  0.00000000000E+00 0.  1.
         13    1    3    3    0    0  0.38233046170E+02  0.47624838648E+01  0.25997906215E+02  0.46479438460E+02  0.00000000000E+00 0. -1.
<mgrwt>
<rscale>  0 0.77072215E+02</rscale>
<asrwt>0</asrwt>
<pdfrwt beam="2">  1        1 0.30897073E-02 0.77072215E+02</pdfrwt>
<pdfrwt beam="1">  1       -1 0.11376054E-01 0.77072215E+02</pdfrwt>
<totfact> 0.13160072E+05</totfact>
</mgrwt>
</event>
<event>
 5    1  0.1242969E+001  0.9062640E+02  0.7546771E-02  0.1301342E+00
         -2   -1    0    0    0  501 -0.00000000000E+00  0.00000000000E+00  0.79474005918E+02  0.79474005918E+02  0.00000000000E+00 0. -1.
          2   -1    0    0  501    0  0.00000000000E+00 -0.00000000000E+00 -0.25835946281E+02  0.25835946281E+02  0.00000000000E+00 0.  1.
         23    2    1    2    0    0  0.00000000000E+00  0.00000000000E+00  0.53638059637E+02  0.10530995220E+03  0.90626401178E+02 0.  0.
        -11    1    3    3    0    0  0.39274371792E+02 -0.11924514100E+02  0.45089217926E+01  0.41291654022E+02  0.00000000000E+00 0.  1.
         11    1    3    3    0    0 -0.39274371792E+02  0.11924514100E+02  0.49129137844E+02  0.64018298177E+02  0.00000000000E+00 0. -1.
<mgrwt>
<rscale>  0 0.90626401E+02</rscale>
<asrwt>0</asrwt>
<pdfrwt beam="2">  1        2 0.39747610E-02 0.90626401E+02</pdfrwt>
<pdfrwt beam="1">  1       -2 0.12226770E-01 0.90626401E+02</pdfrwt>
<totfact> 0.86510154E+04</totfact>
</mgrwt>
</event>
<event>
 5    1  0.1242969E+001  0.9214711E+02  0.7546771E-02  0.1297734E+00
         -1   -1    0    0    0  501 -0.00000000000E+00  0.00000000000E+00  0.21290193756E+02  0.21290193756E+02  0.00000000000E+00 0.  1.
          1   -1    0    0  501    0  0.00000000000E+00 -0.00000000000E+00 -0.99706573696E+02  0.99706573696E+02  0.00000000000E+00 0. -1.
         23    2    1    2    0    0  0.00000000000E+00  0.00000000000E+00 -0.78416379940E+02  0.12099676745E+03  0.92147105711E+02 0.  0.
        -13    1    3    3    0    0  0.23003343248E+02  0.65582934903E+01  0.12498052135E+02  0.26988262658E+02  0.00000000000E+00 0.  1.
         13    1    3    3    0    0 -0.23003343248E+02 -0.65582934903E+01 -0.90914432075E+02  0.94008504794E+02  0.00000000000E+00 0. -1.
<mgrwt>
<rscale>  0 0.92147106E+02</rscale>
<asrwt>0</asrwt>
<pdfrwt beam="2">  1        1 0.15339473E-01 0.92147106E+02</pdfrwt>
<pdfrwt beam="1">  1       -1 0.32754144E-02 0.92147106E+02</pdfrwt>
<totfact> 0.10142616E+05</totfact>
</mgrwt>
</event>
<event>
 5    1  0.1242969E+001  0.9169080E+02  0.7546771E-02  0.1298808E+00
          1   -1    0    0  501    0  0.00000000000E+00  0.00000000000E+00  0.18933589565E+03  0.18933589565E+03  0.00000000000E+00 0. -1.
         -1   -1    0    0    0  501 -0.00000000000E+00 -0.00000000000E+00 -0.11100909363E+02  0.11100909363E+02  0.00000000000E+00 0.  1.
         23    2    1    2    0    0  0.00000000000E+00  0.00000000000E+00  0.17823498629E+03  0.20043680502E+03  0.91690798160E+02 0.  0.
        -13    1    3    3    0    0 -0.27489683703E+02  0.36533255032E+02  0.96510978745E+02  0.10679293259E+03  0.00000000000E+00 0. -1.
         13    1    3    3    0    0  0.27489683703E+02 -0.36533255032E+02  0.81724007545E+02  0.93643872424E+02  0.00000000000E+00 0.  1.
<mgrwt>
<rscale>  0 0.91690798E+02</rscale>
<asrwt>0</asrwt>
<pdfrwt beam="1">  1        1 0.29128597E-01 0.91690798E+02</pdfrwt>
<pdfrwt beam="2">  1       -1 0.17078323E-02 0.91690798E+02</pdfrwt>
<totfact> 0.11540155E+05</totfact>
</mgrwt>
</event>
<event>
 5    1  0.1242969E+001  0.9255258E+02  0.7546771E-02  0.1296785E+00
         -1   -1    0    0    0  501 -0.00000000000E+00  0.00000000000E+00  0.10773844000E+03  0.10773844000E+03  0.00000000000E+00 0.  1.
          1   -1    0    0  501    0  0.00000000000E+00 -0.00000000000E+00 -0.19876794296E+02  0.19876794296E+02  0.00000000000E+00 0. -1.
         23    2    1    2    0    0  0.00000000000E+00  0.00000000000E+00  0.87861645702E+02  0.12761523429E+03  0.92552575536E+02 0.  0.
        -11    1    3    3    0    0  0.34352717126E+02  0.81489377075E+01  0.26811234812E+01  0.35407665594E+02  0.00000000000E+00 0.  1.
         11    1    3    3    0    0 -0.34352717126E+02 -0.81489377075E+01  0.85180522221E+02  0.92207568700E+02  0.00000000000E+00 0. -1.
<mgrwt>
<rscale>  0 0.92552576E+02</rscale>
<asrwt>0</asrwt>
<pdfrwt beam="2">  1        1 0.30579684E-02 0.92552576E+02</pdfrwt>
<pdfrwt beam="1">  1       -1 0.16575144E-01 0.92552576E+02</pdfrwt>
<totfact> 0.77185977E+04</totfact>
</mgrwt>
</event>
<event>
 5    1  0.1242969E+001  0.9240563E+02  0.7546771E-02  0.1297129E+00
          2   -1    0    0  501    0  0.00000000000E+00  0.00000000000E+00  0.45307460254E+02  0.45307460254E+02  0.00000000000E+00 0.  1.
         -2   -1    0    0    0  501 -0.00000000000E+00 -0.00000000000E+00 -0.47115860857E+02  0.47115860857E+02  0.00000000000E+00 0. -1.
         23    2    1    2    0    0  0.00000000000E+00  0.00000000000E+00 -0.18084006032E+01  0.92423321111E+02  0.92405627385E+02 0.  0.
        -11    1    3    3    0    0 -0.24109282477E+02  0.11255439195E+02  0.36875477043E+02  0.45472444625E+02  0.00000000000E+00 0.  1.
         11    1    3    3    0    0  0.24109282477E+02 -0.11255439195E+02 -0.38683877646E+02  0.46950876486E+02  0.00000000000E+00 0. -1.
<mgrwt>
<rscale>  0 0.92405627E+02</rscale>
<asrwt>0</asrwt>
<pdfrwt beam="1">  1        2 0.69703786E-02 0.92405627E+02</pdfrwt>
<pdfrwt beam="2">  1       -2 0.72485939E-02 0.92405627E+02</pdfrwt>
<totfact> 0.94793466E+04</totfact>
</mgrwt>
</event>
<event>
 5    1  0.1242969E+001  0.8872840E+02  0.7546771E-02  0.1305961E+00
         -2   -1    0    0    0  501 -0.00000000000E+00  0.00000000000E+00  0.26317437811E+02  0.26317437811E+02  0.00000000000E+00 0.  1.
          2   -1    0    0  501    0  0.00000000000E+00 -0.00000000000E+00 -0.74786249223E+02  0.74786249223E+02  0.00000000000E+00 0. -1.
         23    2    1    2    0    0  0.00000000000E+00  0.00000000000E+00 -0.48468811411E+02  0.10110368703E+03  0.88728404991E+02 0.  0.
        -13    1    3    3    0    0  0.61406894517E+01  0.36707451172E+02 -0.51748329835E+02  0.63741938151E+02  0.00000000000E+00 0. -1.
         13    1    3    3    0    0 -0.61406894517E+01 -0.36707451172E+02  0.32795184237E+01  0.37361748883E+02  0.00000000000E+00 0.  1.
<mgrwt>
<rscale>  0 0.88728405E+02</rscale>
<asrwt>0</asrwt>
<pdfrwt beam="2">  1        2 0.11505577E-01 0.88728405E+02</pdfrwt>
<pdfrwt beam="1">  1       -2 0.40488367E-02 0.88728405E+02</pdfrwt>
<totfact> 0.12153812E+05</totfact>
</mgrwt>
</event>
<event>
 5    1  0.1242969E+001  0.9186925E+02  0.7546771E-02  0.1298387E+00
         -1   -1    0    0    0  501 -0.00000000000E+00  0.00000000000E+00  0.69591347416E+02  0.69591347416E+02  0.00000000000E+00 0.  1.
          1   -1    0    0  501    0  0.00000000000E+00 -0.00000000000E+00 -0.30319714281E+02  0.30319714281E+02  0.00000000000E+00 0. -1.
         23    2    1    2    0    0  0.00000000000E+00  0.00000000000E+00  0.39271633135E+02  0.99911061696E+02  0.91869249917E+02 0.  0.
        -13    1    3    3    0    0  0.31263965694E+02  0.25536584964E+02  0.43473368279E+02  0.59325259983E+02  0.00000000000E+00 0.  1.
         13    1    3    3    0    0 -0.31263965694E+02 -0.25536584964E+02 -0.42017351438E+01  0.40585801714E+02  0.00000000000E+00 0. -1.
<mgrwt>
<rscale>  0 0.91869250E+02</rscale>
<asrwt>0</asrwt>
<pdfrwt beam="2">  1        1 0.46645714E-02 0.91869250E+02</pdfrwt>
<pdfrwt beam="1">  1       -1 0.10706361E-01 0.91869250E+02</pdfrwt>
<totfact> 0.84965042E+04</totfact>
</mgrwt>
</event>
<event>
 5    1  0.1242969E+001  0.9026046E+02  0.7546771E-02  0.1302222E+00
          1   -1    0    0  501    0  0.00000000000E+00  0.00000000000E+00  0.12548476639E+03  0.12548476639E+03  0.00000000000E+00 0. -1.
         -1   -1    0    0    0  501 -0.00000000000E+00 -0.00000000000E+00 -0.16230955370E+02  0.16230955370E+02  0.00000000000E+00 0.  1.
         23    2    1    2    0    0  0.00000000000E+00  0.00000000000E+00  0.10925381102E+03  0.14171572176E+03  0.90260459626E+02 0.  0.
        -13    1    3    3    0    0  0.28951806512E+02  0.32813993690E+02  0.71952767681E+02  0.84214999015E+02  0.00000000000E+00 0. -1.
         13    1    3    3    0    0 -0.28951806512E+02 -0.32813993690E+02  0.37301043343E+02  0.57500722749E+02  0.00000000000E+00 0.  1.
<mgrwt>
<rscale>  0 0.90260460E+02</rscale>
<asrwt>0</asrwt>
<pdfrwt beam="1">  1        1 0.19305348E-01 0.90260460E+02</pdfrwt>
<pdfrwt beam="2">  1       -1 0.24970701E-02 0.90260460E+02</pdfrwt>
<totfact> 0.11159401E+05</totfact>
</mgrwt>
</event>
<event>
 5    1  0.1242969E+001  0.9172523E+02  0.7546771E-02  0.1298727E+00
         -2   -1    0    0    0  501 -0.00000000000E+00  0.00000000000E+00  0.12051602584E+03  0.12051602584E+03  0.00000000000E+00 0.  1.
          2   -1    0    0  501    0  0.00000000000E+00 -0.00000000000E+00 -0.17453110246E+02  0.17453110246E+02  0.00000000000E+00 0. -1.
         23    2    1    2    0    0  0.00000000000E+00  0.00000000000E+00  0.10306291560E+03  0.13796913609E+03  0.91725230671E+02 0.  0.
        -13    1    3    3    0    0 -0.37722265361E+02 -0.24487949118E+02  0.38014908849E+02  0.58887708826E+02  0.00000000000E+00 0.  1.
         13    1    3    3    0    0  0.37722265361E+02  0.24487949118E+02  0.65048006748E+02  0.79081427263E+02  0.00000000000E+00 0. -1.
<mgrwt>
<rscale>  0 0.91725231E+02</rscale>
<asrwt>0</asrwt>
<pdfrwt beam="2">  1        2 0.26850940E-02 0.91725231E+02</pdfrwt>
<pdfrwt beam="1">  1       -2 0.18540927E-01 0.91725231E+02</pdfrwt>
<totfact> 0.74185867E+04</totfact>
</mgrwt>
</event>
<event>
 5    1  0.1242969E+001  0.8999375E+02  0.7546771E-02  0.1302867E+00
         -1   -1    0    0    0  501 -0.00000000000E+00  0.00000000000E+00  0.20977000704E+02  0.20977000704E+02  0.00000000000E+00 0.  1.
          1   -1    0    0  501    0  0.00000000000E+00 -0.00000000000E+00 -0.96520888608E+02  0.96520888608E+02  0.00000000000E+00 0. -1.
         23    2    1    2    0    0  0.00000000000E+00  0.00000000000E+00 -0.75543887904E+02  0.11749788931E+03  0.89993749744E+02 0.  0.
        -11    1    3    3    0    0  0.23441622924E+01 -0.19236790697E+02  0.15249355726E+02  0.24659522770E+02  0.00000000000E+00 0.  1.
         11    1    3    3    0    0 -0.23441622924E+01  0.19236790697E+02 -0.90793243631E+02  0.92838366542E+02  0.00000000000E+00 0. -1.
<mgrwt>
<rscale>  0 0.89993750E+02</rscale>
<asrwt>0</asrwt>
<pdfrwt beam="2">  1        1 0.14849367E-01 0.89993750E+02</pdfrwt>
<pdfrwt beam="1">  1       -1 0.32272309E-02 0.89993750E+02</pdfrwt>
<totfact> 0.10760287E+05</totfact>
</mgrwt>
</event>
<event>
 5    1  0.1242969E+001  0.9724929E+02  0.7546771E-02  0.1286189E+00
          1   -1    0    0  501    0  0.00000000000E+00  0.00000000000E+00  0.77092065610E+02  0.77092065610E+02  0.00000000000E+00 0. -1.
         -1   -1    0    0    0  501 -0.00000000000E+00 -0.00000000000E+00 -0.30669254032E+02  0.30669254032E+02  0.00000000000E+00 0.  1.
         23    2    1    2    0    0  0.00000000000E+00  0.00000000000E+00  0.46422811578E+02  0.10776131964E+03  0.97249290878E+02 0.  0.
        -13    1    3    3    0    0  0.21422813947E+02  0.42858039938E+02  0.32389712566E+02  0.57834609230E+02  0.00000000000E+00 0.  1.
         13    1    3    3    0    0 -0.21422813947E+02 -0.42858039938E+02  0.14033099012E+02  0.49926710412E+02  0.00000000000E+00 0. -1.
<mgrwt>
<rscale>  0 0.97249291E+02</rscale>
<asrwt>0</asrwt>
<pdfrwt beam="1">  1        1 0.11860318E-01 0.97249291E+02</pdfrwt>
<pdfrwt beam="2">  1       -1 0.47183468E-02 0.97249291E+02</pdfrwt>
<totfact> 0.83813932E+04</totfact>
</mgrwt>
</event>
<event>
 5    1  0.1242969E+001  0.7497683E+02  0.7546771E-02  0.1343943E+00
         -1   -1    0    0    0  501 -0.00000000000E+00  0.00000000000E+00  0.22747968855E+02  0.22747968855E+02  0.00000000000E+00 0.  1.
          1   -1    0    0  501    0  0.00000000000E+00 -0.00000000000E+00 -0.61780512355E+02  0.61780512355E+02  0.00000000000E+00 0. -1.
         23    2    1    2    0    0  0.00000000000E+00  0.00000000000E+00 -0.39032543501E+02  0.84528481210E+02  0.74976827644E+02 0.  0.
        -11    1    3    3    0    0  0.19479256981E+02  0.69541662070E+01  0.15733150338E+02  0.25987187222E+02  0.00000000000E+00 0.  1.
         11    1    3    3    0    0 -0.19479256981E+02 -0.69541662070E+01 -0.54765693838E+02  0.58541293988E+02  0.00000000000E+00 0. -1.
<mgrwt>
<rscale>  0 0.74976828E+02</rscale>
<asrwt>0</asrwt>
<pdfrwt beam="2">  1        1 0.95046942E-02 0.74976828E+02</pdfrwt>
<pdfrwt beam="1">  1       -1 0.34996875E-02 0.74976828E+02</pdfrwt>
<totfact> 0.16513209E+05</totfact>
</mgrwt>
</event>
<event>
 5    1  0.1242969E+001  0.9016587E+02  0.7546771E-02  0.1302451E+00
         -1   -1    0    0    0  501 -0.00000000000E+00  0.00000000000E+00  0.60784795935E+02  0.60784795935E+02  0.00000000000E+00 0. -1.
          1   -1    0    0  501    0  0.00000000000E+00 -0.00000000000E+00 -0.33437163056E+02  0.33437163056E+02  0.00000000000E+00 0.  1.
         23    2    1    2    0    0  0.00000000000E+00  0.00000000000E+00  0.27347632879E+02  0.94221958991E+02  0.90165872324E+02 0.  0.
        -13    1    3    3    0    0 -0.35695824031E+02  0.21974019338E+02  0.31016210914E+02  0.52144555982E+02  0.00000000000E+00 0.  1.
         13    1    3    3    0    0  0.35695824031E+02 -0.21974019338E+02 -0.36685780343E+01  0.42077403009E+02  0.00000000000E+00 0. -1.
<mgrwt>
<rscale>  0 0.90165872E+02</rscale>
<asrwt>0</asrwt>
<pdfrwt beam="2">  1        1 0.51441789E-02 0.90165872E+02</pdfrwt>
<pdfrwt beam="1">  1       -1 0.93515071E-02 0.90165872E+02</pdfrwt>
<totfact> 0.91037664E+04</totfact>
</mgrwt>
</event>
<event>
 5    1  0.1242969E+001  0.8830051E+02  0.7546771E-02  0.1307020E+00
         -1   -1    0    0    0  501 -0.00000000000E+00  0.00000000000E+00  0.12129336290E+03  0.12129336290E+03  0.00000000000E+00 0.  1.
          1   -1    0    0  501    0  0.00000000000E+00 -0.00000000000E+00 -0.16070499576E+02  0.16070499576E+02  0.00000000000E+00 0. -1.
         23    2    1    2    0    0  0.00000000000E+00  0.00000000000E+00  0.10522286332E+03  0.13736386248E+03  0.88300508200E+02 0.  0.
        -11    1    3    3    0    0 -0.36466813668E+02 -0.23620319946E+02  0.64810761859E+02  0.78026808638E+02  0.00000000000E+00 0.  1.
         11    1    3    3    0    0  0.36466813668E+02  0.23620319946E+02  0.40412101464E+02  0.59337053838E+02  0.00000000000E+00 0. -1.
<mgrwt>
<rscale>  0 0.88300508E+02</rscale>
<asrwt>0</asrwt>
<pdfrwt beam="2">  1        1 0.24723846E-02 0.88300508E+02</pdfrwt>
<pdfrwt beam="1">  1       -1 0.18660517E-01 0.88300508E+02</pdfrwt>
<totfact> 0.85119077E+04</totfact>
</mgrwt>
</event>
<event>
 5    1  0.1242969E+001  0.9142751E+02  0.7546771E-02  0.1299431E+00
          1   -1    0    0  501    0  0.00000000000E+00  0.00000000000E+00  0.10844603283E+03  0.10844603283E+03  0.00000000000E+00 0. -1.
         -1   -1    0    0    0  501 -0.00000000000E+00 -0.00000000000E+00 -0.19269928442E+02  0.19269928442E+02  0.00000000000E+00 0.  1.
         23    2    1    2    0    0  0.00000000000E+00  0.00000000000E+00  0.89176104390E+02  0.12771596127E+03  0.91427507730E+02 0.  0.
        -11    1    3    3    0    0  0.19112675184E+02  0.27604412597E+02  0.87924891721E+02  0.94117397604E+02  0.00000000000E+00 0. -1.
         11    1    3    3    0    0 -0.19112675184E+02 -0.27604412597E+02  0.12512126689E+01  0.33598563670E+02  0.00000000000E+00 0.  1.
<mgrwt>
<rscale>  0 0.91427508E+02</rscale>
<asrwt>0</asrwt>
<pdfrwt beam="1">  1        1 0.16684005E-01 0.91427508E+02</pdfrwt>
<pdfrwt beam="2">  1       -1 0.29646044E-02 0.91427508E+02</pdfrwt>
<totfact> 0.10509499E+05</totfact>
</mgrwt>
</event>
<event>
 5    1  0.1242969E+001  0.8989717E+02  0.7546771E-02  0.1303101E+00
         -1   -1    0    0    0  501 -0.00000000000E+00  0.00000000000E+00  0.16969682490E+03  0.16969682490E+03  0.00000000000E+00 0.  1.
          1   -1    0    0  501    0  0.00000000000E+00 -0.00000000000E+00 -0.11905792011E+02  0.11905792011E+02  0.00000000000E+00 0. -1.
         23    2    1    2    0    0  0.00000000000E+00  0.00000000000E+00  0.15779103289E+03  0.18160261691E+03  0.89897165743E+02 0.  0.
        -11    1    3    3    0    0  0.36898516578E+02 -0.12556231108E+02  0.33669492470E+02  0.51505283113E+02  0.00000000000E+00 0. -1.
         11    1    3    3    0    0 -0.36898516578E+02  0.12556231108E+02  0.12412154042E+03  0.13009733380E+03  0.00000000000E+00 0.  1.
<mgrwt>
<rscale>  0 0.89897166E+02</rscale>
<asrwt>0</asrwt>
<pdfrwt beam="2">  1        1 0.18316604E-02 0.89897166E+02</pdfrwt>
<pdfrwt beam="1">  1       -1 0.26107202E-01 0.89897166E+02</pdfrwt>
<totfact> 0.75284841E+04</totfact>
</mgrwt>
</event>
<event>
 5    1  0.1242969E+001  0.9101434E+02  0.7546771E-02  0.1300414E+00
          3   -1    0    0  501    0  0.00000000000E+00  0.00000000000E+00  0.98551437346E+01  0.98551437346E+01  0.00000000000E+00 0. -1.
         -3   -1    0    0    0  501 -0.00000000000E+00 -0.00000000000E+00 -0.21013418166E+03  0.21013418166E+03  0.00000000000E+00 0.  1.
         23    2    1    2    0    0  0.00000000000E+00  0.00000000000E+00 -0.20027903792E+03  0.21998932539E+03  0.91014340931E+02 0.  0.
        -13    1    3    3    0    0  0.21927424468E+02  0.28456768124E+02 -0.32620922045E+02  0.48525500007E+02  0.00000000000E+00 0. -1.
         13    1    3    3    0    0 -0.21927424468E+02 -0.28456768124E+02 -0.16765811588E+03  0.17146382538E+03  0.00000000000E+00 0.  1.
<mgrwt>
<rscale>  0 0.91014341E+02</rscale>
<asrwt>0</asrwt>
<pdfrwt beam="1">  1        3 0.15161761E-02 0.91014341E+02</pdfrwt>
<pdfrwt beam="2">  1       -3 0.32328333E-01 0.91014341E+02</pdfrwt>
<totfact> 0.27627334E+04</totfact>
</mgrwt>
</event>
<event>
 5    1  0.1242969E+001  0.9457537E+02  0.7546771E-02  0.1292135E+00
          1   -1    0    0  501    0  0.00000000000E+00  0.00000000000E+00  0.11703877666E+02  0.11703877666E+02  0.00000000000E+00 0. -1.
         -1   -1    0    0    0  501 -0.00000000000E+00 -0.00000000000E+00 -0.19105848305E+03  0.19105848305E+03  0.00000000000E+00 0.  1.
         23    2    1    2    0    0  0.00000000000E+00  0.00000000000E+00 -0.17935460538E+03  0.20276236072E+03  0.94575369152E+02 0.  0.
        -13    1    3    3    0    0 -0.36782593637E+02 -0.52810874110E+01 -0.15237656701E+03  0.15684217307E+03  0.00000000000E+00 0.  1.
         13    1    3    3    0    0  0.36782593637E+02  0.52810874110E+01 -0.26978038370E+02  0.45920187643E+02  0.00000000000E+00 0. -1.
<mgrwt>
<rscale>  0 0.94575369E+02</rscale>
<asrwt>0</asrwt>
<pdfrwt beam="1">  1        1 0.18005967E-02 0.94575369E+02</pdfrwt>
<pdfrwt beam="2">  1       -1 0.29393611E-01 0.94575369E+02</pdfrwt>
<totfact> 0.63920754E+04</totfact>
</mgrwt>
</event>
<event>
 5    1  0.1242969E+001  0.8983314E+02  0.7546771E-02  0.1303256E+00
         -1   -1    0    0    0  501 -0.00000000000E+00  0.00000000000E+00  0.10746035344E+03  0.10746035344E+03  0.00000000000E+00 0.  1.
          1   -1    0    0  501    0  0.00000000000E+00 -0.00000000000E+00 -0.18774349200E+02  0.18774349200E+02  0.00000000000E+00 0. -1.
         23    2    1    2    0    0  0.00000000000E+00  0.00000000000E+00  0.88686004240E+02  0.12623470264E+03  0.89833138666E+02 0.  0.
        -13    1    3    3    0    0  0.43744768761E+02 -0.90437576139E+01  0.50949574519E+02  0.67758789020E+02  0.00000000000E+00 0.  1.
         13    1    3    3    0    0 -0.43744768761E+02  0.90437576139E+01  0.37736429721E+02  0.58475913621E+02  0.00000000000E+00 0. -1.
<mgrwt>
<rscale>  0 0.89833139E+02</rscale>
<asrwt>0</asrwt>
<pdfrwt beam="2">  1        1 0.28883615E-02 0.89833139E+02</pdfrwt>
<pdfrwt beam="1">  1       -1 0.16532362E-01 0.89833139E+02</pdfrwt>
<totfact> 0.83400191E+04</totfact>
</mgrwt>
</event>
<event>
 5    1  0.1242969E+001  0.9216952E+02  0.7546771E-02  0.1297681E+00
         -1   -1    0    0    0  501 -0.00000000000E+00  0.00000000000E+00  0.62658060532E+02  0.62658060532E+02  0.00000000000E+00 0.  1.
          1   -1    0    0  501    0  0.00000000000E+00 -0.00000000000E+00 -0.33895161046E+02  0.33895161046E+02  0.00000000000E+00 0. -1.
         23    2    1    2    0    0  0.00000000000E+00  0.00000000000E+00  0.28762899486E+02  0.96553221578E+02  0.92169518879E+02 0.  0.
        -11    1    3    3    0    0  0.21809629633E+02  0.34123500802E+02 -0.86585127656E+01  0.41413078791E+02  0.00000000000E+00 0.  1.
         11    1    3    3    0    0 -0.21809629633E+02 -0.34123500802E+02  0.37421412251E+02  0.55140142787E+02  0.00000000000E+00 0. -1.
<mgrwt>
<rscale>  0 0.92169519E+02</rscale>
<asrwt>0</asrwt>
<pdfrwt beam="2">  1        1 0.52146402E-02 0.92169519E+02</pdfrwt>
<pdfrwt beam="1">  1       -1 0.96397016E-02 0.92169519E+02</pdfrwt>
<totfact> 0.85689374E+04</totfact>
</mgrwt>
</event>
<event>
 5    1  0.1242969E+001  0.9066333E+02  0.7546771E-02  0.1301253E+00
          1   -1    0    0  501    0  0.00000000000E+00  0.00000000000E+00  0.74092002064E+02  0.74092002064E+02  0.00000000000E+00 0. -1.
         -1   -1    0    0    0  501 -0.00000000000E+00 -0.00000000000E+00 -0.27735244684E+02  0.27735244684E+02  0.00000000000E+00 0.  1.
         23    2    1    2    0    0  0.00000000000E+00  0.00000000000E+00  0.46356757380E+02  0.10182724675E+03  0.90663329000E+02 0.  0.
        -11    1    3    3    0    0 -0.44224553737E+02 -0.91177587741E+01  0.18683711415E+02  0.48867430365E+02  0.00000000000E+00 0.  1.
         11    1    3    3    0    0  0.44224553737E+02  0.91177587741E+01  0.27673045965E+02  0.52959816383E+02  0.00000000000E+00 0. -1.
<mgrwt>
<rscale>  0 0.90663329E+02</rscale>
<asrwt>0</asrwt>
<pdfrwt beam="1">  1        1 0.11398769E-01 0.90663329E+02</pdfrwt>
<pdfrwt beam="2">  1       -1 0.42669608E-02 0.90663329E+02</pdfrwt>
<totfact> 0.10109814E+05</totfact>
</mgrwt>
</event>
<event>
 5    1  0.1242969E+001  0.8159607E+02  0.7546771E-02  0.1324582E+00
          2   -1    0    0  501    0  0.00000000000E+00  0.00000000000E+00  0.12281623441E+02  0.12281623441E+02  0.00000000000E+00 0.  1.
         -2   -1    0    0    0  501 -0.00000000000E+00 -0.00000000000E+00 -0.13552602996E+03  0.13552602996E+03  0.00000000000E+00 0. -1.
         23    2    1    2    0    0  0.00000000000E+00  0.00000000000E+00 -0.12324440652E+03  0.14780765340E+03  0.81596070161E+02 0.  0.
        -13    1    3    3    0    0 -0.17642063329E+02  0.36539186607E+02 -0.69334220746E+02  0.80334231327E+02  0.00000000000E+00 0.  1.
         13    1    3    3    0    0  0.17642063329E+02 -0.36539186607E+02 -0.53910185772E+02  0.67473422074E+02  0.00000000000E+00 0. -1.
<mgrwt>
<rscale>  0 0.81596070E+02</rscale>
<asrwt>0</asrwt>
<pdfrwt beam="1">  1        2 0.18894806E-02 0.81596070E+02</pdfrwt>
<pdfrwt beam="2">  1       -2 0.20850158E-01 0.81596070E+02</pdfrwt>
<totfact> 0.95781398E+04</totfact>
</mgrwt>
</event>
<event>
 5    1  0.1242969E+001  0.9213784E+02  0.7546771E-02  0.1297756E+00
          4   -1    0    0  501    0  0.00000000000E+00  0.00000000000E+00  0.91034201663E+01  0.91034201663E+01  0.00000000000E+00 0.  1.
         -4   -1    0    0    0  501 -0.00000000000E+00 -0.00000000000E+00 -0.23313715537E+03  0.23313715537E+03  0.00000000000E+00 0. -1.
         23    2    1    2    0    0  0.00000000000E+00  0.00000000000E+00 -0.22403373520E+03  0.24224057553E+03  0.92137841990E+02 0.  0.
        -11    1    3    3    0    0  0.26145958049E+02  0.31214505472E+02 -0.55360357574E+02  0.68722090080E+02  0.00000000000E+00 0.  1.
         11    1    3    3    0    0 -0.26145958049E+02 -0.31214505472E+02 -0.16867337762E+03  0.17351848545E+03  0.00000000000E+00 0. -1.
<mgrwt>
<rscale>  0 0.92137842E+02</rscale>
<asrwt>0</asrwt>
<pdfrwt beam="1">  1        4 0.14005266E-02 0.92137842E+02</pdfrwt>
<pdfrwt beam="2">  1       -4 0.35867243E-01 0.92137842E+02</pdfrwt>
<totfact> 0.19196064E+04</totfact>
</mgrwt>
</event>
<event>
 5    1  0.1242969E+001  0.8853944E+02  0.7546771E-02  0.1306428E+00
         -2   -1    0    0    0  501 -0.00000000000E+00  0.00000000000E+00  0.14450944313E+02  0.14450944313E+02  0.00000000000E+00 0.  1.
          2   -1    0    0  501    0  0.00000000000E+00 -0.00000000000E+00 -0.13561799149E+03  0.13561799149E+03  0.00000000000E+00 0. -1.
         23    2    1    2    0    0  0.00000000000E+00  0.00000000000E+00 -0.12116704718E+03  0.15006893580E+03  0.88539438508E+02 0.  0.
        -11    1    3    3    0    0  0.43323599727E+02  0.14598522553E+01 -0.75813714700E+02  0.87331465111E+02  0.00000000000E+00 0. -1.
         11    1    3    3    0    0 -0.43323599727E+02 -0.14598522553E+01 -0.45353332477E+02  0.62737470691E+02  0.00000000000E+00 0.  1.
<mgrwt>
<rscale>  0 0.88539439E+02</rscale>
<asrwt>0</asrwt>
<pdfrwt beam="2">  1        2 0.20864307E-01 0.88539439E+02</pdfrwt>
<pdfrwt beam="1">  1       -2 0.22232222E-02 0.88539439E+02</pdfrwt>
<totfact> 0.14636763E+05</totfact>
</mgrwt>
</event>
<event>
 5    1  0.1242969E+001  0.9198664E+02  0.7546771E-02  0.1298111E+00
         -1   -1    0    0    0  501 -0.00000000000E+00  0.00000000000E+00  0.10666160668E+02  0.10666160668E+02  0.00000000000E+00 0.  1.
          1   -1    0    0  501    0  0.00000000000E+00 -0.00000000000E+00 -0.19832680494E+03  0.19832680494E+03  0.00000000000E+00 0. -1.
         23    2    1    2    0    0  0.00000000000E+00  0.00000000000E+00 -0.18766064427E+03  0.20899296561E+03  0.91986641776E+02 0.  0.
        -11    1    3    3    0    0 -0.30516551504E+02 -0.21337349731E+02 -0.32493122406E+02  0.49420091187E+02  0.00000000000E+00 0.  1.
         11    1    3    3    0    0  0.30516551504E+02  0.21337349731E+02 -0.15516752187E+03  0.15957287442E+03  0.00000000000E+00 0. -1.
<mgrwt>
<rscale>  0 0.91986642E+02</rscale>
<asrwt>0</asrwt>
<pdfrwt beam="2">  1        1 0.30511817E-01 0.91986642E+02</pdfrwt>
<pdfrwt beam="1">  1       -1 0.16409478E-02 0.91986642E+02</pdfrwt>
<totfact> 0.11543910E+05</totfact>
</mgrwt>
</event>
<event>
 5    1  0.1242969E+001  0.9019366E+02  0.7546771E-02  0.1302383E+00
          3   -1    0    0  501    0  0.00000000000E+00  0.00000000000E+00  0.90832983433E+02  0.90832983433E+02  0.00000000000E+00 0. -1.
         -3   -1    0    0    0  501 -0.00000000000E+00 -0.00000000000E+00 -0.22389706859E+02  0.22389706859E+02  0.00000000000E+00 0.  1.
         23    2    1    2    0    0  0.00000000000E+00  0.00000000000E+00  0.68443276574E+02  0.11322269029E+03  0.90193655480E+02 0.  0.
        -11    1    3    3    0    0 -0.24551252558E+02  0.63666963625E+01  0.81030844063E+02  0.84907576307E+02  0.00000000000E+00 0. -1.
         11    1    3    3    0    0  0.24551252558E+02 -0.63666963625E+01 -0.12587567489E+02  0.28315113986E+02  0.00000000000E+00 0.  1.
<mgrwt>
<rscale>  0 0.90193655E+02</rscale>
<asrwt>0</asrwt>
<pdfrwt beam="1">  1        3 0.13974305E-01 0.90193655E+02</pdfrwt>
<pdfrwt beam="2">  1       -3 0.34445703E-02 0.90193655E+02</pdfrwt>
<totfact> 0.34722609E+04</totfact>
</mgrwt>
</event>
<event>
 5    1  0.1242969E+001  0.9146976E+02  0.7546771E-02  0.1299331E+00
         -1   -1    0    0    0  501 -0.00000000000E+00  0.00000000000E+00  0.12322894280E+02  0.12322894280E+02  0.00000000000E+00 0.  1.
          1   -1    0    0  501    0  0.00000000000E+00 -0.00000000000E+00 -0.16973928474E+03  0.16973928474E+03  0.00000000000E+00 0. -1.
         23    2    1    2    0    0  0.00000000000E+00  0.00000000000E+00 -0.15741639046E+03  0.18206217902E+03  0.91469760272E+02 0.  0.
        -13    1    3    3    0    0 -0.12418378840E+02 -0.35887810907E+02 -0.12943542972E+03  0.13489136953E+03  0.00000000000E+00 0. -1.
         13    1    3    3    0    0  0.12418378840E+02  0.35887810907E+02 -0.27980960738E+02  0.47170809497E+02  0.00000000000E+00 0.  1.
<mgrwt>
<rscale>  0 0.91469760E+02</rscale>
<asrwt>0</asrwt>
<pdfrwt beam="2">  1        1 0.26113736E-01 0.91469760E+02</pdfrwt>
<pdfrwt beam="1">  1       -1 0.18958299E-02 0.91469760E+02</pdfrwt>
<totfact> 0.11375547E+05</totfact>
</mgrwt>
</event>
<event>
 5    1  0.1242969E+001  0.9048869E+02  0.7546771E-02  0.1301673E+00
         -1   -1    0    0    0  501 -0.00000000000E+00  0.00000000000E+00  0.85146733093E+02  0.85146733093E+02  0.00000000000E+00 0.  1.
          1   -1    0    0  501    0  0.00000000000E+00 -0.00000000000E+00 -0.24041448309E+02  0.24041448309E+02  0.00000000000E+00 0. -1.
         23    2    1    2    0    0  0.00000000000E+00  0.00000000000E+00  0.61105284784E+02  0.10918818140E+03  0.90488690616E+02 0.  0.
        -11    1    3    3    0    0  0.26599504285E+02 -0.28949243318E+02  0.57573480305E+02  0.69715837163E+02  0.00000000000E+00 0.  1.
         11    1    3    3    0    0 -0.26599504285E+02  0.28949243318E+02  0.35318044788E+01  0.39472344239E+02  0.00000000000E+00 0. -1.
<mgrwt>
<rscale>  0 0.90488691E+02</rscale>
<asrwt>0</asrwt>
<pdfrwt beam="2">  1        1 0.36986844E-02 0.90488691E+02</pdfrwt>
<pdfrwt beam="1">  1       -1 0.13099497E-01 0.90488691E+02</pdfrwt>
<totfact> 0.85394077E+04</totfact>
</mgrwt>
</event>
<event>
 5    1  0.1242969E+001  0.9317186E+02  0.7546771E-02  0.1295347E+00
          1   -1    0    0  501    0  0.00000000000E+00  0.00000000000E+00  0.32007843475E+02  0.32007843475E+02  0.00000000000E+00 0. -1.
         -1   -1    0    0    0  501 -0.00000000000E+00 -0.00000000000E+00 -0.67803663736E+02  0.67803663736E+02  0.00000000000E+00 0.  1.
         23    2    1    2    0    0  0.00000000000E+00  0.00000000000E+00 -0.35795820260E+02  0.99811507211E+02  0.93171863906E+02 0.  0.
        -11    1    3    3    0    0  0.36781377990E+02 -0.17329143239E+02  0.64619469127E+01  0.41169475709E+02  0.00000000000E+00 0. -1.
         11    1    3    3    0    0 -0.36781377990E+02  0.17329143239E+02 -0.42257767173E+02  0.58642031502E+02  0.00000000000E+00 0.  1.
<mgrwt>
<rscale>  0 0.93171864E+02</rscale>
<asrwt>0</asrwt>
<pdfrwt beam="1">  1        1 0.49242837E-02 0.93171864E+02</pdfrwt>
<pdfrwt beam="2">  1       -1 0.10431333E-01 0.93171864E+02</pdfrwt>
<totfact> 0.82314614E+04</totfact>
</mgrwt>
</event>
<event>
 5    1  0.1242969E+001  0.9130160E+02  0.7546771E-02  0.1299730E+00
          4   -1    0    0  501    0  0.00000000000E+00  0.00000000000E+00  0.11292002292E+03  0.11292002292E+03  0.00000000000E+00 0. -1.
         -4   -1    0    0    0  501 -0.00000000000E+00 -0.00000000000E+00 -0.18455502404E+02  0.18455502404E+02  0.00000000000E+00 0.  1.
         23    2    1    2    0    0  0.00000000000E+00  0.00000000000E+00  0.94464520517E+02  0.13137552532E+03  0.91301604684E+02 0.  0.
        -11    1    3    3    0    0  0.11750128067E+02 -0.25411350986E+02 -0.46525279088E+01  0.28380420795E+02  0.00000000000E+00 0.  1.
         11    1    3    3    0    0 -0.11750128067E+02  0.25411350986E+02  0.99117048426E+02  0.10299510453E+03  0.00000000000E+00 0. -1.
<mgrwt>
<rscale>  0 0.91301605E+02</rscale>
<asrwt>0</asrwt>
<pdfrwt beam="1">  1        4 0.17372311E-01 0.91301605E+02</pdfrwt>
<pdfrwt beam="2">  1       -4 0.28393081E-02 0.91301605E+02</pdfrwt>
<totfact> 0.24552360E+04</totfact>
</mgrwt>
</event>
<event>
 5    1  0.1242969E+001  0.9016847E+02  0.7546771E-02  0.1302444E+00
          1   -1    0    0  501    0  0.00000000000E+00  0.00000000000E+00  0.76296804002E+02  0.76296804002E+02  0.00000000000E+00 0. -1.
         -1   -1    0    0    0  501 -0.00000000000E+00 -0.00000000000E+00 -0.26640542777E+02  0.26640542777E+02  0.00000000000E+00 0.  1.
         23    2    1    2    0    0  0.00000000000E+00  0.00000000000E+00  0.49656261225E+02  0.10293734678E+03  0.90168470559E+02 0.  0.
        -11    1    3    3    0    0  0.44504127738E+02 -0.72053861080E+01  0.25091682210E+02  0.51595808850E+02  0.00000000000E+00 0.  1.
         11    1    3    3    0    0 -0.44504127738E+02  0.72053861080E+01  0.24564579015E+02  0.51341537929E+02  0.00000000000E+00 0. -1.
<mgrwt>
<rscale>  0 0.90168471E+02</rscale>
<asrwt>0</asrwt>
<pdfrwt beam="1">  1        1 0.11737970E-01 0.90168471E+02</pdfrwt>
<pdfrwt beam="2">  1       -1 0.40985451E-02 0.90168471E+02</pdfrwt>
<totfact> 0.10309655E+05</totfact>
</mgrwt>
</event>
<event>
 5    1  0.1242969E+001  0.9282147E+02  0.7546771E-02  0.1296159E+00
          4   -1    0    0  501    0  0.00000000000E+00  0.00000000000E+00  0.88142623176E+02  0.88142623176E+02  0.00000000000E+00 0.  1.
         -4   -1    0    0    0  501 -0.00000000000E+00 -0.00000000000E+00 -0.24437169505E+02  0.24437169505E+02  0.00000000000E+00 0. -1.
         23    2    1    2    0    0  0.00000000000E+00  0.00000000000E+00  0.63705453671E+02  0.11257979268E+03  0.92821467844E+02 0.  0.
        -11    1    3    3    0    0 -0.41865533228E+02 -0.10341669443E+02  0.11046431195E+02  0.44516251431E+02  0.00000000000E+00 0. -1.
         11    1    3    3    0    0  0.41865533228E+02  0.10341669443E+02  0.52659022476E+02  0.68063541250E+02  0.00000000000E+00 0.  1.
<mgrwt>
<rscale>  0 0.92821468E+02</rscale>
<asrwt>0</asrwt>
<pdfrwt beam="1">  1        4 0.13560403E-01 0.92821468E+02</pdfrwt>
<pdfrwt beam="2">  1       -4 0.37595646E-02 0.92821468E+02</pdfrwt>
<totfact> 0.24483897E+04</totfact>
</mgrwt>
</event>
<event>
 5    1  0.1242969E+001  0.9589083E+02  0.7546771E-02  0.1289182E+00
         -2   -1    0    0    0  501 -0.00000000000E+00  0.00000000000E+00  0.49078897774E+02  0.49078897774E+02  0.00000000000E+00 0.  1.
          2   -1    0    0  501    0  0.00000000000E+00 -0.00000000000E+00 -0.46838108416E+02  0.46838108416E+02  0.00000000000E+00 0. -1.
         23    2    1    2    0    0  0.00000000000E+00  0.00000000000E+00  0.22407893582E+01  0.95917006189E+02  0.95890828234E+02 0.  0.
        -11    1    3    3    0    0  0.17079713051E+02 -0.44679120113E+02 -0.21702394013E+01  0.47881628116E+02  0.00000000000E+00 0.  1.
         11    1    3    3    0    0 -0.17079713051E+02  0.44679120113E+02  0.44110287596E+01  0.48035378074E+02  0.00000000000E+00 0. -1.
<mgrwt>
<rscale>  0 0.95890828E+02</rscale>
<asrwt>0</asrwt>
<pdfrwt beam="2">  1        2 0.72058628E-02 0.95890828E+02</pdfrwt>
<pdfrwt beam="1">  1       -2 0.75505996E-02 0.95890828E+02</pdfrwt>
<totfact> 0.85934892E+04</totfact>
</mgrwt>
</event>
<event>
 5    1  0.1242969E+001  0.9069579E+02  0.7546771E-02  0.1301175E+00
         -1   -1    0    0    0  501 -0.00000000000E+00  0.00000000000E+00  0.41462156601E+02  0.41462156601E+02  0.00000000000E+00 0.  1.
          1   -1    0    0  501    0  0.00000000000E+00 -0.00000000000E+00 -0.49597800971E+02  0.49597800971E+02  0.00000000000E+00 0. -1.
         23    2    1    2    0    0  0.00000000000E+00  0.00000000000E+00 -0.81356443701E+01  0.91059957572E+02  0.90695794631E+02 0.  0.
        -11    1    3    3    0    0 -0.20648866307E+02  0.31773613809E+02 -0.29077548455E+02  0.47764443244E+02  0.00000000000E+00 0. -1.
         11    1    3    3    0    0  0.20648866307E+02 -0.31773613809E+02  0.20941904085E+02  0.43295514328E+02  0.00000000000E+00 0.  1.
<mgrwt>
<rscale>  0 0.90695795E+02</rscale>
<asrwt>0</asrwt>
<pdfrwt beam="2">  1        1 0.76304308E-02 0.90695795E+02</pdfrwt>
<pdfrwt beam="1">  1       -1 0.63787934E-02 0.90695795E+02</pdfrwt>
<totfact> 0.95044686E+04</totfact>
</mgrwt>
</event>
<event>
 5    1  0.1242969E+001  0.9160302E+02  0.7546771E-02  0.1299016E+00
          2   -1    0    0  501    0  0.00000000000E+00  0.00000000000E+00  0.78172042879E+01  0.78172042879E+01  0.00000000000E+00 0. -1.
         -2   -1    0    0    0  501 -0.00000000000E+00 -0.00000000000E+00 -0.26835401059E+03  0.26835401059E+03  0.00000000000E+00 0.  1.
         23    2    1    2    0    0  0.00000000000E+00  0.00000000000E+00 -0.26053680631E+03  0.27617121488E+03  0.91603015721E+02 0.  0.
        -13    1    3    3    0    0  0.22069829008E+02  0.30309452536E+02 -0.50957377712E+02  0.63264481416E+02  0.00000000000E+00 0.  1.
         13    1    3    3    0    0 -0.22069829008E+02 -0.30309452536E+02 -0.20957942859E+03  0.21290673347E+03  0.00000000000E+00 0. -1.
<mgrwt>
<rscale>  0 0.91603016E+02</rscale>
<asrwt>0</asrwt>
<pdfrwt beam="1">  1        2 0.12026467E-02 0.91603016E+02</pdfrwt>
<pdfrwt beam="2">  1       -2 0.41285236E-01 0.91603016E+02</pdfrwt>
<totfact> 0.53533898E+04</totfact>
</mgrwt>
</event>
<event>
 5    1  0.1242969E+001  0.9096130E+02  0.7546771E-02  0.1300540E+00
         -1   -1    0    0    0  501 -0.00000000000E+00  0.00000000000E+00  0.11670014136E+02  0.11670014136E+02  0.00000000000E+00 0.  1.
          1   -1    0    0  501    0  0.00000000000E+00 -0.00000000000E+00 -0.17724826063E+03  0.17724826063E+03  0.00000000000E+00 0. -1.
         23    2    1    2    0    0  0.00000000000E+00  0.00000000000E+00 -0.16557824650E+03  0.18891827477E+03  0.90961304018E+02 0.  0.
        -11    1    3    3    0    0 -0.22269808617E+02 -0.32448452562E+02 -0.35444578869E+02  0.52963804818E+02  0.00000000000E+00 0.  1.
         11    1    3    3    0    0  0.22269808617E+02  0.32448452562E+02 -0.13013366763E+03  0.13595446995E+03  0.00000000000E+00 0. -1.
<mgrwt>
<rscale>  0 0.90961304E+02</rscale>
<asrwt>0</asrwt>
<pdfrwt beam="2">  1        1 0.27268961E-01 0.90961304E+02</pdfrwt>
<pdfrwt beam="1">  1       -1 0.17953869E-02 0.90961304E+02</pdfrwt>
<totfact> 0.11642362E+05</totfact>
</mgrwt>
</event>
<event>
 5    1  0.1242969E+001  0.8816459E+02  0.7546771E-02  0.1307358E+00
         -1   -1    0    0    0  501 -0.00000000000E+00  0.00000000000E+00  0.19024565062E+02  0.19024565062E+02  0.00000000000E+00 0.  1.
          1   -1    0    0  501    0  0.00000000000E+00 -0.00000000000E+00 -0.10214417631E+03  0.10214417631E+03  0.00000000000E+00 0. -1.
         23    2    1    2    0    0  0.00000000000E+00  0.00000000000E+00 -0.83119611252E+02  0.12116874138E+03  0.88164585363E+02 0.  0.
        -13    1    3    3    0    0  0.30675360361E+02  0.25893605821E+02 -0.16525856551E+02  0.43411524858E+02  0.00000000000E+00 0.  1.
         13    1    3    3    0    0 -0.30675360361E+02 -0.25893605821E+02 -0.66593754700E+02  0.77757216519E+02  0.00000000000E+00 0. -1.
<mgrwt>
<rscale>  0 0.88164585E+02</rscale>
<asrwt>0</asrwt>
<pdfrwt beam="2">  1        1 0.15714489E-01 0.88164585E+02</pdfrwt>
<pdfrwt beam="1">  1       -1 0.29268561E-02 0.88164585E+02</pdfrwt>
<totfact> 0.11483757E+05</totfact>
</mgrwt>
</event>
<event>
 5    1  0.1242969E+001  0.9095250E+02  0.7546771E-02  0.1300561E+00
          1   -1    0    0  501    0  0.00000000000E+00  0.00000000000E+00  0.85629527487E+02  0.85629527487E+02  0.00000000000E+00 0. -1.
         -1   -1    0    0    0  501 -0.00000000000E+00 -0.00000000000E+00 -0.24151593195E+02  0.24151593195E+02  0.00000000000E+00 0.  1.
         23    2    1    2    0    0  0.00000000000E+00  0.00000000000E+00  0.61477934292E+02  0.10978112068E+03  0.90952504383E+02 0.  0.
        -13    1    3    3    0    0  0.22701933780E+02  0.25762990106E+01 -0.16721082972E+02  0.28312713217E+02  0.00000000000E+00 0.  1.
         13    1    3    3    0    0 -0.22701933780E+02 -0.25762990106E+01  0.78199017264E+02  0.81468407466E+02  0.00000000000E+00 0. -1.
<mgrwt>
<rscale>  0 0.90952504E+02</rscale>
<asrwt>0</asrwt>
<pdfrwt beam="1">  1        1 0.13173773E-01 0.90952504E+02</pdfrwt>
<pdfrwt beam="2">  1       -1 0.37156298E-02 0.90952504E+02</pdfrwt>
<totfact> 0.10252912E+05</totfact>
</mgrwt>
</event>
<event>
 5    1  0.1242969E+001  0.8520032E+02  0.7546771E-02  0.1314910E+00
         -1   -1    0    0    0  501 -0.00000000000E+00  0.00000000000E+00  0.64420585668E+01  0.64420585668E+01  0.00000000000E+00 0.  1.
          1   -1    0    0  501    0  0.00000000000E+00 -0.00000000000E+00 -0.28170711185E+03  0.28170711185E+03  0.00000000000E+00 0. -1.
         23    2    1    2    0    0  0.00000000000E+00  0.00000000000E+00 -0.27526505328E+03  0.28814917042E+03  0.85200321906E+02 0.  0.
        -13    1    3    3    0    0 -0.37960349890E+02  0.11005470278E+01 -0.72352155982E+02  0.81713119159E+02  0.00000000000E+00 0.  1.
         13    1    3    3    0    0  0.37960349890E+02 -0.11005470278E+01 -0.20291289730E+03  0.20643605126E+03  0.00000000000E+00 0. -1.
<mgrwt>
<rscale>  0 0.85200322E+02</rscale>
<asrwt>0</asrwt>
<pdfrwt beam="2">  1        1 0.43339549E-01 0.85200322E+02</pdfrwt>
<pdfrwt beam="1">  1       -1 0.99108608E-03 0.85200322E+02</pdfrwt>
<totfact> 0.15155738E+05</totfact>
</mgrwt>
</event>
<event>
 5    1  0.1242969E+001  0.9312716E+02  0.7546771E-02  0.1295451E+00
         -3   -1    0    0    0  501 -0.00000000000E+00  0.00000000000E+00  0.10766402390E+02  0.10766402390E+02  0.00000000000E+00 0.  1.
          3   -1    0    0  501    0  0.00000000000E+00 -0.00000000000E+00 -0.20138270280E+03  0.20138270280E+03  0.00000000000E+00 0. -1.
         23    2    1    2    0    0  0.00000000000E+00  0.00000000000E+00 -0.19061630041E+03  0.21214910519E+03  0.93127164945E+02 0.  0.
        -13    1    3    3    0    0 -0.41310391687E+02  0.21409895085E+02 -0.99405580888E+02  0.10975610043E+03  0.00000000000E+00 0. -1.
         13    1    3    3    0    0  0.41310391687E+02 -0.21409895085E+02 -0.91210719518E+02  0.10239300476E+03  0.00000000000E+00 0.  1.
<mgrwt>
<rscale>  0 0.93127165E+02</rscale>
<asrwt>0</asrwt>
<pdfrwt beam="2">  1        3 0.30981953E-01 0.93127165E+02</pdfrwt>
<pdfrwt beam="1">  1       -3 0.16563697E-02 0.93127165E+02</pdfrwt>
<totfact> 0.26332049E+04</totfact>
</mgrwt>
</event>
<event>
 5    1  0.1242969E+001  0.9245218E+02  0.7546771E-02  0.1297020E+00
          2   -1    0    0  501    0  0.00000000000E+00  0.00000000000E+00  0.13951180063E+02  0.13951180063E+02  0.00000000000E+00 0. -1.
         -2   -1    0    0    0  501 -0.00000000000E+00 -0.00000000000E+00 -0.15316634936E+03  0.15316634936E+03  0.00000000000E+00 0.  1.
         23    2    1    2    0    0  0.00000000000E+00  0.00000000000E+00 -0.13921516930E+03  0.16711752943E+03  0.92452178332E+02 0.  0.
        -13    1    3    3    0    0  0.79833424088E+01  0.36291458201E+02 -0.11931022211E+03  0.12496292568E+03  0.00000000000E+00 0.  1.
         13    1    3    3    0    0 -0.79833424088E+01 -0.36291458201E+02 -0.19904947189E+02  0.42154603746E+02  0.00000000000E+00 0. -1.
<mgrwt>
<rscale>  0 0.92452178E+02</rscale>
<asrwt>0</asrwt>
<pdfrwt beam="1">  1        2 0.21463354E-02 0.92452178E+02</pdfrwt>
<pdfrwt beam="2">  1       -2 0.23564053E-01 0.92452178E+02</pdfrwt>
<totfact> 0.66924652E+04</totfact>
</mgrwt>
</event>
<event>
 5    1  0.1242969E+001  0.9511159E+02  0.7546771E-02  0.1290925E+00
         -2   -1    0    0    0  501 -0.00000000000E+00  0.00000000000E+00  0.34988006303E+02  0.34988006303E+02  0.00000000000E+00 0.  1.
          2   -1    0    0  501    0  0.00000000000E+00 -0.00000000000E+00 -0.64637968398E+02  0.64637968398E+02  0.00000000000E+00 0. -1.
         23    2    1    2    0    0  0.00000000000E+00  0.00000000000E+00 -0.29649962095E+02  0.99625974701E+02  0.95111590160E+02 0.  0.
        -11    1    3    3    0    0  0.55375536064E+01 -0.34741280047E+02  0.18692766630E+02  0.39837677687E+02  0.00000000000E+00 0.  1.
         11    1    3    3    0    0 -0.55375536064E+01  0.34741280047E+02 -0.48342728725E+02  0.59788297014E+02  0.00000000000E+00 0. -1.
<mgrwt>
<rscale>  0 0.95111590E+02</rscale>
<asrwt>0</asrwt>
<pdfrwt beam="2">  1        2 0.99443028E-02 0.95111590E+02</pdfrwt>
<pdfrwt beam="1">  1       -2 0.53827702E-02 0.95111590E+02</pdfrwt>
<totfact> 0.96060700E+04</totfact>
</mgrwt>
</event>
<event>
 5    1  0.1242969E+001  0.8503967E+02  0.7546771E-02  0.1315329E+00
         -2   -1    0    0    0  501 -0.00000000000E+00  0.00000000000E+00  0.27200120631E+02  0.27200120631E+02  0.00000000000E+00 0.  1.
          2   -1    0    0  501    0  0.00000000000E+00 -0.00000000000E+00 -0.66467956732E+02  0.66467956732E+02  0.00000000000E+00 0. -1.
         23    2    1    2    0    0  0.00000000000E+00  0.00000000000E+00 -0.39267836101E+02  0.93668077363E+02  0.85039671712E+02 0.  0.
        -11    1    3    3    0    0 -0.49699067800E+01 -0.36361681721E+02 -0.43284994201E+02  0.56749119764E+02  0.00000000000E+00 0. -1.
         11    1    3    3    0    0  0.49699067800E+01  0.36361681721E+02  0.40171580997E+01  0.36918957599E+02  0.00000000000E+00 0.  1.
<mgrwt>
<rscale>  0 0.85039672E+02</rscale>
<asrwt>0</asrwt>
<pdfrwt beam="2">  1        2 0.10225840E-01 0.85039672E+02</pdfrwt>
<pdfrwt beam="1">  1       -2 0.41846339E-02 0.85039672E+02</pdfrwt>
<totfact> 0.13242278E+05</totfact>
</mgrwt>
</event>
<event>
 5    1  0.1242969E+001  0.9074311E+02  0.7546771E-02  0.1301062E+00
         -1   -1    0    0    0  501 -0.00000000000E+00  0.00000000000E+00  0.15655912064E+03  0.15655912064E+03  0.00000000000E+00 0.  1.
          1   -1    0    0  501    0  0.00000000000E+00 -0.00000000000E+00 -0.13148886279E+02  0.13148886279E+02  0.00000000000E+00 0. -1.
         23    2    1    2    0    0  0.00000000000E+00  0.00000000000E+00  0.14341023436E+03  0.16970800691E+03  0.90743111543E+02 0.  0.
        -11    1    3    3    0    0  0.39206269162E+01  0.45199743094E+02  0.72520280851E+02  0.85542850232E+02  0.00000000000E+00 0.  1.
         11    1    3    3    0    0 -0.39206269162E+01 -0.45199743094E+02  0.70889953506E+02  0.84165156682E+02  0.00000000000E+00 0. -1.
<mgrwt>
<rscale>  0 0.90743112E+02</rscale>
<asrwt>0</asrwt>
<pdfrwt beam="2">  1        1 0.20229057E-02 0.90743112E+02</pdfrwt>
<pdfrwt beam="1">  1       -1 0.24086017E-01 0.90743112E+02</pdfrwt>
<totfact> 0.74954630E+04</totfact>
</mgrwt>
</event>
<event>
 5    1  0.1242969E+001  0.9193889E+02  0.7546771E-02  0.1298223E+00
         -2   -1    0    0    0  501 -0.00000000000E+00  0.00000000000E+00  0.15640828814E+03  0.15640828814E+03  0.00000000000E+00 0.  1.
          2   -1    0    0  501    0  0.00000000000E+00 -0.00000000000E+00 -0.13510728273E+02  0.13510728273E+02  0.00000000000E+00 0. -1.
         23    2    1    2    0    0  0.00000000000E+00  0.00000000000E+00  0.14289755987E+03  0.16991901642E+03  0.91938890156E+02 0.  0.
        -13    1    3    3    0    0  0.34693255038E+02  0.21287647339E+02  0.31965115462E+02  0.51754753221E+02  0.00000000000E+00 0. -1.
         13    1    3    3    0    0 -0.34693255038E+02 -0.21287647339E+02  0.11093244441E+03  0.11816426320E+03  0.00000000000E+00 0.  1.
<mgrwt>
<rscale>  0 0.91938890E+02</rscale>
<asrwt>0</asrwt>
<pdfrwt beam="2">  1        2 0.20785737E-02 0.91938890E+02</pdfrwt>
<pdfrwt beam="1">  1       -2 0.24062812E-01 0.91938890E+02</pdfrwt>
<totfact> 0.67350587E+04</totfact>
</mgrwt>
</event>
<event>
 5    1  0.1242969E+001  0.9147893E+02  0.7546771E-02  0.1299309E+00
          1   -1    0    0  501    0  0.00000000000E+00  0.00000000000E+00  0.42282065056E+02  0.42282065056E+02  0.00000000000E+00 0. -1.
         -1   -1    0    0    0  501 -0.00000000000E+00 -0.00000000000E+00 -0.49479572503E+02  0.49479572503E+02  0.00000000000E+00 0.  1.
         23    2    1    2    0    0  0.00000000000E+00  0.00000000000E+00 -0.71975074473E+01  0.91761637559E+02  0.91478926612E+02 0.  0.
        -13    1    3    3    0    0 -0.14064351477E+02 -0.31254844998E+01 -0.47144016565E+02  0.49296378505E+02  0.00000000000E+00 0.  1.
         13    1    3    3    0    0  0.14064351477E+02  0.31254844998E+01  0.39946509118E+02  0.42465259054E+02  0.00000000000E+00 0. -1.
<mgrwt>
<rscale>  0 0.91478927E+02</rscale>
<asrwt>0</asrwt>
<pdfrwt beam="1">  1        1 0.65049331E-02 0.91478927E+02</pdfrwt>
<pdfrwt beam="2">  1       -1 0.76122419E-02 0.91478927E+02</pdfrwt>
<totfact> 0.90580020E+04</totfact>
</mgrwt>
</event>
<event>
 5    1  0.1242969E+001  0.9052733E+02  0.7546771E-02  0.1301580E+00
          2   -1    0    0  501    0  0.00000000000E+00  0.00000000000E+00  0.13578279931E+03  0.13578279931E+03  0.00000000000E+00 0. -1.
         -2   -1    0    0    0  501 -0.00000000000E+00 -0.00000000000E+00 -0.15088800635E+02  0.15088800635E+02  0.00000000000E+00 0.  1.
         23    2    1    2    0    0  0.00000000000E+00  0.00000000000E+00  0.12069399867E+03  0.15087159994E+03  0.90527334840E+02 0.  0.
        -13    1    3    3    0    0 -0.13346740581E+01  0.44988482789E+02  0.52344843099E+02  0.69034249018E+02  0.00000000000E+00 0.  1.
         13    1    3    3    0    0  0.13346740581E+01 -0.44988482789E+02  0.68349155572E+02  0.81837350922E+02  0.00000000000E+00 0. -1.
<mgrwt>
<rscale>  0 0.90527335E+02</rscale>
<asrwt>0</asrwt>
<pdfrwt beam="1">  1        2 0.20889661E-01 0.90527335E+02</pdfrwt>
<pdfrwt beam="2">  1       -2 0.23213540E-02 0.90527335E+02</pdfrwt>
<totfact> 0.13786350E+05</totfact>
</mgrwt>
</event>
<event>
 5    1  0.1242969E+001  0.9087279E+02  0.7546771E-02  0.1300752E+00
         -3   -1    0    0    0  501 -0.00000000000E+00  0.00000000000E+00  0.32677012598E+02  0.32677012598E+02  0.00000000000E+00 0.  1.
          3   -1    0    0  501    0  0.00000000000E+00 -0.00000000000E+00 -0.63177928469E+02  0.63177928469E+02  0.00000000000E+00 0. -1.
         23    2    1    2    0    0  0.00000000000E+00  0.00000000000E+00 -0.30500915871E+02  0.95854941067E+02  0.90872789425E+02 0.  0.
        -13    1    3    3    0    0  0.17660134321E+02  0.34762961987E+02 -0.39855767061E+02  0.55756847457E+02  0.00000000000E+00 0. -1.
         13    1    3    3    0    0 -0.17660134321E+02 -0.34762961987E+02  0.93548511896E+01  0.40098093610E+02  0.00000000000E+00 0.  1.
<mgrwt>
<rscale>  0 0.90872789E+02</rscale>
<asrwt>0</asrwt>
<pdfrwt beam="2">  1        3 0.97196813E-02 0.90872789E+02</pdfrwt>
<pdfrwt beam="1">  1       -3 0.50272327E-02 0.90872789E+02</pdfrwt>
<totfact> 0.35300929E+04</totfact>
</mgrwt>
</event>
<event>
 5    1  0.1242969E+001  0.9324745E+02  0.7546771E-02  0.1295173E+00
         -1   -1    0    0    0  501 -0.00000000000E+00  0.00000000000E+00  0.18368900793E+02  0.18368900793E+02  0.00000000000E+00 0.  1.
          1   -1    0    0  501    0  0.00000000000E+00 -0.00000000000E+00 -0.11833977307E+03  0.11833977307E+03  0.00000000000E+00 0. -1.
         23    2    1    2    0    0  0.00000000000E+00  0.00000000000E+00 -0.99970872280E+02  0.13670867387E+03  0.93247446110E+02 0.  0.
        -11    1    3    3    0    0  0.16920921264E+02  0.25694066209E+02  0.13750345815E+01  0.30795995436E+02  0.00000000000E+00 0.  1.
         11    1    3    3    0    0 -0.16920921264E+02 -0.25694066209E+02 -0.10134590686E+03  0.10591267843E+03  0.00000000000E+00 0. -1.
<mgrwt>
<rscale>  0 0.93247446E+02</rscale>
<asrwt>0</asrwt>
<pdfrwt beam="2">  1        1 0.18206120E-01 0.93247446E+02</pdfrwt>
<pdfrwt beam="1">  1       -1 0.28259846E-02 0.93247446E+02</pdfrwt>
<totfact> 0.10111221E+05</totfact>
</mgrwt>
</event>
<event>
 5    1  0.1242969E+001  0.9063897E+02  0.7546771E-02  0.1301312E+00
          1   -1    0    0  501    0  0.00000000000E+00  0.00000000000E+00  0.62987472829E+01  0.62987472829E+01  0.00000000000E+00 0. -1.
         -1   -1    0    0    0  501 -0.00000000000E+00 -0.00000000000E+00 -0.32607368296E+03  0.32607368296E+03  0.00000000000E+00 0.  1.
         23    2    1    2    0    0  0.00000000000E+00  0.00000000000E+00 -0.31977493567E+03  0.33237243024E+03  0.90638970086E+02 0.  0.
        -13    1    3    3    0    0 -0.41151370270E+02  0.17295032705E+02 -0.18859847259E+03  0.19380902274E+03  0.00000000000E+00 0.  1.
         13    1    3    3    0    0  0.41151370270E+02 -0.17295032705E+02 -0.13117646308E+03  0.13856340750E+03  0.00000000000E+00 0. -1.
<mgrwt>
<rscale>  0 0.90638970E+02</rscale>
<asrwt>0</asrwt>
<pdfrwt beam="1">  1        1 0.96903802E-03 0.90638970E+02</pdfrwt>
<pdfrwt beam="2">  1       -1 0.50165183E-01 0.90638970E+02</pdfrwt>
<totfact> 0.59476133E+04</totfact>
</mgrwt>
</event>
<event>
 5    1  0.1242969E+001  0.9218864E+02  0.7546771E-02  0.1297637E+00
         -2   -1    0    0    0  501 -0.00000000000E+00  0.00000000000E+00  0.21292476101E+03  0.21292476101E+03  0.00000000000E+00 0.  1.
          2   -1    0    0  501    0  0.00000000000E+00 -0.00000000000E+00 -0.99785770425E+01  0.99785770425E+01  0.00000000000E+00 0. -1.
         23    2    1    2    0    0  0.00000000000E+00  0.00000000000E+00  0.20294618397E+03  0.22290333806E+03  0.92188635569E+02 0.  0.
        -13    1    3    3    0    0 -0.21597413875E+02 -0.25595560105E+02  0.17805257230E+03  0.18117477607E+03  0.00000000000E+00 0.  1.
         13    1    3    3    0    0  0.21597413875E+02  0.25595560105E+02  0.24893611676E+02  0.41728561986E+02  0.00000000000E+00 0. -1.
<mgrwt>
<rscale>  0 0.92188636E+02</rscale>
<asrwt>0</asrwt>
<pdfrwt beam="2">  1        2 0.15351659E-02 0.92188636E+02</pdfrwt>
<pdfrwt beam="1">  1       -2 0.32757652E-01 0.92188636E+02</pdfrwt>
<totfact> 0.58930773E+04</totfact>
</mgrwt>
</event>
<event>
 5    1  0.1242969E+001  0.9249563E+02  0.7546771E-02  0.1296918E+00
         -2   -1    0    0    0  501 -0.00000000000E+00  0.00000000000E+00  0.35974129118E+02  0.35974129118E+02  0.00000000000E+00 0.  1.
          2   -1    0    0  501    0  0.00000000000E+00 -0.00000000000E+00 -0.59455514866E+02  0.59455514866E+02  0.00000000000E+00 0. -1.
         23    2    1    2    0    0  0.00000000000E+00  0.00000000000E+00 -0.23481385748E+02  0.95429643984E+02  0.92495629487E+02 0.  0.
        -11    1    3    3    0    0  0.12176237076E+02  0.84224564890E+01 -0.56944442194E+02  0.58837641178E+02  0.00000000000E+00 0. -1.
         11    1    3    3    0    0 -0.12176237076E+02 -0.84224564890E+01  0.33463056446E+02  0.36592002806E+02  0.00000000000E+00 0.  1.
<mgrwt>
<rscale>  0 0.92495629E+02</rscale>
<asrwt>0</asrwt>
<pdfrwt beam="2">  1        2 0.91470023E-02 0.92495629E+02</pdfrwt>
<pdfrwt beam="1">  1       -2 0.55344814E-02 0.92495629E+02</pdfrwt>
<totfact> 0.10159873E+05</totfact>
</mgrwt>
</event>
<event>
 5    1  0.1242969E+001  0.9081591E+02  0.7546771E-02  0.1300888E+00
          1   -1    0    0  501    0  0.00000000000E+00  0.00000000000E+00  0.46599920587E+02  0.46599920587E+02  0.00000000000E+00 0. -1.
         -1   -1    0    0    0  501 -0.00000000000E+00 -0.00000000000E+00 -0.44246478973E+02  0.44246478973E+02  0.00000000000E+00 0.  1.
         23    2    1    2    0    0  0.00000000000E+00  0.00000000000E+00  0.23534416142E+01  0.90846399560E+02  0.90815910641E+02 0.  0.
        -11    1    3    3    0    0 -0.20744001304E+02  0.40274772576E+02  0.42618298457E+01  0.45503121758E+02  0.00000000000E+00 0.  1.
         11    1    3    3    0    0  0.20744001304E+02 -0.40274772576E+02 -0.19083882315E+01  0.45343277801E+02  0.00000000000E+00 0. -1.
<mgrwt>
<rscale>  0 0.90815911E+02</rscale>
<asrwt>0</asrwt>
<pdfrwt beam="1">  1        1 0.71692186E-02 0.90815911E+02</pdfrwt>
<pdfrwt beam="2">  1       -1 0.68071506E-02 0.90815911E+02</pdfrwt>
<totfact> 0.93814882E+04</totfact>
</mgrwt>
</event>
<event>
 5    1  0.1242969E+001  0.1059234E+03  0.7546771E-02  0.1268311E+00
          2   -1    0    0  501    0  0.00000000000E+00  0.00000000000E+00  0.86102687986E+02  0.86102687986E+02  0.00000000000E+00 0. -1.
         -2   -1    0    0    0  501 -0.00000000000E+00 -0.00000000000E+00 -0.32576687906E+02  0.32576687906E+02  0.00000000000E+00 0.  1.
         23    2    1    2    0    0  0.00000000000E+00  0.00000000000E+00  0.53526000080E+02  0.11867937589E+03  0.10592337597E+03 0.  0.
        -13    1    3    3    0    0 -0.16467926931E+02 -0.34666275827E+02  0.67654691846E+02  0.77782392775E+02  0.00000000000E+00 0. -1.
         13    1    3    3    0    0  0.16467926931E+02  0.34666275827E+02 -0.14128691766E+02  0.40896983117E+02  0.00000000000E+00 0.  1.
<mgrwt>
<rscale>  0 0.10592338E+03</rscale>
<asrwt>0</asrwt>
<pdfrwt beam="1">  1        2 0.13246567E-01 0.10592338E+03</pdfrwt>
<pdfrwt beam="2">  1       -2 0.50117982E-02 0.10592338E+03</pdfrwt>
<totfact> 0.77042872E+04</totfact>
</mgrwt>
</event>
<event>
 5    1  0.1242969E+001  0.9209259E+02  0.7546771E-02  0.1297862E+00
         -1   -1    0    0    0  501 -0.00000000000E+00  0.00000000000E+00  0.14229799302E+02  0.14229799302E+02  0.00000000000E+00 0.  1.
          1   -1    0    0  501    0  0.00000000000E+00 -0.00000000000E+00 -0.14900147531E+03  0.14900147531E+03  0.00000000000E+00 0. -1.
         23    2    1    2    0    0  0.00000000000E+00  0.00000000000E+00 -0.13477167601E+03  0.16323127461E+03  0.92092585789E+02 0.  0.
        -11    1    3    3    0    0  0.37957351221E+02 -0.23652790003E+02 -0.47965680979E+02  0.65581411531E+02  0.00000000000E+00 0.  1.
         11    1    3    3    0    0 -0.37957351221E+02  0.23652790003E+02 -0.86805995026E+02  0.97649863078E+02  0.00000000000E+00 0. -1.
<mgrwt>
<rscale>  0 0.92092586E+02</rscale>
<asrwt>0</asrwt>
<pdfrwt beam="2">  1        1 0.22923303E-01 0.92092586E+02</pdfrwt>
<pdfrwt beam="1">  1       -1 0.21891999E-02 0.92092586E+02</pdfrwt>
<totfact> 0.10901142E+05</totfact>
</mgrwt>
</event>
<event>
 5    1  0.1242969E+001  0.9106535E+02  0.7546771E-02  0.1300292E+00
         -2   -1    0    0    0  501 -0.00000000000E+00  0.00000000000E+00  0.79982557318E+02  0.79982557318E+02  0.00000000000E+00 0.  1.
          2   -1    0    0  501    0  0.00000000000E+00 -0.00000000000E+00 -0.25920958264E+02  0.25920958264E+02  0.00000000000E+00 0. -1.
         23    2    1    2    0    0  0.00000000000E+00  0.00000000000E+00  0.54061599053E+02  0.10590351558E+03  0.91065350822E+02 0.  0.
        -13    1    3    3    0    0  0.25024175538E+01 -0.15638844543E+02  0.76676055265E+02  0.78294655011E+02  0.00000000000E+00 0.  1.
         13    1    3    3    0    0 -0.25024175538E+01  0.15638844543E+02 -0.22614456212E+02  0.27608860571E+02  0.00000000000E+00 0. -1.
<mgrwt>
<rscale>  0 0.91065351E+02</rscale>
<asrwt>0</asrwt>
<pdfrwt beam="2">  1        2 0.39878398E-02 0.91065351E+02</pdfrwt>
<pdfrwt beam="1">  1       -2 0.12305009E-01 0.91065351E+02</pdfrwt>
<totfact> 0.85340275E+04</totfact>
</mgrwt>
</event>
<event>
 5    1  0.1242969E+001  0.9455118E+02  0.7546771E-02  0.1292190E+00
         -4   -1    0    0    0  501 -0.00000000000E+00  0.00000000000E+00  0.99724804546E+02  0.99724804546E+02  0.00000000000E+00 0. -1.
          4   -1    0    0  501    0  0.00000000000E+00 -0.00000000000E+00 -0.22411487883E+02  0.22411487883E+02  0.00000000000E+00 0.  1.
         23    2    1    2    0    0  0.00000000000E+00  0.00000000000E+00  0.77313316663E+02  0.12213629243E+03  0.94551176592E+02 0.  0.
        -11    1    3    3    0    0  0.99588365451E+01 -0.37091633438E+02  0.30453062529E+01  0.38525856079E+02  0.00000000000E+00 0.  1.
         11    1    3    3    0    0 -0.99588365451E+01  0.37091633438E+02  0.74268010410E+02  0.83610436350E+02  0.00000000000E+00 0. -1.
<mgrwt>
<rscale>  0 0.94551177E+02</rscale>
<asrwt>0</asrwt>
<pdfrwt beam="2">  1        4 0.34479213E-02 0.94551177E+02</pdfrwt>
<pdfrwt beam="1">  1       -4 0.15342277E-01 0.94551177E+02</pdfrwt>
<totfact> 0.22791185E+04</totfact>
</mgrwt>
</event>
<event>
 5    1  0.1242969E+001  0.8966756E+02  0.7546771E-02  0.1303659E+00
          2   -1    0    0  501    0  0.00000000000E+00  0.00000000000E+00  0.86221144669E+02  0.86221144669E+02  0.00000000000E+00 0.  1.
         -2   -1    0    0    0  501 -0.00000000000E+00 -0.00000000000E+00 -0.23312933741E+02  0.23312933741E+02  0.00000000000E+00 0. -1.
         23    2    1    2    0    0  0.00000000000E+00  0.00000000000E+00  0.62908210929E+02  0.10953407841E+03  0.89667560081E+02 0.  0.
        -11    1    3    3    0    0  0.24518846494E+02 -0.37528848586E+02  0.32300004804E+02  0.55252860740E+02  0.00000000000E+00 0.  1.
         11    1    3    3    0    0 -0.24518846494E+02  0.37528848586E+02  0.30608206125E+02  0.54281217670E+02  0.00000000000E+00 0. -1.
<mgrwt>
<rscale>  0 0.89667560E+02</rscale>
<asrwt>0</asrwt>
<pdfrwt beam="1">  1        2 0.13264791E-01 0.89667560E+02</pdfrwt>
<pdfrwt beam="2">  1       -2 0.35866052E-02 0.89667560E+02</pdfrwt>
<totfact> 0.12291141E+05</totfact>
</mgrwt>
</event>
<event>
 5    1  0.1242969E+001  0.8742511E+02  0.7546771E-02  0.1309210E+00
          1   -1    0    0  501    0  0.00000000000E+00  0.00000000000E+00  0.71827420937E+02  0.71827420937E+02  0.00000000000E+00 0. -1.
         -1   -1    0    0    0  501 -0.00000000000E+00 -0.00000000000E+00 -0.26602478662E+02  0.26602478662E+02  0.00000000000E+00 0.  1.
         23    2    1    2    0    0  0.00000000000E+00  0.00000000000E+00  0.45224942275E+02  0.98429899598E+02  0.87425109272E+02 0.  0.
        -11    1    3    3    0    0  0.17940820510E+02  0.60618228455E+01  0.66969282462E+02  0.69595283822E+02  0.00000000000E+00 0. -1.
         11    1    3    3    0    0 -0.17940820510E+02 -0.60618228455E+01 -0.21744340187E+02  0.28834615776E+02  0.00000000000E+00 0.  1.
<mgrwt>
<rscale>  0 0.87425109E+02</rscale>
<asrwt>0</asrwt>
<pdfrwt beam="1">  1        1 0.11050372E-01 0.87425109E+02</pdfrwt>
<pdfrwt beam="2">  1       -1 0.40926891E-02 0.87425109E+02</pdfrwt>
<totfact> 0.11117036E+05</totfact>
</mgrwt>
</event>
<event>
 5    1  0.1242969E+001  0.9053806E+02  0.7546771E-02  0.1301554E+00
         -3   -1    0    0    0  501 -0.00000000000E+00  0.00000000000E+00  0.41944910770E+02  0.41944910770E+02  0.00000000000E+00 0.  1.
          3   -1    0    0  501    0  0.00000000000E+00 -0.00000000000E+00 -0.48856589499E+02  0.48856589499E+02  0.00000000000E+00 0. -1.
         23    2    1    2    0    0  0.00000000000E+00  0.00000000000E+00 -0.69116787296E+01  0.90801500269E+02  0.90538064637E+02 0.  0.
        -11    1    3    3    0    0 -0.10006452781E+02  0.43908428476E+02  0.11625676591E+01  0.45049203679E+02  0.00000000000E+00 0.  1.
         11    1    3    3    0    0  0.10006452781E+02 -0.43908428476E+02 -0.80742463887E+01  0.45752296590E+02  0.00000000000E+00 0. -1.
<mgrwt>
<rscale>  0 0.90538065E+02</rscale>
<asrwt>0</asrwt>
<pdfrwt beam="2">  1        3 0.75163984E-02 0.90538065E+02</pdfrwt>
<pdfrwt beam="1">  1       -3 0.64530632E-02 0.90538065E+02</pdfrwt>
<totfact> 0.36050699E+04</totfact>
</mgrwt>
</event>
<event>
 5    1  0.1242969E+001  0.8494533E+02  0.7546771E-02  0.1315576E+00
         -3   -1    0    0    0  501 -0.00000000000E+00  0.00000000000E+00  0.44758489848E+02  0.44758489848E+02  0.00000000000E+00 0.  1.
          3   -1    0    0  501    0  0.00000000000E+00 -0.00000000000E+00 -0.40303580644E+02  0.40303580644E+02  0.00000000000E+00 0. -1.
         23    2    1    2    0    0  0.00000000000E+00  0.00000000000E+00  0.44549092038E+01  0.85062070492E+02  0.84945333129E+02 0.  0.
        -13    1    3    3    0    0  0.76948400312E+01  0.94045803739E+01 -0.38525780195E+02  0.40396688413E+02  0.00000000000E+00 0. -1.
         13    1    3    3    0    0 -0.76948400312E+01 -0.94045803739E+01  0.42980689398E+02  0.44665382079E+02  0.00000000000E+00 0.  1.
<mgrwt>
<rscale>  0 0.84945333E+02</rscale>
<asrwt>0</asrwt>
<pdfrwt beam="2">  1        3 0.62005509E-02 0.84945333E+02</pdfrwt>
<pdfrwt beam="1">  1       -3 0.68859215E-02 0.84945333E+02</pdfrwt>
<totfact> 0.43395710E+04</totfact>
</mgrwt>
</event>
<event>
 5    1  0.1242969E+001  0.8471332E+02  0.7546771E-02  0.1316184E+00
          1   -1    0    0  501    0  0.00000000000E+00  0.00000000000E+00  0.13582564176E+02  0.13582564176E+02  0.00000000000E+00 0. -1.
         -1   -1    0    0    0  501 -0.00000000000E+00 -0.00000000000E+00 -0.13208748237E+03  0.13208748237E+03  0.00000000000E+00 0.  1.
         23    2    1    2    0    0  0.00000000000E+00  0.00000000000E+00 -0.11850491819E+03  0.14567004655E+03  0.84713321412E+02 0.  0.
        -13    1    3    3    0    0  0.26539126883E+02  0.20533497763E+02 -0.14804555242E+02  0.36675940915E+02  0.00000000000E+00 0. -1.
         13    1    3    3    0    0 -0.26539126883E+02 -0.20533497763E+02 -0.10370036295E+03  0.10899410563E+03  0.00000000000E+00 0.  1.
<mgrwt>
<rscale>  0 0.84713321E+02</rscale>
<asrwt>0</asrwt>
<pdfrwt beam="1">  1        1 0.20896253E-02 0.84713321E+02</pdfrwt>
<pdfrwt beam="2">  1       -1 0.20321151E-01 0.84713321E+02</pdfrwt>
<totfact> 0.93061138E+04</totfact>
</mgrwt>
</event>
<event>
 5    1  0.1242969E+001  0.6185765E+02  0.7546771E-02  0.1390197E+00
          2   -1    0    0  501    0  0.00000000000E+00  0.00000000000E+00  0.20573344693E+03  0.20573344693E+03  0.00000000000E+00 0. -1.
         -2   -1    0    0    0  501 -0.00000000000E+00 -0.00000000000E+00 -0.46496677164E+01  0.46496677164E+01  0.00000000000E+00 0.  1.
         23    2    1    2    0    0  0.00000000000E+00  0.00000000000E+00  0.20108377921E+03  0.21038311464E+03  0.61857648399E+02 0.  0.
        -11    1    3    3    0    0 -0.27900537140E+02  0.62290121752E+00  0.14588795511E+03  0.14853324013E+03  0.00000000000E+00 0. -1.
         11    1    3    3    0    0  0.27900537140E+02 -0.62290121752E+00  0.55195824100E+02  0.61849874509E+02  0.00000000000E+00 0.  1.
<mgrwt>
<rscale>  0 0.61857648E+02</rscale>
<asrwt>0</asrwt>
<pdfrwt beam="1">  1        2 0.31651292E-01 0.61857648E+02</pdfrwt>
<pdfrwt beam="2">  1       -2 0.71533365E-03 0.61857648E+02</pdfrwt>
<totfact> 0.43326410E+05</totfact>
</mgrwt>
</event>
<event>
 5    1  0.1242969E+001  0.9033388E+02  0.7546771E-02  0.1302045E+00
          1   -1    0    0  501    0  0.00000000000E+00  0.00000000000E+00  0.48280964386E+02  0.48280964386E+02  0.00000000000E+00 0. -1.
         -1   -1    0    0    0  501 -0.00000000000E+00 -0.00000000000E+00 -0.42253765458E+02  0.42253765458E+02  0.00000000000E+00 0.  1.
         23    2    1    2    0    0  0.00000000000E+00  0.00000000000E+00  0.60271989275E+01  0.90534729844E+02  0.90333881689E+02 0.  0.
        -11    1    3    3    0    0  0.13774107259E+02  0.34590602498E+02  0.28640291697E+02  0.46973419297E+02  0.00000000000E+00 0. -1.
         11    1    3    3    0    0 -0.13774107259E+02 -0.34590602498E+02 -0.22613092769E+02  0.43561310547E+02  0.00000000000E+00 0.  1.
<mgrwt>
<rscale>  0 0.90333882E+02</rscale>
<asrwt>0</asrwt>
<pdfrwt beam="1">  1        1 0.74278406E-02 0.90333882E+02</pdfrwt>
<pdfrwt beam="2">  1       -1 0.65005793E-02 0.90333882E+02</pdfrwt>
<totfact> 0.95726502E+04</totfact>
</mgrwt>
</event>
<event>
 5    1  0.1242969E+001  0.1025606E+03  0.7546771E-02  0.1275002E+00
          3   -1    0    0  501    0  0.00000000000E+00  0.00000000000E+00  0.32048163347E+02  0.32048163347E+02  0.00000000000E+00 0. -1.
         -3   -1    0    0    0  501 -0.00000000000E+00 -0.00000000000E+00 -0.82053589704E+02  0.82053589704E+02  0.00000000000E+00 0.  1.
         23    2    1    2    0    0  0.00000000000E+00  0.00000000000E+00 -0.50005426358E+02  0.11410175305E+03  0.10256055472E+03 0.  0.
        -13    1    3    3    0    0 -0.32828010963E+02 -0.35055151094E+02 -0.45001202249E+02  0.65815272740E+02  0.00000000000E+00 0.  1.
         13    1    3    3    0    0  0.32828010963E+02  0.35055151094E+02 -0.50042241089E+01  0.48286480312E+02  0.00000000000E+00 0. -1.
<mgrwt>
<rscale>  0 0.10256055E+03</rscale>
<asrwt>0</asrwt>
<pdfrwt beam="1">  1        3 0.49304866E-02 0.10256055E+03</pdfrwt>
<pdfrwt beam="2">  1       -3 0.12623629E-01 0.10256055E+03</pdfrwt>
<totfact> 0.24383795E+04</totfact>
</mgrwt>
</event>
<event>
 5    1  0.1242969E+001  0.9010281E+02  0.7546771E-02  0.1302603E+00
         -2   -1    0    0    0  501 -0.00000000000E+00  0.00000000000E+00  0.17986318686E+02  0.17986318686E+02  0.00000000000E+00 0.  1.
          2   -1    0    0  501    0  0.00000000000E+00 -0.00000000000E+00 -0.11284292864E+03  0.11284292864E+03  0.00000000000E+00 0. -1.
         23    2    1    2    0    0  0.00000000000E+00  0.00000000000E+00 -0.94856609952E+02  0.13082924732E+03  0.90102805194E+02 0.  0.
        -11    1    3    3    0    0 -0.35954821019E+02 -0.25089451982E+01 -0.86674890708E+02  0.93870019920E+02  0.00000000000E+00 0. -1.
         11    1    3    3    0    0  0.35954821019E+02  0.25089451982E+01 -0.81817192443E+01  0.36959227404E+02  0.00000000000E+00 0.  1.
<mgrwt>
<rscale>  0 0.90102805E+02</rscale>
<asrwt>0</asrwt>
<pdfrwt beam="2">  1        2 0.17360451E-01 0.90102805E+02</pdfrwt>
<pdfrwt beam="1">  1       -2 0.27671260E-02 0.90102805E+02</pdfrwt>
<totfact> 0.13154946E+05</totfact>
</mgrwt>
</event>
<event>
 5    1  0.1242969E+001  0.9043288E+02  0.7546771E-02  0.1301807E+00
         -2   -1    0    0    0  501 -0.00000000000E+00  0.00000000000E+00  0.39999681285E+01  0.39999681285E+01  0.00000000000E+00 0.  1.
          2   -1    0    0  501    0  0.00000000000E+00 -0.00000000000E+00 -0.51113571229E+03  0.51113571229E+03  0.00000000000E+00 0. -1.
         23    2    1    2    0    0  0.00000000000E+00  0.00000000000E+00 -0.50713574416E+03  0.51513568042E+03  0.90432882482E+02 0.  0.
        -13    1    3    3    0    0 -0.14168063960E+02  0.42937064427E+02 -0.25612184026E+03  0.26008214587E+03  0.00000000000E+00 0.  1.
         13    1    3    3    0    0  0.14168063960E+02 -0.42937064427E+02 -0.25101390390E+03  0.25505353455E+03  0.00000000000E+00 0. -1.
<mgrwt>
<rscale>  0 0.90432882E+02</rscale>
<asrwt>0</asrwt>
<pdfrwt beam="2">  1        2 0.78636248E-01 0.90432882E+02</pdfrwt>
<pdfrwt beam="1">  1       -2 0.61537983E-03 0.90432882E+02</pdfrwt>
<totfact> 0.22178750E+05</totfact>
</mgrwt>
</event>
<event>
 5    1  0.1242969E+001  0.9193677E+02  0.7546771E-02  0.1298228E+00
         -2   -1    0    0    0  501 -0.00000000000E+00  0.00000000000E+00  0.12252422371E+02  0.12252422371E+02  0.00000000000E+00 0.  1.
          2   -1    0    0  501    0  0.00000000000E+00 -0.00000000000E+00 -0.17246323310E+03  0.17246323310E+03  0.00000000000E+00 0. -1.
         23    2    1    2    0    0  0.00000000000E+00  0.00000000000E+00 -0.16021081073E+03  0.18471565547E+03  0.91936769040E+02 0.  0.
        -11    1    3    3    0    0 -0.22638951826E+02  0.31429339027E+02 -0.12984040413E+03  0.13549485612E+03  0.00000000000E+00 0. -1.
         11    1    3    3    0    0  0.22638951826E+02 -0.31429339027E+02 -0.30370406604E+02  0.49220799351E+02  0.00000000000E+00 0.  1.
<mgrwt>
<rscale>  0 0.91936769E+02</rscale>
<asrwt>0</asrwt>
<pdfrwt beam="2">  1        2 0.26532804E-01 0.91936769E+02</pdfrwt>
<pdfrwt beam="1">  1       -2 0.18849881E-02 0.91936769E+02</pdfrwt>
<totfact> 0.14345660E+05</totfact>
</mgrwt>
</event>
<event>
 5    1  0.1242969E+001  0.9123412E+02  0.7546771E-02  0.1299890E+00
         -4   -1    0    0    0  501 -0.00000000000E+00  0.00000000000E+00  0.79590620050E+02  0.79590620050E+02  0.00000000000E+00 0.  1.
          4   -1    0    0  501    0  0.00000000000E+00 -0.00000000000E+00 -0.26145241920E+02  0.26145241920E+02  0.00000000000E+00 0. -1.
         23    2    1    2    0    0  0.00000000000E+00  0.00000000000E+00  0.53445378129E+02  0.10573586197E+03  0.91234116772E+02 0.  0.
        -11    1    3    3    0    0  0.17579495430E+02 -0.36824633013E+02  0.50355734417E+02  0.64813518997E+02  0.00000000000E+00 0.  1.
         11    1    3    3    0    0 -0.17579495430E+02  0.36824633013E+02  0.30896437127E+01  0.40922342973E+02  0.00000000000E+00 0. -1.
<mgrwt>
<rscale>  0 0.91234117E+02</rscale>
<asrwt>0</asrwt>
<pdfrwt beam="2">  1        4 0.40223450E-02 0.91234117E+02</pdfrwt>
<pdfrwt beam="1">  1       -4 0.12244711E-01 0.91234117E+02</pdfrwt>
<totfact> 0.26063310E+04</totfact>
</mgrwt>
</event>
<event>
 5    1  0.1242969E+001  0.1013037E+03  0.7546771E-02  0.1277578E+00
         -2   -1    0    0    0  501 -0.00000000000E+00  0.00000000000E+00  0.26918661502E+02  0.26918661502E+02  0.00000000000E+00 0.  1.
          2   -1    0    0  501    0  0.00000000000E+00 -0.00000000000E+00 -0.95309646062E+02  0.95309646062E+02  0.00000000000E+00 0. -1.
         23    2    1    2    0    0  0.00000000000E+00  0.00000000000E+00 -0.68390984560E+02  0.12222830756E+03  0.10130366430E+03 0.  0.
        -13    1    3    3    0    0 -0.50223400658E+02  0.91869945502E-01 -0.42126661229E+02  0.65551918355E+02  0.00000000000E+00 0.  1.
         13    1    3    3    0    0  0.50223400658E+02 -0.91869945502E-01 -0.26264323331E+02  0.56676389209E+02  0.00000000000E+00 0. -1.
<mgrwt>
<rscale>  0 0.10130366E+03</rscale>
<asrwt>0</asrwt>
<pdfrwt beam="2">  1        2 0.14663022E-01 0.10130366E+03</pdfrwt>
<pdfrwt beam="1">  1       -2 0.41413326E-02 0.10130366E+03</pdfrwt>
<totfact> 0.90195731E+04</totfact>
</mgrwt>
</event>
<event>
 5    1  0.1242969E+001  0.8940784E+02  0.7546771E-02  0.1304292E+00
         -1   -1    0    0    0  501 -0.00000000000E+00  0.00000000000E+00  0.19329066625E+02  0.19329066625E+02  0.00000000000E+00 0.  1.
          1   -1    0    0  501    0  0.00000000000E+00 -0.00000000000E+00 -0.10339042428E+03  0.10339042428E+03  0.00000000000E+00 0. -1.
         23    2    1    2    0    0  0.00000000000E+00  0.00000000000E+00 -0.84061357656E+02  0.12271949091E+03  0.89407838568E+02 0.  0.
        -11    1    3    3    0    0  0.34302290990E+01  0.27323108343E+02  0.63052533639E+01  0.28250220197E+02  0.00000000000E+00 0.  1.
         11    1    3    3    0    0 -0.34302290990E+01 -0.27323108343E+02 -0.90366611020E+02  0.94469270710E+02  0.00000000000E+00 0. -1.
<mgrwt>
<rscale>  0 0.89407839E+02</rscale>
<asrwt>0</asrwt>
<pdfrwt beam="2">  1        1 0.15906219E-01 0.89407839E+02</pdfrwt>
<pdfrwt beam="1">  1       -1 0.29737026E-02 0.89407839E+02</pdfrwt>
<totfact> 0.11077957E+05</totfact>
</mgrwt>
</event>
<event>
 5    1  0.1242969E+001  0.9167456E+02  0.7546771E-02  0.1298846E+00
          3   -1    0    0  501    0  0.00000000000E+00  0.00000000000E+00  0.12322584925E+03  0.12322584925E+03  0.00000000000E+00 0. -1.
         -3   -1    0    0    0  501 -0.00000000000E+00 -0.00000000000E+00 -0.17050451545E+02  0.17050451545E+02  0.00000000000E+00 0.  1.
         23    2    1    2    0    0  0.00000000000E+00  0.00000000000E+00  0.10617539770E+03  0.14027630079E+03  0.91674562920E+02 0.  0.
        -13    1    3    3    0    0 -0.40050038525E+02  0.31299012242E+01  0.19311296624E+02  0.44572727590E+02  0.00000000000E+00 0.  1.
         13    1    3    3    0    0  0.40050038525E+02 -0.31299012242E+01  0.86864101079E+02  0.95703573203E+02  0.00000000000E+00 0. -1.
<mgrwt>
<rscale>  0 0.91674563E+02</rscale>
<asrwt>0</asrwt>
<pdfrwt beam="1">  1        3 0.18957822E-01 0.91674563E+02</pdfrwt>
<pdfrwt beam="2">  1       -3 0.26231465E-02 0.91674563E+02</pdfrwt>
<totfact> 0.31444374E+04</totfact>
</mgrwt>
</event>
<event>
 5    1  0.1242969E+001  0.9105838E+02  0.7546771E-02  0.1300309E+00
         -2   -1    0    0    0  501 -0.00000000000E+00  0.00000000000E+00  0.11451917492E+03  0.11451917492E+03  0.00000000000E+00 0.  1.
          2   -1    0    0  501    0  0.00000000000E+00 -0.00000000000E+00 -0.18100960937E+02  0.18100960937E+02  0.00000000000E+00 0. -1.
         23    2    1    2    0    0  0.00000000000E+00  0.00000000000E+00  0.96418213983E+02  0.13262013586E+03  0.91058379334E+02 0.  0.
        -13    1    3    3    0    0 -0.36336423318E+02 -0.25782186001E+02  0.61860006469E+02  0.76234619268E+02  0.00000000000E+00 0.  1.
         13    1    3    3    0    0  0.36336423318E+02  0.25782186001E+02  0.34558207513E+02  0.56385516589E+02  0.00000000000E+00 0. -1.
<mgrwt>
<rscale>  0 0.91058379E+02</rscale>
<asrwt>0</asrwt>
<pdfrwt beam="2">  1        2 0.27847633E-02 0.91058379E+02</pdfrwt>
<pdfrwt beam="1">  1       -2 0.17618334E-01 0.91058379E+02</pdfrwt>
<totfact> 0.76802636E+04</totfact>
</mgrwt>
</event>
<event>
 5    1  0.1242969E+001  0.9018337E+02  0.7546771E-02  0.1302408E+00
          2   -1    0    0  501    0  0.00000000000E+00  0.00000000000E+00  0.92970958966E+01  0.92970958966E+01  0.00000000000E+00 0.  1.
         -2   -1    0    0    0  501 -0.00000000000E+00 -0.00000000000E+00 -0.21869839099E+03  0.21869839099E+03  0.00000000000E+00 0. -1.
         23    2    1    2    0    0  0.00000000000E+00  0.00000000000E+00 -0.20940129509E+03  0.22799548688E+03  0.90183366836E+02 0.  0.
        -13    1    3    3    0    0 -0.36266825532E+02  0.15327921841E+02 -0.16026391769E+03  0.16502954625E+03  0.00000000000E+00 0. -1.
         13    1    3    3    0    0  0.36266825532E+02 -0.15327921841E+02 -0.49137377401E+02  0.62965940635E+02  0.00000000000E+00 0.  1.
<mgrwt>
<rscale>  0 0.90183367E+02</rscale>
<asrwt>0</asrwt>
<pdfrwt beam="1">  1        2 0.14303224E-02 0.90183367E+02</pdfrwt>
<pdfrwt beam="2">  1       -2 0.33645907E-01 0.90183367E+02</pdfrwt>
<totfact> 0.61589173E+04</totfact>
</mgrwt>
</event>
<event>
 5    1  0.1242969E+001  0.8990796E+02  0.7546771E-02  0.1303075E+00
          1   -1    0    0  501    0  0.00000000000E+00  0.00000000000E+00  0.39491583492E+02  0.39491583492E+02  0.00000000000E+00 0. -1.
         -1   -1    0    0    0  501 -0.00000000000E+00 -0.00000000000E+00 -0.51171921317E+02  0.51171921317E+02  0.00000000000E+00 0.  1.
         23    2    1    2    0    0  0.00000000000E+00  0.00000000000E+00 -0.11680337825E+02  0.90663504809E+02  0.89907957449E+02 0.  0.
        -13    1    3    3    0    0 -0.18251342920E+02 -0.40061497898E+02 -0.15017476348E+02  0.46514080966E+02  0.00000000000E+00 0. -1.
         13    1    3    3    0    0  0.18251342920E+02  0.40061497898E+02  0.33371385229E+01  0.44149423844E+02  0.00000000000E+00 0.  1.
<mgrwt>
<rscale>  0 0.89907957E+02</rscale>
<asrwt>0</asrwt>
<pdfrwt beam="1">  1        1 0.60756282E-02 0.89907957E+02</pdfrwt>
<pdfrwt beam="2">  1       -1 0.78726033E-02 0.89907957E+02</pdfrwt>
<totfact> 0.94136528E+04</totfact>
</mgrwt>
</event>
<event>
 5    1  0.1242969E+001  0.9175391E+02  0.7546771E-02  0.1298659E+00
         -2   -1    0    0    0  501 -0.00000000000E+00  0.00000000000E+00  0.15241245075E+03  0.15241245075E+03  0.00000000000E+00 0. -1.
          2   -1    0    0  501    0  0.00000000000E+00 -0.00000000000E+00 -0.13809205620E+02  0.13809205620E+02  0.00000000000E+00 0.  1.
         23    2    1    2    0    0  0.00000000000E+00  0.00000000000E+00  0.13860324512E+03  0.16622165637E+03  0.91753907196E+02 0.  0.
        -11    1    3    3    0    0 -0.14038187513E+02  0.29706583429E+02  0.11297978698E+02  0.34744728094E+02  0.00000000000E+00 0.  1.
         11    1    3    3    0    0  0.14038187513E+02 -0.29706583429E+02  0.12730526643E+03  0.13147692827E+03  0.00000000000E+00 0. -1.
<mgrwt>
<rscale>  0 0.91753907E+02</rscale>
<asrwt>0</asrwt>
<pdfrwt beam="2">  1        2 0.21244933E-02 0.91753907E+02</pdfrwt>
<pdfrwt beam="1">  1       -2 0.23448068E-01 0.91753907E+02</pdfrwt>
<totfact> 0.68348002E+04</totfact>
</mgrwt>
</event>
<event>
 5    1  0.1242969E+001  0.8693310E+02  0.7546771E-02  0.1310453E+00
         -2   -1    0    0    0  501 -0.00000000000E+00  0.00000000000E+00  0.20570967641E+02  0.20570967641E+02  0.00000000000E+00 0.  1.
          2   -1    0    0  501    0  0.00000000000E+00 -0.00000000000E+00 -0.91845024766E+02  0.91845024766E+02  0.00000000000E+00 0. -1.
         23    2    1    2    0    0  0.00000000000E+00  0.00000000000E+00 -0.71274057125E+02  0.11241599241E+03  0.86933101462E+02 0.  0.
        -11    1    3    3    0    0  0.18091431941E+01 -0.31947743007E+02  0.24041371484E+01  0.32089112761E+02  0.00000000000E+00 0.  1.
         11    1    3    3    0    0 -0.18091431941E+01  0.31947743007E+02 -0.73678194273E+02  0.80326879646E+02  0.00000000000E+00 0. -1.
<mgrwt>
<rscale>  0 0.86933101E+02</rscale>
<asrwt>0</asrwt>
<pdfrwt beam="2">  1        2 0.14130004E-01 0.86933101E+02</pdfrwt>
<pdfrwt beam="1">  1       -2 0.31647643E-02 0.86933101E+02</pdfrwt>
<totfact> 0.13632518E+05</totfact>
</mgrwt>
</event>
<event>
 5    1  0.1242969E+001  0.9237977E+02  0.7546771E-02  0.1297189E+00
          1   -1    0    0  501    0  0.00000000000E+00  0.00000000000E+00  0.29052293658E+02  0.29052293658E+02  0.00000000000E+00 0. -1.
         -1   -1    0    0    0  501 -0.00000000000E+00 -0.00000000000E+00 -0.73436735119E+02  0.73436735119E+02  0.00000000000E+00 0.  1.
         23    2    1    2    0    0  0.00000000000E+00  0.00000000000E+00 -0.44384441461E+02  0.10248902878E+03  0.92379772547E+02 0.  0.
        -11    1    3    3    0    0 -0.14842162200E+02  0.35566031879E+02  0.60552469344E+01  0.39011516477E+02  0.00000000000E+00 0. -1.
         11    1    3    3    0    0  0.14842162200E+02 -0.35566031879E+02 -0.50439688395E+02  0.63477512300E+02  0.00000000000E+00 0.  1.
<mgrwt>
<rscale>  0 0.92379773E+02</rscale>
<asrwt>0</asrwt>
<pdfrwt beam="1">  1        1 0.44695837E-02 0.92379773E+02</pdfrwt>
<pdfrwt beam="2">  1       -1 0.11297959E-01 0.92379773E+02</pdfrwt>
<totfact> 0.83036858E+04</totfact>
</mgrwt>
</event>
<event>
 5    1  0.1242969E+001  0.8864227E+02  0.7546771E-02  0.1306173E+00
         -2   -1    0    0    0  501 -0.00000000000E+00  0.00000000000E+00  0.23809810158E+03  0.23809810158E+03  0.00000000000E+00 0.  1.
          2   -1    0    0  501    0  0.00000000000E+00 -0.00000000000E+00 -0.82502254758E+01  0.82502254758E+01  0.00000000000E+00 0. -1.
         23    2    1    2    0    0  0.00000000000E+00  0.00000000000E+00  0.22984787611E+03  0.24634832706E+03  0.88642270355E+02 0.  0.
        -13    1    3    3    0    0  0.37192460818E+02 -0.20190440431E+02  0.78324800241E+02  0.89026441911E+02  0.00000000000E+00 0. -1.
         13    1    3    3    0    0 -0.37192460818E+02  0.20190440431E+02  0.15152307587E+03  0.15732188515E+03  0.00000000000E+00 0.  1.
<mgrwt>
<rscale>  0 0.88642270E+02</rscale>
<asrwt>0</asrwt>
<pdfrwt beam="2">  1        2 0.12692656E-02 0.88642270E+02</pdfrwt>
<pdfrwt beam="1">  1       -2 0.36630472E-01 0.88642270E+02</pdfrwt>
<totfact> 0.61847035E+04</totfact>
</mgrwt>
</event>
<event>
 5    1  0.1242969E+001  0.6937945E+02  0.7546771E-02  0.1362216E+00
          2   -1    0    0  501    0  0.00000000000E+00  0.00000000000E+00  0.19099233857E+03  0.19099233857E+03  0.00000000000E+00 0. -1.
         -2   -1    0    0    0  501 -0.00000000000E+00 -0.00000000000E+00 -0.63006562062E+01  0.63006562062E+01  0.00000000000E+00 0.  1.
         23    2    1    2    0    0  0.00000000000E+00  0.00000000000E+00  0.18469168236E+03  0.19729299478E+03  0.69379451233E+02 0.  0.
        -13    1    3    3    0    0 -0.36453133188E+01 -0.31434634537E+02  0.13275738369E+03  0.13647691190E+03  0.00000000000E+00 0. -1.
         13    1    3    3    0    0  0.36453133188E+01  0.31434634537E+02  0.51934298676E+02  0.60816082878E+02  0.00000000000E+00 0.  1.
<mgrwt>
<rscale>  0 0.69379451E+02</rscale>
<asrwt>0</asrwt>
<pdfrwt beam="1">  1        2 0.29383432E-01 0.69379451E+02</pdfrwt>
<pdfrwt beam="2">  1       -2 0.96933187E-03 0.69379451E+02</pdfrwt>
<totfact> 0.31383952E+05</totfact>
</mgrwt>
</event>
<event>
 5    1  0.1242969E+001  0.9214997E+02  0.7546771E-02  0.1297727E+00
         -1   -1    0    0    0  501 -0.00000000000E+00  0.00000000000E+00  0.14090116442E+02  0.14090116442E+02  0.00000000000E+00 0.  1.
          1   -1    0    0  501    0  0.00000000000E+00 -0.00000000000E+00 -0.15066617953E+03  0.15066617953E+03  0.00000000000E+00 0. -1.
         23    2    1    2    0    0  0.00000000000E+00  0.00000000000E+00 -0.13657606309E+03  0.16475629597E+03  0.92149965024E+02 0.  0.
        -13    1    3    3    0    0 -0.45143988329E+02  0.72990277655E+01 -0.58229754785E+02  0.74040258177E+02  0.00000000000E+00 0. -1.
         13    1    3    3    0    0  0.45143988329E+02 -0.72990277655E+01 -0.78346308305E+02  0.90716037797E+02  0.00000000000E+00 0.  1.
<mgrwt>
<rscale>  0 0.92149965E+02</rscale>
<asrwt>0</asrwt>
<pdfrwt beam="2">  1        1 0.23179412E-01 0.92149965E+02</pdfrwt>
<pdfrwt beam="1">  1       -1 0.21677102E-02 0.92149965E+02</pdfrwt>
<totfact> 0.10905125E+05</totfact>
</mgrwt>
</event>
<event>
 5    1  0.1242969E+001  0.9380698E+02  0.7546771E-02  0.1293886E+00
          2   -1    0    0  501    0  0.00000000000E+00  0.00000000000E+00  0.49716841356E+02  0.49716841356E+02  0.00000000000E+00 0. -1.
         -2   -1    0    0    0  501 -0.00000000000E+00 -0.00000000000E+00 -0.44249336823E+02  0.44249336823E+02  0.00000000000E+00 0.  1.
         23    2    1    2    0    0  0.00000000000E+00  0.00000000000E+00  0.54675045333E+01  0.93966178180E+02  0.93806977543E+02 0.  0.
        -11    1    3    3    0    0  0.60175380056E+01  0.31494890501E+02 -0.31555882917E+02  0.44987916577E+02  0.00000000000E+00 0.  1.
         11    1    3    3    0    0 -0.60175380056E+01 -0.31494890501E+02  0.37023387450E+02  0.48978261602E+02  0.00000000000E+00 0. -1.
<mgrwt>
<rscale>  0 0.93806978E+02</rscale>
<asrwt>0</asrwt>
<pdfrwt beam="1">  1        2 0.76487449E-02 0.93806978E+02</pdfrwt>
<pdfrwt beam="2">  1       -2 0.68075902E-02 0.93806978E+02</pdfrwt>
<totfact> 0.93032957E+04</totfact>
</mgrwt>
</event>
<event>
 4    1  0.1242969E+001  0.5347012E+02  0.7546771E-02  0.1427475E+00
          2   -1    0    0  501    0  0.00000000000E+00  0.00000000000E+00  0.31491412801E+02  0.31491412801E+02  0.00000000000E+00 0. -1.
         -2   -1    0    0    0  501 -0.00000000000E+00 -0.00000000000E+00 -0.22697087685E+02  0.22697087685E+02  0.00000000000E+00 0.  1.
        -11    1    1    2    0    0  0.40221145918E+01  0.12867137719E+02  0.27794630321E+02  0.30891456967E+02  0.00000000000E+00 0. -1.
         11    1    1    2    0    0 -0.40221145918E+01 -0.12867137719E+02 -0.19000305205E+02  0.23297043520E+02  0.00000000000E+00 0.  1.
<mgrwt>
<rscale>  0 0.53470117E+02</rscale>
<asrwt>0</asrwt>
<pdfrwt beam="1">  1        2 0.48448327E-02 0.53470117E+02</pdfrwt>
<pdfrwt beam="2">  1       -2 0.34918597E-02 0.53470117E+02</pdfrwt>
<totfact> 0.39665001E+05</totfact>
</mgrwt>
</event>
<event>
 5    1  0.1242969E+001  0.8524248E+02  0.7546771E-02  0.1314800E+00
         -2   -1    0    0    0  501 -0.00000000000E+00  0.00000000000E+00  0.10430501656E+03  0.10430501656E+03  0.00000000000E+00 0.  1.
          2   -1    0    0  501    0  0.00000000000E+00 -0.00000000000E+00 -0.17415942267E+02  0.17415942267E+02  0.00000000000E+00 0. -1.
         23    2    1    2    0    0  0.00000000000E+00  0.00000000000E+00  0.86889074297E+02  0.12172095883E+03  0.85242481113E+02 0.  0.
        -11    1    3    3    0    0 -0.21393976570E+02 -0.19585581049E+02  0.88038120034E+02  0.92693083871E+02  0.00000000000E+00 0.  1.
         11    1    3    3    0    0  0.21393976570E+02  0.19585581049E+02 -0.11490457368E+01  0.29027874959E+02  0.00000000000E+00 0. -1.
<mgrwt>
<rscale>  0 0.85242481E+02</rscale>
<asrwt>0</asrwt>
<pdfrwt beam="2">  1        2 0.26793758E-02 0.85242481E+02</pdfrwt>
<pdfrwt beam="1">  1       -2 0.16046925E-01 0.85242481E+02</pdfrwt>
<totfact> 0.93192248E+04</totfact>
</mgrwt>
</event>
<event>
 5    1  0.1242969E+001  0.9187601E+02  0.7546771E-02  0.1298371E+00
          2   -1    0    0  501    0  0.00000000000E+00  0.00000000000E+00  0.20237019690E+02  0.20237019690E+02  0.00000000000E+00 0. -1.
         -2   -1    0    0    0  501 -0.00000000000E+00 -0.00000000000E+00 -0.10427921221E+03  0.10427921221E+03  0.00000000000E+00 0.  1.
         23    2    1    2    0    0  0.00000000000E+00  0.00000000000E+00 -0.84042192519E+02  0.12451623190E+03  0.91876013642E+02 0.  0.
        -13    1    3    3    0    0 -0.32766570849E+02 -0.23386036620E+02 -0.12028842909E+02  0.42014853752E+02  0.00000000000E+00 0. -1.
         13    1    3    3    0    0  0.32766570849E+02  0.23386036620E+02 -0.72013349610E+02  0.82501378147E+02  0.00000000000E+00 0.  1.
<mgrwt>
<rscale>  0 0.91876014E+02</rscale>
<asrwt>0</asrwt>
<pdfrwt beam="1">  1        2 0.31133877E-02 0.91876014E+02</pdfrwt>
<pdfrwt beam="2">  1       -2 0.16042956E-01 0.91876014E+02</pdfrwt>
<totfact> 0.77317951E+04</totfact>
</mgrwt>
</event>
<event>
 5    1  0.1242969E+001  0.1023299E+03  0.7546771E-02  0.1275471E+00
          1   -1    0    0  501    0  0.00000000000E+00  0.00000000000E+00  0.10736372332E+03  0.10736372332E+03  0.00000000000E+00 0. -1.
         -1   -1    0    0    0  501 -0.00000000000E+00 -0.00000000000E+00 -0.24383026066E+02  0.24383026066E+02  0.00000000000E+00 0.  1.
         23    2    1    2    0    0  0.00000000000E+00  0.00000000000E+00  0.82980697252E+02  0.13174674938E+03  0.10232990695E+03 0.  0.
        -11    1    3    3    0    0 -0.36843597667E+02 -0.12064111673E+02  0.84478354391E+02  0.92949372457E+02  0.00000000000E+00 0. -1.
         11    1    3    3    0    0  0.36843597667E+02  0.12064111673E+02 -0.14976571393E+01  0.38797376927E+02  0.00000000000E+00 0.  1.
<mgrwt>
<rscale>  0 0.10232991E+03</rscale>
<asrwt>0</asrwt>
<pdfrwt beam="1">  1        1 0.16517496E-01 0.10232991E+03</pdfrwt>
<pdfrwt beam="2">  1       -1 0.37512348E-02 0.10232991E+03</pdfrwt>
<totfact> 0.77026824E+04</totfact>
</mgrwt>
</event>
<event>
 5    1  0.1242969E+001  0.9204444E+02  0.7546771E-02  0.1297975E+00
         -4   -1    0    0    0  501 -0.00000000000E+00  0.00000000000E+00  0.19177023134E+02  0.19177023134E+02  0.00000000000E+00 0.  1.
          4   -1    0    0  501    0  0.00000000000E+00 -0.00000000000E+00 -0.11044701013E+03  0.11044701013E+03  0.00000000000E+00 0. -1.
         23    2    1    2    0    0  0.00000000000E+00  0.00000000000E+00 -0.91269986995E+02  0.12962403326E+03  0.92044442923E+02 0.  0.
        -13    1    3    3    0    0 -0.11598374729E+02  0.39805683956E+02 -0.73766357064E+02  0.84619679780E+02  0.00000000000E+00 0. -1.
         13    1    3    3    0    0  0.11598374729E+02 -0.39805683956E+02 -0.17503629931E+02  0.45004353482E+02  0.00000000000E+00 0.  1.
<mgrwt>
<rscale>  0 0.92044443E+02</rscale>
<asrwt>0</asrwt>
<pdfrwt beam="2">  1        4 0.16991848E-01 0.92044443E+02</pdfrwt>
<pdfrwt beam="1">  1       -4 0.29503112E-02 0.92044443E+02</pdfrwt>
<totfact> 0.24112623E+04</totfact>
</mgrwt>
</event>
<event>
 5    1  0.1242969E+001  0.9150280E+02  0.7546771E-02  0.1299253E+00
          1   -1    0    0  501    0  0.00000000000E+00  0.00000000000E+00  0.14987611142E+03  0.14987611142E+03  0.00000000000E+00 0. -1.
         -1   -1    0    0    0  501 -0.00000000000E+00 -0.00000000000E+00 -0.13966138099E+02  0.13966138099E+02  0.00000000000E+00 0.  1.
         23    2    1    2    0    0  0.00000000000E+00  0.00000000000E+00  0.13590997332E+03  0.16384224952E+03  0.91502797113E+02 0.  0.
        -13    1    3    3    0    0  0.77009543576E+01 -0.43862674768E+02  0.86730515509E+02  0.97495749940E+02  0.00000000000E+00 0. -1.
         13    1    3    3    0    0 -0.77009543576E+01  0.43862674768E+02  0.49179457815E+02  0.66346499582E+02  0.00000000000E+00 0.  1.
<mgrwt>
<rscale>  0 0.91502797E+02</rscale>
<asrwt>0</asrwt>
<pdfrwt beam="1">  1        1 0.23057862E-01 0.91502797E+02</pdfrwt>
<pdfrwt beam="2">  1       -1 0.21486367E-02 0.91502797E+02</pdfrwt>
<totfact> 0.11104029E+05</totfact>
</mgrwt>
</event>
<event>
 5    1  0.1242969E+001  0.8999261E+02  0.7546771E-02  0.1302870E+00
         -1   -1    0    0    0  501 -0.00000000000E+00  0.00000000000E+00  0.17091261050E+02  0.17091261050E+02  0.00000000000E+00 0.  1.
          1   -1    0    0  501    0  0.00000000000E+00 -0.00000000000E+00 -0.11846213401E+03  0.11846213401E+03  0.00000000000E+00 0. -1.
         23    2    1    2    0    0  0.00000000000E+00  0.00000000000E+00 -0.10137087296E+03  0.13555339506E+03  0.89992605406E+02 0.  0.
        -13    1    3    3    0    0 -0.20138997965E+02  0.37211337780E+02 -0.73746876128E+02  0.85022730120E+02  0.00000000000E+00 0. -1.
         13    1    3    3    0    0  0.20138997965E+02 -0.37211337780E+02 -0.27623996833E+02  0.50530664941E+02  0.00000000000E+00 0.  1.
<mgrwt>
<rscale>  0 0.89992605E+02</rscale>
<asrwt>0</asrwt>
<pdfrwt beam="2">  1        1 0.18224944E-01 0.89992605E+02</pdfrwt>
<pdfrwt beam="1">  1       -1 0.26294247E-02 0.89992605E+02</pdfrwt>
<totfact> 0.11137323E+05</totfact>
</mgrwt>
</event>
<event>
 5    1  0.1242969E+001  0.9254483E+02  0.7546771E-02  0.1296803E+00
          2   -1    0    0  501    0  0.00000000000E+00  0.00000000000E+00  0.44271666215E+03  0.44271666215E+03  0.00000000000E+00 0. -1.
         -2   -1    0    0    0  501 -0.00000000000E+00 -0.00000000000E+00 -0.48363577625E+01  0.48363577625E+01  0.00000000000E+00 0.  1.
         23    2    1    2    0    0  0.00000000000E+00  0.00000000000E+00  0.43788030439E+03  0.44755301991E+03  0.92544825152E+02 0.  0.
        -11    1    3    3    0    0  0.10788425351E+02 -0.44773531065E+02  0.19727102942E+03  0.20257570993E+03  0.00000000000E+00 0.  1.
         11    1    3    3    0    0 -0.10788425351E+02  0.44773531065E+02  0.24060927497E+03  0.24497730999E+03  0.00000000000E+00 0. -1.
<mgrwt>
<rscale>  0 0.92544825E+02</rscale>
<asrwt>0</asrwt>
<pdfrwt beam="1">  1        2 0.68110224E-01 0.92544825E+02</pdfrwt>
<pdfrwt beam="2">  1       -2 0.74405539E-03 0.92544825E+02</pdfrwt>
<totfact> 0.19885774E+05</totfact>
</mgrwt>
</event>
<event>
 5    1  0.1242969E+001  0.8617910E+02  0.7546771E-02  0.1312378E+00
          2   -1    0    0  501    0  0.00000000000E+00  0.00000000000E+00  0.16929882651E+03  0.16929882651E+03  0.00000000000E+00 0. -1.
         -2   -1    0    0    0  501 -0.00000000000E+00 -0.00000000000E+00 -0.10967053780E+02  0.10967053780E+02  0.00000000000E+00 0.  1.
         23    2    1    2    0    0  0.00000000000E+00  0.00000000000E+00  0.15833177273E+03  0.18026588029E+03  0.86179100372E+02 0.  0.
        -13    1    3    3    0    0 -0.26374148289E+02 -0.34038047846E+02  0.82489700820E+02  0.93052324745E+02  0.00000000000E+00 0.  1.
         13    1    3    3    0    0  0.26374148289E+02  0.34038047846E+02  0.75842071911E+02  0.87213555545E+02  0.00000000000E+00 0. -1.
<mgrwt>
<rscale>  0 0.86179100E+02</rscale>
<asrwt>0</asrwt>
<pdfrwt beam="1">  1        2 0.26045971E-01 0.86179100E+02</pdfrwt>
<pdfrwt beam="2">  1       -2 0.16872392E-02 0.86179100E+02</pdfrwt>
<totfact> 0.16966549E+05</totfact>
</mgrwt>
</event>
<event>
 5    1  0.1242969E+001  0.9096424E+02  0.7546771E-02  0.1300533E+00
          2   -1    0    0  501    0  0.00000000000E+00  0.00000000000E+00  0.83957732260E+02  0.83957732260E+02  0.00000000000E+00 0. -1.
         -2   -1    0    0    0  501 -0.00000000000E+00 -0.00000000000E+00 -0.24638863503E+02  0.24638863503E+02  0.00000000000E+00 0.  1.
         23    2    1    2    0    0  0.00000000000E+00  0.00000000000E+00  0.59318868758E+02  0.10859659576E+03  0.90964237042E+02 0.  0.
        -13    1    3    3    0    0  0.41145825697E+02 -0.20936233784E+01  0.66564003697E+01  0.41733318788E+02  0.00000000000E+00 0.  1.
         13    1    3    3    0    0 -0.41145825697E+02  0.20936233784E+01  0.52662468388E+02  0.66863276975E+02  0.00000000000E+00 0. -1.
<mgrwt>
<rscale>  0 0.90964237E+02</rscale>
<asrwt>0</asrwt>
<pdfrwt beam="1">  1        2 0.12916574E-01 0.90964237E+02</pdfrwt>
<pdfrwt beam="2">  1       -2 0.37905944E-02 0.90964237E+02</pdfrwt>
<totfact> 0.11721996E+05</totfact>
</mgrwt>
</event>
<event>
 5    1  0.1242969E+001  0.9037671E+02  0.7546771E-02  0.1301942E+00
         -2   -1    0    0    0  501 -0.00000000000E+00  0.00000000000E+00  0.45582781754E+01  0.45582781754E+01  0.00000000000E+00 0.  1.
          2   -1    0    0  501    0  0.00000000000E+00 -0.00000000000E+00 -0.44797342673E+03  0.44797342673E+03  0.00000000000E+00 0. -1.
         23    2    1    2    0    0  0.00000000000E+00  0.00000000000E+00 -0.44341514855E+03  0.45253170490E+03  0.90376711474E+02 0.  0.
        -13    1    3    3    0    0 -0.18175604696E+02  0.40727420101E+02 -0.18528504168E+03  0.19057707633E+03  0.00000000000E+00 0. -1.
         13    1    3    3    0    0  0.18175604696E+02 -0.40727420101E+02 -0.25813010688E+03  0.26195462857E+03  0.00000000000E+00 0.  1.
<mgrwt>
<rscale>  0 0.90376711E+02</rscale>
<asrwt>0</asrwt>
<pdfrwt beam="2">  1        2 0.68919002E-01 0.90376711E+02</pdfrwt>
<pdfrwt beam="1">  1       -2 0.70127343E-03 0.90376711E+02</pdfrwt>
<totfact> 0.21262425E+05</totfact>
</mgrwt>
</event>
<event>
 5    1  0.1242969E+001  0.9657610E+02  0.7546771E-02  0.1287665E+00
          2   -1    0    0  501    0  0.00000000000E+00  0.00000000000E+00  0.28408761555E+02  0.28408761555E+02  0.00000000000E+00 0. -1.
         -2   -1    0    0    0  501 -0.00000000000E+00 -0.00000000000E+00 -0.82078050682E+02  0.82078050682E+02  0.00000000000E+00 0.  1.
         23    2    1    2    0    0  0.00000000000E+00  0.00000000000E+00 -0.53669289127E+02  0.11048681224E+03  0.96576099957E+02 0.  0.
        -11    1    3    3    0    0 -0.26735532068E+02  0.28211119885E+02 -0.59616495184E+02  0.71167285027E+02  0.00000000000E+00 0.  1.
         11    1    3    3    0    0  0.26735532068E+02 -0.28211119885E+02  0.59472060571E+01  0.39319527210E+02  0.00000000000E+00 0. -1.
<mgrwt>
<rscale>  0 0.96576100E+02</rscale>
<asrwt>0</asrwt>
<pdfrwt beam="1">  1        2 0.43705787E-02 0.96576100E+02</pdfrwt>
<pdfrwt beam="2">  1       -2 0.12627392E-01 0.96576100E+02</pdfrwt>
<totfact> 0.73328866E+04</totfact>
</mgrwt>
</event>
<event>
 5    1  0.1242969E+001  0.9123417E+02  0.7546771E-02  0.1299890E+00
         -1   -1    0    0    0  501 -0.00000000000E+00  0.00000000000E+00  0.12009457944E+02  0.12009457944E+02  0.00000000000E+00 0.  1.
          1   -1    0    0  501    0  0.00000000000E+00 -0.00000000000E+00 -0.17327328816E+03  0.17327328816E+03  0.00000000000E+00 0. -1.
         23    2    1    2    0    0  0.00000000000E+00  0.00000000000E+00 -0.16126383022E+03  0.18528274611E+03  0.91234166124E+02 0.  0.
        -11    1    3    3    0    0  0.42944641785E+02  0.15382491729E+02 -0.80155824140E+02  0.92226999590E+02  0.00000000000E+00 0. -1.
         11    1    3    3    0    0 -0.42944641785E+02 -0.15382491729E+02 -0.81108006077E+02  0.93055746516E+02  0.00000000000E+00 0.  1.
<mgrwt>
<rscale>  0 0.91234166E+02</rscale>
<asrwt>0</asrwt>
<pdfrwt beam="2">  1        1 0.26657425E-01 0.91234166E+02</pdfrwt>
<pdfrwt beam="1">  1       -1 0.18476092E-02 0.91234166E+02</pdfrwt>
<totfact> 0.11499442E+05</totfact>
</mgrwt>
</event>
<event>
 5    1  0.1242969E+001  0.8999417E+02  0.7546771E-02  0.1302866E+00
          2   -1    0    0  501    0  0.00000000000E+00  0.00000000000E+00  0.98533293639E+01  0.98533293639E+01  0.00000000000E+00 0. -1.
         -2   -1    0    0    0  501 -0.00000000000E+00 -0.00000000000E+00 -0.20548767828E+03  0.20548767828E+03  0.00000000000E+00 0.  1.
         23    2    1    2    0    0  0.00000000000E+00  0.00000000000E+00 -0.19563434892E+03  0.21534100765E+03  0.89994172575E+02 0.  0.
        -13    1    3    3    0    0 -0.28224452547E+02 -0.34027125058E+02 -0.77758324853E+02  0.89447314355E+02  0.00000000000E+00 0. -1.
         13    1    3    3    0    0  0.28224452547E+02  0.34027125058E+02 -0.11787602407E+03  0.12589369329E+03  0.00000000000E+00 0.  1.
<mgrwt>
<rscale>  0 0.89994173E+02</rscale>
<asrwt>0</asrwt>
<pdfrwt beam="1">  1        2 0.15158969E-02 0.89994173E+02</pdfrwt>
<pdfrwt beam="2">  1       -2 0.31613487E-01 0.89994173E+02</pdfrwt>
<totfact> 0.63674516E+04</totfact>
</mgrwt>
</event>
<event>
 5    1  0.1242969E+001  0.9140582E+02  0.7546771E-02  0.1299483E+00
          2   -1    0    0  501    0  0.00000000000E+00  0.00000000000E+00  0.81758618269E+02  0.81758618269E+02  0.00000000000E+00 0. -1.
         -2   -1    0    0    0  501 -0.00000000000E+00 -0.00000000000E+00 -0.25547836061E+02  0.25547836061E+02  0.00000000000E+00 0.  1.
         23    2    1    2    0    0  0.00000000000E+00  0.00000000000E+00  0.56210782208E+02  0.10730645433E+03  0.91405815485E+02 0.  0.
        -11    1    3    3    0    0 -0.14218899286E+02 -0.43227767430E+02  0.23133189390E+02  0.51048618250E+02  0.00000000000E+00 0. -1.
         11    1    3    3    0    0  0.14218899286E+02  0.43227767430E+02  0.33077592818E+02  0.56257836081E+02  0.00000000000E+00 0.  1.
<mgrwt>
<rscale>  0 0.91405815E+02</rscale>
<asrwt>0</asrwt>
<pdfrwt beam="1">  1        2 0.12578249E-01 0.91405815E+02</pdfrwt>
<pdfrwt beam="2">  1       -2 0.39304364E-02 0.91405815E+02</pdfrwt>
<totfact> 0.11477138E+05</totfact>
</mgrwt>
</event>
<event>
 5    1  0.1242969E+001  0.9742028E+02  0.7546771E-02  0.1285816E+00
          1   -1    0    0  501    0  0.00000000000E+00  0.00000000000E+00  0.41775648353E+02  0.41775648353E+02  0.00000000000E+00 0. -1.
         -1   -1    0    0    0  501 -0.00000000000E+00 -0.00000000000E+00 -0.56795718410E+02  0.56795718410E+02  0.00000000000E+00 0.  1.
         23    2    1    2    0    0  0.00000000000E+00  0.00000000000E+00 -0.15020070056E+02  0.98571366763E+02  0.97420284546E+02 0.  0.
        -13    1    3    3    0    0  0.29067993376E+01  0.35709268348E+02 -0.40901125667E+02  0.54373738231E+02  0.00000000000E+00 0.  1.
         13    1    3    3    0    0 -0.29067993376E+01 -0.35709268348E+02  0.25881055610E+02  0.44197628532E+02  0.00000000000E+00 0. -1.
<mgrwt>
<rscale>  0 0.97420285E+02</rscale>
<asrwt>0</asrwt>
<pdfrwt beam="1">  1        1 0.64270228E-02 0.97420285E+02</pdfrwt>
<pdfrwt beam="2">  1       -1 0.87378028E-02 0.97420285E+02</pdfrwt>
<totfact> 0.75629150E+04</totfact>
</mgrwt>
</event>
<event>
 5    1  0.1242969E+001  0.8949644E+02  0.7546771E-02  0.1304076E+00
          1   -1    0    0  501    0  0.00000000000E+00  0.00000000000E+00  0.28919298955E+03  0.28919298955E+03  0.00000000000E+00 0.  1.
         -1   -1    0    0    0  501 -0.00000000000E+00 -0.00000000000E+00 -0.69241066236E+01  0.69241066236E+01  0.00000000000E+00 0. -1.
         23    2    1    2    0    0  0.00000000000E+00  0.00000000000E+00  0.28226888292E+03  0.29611709617E+03  0.89496437793E+02 0.  0.
        -11    1    3    3    0    0 -0.44492009406E+02 -0.46278763146E+01  0.14511446031E+03  0.15185243735E+03  0.00000000000E+00 0.  1.
         11    1    3    3    0    0  0.44492009406E+02  0.46278763146E+01  0.13715442261E+03  0.14426465881E+03  0.00000000000E+00 0. -1.
<mgrwt>
<rscale>  0 0.89496438E+02</rscale>
<asrwt>0</asrwt>
<pdfrwt beam="1">  1        1 0.44491220E-01 0.89496438E+02</pdfrwt>
<pdfrwt beam="2">  1       -1 0.10652474E-02 0.89496438E+02</pdfrwt>
<totfact> 0.13368279E+05</totfact>
</mgrwt>
</event>
<event>
 5    1  0.1242969E+001  0.8888858E+02  0.7546771E-02  0.1305566E+00
         -1   -1    0    0    0  501 -0.00000000000E+00  0.00000000000E+00  0.51392735714E+02  0.51392735714E+02  0.00000000000E+00 0.  1.
          1   -1    0    0  501    0  0.00000000000E+00 -0.00000000000E+00 -0.38435292518E+02  0.38435292518E+02  0.00000000000E+00 0. -1.
         23    2    1    2    0    0  0.00000000000E+00  0.00000000000E+00  0.12957443197E+02  0.89828028232E+02  0.88888578129E+02 0.  0.
        -11    1    3    3    0    0  0.13333419930E+02  0.40544855014E+02  0.19004455502E+02  0.46720816389E+02  0.00000000000E+00 0.  1.
         11    1    3    3    0    0 -0.13333419930E+02 -0.40544855014E+02 -0.60470123055E+01  0.43107211843E+02  0.00000000000E+00 0. -1.
<mgrwt>
<rscale>  0 0.88888578E+02</rscale>
<asrwt>0</asrwt>
<pdfrwt beam="2">  1        1 0.59131219E-02 0.88888578E+02</pdfrwt>
<pdfrwt beam="1">  1       -1 0.79065748E-02 0.88888578E+02</pdfrwt>
<totfact> 0.96814944E+04</totfact>
</mgrwt>
</event>
<event>
 5    1  0.1242969E+001  0.8894176E+02  0.7546771E-02  0.1305435E+00
          2   -1    0    0  501    0  0.00000000000E+00  0.00000000000E+00  0.44533824688E+02  0.44533824688E+02  0.00000000000E+00 0. -1.
         -2   -1    0    0    0  501 -0.00000000000E+00 -0.00000000000E+00 -0.44408028796E+02  0.44408028796E+02  0.00000000000E+00 0.  1.
         23    2    1    2    0    0  0.00000000000E+00  0.00000000000E+00  0.12579589252E+00  0.88941853484E+02  0.88941764524E+02 0.  0.
        -11    1    3    3    0    0 -0.20062269817E+02 -0.25967302835E+01 -0.39540445704E+02  0.44414913316E+02  0.00000000000E+00 0.  1.
         11    1    3    3    0    0  0.20062269817E+02  0.25967302835E+01  0.39666241596E+02  0.44526940168E+02  0.00000000000E+00 0. -1.
<mgrwt>
<rscale>  0 0.88941765E+02</rscale>
<asrwt>0</asrwt>
<pdfrwt beam="1">  1        2 0.68513577E-02 0.88941765E+02</pdfrwt>
<pdfrwt beam="2">  1       -2 0.68320044E-02 0.88941765E+02</pdfrwt>
<totfact> 0.10530447E+05</totfact>
</mgrwt>
</event>
<event>
 5    1  0.1242969E+001  0.9080796E+02  0.7546771E-02  0.1300907E+00
         -4   -1    0    0    0  501 -0.00000000000E+00  0.00000000000E+00  0.41311402886E+02  0.41311402886E+02  0.00000000000E+00 0.  1.
          4   -1    0    0  501    0  0.00000000000E+00 -0.00000000000E+00 -0.49901998740E+02  0.49901998740E+02  0.00000000000E+00 0. -1.
         23    2    1    2    0    0  0.00000000000E+00  0.00000000000E+00 -0.85905958540E+01  0.91213401626E+02  0.90807963852E+02 0.  0.
        -13    1    3    3    0    0  0.32514490402E+02  0.13023628674E+02  0.24725123533E+02  0.42873520076E+02  0.00000000000E+00 0.  1.
         13    1    3    3    0    0 -0.32514490402E+02 -0.13023628674E+02 -0.33315719387E+02  0.48339881550E+02  0.00000000000E+00 0. -1.
<mgrwt>
<rscale>  0 0.90807964E+02</rscale>
<asrwt>0</asrwt>
<pdfrwt beam="2">  1        4 0.76772305E-02 0.90807964E+02</pdfrwt>
<pdfrwt beam="1">  1       -4 0.63556005E-02 0.90807964E+02</pdfrwt>
<totfact> 0.27312770E+04</totfact>
</mgrwt>
</event>
<event>
 5    1  0.1242969E+001  0.9159798E+02  0.7546771E-02  0.1299027E+00
         -2   -1    0    0    0  501 -0.00000000000E+00  0.00000000000E+00  0.20042442010E+02  0.20042442010E+02  0.00000000000E+00 0.  1.
          2   -1    0    0  501    0  0.00000000000E+00 -0.00000000000E+00 -0.10465527889E+03  0.10465527889E+03  0.00000000000E+00 0. -1.
         23    2    1    2    0    0  0.00000000000E+00  0.00000000000E+00 -0.84612836885E+02  0.12469772090E+03  0.91597977233E+02 0.  0.
        -11    1    3    3    0    0 -0.36899974591E+02  0.77838843530E+01 -0.69280984012E+01  0.38343128823E+02  0.00000000000E+00 0.  1.
         11    1    3    3    0    0  0.36899974591E+02 -0.77838843530E+01 -0.77684738483E+02  0.86354592082E+02  0.00000000000E+00 0. -1.
<mgrwt>
<rscale>  0 0.91597977E+02</rscale>
<asrwt>0</asrwt>
<pdfrwt beam="2">  1        2 0.16100812E-01 0.91597977E+02</pdfrwt>
<pdfrwt beam="1">  1       -2 0.30834527E-02 0.91597977E+02</pdfrwt>
<totfact> 0.12283137E+05</totfact>
</mgrwt>
</event>
<event>
 5    1  0.1242969E+001  0.8961001E+02  0.7546771E-02  0.1303799E+00
          1   -1    0    0  501    0  0.00000000000E+00  0.00000000000E+00  0.95372024640E+02  0.95372024640E+02  0.00000000000E+00 0. -1.
         -1   -1    0    0    0  501 -0.00000000000E+00 -0.00000000000E+00 -0.21049030601E+02  0.21049030601E+02  0.00000000000E+00 0.  1.
         23    2    1    2    0    0  0.00000000000E+00  0.00000000000E+00  0.74322994038E+02  0.11642105524E+03  0.89610014288E+02 0.  0.
        -11    1    3    3    0    0  0.27639037396E+02 -0.18974009260E+02 -0.14567737888E+01  0.33556692409E+02  0.00000000000E+00 0.  1.
         11    1    3    3    0    0 -0.27639037396E+02  0.18974009260E+02  0.75779767827E+02  0.82864362832E+02  0.00000000000E+00 0. -1.
<mgrwt>
<rscale>  0 0.89610014E+02</rscale>
<asrwt>0</asrwt>
<pdfrwt beam="1">  1        1 0.14672619E-01 0.89610014E+02</pdfrwt>
<pdfrwt beam="2">  1       -1 0.32383125E-02 0.89610014E+02</pdfrwt>
<totfact> 0.10864869E+05</totfact>
</mgrwt>
</event>
<event>
 5    1  0.1242969E+001  0.9226371E+02  0.7546771E-02  0.1297461E+00
         -1   -1    0    0    0  501 -0.00000000000E+00  0.00000000000E+00  0.26736805126E+03  0.26736805126E+03  0.00000000000E+00 0.  1.
          1   -1    0    0  501    0  0.00000000000E+00 -0.00000000000E+00 -0.79596198695E+01  0.79596198695E+01  0.00000000000E+00 0. -1.
         23    2    1    2    0    0  0.00000000000E+00  0.00000000000E+00  0.25940843139E+03  0.27532767113E+03  0.92263710163E+02 0.  0.
        -13    1    3    3    0    0  0.20626357366E+02  0.34495874230E+02  0.19727607868E+03  0.20132874404E+03  0.00000000000E+00 0.  1.
         13    1    3    3    0    0 -0.20626357366E+02 -0.34495874230E+02  0.62132352708E+02  0.73998927088E+02  0.00000000000E+00 0. -1.
<mgrwt>
<rscale>  0 0.92263710E+02</rscale>
<asrwt>0</asrwt>
<pdfrwt beam="2">  1        1 0.12245571E-02 0.92263710E+02</pdfrwt>
<pdfrwt beam="1">  1       -1 0.41133539E-01 0.92263710E+02</pdfrwt>
<totfact> 0.61334842E+04</totfact>
</mgrwt>
</event>
<event>
 5    1  0.1242969E+001  0.9581184E+02  0.7546771E-02  0.1289358E+00
         -2   -1    0    0    0  501 -0.00000000000E+00  0.00000000000E+00  0.22539225807E+02  0.22539225807E+02  0.00000000000E+00 0.  1.
          2   -1    0    0  501    0  0.00000000000E+00 -0.00000000000E+00 -0.10182147549E+03  0.10182147549E+03  0.00000000000E+00 0. -1.
         23    2    1    2    0    0  0.00000000000E+00  0.00000000000E+00 -0.79282249687E+02  0.12436070130E+03  0.95811841193E+02 0.  0.
        -11    1    3    3    0    0  0.28120506543E+02  0.37891022675E+02 -0.28899724979E+02  0.55332509355E+02  0.00000000000E+00 0.  1.
         11    1    3    3    0    0 -0.28120506543E+02 -0.37891022675E+02 -0.50382524708E+02  0.69028191947E+02  0.00000000000E+00 0. -1.
<mgrwt>
<rscale>  0 0.95811841E+02</rscale>
<asrwt>0</asrwt>
<pdfrwt beam="2">  1        2 0.15664842E-01 0.95811841E+02</pdfrwt>
<pdfrwt beam="1">  1       -2 0.34675732E-02 0.95811841E+02</pdfrwt>
<totfact> 0.10755899E+05</totfact>
</mgrwt>
</event>
<event>
 5    1  0.1242969E+001  0.9274293E+02  0.7546771E-02  0.1296342E+00
         -2   -1    0    0    0  501 -0.00000000000E+00  0.00000000000E+00  0.19016628839E+02  0.19016628839E+02  0.00000000000E+00 0.  1.
          2   -1    0    0  501    0  0.00000000000E+00 -0.00000000000E+00 -0.11307538765E+03  0.11307538765E+03  0.00000000000E+00 0. -1.
         23    2    1    2    0    0  0.00000000000E+00  0.00000000000E+00 -0.94058758812E+02  0.13209201649E+03  0.92742928092E+02 0.  0.
        -13    1    3    3    0    0 -0.19044965556E+02 -0.32651669045E+02 -0.85285862917E+02  0.93287301483E+02  0.00000000000E+00 0. -1.
         13    1    3    3    0    0  0.19044965556E+02  0.32651669045E+02 -0.87728958954E+01  0.38804715007E+02  0.00000000000E+00 0.  1.
<mgrwt>
<rscale>  0 0.92742928E+02</rscale>
<asrwt>0</asrwt>
<pdfrwt beam="2">  1        2 0.17396214E-01 0.92742928E+02</pdfrwt>
<pdfrwt beam="1">  1       -2 0.29256352E-02 0.92742928E+02</pdfrwt>
<totfact> 0.12161434E+05</totfact>
</mgrwt>
</event>
<event>
 5    1  0.1242969E+001  0.8988688E+02  0.7546771E-02  0.1303126E+00
         -1   -1    0    0    0  501 -0.00000000000E+00  0.00000000000E+00  0.66118540220E+02  0.66118540220E+02  0.00000000000E+00 0.  1.
          1   -1    0    0  501    0  0.00000000000E+00 -0.00000000000E+00 -0.30549867108E+02  0.30549867108E+02  0.00000000000E+00 0. -1.
         23    2    1    2    0    0  0.00000000000E+00  0.00000000000E+00  0.35568673111E+02  0.96668407328E+02  0.89886875952E+02 0.  0.
        -11    1    3    3    0    0 -0.14078672535E+02 -0.95108488781E+01  0.62531739795E+02  0.64798794344E+02  0.00000000000E+00 0.  1.
         11    1    3    3    0    0  0.14078672535E+02  0.95108488781E+01 -0.26963066684E+02  0.31869612984E+02  0.00000000000E+00 0. -1.
<mgrwt>
<rscale>  0 0.89886876E+02</rscale>
<asrwt>0</asrwt>
<pdfrwt beam="2">  1        1 0.46999796E-02 0.89886876E+02</pdfrwt>
<pdfrwt beam="1">  1       -1 0.10172083E-01 0.89886876E+02</pdfrwt>
<totfact> 0.90556527E+04</totfact>
</mgrwt>
</event>
<event>
 5    1  0.1242969E+001  0.9848160E+02  0.7546771E-02  0.1283522E+00
          2   -1    0    0  501    0  0.00000000000E+00  0.00000000000E+00  0.49000732118E+02  0.49000732118E+02  0.00000000000E+00 0. -1.
         -2   -1    0    0    0  501 -0.00000000000E+00 -0.00000000000E+00 -0.49482039975E+02  0.49482039975E+02  0.00000000000E+00 0.  1.
         23    2    1    2    0    0  0.00000000000E+00  0.00000000000E+00 -0.48130785657E+00  0.98482772092E+02  0.98481595955E+02 0.  0.
        -11    1    3    3    0    0  0.46073006625E+02 -0.11761626596E+02 -0.13031365146E+02  0.49303897181E+02  0.00000000000E+00 0.  1.
         11    1    3    3    0    0 -0.46073006625E+02  0.11761626596E+02  0.12550057289E+02  0.49178874912E+02  0.00000000000E+00 0. -1.
<mgrwt>
<rscale>  0 0.98481596E+02</rscale>
<asrwt>0</asrwt>
<pdfrwt beam="1">  1        2 0.75385742E-02 0.98481596E+02</pdfrwt>
<pdfrwt beam="2">  1       -2 0.76126215E-02 0.98481596E+02</pdfrwt>
<totfact> 0.80529385E+04</totfact>
</mgrwt>
</event>
<event>
 5    1  0.1242969E+001  0.9199004E+02  0.7546771E-02  0.1298103E+00
          2   -1    0    0  501    0  0.00000000000E+00  0.00000000000E+00  0.17104665435E+03  0.17104665435E+03  0.00000000000E+00 0. -1.
         -2   -1    0    0    0  501 -0.00000000000E+00 -0.00000000000E+00 -0.12368214835E+02  0.12368214835E+02  0.00000000000E+00 0.  1.
         23    2    1    2    0    0  0.00000000000E+00  0.00000000000E+00  0.15867843951E+03  0.18341486918E+03  0.91990037892E+02 0.  0.
        -13    1    3    3    0    0 -0.36055833328E+02 -0.22400902761E+02  0.11465457704E+03  0.12225995091E+03  0.00000000000E+00 0. -1.
         13    1    3    3    0    0  0.36055833328E+02  0.22400902761E+02  0.44023862475E+02  0.61154918270E+02  0.00000000000E+00 0.  1.
<mgrwt>
<rscale>  0 0.91990038E+02</rscale>
<asrwt>0</asrwt>
<pdfrwt beam="1">  1        2 0.26314868E-01 0.91990038E+02</pdfrwt>
<pdfrwt beam="2">  1       -2 0.19028024E-02 0.91990038E+02</pdfrwt>
<totfact> 0.14281762E+05</totfact>
</mgrwt>
</event>
<event>
 5    1  0.1242969E+001  0.9105882E+02  0.7546771E-02  0.1300308E+00
         -2   -1    0    0    0  501 -0.00000000000E+00  0.00000000000E+00  0.91602893031E+02  0.91602893031E+02  0.00000000000E+00 0.  1.
          2   -1    0    0  501    0  0.00000000000E+00 -0.00000000000E+00 -0.22629495049E+02  0.22629495049E+02  0.00000000000E+00 0. -1.
         23    2    1    2    0    0  0.00000000000E+00  0.00000000000E+00  0.68973397982E+02  0.11423238808E+03  0.91058820864E+02 0.  0.
        -11    1    3    3    0    0  0.39959283422E+02  0.18519215928E+02  0.48966227912E+02  0.65858918652E+02  0.00000000000E+00 0.  1.
         11    1    3    3    0    0 -0.39959283422E+02 -0.18519215928E+02  0.20007170070E+02  0.48373469427E+02  0.00000000000E+00 0. -1.
<mgrwt>
<rscale>  0 0.91058821E+02</rscale>
<asrwt>0</asrwt>
<pdfrwt beam="2">  1        2 0.34814608E-02 0.91058821E+02</pdfrwt>
<pdfrwt beam="1">  1       -2 0.14092753E-01 0.91058821E+02</pdfrwt>
<totfact> 0.82150553E+04</totfact>
</mgrwt>
</event>
<event>
 5    1  0.1242969E+001  0.9053764E+02  0.7546771E-02  0.1301555E+00
          2   -1    0    0  501    0  0.00000000000E+00  0.00000000000E+00  0.50135804125E+02  0.50135804125E+02  0.00000000000E+00 0. -1.
         -2   -1    0    0    0  501 -0.00000000000E+00 -0.00000000000E+00 -0.40874306085E+02  0.40874306085E+02  0.00000000000E+00 0.  1.
         23    2    1    2    0    0  0.00000000000E+00  0.00000000000E+00  0.92614980393E+01  0.91010110210E+02  0.90537643080E+02 0.  0.
        -11    1    3    3    0    0 -0.33813635464E+02 -0.55108448430E+01 -0.25113100440E+02  0.42478219924E+02  0.00000000000E+00 0.  1.
         11    1    3    3    0    0  0.33813635464E+02  0.55108448430E+01  0.34374598479E+02  0.48531890286E+02  0.00000000000E+00 0. -1.
<mgrwt>
<rscale>  0 0.90537643E+02</rscale>
<asrwt>0</asrwt>
<pdfrwt beam="1">  1        2 0.77132006E-02 0.90537643E+02</pdfrwt>
<pdfrwt beam="2">  1       -2 0.62883548E-02 0.90537643E+02</pdfrwt>
<totfact> 0.10319614E+05</totfact>
</mgrwt>
</event>
<event>
 5    1  0.1242969E+001  0.9197439E+02  0.7546771E-02  0.1298140E+00
          3   -1    0    0  501    0  0.00000000000E+00  0.00000000000E+00  0.15385492613E+02  0.15385492613E+02  0.00000000000E+00 0. -1.
         -3   -1    0    0    0  501 -0.00000000000E+00 -0.00000000000E+00 -0.13745560242E+03  0.13745560242E+03  0.00000000000E+00 0.  1.
         23    2    1    2    0    0  0.00000000000E+00  0.00000000000E+00 -0.12207010981E+03  0.15284109503E+03  0.91974391122E+02 0.  0.
        -13    1    3    3    0    0  0.45528071614E+02  0.61993830956E+01 -0.57888846350E+02  0.73907754582E+02  0.00000000000E+00 0.  1.
         13    1    3    3    0    0 -0.45528071614E+02 -0.61993830956E+01 -0.64181263456E+02  0.78933340449E+02  0.00000000000E+00 0. -1.
<mgrwt>
<rscale>  0 0.91974391E+02</rscale>
<asrwt>0</asrwt>
<pdfrwt beam="1">  1        3 0.23669989E-02 0.91974391E+02</pdfrwt>
<pdfrwt beam="2">  1       -3 0.21147015E-01 0.91974391E+02</pdfrwt>
<totfact> 0.30408023E+04</totfact>
</mgrwt>
</event>
<event>
 5    1  0.1242969E+001  0.9077601E+02  0.7546771E-02  0.1300983E+00
          4   -1    0    0  501    0  0.00000000000E+00  0.00000000000E+00  0.21141111929E+02  0.21141111929E+02  0.00000000000E+00 0. -1.
         -4   -1    0    0    0  501 -0.00000000000E+00 -0.00000000000E+00 -0.97443835824E+02  0.97443835824E+02  0.00000000000E+00 0.  1.
         23    2    1    2    0    0  0.00000000000E+00  0.00000000000E+00 -0.76302723895E+02  0.11858494775E+03  0.90776010928E+02 0.  0.
        -13    1    3    3    0    0  0.86307954518E+01  0.34897567344E+02 -0.19549423396E+01  0.36002119885E+02  0.00000000000E+00 0. -1.
         13    1    3    3    0    0 -0.86307954518E+01 -0.34897567344E+02 -0.74347781555E+02  0.82582827869E+02  0.00000000000E+00 0.  1.
<mgrwt>
<rscale>  0 0.90776011E+02</rscale>
<asrwt>0</asrwt>
<pdfrwt beam="1">  1        4 0.32524788E-02 0.90776011E+02</pdfrwt>
<pdfrwt beam="2">  1       -4 0.14991359E-01 0.90776011E+02</pdfrwt>
<totfact> 0.25656559E+04</totfact>
</mgrwt>
</event>
<event>
 5    1  0.1242969E+001  0.8976562E+02  0.7546771E-02  0.1303420E+00
         -2   -1    0    0    0  501 -0.00000000000E+00  0.00000000000E+00  0.80350785255E+02  0.80350785255E+02  0.00000000000E+00 0.  1.
          2   -1    0    0  501    0  0.00000000000E+00 -0.00000000000E+00 -0.25070903365E+02  0.25070903365E+02  0.00000000000E+00 0. -1.
         23    2    1    2    0    0  0.00000000000E+00  0.00000000000E+00  0.55279881890E+02  0.10542168862E+03  0.89765623094E+02 0.  0.
        -13    1    3    3    0    0  0.40154528338E+02  0.13448428242E+02  0.10172370266E+02  0.43551389014E+02  0.00000000000E+00 0.  1.
         13    1    3    3    0    0 -0.40154528338E+02 -0.13448428242E+02  0.45107511624E+02  0.61870299605E+02  0.00000000000E+00 0. -1.
<mgrwt>
<rscale>  0 0.89765623E+02</rscale>
<asrwt>0</asrwt>
<pdfrwt beam="2">  1        2 0.38570621E-02 0.89765623E+02</pdfrwt>
<pdfrwt beam="1">  1       -2 0.12361659E-01 0.89765623E+02</pdfrwt>
<totfact> 0.88294743E+04</totfact>
</mgrwt>
</event>
<event>
 5    1  0.1242969E+001  0.9388417E+02  0.7546771E-02  0.1293709E+00
         -1   -1    0    0    0  501 -0.00000000000E+00  0.00000000000E+00  0.17217700412E+02  0.17217700412E+02  0.00000000000E+00 0.  1.
          1   -1    0    0  501    0  0.00000000000E+00 -0.00000000000E+00 -0.12798220582E+03  0.12798220582E+03  0.00000000000E+00 0. -1.
         23    2    1    2    0    0  0.00000000000E+00  0.00000000000E+00 -0.11076450541E+03  0.14519990624E+03  0.93884168589E+02 0.  0.
        -13    1    3    3    0    0  0.44147781996E+02 -0.71757790327E+01 -0.33344584075E+02  0.55788706268E+02  0.00000000000E+00 0.  1.
         13    1    3    3    0    0 -0.44147781996E+02  0.71757790327E+01 -0.77419921338E+02  0.89411199969E+02  0.00000000000E+00 0. -1.
<mgrwt>
<rscale>  0 0.93884169E+02</rscale>
<asrwt>0</asrwt>
<pdfrwt beam="2">  1        1 0.19689570E-01 0.93884169E+02</pdfrwt>
<pdfrwt beam="1">  1       -1 0.26488770E-02 0.93884169E+02</pdfrwt>
<totfact> 0.10064307E+05</totfact>
</mgrwt>
</event>
<event>
 5    1  0.1242969E+001  0.9207738E+02  0.7546771E-02  0.1297898E+00
         -2   -1    0    0    0  501 -0.00000000000E+00  0.00000000000E+00  0.10430849141E+03  0.10430849141E+03  0.00000000000E+00 0.  1.
          2   -1    0    0  501    0  0.00000000000E+00 -0.00000000000E+00 -0.20320118926E+02  0.20320118926E+02  0.00000000000E+00 0. -1.
         23    2    1    2    0    0  0.00000000000E+00  0.00000000000E+00  0.83988372488E+02  0.12462861034E+03  0.92077379427E+02 0.  0.
        -11    1    3    3    0    0 -0.18253377276E+02  0.86764609427E+01  0.97983063772E+02  0.10004572726E+03  0.00000000000E+00 0.  1.
         11    1    3    3    0    0  0.18253377276E+02 -0.86764609427E+01 -0.13994691284E+02  0.24582883082E+02  0.00000000000E+00 0. -1.
<mgrwt>
<rscale>  0 0.92077379E+02</rscale>
<asrwt>0</asrwt>
<pdfrwt beam="2">  1        2 0.31261722E-02 0.92077379E+02</pdfrwt>
<pdfrwt beam="1">  1       -2 0.16047460E-01 0.92077379E+02</pdfrwt>
<totfact> 0.76890067E+04</totfact>
</mgrwt>
</event>
<event>
 5    1  0.1242969E+001  0.1187909E+03  0.7546771E-02  0.1245105E+00
         -1   -1    0    0    0  501 -0.00000000000E+00  0.00000000000E+00  0.13943773315E+03  0.13943773315E+03  0.00000000000E+00 0.  1.
          1   -1    0    0  501    0  0.00000000000E+00 -0.00000000000E+00 -0.25300317681E+02  0.25300317681E+02  0.00000000000E+00 0. -1.
         23    2    1    2    0    0  0.00000000000E+00  0.00000000000E+00  0.11413741547E+03  0.16473805083E+03  0.11879089099E+03 0.  0.
        -11    1    3    3    0    0  0.33672647089E+02 -0.12936827473E+02  0.12250714029E+03  0.12770750992E+03  0.00000000000E+00 0.  1.
         11    1    3    3    0    0 -0.33672647089E+02  0.12936827473E+02 -0.83697248186E+01  0.37030540917E+02  0.00000000000E+00 0. -1.
<mgrwt>
<rscale>  0 0.11879089E+03</rscale>
<asrwt>0</asrwt>
<pdfrwt beam="2">  1        1 0.38923566E-02 0.11879089E+03</pdfrwt>
<pdfrwt beam="1">  1       -1 0.21451959E-01 0.11879089E+03</pdfrwt>
<totfact> 0.38157762E+04</totfact>
</mgrwt>
</event>
<event>
 5    1  0.1242969E+001  0.9072998E+02  0.7546771E-02  0.1301094E+00
          3   -1    0    0  501    0  0.00000000000E+00  0.00000000000E+00  0.17736370693E+02  0.17736370693E+02  0.00000000000E+00 0. -1.
         -3   -1    0    0    0  501 -0.00000000000E+00 -0.00000000000E+00 -0.11603175024E+03  0.11603175024E+03  0.00000000000E+00 0.  1.
         23    2    1    2    0    0  0.00000000000E+00  0.00000000000E+00 -0.98295379544E+02  0.13376812093E+03  0.90729975960E+02 0.  0.
        -11    1    3    3    0    0  0.42935636757E+02 -0.20914512105E+01 -0.27775194685E+02  0.51179141373E+02  0.00000000000E+00 0. -1.
         11    1    3    3    0    0 -0.42935636757E+02  0.20914512105E+01 -0.70520184859E+02  0.82588979558E+02  0.00000000000E+00 0.  1.
<mgrwt>
<rscale>  0 0.90729976E+02</rscale>
<asrwt>0</asrwt>
<pdfrwt beam="1">  1        3 0.27286723E-02 0.90729976E+02</pdfrwt>
<pdfrwt beam="2">  1       -3 0.17851039E-01 0.90729976E+02</pdfrwt>
<totfact> 0.32764512E+04</totfact>
</mgrwt>
</event>
<event>
 5    1  0.1242969E+001  0.9859520E+02  0.7546771E-02  0.1283278E+00
         -4   -1    0    0    0  501 -0.00000000000E+00  0.00000000000E+00  0.45394522989E+02  0.45394522989E+02  0.00000000000E+00 0.  1.
          4   -1    0    0  501    0  0.00000000000E+00 -0.00000000000E+00 -0.53536268318E+02  0.53536268318E+02  0.00000000000E+00 0. -1.
         23    2    1    2    0    0  0.00000000000E+00  0.00000000000E+00 -0.81417453291E+01  0.98930791306E+02  0.98595199941E+02 0.  0.
        -13    1    3    3    0    0  0.17062847573E+02  0.37661942423E+02 -0.31007930965E+02  0.51682245086E+02  0.00000000000E+00 0. -1.
         13    1    3    3    0    0 -0.17062847573E+02 -0.37661942423E+02  0.22866185636E+02  0.47248546220E+02  0.00000000000E+00 0.  1.
<mgrwt>
<rscale>  0 0.98595200E+02</rscale>
<asrwt>0</asrwt>
<pdfrwt beam="2">  1        4 0.82363490E-02 0.98595200E+02</pdfrwt>
<pdfrwt beam="1">  1       -4 0.69837728E-02 0.98595200E+02</pdfrwt>
<totfact> 0.21425298E+04</totfact>
</mgrwt>
</event>
<event>
 5    1  0.1242969E+001  0.9199787E+02  0.7546771E-02  0.1298084E+00
          4   -1    0    0  501    0  0.00000000000E+00  0.00000000000E+00  0.31595316512E+02  0.31595316512E+02  0.00000000000E+00 0. -1.
         -4   -1    0    0    0  501 -0.00000000000E+00 -0.00000000000E+00 -0.66968856760E+02  0.66968856760E+02  0.00000000000E+00 0.  1.
         23    2    1    2    0    0  0.00000000000E+00  0.00000000000E+00 -0.35373540248E+02  0.98564173272E+02  0.91997874449E+02 0.  0.
        -13    1    3    3    0    0  0.23550341808E+02  0.12463106265E+02 -0.57859092577E+02  0.63699467901E+02  0.00000000000E+00 0.  1.
         13    1    3    3    0    0 -0.23550341808E+02 -0.12463106265E+02  0.22485552329E+02  0.34864705371E+02  0.00000000000E+00 0. -1.
<mgrwt>
<rscale>  0 0.91997874E+02</rscale>
<asrwt>0</asrwt>
<pdfrwt beam="1">  1        4 0.48608179E-02 0.91997874E+02</pdfrwt>
<pdfrwt beam="2">  1       -4 0.10302901E-01 0.91997874E+02</pdfrwt>
<totfact> 0.25908360E+04</totfact>
</mgrwt>
</event>
<event>
 5    1  0.1242969E+001  0.9200385E+02  0.7546771E-02  0.1298070E+00
          1   -1    0    0  501    0  0.00000000000E+00  0.00000000000E+00  0.51651383392E+02  0.51651383392E+02  0.00000000000E+00 0. -1.
         -1   -1    0    0    0  501 -0.00000000000E+00 -0.00000000000E+00 -0.40970384777E+02  0.40970384777E+02  0.00000000000E+00 0.  1.
         23    2    1    2    0    0  0.00000000000E+00  0.00000000000E+00  0.10680998615E+02  0.92621768169E+02  0.92003848873E+02 0.  0.
        -11    1    3    3    0    0 -0.15239921142E+02  0.90151489048E+00  0.49026754228E+02  0.51348715229E+02  0.00000000000E+00 0. -1.
         11    1    3    3    0    0  0.15239921142E+02 -0.90151489048E+00 -0.38345755613E+02  0.41273052941E+02  0.00000000000E+00 0.  1.
<mgrwt>
<rscale>  0 0.92003849E+02</rscale>
<asrwt>0</asrwt>
<pdfrwt beam="1">  1        1 0.79463667E-02 0.92003849E+02</pdfrwt>
<pdfrwt beam="2">  1       -1 0.63031361E-02 0.92003849E+02</pdfrwt>
<totfact> 0.91873340E+04</totfact>
</mgrwt>
</event>
<event>
 5    1  0.1242969E+001  0.1039237E+03  0.7546771E-02  0.1272255E+00
          2   -1    0    0  501    0  0.00000000000E+00  0.00000000000E+00  0.27795018525E+03  0.27795018525E+03  0.00000000000E+00 0.  1.
         -2   -1    0    0    0  501 -0.00000000000E+00 -0.00000000000E+00 -0.97140995255E+01  0.97140995255E+01  0.00000000000E+00 0. -1.
         23    2    1    2    0    0  0.00000000000E+00  0.00000000000E+00  0.26823608573E+03  0.28766428478E+03  0.10392373670E+03 0.  0.
        -11    1    3    3    0    0 -0.47293039199E+02  0.20453672256E+02  0.11553889440E+03  0.12650778784E+03  0.00000000000E+00 0. -1.
         11    1    3    3    0    0  0.47293039199E+02 -0.20453672256E+02  0.15269719133E+03  0.16115649694E+03  0.00000000000E+00 0.  1.
<mgrwt>
<rscale>  0 0.10392374E+03</rscale>
<asrwt>0</asrwt>
<pdfrwt beam="1">  1        2 0.42761561E-01 0.10392374E+03</pdfrwt>
<pdfrwt beam="2">  1       -2 0.14944771E-02 0.10392374E+03</pdfrwt>
<totfact> 0.12275568E+05</totfact>
</mgrwt>
</event>
<event>
 5    1  0.1242969E+001  0.9017331E+02  0.7546771E-02  0.1302433E+00
         -2   -1    0    0    0  501 -0.00000000000E+00  0.00000000000E+00  0.18987465311E+03  0.18987465311E+03  0.00000000000E+00 0.  1.
          2   -1    0    0  501    0  0.00000000000E+00 -0.00000000000E+00 -0.10706045157E+02  0.10706045157E+02  0.00000000000E+00 0. -1.
         23    2    1    2    0    0  0.00000000000E+00  0.00000000000E+00  0.17916860795E+03  0.20058069827E+03  0.90173313355E+02 0.  0.
        -11    1    3    3    0    0  0.41675144534E+02  0.76201043916E+01  0.12389498013E+03  0.13093834337E+03  0.00000000000E+00 0.  1.
         11    1    3    3    0    0 -0.41675144534E+02 -0.76201043916E+01  0.55273627818E+02  0.69642354893E+02  0.00000000000E+00 0. -1.
<mgrwt>
<rscale>  0 0.90173313E+02</rscale>
<asrwt>0</asrwt>
<pdfrwt beam="2">  1        2 0.16470840E-02 0.90173313E+02</pdfrwt>
<pdfrwt beam="1">  1       -2 0.29211483E-01 0.90173313E+02</pdfrwt>
<totfact> 0.65536480E+04</totfact>
</mgrwt>
</event>
<event>
 5    1  0.1242969E+001  0.9283542E+02  0.7546771E-02  0.1296127E+00
          1   -1    0    0  501    0  0.00000000000E+00  0.00000000000E+00  0.19115985594E+02  0.19115985594E+02  0.00000000000E+00 0. -1.
         -1   -1    0    0    0  501 -0.00000000000E+00 -0.00000000000E+00 -0.11271214136E+03  0.11271214136E+03  0.00000000000E+00 0.  1.
         23    2    1    2    0    0  0.00000000000E+00  0.00000000000E+00 -0.93596155764E+02  0.13182812695E+03  0.92835417175E+02 0.  0.
        -13    1    3    3    0    0 -0.27299857203E+02  0.36949046732E+02 -0.56226989080E+02  0.72608460655E+02  0.00000000000E+00 0.  1.
         13    1    3    3    0    0  0.27299857203E+02 -0.36949046732E+02 -0.37369166684E+02  0.59219666297E+02  0.00000000000E+00 0. -1.
<mgrwt>
<rscale>  0 0.92835417E+02</rscale>
<asrwt>0</asrwt>
<pdfrwt beam="1">  1        1 0.29409209E-02 0.92835417E+02</pdfrwt>
<pdfrwt beam="2">  1       -1 0.17340329E-01 0.92835417E+02</pdfrwt>
<totfact> 0.75904790E+04</totfact>
</mgrwt>
</event>
<event>
 5    1  0.1242969E+001  0.9315442E+02  0.7546771E-02  0.1295388E+00
         -4   -1    0    0    0  501 -0.00000000000E+00  0.00000000000E+00  0.20412698624E+02  0.20412698624E+02  0.00000000000E+00 0.  1.
          4   -1    0    0  501    0  0.00000000000E+00 -0.00000000000E+00 -0.10627876164E+03  0.10627876164E+03  0.00000000000E+00 0. -1.
         23    2    1    2    0    0  0.00000000000E+00  0.00000000000E+00 -0.85866063018E+02  0.12669146027E+03  0.93154416567E+02 0.  0.
        -13    1    3    3    0    0 -0.35267528466E+02 -0.30243283054E+02 -0.47439918339E+02  0.66400305617E+02  0.00000000000E+00 0.  1.
         13    1    3    3    0    0  0.35267528466E+02  0.30243283054E+02 -0.38426144679E+02  0.60291154648E+02  0.00000000000E+00 0. -1.
<mgrwt>
<rscale>  0 0.93154417E+02</rscale>
<asrwt>0</asrwt>
<pdfrwt beam="2">  1        4 0.16350579E-01 0.93154417E+02</pdfrwt>
<pdfrwt beam="1">  1       -4 0.31404152E-02 0.93154417E+02</pdfrwt>
<totfact> 0.23493126E+04</totfact>
</mgrwt>
</event>
<event>
 5    1  0.1242969E+001  0.9138834E+02  0.7546771E-02  0.1299524E+00
          2   -1    0    0  501    0  0.00000000000E+00  0.00000000000E+00  0.23180987779E+03  0.23180987779E+03  0.00000000000E+00 0. -1.
         -2   -1    0    0    0  501 -0.00000000000E+00 -0.00000000000E+00 -0.90071966769E+01  0.90071966769E+01  0.00000000000E+00 0.  1.
         23    2    1    2    0    0  0.00000000000E+00  0.00000000000E+00  0.22280268111E+03  0.24081707446E+03  0.91388339757E+02 0.  0.
        -13    1    3    3    0    0 -0.41832157624E+02  0.10769663313E+02  0.72135567423E+02  0.84080052015E+02  0.00000000000E+00 0.  1.
         13    1    3    3    0    0  0.41832157624E+02 -0.10769663313E+02  0.15066711369E+03  0.15673702245E+03  0.00000000000E+00 0. -1.
<mgrwt>
<rscale>  0 0.91388340E+02</rscale>
<asrwt>0</asrwt>
<pdfrwt beam="1">  1        2 0.35663054E-01 0.91388340E+02</pdfrwt>
<pdfrwt beam="2">  1       -2 0.13857227E-02 0.91388340E+02</pdfrwt>
<totfact> 0.16223222E+05</totfact>
</mgrwt>
</event>
<event>
 5    1  0.1242969E+001  0.9394496E+02  0.7546771E-02  0.1293570E+00
          1   -1    0    0  501    0  0.00000000000E+00  0.00000000000E+00  0.36325700919E+02  0.36325700919E+02  0.00000000000E+00 0. -1.
         -1   -1    0    0    0  501 -0.00000000000E+00 -0.00000000000E+00 -0.60739746926E+02  0.60739746926E+02  0.00000000000E+00 0.  1.
         23    2    1    2    0    0  0.00000000000E+00  0.00000000000E+00 -0.24414046007E+02  0.97065447845E+02  0.93944960072E+02 0.  0.
        -11    1    3    3    0    0 -0.29650017522E+02  0.36259631652E+02 -0.15864294927E+02  0.49452606404E+02  0.00000000000E+00 0. -1.
         11    1    3    3    0    0  0.29650017522E+02 -0.36259631652E+02 -0.85497510798E+01  0.47612841441E+02  0.00000000000E+00 0.  1.
<mgrwt>
<rscale>  0 0.93944960E+02</rscale>
<asrwt>0</asrwt>
<pdfrwt beam="1">  1        1 0.55885694E-02 0.93944960E+02</pdfrwt>
<pdfrwt beam="2">  1       -1 0.93445764E-02 0.93944960E+02</pdfrwt>
<totfact> 0.82038372E+04</totfact>
</mgrwt>
</event>
<event>
 5    1  0.1242969E+001  0.9012723E+02  0.7546771E-02  0.1302544E+00
          2   -1    0    0  501    0  0.00000000000E+00  0.00000000000E+00  0.14157634374E+02  0.14157634374E+02  0.00000000000E+00 0. -1.
         -2   -1    0    0    0  501 -0.00000000000E+00 -0.00000000000E+00 -0.14343706505E+03  0.14343706505E+03  0.00000000000E+00 0.  1.
         23    2    1    2    0    0  0.00000000000E+00  0.00000000000E+00 -0.12927943067E+03  0.15759469942E+03  0.90127232791E+02 0.  0.
        -13    1    3    3    0    0  0.23197622723E+02  0.41985781989E+01 -0.13179457138E+03  0.13388639515E+03  0.00000000000E+00 0.  1.
         13    1    3    3    0    0 -0.23197622723E+02 -0.41985781989E+01  0.25151407092E+01  0.23708304277E+02  0.00000000000E+00 0. -1.
<mgrwt>
<rscale>  0 0.90127233E+02</rscale>
<asrwt>0</asrwt>
<pdfrwt beam="1">  1        2 0.21780977E-02 0.90127233E+02</pdfrwt>
<pdfrwt beam="2">  1       -2 0.22067239E-01 0.90127233E+02</pdfrwt>
<totfact> 0.73096141E+04</totfact>
</mgrwt>
</event>
<event>
 5    1  0.1242969E+001  0.9119884E+02  0.7546771E-02  0.1299974E+00
          3   -1    0    0  501    0  0.00000000000E+00  0.00000000000E+00  0.76470753898E+02  0.76470753898E+02  0.00000000000E+00 0. -1.
         -3   -1    0    0    0  501 -0.00000000000E+00 -0.00000000000E+00 -0.27190877228E+02  0.27190877228E+02  0.00000000000E+00 0.  1.
         23    2    1    2    0    0  0.00000000000E+00  0.00000000000E+00  0.49279876670E+02  0.10366163113E+03  0.91198835097E+02 0.  0.
        -11    1    3    3    0    0 -0.32637098553E+02 -0.15098012716E+02 -0.72305581379E+01  0.36679846795E+02  0.00000000000E+00 0.  1.
         11    1    3    3    0    0  0.32637098553E+02  0.15098012716E+02  0.56510434808E+02  0.66981784330E+02  0.00000000000E+00 0. -1.
<mgrwt>
<rscale>  0 0.91198835E+02</rscale>
<asrwt>0</asrwt>
<pdfrwt beam="1">  1        3 0.11764731E-01 0.91198835E+02</pdfrwt>
<pdfrwt beam="2">  1       -3 0.41832119E-02 0.91198835E+02</pdfrwt>
<totfact> 0.34379240E+04</totfact>
</mgrwt>
</event>
<event>
 5    1  0.1242969E+001  0.9051047E+02  0.7546771E-02  0.1301620E+00
         -2   -1    0    0    0  501 -0.00000000000E+00  0.00000000000E+00  0.60317005900E+02  0.60317005900E+02  0.00000000000E+00 0. -1.
          2   -1    0    0  501    0  0.00000000000E+00 -0.00000000000E+00 -0.33954538601E+02  0.33954538601E+02  0.00000000000E+00 0.  1.
         23    2    1    2    0    0  0.00000000000E+00  0.00000000000E+00  0.26362467300E+02  0.94271544501E+02  0.90510465806E+02 0.  0.
        -13    1    3    3    0    0 -0.17354822895E+02  0.40632997120E+02  0.29864582831E+01  0.44284864974E+02  0.00000000000E+00 0.  1.
         13    1    3    3    0    0  0.17354822895E+02 -0.40632997120E+02  0.23376009016E+02  0.49986679527E+02  0.00000000000E+00 0. -1.
<mgrwt>
<rscale>  0 0.90510466E+02</rscale>
<asrwt>0</asrwt>
<pdfrwt beam="2">  1        2 0.52237752E-02 0.90510466E+02</pdfrwt>
<pdfrwt beam="1">  1       -2 0.92795394E-02 0.90510466E+02</pdfrwt>
<totfact> 0.93396434E+04</totfact>
</mgrwt>
</event>
<event>
 5    1  0.1242969E+001  0.9263698E+02  0.7546771E-02  0.1296589E+00
         -2   -1    0    0    0  501 -0.00000000000E+00  0.00000000000E+00  0.48082325655E+02  0.48082325655E+02  0.00000000000E+00 0.  1.
          2   -1    0    0  501    0  0.00000000000E+00 -0.00000000000E+00 -0.44619356171E+02  0.44619356171E+02  0.00000000000E+00 0. -1.
         23    2    1    2    0    0  0.00000000000E+00  0.00000000000E+00  0.34629694845E+01  0.92701681826E+02  0.92636977799E+02 0.  0.
        -11    1    3    3    0    0 -0.22179163431E+01  0.22289921651E+02 -0.38838695458E+02  0.44835298873E+02  0.00000000000E+00 0. -1.
         11    1    3    3    0    0  0.22179163431E+01 -0.22289921651E+02  0.42301664943E+02  0.47866382953E+02  0.00000000000E+00 0.  1.
<mgrwt>
<rscale>  0 0.92636978E+02</rscale>
<asrwt>0</asrwt>
<pdfrwt beam="2">  1        2 0.68645163E-02 0.92636978E+02</pdfrwt>
<pdfrwt beam="1">  1       -2 0.73972809E-02 0.92636978E+02</pdfrwt>
<totfact> 0.93735347E+04</totfact>
</mgrwt>
</event>
<event>
 5    1  0.1242969E+001  0.9817305E+02  0.7546771E-02  0.1284185E+00
          1   -1    0    0  501    0  0.00000000000E+00  0.00000000000E+00  0.34825864882E+02  0.34825864882E+02  0.00000000000E+00 0. -1.
         -1   -1    0    0    0  501 -0.00000000000E+00 -0.00000000000E+00 -0.69186703968E+02  0.69186703968E+02  0.00000000000E+00 0.  1.
         23    2    1    2    0    0  0.00000000000E+00  0.00000000000E+00 -0.34360839086E+02  0.10401256885E+03  0.98173047299E+02 0.  0.
        -13    1    3    3    0    0 -0.10561155729E+02 -0.11618748406E+02  0.32093503413E+02  0.35728508032E+02  0.00000000000E+00 0. -1.
         13    1    3    3    0    0  0.10561155729E+02  0.11618748406E+02 -0.66454342499E+02  0.68284060818E+02  0.00000000000E+00 0.  1.
<mgrwt>
<rscale>  0 0.98173047E+02</rscale>
<asrwt>0</asrwt>
<pdfrwt beam="1">  1        1 0.53578253E-02 0.98173047E+02</pdfrwt>
<pdfrwt beam="2">  1       -1 0.10644108E-01 0.98173047E+02</pdfrwt>
<totfact> 0.71798992E+04</totfact>
</mgrwt>
</event>
<event>
 5    1  0.1242969E+001  0.8930446E+02  0.7546771E-02  0.1304545E+00
         -2   -1    0    0    0  501 -0.00000000000E+00  0.00000000000E+00  0.63322142343E+01  0.63322142343E+01  0.00000000000E+00 0.  1.
          2   -1    0    0  501    0  0.00000000000E+00 -0.00000000000E+00 -0.31486959789E+03  0.31486959789E+03  0.00000000000E+00 0. -1.
         23    2    1    2    0    0  0.00000000000E+00  0.00000000000E+00 -0.30853738366E+03  0.32120181213E+03  0.89304462368E+02 0.  0.
        -11    1    3    3    0    0  0.36538086997E+02  0.25623169334E+02 -0.14888186307E+03  0.15542647058E+03  0.00000000000E+00 0. -1.
         11    1    3    3    0    0 -0.36538086997E+02 -0.25623169334E+02 -0.15965552059E+03  0.16577534155E+03  0.00000000000E+00 0.  1.
<mgrwt>
<rscale>  0 0.89304462E+02</rscale>
<asrwt>0</asrwt>
<pdfrwt beam="2">  1        2 0.48441465E-01 0.89304462E+02</pdfrwt>
<pdfrwt beam="1">  1       -2 0.97418705E-03 0.89304462E+02</pdfrwt>
<totfact> 0.19330569E+05</totfact>
</mgrwt>
</event>
<event>
 5    1  0.1242969E+001  0.8998220E+02  0.7546771E-02  0.1302895E+00
          1   -1    0    0  501    0  0.00000000000E+00  0.00000000000E+00  0.24819915519E+02  0.24819915519E+02  0.00000000000E+00 0. -1.
         -1   -1    0    0    0  501 -0.00000000000E+00 -0.00000000000E+00 -0.81555439826E+02  0.81555439826E+02  0.00000000000E+00 0.  1.
         23    2    1    2    0    0  0.00000000000E+00  0.00000000000E+00 -0.56735524307E+02  0.10637535535E+03  0.89982201054E+02 0.  0.
        -11    1    3    3    0    0 -0.30173095451E+02  0.25046808762E+02 -0.54441266920E+02  0.67094037456E+02  0.00000000000E+00 0.  1.
         11    1    3    3    0    0  0.30173095451E+02 -0.25046808762E+02 -0.22942573867E+01  0.39281317890E+02  0.00000000000E+00 0. -1.
<mgrwt>
<rscale>  0 0.89982201E+02</rscale>
<asrwt>0</asrwt>
<pdfrwt beam="1">  1        1 0.38184485E-02 0.89982201E+02</pdfrwt>
<pdfrwt beam="2">  1       -1 0.12546991E-01 0.89982201E+02</pdfrwt>
<totfact> 0.87270537E+04</totfact>
</mgrwt>
</event>
<event>
 5    1  0.1242969E+001  0.9074621E+02  0.7546771E-02  0.1301055E+00
          1   -1    0    0  501    0  0.00000000000E+00  0.00000000000E+00  0.75699639974E+02  0.75699639974E+02  0.00000000000E+00 0. -1.
         -1   -1    0    0    0  501 -0.00000000000E+00 -0.00000000000E+00 -0.27195883314E+02  0.27195883314E+02  0.00000000000E+00 0.  1.
         23    2    1    2    0    0  0.00000000000E+00  0.00000000000E+00  0.48503756659E+02  0.10289552329E+03  0.90746208200E+02 0.  0.
        -11    1    3    3    0    0 -0.27979847759E+02 -0.28353081962E+02  0.48884788874E+02  0.63059430069E+02  0.00000000000E+00 0. -1.
         11    1    3    3    0    0  0.27979847759E+02  0.28353081962E+02 -0.38103221480E+00  0.39836093219E+02  0.00000000000E+00 0.  1.
<mgrwt>
<rscale>  0 0.90746208E+02</rscale>
<asrwt>0</asrwt>
<pdfrwt beam="1">  1        1 0.11646098E-01 0.90746208E+02</pdfrwt>
<pdfrwt beam="2">  1       -1 0.41839821E-02 0.90746208E+02</pdfrwt>
<totfact> 0.10118190E+05</totfact>
</mgrwt>
</event>
<event>
 5    1  0.1242969E+001  0.9124241E+02  0.7546771E-02  0.1299871E+00
          2   -1    0    0  501    0  0.00000000000E+00  0.00000000000E+00  0.68815522851E+02  0.68815522851E+02  0.00000000000E+00 0. -1.
         -2   -1    0    0    0  501 -0.00000000000E+00 -0.00000000000E+00 -0.30244545725E+02  0.30244545725E+02  0.00000000000E+00 0.  1.
         23    2    1    2    0    0  0.00000000000E+00  0.00000000000E+00  0.38570977126E+02  0.99060068576E+02  0.91242407409E+02 0.  0.
        -13    1    3    3    0    0 -0.87139131690E+01 -0.43390870424E+02  0.31306390191E+02  0.54210607686E+02  0.00000000000E+00 0. -1.
         13    1    3    3    0    0  0.87139131690E+01  0.43390870424E+02  0.72645869349E+01  0.44849460891E+02  0.00000000000E+00 0.  1.
<mgrwt>
<rscale>  0 0.91242407E+02</rscale>
<asrwt>0</asrwt>
<pdfrwt beam="1">  1        2 0.10587003E-01 0.91242407E+02</pdfrwt>
<pdfrwt beam="2">  1       -2 0.46530070E-02 0.91242407E+02</pdfrwt>
<totfact> 0.10987713E+05</totfact>
</mgrwt>
</event>
<event>
 5    1  0.1242969E+001  0.8537557E+02  0.7546771E-02  0.1314453E+00
          2   -1    0    0  501    0  0.00000000000E+00  0.00000000000E+00  0.17098073891E+03  0.17098073891E+03  0.00000000000E+00 0. -1.
         -2   -1    0    0    0  501 -0.00000000000E+00 -0.00000000000E+00 -0.10657614709E+02  0.10657614709E+02  0.00000000000E+00 0.  1.
         23    2    1    2    0    0  0.00000000000E+00  0.00000000000E+00  0.16032312420E+03  0.18163835362E+03  0.85375566480E+02 0.  0.
        -11    1    3    3    0    0 -0.38538268045E+02  0.55155900468E+01  0.11741609785E+03  0.12370189922E+03  0.00000000000E+00 0. -1.
         11    1    3    3    0    0  0.38538268045E+02 -0.55155900468E+01  0.42907026352E+02  0.57936454395E+02  0.00000000000E+00 0.  1.
<mgrwt>
<rscale>  0 0.85375566E+02</rscale>
<asrwt>0</asrwt>
<pdfrwt beam="1">  1        2 0.26304727E-01 0.85375566E+02</pdfrwt>
<pdfrwt beam="2">  1       -2 0.16396332E-02 0.85375566E+02</pdfrwt>
<totfact> 0.17457741E+05</totfact>
</mgrwt>
</event>
<event>
 5    1  0.1242969E+001  0.9210627E+02  0.7546771E-02  0.1297830E+00
         -1   -1    0    0    0  501 -0.00000000000E+00  0.00000000000E+00  0.51985344904E+02  0.51985344904E+02  0.00000000000E+00 0.  1.
          1   -1    0    0  501    0  0.00000000000E+00 -0.00000000000E+00 -0.40797865782E+02  0.40797865782E+02  0.00000000000E+00 0. -1.
         23    2    1    2    0    0  0.00000000000E+00  0.00000000000E+00  0.11187479122E+02  0.92783210685E+02  0.92106267409E+02 0.  0.
        -13    1    3    3    0    0 -0.59797943303E+01  0.20527029433E+02  0.46682913730E+02  0.51345996064E+02  0.00000000000E+00 0.  1.
         13    1    3    3    0    0  0.59797943303E+01 -0.20527029433E+02 -0.35495434607E+02  0.41437214621E+02  0.00000000000E+00 0. -1.
<mgrwt>
<rscale>  0 0.92106267E+02</rscale>
<asrwt>0</asrwt>
<pdfrwt beam="2">  1        1 0.62765947E-02 0.92106267E+02</pdfrwt>
<pdfrwt beam="1">  1       -1 0.79977454E-02 0.92106267E+02</pdfrwt>
<totfact> 0.88365512E+04</totfact>
</mgrwt>
</event>
<event>
 5    1  0.1242969E+001  0.8246626E+02  0.7546771E-02  0.1322195E+00
         -3   -1    0    0    0  501 -0.00000000000E+00  0.00000000000E+00  0.55144684152E+02  0.55144684152E+02  0.00000000000E+00 0.  1.
          3   -1    0    0  501    0  0.00000000000E+00 -0.00000000000E+00 -0.30831092541E+02  0.30831092541E+02  0.00000000000E+00 0. -1.
         23    2    1    2    0    0  0.00000000000E+00  0.00000000000E+00  0.24313591610E+02  0.85975776693E+02  0.82466256378E+02 0.  0.
        -13    1    3    3    0    0 -0.21153479206E+02  0.34672830638E+02  0.19565261729E+02  0.45082971658E+02  0.00000000000E+00 0.  1.
         13    1    3    3    0    0  0.21153479206E+02 -0.34672830638E+02  0.47483298811E+01  0.40892805035E+02  0.00000000000E+00 0. -1.
<mgrwt>
<rscale>  0 0.82466256E+02</rscale>
<asrwt>0</asrwt>
<pdfrwt beam="2">  1        3 0.47432450E-02 0.82466256E+02</pdfrwt>
<pdfrwt beam="1">  1       -3 0.84837975E-02 0.82466256E+02</pdfrwt>
<totfact> 0.46907709E+04</totfact>
</mgrwt>
</event>
<event>
 5    1  0.1242969E+001  0.9113759E+02  0.7546771E-02  0.1300120E+00
         -1   -1    0    0    0  501 -0.00000000000E+00  0.00000000000E+00  0.31529374280E+03  0.31529374280E+03  0.00000000000E+00 0.  1.
          1   -1    0    0  501    0  0.00000000000E+00 -0.00000000000E+00 -0.65859703745E+01  0.65859703745E+01  0.00000000000E+00 0. -1.
         23    2    1    2    0    0  0.00000000000E+00  0.00000000000E+00  0.30870777243E+03  0.32187971317E+03  0.91137593765E+02 0.  0.
        -13    1    3    3    0    0 -0.16022150321E+02 -0.42145726724E+02  0.13104837953E+03  0.13858805634E+03  0.00000000000E+00 0.  1.
         13    1    3    3    0    0  0.16022150321E+02  0.42145726724E+02  0.17765939289E+03  0.18329165683E+03  0.00000000000E+00 0. -1.
<mgrwt>
<rscale>  0 0.91137594E+02</rscale>
<asrwt>0</asrwt>
<pdfrwt beam="2">  1        1 0.10132265E-02 0.91137594E+02</pdfrwt>
<pdfrwt beam="1">  1       -1 0.48506718E-01 0.91137594E+02</pdfrwt>
<totfact> 0.59454662E+04</totfact>
</mgrwt>
</event>
<event>
 5    1  0.1242969E+001  0.9181047E+02  0.7546771E-02  0.1298526E+00
          1   -1    0    0  501    0  0.00000000000E+00  0.00000000000E+00  0.25438130232E+02  0.25438130232E+02  0.00000000000E+00 0. -1.
         -1   -1    0    0    0  501 -0.00000000000E+00 -0.00000000000E+00 -0.82839846685E+02  0.82839846685E+02  0.00000000000E+00 0.  1.
         23    2    1    2    0    0  0.00000000000E+00  0.00000000000E+00 -0.57401716452E+02  0.10827797692E+03  0.91810474531E+02 0.  0.
        -11    1    3    3    0    0 -0.27967730195E+02 -0.13452219515E+02 -0.68592919085E+02  0.75287081832E+02  0.00000000000E+00 0.  1.
         11    1    3    3    0    0  0.27967730195E+02  0.13452219515E+02  0.11191202633E+02  0.32990895085E+02  0.00000000000E+00 0. -1.
<mgrwt>
<rscale>  0 0.91810475E+02</rscale>
<asrwt>0</asrwt>
<pdfrwt beam="1">  1        1 0.39135585E-02 0.91810475E+02</pdfrwt>
<pdfrwt beam="2">  1       -1 0.12744592E-01 0.91810475E+02</pdfrwt>
<totfact> 0.82667782E+04</totfact>
</mgrwt>
</event>
<event>
 5    1  0.1242969E+001  0.9269547E+02  0.7546771E-02  0.1296452E+00
          3   -1    0    0  501    0  0.00000000000E+00  0.00000000000E+00  0.44636205652E+02  0.44636205652E+02  0.00000000000E+00 0. -1.
         -3   -1    0    0    0  501 -0.00000000000E+00 -0.00000000000E+00 -0.48124888993E+02  0.48124888993E+02  0.00000000000E+00 0.  1.
         23    2    1    2    0    0  0.00000000000E+00  0.00000000000E+00 -0.34886833416E+01  0.92761094645E+02  0.92695467895E+02 0.  0.
        -11    1    3    3    0    0 -0.44759842587E+02  0.49659527078E+01  0.92182417371E+01  0.45968251820E+02  0.00000000000E+00 0.  1.
         11    1    3    3    0    0  0.44759842587E+02 -0.49659527078E+01 -0.12706925079E+02  0.46792842825E+02  0.00000000000E+00 0. -1.
<mgrwt>
<rscale>  0 0.92695468E+02</rscale>
<asrwt>0</asrwt>
<pdfrwt beam="1">  1        3 0.68671086E-02 0.92695468E+02</pdfrwt>
<pdfrwt beam="2">  1       -3 0.74038290E-02 0.92695468E+02</pdfrwt>
<totfact> 0.33663458E+04</totfact>
</mgrwt>
</event>
<event>
 4    1  0.1242969E+001  0.1297998E+03  0.7546771E-02  0.1227753E+00
          2   -1    0    0  501    0  0.00000000000E+00  0.00000000000E+00  0.12725036244E+03  0.12725036244E+03  0.00000000000E+00 0. -1.
         -2   -1    0    0    0  501 -0.00000000000E+00 -0.00000000000E+00 -0.33100065596E+02  0.33100065596E+02  0.00000000000E+00 0.  1.
        -11    1    1    2    0    0  0.40731127246E+02  0.10330548805E+02 -0.14025615430E+02  0.44299693606E+02  0.00000000000E+00 0.  1.
         11    1    1    2    0    0 -0.40731127246E+02 -0.10330548805E+02  0.10817591227E+03  0.11605073443E+03  0.00000000000E+00 0. -1.
<mgrwt>
<rscale>  0 0.12979977E+03</rscale>
<asrwt>0</asrwt>
<pdfrwt beam="1">  1        2 0.19576979E-01 0.12979977E+03</pdfrwt>
<pdfrwt beam="2">  1       -2 0.50923178E-02 0.12979977E+03</pdfrwt>
<totfact> 0.49204139E+04</totfact>
</mgrwt>
</event>
<event>
 5    1  0.1242969E+001  0.8604366E+02  0.7546771E-02  0.1312726E+00
         -3   -1    0    0    0  501 -0.00000000000E+00  0.00000000000E+00  0.12668310592E+02  0.12668310592E+02  0.00000000000E+00 0.  1.
          3   -1    0    0  501    0  0.00000000000E+00 -0.00000000000E+00 -0.14610296608E+03  0.14610296608E+03  0.00000000000E+00 0. -1.
         23    2    1    2    0    0  0.00000000000E+00  0.00000000000E+00 -0.13343465549E+03  0.15877127667E+03  0.86043657586E+02 0.  0.
        -11    1    3    3    0    0 -0.27802172284E+01 -0.28028078900E+02 -0.12672525816E+03  0.12981754069E+03  0.00000000000E+00 0. -1.
         11    1    3    3    0    0  0.27802172284E+01  0.28028078900E+02 -0.67093973223E+01  0.28953735978E+02  0.00000000000E+00 0.  1.
<mgrwt>
<rscale>  0 0.86043658E+02</rscale>
<asrwt>0</asrwt>
<pdfrwt beam="2">  1        3 0.22477380E-01 0.86043658E+02</pdfrwt>
<pdfrwt beam="1">  1       -3 0.19489708E-02 0.86043658E+02</pdfrwt>
<totfact> 0.35977367E+04</totfact>
</mgrwt>
</event>
<event>
 5    1  0.1242969E+001  0.1098504E+03  0.7546771E-02  0.1260847E+00
         -1   -1    0    0    0  501 -0.00000000000E+00  0.00000000000E+00  0.16771989536E+03  0.16771989536E+03  0.00000000000E+00 0.  1.
          1   -1    0    0  501    0  0.00000000000E+00 -0.00000000000E+00 -0.17987014280E+02  0.17987014280E+02  0.00000000000E+00 0. -1.
         23    2    1    2    0    0  0.00000000000E+00  0.00000000000E+00  0.14973288108E+03  0.18570690964E+03  0.10985044657E+03 0.  0.
        -11    1    3    3    0    0  0.86530349890E+01 -0.42048435557E+02  0.13278658236E+03  0.13955365420E+03  0.00000000000E+00 0.  1.
         11    1    3    3    0    0 -0.86530349890E+01  0.42048435557E+02  0.16946298727E+02  0.46153255441E+02  0.00000000000E+00 0. -1.
<mgrwt>
<rscale>  0 0.10985045E+03</rscale>
<asrwt>0</asrwt>
<pdfrwt beam="2">  1        1 0.27672331E-02 0.10985045E+03</pdfrwt>
<pdfrwt beam="1">  1       -1 0.25803060E-01 0.10985045E+03</pdfrwt>
<totfact> 0.44740867E+04</totfact>
</mgrwt>
</event>
<event>
 5    1  0.1242969E+001  0.9190609E+02  0.7546771E-02  0.1298300E+00
         -1   -1    0    0    0  501 -0.00000000000E+00  0.00000000000E+00  0.27624663798E+03  0.27624663798E+03  0.00000000000E+00 0.  1.
          1   -1    0    0  501    0  0.00000000000E+00 -0.00000000000E+00 -0.76441928226E+01  0.76441928226E+01  0.00000000000E+00 0. -1.
         23    2    1    2    0    0  0.00000000000E+00  0.00000000000E+00  0.26860244515E+03  0.28389083080E+03  0.91906094842E+02 0.  0.
        -11    1    3    3    0    0 -0.35601891160E+02  0.11198786173E+02  0.51487260136E+02  0.63591236993E+02  0.00000000000E+00 0. -1.
         11    1    3    3    0    0  0.35601891160E+02 -0.11198786173E+02  0.21711518502E+03  0.22029959381E+03  0.00000000000E+00 0.  1.
<mgrwt>
<rscale>  0 0.91906095E+02</rscale>
<asrwt>0</asrwt>
<pdfrwt beam="2">  1        1 0.11760299E-02 0.91906095E+02</pdfrwt>
<pdfrwt beam="1">  1       -1 0.42499475E-01 0.91906095E+02</pdfrwt>
<totfact> 0.61229825E+04</totfact>
</mgrwt>
</event>
<event>
 5    1  0.1242969E+001  0.9149969E+02  0.7546771E-02  0.1299260E+00
          2   -1    0    0  501    0  0.00000000000E+00  0.00000000000E+00  0.11535013326E+03  0.11535013326E+03  0.00000000000E+00 0. -1.
         -2   -1    0    0    0  501 -0.00000000000E+00 -0.00000000000E+00 -0.18145174374E+02  0.18145174374E+02  0.00000000000E+00 0.  1.
         23    2    1    2    0    0  0.00000000000E+00  0.00000000000E+00  0.97204958885E+02  0.13349530763E+03  0.91499689224E+02 0.  0.
        -11    1    3    3    0    0 -0.26794659475E+02  0.25165927229E+02  0.88338209183E+02  0.95681329795E+02  0.00000000000E+00 0. -1.
         11    1    3    3    0    0  0.26794659475E+02 -0.25165927229E+02  0.88667497022E+01  0.37813977838E+02  0.00000000000E+00 0.  1.
<mgrwt>
<rscale>  0 0.91499689E+02</rscale>
<asrwt>0</asrwt>
<pdfrwt beam="1">  1        2 0.17746174E-01 0.91499689E+02</pdfrwt>
<pdfrwt beam="2">  1       -2 0.27915654E-02 0.91499689E+02</pdfrwt>
<totfact> 0.12700350E+05</totfact>
</mgrwt>
</event>
<event>
 5    1  0.1242969E+001  0.9295839E+02  0.7546771E-02  0.1295842E+00
          1   -1    0    0  501    0  0.00000000000E+00  0.00000000000E+00  0.34208838867E+02  0.34208838867E+02  0.00000000000E+00 0. -1.
         -1   -1    0    0    0  501 -0.00000000000E+00 -0.00000000000E+00 -0.63150796780E+02  0.63150796780E+02  0.00000000000E+00 0.  1.
         23    2    1    2    0    0  0.00000000000E+00  0.00000000000E+00 -0.28941957913E+02  0.97359635648E+02  0.92958387065E+02 0.  0.
        -11    1    3    3    0    0  0.15395095426E+01 -0.26568993866E+02  0.25438746409E+02  0.36815911554E+02  0.00000000000E+00 0. -1.
         11    1    3    3    0    0 -0.15395095426E+01  0.26568993866E+02 -0.54380704322E+02  0.60543724094E+02  0.00000000000E+00 0.  1.
<mgrwt>
<rscale>  0 0.92958387E+02</rscale>
<asrwt>0</asrwt>
<pdfrwt beam="1">  1        1 0.52628983E-02 0.92958387E+02</pdfrwt>
<pdfrwt beam="2">  1       -1 0.97155071E-02 0.92958387E+02</pdfrwt>
<totfact> 0.83748324E+04</totfact>
</mgrwt>
</event>
<event>
 5    1  0.1242969E+001  0.9138719E+02  0.7546771E-02  0.1299527E+00
         -1   -1    0    0    0  501 -0.00000000000E+00  0.00000000000E+00  0.13902702692E+02  0.13902702692E+02  0.00000000000E+00 0.  1.
          1   -1    0    0  501    0  0.00000000000E+00 -0.00000000000E+00 -0.15017977161E+03  0.15017977161E+03  0.00000000000E+00 0. -1.
         23    2    1    2    0    0  0.00000000000E+00  0.00000000000E+00 -0.13627706891E+03  0.16408247430E+03  0.91387191989E+02 0.  0.
        -13    1    3    3    0    0 -0.25680701596E+01  0.45611682257E+02 -0.69826817683E+02  0.83443424009E+02  0.00000000000E+00 0. -1.
         13    1    3    3    0    0  0.25680701596E+01 -0.45611682257E+02 -0.66450251231E+02  0.80639050287E+02  0.00000000000E+00 0.  1.
<mgrwt>
<rscale>  0 0.91387192E+02</rscale>
<asrwt>0</asrwt>
<pdfrwt beam="2">  1        1 0.23104582E-01 0.91387192E+02</pdfrwt>
<pdfrwt beam="1">  1       -1 0.21388772E-02 0.91387192E+02</pdfrwt>
<totfact> 0.11146162E+05</totfact>
</mgrwt>
</event>
<event>
 5    1  0.1242969E+001  0.9150306E+02  0.7546771E-02  0.1299252E+00
         -1   -1    0    0    0  501 -0.00000000000E+00  0.00000000000E+00  0.97793116237E+01  0.97793116237E+01  0.00000000000E+00 0.  1.
          1   -1    0    0  501    0  0.00000000000E+00 -0.00000000000E+00 -0.21404393349E+03  0.21404393349E+03  0.00000000000E+00 0. -1.
         23    2    1    2    0    0  0.00000000000E+00  0.00000000000E+00 -0.20426462187E+03  0.22382324511E+03  0.91503056272E+02 0.  0.
        -13    1    3    3    0    0  0.36146230381E+02 -0.26630728579E+02 -0.12366007607E+03  0.13155820039E+03  0.00000000000E+00 0. -1.
         13    1    3    3    0    0 -0.36146230381E+02  0.26630728579E+02 -0.80604545796E+02  0.92265044727E+02  0.00000000000E+00 0.  1.
<mgrwt>
<rscale>  0 0.91503056E+02</rscale>
<asrwt>0</asrwt>
<pdfrwt beam="2">  1        1 0.32929837E-01 0.91503056E+02</pdfrwt>
<pdfrwt beam="1">  1       -1 0.15045094E-02 0.91503056E+02</pdfrwt>
<totfact> 0.11883579E+05</totfact>
</mgrwt>
</event>
<event>
 5    1  0.1242969E+001  0.9096156E+02  0.7546771E-02  0.1300540E+00
          3   -1    0    0  501    0  0.00000000000E+00  0.00000000000E+00  0.36482229344E+02  0.36482229344E+02  0.00000000000E+00 0. -1.
         -3   -1    0    0    0  501 -0.00000000000E+00 -0.00000000000E+00 -0.56698879774E+02  0.56698879774E+02  0.00000000000E+00 0.  1.
         23    2    1    2    0    0  0.00000000000E+00  0.00000000000E+00 -0.20216650430E+02  0.93181109119E+02  0.90961564091E+02 0.  0.
        -11    1    3    3    0    0 -0.36134255869E+02  0.25512128948E+02  0.73041565174E+00  0.44238972385E+02  0.00000000000E+00 0.  1.
         11    1    3    3    0    0  0.36134255869E+02 -0.25512128948E+02 -0.20947066082E+02  0.48942136734E+02  0.00000000000E+00 0. -1.
<mgrwt>
<rscale>  0 0.90961564E+02</rscale>
<asrwt>0</asrwt>
<pdfrwt beam="1">  1        3 0.56126506E-02 0.90961564E+02</pdfrwt>
<pdfrwt beam="2">  1       -3 0.87229046E-02 0.90961564E+02</pdfrwt>
<totfact> 0.35413340E+04</totfact>
</mgrwt>
</event>
<event>
 5    1  0.1242969E+001  0.9113016E+02  0.7546771E-02  0.1300138E+00
         -1   -1    0    0    0  501 -0.00000000000E+00  0.00000000000E+00  0.80653037752E+02  0.80653037752E+02  0.00000000000E+00 0.  1.
          1   -1    0    0  501    0  0.00000000000E+00 -0.00000000000E+00 -0.25742073343E+02  0.25742073343E+02  0.00000000000E+00 0. -1.
         23    2    1    2    0    0  0.00000000000E+00  0.00000000000E+00  0.54910964408E+02  0.10639511110E+03  0.91130157756E+02 0.  0.
        -11    1    3    3    0    0 -0.84122397644E+01 -0.15190904103E+02  0.76638542508E+02  0.78581139869E+02  0.00000000000E+00 0.  1.
         11    1    3    3    0    0  0.84122397644E+01  0.15190904103E+02 -0.21727578100E+02  0.27813971227E+02  0.00000000000E+00 0. -1.
<mgrwt>
<rscale>  0 0.91130158E+02</rscale>
<asrwt>0</asrwt>
<pdfrwt beam="2">  1        1 0.39603190E-02 0.91130158E+02</pdfrwt>
<pdfrwt beam="1">  1       -1 0.12408160E-01 0.91130158E+02</pdfrwt>
<totfact> 0.84645204E+04</totfact>
</mgrwt>
</event>
<event>
 5    1  0.1242969E+001  0.9102138E+02  0.7546771E-02  0.1300397E+00
         -2   -1    0    0    0  501 -0.00000000000E+00  0.00000000000E+00  0.11484304156E+02  0.11484304156E+02  0.00000000000E+00 0.  1.
          2   -1    0    0  501    0  0.00000000000E+00 -0.00000000000E+00 -0.18035249389E+03  0.18035249389E+03  0.00000000000E+00 0. -1.
         23    2    1    2    0    0  0.00000000000E+00  0.00000000000E+00 -0.16886818974E+03  0.19183679805E+03  0.91021379799E+02 0.  0.
        -13    1    3    3    0    0 -0.26751404844E+02  0.28505091616E+02 -0.35319970420E+02  0.52684705747E+02  0.00000000000E+00 0.  1.
         13    1    3    3    0    0  0.26751404844E+02 -0.28505091616E+02 -0.13354821932E+03  0.13915209230E+03  0.00000000000E+00 0. -1.
<mgrwt>
<rscale>  0 0.91021380E+02</rscale>
<asrwt>0</asrwt>
<pdfrwt beam="2">  1        2 0.27746537E-01 0.91021380E+02</pdfrwt>
<pdfrwt beam="1">  1       -2 0.17668161E-02 0.91021380E+02</pdfrwt>
<totfact> 0.14973872E+05</totfact>
</mgrwt>
</event>
<event>
 5    1  0.1242969E+001  0.9096225E+02  0.7546771E-02  0.1300538E+00
          1   -1    0    0  501    0  0.00000000000E+00  0.00000000000E+00  0.46164877517E+02  0.46164877517E+02  0.00000000000E+00 0. -1.
         -1   -1    0    0    0  501 -0.00000000000E+00 -0.00000000000E+00 -0.44807497932E+02  0.44807497932E+02  0.00000000000E+00 0.  1.
         23    2    1    2    0    0  0.00000000000E+00  0.00000000000E+00  0.13573795850E+01  0.90972375449E+02  0.90962248299E+02 0.  0.
        -13    1    3    3    0    0  0.86601317944E+01  0.30034924323E+02 -0.32361908462E+02  0.44993195942E+02  0.00000000000E+00 0.  1.
         13    1    3    3    0    0 -0.86601317944E+01 -0.30034924323E+02  0.33719288047E+02  0.45979179507E+02  0.00000000000E+00 0. -1.
<mgrwt>
<rscale>  0 0.90962248E+02</rscale>
<asrwt>0</asrwt>
<pdfrwt beam="1">  1        1 0.71022888E-02 0.90962248E+02</pdfrwt>
<pdfrwt beam="2">  1       -1 0.68934613E-02 0.90962248E+02</pdfrwt>
<totfact> 0.93261678E+04</totfact>
</mgrwt>
</event>
<event>
 5    1  0.1242969E+001  0.8859264E+02  0.7546771E-02  0.1306296E+00
          2   -1    0    0  501    0  0.00000000000E+00  0.00000000000E+00  0.21977782214E+02  0.21977782214E+02  0.00000000000E+00 0.  1.
         -2   -1    0    0    0  501 -0.00000000000E+00 -0.00000000000E+00 -0.89279428391E+02  0.89279428391E+02  0.00000000000E+00 0. -1.
         23    2    1    2    0    0  0.00000000000E+00  0.00000000000E+00 -0.67301646178E+02  0.11125721061E+03  0.88592637016E+02 0.  0.
        -11    1    3    3    0    0  0.38163556589E+02  0.16164063226E+02 -0.14016874396E+02  0.43751648647E+02  0.00000000000E+00 0.  1.
         11    1    3    3    0    0 -0.38163556589E+02 -0.16164063226E+02 -0.53284771781E+02  0.67505561958E+02  0.00000000000E+00 0. -1.
<mgrwt>
<rscale>  0 0.88592637E+02</rscale>
<asrwt>0</asrwt>
<pdfrwt beam="1">  1        2 0.33811972E-02 0.88592637E+02</pdfrwt>
<pdfrwt beam="2">  1       -2 0.13735297E-01 0.88592637E+02</pdfrwt>
<totfact> 0.88570616E+04</totfact>
</mgrwt>
</event>
<event>
 5    1  0.1242969E+001  0.1014408E+03  0.7546771E-02  0.1277295E+00
          3   -1    0    0  501    0  0.00000000000E+00  0.00000000000E+00  0.86512705767E+01  0.86512705767E+01  0.00000000000E+00 0. -1.
         -3   -1    0    0    0  501 -0.00000000000E+00 -0.00000000000E+00 -0.29736212077E+03  0.29736212077E+03  0.00000000000E+00 0.  1.
         23    2    1    2    0    0  0.00000000000E+00  0.00000000000E+00 -0.28871085019E+03  0.30601339135E+03  0.10144082346E+03 0.  0.
        -11    1    3    3    0    0 -0.17529200954E+02 -0.41535156486E+02 -0.21446414116E+03  0.21915134029E+03  0.00000000000E+00 0.  1.
         11    1    3    3    0    0  0.17529200954E+02  0.41535156486E+02 -0.74246709038E+02  0.86862051054E+02  0.00000000000E+00 0. -1.
<mgrwt>
<rscale>  0 0.10144082E+03</rscale>
<asrwt>0</asrwt>
<pdfrwt beam="1">  1        3 0.13309647E-02 0.10144082E+03</pdfrwt>
<pdfrwt beam="2">  1       -3 0.45748018E-01 0.10144082E+03</pdfrwt>
<totfact> 0.17834037E+04</totfact>
</mgrwt>
</event>
<event>
 5    1  0.1242969E+001  0.8435843E+02  0.7546771E-02  0.1317119E+00
         -2   -1    0    0    0  501 -0.00000000000E+00  0.00000000000E+00  0.19001703694E+02  0.19001703694E+02  0.00000000000E+00 0.  1.
          2   -1    0    0  501    0  0.00000000000E+00 -0.00000000000E+00 -0.93627719660E+02  0.93627719660E+02  0.00000000000E+00 0. -1.
         23    2    1    2    0    0  0.00000000000E+00  0.00000000000E+00 -0.74626015966E+02  0.11262942335E+03  0.84358430202E+02 0.  0.
        -11    1    3    3    0    0  0.20093086342E+02  0.18708424400E+02  0.54392651589E+01  0.27987905741E+02  0.00000000000E+00 0.  1.
         11    1    3    3    0    0 -0.20093086342E+02 -0.18708424400E+02 -0.80065281125E+02  0.84641517613E+02  0.00000000000E+00 0. -1.
<mgrwt>
<rscale>  0 0.84358430E+02</rscale>
<asrwt>0</asrwt>
<pdfrwt beam="2">  1        2 0.14404264E-01 0.84358430E+02</pdfrwt>
<pdfrwt beam="1">  1       -2 0.29233390E-02 0.84358430E+02</pdfrwt>
<totfact> 0.14883560E+05</totfact>
</mgrwt>
</event>
<event>
 5    1  0.1242969E+001  0.8472381E+02  0.7546771E-02  0.1316156E+00
         -1   -1    0    0    0  501 -0.00000000000E+00  0.00000000000E+00  0.54283251713E+01  0.54283251713E+01  0.00000000000E+00 0.  1.
          1   -1    0    0  501    0  0.00000000000E+00 -0.00000000000E+00 -0.33058649580E+03  0.33058649580E+03  0.00000000000E+00 0. -1.
         23    2    1    2    0    0  0.00000000000E+00  0.00000000000E+00 -0.32515817063E+03  0.33601482097E+03  0.84723810029E+02 0.  0.
        -11    1    3    3    0    0  0.42014839620E+02 -0.48096938794E+01 -0.15274284569E+03  0.15848898010E+03  0.00000000000E+00 0.  1.
         11    1    3    3    0    0 -0.42014839620E+02  0.48096938794E+01 -0.17241532494E+03  0.17752584087E+03  0.00000000000E+00 0. -1.
<mgrwt>
<rscale>  0 0.84723810E+02</rscale>
<asrwt>0</asrwt>
<pdfrwt beam="2">  1        1 0.50859466E-01 0.84723810E+02</pdfrwt>
<pdfrwt beam="1">  1       -1 0.83512687E-03 0.84723810E+02</pdfrwt>
<totfact> 0.15849166E+05</totfact>
</mgrwt>
</event>
<event>
 5    1  0.1242969E+001  0.9237786E+02  0.7546771E-02  0.1297193E+00
         -1   -1    0    0    0  501 -0.00000000000E+00  0.00000000000E+00  0.15464500262E+02  0.15464500262E+02  0.00000000000E+00 0.  1.
          1   -1    0    0  501    0  0.00000000000E+00 -0.00000000000E+00 -0.13795578957E+03  0.13795578957E+03  0.00000000000E+00 0. -1.
         23    2    1    2    0    0  0.00000000000E+00  0.00000000000E+00 -0.12249128931E+03  0.15342028983E+03  0.92377861937E+02 0.  0.
        -13    1    3    3    0    0 -0.25679630668E+02  0.37885939702E+02 -0.50923395080E+02  0.68468825204E+02  0.00000000000E+00 0.  1.
         13    1    3    3    0    0  0.25679630668E+02 -0.37885939702E+02 -0.71567894228E+02  0.84951464629E+02  0.00000000000E+00 0. -1.
<mgrwt>
<rscale>  0 0.92377862E+02</rscale>
<asrwt>0</asrwt>
<pdfrwt beam="2">  1        1 0.21223968E-01 0.92377862E+02</pdfrwt>
<pdfrwt beam="1">  1       -1 0.23791538E-02 0.92377862E+02</pdfrwt>
<totfact> 0.10659182E+05</totfact>
</mgrwt>
</event>
<event>
 5    1  0.1242969E+001  0.8995074E+02  0.7546771E-02  0.1302971E+00
         -1   -1    0    0    0  501 -0.00000000000E+00  0.00000000000E+00  0.11830046530E+02  0.11830046530E+02  0.00000000000E+00 0.  1.
          1   -1    0    0  501    0  0.00000000000E+00 -0.00000000000E+00 -0.17098698583E+03  0.17098698583E+03  0.00000000000E+00 0. -1.
         23    2    1    2    0    0  0.00000000000E+00  0.00000000000E+00 -0.15915693930E+03  0.18281703236E+03  0.89950742041E+02 0.  0.
        -11    1    3    3    0    0  0.19674410833E+02  0.20553857813E+02 -0.87862790149E+01  0.29778217065E+02  0.00000000000E+00 0.  1.
         11    1    3    3    0    0 -0.19674410833E+02 -0.20553857813E+02 -0.15037066028E+03  0.15303881530E+03  0.00000000000E+00 0. -1.
<mgrwt>
<rscale>  0 0.89950742E+02</rscale>
<asrwt>0</asrwt>
<pdfrwt beam="2">  1        1 0.26305688E-01 0.89950742E+02</pdfrwt>
<pdfrwt beam="1">  1       -1 0.18200073E-02 0.89950742E+02</pdfrwt>
<totfact> 0.11915623E+05</totfact>
</mgrwt>
</event>
<event>
 5    1  0.1242969E+001  0.1009286E+03  0.7546771E-02  0.1278355E+00
         -3   -1    0    0    0  501 -0.00000000000E+00  0.00000000000E+00  0.10987060015E+02  0.10987060015E+02  0.00000000000E+00 0.  1.
          3   -1    0    0  501    0  0.00000000000E+00 -0.00000000000E+00 -0.23178595615E+03  0.23178595615E+03  0.00000000000E+00 0. -1.
         23    2    1    2    0    0  0.00000000000E+00  0.00000000000E+00 -0.22079889613E+03  0.24277301616E+03  0.10092861261E+03 0.  0.
        -13    1    3    3    0    0  0.18109870620E+02  0.40812365909E+02 -0.53832819715E+02  0.69939896364E+02  0.00000000000E+00 0.  1.
         13    1    3    3    0    0 -0.18109870620E+02 -0.40812365909E+02 -0.16696607642E+03  0.17283311980E+03  0.00000000000E+00 0. -1.
<mgrwt>
<rscale>  0 0.10092861E+03</rscale>
<asrwt>0</asrwt>
<pdfrwt beam="2">  1        3 0.35659378E-01 0.10092861E+03</pdfrwt>
<pdfrwt beam="1">  1       -3 0.16903169E-02 0.10092861E+03</pdfrwt>
<totfact> 0.20067020E+04</totfact>
</mgrwt>
</event>
<event>
 5    1  0.1242969E+001  0.9244173E+02  0.7546771E-02  0.1297044E+00
         -2   -1    0    0    0  501 -0.00000000000E+00  0.00000000000E+00  0.21909565670E+02  0.21909565670E+02  0.00000000000E+00 0.  1.
          2   -1    0    0  501    0  0.00000000000E+00 -0.00000000000E+00 -0.97508480091E+02  0.97508480091E+02  0.00000000000E+00 0. -1.
         23    2    1    2    0    0  0.00000000000E+00  0.00000000000E+00 -0.75598914422E+02  0.11941804576E+03  0.92441731872E+02 0.  0.
        -11    1    3    3    0    0  0.19311600891E+02  0.16547860930E+02  0.12058737117E+02  0.28145741617E+02  0.00000000000E+00 0.  1.
         11    1    3    3    0    0 -0.19311600891E+02 -0.16547860930E+02 -0.87657651539E+02  0.91272304143E+02  0.00000000000E+00 0. -1.
<mgrwt>
<rscale>  0 0.92441732E+02</rscale>
<asrwt>0</asrwt>
<pdfrwt beam="2">  1        2 0.15001305E-01 0.92441732E+02</pdfrwt>
<pdfrwt beam="1">  1       -2 0.33707024E-02 0.92441732E+02</pdfrwt>
<totfact> 0.11719640E+05</totfact>
</mgrwt>
</event>
<event>
 5    1  0.1242969E+001  0.9062204E+02  0.7546771E-02  0.1301352E+00
          1   -1    0    0  501    0  0.00000000000E+00  0.00000000000E+00  0.26095842341E+02  0.26095842341E+02  0.00000000000E+00 0. -1.
         -1   -1    0    0    0  501 -0.00000000000E+00 -0.00000000000E+00 -0.78674922736E+02  0.78674922736E+02  0.00000000000E+00 0.  1.
         23    2    1    2    0    0  0.00000000000E+00  0.00000000000E+00 -0.52579080396E+02  0.10477076508E+03  0.90622036611E+02 0.  0.
        -11    1    3    3    0    0 -0.43280229058E+02 -0.12839279490E+02 -0.30776609983E+02  0.54637213026E+02  0.00000000000E+00 0. -1.
         11    1    3    3    0    0  0.43280229058E+02  0.12839279490E+02 -0.21802470412E+02  0.50133552051E+02  0.00000000000E+00 0.  1.
<mgrwt>
<rscale>  0 0.90622037E+02</rscale>
<asrwt>0</asrwt>
<pdfrwt beam="1">  1        1 0.40147450E-02 0.90622037E+02</pdfrwt>
<pdfrwt beam="2">  1       -1 0.12103834E-01 0.90622037E+02</pdfrwt>
<totfact> 0.86224542E+04</totfact>
</mgrwt>
</event>
<event>
 5    1  0.1242969E+001  0.8995588E+02  0.7546771E-02  0.1302959E+00
         -1   -1    0    0    0  501 -0.00000000000E+00  0.00000000000E+00  0.13290457058E+03  0.13290457058E+03  0.00000000000E+00 0.  1.
          1   -1    0    0  501    0  0.00000000000E+00 -0.00000000000E+00 -0.15221561470E+02  0.15221561470E+02  0.00000000000E+00 0. -1.
         23    2    1    2    0    0  0.00000000000E+00  0.00000000000E+00  0.11768300911E+03  0.14812613205E+03  0.89955880091E+02 0.  0.
        -11    1    3    3    0    0  0.15833376882E+02 -0.42015127704E+02  0.63213147300E+02  0.77536241661E+02  0.00000000000E+00 0.  1.
         11    1    3    3    0    0 -0.15833376882E+02  0.42015127704E+02  0.54469861809E+02  0.70589890388E+02  0.00000000000E+00 0. -1.
<mgrwt>
<rscale>  0 0.89955880E+02</rscale>
<asrwt>0</asrwt>
<pdfrwt beam="2">  1        1 0.23417788E-02 0.89955880E+02</pdfrwt>
<pdfrwt beam="1">  1       -1 0.20446856E-01 0.89955880E+02</pdfrwt>
<totfact> 0.79585691E+04</totfact>
</mgrwt>
</event>
<event>
 5    1  0.1242969E+001  0.9068237E+02  0.7546771E-02  0.1301208E+00
         -2   -1    0    0    0  501 -0.00000000000E+00  0.00000000000E+00  0.10288780159E+02  0.10288780159E+02  0.00000000000E+00 0.  1.
          2   -1    0    0  501    0  0.00000000000E+00 -0.00000000000E+00 -0.19981211374E+03  0.19981211374E+03  0.00000000000E+00 0. -1.
         23    2    1    2    0    0  0.00000000000E+00  0.00000000000E+00 -0.18952333358E+03  0.21010089390E+03  0.90682366783E+02 0.  0.
        -11    1    3    3    0    0  0.42403703596E+02  0.14350361539E+01 -0.13180938834E+03  0.13846966549E+03  0.00000000000E+00 0.  1.
         11    1    3    3    0    0 -0.42403703596E+02 -0.14350361539E+01 -0.57713945241E+02  0.71631228404E+02  0.00000000000E+00 0. -1.
<mgrwt>
<rscale>  0 0.90682367E+02</rscale>
<asrwt>0</asrwt>
<pdfrwt beam="2">  1        2 0.30740323E-01 0.90682367E+02</pdfrwt>
<pdfrwt beam="1">  1       -2 0.15828894E-02 0.90682367E+02</pdfrwt>
<totfact> 0.15690616E+05</totfact>
</mgrwt>
</event>
<event>
 5    1  0.1242969E+001  0.9420445E+02  0.7546771E-02  0.1292978E+00
         -2   -1    0    0    0  501 -0.00000000000E+00  0.00000000000E+00  0.28599147379E+02  0.28599147379E+02  0.00000000000E+00 0.  1.
          2   -1    0    0  501    0  0.00000000000E+00 -0.00000000000E+00 -0.77576418203E+02  0.77576418203E+02  0.00000000000E+00 0. -1.
         23    2    1    2    0    0  0.00000000000E+00  0.00000000000E+00 -0.48977270824E+02  0.10617556558E+03  0.94204446123E+02 0.  0.
        -13    1    3    3    0    0  0.45760092149E+02 -0.23388240142E+01 -0.12185255969E+02  0.47412409708E+02  0.00000000000E+00 0.  1.
         13    1    3    3    0    0 -0.45760092149E+02  0.23388240142E+01 -0.36792014854E+02  0.58763155874E+02  0.00000000000E+00 0. -1.
<mgrwt>
<rscale>  0 0.94204446E+02</rscale>
<asrwt>0</asrwt>
<pdfrwt beam="2">  1        2 0.11934834E-01 0.94204446E+02</pdfrwt>
<pdfrwt beam="1">  1       -2 0.43998688E-02 0.94204446E+02</pdfrwt>
<totfact> 0.10392431E+05</totfact>
</mgrwt>
</event>
<event>
 5    1  0.1242969E+001  0.9272273E+02  0.7546771E-02  0.1296389E+00
          1   -1    0    0  501    0  0.00000000000E+00  0.00000000000E+00  0.48271740828E+02  0.48271740828E+02  0.00000000000E+00 0. -1.
         -1   -1    0    0    0  501 -0.00000000000E+00 -0.00000000000E+00 -0.44526595743E+02  0.44526595743E+02  0.00000000000E+00 0.  1.
         23    2    1    2    0    0  0.00000000000E+00  0.00000000000E+00  0.37451450847E+01  0.92798336571E+02  0.92722732696E+02 0.  0.
        -11    1    3    3    0    0  0.12844892331E+02  0.30169197210E+02 -0.30929211637E+02  0.45075357479E+02  0.00000000000E+00 0.  1.
         11    1    3    3    0    0 -0.12844892331E+02 -0.30169197210E+02  0.34674356722E+02  0.47722979092E+02  0.00000000000E+00 0. -1.
<mgrwt>
<rscale>  0 0.92722733E+02</rscale>
<asrwt>0</asrwt>
<pdfrwt beam="1">  1        1 0.74264217E-02 0.92722733E+02</pdfrwt>
<pdfrwt beam="2">  1       -1 0.68502455E-02 0.92722733E+02</pdfrwt>
<totfact> 0.88972023E+04</totfact>
</mgrwt>
</event>
<event>
 5    1  0.1242969E+001  0.9030324E+02  0.7546771E-02  0.1302119E+00
          4   -1    0    0  501    0  0.00000000000E+00  0.00000000000E+00  0.20392123650E+03  0.20392123650E+03  0.00000000000E+00 0.  1.
         -4   -1    0    0    0  501 -0.00000000000E+00 -0.00000000000E+00 -0.99973334750E+01  0.99973334750E+01  0.00000000000E+00 0. -1.
         23    2    1    2    0    0  0.00000000000E+00  0.00000000000E+00  0.19392390303E+03  0.21391856998E+03  0.90303235910E+02 0.  0.
        -13    1    3    3    0    0 -0.43755342638E+02 -0.99176397260E+01  0.10898953414E+03  0.11786266644E+03  0.00000000000E+00 0.  1.
         13    1    3    3    0    0  0.43755342638E+02  0.99176397260E+01  0.84934368888E+02  0.96055903543E+02  0.00000000000E+00 0. -1.
<mgrwt>
<rscale>  0 0.90303236E+02</rscale>
<asrwt>0</asrwt>
<pdfrwt beam="1">  1        4 0.31372495E-01 0.90303236E+02</pdfrwt>
<pdfrwt beam="2">  1       -4 0.15380515E-02 0.90303236E+02</pdfrwt>
<totfact> 0.21360329E+04</totfact>
</mgrwt>
</event>
<event>
 5    1  0.1242969E+001  0.9106582E+02  0.7546771E-02  0.1300291E+00
          1   -1    0    0  501    0  0.00000000000E+00  0.00000000000E+00  0.20795444580E+03  0.20795444580E+03  0.00000000000E+00 0. -1.
         -1   -1    0    0    0  501 -0.00000000000E+00 -0.00000000000E+00 -0.99697125133E+01  0.99697125133E+01  0.00000000000E+00 0.  1.
         23    2    1    2    0    0  0.00000000000E+00  0.00000000000E+00  0.19798473328E+03  0.21792415831E+03  0.91065823237E+02 0.  0.
        -13    1    3    3    0    0  0.19826838385E+01  0.37422115116E+02  0.16088381649E+03  0.16519064182E+03  0.00000000000E+00 0. -1.
         13    1    3    3    0    0 -0.19826838385E+01 -0.37422115116E+02  0.37100916791E+02  0.52733516492E+02  0.00000000000E+00 0.  1.
<mgrwt>
<rscale>  0 0.91065823E+02</rscale>
<asrwt>0</asrwt>
<pdfrwt beam="1">  1        1 0.31992988E-01 0.91065823E+02</pdfrwt>
<pdfrwt beam="2">  1       -1 0.15338021E-02 0.91065823E+02</pdfrwt>
<totfact> 0.11969708E+05</totfact>
</mgrwt>
</event>
<event>
 5    1  0.1242969E+001  0.1000542E+03  0.7546771E-02  0.1280182E+00
         -1   -1    0    0    0  501 -0.00000000000E+00  0.00000000000E+00  0.15326654107E+03  0.15326654107E+03  0.00000000000E+00 0.  1.
          1   -1    0    0  501    0  0.00000000000E+00 -0.00000000000E+00 -0.16329125446E+02  0.16329125446E+02  0.00000000000E+00 0. -1.
         23    2    1    2    0    0  0.00000000000E+00  0.00000000000E+00  0.13693741562E+03  0.16959566652E+03  0.10005415685E+03 0.  0.
        -13    1    3    3    0    0 -0.39867252025E+02  0.17028396558E+02  0.26148900536E+02  0.50627354983E+02  0.00000000000E+00 0.  1.
         13    1    3    3    0    0  0.39867252025E+02 -0.17028396558E+02  0.11078851509E+03  0.11896831153E+03  0.00000000000E+00 0. -1.
<mgrwt>
<rscale>  0 0.10005416E+03</rscale>
<asrwt>0</asrwt>
<pdfrwt beam="2">  1        1 0.25121732E-02 0.10005416E+03</pdfrwt>
<pdfrwt beam="1">  1       -1 0.23579467E-01 0.10005416E+03</pdfrwt>
<totfact> 0.58421134E+04</totfact>
</mgrwt>
</event>
<event>
 4    1  0.1242969E+001  0.4031774E+02  0.7546771E-02  0.1505886E+00
         -2   -1    0    0    0  501 -0.00000000000E+00  0.00000000000E+00  0.10984902564E+03  0.10984902564E+03  0.00000000000E+00 0.  1.
          2   -1    0    0  501    0  0.00000000000E+00 -0.00000000000E+00 -0.36994415015E+01  0.36994415015E+01  0.00000000000E+00 0. -1.
        -11    1    1    2    0    0  0.65117315749E+01  0.19072938904E+02  0.54335549579E+02  0.57952839401E+02  0.00000000000E+00 0.  1.
         11    1    1    2    0    0 -0.65117315749E+01 -0.19072938904E+02  0.51814034558E+02  0.55595627739E+02  0.00000000000E+00 0. -1.
<mgrwt>
<rscale>  0 0.40317740E+02</rscale>
<asrwt>0</asrwt>
<pdfrwt beam="2">  1        2 0.56914493E-03 0.40317740E+02</pdfrwt>
<pdfrwt beam="1">  1       -2 0.16899848E-01 0.40317740E+02</pdfrwt>
<totfact> 0.58000518E+05</totfact>
</mgrwt>
</event>
<event>
 5    1  0.1242969E+001  0.9254779E+02  0.7546771E-02  0.1296797E+00
         -1   -1    0    0    0  501 -0.00000000000E+00  0.00000000000E+00  0.77316307638E+02  0.77316307638E+02  0.00000000000E+00 0.  1.
          1   -1    0    0  501    0  0.00000000000E+00 -0.00000000000E+00 -0.27694975068E+02  0.27694975068E+02  0.00000000000E+00 0. -1.
         23    2    1    2    0    0  0.00000000000E+00  0.00000000000E+00  0.49621332570E+02  0.10501128271E+03  0.92547786844E+02 0.  0.
        -13    1    3    3    0    0 -0.88293138698E+01 -0.44067715572E+02  0.12311099607E+02  0.46599179313E+02  0.00000000000E+00 0. -1.
         13    1    3    3    0    0  0.88293138698E+01  0.44067715572E+02  0.37310232963E+02  0.58412103394E+02  0.00000000000E+00 0.  1.
<mgrwt>
<rscale>  0 0.92547787E+02</rscale>
<asrwt>0</asrwt>
<pdfrwt beam="2">  1        1 0.42607654E-02 0.92547787E+02</pdfrwt>
<pdfrwt beam="1">  1       -1 0.11894816E-01 0.92547787E+02</pdfrwt>
<totfact> 0.81945731E+04</totfact>
</mgrwt>
</event>
<event>
 5    1  0.1242969E+001  0.8927923E+02  0.7546771E-02  0.1304607E+00
         -3   -1    0    0    0  501 -0.00000000000E+00  0.00000000000E+00  0.37169018949E+02  0.37169018949E+02  0.00000000000E+00 0.  1.
          3   -1    0    0  501    0  0.00000000000E+00 -0.00000000000E+00 -0.53611722210E+02  0.53611722210E+02  0.00000000000E+00 0. -1.
         23    2    1    2    0    0  0.00000000000E+00  0.00000000000E+00 -0.16442703260E+02  0.90780741159E+02  0.89279227566E+02 0.  0.
        -13    1    3    3    0    0  0.15280477705E+02 -0.41770261894E+02 -0.12086242748E+02  0.46090400751E+02  0.00000000000E+00 0. -1.
         13    1    3    3    0    0 -0.15280477705E+02  0.41770261894E+02 -0.43564605123E+01  0.44690340408E+02  0.00000000000E+00 0.  1.
<mgrwt>
<rscale>  0 0.89279228E+02</rscale>
<asrwt>0</asrwt>
<pdfrwt beam="2">  1        3 0.82479572E-02 0.89279228E+02</pdfrwt>
<pdfrwt beam="1">  1       -3 0.57183107E-02 0.89279228E+02</pdfrwt>
<totfact> 0.37449444E+04</totfact>
</mgrwt>
</event>
<event>
 5    1  0.1242969E+001  0.9320589E+02  0.7546771E-02  0.1295269E+00
          3   -1    0    0  501    0  0.00000000000E+00  0.00000000000E+00  0.15332478831E+03  0.15332478831E+03  0.00000000000E+00 0. -1.
         -3   -1    0    0    0  501 -0.00000000000E+00 -0.00000000000E+00 -0.14164928695E+02  0.14164928695E+02  0.00000000000E+00 0.  1.
         23    2    1    2    0    0  0.00000000000E+00  0.00000000000E+00  0.13915985961E+03  0.16748971700E+03  0.93205894525E+02 0.  0.
        -11    1    3    3    0    0  0.14993785985E+02  0.36949852982E+02  0.11292156490E+03  0.11975552210E+03  0.00000000000E+00 0.  1.
         11    1    3    3    0    0 -0.14993785985E+02 -0.36949852982E+02  0.26238294708E+02  0.47734194900E+02  0.00000000000E+00 0. -1.
<mgrwt>
<rscale>  0 0.93205895E+02</rscale>
<asrwt>0</asrwt>
<pdfrwt beam="1">  1        3 0.23588428E-01 0.93205895E+02</pdfrwt>
<pdfrwt beam="2">  1       -3 0.21792199E-02 0.93205895E+02</pdfrwt>
<totfact> 0.28516221E+04</totfact>
</mgrwt>
</event>
<event>
 5    1  0.1242969E+001  0.9088026E+02  0.7546771E-02  0.1300734E+00
          1   -1    0    0  501    0  0.00000000000E+00  0.00000000000E+00  0.11692027562E+03  0.11692027562E+03  0.00000000000E+00 0. -1.
         -1   -1    0    0    0  501 -0.00000000000E+00 -0.00000000000E+00 -0.17659942796E+02  0.17659942796E+02  0.00000000000E+00 0.  1.
         23    2    1    2    0    0  0.00000000000E+00  0.00000000000E+00  0.99260332822E+02  0.13458021841E+03  0.90880259222E+02 0.  0.
        -13    1    3    3    0    0 -0.84166373774E+01  0.35989259390E+02  0.10485814923E+02  0.38418991277E+02  0.00000000000E+00 0.  1.
         13    1    3    3    0    0  0.84166373774E+01 -0.35989259390E+02  0.88774517898E+02  0.96161227136E+02  0.00000000000E+00 0. -1.
<mgrwt>
<rscale>  0 0.90880259E+02</rscale>
<asrwt>0</asrwt>
<pdfrwt beam="1">  1        1 0.17987734E-01 0.90880259E+02</pdfrwt>
<pdfrwt beam="2">  1       -1 0.27169144E-02 0.90880259E+02</pdfrwt>
<totfact> 0.10820714E+05</totfact>
</mgrwt>
</event>
<event>
 5    1  0.1242969E+001  0.8789396E+02  0.7546771E-02  0.1308033E+00
          1   -1    0    0  501    0  0.00000000000E+00  0.00000000000E+00  0.30450096934E+03  0.30450096934E+03  0.00000000000E+00 0. -1.
         -1   -1    0    0    0  501 -0.00000000000E+00 -0.00000000000E+00 -0.63426300417E+01  0.63426300417E+01  0.00000000000E+00 0.  1.
         23    2    1    2    0    0  0.00000000000E+00  0.00000000000E+00  0.29815833930E+03  0.31084359938E+03  0.87893958742E+02 0.  0.
        -11    1    3    3    0    0 -0.26655453658E+02  0.27754207469E+02  0.74013099784E+02  0.83419111609E+02  0.00000000000E+00 0.  1.
         11    1    3    3    0    0  0.26655453658E+02 -0.27754207469E+02  0.22414523951E+03  0.22742448777E+03  0.00000000000E+00 0. -1.
<mgrwt>
<rscale>  0 0.87893959E+02</rscale>
<asrwt>0</asrwt>
<pdfrwt beam="1">  1        1 0.46846292E-01 0.87893959E+02</pdfrwt>
<pdfrwt beam="2">  1       -1 0.97578947E-03 0.87893959E+02</pdfrwt>
<totfact> 0.14163710E+05</totfact>
</mgrwt>
</event>
<event>
 5    1  0.1242969E+001  0.9157291E+02  0.7546771E-02  0.1299087E+00
          1   -1    0    0  501    0  0.00000000000E+00  0.00000000000E+00  0.11362508789E+02  0.11362508789E+02  0.00000000000E+00 0. -1.
         -1   -1    0    0    0  501 -0.00000000000E+00 -0.00000000000E+00 -0.18450145898E+03  0.18450145898E+03  0.00000000000E+00 0.  1.
         23    2    1    2    0    0  0.00000000000E+00  0.00000000000E+00 -0.17313895019E+03  0.19586396777E+03  0.91572909733E+02 0.  0.
        -13    1    3    3    0    0 -0.34317373568E+02  0.11800759464E+02 -0.14628459139E+03  0.15071868408E+03  0.00000000000E+00 0.  1.
         13    1    3    3    0    0  0.34317373568E+02 -0.11800759464E+02 -0.26854358793E+02  0.45145283682E+02  0.00000000000E+00 0. -1.
<mgrwt>
<rscale>  0 0.91572910E+02</rscale>
<asrwt>0</asrwt>
<pdfrwt beam="1">  1        1 0.17480784E-02 0.91572910E+02</pdfrwt>
<pdfrwt beam="2">  1       -1 0.28384838E-01 0.91572910E+02</pdfrwt>
<totfact> 0.70201086E+04</totfact>
</mgrwt>
</event>
<event>
 5    1  0.1242969E+001  0.9524954E+02  0.7546771E-02  0.1290615E+00
          2   -1    0    0  501    0  0.00000000000E+00  0.00000000000E+00  0.16373091069E+02  0.16373091069E+02  0.00000000000E+00 0. -1.
         -2   -1    0    0    0  501 -0.00000000000E+00 -0.00000000000E+00 -0.13852721006E+03  0.13852721006E+03  0.00000000000E+00 0.  1.
         23    2    1    2    0    0  0.00000000000E+00  0.00000000000E+00 -0.12215411899E+03  0.15490030113E+03  0.95249538075E+02 0.  0.
        -11    1    3    3    0    0  0.13468205669E+00  0.47423468372E+02 -0.68187197980E+02  0.83057193909E+02  0.00000000000E+00 0.  1.
         11    1    3    3    0    0 -0.13468205669E+00 -0.47423468372E+02 -0.53966921010E+02  0.71843107220E+02  0.00000000000E+00 0. -1.
<mgrwt>
<rscale>  0 0.95249538E+02</rscale>
<asrwt>0</asrwt>
<pdfrwt beam="1">  1        2 0.25189372E-02 0.95249538E+02</pdfrwt>
<pdfrwt beam="2">  1       -2 0.21311878E-01 0.95249538E+02</pdfrwt>
<totfact> 0.64352830E+04</totfact>
</mgrwt>
</event>
<event>
 5    1  0.1242969E+001  0.9194329E+02  0.7546771E-02  0.1298213E+00
         -1   -1    0    0    0  501 -0.00000000000E+00  0.00000000000E+00  0.14071856755E+03  0.14071856755E+03  0.00000000000E+00 0.  1.
          1   -1    0    0  501    0  0.00000000000E+00 -0.00000000000E+00 -0.15018574326E+02  0.15018574326E+02  0.00000000000E+00 0. -1.
         23    2    1    2    0    0  0.00000000000E+00  0.00000000000E+00  0.12569999323E+03  0.15573714188E+03  0.91943292651E+02 0.  0.
        -11    1    3    3    0    0 -0.17439438501E+02 -0.32054572571E+02  0.15490224909E+02  0.39643116750E+02  0.00000000000E+00 0. -1.
         11    1    3    3    0    0  0.17439438501E+02  0.32054572571E+02  0.11020976832E+03  0.11609402513E+03  0.00000000000E+00 0.  1.
<mgrwt>
<rscale>  0 0.91943293E+02</rscale>
<asrwt>0</asrwt>
<pdfrwt beam="2">  1        1 0.23105500E-02 0.91943293E+02</pdfrwt>
<pdfrwt beam="1">  1       -1 0.21649009E-01 0.91943293E+02</pdfrwt>
<totfact> 0.74261467E+04</totfact>
</mgrwt>
</event>
<event>
 5    1  0.1242969E+001  0.8982615E+02  0.7546771E-02  0.1303273E+00
          3   -1    0    0  501    0  0.00000000000E+00  0.00000000000E+00  0.27366702615E+02  0.27366702615E+02  0.00000000000E+00 0. -1.
         -3   -1    0    0    0  501 -0.00000000000E+00 -0.00000000000E+00 -0.73709445958E+02  0.73709445958E+02  0.00000000000E+00 0.  1.
         23    2    1    2    0    0  0.00000000000E+00  0.00000000000E+00 -0.46342743343E+02  0.10107614857E+03  0.89826154041E+02 0.  0.
        -13    1    3    3    0    0 -0.17718543136E+02  0.15873808693E+02 -0.66037916492E+02  0.70192100609E+02  0.00000000000E+00 0.  1.
         13    1    3    3    0    0  0.17718543136E+02 -0.15873808693E+02  0.19695173149E+02  0.30884047964E+02  0.00000000000E+00 0. -1.
<mgrwt>
<rscale>  0 0.89826154E+02</rscale>
<asrwt>0</asrwt>
<pdfrwt beam="1">  1        3 0.42102619E-02 0.89826154E+02</pdfrwt>
<pdfrwt beam="2">  1       -3 0.11339915E-01 0.89826154E+02</pdfrwt>
<totfact> 0.36023769E+04</totfact>
</mgrwt>
</event>
<event>
 5    1  0.1242969E+001  0.9063423E+02  0.7546771E-02  0.1301323E+00
         -1   -1    0    0    0  501 -0.00000000000E+00  0.00000000000E+00  0.18181785425E+03  0.18181785425E+03  0.00000000000E+00 0.  1.
          1   -1    0    0  501    0  0.00000000000E+00 -0.00000000000E+00 -0.11295044748E+02  0.11295044748E+02  0.00000000000E+00 0. -1.
         23    2    1    2    0    0  0.00000000000E+00  0.00000000000E+00  0.17052280950E+03  0.19311289900E+03  0.90634227524E+02 0.  0.
        -11    1    3    3    0    0 -0.28378501703E+01  0.31416618083E+02  0.15458508478E+03  0.15777073785E+03  0.00000000000E+00 0.  1.
         11    1    3    3    0    0  0.28378501703E+01 -0.31416618083E+02  0.15937724724E+02  0.35342161150E+02  0.00000000000E+00 0. -1.
<mgrwt>
<rscale>  0 0.90634228E+02</rscale>
<asrwt>0</asrwt>
<pdfrwt beam="2">  1        1 0.17376993E-02 0.90634228E+02</pdfrwt>
<pdfrwt beam="1">  1       -1 0.27971975E-01 0.90634228E+02</pdfrwt>
<totfact> 0.72393555E+04</totfact>
</mgrwt>
</event>
<event>
 5    1  0.1242969E+001  0.9187339E+02  0.7546771E-02  0.1298377E+00
          1   -1    0    0  501    0  0.00000000000E+00  0.00000000000E+00  0.24629593179E+02  0.24629593179E+02  0.00000000000E+00 0. -1.
         -1   -1    0    0    0  501 -0.00000000000E+00 -0.00000000000E+00 -0.85676601698E+02  0.85676601698E+02  0.00000000000E+00 0.  1.
         23    2    1    2    0    0  0.00000000000E+00  0.00000000000E+00 -0.61047008519E+02  0.11030619488E+03  0.91873387762E+02 0.  0.
        -13    1    3    3    0    0  0.10297425763E+02 -0.29787820651E+02  0.96004232883E+01  0.32947220882E+02  0.00000000000E+00 0. -1.
         13    1    3    3    0    0 -0.10297425763E+02  0.29787820651E+02 -0.70647431807E+02  0.77358973994E+02  0.00000000000E+00 0.  1.
<mgrwt>
<rscale>  0 0.91873388E+02</rscale>
<asrwt>0</asrwt>
<pdfrwt beam="1">  1        1 0.37891682E-02 0.91873388E+02</pdfrwt>
<pdfrwt beam="2">  1       -1 0.13181016E-01 0.91873388E+02</pdfrwt>
<totfact> 0.82043003E+04</totfact>
</mgrwt>
</event>
<event>
 5    1  0.1242969E+001  0.9001727E+02  0.7546771E-02  0.1302810E+00
          2   -1    0    0  501    0  0.00000000000E+00  0.00000000000E+00  0.39546920612E+03  0.39546920612E+03  0.00000000000E+00 0.  1.
         -2   -1    0    0    0  501 -0.00000000000E+00 -0.00000000000E+00 -0.51224655293E+01  0.51224655293E+01  0.00000000000E+00 0. -1.
         23    2    1    2    0    0  0.00000000000E+00  0.00000000000E+00  0.39034674059E+03  0.40059167165E+03  0.90017273371E+02 0.  0.
        -13    1    3    3    0    0 -0.64494510155E+00 -0.44951625386E+02  0.20483422251E+03  0.20970961659E+03  0.00000000000E+00 0.  1.
         13    1    3    3    0    0  0.64494510155E+00  0.44951625386E+02  0.18551251808E+03  0.19088205506E+03  0.00000000000E+00 0. -1.
<mgrwt>
<rscale>  0 0.90017273E+02</rscale>
<asrwt>0</asrwt>
<pdfrwt beam="1">  1        2 0.60841392E-01 0.90017273E+02</pdfrwt>
<pdfrwt beam="2">  1       -2 0.78807193E-03 0.90017273E+02</pdfrwt>
<totfact> 0.20567763E+05</totfact>
</mgrwt>
</event>
<event>
 5    1  0.1242969E+001  0.9070523E+02  0.7546771E-02  0.1301153E+00
         -1   -1    0    0    0  501 -0.00000000000E+00  0.00000000000E+00  0.52954532481E+01  0.52954532481E+01  0.00000000000E+00 0.  1.
          1   -1    0    0  501    0  0.00000000000E+00 -0.00000000000E+00 -0.38841999027E+03  0.38841999027E+03  0.00000000000E+00 0. -1.
         23    2    1    2    0    0  0.00000000000E+00  0.00000000000E+00 -0.38312453703E+03  0.39371544352E+03  0.90705234670E+02 0.  0.
        -11    1    3    3    0    0  0.10642151970E+02 -0.41723653138E+02 -0.12975761447E+03  0.13671560680E+03  0.00000000000E+00 0.  1.
         11    1    3    3    0    0 -0.10642151970E+02  0.41723653138E+02 -0.25336692255E+03  0.25699983672E+03  0.00000000000E+00 0. -1.
<mgrwt>
<rscale>  0 0.90705235E+02</rscale>
<asrwt>0</asrwt>
<pdfrwt beam="2">  1        1 0.59756927E-01 0.90705235E+02</pdfrwt>
<pdfrwt beam="1">  1       -1 0.81468504E-03 0.90705235E+02</pdfrwt>
<totfact> 0.13609664E+05</totfact>
</mgrwt>
</event>
<event>
 5    1  0.1242969E+001  0.9235684E+02  0.7546771E-02  0.1297243E+00
          3   -1    0    0  501    0  0.00000000000E+00  0.00000000000E+00  0.17820187436E+03  0.17820187436E+03  0.00000000000E+00 0. -1.
         -3   -1    0    0    0  501 -0.00000000000E+00 -0.00000000000E+00 -0.11966465032E+02  0.11966465032E+02  0.00000000000E+00 0.  1.
         23    2    1    2    0    0  0.00000000000E+00  0.00000000000E+00  0.16623540933E+03  0.19016833939E+03  0.92356840528E+02 0.  0.
        -13    1    3    3    0    0 -0.39588333883E+02  0.20590186972E+02  0.58645656331E+02  0.73691960116E+02  0.00000000000E+00 0.  1.
         13    1    3    3    0    0  0.39588333883E+02 -0.20590186972E+02  0.10758975300E+03  0.11647637927E+03  0.00000000000E+00 0. -1.
<mgrwt>
<rscale>  0 0.92356841E+02</rscale>
<asrwt>0</asrwt>
<pdfrwt beam="1">  1        3 0.27415671E-01 0.92356841E+02</pdfrwt>
<pdfrwt beam="2">  1       -3 0.18409948E-02 0.92356841E+02</pdfrwt>
<totfact> 0.28022904E+04</totfact>
</mgrwt>
</event>
<event>
 5    1  0.1242969E+001  0.9051947E+02  0.7546771E-02  0.1301599E+00
         -1   -1    0    0    0  501 -0.00000000000E+00  0.00000000000E+00  0.82999301719E+01  0.82999301719E+01  0.00000000000E+00 0. -1.
          1   -1    0    0  501    0  0.00000000000E+00 -0.00000000000E+00 -0.24680253061E+03  0.24680253061E+03  0.00000000000E+00 0.  1.
         23    2    1    2    0    0  0.00000000000E+00  0.00000000000E+00 -0.23850260044E+03  0.25510246079E+03  0.90519473493E+02 0.  0.
        -11    1    3    3    0    0 -0.43196372548E+02 -0.13364486197E+02 -0.12482228536E+03  0.13275970403E+03  0.00000000000E+00 0. -1.
         11    1    3    3    0    0  0.43196372548E+02  0.13364486197E+02 -0.11368031508E+03  0.12234275675E+03  0.00000000000E+00 0.  1.
<mgrwt>
<rscale>  0 0.90519473E+02</rscale>
<asrwt>0</asrwt>
<pdfrwt beam="2">  1        1 0.37969615E-01 0.90519473E+02</pdfrwt>
<pdfrwt beam="1">  1       -1 0.12769125E-02 0.90519473E+02</pdfrwt>
<totfact> 0.12576667E+05</totfact>
</mgrwt>
</event>
<event>
 5    1  0.1242969E+001  0.9327575E+02  0.7546771E-02  0.1295107E+00
         -3   -1    0    0    0  501 -0.00000000000E+00  0.00000000000E+00  0.78803882118E+02  0.78803882118E+02  0.00000000000E+00 0.  1.
          3   -1    0    0  501    0  0.00000000000E+00 -0.00000000000E+00 -0.27601321705E+02  0.27601321705E+02  0.00000000000E+00 0. -1.
         23    2    1    2    0    0  0.00000000000E+00  0.00000000000E+00  0.51202560413E+02  0.10640520382E+03  0.93275748229E+02 0.  0.
        -13    1    3    3    0    0  0.70764720783E+01 -0.28626638054E+02  0.66819347829E+02  0.73036881831E+02  0.00000000000E+00 0.  1.
         13    1    3    3    0    0 -0.70764720783E+01  0.28626638054E+02 -0.15616787416E+02  0.33368321992E+02  0.00000000000E+00 0. -1.
<mgrwt>
<rscale>  0 0.93275748E+02</rscale>
<asrwt>0</asrwt>
<pdfrwt beam="2">  1        3 0.42463572E-02 0.93275748E+02</pdfrwt>
<pdfrwt beam="1">  1       -3 0.12123674E-01 0.93275748E+02</pdfrwt>
<totfact> 0.32145411E+04</totfact>
</mgrwt>
</event>
<event>
 5    1  0.1242969E+001  0.8334882E+02  0.7546771E-02  0.1319808E+00
          2   -1    0    0  501    0  0.00000000000E+00  0.00000000000E+00  0.13135914471E+02  0.13135914471E+02  0.00000000000E+00 0. -1.
         -2   -1    0    0    0  501 -0.00000000000E+00 -0.00000000000E+00 -0.13221436564E+03  0.13221436564E+03  0.00000000000E+00 0.  1.
         23    2    1    2    0    0  0.00000000000E+00  0.00000000000E+00 -0.11907845117E+03  0.14535028011E+03  0.83348823599E+02 0.  0.
        -11    1    3    3    0    0 -0.33316895465E+02  0.10913902783E+02 -0.20248586023E+02  0.40486220290E+02  0.00000000000E+00 0. -1.
         11    1    3    3    0    0  0.33316895465E+02 -0.10913902783E+02 -0.98829865143E+02  0.10486405982E+03  0.00000000000E+00 0.  1.
<mgrwt>
<rscale>  0 0.83348824E+02</rscale>
<asrwt>0</asrwt>
<pdfrwt beam="1">  1        2 0.20209100E-02 0.83348824E+02</pdfrwt>
<pdfrwt beam="2">  1       -2 0.20340671E-01 0.83348824E+02</pdfrwt>
<totfact> 0.91544017E+04</totfact>
</mgrwt>
</event>
<event>
 5    1  0.1242969E+001  0.9054399E+02  0.7546771E-02  0.1301540E+00
         -3   -1    0    0    0  501 -0.00000000000E+00  0.00000000000E+00  0.66639024212E+02  0.66639024212E+02  0.00000000000E+00 0. -1.
          3   -1    0    0  501    0  0.00000000000E+00 -0.00000000000E+00 -0.30756052617E+02  0.30756052617E+02  0.00000000000E+00 0.  1.
         23    2    1    2    0    0  0.00000000000E+00  0.00000000000E+00  0.35882971594E+02  0.97395076829E+02  0.90543985665E+02 0.  0.
        -13    1    3    3    0    0 -0.41017920841E+02  0.16639103084E+02  0.77241458846E+01  0.44933194982E+02  0.00000000000E+00 0.  1.
         13    1    3    3    0    0  0.41017920841E+02 -0.16639103084E+02  0.28158825710E+02  0.52461881847E+02  0.00000000000E+00 0. -1.
<mgrwt>
<rscale>  0 0.90543986E+02</rscale>
<asrwt>0</asrwt>
<pdfrwt beam="2">  1        3 0.47317004E-02 0.90543986E+02</pdfrwt>
<pdfrwt beam="1">  1       -3 0.10252158E-01 0.90543986E+02</pdfrwt>
<totfact> 0.35533064E+04</totfact>
</mgrwt>
</event>
<event>
 5    1  0.1242969E+001  0.8876361E+02  0.7546771E-02  0.1305874E+00
          1   -1    0    0  501    0  0.00000000000E+00  0.00000000000E+00  0.15159395947E+03  0.15159395947E+03  0.00000000000E+00 0. -1.
         -1   -1    0    0    0  501 -0.00000000000E+00 -0.00000000000E+00 -0.12993555402E+02  0.12993555402E+02  0.00000000000E+00 0.  1.
         23    2    1    2    0    0  0.00000000000E+00  0.00000000000E+00  0.13860040407E+03  0.16458751487E+03  0.88763607656E+02 0.  0.
        -11    1    3    3    0    0  0.31879258090E+02  0.27705873336E+02  0.44022716247E+02  0.61007393482E+02  0.00000000000E+00 0.  1.
         11    1    3    3    0    0 -0.31879258090E+02 -0.27705873336E+02  0.94577687821E+02  0.10358012139E+03  0.00000000000E+00 0. -1.
<mgrwt>
<rscale>  0 0.88763608E+02</rscale>
<asrwt>0</asrwt>
<pdfrwt beam="1">  1        1 0.23322146E-01 0.88763608E+02</pdfrwt>
<pdfrwt beam="2">  1       -1 0.19990086E-02 0.88763608E+02</pdfrwt>
<totfact> 0.12076067E+05</totfact>
</mgrwt>
</event>
<event>
 5    1  0.1242969E+001  0.9058473E+02  0.7546771E-02  0.1301442E+00
          3   -1    0    0  501    0  0.00000000000E+00  0.00000000000E+00  0.18863217496E+02  0.18863217496E+02  0.00000000000E+00 0. -1.
         -3   -1    0    0    0  501 -0.00000000000E+00 -0.00000000000E+00 -0.10875123705E+03  0.10875123705E+03  0.00000000000E+00 0.  1.
         23    2    1    2    0    0  0.00000000000E+00  0.00000000000E+00 -0.89888019557E+02  0.12761445455E+03  0.90584728018E+02 0.  0.
        -11    1    3    3    0    0  0.44233641584E+02  0.68711902346E+01 -0.54660538989E+02  0.70651276178E+02  0.00000000000E+00 0.  1.
         11    1    3    3    0    0 -0.44233641584E+02 -0.68711902346E+01 -0.35227480568E+02  0.56963178372E+02  0.00000000000E+00 0. -1.
<mgrwt>
<rscale>  0 0.90584728E+02</rscale>
<asrwt>0</asrwt>
<pdfrwt beam="1">  1        3 0.29020335E-02 0.90584728E+02</pdfrwt>
<pdfrwt beam="2">  1       -3 0.16730959E-01 0.90584728E+02</pdfrwt>
<totfact> 0.33318322E+04</totfact>
</mgrwt>
</event>
<event>
 5    1  0.1242969E+001  0.9188312E+02  0.7546771E-02  0.1298354E+00
         -2   -1    0    0    0  501 -0.00000000000E+00  0.00000000000E+00  0.75699580817E+01  0.75699580817E+01  0.00000000000E+00 0.  1.
          2   -1    0    0  501    0  0.00000000000E+00 -0.00000000000E+00 -0.27881617903E+03  0.27881617903E+03  0.00000000000E+00 0. -1.
         23    2    1    2    0    0  0.00000000000E+00  0.00000000000E+00 -0.27124622095E+03  0.28638613711E+03  0.91883116790E+02 0.  0.
        -11    1    3    3    0    0 -0.17901641643E+02  0.32053439493E+02 -0.49542939775E+02  0.61663560053E+02  0.00000000000E+00 0.  1.
         11    1    3    3    0    0  0.17901641643E+02 -0.32053439493E+02 -0.22170328117E+03  0.22472257706E+03  0.00000000000E+00 0. -1.
<mgrwt>
<rscale>  0 0.91883117E+02</rscale>
<asrwt>0</asrwt>
<pdfrwt beam="2">  1        2 0.42894803E-01 0.91883117E+02</pdfrwt>
<pdfrwt beam="1">  1       -2 0.11646088E-02 0.91883117E+02</pdfrwt>
<totfact> 0.17124892E+05</totfact>
</mgrwt>
</event>
<event>
 5    1  0.1242969E+001  0.9052600E+02  0.7546771E-02  0.1301583E+00
         -1   -1    0    0    0  501 -0.00000000000E+00  0.00000000000E+00  0.28347770561E+02  0.28347770561E+02  0.00000000000E+00 0.  1.
          1   -1    0    0  501    0  0.00000000000E+00 -0.00000000000E+00 -0.72271621418E+02  0.72271621418E+02  0.00000000000E+00 0. -1.
         23    2    1    2    0    0  0.00000000000E+00  0.00000000000E+00 -0.43923850857E+02  0.10061939198E+03  0.90526003822E+02 0.  0.
        -11    1    3    3    0    0 -0.36276623458E+02 -0.26125572838E+02 -0.29837129669E+02  0.53747495500E+02  0.00000000000E+00 0. -1.
         11    1    3    3    0    0  0.36276623458E+02  0.26125572838E+02 -0.14086721189E+02  0.46871896479E+02  0.00000000000E+00 0.  1.
<mgrwt>
<rscale>  0 0.90526004E+02</rscale>
<asrwt>0</asrwt>
<pdfrwt beam="2">  1        1 0.11118711E-01 0.90526004E+02</pdfrwt>
<pdfrwt beam="1">  1       -1 0.43611955E-02 0.90526004E+02</pdfrwt>
<totfact> 0.10112985E+05</totfact>
</mgrwt>
</event>
<event>
 5    1  0.1242969E+001  0.9086551E+02  0.7546771E-02  0.1300769E+00
          1   -1    0    0  501    0  0.00000000000E+00  0.00000000000E+00  0.25725496272E+03  0.25725496272E+03  0.00000000000E+00 0. -1.
         -1   -1    0    0    0  501 -0.00000000000E+00 -0.00000000000E+00 -0.80236942097E+01  0.80236942097E+01  0.00000000000E+00 0.  1.
         23    2    1    2    0    0  0.00000000000E+00  0.00000000000E+00  0.24923126851E+03  0.26527865692E+03  0.90865508412E+02 0.  0.
        -11    1    3    3    0    0 -0.38805602508E+01 -0.44066455146E+02  0.94384870081E+02  0.10423730099E+03  0.00000000000E+00 0.  1.
         11    1    3    3    0    0  0.38805602508E+01  0.44066455146E+02  0.15484639842E+03  0.16104135594E+03  0.00000000000E+00 0. -1.
<mgrwt>
<rscale>  0 0.90865508E+02</rscale>
<asrwt>0</asrwt>
<pdfrwt beam="1">  1        1 0.39577680E-01 0.90865508E+02</pdfrwt>
<pdfrwt beam="2">  1       -1 0.12344147E-02 0.90865508E+02</pdfrwt>
<totfact> 0.12550165E+05</totfact>
</mgrwt>
</event>
<event>
 5    1  0.1242969E+001  0.9223839E+02  0.7546771E-02  0.1297520E+00
         -1   -1    0    0    0  501 -0.00000000000E+00  0.00000000000E+00  0.11856330215E+03  0.11856330215E+03  0.00000000000E+00 0.  1.
          1   -1    0    0  501    0  0.00000000000E+00 -0.00000000000E+00 -0.17939616251E+02  0.17939616251E+02  0.00000000000E+00 0. -1.
         23    2    1    2    0    0  0.00000000000E+00  0.00000000000E+00  0.10062368590E+03  0.13650291840E+03  0.92238389884E+02 0.  0.
        -13    1    3    3    0    0 -0.41465034020E+02 -0.18055118334E+02  0.63683702996E+02  0.78108580652E+02  0.00000000000E+00 0.  1.
         13    1    3    3    0    0  0.41465034020E+02  0.18055118334E+02  0.36939982907E+02  0.58394337752E+02  0.00000000000E+00 0. -1.
<mgrwt>
<rscale>  0 0.92238390E+02</rscale>
<asrwt>0</asrwt>
<pdfrwt beam="2">  1        1 0.27599410E-02 0.92238390E+02</pdfrwt>
<pdfrwt beam="1">  1       -1 0.18240508E-01 0.92238390E+02</pdfrwt>
<totfact> 0.76400644E+04</totfact>
</mgrwt>
</event>
<event>
 5    1  0.1242969E+001  0.9330523E+02  0.7546771E-02  0.1295039E+00
         -1   -1    0    0    0  501 -0.00000000000E+00  0.00000000000E+00  0.11307907735E+03  0.11307907735E+03  0.00000000000E+00 0.  1.
          1   -1    0    0  501    0  0.00000000000E+00 -0.00000000000E+00 -0.19247296601E+02  0.19247296601E+02  0.00000000000E+00 0. -1.
         23    2    1    2    0    0  0.00000000000E+00  0.00000000000E+00  0.93831780745E+02  0.13232637395E+03  0.93305231173E+02 0.  0.
        -13    1    3    3    0    0  0.28055585090E+02  0.31521007447E+01  0.99588869536E+02  0.10351325775E+03  0.00000000000E+00 0.  1.
         13    1    3    3    0    0 -0.28055585090E+02 -0.31521007447E+01 -0.57570887910E+01  0.28813116201E+02  0.00000000000E+00 0. -1.
<mgrwt>
<rscale>  0 0.93305231E+02</rscale>
<asrwt>0</asrwt>
<pdfrwt beam="2">  1        1 0.29611226E-02 0.93305231E+02</pdfrwt>
<pdfrwt beam="1">  1       -1 0.17396781E-01 0.93305231E+02</pdfrwt>
<totfact> 0.74871817E+04</totfact>
</mgrwt>
</event>
<event>
 5    1  0.1242969E+001  0.9069285E+02  0.7546771E-02  0.1301182E+00
         -1   -1    0    0    0  501 -0.00000000000E+00  0.00000000000E+00  0.38979195647E+02  0.38979195647E+02  0.00000000000E+00 0.  1.
          1   -1    0    0  501    0  0.00000000000E+00 -0.00000000000E+00 -0.52753732639E+02  0.52753732639E+02  0.00000000000E+00 0. -1.
         23    2    1    2    0    0  0.00000000000E+00  0.00000000000E+00 -0.13774536992E+02  0.91732928286E+02  0.90692845708E+02 0.  0.
        -13    1    3    3    0    0 -0.53259241044E+01  0.10614854654E+02 -0.51152812842E+02  0.52513339910E+02  0.00000000000E+00 0. -1.
         13    1    3    3    0    0  0.53259241044E+01 -0.10614854654E+02  0.37378275850E+02  0.39219588376E+02  0.00000000000E+00 0.  1.
<mgrwt>
<rscale>  0 0.90692846E+02</rscale>
<asrwt>0</asrwt>
<pdfrwt beam="2">  1        1 0.81159589E-02 0.90692846E+02</pdfrwt>
<pdfrwt beam="1">  1       -1 0.59967993E-02 0.90692846E+02</pdfrwt>
<totfact> 0.95933511E+04</totfact>
</mgrwt>
</event>
<event>
 5    1  0.1242969E+001  0.7616107E+02  0.7546771E-02  0.1340313E+00
         -1   -1    0    0    0  501 -0.00000000000E+00  0.00000000000E+00  0.53060201736E+02  0.53060201736E+02  0.00000000000E+00 0.  1.
          1   -1    0    0  501    0  0.00000000000E+00 -0.00000000000E+00 -0.27329845734E+02  0.27329845734E+02  0.00000000000E+00 0. -1.
         23    2    1    2    0    0  0.00000000000E+00  0.00000000000E+00  0.25730356001E+02  0.80390047470E+02  0.76161069532E+02 0.  0.
        -11    1    3    3    0    0  0.30691775489E+02  0.26051863408E+00 -0.10926923908E+02  0.32579911275E+02  0.00000000000E+00 0. -1.
         11    1    3    3    0    0 -0.30691775489E+02 -0.26051863408E+00  0.36657279910E+02  0.47810136195E+02  0.00000000000E+00 0.  1.
<mgrwt>
<rscale>  0 0.76161070E+02</rscale>
<asrwt>0</asrwt>
<pdfrwt beam="2">  1        1 0.42045916E-02 0.76161070E+02</pdfrwt>
<pdfrwt beam="1">  1       -1 0.81631080E-02 0.76161070E+02</pdfrwt>
<totfact> 0.14224616E+05</totfact>
</mgrwt>
</event>
<event>
 5    1  0.1242969E+001  0.8990984E+02  0.7546771E-02  0.1303070E+00
          1   -1    0    0  501    0  0.00000000000E+00  0.00000000000E+00  0.11273739829E+03  0.11273739829E+03  0.00000000000E+00 0. -1.
         -1   -1    0    0    0  501 -0.00000000000E+00 -0.00000000000E+00 -0.17926124922E+02  0.17926124922E+02  0.00000000000E+00 0.  1.
         23    2    1    2    0    0  0.00000000000E+00  0.00000000000E+00  0.94811273367E+02  0.13066352321E+03  0.89909836727E+02 0.  0.
        -11    1    3    3    0    0 -0.14031802337E+02  0.19058658521E+02 -0.81394461706E+01  0.25027475411E+02  0.00000000000E+00 0.  1.
         11    1    3    3    0    0  0.14031802337E+02 -0.19058658521E+02  0.10295071954E+03  0.10563604780E+03  0.00000000000E+00 0. -1.
<mgrwt>
<rscale>  0 0.89909837E+02</rscale>
<asrwt>0</asrwt>
<pdfrwt beam="1">  1        1 0.17344215E-01 0.89909837E+02</pdfrwt>
<pdfrwt beam="2">  1       -1 0.27578654E-02 0.89909837E+02</pdfrwt>
<totfact> 0.11070857E+05</totfact>
</mgrwt>
</event>
<event>
 5    1  0.1242969E+001  0.1067873E+03  0.7546771E-02  0.1266638E+00
         -2   -1    0    0    0  501 -0.00000000000E+00  0.00000000000E+00  0.22975974636E+02  0.22975974636E+02  0.00000000000E+00 0.  1.
          2   -1    0    0  501    0  0.00000000000E+00 -0.00000000000E+00 -0.12408092488E+03  0.12408092488E+03  0.00000000000E+00 0. -1.
         23    2    1    2    0    0  0.00000000000E+00  0.00000000000E+00 -0.10110495024E+03  0.14705689952E+03  0.10678726858E+03 0.  0.
        -11    1    3    3    0    0 -0.29857893631E+02  0.41766707082E+02 -0.30363560025E+02  0.59648113214E+02  0.00000000000E+00 0.  1.
         11    1    3    3    0    0  0.29857893631E+02 -0.41766707082E+02 -0.70741390219E+02  0.87408786301E+02  0.00000000000E+00 0. -1.
<mgrwt>
<rscale>  0 0.10678727E+03</rscale>
<asrwt>0</asrwt>
<pdfrwt beam="2">  1        2 0.19089374E-01 0.10678727E+03</pdfrwt>
<pdfrwt beam="1">  1       -2 0.35347652E-02 0.10678727E+03</pdfrwt>
<totfact> 0.84829487E+04</totfact>
</mgrwt>
</event>
<event>
 5    1  0.1242969E+001  0.1086848E+03  0.7546771E-02  0.1263025E+00
          1   -1    0    0  501    0  0.00000000000E+00  0.00000000000E+00  0.22245699923E+02  0.22245699923E+02  0.00000000000E+00 0. -1.
         -1   -1    0    0    0  501 -0.00000000000E+00 -0.00000000000E+00 -0.13274921059E+03  0.13274921059E+03  0.00000000000E+00 0.  1.
         23    2    1    2    0    0  0.00000000000E+00  0.00000000000E+00 -0.11050351066E+03  0.15499491051E+03  0.10868484906E+03 0.  0.
        -11    1    3    3    0    0  0.35007633863E+02 -0.69645307598E+01 -0.11368789752E+03  0.11915946106E+03  0.00000000000E+00 0. -1.
         11    1    3    3    0    0 -0.35007633863E+02  0.69645307598E+01  0.31843868596E+01  0.35835449447E+02  0.00000000000E+00 0.  1.
<mgrwt>
<rscale>  0 0.10868485E+03</rscale>
<asrwt>0</asrwt>
<pdfrwt beam="1">  1        1 0.34224154E-02 0.10868485E+03</pdfrwt>
<pdfrwt beam="2">  1       -1 0.20422955E-01 0.10868485E+03</pdfrwt>
<totfact> 0.48693184E+04</totfact>
</mgrwt>
</event>
<event>
 5    1  0.1242969E+001  0.9784688E+02  0.7546771E-02  0.1284890E+00
          2   -1    0    0  501    0  0.00000000000E+00  0.00000000000E+00  0.23509910303E+02  0.23509910303E+02  0.00000000000E+00 0. -1.
         -2   -1    0    0    0  501 -0.00000000000E+00 -0.00000000000E+00 -0.10180826308E+03  0.10180826308E+03  0.00000000000E+00 0.  1.
         23    2    1    2    0    0  0.00000000000E+00  0.00000000000E+00 -0.78298352779E+02  0.12531817338E+03  0.97846883102E+02 0.  0.
        -11    1    3    3    0    0 -0.45035124127E+02 -0.69324256605E+01 -0.61962571179E+02  0.76912815302E+02  0.00000000000E+00 0.  1.
         11    1    3    3    0    0  0.45035124127E+02  0.69324256605E+01 -0.16335781600E+02  0.48405358083E+02  0.00000000000E+00 0. -1.
<mgrwt>
<rscale>  0 0.97846883E+02</rscale>
<asrwt>0</asrwt>
<pdfrwt beam="1">  1        2 0.36169093E-02 0.97846883E+02</pdfrwt>
<pdfrwt beam="2">  1       -2 0.15662810E-01 0.97846883E+02</pdfrwt>
<totfact> 0.66580143E+04</totfact>
</mgrwt>
</event>
<event>
 5    1  0.1242969E+001  0.8680082E+02  0.7546771E-02  0.1310789E+00
          2   -1    0    0  501    0  0.00000000000E+00  0.00000000000E+00  0.40880133737E+03  0.40880133737E+03  0.00000000000E+00 0. -1.
         -2   -1    0    0    0  501 -0.00000000000E+00 -0.00000000000E+00 -0.46076062996E+01  0.46076062996E+01  0.00000000000E+00 0.  1.
         23    2    1    2    0    0  0.00000000000E+00  0.00000000000E+00  0.40419373107E+03  0.41340894367E+03  0.86800820673E+02 0.  0.
        -13    1    3    3    0    0  0.38323639264E+02  0.18491784515E+02  0.16141851673E+03  0.16693287563E+03  0.00000000000E+00 0.  1.
         13    1    3    3    0    0 -0.38323639264E+02 -0.18491784515E+02  0.24277521434E+03  0.24647606805E+03  0.00000000000E+00 0. -1.
<mgrwt>
<rscale>  0 0.86800821E+02</rscale>
<asrwt>0</asrwt>
<pdfrwt beam="1">  1        2 0.62892485E-01 0.86800821E+02</pdfrwt>
<pdfrwt beam="2">  1       -2 0.70886283E-03 0.86800821E+02</pdfrwt>
<totfact> 0.22914109E+05</totfact>
</mgrwt>
</event>
<event>
 5    1  0.1242969E+001  0.9599549E+02  0.7546771E-02  0.1288950E+00
          4   -1    0    0  501    0  0.00000000000E+00  0.00000000000E+00  0.47214706192E+03  0.47214706192E+03  0.00000000000E+00 0. -1.
         -4   -1    0    0    0  501 -0.00000000000E+00 -0.00000000000E+00 -0.48793766197E+01  0.48793766197E+01  0.00000000000E+00 0.  1.
         23    2    1    2    0    0  0.00000000000E+00  0.00000000000E+00  0.46726768531E+03  0.47702643854E+03  0.95995486040E+02 0.  0.
        -13    1    3    3    0    0  0.34670221395E+02 -0.31954607178E+02  0.18900387507E+03  0.19479626783E+03  0.00000000000E+00 0.  1.
         13    1    3    3    0    0 -0.34670221395E+02  0.31954607178E+02  0.27826381024E+03  0.28223017071E+03  0.00000000000E+00 0. -1.
<mgrwt>
<rscale>  0 0.95995486E+02</rscale>
<asrwt>0</asrwt>
<pdfrwt beam="1">  1        4 0.72637973E-01 0.95995486E+02</pdfrwt>
<pdfrwt beam="2">  1       -4 0.75067370E-03 0.95995486E+02</pdfrwt>
<totfact> 0.11782739E+04</totfact>
</mgrwt>
</event>
<event>
 5    1  0.1242969E+001  0.9122835E+02  0.7546771E-02  0.1299904E+00
         -1   -1    0    0    0  501 -0.00000000000E+00  0.00000000000E+00  0.26739637325E+02  0.26739637325E+02  0.00000000000E+00 0.  1.
          1   -1    0    0  501    0  0.00000000000E+00 -0.00000000000E+00 -0.77811553994E+02  0.77811553994E+02  0.00000000000E+00 0. -1.
         23    2    1    2    0    0  0.00000000000E+00  0.00000000000E+00 -0.51071916669E+02  0.10455119132E+03  0.91228345013E+02 0.  0.
        -11    1    3    3    0    0  0.92351632806E+01  0.44636311369E+02 -0.23562840879E+02  0.51311753076E+02  0.00000000000E+00 0. -1.
         11    1    3    3    0    0 -0.92351632806E+01 -0.44636311369E+02 -0.27509075790E+02  0.53239438242E+02  0.00000000000E+00 0.  1.
<mgrwt>
<rscale>  0 0.91228345E+02</rscale>
<asrwt>0</asrwt>
<pdfrwt beam="2">  1        1 0.11971008E-01 0.91228345E+02</pdfrwt>
<pdfrwt beam="1">  1       -1 0.41137904E-02 0.91228345E+02</pdfrwt>
<totfact> 0.10014962E+05</totfact>
</mgrwt>
</event>
<event>
 5    1  0.1242969E+001  0.9691549E+02  0.7546771E-02  0.1286919E+00
         -2   -1    0    0    0  501 -0.00000000000E+00  0.00000000000E+00  0.85441849222E+01  0.85441849222E+01  0.00000000000E+00 0.  1.
          2   -1    0    0  501    0  0.00000000000E+00 -0.00000000000E+00 -0.27482471968E+03  0.27482471968E+03  0.00000000000E+00 0. -1.
         23    2    1    2    0    0  0.00000000000E+00  0.00000000000E+00 -0.26628053475E+03  0.28336890460E+03  0.96915493624E+02 0.  0.
        -11    1    3    3    0    0  0.41552903211E+02  0.24845915513E+02 -0.13912525209E+03  0.14730851657E+03  0.00000000000E+00 0. -1.
         11    1    3    3    0    0 -0.41552903211E+02 -0.24845915513E+02 -0.12715528266E+03  0.13606038803E+03  0.00000000000E+00 0.  1.
<mgrwt>
<rscale>  0 0.96915494E+02</rscale>
<asrwt>0</asrwt>
<pdfrwt beam="2">  1        2 0.42280730E-01 0.96915494E+02</pdfrwt>
<pdfrwt beam="1">  1       -2 0.13144899E-02 0.96915494E+02</pdfrwt>
<totfact> 0.14761164E+05</totfact>
</mgrwt>
</event>
<event>
 5    1  0.1242969E+001  0.9102834E+02  0.7546771E-02  0.1300380E+00
          1   -1    0    0  501    0  0.00000000000E+00  0.00000000000E+00  0.45883393540E+02  0.45883393540E+02  0.00000000000E+00 0. -1.
         -1   -1    0    0    0  501 -0.00000000000E+00 -0.00000000000E+00 -0.45147919656E+02  0.45147919656E+02  0.00000000000E+00 0.  1.
         23    2    1    2    0    0  0.00000000000E+00  0.00000000000E+00  0.73547388343E+00  0.91031313196E+02  0.91028342072E+02 0.  0.
        -11    1    3    3    0    0 -0.22097504659E+02  0.11127196029E+01 -0.39407948865E+02  0.45194294892E+02  0.00000000000E+00 0.  1.
         11    1    3    3    0    0  0.22097504659E+02 -0.11127196029E+01  0.40143422748E+02  0.45837018304E+02  0.00000000000E+00 0. -1.
<mgrwt>
<rscale>  0 0.91028342E+02</rscale>
<asrwt>0</asrwt>
<pdfrwt beam="1">  1        1 0.70589836E-02 0.91028342E+02</pdfrwt>
<pdfrwt beam="2">  1       -1 0.69458338E-02 0.91028342E+02</pdfrwt>
<totfact> 0.92986707E+04</totfact>
</mgrwt>
</event>
<event>
 5    1  0.1242969E+001  0.8868232E+02  0.7546771E-02  0.1306074E+00
          3   -1    0    0  501    0  0.00000000000E+00  0.00000000000E+00  0.94041349420E+01  0.94041349420E+01  0.00000000000E+00 0. -1.
         -3   -1    0    0    0  501 -0.00000000000E+00 -0.00000000000E+00 -0.20907168367E+03  0.20907168367E+03  0.00000000000E+00 0.  1.
         23    2    1    2    0    0  0.00000000000E+00  0.00000000000E+00 -0.19966754873E+03  0.21847581861E+03  0.88682316744E+02 0.  0.
        -13    1    3    3    0    0  0.40363842046E+02  0.17803138095E+02 -0.11083658303E+03  0.11929350196E+03  0.00000000000E+00 0.  1.
         13    1    3    3    0    0 -0.40363842046E+02 -0.17803138095E+02 -0.88830965693E+02  0.99182316653E+02  0.00000000000E+00 0. -1.
<mgrwt>
<rscale>  0 0.88682317E+02</rscale>
<asrwt>0</asrwt>
<pdfrwt beam="1">  1        3 0.14467899E-02 0.88682317E+02</pdfrwt>
<pdfrwt beam="2">  1       -3 0.32164877E-01 0.88682317E+02</pdfrwt>
<totfact> 0.29701911E+04</totfact>
</mgrwt>
</event>
<event>
 5    1  0.1242969E+001  0.9011015E+02  0.7546771E-02  0.1302585E+00
         -2   -1    0    0    0  501 -0.00000000000E+00  0.00000000000E+00  0.40434315464E+02  0.40434315464E+02  0.00000000000E+00 0.  1.
          2   -1    0    0  501    0  0.00000000000E+00 -0.00000000000E+00 -0.50203881419E+02  0.50203881419E+02  0.00000000000E+00 0. -1.
         23    2    1    2    0    0  0.00000000000E+00  0.00000000000E+00 -0.97695659555E+01  0.90638196883E+02  0.90110145463E+02 0.  0.
        -11    1    3    3    0    0  0.55402003857E+01  0.23050287367E+02  0.33653574400E+02  0.41165187208E+02  0.00000000000E+00 0.  1.
         11    1    3    3    0    0 -0.55402003857E+01 -0.23050287367E+02 -0.43423140355E+02  0.49473009675E+02  0.00000000000E+00 0. -1.
<mgrwt>
<rscale>  0 0.90110145E+02</rscale>
<asrwt>0</asrwt>
<pdfrwt beam="2">  1        2 0.77236741E-02 0.90110145E+02</pdfrwt>
<pdfrwt beam="1">  1       -2 0.62206639E-02 0.90110145E+02</pdfrwt>
<totfact> 0.10463133E+05</totfact>
</mgrwt>
</event>
<event>
 5    1  0.1242969E+001  0.9273488E+02  0.7546771E-02  0.1296361E+00
         -1   -1    0    0    0  501 -0.00000000000E+00  0.00000000000E+00  0.11397774978E+03  0.11397774978E+03  0.00000000000E+00 0.  1.
          1   -1    0    0  501    0  0.00000000000E+00 -0.00000000000E+00 -0.18862799158E+02  0.18862799158E+02  0.00000000000E+00 0. -1.
         23    2    1    2    0    0  0.00000000000E+00  0.00000000000E+00  0.95114950622E+02  0.13284054894E+03  0.92734878069E+02 0.  0.
        -13    1    3    3    0    0 -0.22188495723E+02 -0.14037659063E+02  0.10230271903E+03  0.10561832954E+03  0.00000000000E+00 0.  1.
         13    1    3    3    0    0  0.22188495723E+02  0.14037659063E+02 -0.71877684040E+01  0.27222219400E+02  0.00000000000E+00 0. -1.
<mgrwt>
<rscale>  0 0.92734878E+02</rscale>
<asrwt>0</asrwt>
<pdfrwt beam="2">  1        1 0.29019692E-02 0.92734878E+02</pdfrwt>
<pdfrwt beam="1">  1       -1 0.17535038E-01 0.92734878E+02</pdfrwt>
<totfact> 0.75948770E+04</totfact>
</mgrwt>
</event>
<event>
 5    1  0.1242969E+001  0.9197593E+02  0.7546771E-02  0.1298136E+00
         -1   -1    0    0    0  501 -0.00000000000E+00  0.00000000000E+00  0.81972868835E+01  0.81972868835E+01  0.00000000000E+00 0.  1.
          1   -1    0    0  501    0  0.00000000000E+00 -0.00000000000E+00 -0.25799913571E+03  0.25799913571E+03  0.00000000000E+00 0. -1.
         23    2    1    2    0    0  0.00000000000E+00  0.00000000000E+00 -0.24980184883E+03  0.26619642259E+03  0.91975930136E+02 0.  0.
        -11    1    3    3    0    0  0.28278708751E+02 -0.31782201944E+02 -0.74347734813E+02  0.85658504545E+02  0.00000000000E+00 0.  1.
         11    1    3    3    0    0 -0.28278708751E+02  0.31782201944E+02 -0.17545411401E+03  0.18053791805E+03  0.00000000000E+00 0. -1.
<mgrwt>
<rscale>  0 0.91975930E+02</rscale>
<asrwt>0</asrwt>
<pdfrwt beam="2">  1        1 0.39692178E-01 0.91975930E+02</pdfrwt>
<pdfrwt beam="1">  1       -1 0.12611210E-02 0.91975930E+02</pdfrwt>
<totfact> 0.12156225E+05</totfact>
</mgrwt>
</event>
<event>
 5    1  0.1242969E+001  0.8881911E+02  0.7546771E-02  0.1305737E+00
         -2   -1    0    0    0  501 -0.00000000000E+00  0.00000000000E+00  0.99881116232E+01  0.99881116232E+01  0.00000000000E+00 0.  1.
          2   -1    0    0  501    0  0.00000000000E+00 -0.00000000000E+00 -0.19745559146E+03  0.19745559146E+03  0.00000000000E+00 0. -1.
         23    2    1    2    0    0  0.00000000000E+00  0.00000000000E+00 -0.18746747984E+03  0.20744370308E+03  0.88819108037E+02 0.  0.
        -11    1    3    3    0    0 -0.39755598392E+02 -0.16321869998E+02 -0.11987731375E+03  0.12734787550E+03  0.00000000000E+00 0.  1.
         11    1    3    3    0    0  0.39755598392E+02  0.16321869998E+02 -0.67590166090E+02  0.80095827581E+02  0.00000000000E+00 0. -1.
<mgrwt>
<rscale>  0 0.88819108E+02</rscale>
<asrwt>0</asrwt>
<pdfrwt beam="2">  1        2 0.30377781E-01 0.88819108E+02</pdfrwt>
<pdfrwt beam="1">  1       -2 0.15366327E-02 0.88819108E+02</pdfrwt>
<totfact> 0.16519611E+05</totfact>
</mgrwt>
</event>
<event>
 5    1  0.1242969E+001  0.8854936E+02  0.7546771E-02  0.1306403E+00
          1   -1    0    0  501    0  0.00000000000E+00  0.00000000000E+00  0.88812662085E+02  0.88812662085E+02  0.00000000000E+00 0. -1.
         -1   -1    0    0    0  501 -0.00000000000E+00 -0.00000000000E+00 -0.22071707555E+02  0.22071707555E+02  0.00000000000E+00 0.  1.
         23    2    1    2    0    0  0.00000000000E+00  0.00000000000E+00  0.66740954530E+02  0.11088436964E+03  0.88549355836E+02 0.  0.
        -13    1    3    3    0    0  0.21983517558E+02 -0.35993852246E+02  0.16504126946E+02  0.45290381429E+02  0.00000000000E+00 0.  1.
         13    1    3    3    0    0 -0.21983517558E+02  0.35993852246E+02  0.50236827584E+02  0.65593988211E+02  0.00000000000E+00 0. -1.
<mgrwt>
<rscale>  0 0.88549356E+02</rscale>
<asrwt>0</asrwt>
<pdfrwt beam="1">  1        1 0.13663486E-01 0.88549356E+02</pdfrwt>
<pdfrwt beam="2">  1       -1 0.33956474E-02 0.88549356E+02</pdfrwt>
<totfact> 0.11094654E+05</totfact>
</mgrwt>
</event>
<event>
 5    1  0.1242969E+001  0.9089729E+02  0.7546771E-02  0.1300693E+00
          2   -1    0    0  501    0  0.00000000000E+00  0.00000000000E+00  0.14224714070E+02  0.14224714070E+02  0.00000000000E+00 0. -1.
         -2   -1    0    0    0  501 -0.00000000000E+00 -0.00000000000E+00 -0.14521059586E+03  0.14521059586E+03  0.00000000000E+00 0.  1.
         23    2    1    2    0    0  0.00000000000E+00  0.00000000000E+00 -0.13098588179E+03  0.15943530993E+03  0.90897287222E+02 0.  0.
        -11    1    3    3    0    0 -0.21832117198E+02  0.13676883138E+02 -0.13116628354E+03  0.13367233226E+03  0.00000000000E+00 0.  1.
         11    1    3    3    0    0  0.21832117198E+02 -0.13676883138E+02  0.18040175079E+00  0.25762977671E+02  0.00000000000E+00 0. -1.
<mgrwt>
<rscale>  0 0.90897287E+02</rscale>
<asrwt>0</asrwt>
<pdfrwt beam="1">  1        2 0.21884176E-02 0.90897287E+02</pdfrwt>
<pdfrwt beam="2">  1       -2 0.22340091E-01 0.90897287E+02</pdfrwt>
<totfact> 0.71230272E+04</totfact>
</mgrwt>
</event>
<event>
 5    1  0.1242969E+001  0.9274030E+02  0.7546771E-02  0.1296348E+00
         -1   -1    0    0    0  501 -0.00000000000E+00  0.00000000000E+00  0.38308091235E+02  0.38308091235E+02  0.00000000000E+00 0.  1.
          1   -1    0    0  501    0  0.00000000000E+00 -0.00000000000E+00 -0.56128899390E+02  0.56128899390E+02  0.00000000000E+00 0. -1.
         23    2    1    2    0    0  0.00000000000E+00  0.00000000000E+00 -0.17820808155E+02  0.94436990625E+02  0.92740304049E+02 0.  0.
        -13    1    3    3    0    0 -0.24310622095E+02 -0.15684926646E+02  0.27990221122E+02  0.40255133201E+02  0.00000000000E+00 0.  1.
         13    1    3    3    0    0  0.24310622095E+02  0.15684926646E+02 -0.45811029277E+02  0.54181857425E+02  0.00000000000E+00 0. -1.
<mgrwt>
<rscale>  0 0.92740304E+02</rscale>
<asrwt>0</asrwt>
<pdfrwt beam="2">  1        1 0.86352153E-02 0.92740304E+02</pdfrwt>
<pdfrwt beam="1">  1       -1 0.58935525E-02 0.92740304E+02</pdfrwt>
<totfact> 0.90990111E+04</totfact>
</mgrwt>
</event>
<event>
 5    1  0.1242969E+001  0.8862487E+02  0.7546771E-02  0.1306216E+00
         -1   -1    0    0    0  501 -0.00000000000E+00  0.00000000000E+00  0.28413151582E+03  0.28413151582E+03  0.00000000000E+00 0.  1.
          1   -1    0    0  501    0  0.00000000000E+00 -0.00000000000E+00 -0.69108553962E+01  0.69108553962E+01  0.00000000000E+00 0. -1.
         23    2    1    2    0    0  0.00000000000E+00  0.00000000000E+00  0.27722066042E+03  0.29104237121E+03  0.88624868278E+02 0.  0.
        -13    1    3    3    0    0  0.40802035069E+02 -0.11299513624E+02  0.18156735384E+03  0.18643816416E+03  0.00000000000E+00 0.  1.
         13    1    3    3    0    0 -0.40802035069E+02  0.11299513624E+02  0.95653306580E+02  0.10460420706E+03  0.00000000000E+00 0. -1.
<mgrwt>
<rscale>  0 0.88624868E+02</rscale>
<asrwt>0</asrwt>
<pdfrwt beam="2">  1        1 0.10632087E-02 0.88624868E+02</pdfrwt>
<pdfrwt beam="1">  1       -1 0.43712532E-01 0.88624868E+02</pdfrwt>
<totfact> 0.66625811E+04</totfact>
</mgrwt>
</event>
<event>
 5    1  0.1242969E+001  0.9311281E+02  0.7546771E-02  0.1295484E+00
         -3   -1    0    0    0  501 -0.00000000000E+00  0.00000000000E+00  0.61439888936E+01  0.61439888936E+01  0.00000000000E+00 0.  1.
          3   -1    0    0  501    0  0.00000000000E+00 -0.00000000000E+00 -0.35278362772E+03  0.35278362772E+03  0.00000000000E+00 0. -1.
         23    2    1    2    0    0  0.00000000000E+00  0.00000000000E+00 -0.34663963882E+03  0.35892761661E+03  0.93112806649E+02 0.  0.
        -11    1    3    3    0    0 -0.37385756358E+02 -0.26340274668E+02 -0.13971615339E+03  0.14701057229E+03  0.00000000000E+00 0. -1.
         11    1    3    3    0    0  0.37385756358E+02  0.26340274668E+02 -0.20692348544E+03  0.21191704432E+03  0.00000000000E+00 0.  1.
<mgrwt>
<rscale>  0 0.93112807E+02</rscale>
<asrwt>0</asrwt>
<pdfrwt beam="2">  1        3 0.54274398E-01 0.93112807E+02</pdfrwt>
<pdfrwt beam="1">  1       -3 0.94522916E-03 0.93112807E+02</pdfrwt>
<totfact> 0.20714842E+04</totfact>
</mgrwt>
</event>
<event>
 5    1  0.1242969E+001  0.9656562E+02  0.7546771E-02  0.1287688E+00
          1   -1    0    0  501    0  0.00000000000E+00  0.00000000000E+00  0.13670310405E+03  0.13670310405E+03  0.00000000000E+00 0. -1.
         -1   -1    0    0    0  501 -0.00000000000E+00 -0.00000000000E+00 -0.17053230546E+02  0.17053230546E+02  0.00000000000E+00 0.  1.
         23    2    1    2    0    0  0.00000000000E+00  0.00000000000E+00  0.11964987350E+03  0.15375633459E+03  0.96565616028E+02 0.  0.
        -11    1    3    3    0    0 -0.33188947415E+02 -0.32539434635E+02  0.39009173034E+02  0.60679787554E+02  0.00000000000E+00 0.  1.
         11    1    3    3    0    0  0.33188947415E+02  0.32539434635E+02  0.80640700467E+02  0.93076547039E+02  0.00000000000E+00 0. -1.
<mgrwt>
<rscale>  0 0.96565616E+02</rscale>
<asrwt>0</asrwt>
<pdfrwt beam="1">  1        1 0.21031246E-01 0.96565616E+02</pdfrwt>
<pdfrwt beam="2">  1       -1 0.26235740E-02 0.96565616E+02</pdfrwt>
<totfact> 0.94339802E+04</totfact>
</mgrwt>
</event>
<event>
 5    1  0.1242969E+001  0.9225656E+02  0.7546771E-02  0.1297477E+00
         -2   -1    0    0    0  501 -0.00000000000E+00  0.00000000000E+00  0.64060024577E+01  0.64060024577E+01  0.00000000000E+00 0.  1.
          2   -1    0    0  501    0  0.00000000000E+00 -0.00000000000E+00 -0.33216009601E+03  0.33216009601E+03  0.00000000000E+00 0. -1.
         23    2    1    2    0    0  0.00000000000E+00  0.00000000000E+00 -0.32575409355E+03  0.33856609847E+03  0.92256563807E+02 0.  0.
        -11    1    3    3    0    0  0.52993411386E+01 -0.44743392823E+02 -0.12659130040E+03  0.13437042664E+03  0.00000000000E+00 0.  1.
         11    1    3    3    0    0 -0.52993411386E+01  0.44743392823E+02 -0.19916279315E+03  0.20419567183E+03  0.00000000000E+00 0. -1.
<mgrwt>
<rscale>  0 0.92256564E+02</rscale>
<asrwt>0</asrwt>
<pdfrwt beam="2">  1        2 0.51101552E-01 0.92256564E+02</pdfrwt>
<pdfrwt beam="1">  1       -2 0.98553886E-03 0.92256564E+02</pdfrwt>
<totfact> 0.18080933E+05</totfact>
</mgrwt>
</event>
<event>
 5    1  0.1242969E+001  0.9179370E+02  0.7546771E-02  0.1298565E+00
          1   -1    0    0  501    0  0.00000000000E+00  0.00000000000E+00  0.92901522323E+02  0.92901522323E+02  0.00000000000E+00 0. -1.
         -1   -1    0    0    0  501 -0.00000000000E+00 -0.00000000000E+00 -0.22674772698E+02  0.22674772698E+02  0.00000000000E+00 0.  1.
         23    2    1    2    0    0  0.00000000000E+00  0.00000000000E+00  0.70226749624E+02  0.11557629502E+03  0.91793701353E+02 0.  0.
        -13    1    3    3    0    0  0.13565574935E+02 -0.11396048462E+02 -0.18195651596E+02  0.25396387162E+02  0.00000000000E+00 0.  1.
         13    1    3    3    0    0 -0.13565574935E+02  0.11396048462E+02  0.88422401221E+02  0.90179907859E+02  0.00000000000E+00 0. -1.
<mgrwt>
<rscale>  0 0.91793701E+02</rscale>
<asrwt>0</asrwt>
<pdfrwt beam="1">  1        1 0.14292542E-01 0.91793701E+02</pdfrwt>
<pdfrwt beam="2">  1       -1 0.34884266E-02 0.91793701E+02</pdfrwt>
<totfact> 0.10130584E+05</totfact>
</mgrwt>
</event>
<event>
 5    1  0.1242969E+001  0.8942832E+02  0.7546771E-02  0.1304242E+00
         -2   -1    0    0    0  501 -0.00000000000E+00  0.00000000000E+00  0.11839278953E+02  0.11839278953E+02  0.00000000000E+00 0.  1.
          2   -1    0    0  501    0  0.00000000000E+00 -0.00000000000E+00 -0.16887481442E+03  0.16887481442E+03  0.00000000000E+00 0. -1.
         23    2    1    2    0    0  0.00000000000E+00  0.00000000000E+00 -0.15703553546E+03  0.18071409337E+03  0.89428318469E+02 0.  0.
        -13    1    3    3    0    0  0.22789285199E+01 -0.36736497670E+02 -0.27212790215E+02  0.45774444044E+02  0.00000000000E+00 0.  1.
         13    1    3    3    0    0 -0.22789285199E+01  0.36736497670E+02 -0.12982274525E+03  0.13493964933E+03  0.00000000000E+00 0. -1.
<mgrwt>
<rscale>  0 0.89428318E+02</rscale>
<asrwt>0</asrwt>
<pdfrwt beam="2">  1        2 0.25980739E-01 0.89428318E+02</pdfrwt>
<pdfrwt beam="1">  1       -2 0.18214277E-02 0.89428318E+02</pdfrwt>
<totfact> 0.15345505E+05</totfact>
</mgrwt>
</event>
<event>
 5    1  0.1242969E+001  0.9324916E+02  0.7546771E-02  0.1295169E+00
          1   -1    0    0  501    0  0.00000000000E+00  0.00000000000E+00  0.16291586144E+03  0.16291586144E+03  0.00000000000E+00 0. -1.
         -1   -1    0    0    0  501 -0.00000000000E+00 -0.00000000000E+00 -0.13343398512E+02  0.13343398512E+02  0.00000000000E+00 0.  1.
         23    2    1    2    0    0  0.00000000000E+00  0.00000000000E+00  0.14957246293E+03  0.17625925995E+03  0.93249155773E+02 0.  0.
        -13    1    3    3    0    0  0.50842127415E+01  0.32836431607E+02  0.12962900005E+02  0.35666752535E+02  0.00000000000E+00 0.  1.
         13    1    3    3    0    0 -0.50842127415E+01 -0.32836431607E+02  0.13660956292E+03  0.14059250742E+03  0.00000000000E+00 0. -1.
<mgrwt>
<rscale>  0 0.93249156E+02</rscale>
<asrwt>0</asrwt>
<pdfrwt beam="1">  1        1 0.25063977E-01 0.93249156E+02</pdfrwt>
<pdfrwt beam="2">  1       -1 0.20528307E-02 0.93249156E+02</pdfrwt>
<totfact> 0.10716299E+05</totfact>
</mgrwt>
</event>
<event>
 5    1  0.1242969E+001  0.8788111E+02  0.7546771E-02  0.1308066E+00
          2   -1    0    0  501    0  0.00000000000E+00  0.00000000000E+00  0.18516119038E+03  0.18516119038E+03  0.00000000000E+00 0.  1.
         -2   -1    0    0    0  501 -0.00000000000E+00 -0.00000000000E+00 -0.10427522877E+02  0.10427522877E+02  0.00000000000E+00 0. -1.
         23    2    1    2    0    0  0.00000000000E+00  0.00000000000E+00  0.17473366751E+03  0.19558871326E+03  0.87881113979E+02 0.  0.
        -13    1    3    3    0    0 -0.14159620493E+02  0.39057435679E+02  0.11921667630E+03  0.12624814471E+03  0.00000000000E+00 0.  1.
         13    1    3    3    0    0  0.14159620493E+02 -0.39057435679E+02  0.55516991204E+02  0.69340568549E+02  0.00000000000E+00 0. -1.
<mgrwt>
<rscale>  0 0.87881114E+02</rscale>
<asrwt>0</asrwt>
<pdfrwt beam="1">  1        2 0.28486335E-01 0.87881114E+02</pdfrwt>
<pdfrwt beam="2">  1       -2 0.16042344E-02 0.87881114E+02</pdfrwt>
<totfact> 0.16611522E+05</totfact>
</mgrwt>
</event>
<event>
 5    1  0.1242969E+001  0.8991089E+02  0.7546771E-02  0.1303068E+00
         -2   -1    0    0    0  501 -0.00000000000E+00  0.00000000000E+00  0.58386678775E+02  0.58386678775E+02  0.00000000000E+00 0.  1.
          2   -1    0    0  501    0  0.00000000000E+00 -0.00000000000E+00 -0.34613924803E+02  0.34613924803E+02  0.00000000000E+00 0. -1.
         23    2    1    2    0    0  0.00000000000E+00  0.00000000000E+00  0.23772753971E+02  0.93000603578E+02  0.89910891635E+02 0.  0.
        -11    1    3    3    0    0  0.11380846658E+02  0.34236975459E+01 -0.32959563060E+02  0.35036811679E+02  0.00000000000E+00 0. -1.
         11    1    3    3    0    0 -0.11380846658E+02 -0.34236975459E+01  0.56732317031E+02  0.57963791899E+02  0.00000000000E+00 0.  1.
<mgrwt>
<rscale>  0 0.89910892E+02</rscale>
<asrwt>0</asrwt>
<pdfrwt beam="2">  1        2 0.53252192E-02 0.89910892E+02</pdfrwt>
<pdfrwt beam="1">  1       -2 0.89825660E-02 0.89910892E+02</pdfrwt>
<totfact> 0.95704633E+04</totfact>
</mgrwt>
</event>
<event>
 5    1  0.1242969E+001  0.9172593E+02  0.7546771E-02  0.1298725E+00
         -2   -1    0    0    0  501 -0.00000000000E+00  0.00000000000E+00  0.28948109951E+02  0.28948109951E+02  0.00000000000E+00 0.  1.
          2   -1    0    0  501    0  0.00000000000E+00 -0.00000000000E+00 -0.72661449869E+02  0.72661449869E+02  0.00000000000E+00 0. -1.
         23    2    1    2    0    0  0.00000000000E+00  0.00000000000E+00 -0.43713339917E+02  0.10160955982E+03  0.91725931776E+02 0.  0.
        -13    1    3    3    0    0 -0.16404133816E+02  0.87998189541E+01  0.24574902407E+02  0.30829502886E+02  0.00000000000E+00 0.  1.
         13    1    3    3    0    0  0.16404133816E+02 -0.87998189541E+01 -0.68288242324E+02  0.70780056934E+02  0.00000000000E+00 0. -1.
<mgrwt>
<rscale>  0 0.91725932E+02</rscale>
<asrwt>0</asrwt>
<pdfrwt beam="2">  1        2 0.11178685E-01 0.91725932E+02</pdfrwt>
<pdfrwt beam="1">  1       -2 0.44535554E-02 0.91725932E+02</pdfrwt>
<totfact> 0.10991289E+05</totfact>
</mgrwt>
</event>
<event>
 5    1  0.1242969E+001  0.8352082E+02  0.7546771E-02  0.1319347E+00
         -1   -1    0    0    0  501 -0.00000000000E+00  0.00000000000E+00  0.36022677160E+01  0.36022677160E+01  0.00000000000E+00 0.  1.
          1   -1    0    0  501    0  0.00000000000E+00 -0.00000000000E+00 -0.48412054974E+03  0.48412054974E+03  0.00000000000E+00 0. -1.
         23    2    1    2    0    0  0.00000000000E+00  0.00000000000E+00 -0.48051828202E+03  0.48772281745E+03  0.83520819608E+02 0.  0.
        -11    1    3    3    0    0  0.32496508630E+02  0.26227512863E+02 -0.24120656652E+03  0.24479483907E+03  0.00000000000E+00 0.  1.
         11    1    3    3    0    0 -0.32496508630E+02 -0.26227512863E+02 -0.23931171550E+03  0.24292797838E+03  0.00000000000E+00 0. -1.
<mgrwt>
<rscale>  0 0.83520820E+02</rscale>
<asrwt>0</asrwt>
<pdfrwt beam="2">  1        1 0.74480096E-01 0.83520820E+02</pdfrwt>
<pdfrwt beam="1">  1       -1 0.55419495E-03 0.83520820E+02</pdfrwt>
<totfact> 0.17483452E+05</totfact>
</mgrwt>
</event>
<event>
 5    1  0.1242969E+001  0.6283518E+02  0.7546771E-02  0.1386305E+00
          4   -1    0    0  501    0  0.00000000000E+00  0.00000000000E+00  0.24680322571E+02  0.24680322571E+02  0.00000000000E+00 0. -1.
         -4   -1    0    0    0  501 -0.00000000000E+00 -0.00000000000E+00 -0.39994002673E+02  0.39994002673E+02  0.00000000000E+00 0.  1.
         23    2    1    2    0    0  0.00000000000E+00  0.00000000000E+00 -0.15313680102E+02  0.64674325243E+02  0.62835177627E+02 0.  0.
        -13    1    3    3    0    0 -0.56731960334E+01  0.28042187185E+02  0.57044671459E+01  0.29173453014E+02  0.00000000000E+00 0. -1.
         13    1    3    3    0    0  0.56731960334E+01 -0.28042187185E+02 -0.21018147248E+02  0.35500872230E+02  0.00000000000E+00 0.  1.
<mgrwt>
<rscale>  0 0.62835178E+02</rscale>
<asrwt>0</asrwt>
<pdfrwt beam="1">  1        4 0.37969727E-02 0.62835178E+02</pdfrwt>
<pdfrwt beam="2">  1       -4 0.61529235E-02 0.62835178E+02</pdfrwt>
<totfact> 0.77448740E+04</totfact>
</mgrwt>
</event>
<event>
 5    1  0.1242969E+001  0.9309042E+02  0.7546771E-02  0.1295536E+00
         -2   -1    0    0    0  501 -0.00000000000E+00  0.00000000000E+00  0.11296172327E+03  0.11296172327E+03  0.00000000000E+00 0.  1.
          2   -1    0    0  501    0  0.00000000000E+00 -0.00000000000E+00 -0.19178678071E+02  0.19178678071E+02  0.00000000000E+00 0. -1.
         23    2    1    2    0    0  0.00000000000E+00  0.00000000000E+00  0.93783045196E+02  0.13214040134E+03  0.93090418947E+02 0.  0.
        -13    1    3    3    0    0 -0.13996621352E+02  0.31230471833E+02  0.91671897834E+02  0.97851850430E+02  0.00000000000E+00 0.  1.
         13    1    3    3    0    0  0.13996621352E+02 -0.31230471833E+02  0.21111473615E+01  0.34288550908E+02  0.00000000000E+00 0. -1.
<mgrwt>
<rscale>  0 0.93090419E+02</rscale>
<asrwt>0</asrwt>
<pdfrwt beam="2">  1        2 0.29505659E-02 0.93090419E+02</pdfrwt>
<pdfrwt beam="1">  1       -2 0.17378726E-01 0.93090419E+02</pdfrwt>
<totfact> 0.72986024E+04</totfact>
</mgrwt>
</event>
<event>
 5    1  0.1242969E+001  0.9014328E+02  0.7546771E-02  0.1302505E+00
          2   -1    0    0  501    0  0.00000000000E+00  0.00000000000E+00  0.97796235646E+01  0.97796235646E+01  0.00000000000E+00 0. -1.
         -2   -1    0    0    0  501 -0.00000000000E+00 -0.00000000000E+00 -0.20772300997E+03  0.20772300997E+03  0.00000000000E+00 0.  1.
         23    2    1    2    0    0  0.00000000000E+00  0.00000000000E+00 -0.19794338641E+03  0.21750263354E+03  0.90143282462E+02 0.  0.
        -13    1    3    3    0    0  0.43220380733E+02 -0.54724651103E+01 -0.12685072804E+03  0.13412328802E+03  0.00000000000E+00 0.  1.
         13    1    3    3    0    0 -0.43220380733E+02  0.54724651103E+01 -0.71092658371E+02  0.83379345520E+02  0.00000000000E+00 0. -1.
<mgrwt>
<rscale>  0 0.90143282E+02</rscale>
<asrwt>0</asrwt>
<pdfrwt beam="1">  1        2 0.15045575E-02 0.90143282E+02</pdfrwt>
<pdfrwt beam="2">  1       -2 0.31957385E-01 0.90143282E+02</pdfrwt>
<totfact> 0.63104149E+04</totfact>
</mgrwt>
</event>
<event>
 5    1  0.1242969E+001  0.9021021E+02  0.7546771E-02  0.1302343E+00
          1   -1    0    0  501    0  0.00000000000E+00  0.00000000000E+00  0.28663398895E+02  0.28663398895E+02  0.00000000000E+00 0. -1.
         -1   -1    0    0    0  501 -0.00000000000E+00 -0.00000000000E+00 -0.70977994723E+02  0.70977994723E+02  0.00000000000E+00 0.  1.
         23    2    1    2    0    0  0.00000000000E+00  0.00000000000E+00 -0.42314595829E+02  0.99641393618E+02  0.90210211739E+02 0.  0.
        -13    1    3    3    0    0 -0.27671749899E+02  0.22057508589E+02 -0.52049302560E+02  0.62939568830E+02  0.00000000000E+00 0.  1.
         13    1    3    3    0    0  0.27671749899E+02 -0.22057508589E+02  0.97347067309E+01  0.36701824788E+02  0.00000000000E+00 0. -1.
<mgrwt>
<rscale>  0 0.90210212E+02</rscale>
<asrwt>0</asrwt>
<pdfrwt beam="1">  1        1 0.44097537E-02 0.90210212E+02</pdfrwt>
<pdfrwt beam="2">  1       -1 0.10919691E-01 0.90210212E+02</pdfrwt>
<totfact> 0.88722228E+04</totfact>
</mgrwt>
</event>
<event>
 5    1  0.1242969E+001  0.9199146E+02  0.7546771E-02  0.1298100E+00
         -2   -1    0    0    0  501 -0.00000000000E+00  0.00000000000E+00  0.84226002299E+01  0.84226002299E+01  0.00000000000E+00 0.  1.
          2   -1    0    0  501    0  0.00000000000E+00 -0.00000000000E+00 -0.25118219005E+03  0.25118219005E+03  0.00000000000E+00 0. -1.
         23    2    1    2    0    0  0.00000000000E+00  0.00000000000E+00 -0.24275958982E+03  0.25960479028E+03  0.91991459856E+02 0.  0.
        -13    1    3    3    0    0  0.92584736076E+01 -0.36511270302E+02 -0.19587424694E+03  0.19946306126E+03  0.00000000000E+00 0. -1.
         13    1    3    3    0    0 -0.92584736076E+01  0.36511270302E+02 -0.46885342879E+02  0.60141729019E+02  0.00000000000E+00 0.  1.
<mgrwt>
<rscale>  0 0.91991460E+02</rscale>
<asrwt>0</asrwt>
<pdfrwt beam="2">  1        2 0.38643413E-01 0.91991460E+02</pdfrwt>
<pdfrwt beam="1">  1       -2 0.12957847E-02 0.91991460E+02</pdfrwt>
<totfact> 0.16419118E+05</totfact>
</mgrwt>
</event>
<event>
 5    1  0.1242969E+001  0.9097079E+02  0.7546771E-02  0.1300518E+00
          2   -1    0    0  501    0  0.00000000000E+00  0.00000000000E+00  0.31921959772E+03  0.31921959772E+03  0.00000000000E+00 0. -1.
         -2   -1    0    0    0  501 -0.00000000000E+00 -0.00000000000E+00 -0.64811840225E+01  0.64811840225E+01  0.00000000000E+00 0.  1.
         23    2    1    2    0    0  0.00000000000E+00  0.00000000000E+00  0.31273841370E+03  0.32570078175E+03  0.90970785562E+02 0.  0.
        -13    1    3    3    0    0 -0.37526628787E+02  0.21279832700E+02  0.10475332967E+03  0.11328874271E+03  0.00000000000E+00 0.  1.
         13    1    3    3    0    0  0.37526628787E+02 -0.21279832700E+02  0.20798508404E+03  0.21241203904E+03  0.00000000000E+00 0. -1.
<mgrwt>
<rscale>  0 0.90970786E+02</rscale>
<asrwt>0</asrwt>
<pdfrwt beam="1">  1        2 0.49110695E-01 0.90970786E+02</pdfrwt>
<pdfrwt beam="2">  1       -2 0.99710548E-03 0.90970786E+02</pdfrwt>
<totfact> 0.18496573E+05</totfact>
</mgrwt>
</event>
<event>
 5    1  0.1242969E+001  0.8827988E+02  0.7546771E-02  0.1307071E+00
          1   -1    0    0  501    0  0.00000000000E+00  0.00000000000E+00  0.38312933896E+03  0.38312933896E+03  0.00000000000E+00 0. -1.
         -1   -1    0    0    0  501 -0.00000000000E+00 -0.00000000000E+00 -0.50853179237E+01  0.50853179237E+01  0.00000000000E+00 0.  1.
         23    2    1    2    0    0  0.00000000000E+00  0.00000000000E+00  0.37804402104E+03  0.38821465689E+03  0.88279884335E+02 0.  0.
        -11    1    3    3    0    0 -0.36033247521E+02 -0.25337071939E+02  0.20143863186E+03  0.20619865312E+03  0.00000000000E+00 0.  1.
         11    1    3    3    0    0  0.36033247521E+02  0.25337071939E+02  0.17660538918E+03  0.18201600377E+03  0.00000000000E+00 0. -1.
<mgrwt>
<rscale>  0 0.88279884E+02</rscale>
<asrwt>0</asrwt>
<pdfrwt beam="1">  1        1 0.58942953E-01 0.88279884E+02</pdfrwt>
<pdfrwt beam="2">  1       -1 0.78235691E-03 0.88279884E+02</pdfrwt>
<totfact> 0.14589381E+05</totfact>
</mgrwt>
</event>
<event>
 5    1  0.1242969E+001  0.8773652E+02  0.7546771E-02  0.1308427E+00
         -2   -1    0    0    0  501 -0.00000000000E+00  0.00000000000E+00  0.23512340959E+02  0.23512340959E+02  0.00000000000E+00 0. -1.
          2   -1    0    0  501    0  0.00000000000E+00 -0.00000000000E+00 -0.81847411284E+02  0.81847411284E+02  0.00000000000E+00 0.  1.
         23    2    1    2    0    0  0.00000000000E+00  0.00000000000E+00 -0.58335070325E+02  0.10535975224E+03  0.87736520120E+02 0.  0.
        -11    1    3    3    0    0  0.10492290316E+02  0.27076399895E+02 -0.68654003179E+02  0.74542549862E+02  0.00000000000E+00 0.  1.
         11    1    3    3    0    0 -0.10492290316E+02 -0.27076399895E+02  0.10318932854E+02  0.30817202381E+02  0.00000000000E+00 0. -1.
<mgrwt>
<rscale>  0 0.87736520E+02</rscale>
<asrwt>0</asrwt>
<pdfrwt beam="2">  1        2 0.12591910E-01 0.87736520E+02</pdfrwt>
<pdfrwt beam="1">  1       -2 0.36172831E-02 0.87736520E+02</pdfrwt>
<totfact> 0.12858678E+05</totfact>
</mgrwt>
</event>
<event>
 5    1  0.1242969E+001  0.9110106E+02  0.7546771E-02  0.1300207E+00
          1   -1    0    0  501    0  0.00000000000E+00  0.00000000000E+00  0.25112036815E+03  0.25112036815E+03  0.00000000000E+00 0. -1.
         -1   -1    0    0    0  501 -0.00000000000E+00 -0.00000000000E+00 -0.82623749074E+01  0.82623749074E+01  0.00000000000E+00 0.  1.
         23    2    1    2    0    0  0.00000000000E+00  0.00000000000E+00  0.24285799324E+03  0.25938274306E+03  0.91101056603E+02 0.  0.
        -13    1    3    3    0    0  0.64476722074E+01  0.41643279333E+02  0.72186838428E+02  0.83586331615E+02  0.00000000000E+00 0.  1.
         13    1    3    3    0    0 -0.64476722074E+01 -0.41643279333E+02  0.17067115481E+03  0.17579641144E+03  0.00000000000E+00 0. -1.
<mgrwt>
<rscale>  0 0.91101057E+02</rscale>
<asrwt>0</asrwt>
<pdfrwt beam="1">  1        1 0.38633897E-01 0.91101057E+02</pdfrwt>
<pdfrwt beam="2">  1       -1 0.12711348E-02 0.91101057E+02</pdfrwt>
<totfact> 0.12405313E+05</totfact>
</mgrwt>
</event>
<event>
 5    1  0.1242969E+001  0.9770141E+02  0.7546771E-02  0.1285205E+00
         -1   -1    0    0    0  501 -0.00000000000E+00  0.00000000000E+00  0.16099447024E+03  0.16099447024E+03  0.00000000000E+00 0. -1.
          1   -1    0    0  501    0  0.00000000000E+00 -0.00000000000E+00 -0.14822816508E+02  0.14822816508E+02  0.00000000000E+00 0.  1.
         23    2    1    2    0    0  0.00000000000E+00  0.00000000000E+00  0.14617165373E+03  0.17581728675E+03  0.97701412297E+02 0.  0.
        -11    1    3    3    0    0  0.67815359757E+01 -0.47658892127E+02  0.58134257332E+02  0.75478149848E+02  0.00000000000E+00 0. -1.
         11    1    3    3    0    0 -0.67815359757E+01  0.47658892127E+02  0.88037396398E+02  0.10033913690E+03  0.00000000000E+00 0.  1.
<mgrwt>
<rscale>  0 0.97701412E+02</rscale>
<asrwt>0</asrwt>
<pdfrwt beam="2">  1        1 0.22804334E-02 0.97701412E+02</pdfrwt>
<pdfrwt beam="1">  1       -1 0.24768379E-01 0.97701412E+02</pdfrwt>
<totfact> 0.61417966E+04</totfact>
</mgrwt>
</event>
<event>
 5    1  0.1242969E+001  0.8939277E+02  0.7546771E-02  0.1304329E+00
         -1   -1    0    0    0  501 -0.00000000000E+00  0.00000000000E+00  0.29893950130E+02  0.29893950130E+02  0.00000000000E+00 0.  1.
          1   -1    0    0  501    0  0.00000000000E+00 -0.00000000000E+00 -0.66828467273E+02  0.66828467273E+02  0.00000000000E+00 0. -1.
         23    2    1    2    0    0  0.00000000000E+00  0.00000000000E+00 -0.36934517143E+02  0.96722417403E+02  0.89392770803E+02 0.  0.
        -13    1    3    3    0    0 -0.74175986752E+01 -0.18314352387E+02  0.24911522991E+02  0.31796544643E+02  0.00000000000E+00 0.  1.
         13    1    3    3    0    0  0.74175986752E+01  0.18314352387E+02 -0.61846040134E+02  0.64925872761E+02  0.00000000000E+00 0. -1.
<mgrwt>
<rscale>  0 0.89392771E+02</rscale>
<asrwt>0</asrwt>
<pdfrwt beam="2">  1        1 0.10281303E-01 0.89392771E+02</pdfrwt>
<pdfrwt beam="1">  1       -1 0.45990693E-02 0.89392771E+02</pdfrwt>
<totfact> 0.10344976E+05</totfact>
</mgrwt>
</event>
<event>
 5    1  0.1242969E+001  0.9241472E+02  0.7546771E-02  0.1297107E+00
          4   -1    0    0  501    0  0.00000000000E+00  0.00000000000E+00  0.56254135564E+02  0.56254135564E+02  0.00000000000E+00 0. -1.
         -4   -1    0    0    0  501 -0.00000000000E+00 -0.00000000000E+00 -0.37954899916E+02  0.37954899916E+02  0.00000000000E+00 0.  1.
         23    2    1    2    0    0  0.00000000000E+00  0.00000000000E+00  0.18299235648E+02  0.94209035480E+02  0.92414719287E+02 0.  0.
        -13    1    3    3    0    0  0.16557078815E+02  0.31756568936E+02 -0.20614945018E+02  0.41323026118E+02  0.00000000000E+00 0.  1.
         13    1    3    3    0    0 -0.16557078815E+02 -0.31756568936E+02  0.38914180665E+02  0.52886009363E+02  0.00000000000E+00 0. -1.
<mgrwt>
<rscale>  0 0.92414719E+02</rscale>
<asrwt>0</asrwt>
<pdfrwt beam="1">  1        4 0.86544824E-02 0.92414719E+02</pdfrwt>
<pdfrwt beam="2">  1       -4 0.58392153E-02 0.92414719E+02</pdfrwt>
<totfact> 0.25856117E+04</totfact>
</mgrwt>
</event>
<event>
 5    1  0.1242969E+001  0.9439868E+02  0.7546771E-02  0.1292536E+00
         -2   -1    0    0    0  501 -0.00000000000E+00  0.00000000000E+00  0.20590098195E+02  0.20590098195E+02  0.00000000000E+00 0.  1.
          2   -1    0    0  501    0  0.00000000000E+00 -0.00000000000E+00 -0.10819656123E+03  0.10819656123E+03  0.00000000000E+00 0. -1.
         23    2    1    2    0    0  0.00000000000E+00  0.00000000000E+00 -0.87606463033E+02  0.12878665942E+03  0.94398682618E+02 0.  0.
        -11    1    3    3    0    0  0.16482946178E+01 -0.29831809074E+02  0.60468375502E+01  0.30483076487E+02  0.00000000000E+00 0.  1.
         11    1    3    3    0    0 -0.16482946178E+01  0.29831809074E+02 -0.93653300583E+02  0.98303582935E+02  0.00000000000E+00 0. -1.
<mgrwt>
<rscale>  0 0.94398683E+02</rscale>
<asrwt>0</asrwt>
<pdfrwt beam="2">  1        2 0.16645625E-01 0.94398683E+02</pdfrwt>
<pdfrwt beam="1">  1       -2 0.31677073E-02 0.94398683E+02</pdfrwt>
<totfact> 0.11422550E+05</totfact>
</mgrwt>
</event>
<event>
 5    1  0.1242969E+001  0.8652336E+02  0.7546771E-02  0.1311496E+00
          3   -1    0    0  501    0  0.00000000000E+00  0.00000000000E+00  0.13852152721E+02  0.13852152721E+02  0.00000000000E+00 0. -1.
         -3   -1    0    0    0  501 -0.00000000000E+00 -0.00000000000E+00 -0.13511061376E+03  0.13511061376E+03  0.00000000000E+00 0.  1.
         23    2    1    2    0    0  0.00000000000E+00  0.00000000000E+00 -0.12125846104E+03  0.14896276648E+03  0.86523357680E+02 0.  0.
        -11    1    3    3    0    0  0.70108278125E+01 -0.29233391397E+02 -0.11418964133E+03  0.11808055330E+03  0.00000000000E+00 0.  1.
         11    1    3    3    0    0 -0.70108278125E+01  0.29233391397E+02 -0.70688197081E+01  0.30882213186E+02  0.00000000000E+00 0. -1.
<mgrwt>
<rscale>  0 0.86523358E+02</rscale>
<asrwt>0</asrwt>
<pdfrwt beam="1">  1        3 0.21311004E-02 0.86523358E+02</pdfrwt>
<pdfrwt beam="2">  1       -3 0.20786248E-01 0.86523358E+02</pdfrwt>
<totfact> 0.36131151E+04</totfact>
</mgrwt>
</event>
<event>
 5    1  0.1242969E+001  0.9160379E+02  0.7546771E-02  0.1299014E+00
         -1   -1    0    0    0  501 -0.00000000000E+00  0.00000000000E+00  0.12707491769E+03  0.12707491769E+03  0.00000000000E+00 0.  1.
          1   -1    0    0  501    0  0.00000000000E+00 -0.00000000000E+00 -0.16508478316E+02  0.16508478316E+02  0.00000000000E+00 0. -1.
         23    2    1    2    0    0  0.00000000000E+00  0.00000000000E+00  0.11056643937E+03  0.14358339600E+03  0.91603788636E+02 0.  0.
        -11    1    3    3    0    0 -0.15287908799E+02 -0.21256753929E+02 -0.36208932703E+01  0.26432567244E+02  0.00000000000E+00 0. -1.
         11    1    3    3    0    0  0.15287908799E+02  0.21256753929E+02  0.11418733264E+03  0.11715082876E+03  0.00000000000E+00 0.  1.
<mgrwt>
<rscale>  0 0.91603789E+02</rscale>
<asrwt>0</asrwt>
<pdfrwt beam="2">  1        1 0.25397660E-02 0.91603789E+02</pdfrwt>
<pdfrwt beam="1">  1       -1 0.19549987E-01 0.91603789E+02</pdfrwt>
<totfact> 0.76666505E+04</totfact>
</mgrwt>
</event>
<event>
 5    1  0.1242969E+001  0.9068608E+02  0.7546771E-02  0.1301199E+00
         -1   -1    0    0    0  501 -0.00000000000E+00  0.00000000000E+00  0.23487943250E+03  0.23487943250E+03  0.00000000000E+00 0.  1.
          1   -1    0    0  501    0  0.00000000000E+00 -0.00000000000E+00 -0.87533902421E+01  0.87533902421E+01  0.00000000000E+00 0. -1.
         23    2    1    2    0    0  0.00000000000E+00  0.00000000000E+00  0.22612604226E+03  0.24363282274E+03  0.90686081237E+02 0.  0.
        -11    1    3    3    0    0  0.29345745503E+02 -0.20643037856E+02  0.18754804354E+03  0.19094914618E+03  0.00000000000E+00 0.  1.
         11    1    3    3    0    0 -0.29345745503E+02  0.20643037856E+02  0.38577998719E+02  0.52683676564E+02  0.00000000000E+00 0. -1.
<mgrwt>
<rscale>  0 0.90686081E+02</rscale>
<asrwt>0</asrwt>
<pdfrwt beam="2">  1        1 0.13466756E-02 0.90686081E+02</pdfrwt>
<pdfrwt beam="1">  1       -1 0.36135293E-01 0.90686081E+02</pdfrwt>
<totfact> 0.67052497E+04</totfact>
</mgrwt>
</event>
<event>
 5    1  0.1242969E+001  0.9126219E+02  0.7546771E-02  0.1299824E+00
         -1   -1    0    0    0  501 -0.00000000000E+00  0.00000000000E+00  0.17482023339E+03  0.17482023339E+03  0.00000000000E+00 0.  1.
          1   -1    0    0  501    0  0.00000000000E+00 -0.00000000000E+00 -0.11910503723E+02  0.11910503723E+02  0.00000000000E+00 0. -1.
         23    2    1    2    0    0  0.00000000000E+00  0.00000000000E+00  0.16290972967E+03  0.18673073711E+03  0.91262194595E+02 0.  0.
        -13    1    3    3    0    0  0.38996290450E+02 -0.18195780210E+02  0.50397393164E+02  0.66269859847E+02  0.00000000000E+00 0.  1.
         13    1    3    3    0    0 -0.38996290450E+02  0.18195780210E+02  0.11251233650E+03  0.12046087726E+03  0.00000000000E+00 0. -1.
<mgrwt>
<rscale>  0 0.91262195E+02</rscale>
<asrwt>0</asrwt>
<pdfrwt beam="2">  1        1 0.18323853E-02 0.91262195E+02</pdfrwt>
<pdfrwt beam="1">  1       -1 0.26895419E-01 0.91262195E+02</pdfrwt>
<totfact> 0.71843873E+04</totfact>
</mgrwt>
</event>
<event>
 5    1  0.1242969E+001  0.9141907E+02  0.7546771E-02  0.1299451E+00
          2   -1    0    0  501    0  0.00000000000E+00  0.00000000000E+00  0.85526740650E+01  0.85526740650E+01  0.00000000000E+00 0. -1.
         -2   -1    0    0    0  501 -0.00000000000E+00 -0.00000000000E+00 -0.24429336958E+03  0.24429336958E+03  0.00000000000E+00 0.  1.
         23    2    1    2    0    0  0.00000000000E+00  0.00000000000E+00 -0.23574069552E+03  0.25284604365E+03  0.91419069483E+02 0.  0.
        -13    1    3    3    0    0  0.43255194612E+02 -0.77999500869E+01 -0.15258190512E+03  0.15878629932E+03  0.00000000000E+00 0.  1.
         13    1    3    3    0    0 -0.43255194612E+02  0.77999500869E+01 -0.83158790401E+02  0.94059744329E+02  0.00000000000E+00 0. -1.
<mgrwt>
<rscale>  0 0.91419069E+02</rscale>
<asrwt>0</asrwt>
<pdfrwt beam="1">  1        2 0.13157961E-02 0.91419069E+02</pdfrwt>
<pdfrwt beam="2">  1       -2 0.37583594E-01 0.91419069E+02</pdfrwt>
<totfact> 0.56437481E+04</totfact>
</mgrwt>
</event>
<event>
 5    1  0.1242969E+001  0.8832517E+02  0.7546771E-02  0.1306959E+00
          1   -1    0    0  501    0  0.00000000000E+00  0.00000000000E+00  0.19822441455E+02  0.19822441455E+02  0.00000000000E+00 0. -1.
         -1   -1    0    0    0  501 -0.00000000000E+00 -0.00000000000E+00 -0.98390206667E+02  0.98390206667E+02  0.00000000000E+00 0.  1.
         23    2    1    2    0    0  0.00000000000E+00  0.00000000000E+00 -0.78567765213E+02  0.11821264812E+03  0.88325174472E+02 0.  0.
        -11    1    3    3    0    0  0.35261557600E+02  0.17159119434E+02 -0.12100554674E+02  0.41039447456E+02  0.00000000000E+00 0. -1.
         11    1    3    3    0    0 -0.35261557600E+02 -0.17159119434E+02 -0.66467210539E+02  0.77173200665E+02  0.00000000000E+00 0.  1.
<mgrwt>
<rscale>  0 0.88325174E+02</rscale>
<asrwt>0</asrwt>
<pdfrwt beam="1">  1        1 0.30496065E-02 0.88325174E+02</pdfrwt>
<pdfrwt beam="2">  1       -1 0.15136954E-01 0.88325174E+02</pdfrwt>
<totfact> 0.88561923E+04</totfact>
</mgrwt>
</event>
<event>
 5    1  0.1242969E+001  0.9806405E+02  0.7546771E-02  0.1284420E+00
          3   -1    0    0  501    0  0.00000000000E+00  0.00000000000E+00  0.15330292453E+02  0.15330292453E+02  0.00000000000E+00 0.  1.
         -3   -1    0    0    0  501 -0.00000000000E+00 -0.00000000000E+00 -0.15682280847E+03  0.15682280847E+03  0.00000000000E+00 0. -1.
         23    2    1    2    0    0  0.00000000000E+00  0.00000000000E+00 -0.14149251602E+03  0.17215310093E+03  0.98064050849E+02 0.  0.
        -13    1    3    3    0    0  0.65735948812E+01 -0.47159879390E+02 -0.50207974645E+02  0.69196149399E+02  0.00000000000E+00 0.  1.
         13    1    3    3    0    0 -0.65735948812E+01  0.47159879390E+02 -0.91284541375E+02  0.10295695153E+03  0.00000000000E+00 0. -1.
<mgrwt>
<rscale>  0 0.98064051E+02</rscale>
<asrwt>0</asrwt>
<pdfrwt beam="1">  1        3 0.23585063E-02 0.98064051E+02</pdfrwt>
<pdfrwt beam="2">  1       -3 0.24126588E-01 0.98064051E+02</pdfrwt>
<totfact> 0.24615982E+04</totfact>
</mgrwt>
</event>
<event>
 5    1  0.1242969E+001  0.9632914E+02  0.7546771E-02  0.1288210E+00
          1   -1    0    0  501    0  0.00000000000E+00  0.00000000000E+00  0.23437984067E+03  0.23437984067E+03  0.00000000000E+00 0. -1.
         -1   -1    0    0    0  501 -0.00000000000E+00 -0.00000000000E+00 -0.98977190569E+01  0.98977190569E+01  0.00000000000E+00 0.  1.
         23    2    1    2    0    0  0.00000000000E+00  0.00000000000E+00  0.22448212161E+03  0.24427755972E+03  0.96329140254E+02 0.  0.
        -11    1    3    3    0    0  0.37376302898E+02  0.18592429423E+02  0.51319115520E+02  0.66153745683E+02  0.00000000000E+00 0.  1.
         11    1    3    3    0    0 -0.37376302898E+02 -0.18592429423E+02  0.17316300609E+03  0.17812381404E+03  0.00000000000E+00 0. -1.
<mgrwt>
<rscale>  0 0.96329140E+02</rscale>
<asrwt>0</asrwt>
<pdfrwt beam="1">  1        1 0.36058433E-01 0.96329140E+02</pdfrwt>
<pdfrwt beam="2">  1       -1 0.15227262E-02 0.96329140E+02</pdfrwt>
<totfact> 0.10537178E+05</totfact>
</mgrwt>
</event>
<event>
 5    1  0.1242969E+001  0.9157065E+02  0.7546771E-02  0.1299092E+00
         -3   -1    0    0    0  501 -0.00000000000E+00  0.00000000000E+00  0.17246530701E+03  0.17246530701E+03  0.00000000000E+00 0.  1.
          3   -1    0    0  501    0  0.00000000000E+00 -0.00000000000E+00 -0.12154885109E+02  0.12154885109E+02  0.00000000000E+00 0. -1.
         23    2    1    2    0    0  0.00000000000E+00  0.00000000000E+00  0.16031042190E+03  0.18462019212E+03  0.91570650147E+02 0.  0.
        -11    1    3    3    0    0 -0.43117706648E+02 -0.28254810620E+01  0.11067682452E+03  0.11881279163E+03  0.00000000000E+00 0.  1.
         11    1    3    3    0    0  0.43117706648E+02  0.28254810620E+01  0.49633597382E+02  0.65807400487E+02  0.00000000000E+00 0. -1.
<mgrwt>
<rscale>  0 0.91570650E+02</rscale>
<asrwt>0</asrwt>
<pdfrwt beam="2">  1        3 0.18699824E-02 0.91570650E+02</pdfrwt>
<pdfrwt beam="1">  1       -3 0.26533122E-01 0.91570650E+02</pdfrwt>
<totfact> 0.28973235E+04</totfact>
</mgrwt>
</event>
<event>
 5    1  0.1242969E+001  0.9211586E+02  0.7546771E-02  0.1297807E+00
         -2   -1    0    0    0  501 -0.00000000000E+00  0.00000000000E+00  0.69076609085E+01  0.69076609085E+01  0.00000000000E+00 0.  1.
          2   -1    0    0  501    0  0.00000000000E+00 -0.00000000000E+00 -0.30709861559E+03  0.30709861559E+03  0.00000000000E+00 0. -1.
         23    2    1    2    0    0  0.00000000000E+00  0.00000000000E+00 -0.30019095468E+03  0.31400627650E+03  0.92115864041E+02 0.  0.
        -13    1    3    3    0    0 -0.45454385316E+02 -0.25126774654E+01 -0.17393733347E+03  0.17979602517E+03  0.00000000000E+00 0. -1.
         13    1    3    3    0    0  0.45454385316E+02  0.25126774654E+01 -0.12625362121E+03  0.13421025133E+03  0.00000000000E+00 0.  1.
<mgrwt>
<rscale>  0 0.92115864E+02</rscale>
<asrwt>0</asrwt>
<pdfrwt beam="2">  1        2 0.47245937E-01 0.92115864E+02</pdfrwt>
<pdfrwt beam="1">  1       -2 0.10627171E-02 0.92115864E+02</pdfrwt>
<totfact> 0.17633923E+05</totfact>
</mgrwt>
</event>
<event>
 5    1  0.1242969E+001  0.9096191E+02  0.7546771E-02  0.1300539E+00
         -2   -1    0    0    0  501 -0.00000000000E+00  0.00000000000E+00  0.24787011443E+02  0.24787011443E+02  0.00000000000E+00 0.  1.
          2   -1    0    0  501    0  0.00000000000E+00 -0.00000000000E+00 -0.83451652420E+02  0.83451652420E+02  0.00000000000E+00 0. -1.
         23    2    1    2    0    0  0.00000000000E+00  0.00000000000E+00 -0.58664640977E+02  0.10823866386E+03  0.90961905509E+02 0.  0.
        -13    1    3    3    0    0  0.42177740195E+01 -0.45043306364E+02 -0.34891744797E+02  0.57132503191E+02  0.00000000000E+00 0.  1.
         13    1    3    3    0    0 -0.42177740195E+01  0.45043306364E+02 -0.23772896179E+02  0.51106160672E+02  0.00000000000E+00 0. -1.
<mgrwt>
<rscale>  0 0.90961906E+02</rscale>
<asrwt>0</asrwt>
<pdfrwt beam="2">  1        2 0.12838716E-01 0.90961906E+02</pdfrwt>
<pdfrwt beam="1">  1       -2 0.38133863E-02 0.90961906E+02</pdfrwt>
<totfact> 0.11702348E+05</totfact>
</mgrwt>
</event>
<event>
 5    1  0.1242969E+001  0.9135208E+02  0.7546771E-02  0.1299610E+00
         -3   -1    0    0    0  501 -0.00000000000E+00  0.00000000000E+00  0.21624202729E+02  0.21624202729E+02  0.00000000000E+00 0.  1.
          3   -1    0    0  501    0  0.00000000000E+00 -0.00000000000E+00 -0.96479878871E+02  0.96479878871E+02  0.00000000000E+00 0. -1.
         23    2    1    2    0    0  0.00000000000E+00  0.00000000000E+00 -0.74855676142E+02  0.11810408160E+03  0.91352076276E+02 0.  0.
        -13    1    3    3    0    0  0.41971108781E+02 -0.13841174517E+02 -0.22509706927E+02  0.49596763909E+02  0.00000000000E+00 0.  1.
         13    1    3    3    0    0 -0.41971108781E+02  0.13841174517E+02 -0.52345969215E+02  0.68507317692E+02  0.00000000000E+00 0. -1.
<mgrwt>
<rscale>  0 0.91352076E+02</rscale>
<asrwt>0</asrwt>
<pdfrwt beam="2">  1        3 0.14843058E-01 0.91352076E+02</pdfrwt>
<pdfrwt beam="1">  1       -3 0.33268004E-02 0.91352076E+02</pdfrwt>
<totfact> 0.33202512E+04</totfact>
</mgrwt>
</event>
<event>
 5    1  0.1242969E+001  0.9101045E+02  0.7546771E-02  0.1300423E+00
         -1   -1    0    0    0  501 -0.00000000000E+00  0.00000000000E+00  0.12850119937E+03  0.12850119937E+03  0.00000000000E+00 0.  1.
          1   -1    0    0  501    0  0.00000000000E+00 -0.00000000000E+00 -0.16114444758E+02  0.16114444758E+02  0.00000000000E+00 0. -1.
         23    2    1    2    0    0  0.00000000000E+00  0.00000000000E+00  0.11238675461E+03  0.14461564412E+03  0.91010449478E+02 0.  0.
        -11    1    3    3    0    0  0.14550988659E+02 -0.35467478775E+02  0.17236862436E+02  0.42033114901E+02  0.00000000000E+00 0. -1.
         11    1    3    3    0    0 -0.14550988659E+02  0.35467478775E+02  0.95149892172E+02  0.10258252922E+03  0.00000000000E+00 0.  1.
<mgrwt>
<rscale>  0 0.91010449E+02</rscale>
<asrwt>0</asrwt>
<pdfrwt beam="2">  1        1 0.24791454E-02 0.91010449E+02</pdfrwt>
<pdfrwt beam="1">  1       -1 0.19769415E-01 0.91010449E+02</pdfrwt>
<totfact> 0.77783613E+04</totfact>
</mgrwt>
</event>
<event>
 5    1  0.1242969E+001  0.9440579E+02  0.7546771E-02  0.1292520E+00
         -2   -1    0    0    0  501 -0.00000000000E+00  0.00000000000E+00  0.34996676110E+02  0.34996676110E+02  0.00000000000E+00 0.  1.
          2   -1    0    0  501    0  0.00000000000E+00 -0.00000000000E+00 -0.63666429655E+02  0.63666429655E+02  0.00000000000E+00 0. -1.
         23    2    1    2    0    0  0.00000000000E+00  0.00000000000E+00 -0.28669753545E+02  0.98663105765E+02  0.94405792571E+02 0.  0.
        -13    1    3    3    0    0 -0.31268405408E+02 -0.10351335902E+02  0.21001886003E+02  0.39063314598E+02  0.00000000000E+00 0.  1.
         13    1    3    3    0    0  0.31268405408E+02  0.10351335902E+02 -0.49671639549E+02  0.59599791167E+02  0.00000000000E+00 0. -1.
<mgrwt>
<rscale>  0 0.94405793E+02</rscale>
<asrwt>0</asrwt>
<pdfrwt beam="2">  1        2 0.97948353E-02 0.94405793E+02</pdfrwt>
<pdfrwt beam="1">  1       -2 0.53841040E-02 0.94405793E+02</pdfrwt>
<totfact> 0.97696411E+04</totfact>
</mgrwt>
</event>
<event>
 5    1  0.1242969E+001  0.8927342E+02  0.7546771E-02  0.1304621E+00
         -1   -1    0    0    0  501 -0.00000000000E+00  0.00000000000E+00  0.50314180262E+01  0.50314180262E+01  0.00000000000E+00 0.  1.
          1   -1    0    0  501    0  0.00000000000E+00 -0.00000000000E+00 -0.39599886451E+03  0.39599886451E+03  0.00000000000E+00 0. -1.
         23    2    1    2    0    0  0.00000000000E+00  0.00000000000E+00 -0.39096744648E+03  0.40103028254E+03  0.89273418782E+02 0.  0.
        -11    1    3    3    0    0 -0.41743723538E+02  0.10655175353E+02 -0.24794101156E+03  0.25165614721E+03  0.00000000000E+00 0.  1.
         11    1    3    3    0    0  0.41743723538E+02 -0.10655175353E+02 -0.14302643493E+03  0.14937413533E+03  0.00000000000E+00 0. -1.
<mgrwt>
<rscale>  0 0.89273419E+02</rscale>
<asrwt>0</asrwt>
<pdfrwt beam="2">  1        1 0.60922905E-01 0.89273419E+02</pdfrwt>
<pdfrwt beam="1">  1       -1 0.77406427E-03 0.89273419E+02</pdfrwt>
<totfact> 0.14241709E+05</totfact>
</mgrwt>
</event>
<event>
 5    1  0.1242969E+001  0.8581404E+02  0.7546771E-02  0.1313317E+00
         -1   -1    0    0    0  501 -0.00000000000E+00  0.00000000000E+00  0.65356157645E+01  0.65356157645E+01  0.00000000000E+00 0.  1.
          1   -1    0    0  501    0  0.00000000000E+00 -0.00000000000E+00 -0.28168921582E+03  0.28168921582E+03  0.00000000000E+00 0. -1.
         23    2    1    2    0    0  0.00000000000E+00  0.00000000000E+00 -0.27515360006E+03  0.28822483159E+03  0.85814042665E+02 0.  0.
        -13    1    3    3    0    0 -0.30202742447E+02 -0.30179504639E+02 -0.12332527003E+03  0.13050720432E+03  0.00000000000E+00 0.  1.
         13    1    3    3    0    0  0.30202742447E+02  0.30179504639E+02 -0.15182833003E+03  0.15771762727E+03  0.00000000000E+00 0. -1.
<mgrwt>
<rscale>  0 0.85814043E+02</rscale>
<asrwt>0</asrwt>
<pdfrwt beam="2">  1        1 0.43336792E-01 0.85814043E+02</pdfrwt>
<pdfrwt beam="1">  1       -1 0.10054796E-02 0.85814043E+02</pdfrwt>
<totfact> 0.14870220E+05</totfact>
</mgrwt>
</event>
<event>
 5    1  0.1242969E+001  0.9118501E+02  0.7546771E-02  0.1300007E+00
          2   -1    0    0  501    0  0.00000000000E+00  0.00000000000E+00  0.80460997227E+02  0.80460997227E+02  0.00000000000E+00 0. -1.
         -2   -1    0    0    0  501 -0.00000000000E+00 -0.00000000000E+00 -0.25834583294E+02  0.25834583294E+02  0.00000000000E+00 0.  1.
         23    2    1    2    0    0  0.00000000000E+00  0.00000000000E+00  0.54626413933E+02  0.10629558052E+03  0.91185006109E+02 0.  0.
        -11    1    3    3    0    0 -0.32646762539E+02 -0.25723063377E+02  0.54676874247E+01  0.41921148595E+02  0.00000000000E+00 0.  1.
         11    1    3    3    0    0  0.32646762539E+02  0.25723063377E+02  0.49158726508E+02  0.64374431925E+02  0.00000000000E+00 0. -1.
<mgrwt>
<rscale>  0 0.91185006E+02</rscale>
<asrwt>0</asrwt>
<pdfrwt beam="1">  1        2 0.12378615E-01 0.91185006E+02</pdfrwt>
<pdfrwt beam="2">  1       -2 0.39745513E-02 0.91185006E+02</pdfrwt>
<totfact> 0.11501612E+05</totfact>
</mgrwt>
</event>
<event>
 5    1  0.1242969E+001  0.8507612E+02  0.7546771E-02  0.1315234E+00
          2   -1    0    0  501    0  0.00000000000E+00  0.00000000000E+00  0.46580378339E+02  0.46580378339E+02  0.00000000000E+00 0. -1.
         -2   -1    0    0    0  501 -0.00000000000E+00 -0.00000000000E+00 -0.38846543917E+02  0.38846543917E+02  0.00000000000E+00 0.  1.
         23    2    1    2    0    0  0.00000000000E+00  0.00000000000E+00  0.77338344219E+01  0.85426922256E+02  0.85076123861E+02 0.  0.
        -11    1    3    3    0    0  0.30326583159E+02 -0.66997443719E+00  0.33811623008E+02  0.45424402718E+02  0.00000000000E+00 0. -1.
         11    1    3    3    0    0 -0.30326583159E+02  0.66997443719E+00 -0.26077788586E+02  0.40002519538E+02  0.00000000000E+00 0.  1.
<mgrwt>
<rscale>  0 0.85076124E+02</rscale>
<asrwt>0</asrwt>
<pdfrwt beam="1">  1        2 0.71662121E-02 0.85076124E+02</pdfrwt>
<pdfrwt beam="2">  1       -2 0.59763914E-02 0.85076124E+02</pdfrwt>
<totfact> 0.12082606E+05</totfact>
</mgrwt>
</event>
<event>
 5    1  0.1242969E+001  0.9205462E+02  0.7546771E-02  0.1297951E+00
          1   -1    0    0  501    0  0.00000000000E+00  0.00000000000E+00  0.38273580318E+02  0.38273580318E+02  0.00000000000E+00 0. -1.
         -1   -1    0    0    0  501 -0.00000000000E+00 -0.00000000000E+00 -0.55351846306E+02  0.55351846306E+02  0.00000000000E+00 0.  1.
         23    2    1    2    0    0  0.00000000000E+00  0.00000000000E+00 -0.17078265988E+02  0.93625426624E+02  0.92054621510E+02 0.  0.
        -11    1    3    3    0    0 -0.18113134470E+02  0.35787501732E+02 -0.31500515733E+02  0.51001111870E+02  0.00000000000E+00 0.  1.
         11    1    3    3    0    0  0.18113134470E+02 -0.35787501732E+02  0.14422249745E+02  0.42624314754E+02  0.00000000000E+00 0. -1.
<mgrwt>
<rscale>  0 0.92054622E+02</rscale>
<asrwt>0</asrwt>
<pdfrwt beam="1">  1        1 0.58882432E-02 0.92054622E+02</pdfrwt>
<pdfrwt beam="2">  1       -1 0.85156685E-02 0.92054622E+02</pdfrwt>
<totfact> 0.87641639E+04</totfact>
</mgrwt>
</event>
<event>
 5    1  0.1242969E+001  0.9071433E+02  0.7546771E-02  0.1301131E+00
         -1   -1    0    0    0  501 -0.00000000000E+00  0.00000000000E+00  0.64985078921E+01  0.64985078921E+01  0.00000000000E+00 0.  1.
          1   -1    0    0  501    0  0.00000000000E+00 -0.00000000000E+00 -0.31657611892E+03  0.31657611892E+03  0.00000000000E+00 0. -1.
         23    2    1    2    0    0  0.00000000000E+00  0.00000000000E+00 -0.31007761103E+03  0.32307462681E+03  0.90714329789E+02 0.  0.
        -11    1    3    3    0    0 -0.13841614145E+02  0.36947268583E+02 -0.23472156019E+03  0.23801449904E+03  0.00000000000E+00 0.  1.
         11    1    3    3    0    0  0.13841614145E+02 -0.36947268583E+02 -0.75356050843E+02  0.85060127772E+02  0.00000000000E+00 0. -1.
<mgrwt>
<rscale>  0 0.90714330E+02</rscale>
<asrwt>0</asrwt>
<pdfrwt beam="2">  1        1 0.48704018E-01 0.90714330E+02</pdfrwt>
<pdfrwt beam="1">  1       -1 0.99977045E-03 0.90714330E+02</pdfrwt>
<totfact> 0.13119461E+05</totfact>
</mgrwt>
</event>
<event>
 5    1  0.1242969E+001  0.9012626E+02  0.7546771E-02  0.1302546E+00
         -1   -1    0    0    0  501 -0.00000000000E+00  0.00000000000E+00  0.44466312435E+02  0.44466312435E+02  0.00000000000E+00 0.  1.
          1   -1    0    0  501    0  0.00000000000E+00 -0.00000000000E+00 -0.45667954520E+02  0.45667954520E+02  0.00000000000E+00 0. -1.
         23    2    1    2    0    0  0.00000000000E+00  0.00000000000E+00 -0.12016420847E+01  0.90134266954E+02  0.90126256639E+02 0.  0.
        -13    1    3    3    0    0 -0.21361530535E+02 -0.10736433966E+02 -0.38802377430E+02  0.45576424776E+02  0.00000000000E+00 0. -1.
         13    1    3    3    0    0  0.21361530535E+02  0.10736433966E+02  0.37600735346E+02  0.44557842179E+02  0.00000000000E+00 0.  1.
<mgrwt>
<rscale>  0 0.90126257E+02</rscale>
<asrwt>0</asrwt>
<pdfrwt beam="2">  1        1 0.70258391E-02 0.90126257E+02</pdfrwt>
<pdfrwt beam="1">  1       -1 0.68409712E-02 0.90126257E+02</pdfrwt>
<totfact> 0.95549462E+04</totfact>
</mgrwt>
</event>
<event>
 5    1  0.1242969E+001  0.9252401E+02  0.7546771E-02  0.1296852E+00
         -4   -1    0    0    0  501 -0.00000000000E+00  0.00000000000E+00  0.13367789634E+03  0.13367789634E+03  0.00000000000E+00 0.  1.
          4   -1    0    0  501    0  0.00000000000E+00 -0.00000000000E+00 -0.16009925427E+02  0.16009925427E+02  0.00000000000E+00 0. -1.
         23    2    1    2    0    0  0.00000000000E+00  0.00000000000E+00  0.11766797092E+03  0.14968782177E+03  0.92524010975E+02 0.  0.
        -13    1    3    3    0    0  0.16481564145E+00  0.30648777270E+02  0.11489579022E+03  0.11891348672E+03  0.00000000000E+00 0.  1.
         13    1    3    3    0    0 -0.16481564145E+00 -0.30648777270E+02  0.27721806966E+01  0.30774335056E+02  0.00000000000E+00 0. -1.
<mgrwt>
<rscale>  0 0.92524011E+02</rscale>
<asrwt>0</asrwt>
<pdfrwt beam="2">  1        4 0.24630655E-02 0.92524011E+02</pdfrwt>
<pdfrwt beam="1">  1       -4 0.20565830E-01 0.92524011E+02</pdfrwt>
<totfact> 0.22769481E+04</totfact>
</mgrwt>
</event>
<event>
 5    1  0.1242969E+001  0.8984684E+02  0.7546771E-02  0.1303223E+00
          1   -1    0    0  501    0  0.00000000000E+00  0.00000000000E+00  0.22536258388E+02  0.22536258388E+02  0.00000000000E+00 0. -1.
         -1   -1    0    0    0  501 -0.00000000000E+00 -0.00000000000E+00 -0.89549630587E+02  0.89549630587E+02  0.00000000000E+00 0.  1.
         23    2    1    2    0    0  0.00000000000E+00  0.00000000000E+00 -0.67013372198E+02  0.11208588897E+03  0.89846838864E+02 0.  0.
        -13    1    3    3    0    0  0.44227331821E+02 -0.37569175934E+01 -0.24868797715E+02  0.50878565326E+02  0.00000000000E+00 0. -1.
         13    1    3    3    0    0 -0.44227331821E+02  0.37569175934E+01 -0.42144574484E+02  0.61207323649E+02  0.00000000000E+00 0.  1.
<mgrwt>
<rscale>  0 0.89846839E+02</rscale>
<asrwt>0</asrwt>
<pdfrwt beam="1">  1        1 0.34671167E-02 0.89846839E+02</pdfrwt>
<pdfrwt beam="2">  1       -1 0.13776866E-01 0.89846839E+02</pdfrwt>
<totfact> 0.86204958E+04</totfact>
</mgrwt>
</event>
<event>
 5    1  0.1242969E+001  0.9682944E+02  0.7546771E-02  0.1287108E+00
         -2   -1    0    0    0  501 -0.00000000000E+00  0.00000000000E+00  0.10830959722E+02  0.10830959722E+02  0.00000000000E+00 0.  1.
          2   -1    0    0  501    0  0.00000000000E+00 -0.00000000000E+00 -0.21641528716E+03  0.21641528716E+03  0.00000000000E+00 0. -1.
         23    2    1    2    0    0  0.00000000000E+00  0.00000000000E+00 -0.20558432743E+03  0.22724624688E+03  0.96829443009E+02 0.  0.
        -11    1    3    3    0    0  0.31264734957E+02 -0.22759265807E+02 -0.34429391042E+02  0.51776933083E+02  0.00000000000E+00 0.  1.
         11    1    3    3    0    0 -0.31264734957E+02  0.22759265807E+02 -0.17115493639E+03  0.17546931380E+03  0.00000000000E+00 0. -1.
<mgrwt>
<rscale>  0 0.96829443E+02</rscale>
<asrwt>0</asrwt>
<pdfrwt beam="2">  1        2 0.33294659E-01 0.96829443E+02</pdfrwt>
<pdfrwt beam="1">  1       -2 0.16663015E-02 0.96829443E+02</pdfrwt>
<totfact> 0.13533172E+05</totfact>
</mgrwt>
</event>
<event>
 5    1  0.1242969E+001  0.9302622E+02  0.7546771E-02  0.1295684E+00
          2   -1    0    0  501    0  0.00000000000E+00  0.00000000000E+00  0.89630566620E+02  0.89630566620E+02  0.00000000000E+00 0. -1.
         -2   -1    0    0    0  501 -0.00000000000E+00 -0.00000000000E+00 -0.24137627718E+02  0.24137627718E+02  0.00000000000E+00 0.  1.
         23    2    1    2    0    0  0.00000000000E+00  0.00000000000E+00  0.65492938902E+02  0.11376819434E+03  0.93026216718E+02 0.  0.
        -11    1    3    3    0    0 -0.11163406285E+02  0.18238584244E+02 -0.17769731897E+02  0.27803434443E+02  0.00000000000E+00 0.  1.
         11    1    3    3    0    0  0.11163406285E+02 -0.18238584244E+02  0.83262670800E+02  0.85964759895E+02  0.00000000000E+00 0. -1.
<mgrwt>
<rscale>  0 0.93026217E+02</rscale>
<asrwt>0</asrwt>
<pdfrwt beam="1">  1        2 0.13789318E-01 0.93026217E+02</pdfrwt>
<pdfrwt beam="2">  1       -2 0.37134813E-02 0.93026217E+02</pdfrwt>
<totfact> 0.11228631E+05</totfact>
</mgrwt>
</event>
<event>
 5    1  0.1242969E+001  0.9863363E+02  0.7546771E-02  0.1283196E+00
          2   -1    0    0  501    0  0.00000000000E+00  0.00000000000E+00  0.56387995863E+02  0.56387995863E+02  0.00000000000E+00 0. -1.
         -2   -1    0    0    0  501 -0.00000000000E+00 -0.00000000000E+00 -0.43132376862E+02  0.43132376862E+02  0.00000000000E+00 0.  1.
         23    2    1    2    0    0  0.00000000000E+00  0.00000000000E+00  0.13255619001E+02  0.99520372726E+02  0.98633630940E+02 0.  0.
        -11    1    3    3    0    0  0.23110399654E+02  0.11511496025E+01 -0.37315222980E+02  0.43907192846E+02  0.00000000000E+00 0.  1.
         11    1    3    3    0    0 -0.23110399654E+02 -0.11511496025E+01  0.50570841981E+02  0.55613179879E+02  0.00000000000E+00 0. -1.
<mgrwt>
<rscale>  0 0.98633631E+02</rscale>
<asrwt>0</asrwt>
<pdfrwt beam="1">  1        2 0.86750763E-02 0.98633631E+02</pdfrwt>
<pdfrwt beam="2">  1       -2 0.66357502E-02 0.98633631E+02</pdfrwt>
<totfact> 0.83358743E+04</totfact>
</mgrwt>
</event>
<event>
 5    1  0.1242969E+001  0.8867807E+02  0.7546771E-02  0.1306085E+00
          2   -1    0    0  501    0  0.00000000000E+00  0.00000000000E+00  0.16733596099E+03  0.16733596099E+03  0.00000000000E+00 0. -1.
         -2   -1    0    0    0  501 -0.00000000000E+00 -0.00000000000E+00 -0.11748521549E+02  0.11748521549E+02  0.00000000000E+00 0.  1.
         23    2    1    2    0    0  0.00000000000E+00  0.00000000000E+00  0.15558743944E+03  0.17908448254E+03  0.88678072683E+02 0.  0.
        -11    1    3    3    0    0 -0.23972749993E+02 -0.37274421980E+02  0.80558922629E+02  0.91944631661E+02  0.00000000000E+00 0. -1.
         11    1    3    3    0    0  0.23972749993E+02  0.37274421980E+02  0.75028516816E+02  0.87139850882E+02  0.00000000000E+00 0.  1.
<mgrwt>
<rscale>  0 0.88678073E+02</rscale>
<asrwt>0</asrwt>
<pdfrwt beam="1">  1        2 0.25743992E-01 0.88678073E+02</pdfrwt>
<pdfrwt beam="2">  1       -2 0.18074650E-02 0.88678073E+02</pdfrwt>
<totfact> 0.15648091E+05</totfact>
</mgrwt>
</event>
<event>
 5    1  0.1242969E+001  0.7934966E+02  0.7546771E-02  0.1330907E+00
          1   -1    0    0  501    0  0.00000000000E+00  0.00000000000E+00  0.50434944629E+02  0.50434944629E+02  0.00000000000E+00 0. -1.
         -1   -1    0    0    0  501 -0.00000000000E+00 -0.00000000000E+00 -0.31210346079E+02  0.31210346079E+02  0.00000000000E+00 0.  1.
         23    2    1    2    0    0  0.00000000000E+00  0.00000000000E+00  0.19224598550E+02  0.81645290707E+02  0.79349658508E+02 0.  0.
        -11    1    3    3    0    0 -0.10796660214E+02  0.33812056173E+02 -0.86282071683E+01  0.36527646699E+02  0.00000000000E+00 0.  1.
         11    1    3    3    0    0  0.10796660214E+02 -0.33812056173E+02  0.27852805718E+02  0.45117644008E+02  0.00000000000E+00 0. -1.
<mgrwt>
<rscale>  0 0.79349659E+02</rscale>
<asrwt>0</asrwt>
<pdfrwt beam="1">  1        1 0.77592222E-02 0.79349659E+02</pdfrwt>
<pdfrwt beam="2">  1       -1 0.48015917E-02 0.79349659E+02</pdfrwt>
<totfact> 0.13780858E+05</totfact>
</mgrwt>
</event>
<event>
 5    1  0.1242969E+001  0.9355328E+02  0.7546771E-02  0.1294468E+00
         -1   -1    0    0    0  501 -0.00000000000E+00  0.00000000000E+00  0.14176470273E+02  0.14176470273E+02  0.00000000000E+00 0.  1.
          1   -1    0    0  501    0  0.00000000000E+00 -0.00000000000E+00 -0.15434405030E+03  0.15434405030E+03  0.00000000000E+00 0. -1.
         23    2    1    2    0    0  0.00000000000E+00  0.00000000000E+00 -0.14016758002E+03  0.16852052057E+03  0.93553275534E+02 0.  0.
        -11    1    3    3    0    0  0.21394290425E+02 -0.41402020954E+02 -0.62831143015E+02  0.78227843729E+02  0.00000000000E+00 0. -1.
         11    1    3    3    0    0 -0.21394290425E+02  0.41402020954E+02 -0.77336437008E+02  0.90292676840E+02  0.00000000000E+00 0.  1.
<mgrwt>
<rscale>  0 0.93553276E+02</rscale>
<asrwt>0</asrwt>
<pdfrwt beam="2">  1        1 0.23745238E-01 0.93553276E+02</pdfrwt>
<pdfrwt beam="1">  1       -1 0.21809955E-02 0.93553276E+02</pdfrwt>
<totfact> 0.10515306E+05</totfact>
</mgrwt>
</event>
<event>
 5    1  0.1242969E+001  0.8848958E+02  0.7546771E-02  0.1306551E+00
         -2   -1    0    0    0  501 -0.00000000000E+00  0.00000000000E+00  0.11284551717E+02  0.11284551717E+02  0.00000000000E+00 0.  1.
          2   -1    0    0  501    0  0.00000000000E+00 -0.00000000000E+00 -0.17347623844E+03  0.17347623844E+03  0.00000000000E+00 0. -1.
         23    2    1    2    0    0  0.00000000000E+00  0.00000000000E+00 -0.16219168672E+03  0.18476079016E+03  0.88489583214E+02 0.  0.
        -11    1    3    3    0    0  0.43518489215E+02 -0.20310330899E+01 -0.97217321269E+02  0.10653258447E+03  0.00000000000E+00 0.  1.
         11    1    3    3    0    0 -0.43518489215E+02  0.20310330899E+01 -0.64974365453E+02  0.78228205687E+02  0.00000000000E+00 0. -1.
<mgrwt>
<rscale>  0 0.88489583E+02</rscale>
<asrwt>0</asrwt>
<pdfrwt beam="2">  1        2 0.26688649E-01 0.88489583E+02</pdfrwt>
<pdfrwt beam="1">  1       -2 0.17360851E-02 0.88489583E+02</pdfrwt>
<totfact> 0.15936422E+05</totfact>
</mgrwt>
</event>
<event>
 5    1  0.1242969E+001  0.9164423E+02  0.7546771E-02  0.1298918E+00
         -1   -1    0    0    0  501 -0.00000000000E+00  0.00000000000E+00  0.23558013454E+03  0.23558013454E+03  0.00000000000E+00 0.  1.
          1   -1    0    0  501    0  0.00000000000E+00 -0.00000000000E+00 -0.89127471566E+01  0.89127471566E+01  0.00000000000E+00 0. -1.
         23    2    1    2    0    0  0.00000000000E+00  0.00000000000E+00  0.22666738738E+03  0.24449288169E+03  0.91644228935E+02 0.  0.
        -11    1    3    3    0    0  0.29620420716E+02  0.21177314941E+02  0.18754679195E+03  0.19104880832E+03  0.00000000000E+00 0.  1.
         11    1    3    3    0    0 -0.29620420716E+02 -0.21177314941E+02  0.39120595432E+02  0.53444073371E+02  0.00000000000E+00 0. -1.
<mgrwt>
<rscale>  0 0.91644229E+02</rscale>
<asrwt>0</asrwt>
<pdfrwt beam="2">  1        1 0.13711920E-02 0.91644229E+02</pdfrwt>
<pdfrwt beam="1">  1       -1 0.36243093E-01 0.91644229E+02</pdfrwt>
<totfact> 0.65175233E+04</totfact>
</mgrwt>
</event>
<event>
 5    1  0.1242969E+001  0.9102942E+02  0.7546771E-02  0.1300378E+00
         -2   -1    0    0    0  501 -0.00000000000E+00  0.00000000000E+00  0.26104884855E+02  0.26104884855E+02  0.00000000000E+00 0.  1.
          2   -1    0    0  501    0  0.00000000000E+00 -0.00000000000E+00 -0.79356363219E+02  0.79356363219E+02  0.00000000000E+00 0. -1.
         23    2    1    2    0    0  0.00000000000E+00  0.00000000000E+00 -0.53251478364E+02  0.10546124807E+03  0.91029417759E+02 0.  0.
        -13    1    3    3    0    0 -0.20985416518E+02 -0.82349993344E+01 -0.72434044339E+02  0.75861015679E+02  0.00000000000E+00 0. -1.
         13    1    3    3    0    0  0.20985416518E+02  0.82349993344E+01  0.19182565975E+02  0.29600232396E+02  0.00000000000E+00 0.  1.
<mgrwt>
<rscale>  0 0.91029418E+02</rscale>
<asrwt>0</asrwt>
<pdfrwt beam="2">  1        2 0.12208671E-01 0.91029418E+02</pdfrwt>
<pdfrwt beam="1">  1       -2 0.40161362E-02 0.91029418E+02</pdfrwt>
<totfact> 0.11510804E+05</totfact>
</mgrwt>
</event>
<event>
 5    1  0.1242969E+001  0.9020032E+02  0.7546771E-02  0.1302367E+00
         -1   -1    0    0    0  501 -0.00000000000E+00  0.00000000000E+00  0.10252046734E+03  0.10252046734E+03  0.00000000000E+00 0.  1.
          1   -1    0    0  501    0  0.00000000000E+00 -0.00000000000E+00 -0.19840179675E+02  0.19840179675E+02  0.00000000000E+00 0. -1.
         23    2    1    2    0    0  0.00000000000E+00  0.00000000000E+00  0.82680287665E+02  0.12236064701E+03  0.90200321338E+02 0.  0.
        -13    1    3    3    0    0 -0.19354646614E+02 -0.36439737158E+02  0.66041442688E+02  0.77871233084E+02  0.00000000000E+00 0.  1.
         13    1    3    3    0    0  0.19354646614E+02  0.36439737158E+02  0.16638844977E+02  0.44489413931E+02  0.00000000000E+00 0. -1.
<mgrwt>
<rscale>  0 0.90200321E+02</rscale>
<asrwt>0</asrwt>
<pdfrwt beam="2">  1        1 0.30523354E-02 0.90200321E+02</pdfrwt>
<pdfrwt beam="1">  1       -1 0.15772379E-01 0.90200321E+02</pdfrwt>
<totfact> 0.83269047E+04</totfact>
</mgrwt>
</event>
<event>
 5    1  0.1242969E+001  0.9072882E+02  0.7546771E-02  0.1301096E+00
         -2   -1    0    0    0  501 -0.00000000000E+00  0.00000000000E+00  0.11259444111E+02  0.11259444111E+02  0.00000000000E+00 0.  1.
          2   -1    0    0  501    0  0.00000000000E+00 -0.00000000000E+00 -0.18277363876E+03  0.18277363876E+03  0.00000000000E+00 0. -1.
         23    2    1    2    0    0  0.00000000000E+00  0.00000000000E+00 -0.17151419465E+03  0.19403308288E+03  0.90728817266E+02 0.  0.
        -13    1    3    3    0    0 -0.40080876274E+02  0.61292539092E+01 -0.42248962124E+02  0.58557827802E+02  0.00000000000E+00 0.  1.
         13    1    3    3    0    0  0.40080876274E+02 -0.61292539092E+01 -0.12926523253E+03  0.13547525507E+03  0.00000000000E+00 0. -1.
<mgrwt>
<rscale>  0 0.90728817E+02</rscale>
<asrwt>0</asrwt>
<pdfrwt beam="2">  1        2 0.28119020E-01 0.90728817E+02</pdfrwt>
<pdfrwt beam="1">  1       -2 0.17322222E-02 0.90728817E+02</pdfrwt>
<totfact> 0.15176151E+05</totfact>
</mgrwt>
</event>
<event>
 5    1  0.1242969E+001  0.9179509E+02  0.7546771E-02  0.1298562E+00
          4   -1    0    0  501    0  0.00000000000E+00  0.00000000000E+00  0.13868541560E+02  0.13868541560E+02  0.00000000000E+00 0.  1.
         -4   -1    0    0    0  501 -0.00000000000E+00 -0.00000000000E+00 -0.15189662123E+03  0.15189662123E+03  0.00000000000E+00 0. -1.
         23    2    1    2    0    0  0.00000000000E+00  0.00000000000E+00 -0.13802807967E+03  0.16576516279E+03  0.91795089286E+02 0.  0.
        -11    1    3    3    0    0 -0.10610337306E+02  0.30578739768E+02 -0.10250124111E+02  0.33951489331E+02  0.00000000000E+00 0.  1.
         11    1    3    3    0    0  0.10610337306E+02 -0.30578739768E+02 -0.12777795556E+03  0.13181367346E+03  0.00000000000E+00 0. -1.
<mgrwt>
<rscale>  0 0.91795089E+02</rscale>
<asrwt>0</asrwt>
<pdfrwt beam="1">  1        4 0.21336219E-02 0.91795089E+02</pdfrwt>
<pdfrwt beam="2">  1       -4 0.23368710E-01 0.91795089E+02</pdfrwt>
<totfact> 0.22492839E+04</totfact>
</mgrwt>
</event>
<event>
 5    1  0.1242969E+001  0.9149919E+02  0.7546771E-02  0.1299261E+00
         -3   -1    0    0    0  501 -0.00000000000E+00  0.00000000000E+00  0.39754479163E+02  0.39754479163E+02  0.00000000000E+00 0.  1.
          3   -1    0    0  501    0  0.00000000000E+00 -0.00000000000E+00 -0.52648799487E+02  0.52648799487E+02  0.00000000000E+00 0. -1.
         23    2    1    2    0    0  0.00000000000E+00  0.00000000000E+00 -0.12894320324E+02  0.92403278650E+02  0.91499193486E+02 0.  0.
        -11    1    3    3    0    0 -0.23491792503E+02 -0.28979237344E+02  0.20297814316E+02  0.42469539414E+02  0.00000000000E+00 0.  1.
         11    1    3    3    0    0  0.23491792503E+02  0.28979237344E+02 -0.33192134640E+02  0.49933739235E+02  0.00000000000E+00 0. -1.
<mgrwt>
<rscale>  0 0.91499193E+02</rscale>
<asrwt>0</asrwt>
<pdfrwt beam="2">  1        3 0.80998152E-02 0.91499193E+02</pdfrwt>
<pdfrwt beam="1">  1       -3 0.61160738E-02 0.91499193E+02</pdfrwt>
<totfact> 0.34906990E+04</totfact>
</mgrwt>
</event>
<event>
 5    1  0.1242969E+001  0.9220896E+02  0.7546771E-02  0.1297589E+00
         -2   -1    0    0    0  501 -0.00000000000E+00  0.00000000000E+00  0.86702832813E+01  0.86702832813E+01  0.00000000000E+00 0. -1.
          2   -1    0    0  501    0  0.00000000000E+00 -0.00000000000E+00 -0.24516187838E+03  0.24516187838E+03  0.00000000000E+00 0.  1.
         23    2    1    2    0    0  0.00000000000E+00  0.00000000000E+00 -0.23649159510E+03  0.25383216166E+03  0.92208956947E+02 0.  0.
        -11    1    3    3    0    0  0.32431776241E+02 -0.27139775513E+02 -0.67693590176E+02  0.79817351972E+02  0.00000000000E+00 0. -1.
         11    1    3    3    0    0 -0.32431776241E+02  0.27139775513E+02 -0.16879800492E+03  0.17401480969E+03  0.00000000000E+00 0.  1.
<mgrwt>
<rscale>  0 0.92208957E+02</rscale>
<asrwt>0</asrwt>
<pdfrwt beam="2">  1        2 0.37717208E-01 0.92208957E+02</pdfrwt>
<pdfrwt beam="1">  1       -2 0.13338899E-02 0.92208957E+02</pdfrwt>
<totfact> 0.16169410E+05</totfact>
</mgrwt>
</event>
<event>
 5    1  0.1242969E+001  0.9301237E+02  0.7546771E-02  0.1295717E+00
         -2   -1    0    0    0  501 -0.00000000000E+00  0.00000000000E+00  0.64190892961E+01  0.64190892961E+01  0.00000000000E+00 0.  1.
          2   -1    0    0  501    0  0.00000000000E+00 -0.00000000000E+00 -0.33693646145E+03  0.33693646145E+03  0.00000000000E+00 0. -1.
         23    2    1    2    0    0  0.00000000000E+00  0.00000000000E+00 -0.33051737216E+03  0.34335555075E+03  0.93012369783E+02 0.  0.
        -13    1    3    3    0    0  0.13773398928E+02  0.44350617288E+02 -0.17440696138E+03  0.18048399361E+03  0.00000000000E+00 0. -1.
         13    1    3    3    0    0 -0.13773398928E+02 -0.44350617288E+02 -0.15611041078E+03  0.16287155714E+03  0.00000000000E+00 0.  1.
<mgrwt>
<rscale>  0 0.93012370E+02</rscale>
<asrwt>0</asrwt>
<pdfrwt beam="2">  1        2 0.51836374E-01 0.93012370E+02</pdfrwt>
<pdfrwt beam="1">  1       -2 0.98755229E-03 0.93012370E+02</pdfrwt>
<totfact> 0.17784996E+05</totfact>
</mgrwt>
</event>
<event>
 5    1  0.1242969E+001  0.9124222E+02  0.7546771E-02  0.1299871E+00
         -1   -1    0    0    0  501 -0.00000000000E+00  0.00000000000E+00  0.80635331654E+02  0.80635331654E+02  0.00000000000E+00 0.  1.
          1   -1    0    0  501    0  0.00000000000E+00 -0.00000000000E+00 -0.25811089722E+02  0.25811089722E+02  0.00000000000E+00 0. -1.
         23    2    1    2    0    0  0.00000000000E+00  0.00000000000E+00  0.54824241932E+02  0.10644642138E+03  0.91242222245E+02 0.  0.
        -11    1    3    3    0    0 -0.38114152154E+02  0.21828269782E+02  0.13023014424E+02  0.45812234837E+02  0.00000000000E+00 0.  1.
         11    1    3    3    0    0  0.38114152154E+02 -0.21828269782E+02  0.41801227508E+02  0.60634186539E+02  0.00000000000E+00 0. -1.
<mgrwt>
<rscale>  0 0.91242222E+02</rscale>
<asrwt>0</asrwt>
<pdfrwt beam="2">  1        1 0.39709369E-02 0.91242222E+02</pdfrwt>
<pdfrwt beam="1">  1       -1 0.12405435E-01 0.91242222E+02</pdfrwt>
<totfact> 0.84382124E+04</totfact>
</mgrwt>
</event>
<event>
 5    1  0.1242969E+001  0.9065155E+02  0.7546771E-02  0.1301282E+00
          2   -1    0    0  501    0  0.00000000000E+00  0.00000000000E+00  0.41298213781E+02  0.41298213781E+02  0.00000000000E+00 0. -1.
         -2   -1    0    0    0  501 -0.00000000000E+00 -0.00000000000E+00 -0.49746119305E+02  0.49746119305E+02  0.00000000000E+00 0.  1.
         23    2    1    2    0    0  0.00000000000E+00  0.00000000000E+00 -0.84479055237E+01  0.91044333086E+02  0.90651549790E+02 0.  0.
        -11    1    3    3    0    0 -0.87772891173E+01 -0.19153772147E+02 -0.44529097755E+02  0.49262037499E+02  0.00000000000E+00 0.  1.
         11    1    3    3    0    0  0.87772891173E+01  0.19153772147E+02  0.36081192231E+02  0.41782295587E+02  0.00000000000E+00 0. -1.
<mgrwt>
<rscale>  0 0.90651550E+02</rscale>
<asrwt>0</asrwt>
<pdfrwt beam="1">  1        2 0.63535714E-02 0.90651550E+02</pdfrwt>
<pdfrwt beam="2">  1       -2 0.76532491E-02 0.90651550E+02</pdfrwt>
<totfact> 0.97797861E+04</totfact>
</mgrwt>
</event>
<event>
 5    1  0.1242969E+001  0.9178955E+02  0.7546771E-02  0.1298575E+00
          1   -1    0    0  501    0  0.00000000000E+00  0.00000000000E+00  0.47520333543E+02  0.47520333543E+02  0.00000000000E+00 0. -1.
         -1   -1    0    0    0  501 -0.00000000000E+00 -0.00000000000E+00 -0.44324822192E+02  0.44324822192E+02  0.00000000000E+00 0.  1.
         23    2    1    2    0    0  0.00000000000E+00  0.00000000000E+00  0.31955113509E+01  0.91845155736E+02  0.91789549184E+02 0.  0.
        -11    1    3    3    0    0  0.39552073404E+02 -0.23121265641E+02  0.43143404513E+01  0.46017094312E+02  0.00000000000E+00 0.  1.
         11    1    3    3    0    0 -0.39552073404E+02  0.23121265641E+02 -0.11188291004E+01  0.45828061424E+02  0.00000000000E+00 0. -1.
<mgrwt>
<rscale>  0 0.91789549E+02</rscale>
<asrwt>0</asrwt>
<pdfrwt beam="1">  1        1 0.73108205E-02 0.91789549E+02</pdfrwt>
<pdfrwt beam="2">  1       -1 0.68192035E-02 0.91789549E+02</pdfrwt>
<totfact> 0.91318392E+04</totfact>
</mgrwt>
</event>
<event>
 5    1  0.1242969E+001  0.9186291E+02  0.7546771E-02  0.1298402E+00
          2   -1    0    0  501    0  0.00000000000E+00  0.00000000000E+00  0.23089328747E+02  0.23089328747E+02  0.00000000000E+00 0. -1.
         -2   -1    0    0    0  501 -0.00000000000E+00 -0.00000000000E+00 -0.91371159034E+02  0.91371159034E+02  0.00000000000E+00 0.  1.
         23    2    1    2    0    0  0.00000000000E+00  0.00000000000E+00 -0.68281830286E+02  0.11446048778E+03  0.91862913712E+02 0.  0.
        -11    1    3    3    0    0 -0.27192097161E+02  0.29683170263E+02 -0.61699550306E+02  0.73670450337E+02  0.00000000000E+00 0.  1.
         11    1    3    3    0    0  0.27192097161E+02 -0.29683170263E+02 -0.65822799805E+01  0.40790037444E+02  0.00000000000E+00 0. -1.
<mgrwt>
<rscale>  0 0.91862914E+02</rscale>
<asrwt>0</asrwt>
<pdfrwt beam="1">  1        2 0.35522045E-02 0.91862914E+02</pdfrwt>
<pdfrwt beam="2">  1       -2 0.14057101E-01 0.91862914E+02</pdfrwt>
<totfact> 0.80438421E+04</totfact>
</mgrwt>
</event>
<event>
 5    1  0.1242969E+001  0.1072794E+03  0.7546771E-02  0.1265693E+00
          1   -1    0    0  501    0  0.00000000000E+00  0.00000000000E+00  0.31622763705E+02  0.31622763705E+02  0.00000000000E+00 0. -1.
         -1   -1    0    0    0  501 -0.00000000000E+00 -0.00000000000E+00 -0.90985671873E+02  0.90985671873E+02  0.00000000000E+00 0.  1.
         23    2    1    2    0    0  0.00000000000E+00  0.00000000000E+00 -0.59362908169E+02  0.12260843558E+03  0.10727941838E+03 0.  0.
        -11    1    3    3    0    0 -0.42858544188E+02  0.45743308763E+01 -0.66172354675E+02  0.78971892697E+02  0.00000000000E+00 0.  1.
         11    1    3    3    0    0  0.42858544188E+02 -0.45743308763E+01  0.68094465067E+01  0.43636542881E+02  0.00000000000E+00 0. -1.
<mgrwt>
<rscale>  0 0.10727942E+03</rscale>
<asrwt>0</asrwt>
<pdfrwt beam="1">  1        1 0.48650407E-02 0.10727942E+03</pdfrwt>
<pdfrwt beam="2">  1       -1 0.13997795E-01 0.10727942E+03</pdfrwt>
<totfact> 0.54461773E+04</totfact>
</mgrwt>
</event>
<event>
 5    1  0.1242969E+001  0.8365514E+02  0.7546771E-02  0.1318987E+00
          1   -1    0    0  501    0  0.00000000000E+00  0.00000000000E+00  0.17560112935E+02  0.17560112935E+02  0.00000000000E+00 0. -1.
         -1   -1    0    0    0  501 -0.00000000000E+00 -0.00000000000E+00 -0.99631791445E+02  0.99631791445E+02  0.00000000000E+00 0.  1.
         23    2    1    2    0    0  0.00000000000E+00  0.00000000000E+00 -0.82071678510E+02  0.11719190438E+03  0.83655137551E+02 0.  0.
        -13    1    3    3    0    0 -0.16019752270E+02 -0.21693969782E+02 -0.85826856848E+02  0.89963938021E+02  0.00000000000E+00 0.  1.
         13    1    3    3    0    0  0.16019752270E+02  0.21693969782E+02  0.37551783381E+01  0.27227966359E+02  0.00000000000E+00 0. -1.
<mgrwt>
<rscale>  0 0.83655138E+02</rscale>
<asrwt>0</asrwt>
<pdfrwt beam="1">  1        1 0.27015559E-02 0.83655138E+02</pdfrwt>
<pdfrwt beam="2">  1       -1 0.15327968E-01 0.83655138E+02</pdfrwt>
<totfact> 0.10158397E+05</totfact>
</mgrwt>
</event>
<event>
 5    1  0.1242969E+001  0.9366093E+02  0.7546771E-02  0.1294221E+00
         -1   -1    0    0    0  501 -0.00000000000E+00  0.00000000000E+00  0.14514391157E+03  0.14514391157E+03  0.00000000000E+00 0. -1.
          1   -1    0    0  501    0  0.00000000000E+00 -0.00000000000E+00 -0.15109779076E+02  0.15109779076E+02  0.00000000000E+00 0.  1.
         23    2    1    2    0    0  0.00000000000E+00  0.00000000000E+00  0.13003413250E+03  0.16025369065E+03  0.93660929701E+02 0.  0.
        -11    1    3    3    0    0  0.22146921233E+02  0.14652296948E+02 -0.98216203321E+00  0.26573305557E+02  0.00000000000E+00 0.  1.
         11    1    3    3    0    0 -0.22146921233E+02 -0.14652296948E+02  0.13101629453E+03  0.13368038509E+03  0.00000000000E+00 0. -1.
<mgrwt>
<rscale>  0 0.93660930E+02</rscale>
<asrwt>0</asrwt>
<pdfrwt beam="2">  1        1 0.23245815E-02 0.93660930E+02</pdfrwt>
<pdfrwt beam="1">  1       -1 0.22329832E-01 0.93660930E+02</pdfrwt>
<totfact> 0.70277625E+04</totfact>
</mgrwt>
</event>
<event>
 5    1  0.1242969E+001  0.8991852E+02  0.7546771E-02  0.1303049E+00
          1   -1    0    0  501    0  0.00000000000E+00  0.00000000000E+00  0.11961801672E+03  0.11961801672E+03  0.00000000000E+00 0. -1.
         -1   -1    0    0    0  501 -0.00000000000E+00 -0.00000000000E+00 -0.16898247827E+02  0.16898247827E+02  0.00000000000E+00 0.  1.
         23    2    1    2    0    0  0.00000000000E+00  0.00000000000E+00  0.10271976889E+03  0.13651626454E+03  0.89918516249E+02 0.  0.
        -13    1    3    3    0    0  0.10309655296E+02  0.32273252600E+02  0.96230549767E+02  0.10202044175E+03  0.00000000000E+00 0. -1.
         13    1    3    3    0    0 -0.10309655296E+02 -0.32273252600E+02  0.64892191223E+01  0.34495822798E+02  0.00000000000E+00 0.  1.
<mgrwt>
<rscale>  0 0.89918516E+02</rscale>
<asrwt>0</asrwt>
<pdfrwt beam="1">  1        1 0.18402771E-01 0.89918516E+02</pdfrwt>
<pdfrwt beam="2">  1       -1 0.25997305E-02 0.89918516E+02</pdfrwt>
<totfact> 0.11180879E+05</totfact>
</mgrwt>
</event>
<event>
 5    1  0.1242969E+001  0.9559676E+02  0.7546771E-02  0.1289838E+00
         -4   -1    0    0    0  501 -0.00000000000E+00  0.00000000000E+00  0.11273666739E+02  0.11273666739E+02  0.00000000000E+00 0.  1.
          4   -1    0    0  501    0  0.00000000000E+00 -0.00000000000E+00 -0.20265680511E+03  0.20265680511E+03  0.00000000000E+00 0. -1.
         23    2    1    2    0    0  0.00000000000E+00  0.00000000000E+00 -0.19138313837E+03  0.21393047185E+03  0.95596763191E+02 0.  0.
        -13    1    3    3    0    0 -0.91920770688E+01 -0.32847627995E+02 -0.20758120743E+02  0.39929444305E+02  0.00000000000E+00 0.  1.
         13    1    3    3    0    0  0.91920770688E+01  0.32847627995E+02 -0.17062501762E+03  0.17400102754E+03  0.00000000000E+00 0. -1.
<mgrwt>
<rscale>  0 0.95596763E+02</rscale>
<asrwt>0</asrwt>
<pdfrwt beam="2">  1        4 0.31177969E-01 0.95596763E+02</pdfrwt>
<pdfrwt beam="1">  1       -4 0.17344103E-02 0.95596763E+02</pdfrwt>
<totfact> 0.18331898E+04</totfact>
</mgrwt>
</event>
<event>
 5    1  0.1242969E+001  0.8704639E+02  0.7546771E-02  0.1310166E+00
         -2   -1    0    0    0  501 -0.00000000000E+00  0.00000000000E+00  0.14647558638E+03  0.14647558638E+03  0.00000000000E+00 0. -1.
          2   -1    0    0  501    0  0.00000000000E+00 -0.00000000000E+00 -0.12932315291E+02  0.12932315291E+02  0.00000000000E+00 0.  1.
         23    2    1    2    0    0  0.00000000000E+00  0.00000000000E+00  0.13354327109E+03  0.15940790167E+03  0.87046389137E+02 0.  0.
        -13    1    3    3    0    0  0.27367908720E+02  0.91299644786E-01  0.47974689462E+01  0.27785364343E+02  0.00000000000E+00 0.  1.
         13    1    3    3    0    0 -0.27367908720E+02 -0.91299644786E-01  0.12874580214E+03  0.13162253733E+03  0.00000000000E+00 0. -1.
<mgrwt>
<rscale>  0 0.87046389E+02</rscale>
<asrwt>0</asrwt>
<pdfrwt beam="2">  1        2 0.19895871E-02 0.87046389E+02</pdfrwt>
<pdfrwt beam="1">  1       -2 0.22534704E-01 0.87046389E+02</pdfrwt>
<totfact> 0.79216468E+04</totfact>
</mgrwt>
</event>
<event>
 5    1  0.1242969E+001  0.9183638E+02  0.7546771E-02  0.1298465E+00
          1   -1    0    0  501    0  0.00000000000E+00  0.00000000000E+00  0.74589337957E+02  0.74589337957E+02  0.00000000000E+00 0. -1.
         -1   -1    0    0    0  501 -0.00000000000E+00 -0.00000000000E+00 -0.28267847997E+02  0.28267847997E+02  0.00000000000E+00 0.  1.
         23    2    1    2    0    0  0.00000000000E+00  0.00000000000E+00  0.46321489960E+02  0.10285718595E+03  0.91836377707E+02 0.  0.
        -11    1    3    3    0    0 -0.18243576569E+02  0.39915371571E+02  0.38287656909E+02  0.58240961919E+02  0.00000000000E+00 0.  1.
         11    1    3    3    0    0  0.18243576569E+02 -0.39915371571E+02  0.80338330510E+01  0.44616224035E+02  0.00000000000E+00 0. -1.
<mgrwt>
<rscale>  0 0.91836378E+02</rscale>
<asrwt>0</asrwt>
<pdfrwt beam="1">  1        1 0.11475283E-01 0.91836378E+02</pdfrwt>
<pdfrwt beam="2">  1       -1 0.43488997E-02 0.91836378E+02</pdfrwt>
<totfact> 0.97684185E+04</totfact>
</mgrwt>
</event>
<event>
 5    1  0.1242969E+001  0.9172621E+02  0.7546771E-02  0.1298724E+00
         -1   -1    0    0    0  501 -0.00000000000E+00  0.00000000000E+00  0.57062100754E+01  0.57062100754E+01  0.00000000000E+00 0.  1.
          1   -1    0    0  501    0  0.00000000000E+00 -0.00000000000E+00 -0.36862020771E+03  0.36862020771E+03  0.00000000000E+00 0. -1.
         23    2    1    2    0    0  0.00000000000E+00  0.00000000000E+00 -0.36291399763E+03  0.37432641778E+03  0.91726208757E+02 0.  0.
        -11    1    3    3    0    0  0.15607663779E+02 -0.41956018115E+02 -0.22216757416E+03  0.22663260496E+03  0.00000000000E+00 0. -1.
         11    1    3    3    0    0 -0.15607663779E+02  0.41956018115E+02 -0.14074642347E+03  0.14769381282E+03  0.00000000000E+00 0.  1.
<mgrwt>
<rscale>  0 0.91726209E+02</rscale>
<asrwt>0</asrwt>
<pdfrwt beam="2">  1        1 0.56710797E-01 0.91726209E+02</pdfrwt>
<pdfrwt beam="1">  1       -1 0.87787853E-03 0.91726209E+02</pdfrwt>
<totfact> 0.13093052E+05</totfact>
</mgrwt>
</event>
<event>
 5    1  0.1242969E+001  0.9356904E+02  0.7546771E-02  0.1294432E+00
          1   -1    0    0  501    0  0.00000000000E+00  0.00000000000E+00  0.49085389559E+02  0.49085389559E+02  0.00000000000E+00 0. -1.
         -1   -1    0    0    0  501 -0.00000000000E+00 -0.00000000000E+00 -0.44591502017E+02  0.44591502017E+02  0.00000000000E+00 0.  1.
         23    2    1    2    0    0  0.00000000000E+00  0.00000000000E+00  0.44938875420E+01  0.93676891576E+02  0.93569038630E+02 0.  0.
        -11    1    3    3    0    0  0.26358644546E+02  0.25687146609E+02 -0.26668584352E+02  0.45451303992E+02  0.00000000000E+00 0.  1.
         11    1    3    3    0    0 -0.26358644546E+02 -0.25687146609E+02  0.31162471894E+02  0.48225587584E+02  0.00000000000E+00 0. -1.
<mgrwt>
<rscale>  0 0.93569039E+02</rscale>
<asrwt>0</asrwt>
<pdfrwt beam="1">  1        1 0.75515984E-02 0.93569039E+02</pdfrwt>
<pdfrwt beam="2">  1       -1 0.68602311E-02 0.93569039E+02</pdfrwt>
<totfact> 0.86950499E+04</totfact>
</mgrwt>
</event>
<event>
 5    1  0.1242969E+001  0.9278211E+02  0.7546771E-02  0.1296251E+00
         -4   -1    0    0    0  501 -0.00000000000E+00  0.00000000000E+00  0.13637493200E+03  0.13637493200E+03  0.00000000000E+00 0.  1.
          4   -1    0    0  501    0  0.00000000000E+00 -0.00000000000E+00 -0.15780979302E+02  0.15780979302E+02  0.00000000000E+00 0. -1.
         23    2    1    2    0    0  0.00000000000E+00  0.00000000000E+00  0.12059395269E+03  0.15215591130E+03  0.92782109894E+02 0.  0.
        -13    1    3    3    0    0 -0.17937829262E+02 -0.22205573459E+02  0.32681254350E+00  0.28547504580E+02  0.00000000000E+00 0. -1.
         13    1    3    3    0    0  0.17937829262E+02  0.22205573459E+02  0.12026714015E+03  0.12360840672E+03  0.00000000000E+00 0.  1.
<mgrwt>
<rscale>  0 0.92782110E+02</rscale>
<asrwt>0</asrwt>
<pdfrwt beam="2">  1        4 0.24278431E-02 0.92782110E+02</pdfrwt>
<pdfrwt beam="1">  1       -4 0.20980758E-01 0.92782110E+02</pdfrwt>
<totfact> 0.22481325E+04</totfact>
</mgrwt>
</event>
<event>
 5    1  0.1242969E+001  0.9117067E+02  0.7546771E-02  0.1300041E+00
         -2   -1    0    0    0  501 -0.00000000000E+00  0.00000000000E+00  0.53526950728E+01  0.53526950728E+01  0.00000000000E+00 0.  1.
          2   -1    0    0  501    0  0.00000000000E+00 -0.00000000000E+00 -0.38821994147E+03  0.38821994147E+03  0.00000000000E+00 0. -1.
         23    2    1    2    0    0  0.00000000000E+00  0.00000000000E+00 -0.38286724639E+03  0.39357263654E+03  0.91170674405E+02 0.  0.
        -11    1    3    3    0    0  0.40531516085E+02 -0.15954998376E+02 -0.13341099932E+03  0.14034194138E+03  0.00000000000E+00 0.  1.
         11    1    3    3    0    0 -0.40531516085E+02  0.15954998376E+02 -0.24945624707E+03  0.25323069516E+03  0.00000000000E+00 0. -1.
<mgrwt>
<rscale>  0 0.91170674E+02</rscale>
<asrwt>0</asrwt>
<pdfrwt beam="2">  1        2 0.59726156E-01 0.91170674E+02</pdfrwt>
<pdfrwt beam="1">  1       -2 0.82349140E-03 0.91170674E+02</pdfrwt>
<totfact> 0.19752975E+05</totfact>
</mgrwt>
</event>
<event>
 5    1  0.1242969E+001  0.9116894E+02  0.7546771E-02  0.1300045E+00
         -2   -1    0    0    0  501 -0.00000000000E+00  0.00000000000E+00  0.75851059807E+01  0.75851059807E+01  0.00000000000E+00 0.  1.
          2   -1    0    0  501    0  0.00000000000E+00 -0.00000000000E+00 -0.27395056946E+03  0.27395056946E+03  0.00000000000E+00 0. -1.
         23    2    1    2    0    0  0.00000000000E+00  0.00000000000E+00 -0.26636546347E+03  0.28153567544E+03  0.91168944335E+02 0.  0.
        -11    1    3    3    0    0 -0.17299604823E+02  0.34477754665E+02 -0.20818854513E+03  0.21173205288E+03  0.00000000000E+00 0. -1.
         11    1    3    3    0    0  0.17299604823E+02 -0.34477754665E+02 -0.58176918348E+02  0.69803622558E+02  0.00000000000E+00 0.  1.
<mgrwt>
<rscale>  0 0.91168944E+02</rscale>
<asrwt>0</asrwt>
<pdfrwt beam="2">  1        2 0.42146239E-01 0.91168944E+02</pdfrwt>
<pdfrwt beam="1">  1       -2 0.11669395E-02 0.91168944E+02</pdfrwt>
<totfact> 0.17371570E+05</totfact>
</mgrwt>
</event>
<event>
 5    1  0.1242969E+001  0.9024609E+02  0.7546771E-02  0.1302257E+00
         -1   -1    0    0    0  501 -0.00000000000E+00  0.00000000000E+00  0.29068886186E+02  0.29068886186E+02  0.00000000000E+00 0.  1.
          1   -1    0    0  501    0  0.00000000000E+00 -0.00000000000E+00 -0.70043593669E+02  0.70043593669E+02  0.00000000000E+00 0. -1.
         23    2    1    2    0    0  0.00000000000E+00  0.00000000000E+00 -0.40974707483E+02  0.99112479854E+02  0.90246091381E+02 0.  0.
        -13    1    3    3    0    0  0.18254837922E+02 -0.17162076523E+02  0.20727102803E+02  0.32517514799E+02  0.00000000000E+00 0.  1.
         13    1    3    3    0    0 -0.18254837922E+02  0.17162076523E+02 -0.61701810286E+02  0.66594965055E+02  0.00000000000E+00 0. -1.
<mgrwt>
<rscale>  0 0.90246091E+02</rscale>
<asrwt>0</asrwt>
<pdfrwt beam="2">  1        1 0.10775937E-01 0.90246091E+02</pdfrwt>
<pdfrwt beam="1">  1       -1 0.44721364E-02 0.90246091E+02</pdfrwt>
<totfact> 0.10150446E+05</totfact>
</mgrwt>
</event>
<event>
 5    1  0.1242969E+001  0.8823252E+02  0.7546771E-02  0.1307189E+00
          1   -1    0    0  501    0  0.00000000000E+00  0.00000000000E+00  0.22741065255E+02  0.22741065255E+02  0.00000000000E+00 0. -1.
         -1   -1    0    0    0  501 -0.00000000000E+00 -0.00000000000E+00 -0.85582812213E+02  0.85582812213E+02  0.00000000000E+00 0.  1.
         23    2    1    2    0    0  0.00000000000E+00  0.00000000000E+00 -0.62841746958E+02  0.10832387747E+03  0.88232518206E+02 0.  0.
        -11    1    3    3    0    0  0.48638265214E+01 -0.35676659577E+02 -0.12600226618E+00  0.36006898277E+02  0.00000000000E+00 0. -1.
         11    1    3    3    0    0 -0.48638265214E+01  0.35676659577E+02 -0.62715744692E+02  0.72316979190E+02  0.00000000000E+00 0.  1.
<mgrwt>
<rscale>  0 0.88232518E+02</rscale>
<asrwt>0</asrwt>
<pdfrwt beam="1">  1        1 0.34986255E-02 0.88232518E+02</pdfrwt>
<pdfrwt beam="2">  1       -1 0.13166586E-01 0.88232518E+02</pdfrwt>
<totfact> 0.91017814E+04</totfact>
</mgrwt>
</event>
<event>
 5    1  0.1242969E+001  0.8830753E+02  0.7546771E-02  0.1307003E+00
          1   -1    0    0  501    0  0.00000000000E+00  0.00000000000E+00  0.25583430821E+03  0.25583430821E+03  0.00000000000E+00 0. -1.
         -1   -1    0    0    0  501 -0.00000000000E+00 -0.00000000000E+00 -0.76203814000E+01  0.76203814000E+01  0.00000000000E+00 0.  1.
         23    2    1    2    0    0  0.00000000000E+00  0.00000000000E+00  0.24821392681E+03  0.26345468961E+03  0.88307530908E+02 0.  0.
        -11    1    3    3    0    0  0.40914365791E+02 -0.16593401412E+02  0.12268021874E+03  0.13038313683E+03  0.00000000000E+00 0. -1.
         11    1    3    3    0    0 -0.40914365791E+02  0.16593401412E+02  0.12553370806E+03  0.13307155278E+03  0.00000000000E+00 0.  1.
<mgrwt>
<rscale>  0 0.88307531E+02</rscale>
<asrwt>0</asrwt>
<pdfrwt beam="1">  1        1 0.39359118E-01 0.88307531E+02</pdfrwt>
<pdfrwt beam="2">  1       -1 0.11723666E-02 0.88307531E+02</pdfrwt>
<totfact> 0.13527419E+05</totfact>
</mgrwt>
</event>
<event>
 5    1  0.1242969E+001  0.9081593E+02  0.7546771E-02  0.1300888E+00
          2   -1    0    0  501    0  0.00000000000E+00  0.00000000000E+00  0.11315682008E+03  0.11315682008E+03  0.00000000000E+00 0. -1.
         -2   -1    0    0    0  501 -0.00000000000E+00 -0.00000000000E+00 -0.18221468907E+02  0.18221468907E+02  0.00000000000E+00 0.  1.
         23    2    1    2    0    0  0.00000000000E+00  0.00000000000E+00  0.94935351174E+02  0.13137828899E+03  0.90815934255E+02 0.  0.
        -13    1    3    3    0    0  0.18568474868E+02 -0.15718472237E+02 -0.79979460399E+01  0.25609095440E+02  0.00000000000E+00 0.  1.
         13    1    3    3    0    0 -0.18568474868E+02  0.15718472237E+02  0.10293329721E+03  0.10576919355E+03  0.00000000000E+00 0. -1.
<mgrwt>
<rscale>  0 0.90815934E+02</rscale>
<asrwt>0</asrwt>
<pdfrwt beam="1">  1        2 0.17408741E-01 0.90815934E+02</pdfrwt>
<pdfrwt beam="2">  1       -2 0.28033030E-02 0.90815934E+02</pdfrwt>
<totfact> 0.12885660E+05</totfact>
</mgrwt>
</event>
<event>
 5    1  0.1242969E+001  0.9230499E+02  0.7546771E-02  0.1297364E+00
         -3   -1    0    0    0  501 -0.00000000000E+00  0.00000000000E+00  0.26853392013E+02  0.26853392013E+02  0.00000000000E+00 0.  1.
          3   -1    0    0  501    0  0.00000000000E+00 -0.00000000000E+00 -0.79321551529E+02  0.79321551529E+02  0.00000000000E+00 0. -1.
         23    2    1    2    0    0  0.00000000000E+00  0.00000000000E+00 -0.52468159516E+02  0.10617494354E+03  0.92304988344E+02 0.  0.
        -11    1    3    3    0    0  0.47327988408E+01  0.45754649480E+02 -0.21904845866E+02  0.50948106994E+02  0.00000000000E+00 0. -1.
         11    1    3    3    0    0 -0.47327988408E+01 -0.45754649480E+02 -0.30563313650E+02  0.55226836548E+02  0.00000000000E+00 0.  1.
<mgrwt>
<rscale>  0 0.92304988E+02</rscale>
<asrwt>0</asrwt>
<pdfrwt beam="2">  1        3 0.12203316E-01 0.92304988E+02</pdfrwt>
<pdfrwt beam="1">  1       -3 0.41312910E-02 0.92304988E+02</pdfrwt>
<totfact> 0.33091137E+04</totfact>
</mgrwt>
</event>
<event>
 5    1  0.1242969E+001  0.9110834E+02  0.7546771E-02  0.1300190E+00
          4   -1    0    0  501    0  0.00000000000E+00  0.00000000000E+00  0.31354658338E+02  0.31354658338E+02  0.00000000000E+00 0. -1.
         -4   -1    0    0    0  501 -0.00000000000E+00 -0.00000000000E+00 -0.66184183518E+02  0.66184183518E+02  0.00000000000E+00 0.  1.
         23    2    1    2    0    0  0.00000000000E+00  0.00000000000E+00 -0.34829525181E+02  0.97538841856E+02  0.91108341255E+02 0.  0.
        -11    1    3    3    0    0 -0.35372416478E+02  0.21153236548E+02  0.33587869569E+01  0.41351526136E+02  0.00000000000E+00 0.  1.
         11    1    3    3    0    0  0.35372416478E+02 -0.21153236548E+02 -0.38188312137E+02  0.56187315720E+02  0.00000000000E+00 0. -1.
<mgrwt>
<rscale>  0 0.91108341E+02</rscale>
<asrwt>0</asrwt>
<pdfrwt beam="1">  1        4 0.48237936E-02 0.91108341E+02</pdfrwt>
<pdfrwt beam="2">  1       -4 0.10182182E-01 0.91108341E+02</pdfrwt>
<totfact> 0.26665886E+04</totfact>
</mgrwt>
</event>
<event>
 5    1  0.1242969E+001  0.9071240E+02  0.7546771E-02  0.1301136E+00
         -2   -1    0    0    0  501 -0.00000000000E+00  0.00000000000E+00  0.96996206340E+02  0.96996206340E+02  0.00000000000E+00 0.  1.
          2   -1    0    0  501    0  0.00000000000E+00 -0.00000000000E+00 -0.21208920183E+02  0.21208920183E+02  0.00000000000E+00 0. -1.
         23    2    1    2    0    0  0.00000000000E+00  0.00000000000E+00  0.75787286158E+02  0.11820512652E+03  0.90712398233E+02 0.  0.
        -13    1    3    3    0    0  0.34698393181E+02  0.25832791688E+02  0.55659167453E+02  0.70492939628E+02  0.00000000000E+00 0.  1.
         13    1    3    3    0    0 -0.34698393181E+02 -0.25832791688E+02  0.20128118705E+02  0.47712186896E+02  0.00000000000E+00 0. -1.
<mgrwt>
<rscale>  0 0.90712398E+02</rscale>
<asrwt>0</asrwt>
<pdfrwt beam="2">  1        2 0.32629109E-02 0.90712398E+02</pdfrwt>
<pdfrwt beam="1">  1       -2 0.14922493E-01 0.90712398E+02</pdfrwt>
<totfact> 0.81559363E+04</totfact>
</mgrwt>
</event>
<event>
 5    1  0.1242969E+001  0.9257099E+02  0.7546771E-02  0.1296742E+00
          1   -1    0    0  501    0  0.00000000000E+00  0.00000000000E+00  0.30234791376E+03  0.30234791376E+03  0.00000000000E+00 0.  1.
         -1   -1    0    0    0  501 -0.00000000000E+00 -0.00000000000E+00 -0.70857007315E+01  0.70857007315E+01  0.00000000000E+00 0. -1.
         23    2    1    2    0    0  0.00000000000E+00  0.00000000000E+00  0.29526221303E+03  0.30943361449E+03  0.92570985384E+02 0.  0.
        -11    1    3    3    0    0 -0.13612390008E+02 -0.43490192169E+02  0.12054669404E+03  0.12887280327E+03  0.00000000000E+00 0. -1.
         11    1    3    3    0    0  0.13612390008E+02  0.43490192169E+02  0.17471551899E+03  0.18056081123E+03  0.00000000000E+00 0.  1.
<mgrwt>
<rscale>  0 0.92570985E+02</rscale>
<asrwt>0</asrwt>
<pdfrwt beam="1">  1        1 0.46515054E-01 0.92570985E+02</pdfrwt>
<pdfrwt beam="2">  1       -1 0.10901080E-02 0.92570985E+02</pdfrwt>
<totfact> 0.12322111E+05</totfact>
</mgrwt>
</event>
<event>
 5    1  0.1242969E+001  0.8904820E+02  0.7546771E-02  0.1305173E+00
         -1   -1    0    0    0  501 -0.00000000000E+00  0.00000000000E+00  0.57211039734E+02  0.57211039734E+02  0.00000000000E+00 0.  1.
          1   -1    0    0  501    0  0.00000000000E+00 -0.00000000000E+00 -0.34650578542E+02  0.34650578542E+02  0.00000000000E+00 0. -1.
         23    2    1    2    0    0  0.00000000000E+00  0.00000000000E+00  0.22560461192E+02  0.91861618276E+02  0.89048203256E+02 0.  0.
        -11    1    3    3    0    0 -0.67789800578E+01  0.43572832726E+02  0.17626783083E+02  0.47489470457E+02  0.00000000000E+00 0. -1.
         11    1    3    3    0    0  0.67789800578E+01 -0.43572832726E+02  0.49336781096E+01  0.44372147819E+02  0.00000000000E+00 0.  1.
<mgrwt>
<rscale>  0 0.89048203E+02</rscale>
<asrwt>0</asrwt>
<pdfrwt beam="2">  1        1 0.53308583E-02 0.89048203E+02</pdfrwt>
<pdfrwt beam="1">  1       -1 0.88016984E-02 0.89048203E+02</pdfrwt>
<totfact> 0.94835452E+04</totfact>
</mgrwt>
</event>
<event>
 5    1  0.1242969E+001  0.9077259E+02  0.7546771E-02  0.1300991E+00
          2   -1    0    0  501    0  0.00000000000E+00  0.00000000000E+00  0.58794733587E+02  0.58794733587E+02  0.00000000000E+00 0. -1.
         -2   -1    0    0    0  501 -0.00000000000E+00 -0.00000000000E+00 -0.35035715727E+02  0.35035715727E+02  0.00000000000E+00 0.  1.
         23    2    1    2    0    0  0.00000000000E+00  0.00000000000E+00  0.23759017859E+02  0.93830449314E+02  0.90772585558E+02 0.  0.
        -11    1    3    3    0    0 -0.23644403148E+02  0.20390898362E+02 -0.22170542732E+02  0.38293334946E+02  0.00000000000E+00 0.  1.
         11    1    3    3    0    0  0.23644403148E+02 -0.20390898362E+02  0.45929560592E+02  0.55537114368E+02  0.00000000000E+00 0. -1.
<mgrwt>
<rscale>  0 0.90772586E+02</rscale>
<asrwt>0</asrwt>
<pdfrwt beam="1">  1        2 0.90453436E-02 0.90772586E+02</pdfrwt>
<pdfrwt beam="2">  1       -2 0.53901101E-02 0.90772586E+02</pdfrwt>
<totfact> 0.10682562E+05</totfact>
</mgrwt>
</event>
<event>
 5    1  0.1242969E+001  0.9165516E+02  0.7546771E-02  0.1298892E+00
          1   -1    0    0  501    0  0.00000000000E+00  0.00000000000E+00  0.82325651106E+01  0.82325651106E+01  0.00000000000E+00 0. -1.
         -1   -1    0    0    0  501 -0.00000000000E+00 -0.00000000000E+00 -0.25510480130E+03  0.25510480130E+03  0.00000000000E+00 0.  1.
         23    2    1    2    0    0  0.00000000000E+00  0.00000000000E+00 -0.24687223619E+03  0.26333736641E+03  0.91655155594E+02 0.  0.
        -13    1    3    3    0    0 -0.35891160748E+02  0.23423508193E+02 -0.17005977790E+03  0.17537720551E+03  0.00000000000E+00 0.  1.
         13    1    3    3    0    0  0.35891160748E+02 -0.23423508193E+02 -0.76812458296E+02  0.87960160899E+02  0.00000000000E+00 0. -1.
<mgrwt>
<rscale>  0 0.91655156E+02</rscale>
<asrwt>0</asrwt>
<pdfrwt beam="1">  1        1 0.12665486E-02 0.91655156E+02</pdfrwt>
<pdfrwt beam="2">  1       -1 0.39246889E-01 0.91655156E+02</pdfrwt>
<totfact> 0.63445629E+04</totfact>
</mgrwt>
</event>
<event>
 5    1  0.1242969E+001  0.8839140E+02  0.7546771E-02  0.1306795E+00
         -1   -1    0    0    0  501 -0.00000000000E+00  0.00000000000E+00  0.11111067018E+03  0.11111067018E+03  0.00000000000E+00 0.  1.
          1   -1    0    0  501    0  0.00000000000E+00 -0.00000000000E+00 -0.17579408603E+02  0.17579408603E+02  0.00000000000E+00 0. -1.
         23    2    1    2    0    0  0.00000000000E+00  0.00000000000E+00  0.93531261578E+02  0.12869007878E+03  0.88391399384E+02 0.  0.
        -13    1    3    3    0    0  0.42535599886E+02 -0.14016122481E+01  0.64115927306E+02  0.76955142186E+02  0.00000000000E+00 0. -1.
         13    1    3    3    0    0 -0.42535599886E+02  0.14016122481E+01  0.29415334273E+02  0.51734936599E+02  0.00000000000E+00 0.  1.
<mgrwt>
<rscale>  0 0.88391399E+02</rscale>
<asrwt>0</asrwt>
<pdfrwt beam="2">  1        1 0.27045245E-02 0.88391399E+02</pdfrwt>
<pdfrwt beam="1">  1       -1 0.17093949E-01 0.88391399E+02</pdfrwt>
<totfact> 0.86389517E+04</totfact>
</mgrwt>
</event>
<event>
 5    1  0.1242969E+001  0.8951554E+02  0.7546771E-02  0.1304029E+00
          2   -1    0    0  501    0  0.00000000000E+00  0.00000000000E+00  0.27056437747E+03  0.27056437747E+03  0.00000000000E+00 0. -1.
         -2   -1    0    0    0  501 -0.00000000000E+00 -0.00000000000E+00 -0.74039967053E+01  0.74039967053E+01  0.00000000000E+00 0.  1.
         23    2    1    2    0    0  0.00000000000E+00  0.00000000000E+00  0.26316038077E+03  0.27796837418E+03  0.89515535174E+02 0.  0.
        -11    1    3    3    0    0 -0.35950184775E+02 -0.10518266699E+01  0.21430681028E+03  0.21730377598E+03  0.00000000000E+00 0. -1.
         11    1    3    3    0    0  0.35950184775E+02  0.10518266699E+01  0.48853570490E+02  0.60664598196E+02  0.00000000000E+00 0.  1.
<mgrwt>
<rscale>  0 0.89515535E+02</rscale>
<asrwt>0</asrwt>
<pdfrwt beam="1">  1        2 0.41625281E-01 0.89515535E+02</pdfrwt>
<pdfrwt beam="2">  1       -2 0.11390766E-02 0.89515535E+02</pdfrwt>
<totfact> 0.18156839E+05</totfact>
</mgrwt>
</event>
<event>
 5    1  0.1242969E+001  0.9187809E+02  0.7546771E-02  0.1298366E+00
          2   -1    0    0  501    0  0.00000000000E+00  0.00000000000E+00  0.81993451076E+02  0.81993451076E+02  0.00000000000E+00 0. -1.
         -2   -1    0    0    0  501 -0.00000000000E+00 -0.00000000000E+00 -0.25738587924E+02  0.25738587924E+02  0.00000000000E+00 0.  1.
         23    2    1    2    0    0  0.00000000000E+00  0.00000000000E+00  0.56254863153E+02  0.10773203900E+03  0.91878085520E+02 0.  0.
        -11    1    3    3    0    0  0.31225035852E+02 -0.20249775030E+02  0.59706809883E+02  0.70355947859E+02  0.00000000000E+00 0. -1.
         11    1    3    3    0    0 -0.31225035852E+02  0.20249775030E+02 -0.34519467306E+01  0.37376091141E+02  0.00000000000E+00 0.  1.
<mgrwt>
<rscale>  0 0.91878086E+02</rscale>
<asrwt>0</asrwt>
<pdfrwt beam="1">  1        2 0.12614377E-01 0.91878086E+02</pdfrwt>
<pdfrwt beam="2">  1       -2 0.39597828E-02 0.91878086E+02</pdfrwt>
<totfact> 0.11323178E+05</totfact>
</mgrwt>
</event>
<event>
 5    1  0.1242969E+001  0.9172426E+02  0.7546771E-02  0.1298729E+00
          1   -1    0    0  501    0  0.00000000000E+00  0.00000000000E+00  0.22338434095E+02  0.22338434095E+02  0.00000000000E+00 0. -1.
         -1   -1    0    0    0  501 -0.00000000000E+00 -0.00000000000E+00 -0.94157662593E+02  0.94157662593E+02  0.00000000000E+00 0.  1.
         23    2    1    2    0    0  0.00000000000E+00  0.00000000000E+00 -0.71819228498E+02  0.11649609669E+03  0.91724255034E+02 0.  0.
        -13    1    3    3    0    0 -0.43057553300E+02 -0.13672160194E+02 -0.45946682855E+02  0.64435848143E+02  0.00000000000E+00 0.  1.
         13    1    3    3    0    0  0.43057553300E+02  0.13672160194E+02 -0.25872545643E+02  0.52060248545E+02  0.00000000000E+00 0. -1.
<mgrwt>
<rscale>  0 0.91724255E+02</rscale>
<asrwt>0</asrwt>
<pdfrwt beam="1">  1        1 0.34366822E-02 0.91724255E+02</pdfrwt>
<pdfrwt beam="2">  1       -1 0.14485794E-01 0.91724255E+02</pdfrwt>
<totfact> 0.81015841E+04</totfact>
</mgrwt>
</event>
<event>
 5    1  0.1242969E+001  0.9019414E+02  0.7546771E-02  0.1302382E+00
         -1   -1    0    0    0  501 -0.00000000000E+00  0.00000000000E+00  0.37812336141E+02  0.37812336141E+02  0.00000000000E+00 0.  1.
          1   -1    0    0  501    0  0.00000000000E+00 -0.00000000000E+00 -0.53785249047E+02  0.53785249047E+02  0.00000000000E+00 0. -1.
         23    2    1    2    0    0  0.00000000000E+00  0.00000000000E+00 -0.15972912906E+02  0.91597585188E+02  0.90194144298E+02 0.  0.
        -11    1    3    3    0    0 -0.16267465824E+02 -0.33994929607E+01  0.34589128968E+02  0.38374403442E+02  0.00000000000E+00 0.  1.
         11    1    3    3    0    0  0.16267465824E+02  0.33994929607E+01 -0.50562041874E+02  0.53223181746E+02  0.00000000000E+00 0. -1.
<mgrwt>
<rscale>  0 0.90194144E+02</rscale>
<asrwt>0</asrwt>
<pdfrwt beam="2">  1        1 0.82746537E-02 0.90194144E+02</pdfrwt>
<pdfrwt beam="1">  1       -1 0.58172825E-02 0.90194144E+02</pdfrwt>
<totfact> 0.97697641E+04</totfact>
</mgrwt>
</event>
<event>
 5    1  0.1242969E+001  0.8984909E+02  0.7546771E-02  0.1303218E+00
         -1   -1    0    0    0  501 -0.00000000000E+00  0.00000000000E+00  0.16669900839E+02  0.16669900839E+02  0.00000000000E+00 0.  1.
          1   -1    0    0  501    0  0.00000000000E+00 -0.00000000000E+00 -0.12106939750E+03  0.12106939750E+03  0.00000000000E+00 0. -1.
         23    2    1    2    0    0  0.00000000000E+00  0.00000000000E+00 -0.10439949667E+03  0.13773929834E+03  0.89849092395E+02 0.  0.
        -11    1    3    3    0    0  0.36516465159E+02  0.26086692845E+02 -0.49040459169E+02  0.66475066053E+02  0.00000000000E+00 0.  1.
         11    1    3    3    0    0 -0.36516465159E+02 -0.26086692845E+02 -0.55359037497E+02  0.71264232290E+02  0.00000000000E+00 0. -1.
<mgrwt>
<rscale>  0 0.89849092E+02</rscale>
<asrwt>0</asrwt>
<pdfrwt beam="2">  1        1 0.18626061E-01 0.89849092E+02</pdfrwt>
<pdfrwt beam="1">  1       -1 0.25646001E-02 0.89849092E+02</pdfrwt>
<totfact> 0.11227650E+05</totfact>
</mgrwt>
</event>
<event>
 5    1  0.1242969E+001  0.9045316E+02  0.7546771E-02  0.1301758E+00
         -2   -1    0    0    0  501 -0.00000000000E+00  0.00000000000E+00  0.65157137461E+02  0.65157137461E+02  0.00000000000E+00 0.  1.
          2   -1    0    0  501    0  0.00000000000E+00 -0.00000000000E+00 -0.31392473710E+02  0.31392473710E+02  0.00000000000E+00 0. -1.
         23    2    1    2    0    0  0.00000000000E+00  0.00000000000E+00  0.33764663751E+02  0.96549611171E+02  0.90453164118E+02 0.  0.
        -11    1    3    3    0    0  0.15585881484E+02 -0.17847023492E+02  0.58001550560E+02  0.62654734989E+02  0.00000000000E+00 0.  1.
         11    1    3    3    0    0 -0.15585881484E+02  0.17847023492E+02 -0.24236886809E+02  0.33894876182E+02  0.00000000000E+00 0. -1.
<mgrwt>
<rscale>  0 0.90453164E+02</rscale>
<asrwt>0</asrwt>
<pdfrwt beam="2">  1        2 0.48296114E-02 0.90453164E+02</pdfrwt>
<pdfrwt beam="1">  1       -2 0.10024175E-01 0.90453164E+02</pdfrwt>
<totfact> 0.91670460E+04</totfact>
</mgrwt>
</event>
<event>
 5    1  0.1242969E+001  0.9507236E+02  0.7546771E-02  0.1291013E+00
         -4   -1    0    0    0  501 -0.00000000000E+00  0.00000000000E+00  0.15604385337E+03  0.15604385337E+03  0.00000000000E+00 0.  1.
          4   -1    0    0  501    0  0.00000000000E+00 -0.00000000000E+00 -0.14481112194E+02  0.14481112194E+02  0.00000000000E+00 0. -1.
         23    2    1    2    0    0  0.00000000000E+00  0.00000000000E+00  0.14156274118E+03  0.17052496557E+03  0.95072362922E+02 0.  0.
        -11    1    3    3    0    0 -0.23672872586E+02 -0.24601140170E+02  0.13010883013E+03  0.13451367466E+03  0.00000000000E+00 0.  1.
         11    1    3    3    0    0  0.23672872586E+02  0.24601140170E+02  0.11453911049E+02  0.36011290902E+02  0.00000000000E+00 0. -1.
<mgrwt>
<rscale>  0 0.95072363E+02</rscale>
<asrwt>0</asrwt>
<pdfrwt beam="2">  1        4 0.22278635E-02 0.95072363E+02</pdfrwt>
<pdfrwt beam="1">  1       -4 0.24006745E-01 0.95072363E+02</pdfrwt>
<totfact> 0.20262834E+04</totfact>
</mgrwt>
</event>
<event>
 5    1  0.1242969E+001  0.9383169E+02  0.7546771E-02  0.1293829E+00
          1   -1    0    0  501    0  0.00000000000E+00  0.00000000000E+00  0.89265906190E+02  0.89265906190E+02  0.00000000000E+00 0. -1.
         -1   -1    0    0    0  501 -0.00000000000E+00 -0.00000000000E+00 -0.24657749677E+02  0.24657749677E+02  0.00000000000E+00 0.  1.
         23    2    1    2    0    0  0.00000000000E+00  0.00000000000E+00  0.64608156513E+02  0.11392365587E+03  0.93831686961E+02 0.  0.
        -13    1    3    3    0    0  0.42989698578E+02  0.11872426934E+02  0.14624957856E+02  0.46935680430E+02  0.00000000000E+00 0.  1.
         13    1    3    3    0    0 -0.42989698578E+02 -0.11872426934E+02  0.49983198656E+02  0.66987975436E+02  0.00000000000E+00 0. -1.
<mgrwt>
<rscale>  0 0.93831687E+02</rscale>
<asrwt>0</asrwt>
<pdfrwt beam="1">  1        1 0.13733216E-01 0.93831687E+02</pdfrwt>
<pdfrwt beam="2">  1       -1 0.37935000E-02 0.93831687E+02</pdfrwt>
<totfact> 0.94762369E+04</totfact>
</mgrwt>
</event>
<event>
 5    1  0.1242969E+001  0.9317240E+02  0.7546771E-02  0.1295346E+00
         -3   -1    0    0    0  501 -0.00000000000E+00  0.00000000000E+00  0.10077377969E+03  0.10077377969E+03  0.00000000000E+00 0.  1.
          3   -1    0    0  501    0  0.00000000000E+00 -0.00000000000E+00 -0.21536096854E+02  0.21536096854E+02  0.00000000000E+00 0. -1.
         23    2    1    2    0    0  0.00000000000E+00  0.00000000000E+00  0.79237682838E+02  0.12230987655E+03  0.93172396767E+02 0.  0.
        -13    1    3    3    0    0  0.17855461573E+02  0.42860861856E+02  0.34636894163E+02  0.57927415135E+02  0.00000000000E+00 0.  1.
         13    1    3    3    0    0 -0.17855461573E+02 -0.42860861856E+02  0.44600788676E+02  0.64382461412E+02  0.00000000000E+00 0. -1.
<mgrwt>
<rscale>  0 0.93172397E+02</rscale>
<asrwt>0</asrwt>
<pdfrwt beam="2">  1        3 0.33132457E-02 0.93172397E+02</pdfrwt>
<pdfrwt beam="1">  1       -3 0.15503658E-01 0.93172397E+02</pdfrwt>
<totfact> 0.31196256E+04</totfact>
</mgrwt>
</event>
<event>
 5    1  0.1242969E+001  0.9330575E+02  0.7546771E-02  0.1295038E+00
          4   -1    0    0  501    0  0.00000000000E+00  0.00000000000E+00  0.10805576421E+03  0.10805576421E+03  0.00000000000E+00 0. -1.
         -4   -1    0    0    0  501 -0.00000000000E+00 -0.00000000000E+00 -0.20142292927E+02  0.20142292927E+02  0.00000000000E+00 0.  1.
         23    2    1    2    0    0  0.00000000000E+00  0.00000000000E+00  0.87913471279E+02  0.12819805713E+03  0.93305752342E+02 0.  0.
        -11    1    3    3    0    0  0.13211283149E+02 -0.30166143901E+02 -0.14453408603E+01  0.32963968974E+02  0.00000000000E+00 0.  1.
         11    1    3    3    0    0 -0.13211283149E+02  0.30166143901E+02  0.89358812139E+02  0.95234088157E+02  0.00000000000E+00 0. -1.
<mgrwt>
<rscale>  0 0.93305752E+02</rscale>
<asrwt>0</asrwt>
<pdfrwt beam="1">  1        4 0.16623963E-01 0.93305752E+02</pdfrwt>
<pdfrwt beam="2">  1       -4 0.30988144E-02 0.93305752E+02</pdfrwt>
<totfact> 0.23312539E+04</totfact>
</mgrwt>
</event>
<event>
 5    1  0.1242969E+001  0.9209407E+02  0.7546771E-02  0.1297858E+00
         -2   -1    0    0    0  501 -0.00000000000E+00  0.00000000000E+00  0.55547374039E+01  0.55547374039E+01  0.00000000000E+00 0.  1.
          2   -1    0    0  501    0  0.00000000000E+00 -0.00000000000E+00 -0.38171550918E+03  0.38171550918E+03  0.00000000000E+00 0. -1.
         23    2    1    2    0    0  0.00000000000E+00  0.00000000000E+00 -0.37616077177E+03  0.38727024658E+03  0.92094069656E+02 0.  0.
        -11    1    3    3    0    0 -0.41408484435E+02 -0.14072395770E+02 -0.24867475056E+03  0.25249124039E+03  0.00000000000E+00 0. -1.
         11    1    3    3    0    0  0.41408484435E+02  0.14072395770E+02 -0.12748602121E+03  0.13477900619E+03  0.00000000000E+00 0.  1.
<mgrwt>
<rscale>  0 0.92094070E+02</rscale>
<asrwt>0</asrwt>
<pdfrwt beam="2">  1        2 0.58725450E-01 0.92094070E+02</pdfrwt>
<pdfrwt beam="1">  1       -2 0.85457518E-03 0.92094070E+02</pdfrwt>
<totfact> 0.19113587E+05</totfact>
</mgrwt>
</event>
<event>
 5    1  0.1242969E+001  0.8887111E+02  0.7546771E-02  0.1305609E+00
         -3   -1    0    0    0  501 -0.00000000000E+00  0.00000000000E+00  0.20426081202E+03  0.20426081202E+03  0.00000000000E+00 0.  1.
          3   -1    0    0  501    0  0.00000000000E+00 -0.00000000000E+00 -0.96666536502E+01  0.96666536502E+01  0.00000000000E+00 0. -1.
         23    2    1    2    0    0  0.00000000000E+00  0.00000000000E+00  0.19459415837E+03  0.21392746567E+03  0.88871109459E+02 0.  0.
        -13    1    3    3    0    0  0.61146948196E+01  0.35501227396E+02  0.15992002824E+03  0.16392724627E+03  0.00000000000E+00 0.  1.
         13    1    3    3    0    0 -0.61146948196E+01 -0.35501227396E+02  0.34674130134E+02  0.50000219398E+02  0.00000000000E+00 0. -1.
<mgrwt>
<rscale>  0 0.88871109E+02</rscale>
<asrwt>0</asrwt>
<pdfrwt beam="2">  1        3 0.14871776E-02 0.88871109E+02</pdfrwt>
<pdfrwt beam="1">  1       -3 0.31424737E-01 0.88871109E+02</pdfrwt>
<totfact> 0.29773102E+04</totfact>
</mgrwt>
</event>
<event>
 5    1  0.1242969E+001  0.6211247E+02  0.7546771E-02  0.1389175E+00
         -2   -1    0    0    0  501 -0.00000000000E+00  0.00000000000E+00  0.16552157150E+02  0.16552157150E+02  0.00000000000E+00 0.  1.
          2   -1    0    0  501    0  0.00000000000E+00 -0.00000000000E+00 -0.58269724831E+02  0.58269724831E+02  0.00000000000E+00 0. -1.
         23    2    1    2    0    0  0.00000000000E+00  0.00000000000E+00 -0.41717567681E+02  0.74821881981E+02  0.62112467105E+02 0.  0.
        -13    1    3    3    0    0  0.64374198054E+01  0.27276006928E+02 -0.47389817198E+01  0.28423210153E+02  0.00000000000E+00 0. -1.
         13    1    3    3    0    0 -0.64374198054E+01 -0.27276006928E+02 -0.36978585961E+02  0.46398671828E+02  0.00000000000E+00 0.  1.
<mgrwt>
<rscale>  0 0.62112467E+02</rscale>
<asrwt>0</asrwt>
<pdfrwt beam="2">  1        2 0.89645730E-02 0.62112467E+02</pdfrwt>
<pdfrwt beam="1">  1       -2 0.25464857E-02 0.62112467E+02</pdfrwt>
<totfact> 0.30045655E+05</totfact>
</mgrwt>
</event>
<event>
 5    1  0.1242969E+001  0.9245034E+02  0.7546771E-02  0.1297024E+00
         -4   -1    0    0    0  501 -0.00000000000E+00  0.00000000000E+00  0.16630603877E+03  0.16630603877E+03  0.00000000000E+00 0.  1.
          4   -1    0    0  501    0  0.00000000000E+00 -0.00000000000E+00 -0.12848398394E+02  0.12848398394E+02  0.00000000000E+00 0. -1.
         23    2    1    2    0    0  0.00000000000E+00  0.00000000000E+00  0.15345764038E+03  0.17915443717E+03  0.92450337834E+02 0.  0.
        -13    1    3    3    0    0 -0.39161676222E+02  0.24288427471E+02  0.83769800644E+02  0.95608284649E+02  0.00000000000E+00 0.  1.
         13    1    3    3    0    0  0.39161676222E+02 -0.24288427471E+02  0.69687839736E+02  0.83546152518E+02  0.00000000000E+00 0. -1.
<mgrwt>
<rscale>  0 0.92450338E+02</rscale>
<asrwt>0</asrwt>
<pdfrwt beam="2">  1        4 0.19766768E-02 0.92450338E+02</pdfrwt>
<pdfrwt beam="1">  1       -4 0.25585543E-01 0.92450338E+02</pdfrwt>
<totfact> 0.21473074E+04</totfact>
</mgrwt>
</event>
<event>
 5    1  0.1242969E+001  0.1098250E+03  0.7546771E-02  0.1260894E+00
         -2   -1    0    0    0  501 -0.00000000000E+00  0.00000000000E+00  0.21272159352E+02  0.21272159352E+02  0.00000000000E+00 0.  1.
          2   -1    0    0  501    0  0.00000000000E+00 -0.00000000000E+00 -0.14175258532E+03  0.14175258532E+03  0.00000000000E+00 0. -1.
         23    2    1    2    0    0  0.00000000000E+00  0.00000000000E+00 -0.12048042597E+03  0.16302474467E+03  0.10982501688E+03 0.  0.
        -13    1    3    3    0    0 -0.24794648727E+02 -0.45507484339E+02 -0.33287832266E+02  0.61593713262E+02  0.00000000000E+00 0.  1.
         13    1    3    3    0    0  0.24794648727E+02  0.45507484339E+02 -0.87192593701E+02  0.10143103141E+03  0.00000000000E+00 0. -1.
<mgrwt>
<rscale>  0 0.10982502E+03</rscale>
<asrwt>0</asrwt>
<pdfrwt beam="2">  1        2 0.21808091E-01 0.10982502E+03</pdfrwt>
<pdfrwt beam="1">  1       -2 0.32726397E-02 0.10982502E+03</pdfrwt>
<totfact> 0.82156082E+04</totfact>
</mgrwt>
</event>
<event>
 5    1  0.1242969E+001  0.9066108E+02  0.7546771E-02  0.1301259E+00
          3   -1    0    0  501    0  0.00000000000E+00  0.00000000000E+00  0.57538645511E+02  0.57538645511E+02  0.00000000000E+00 0. -1.
         -3   -1    0    0    0  501 -0.00000000000E+00 -0.00000000000E+00 -0.35712655913E+02  0.35712655913E+02  0.00000000000E+00 0.  1.
         23    2    1    2    0    0  0.00000000000E+00  0.00000000000E+00  0.21825989598E+02  0.93251301423E+02  0.90661079826E+02 0.  0.
        -11    1    3    3    0    0 -0.43904192173E+02  0.11274533021E+02  0.10495613657E+02  0.46527960317E+02  0.00000000000E+00 0. -1.
         11    1    3    3    0    0  0.43904192173E+02 -0.11274533021E+02  0.11330375941E+02  0.46723341107E+02  0.00000000000E+00 0.  1.
<mgrwt>
<rscale>  0 0.90661080E+02</rscale>
<asrwt>0</asrwt>
<pdfrwt beam="1">  1        3 0.88520993E-02 0.90661080E+02</pdfrwt>
<pdfrwt beam="2">  1       -3 0.54942547E-02 0.90661080E+02</pdfrwt>
<totfact> 0.35727037E+04</totfact>
</mgrwt>
</event>
<event>
 5    1  0.1242969E+001  0.9014344E+02  0.7546771E-02  0.1302505E+00
          4   -1    0    0  501    0  0.00000000000E+00  0.00000000000E+00  0.98911181347E+01  0.98911181347E+01  0.00000000000E+00 0. -1.
         -4   -1    0    0    0  501 -0.00000000000E+00 -0.00000000000E+00 -0.20538224953E+03  0.20538224953E+03  0.00000000000E+00 0.  1.
         23    2    1    2    0    0  0.00000000000E+00  0.00000000000E+00 -0.19549113140E+03  0.21527336766E+03  0.90143443308E+02 0.  0.
        -13    1    3    3    0    0 -0.15790326465E+02 -0.34735616247E+02 -0.15503868424E+03  0.15966493371E+03  0.00000000000E+00 0.  1.
         13    1    3    3    0    0  0.15790326465E+02  0.34735616247E+02 -0.40452447155E+02  0.55608433954E+02  0.00000000000E+00 0. -1.
<mgrwt>
<rscale>  0 0.90143443E+02</rscale>
<asrwt>0</asrwt>
<pdfrwt beam="1">  1        4 0.15217106E-02 0.90143443E+02</pdfrwt>
<pdfrwt beam="2">  1       -4 0.31597267E-01 0.90143443E+02</pdfrwt>
<totfact> 0.21405822E+04</totfact>
</mgrwt>
</event>
<event>
 5    1  0.1242969E+001  0.8832526E+02  0.7546771E-02  0.1306959E+00
         -2   -1    0    0    0  501 -0.00000000000E+00  0.00000000000E+00  0.21965589723E+02  0.21965589723E+02  0.00000000000E+00 0.  1.
          2   -1    0    0  501    0  0.00000000000E+00 -0.00000000000E+00 -0.88790603631E+02  0.88790603631E+02  0.00000000000E+00 0. -1.
         23    2    1    2    0    0  0.00000000000E+00  0.00000000000E+00 -0.66825013908E+02  0.11075619335E+03  0.88325261859E+02 0.  0.
        -11    1    3    3    0    0  0.27387012502E+02 -0.15449109384E+02 -0.72297640691E+02  0.78839535032E+02  0.00000000000E+00 0. -1.
         11    1    3    3    0    0 -0.27387012502E+02  0.15449109384E+02  0.54726267834E+01  0.31916658322E+02  0.00000000000E+00 0.  1.
<mgrwt>
<rscale>  0 0.88325262E+02</rscale>
<asrwt>0</asrwt>
<pdfrwt beam="2">  1        2 0.13660093E-01 0.88325262E+02</pdfrwt>
<pdfrwt beam="1">  1       -2 0.33793215E-02 0.88325262E+02</pdfrwt>
<totfact> 0.12922556E+05</totfact>
</mgrwt>
</event>
<event>
 5    1  0.1242969E+001  0.9269566E+02  0.7546771E-02  0.1296452E+00
          4   -1    0    0  501    0  0.00000000000E+00  0.00000000000E+00  0.14583626126E+02  0.14583626126E+02  0.00000000000E+00 0. -1.
         -4   -1    0    0    0  501 -0.00000000000E+00 -0.00000000000E+00 -0.14729679882E+03  0.14729679882E+03  0.00000000000E+00 0.  1.
         23    2    1    2    0    0  0.00000000000E+00  0.00000000000E+00 -0.13271317269E+03  0.16188042494E+03  0.92695662109E+02 0.  0.
        -13    1    3    3    0    0 -0.28515852344E+02  0.35144693886E+02 -0.83804342169E+02  0.95244270744E+02  0.00000000000E+00 0.  1.
         13    1    3    3    0    0  0.28515852344E+02 -0.35144693886E+02 -0.48908830524E+02  0.66636154200E+02  0.00000000000E+00 0. -1.
<mgrwt>
<rscale>  0 0.92695662E+02</rscale>
<asrwt>0</asrwt>
<pdfrwt beam="1">  1        4 0.22436348E-02 0.92695662E+02</pdfrwt>
<pdfrwt beam="2">  1       -4 0.22661046E-01 0.92695662E+02</pdfrwt>
<totfact> 0.22084957E+04</totfact>
</mgrwt>
</event>
<event>
 5    1  0.1242969E+001  0.9187259E+02  0.7546771E-02  0.1298379E+00
          1   -1    0    0  501    0  0.00000000000E+00  0.00000000000E+00  0.11985713840E+02  0.11985713840E+02  0.00000000000E+00 0. -1.
         -1   -1    0    0    0  501 -0.00000000000E+00 -0.00000000000E+00 -0.17605488088E+03  0.17605488088E+03  0.00000000000E+00 0.  1.
         23    2    1    2    0    0  0.00000000000E+00  0.00000000000E+00 -0.16406916704E+03  0.18804059472E+03  0.91872594876E+02 0.  0.
        -13    1    3    3    0    0  0.74723626264E+01 -0.28607149439E+02 -0.15399008668E+03  0.15680290813E+03  0.00000000000E+00 0.  1.
         13    1    3    3    0    0 -0.74723626264E+01  0.28607149439E+02 -0.10079080351E+02  0.31237686581E+02  0.00000000000E+00 0. -1.
<mgrwt>
<rscale>  0 0.91872595E+02</rscale>
<asrwt>0</asrwt>
<pdfrwt beam="1">  1        1 0.18439561E-02 0.91872595E+02</pdfrwt>
<pdfrwt beam="2">  1       -1 0.27085364E-01 0.91872595E+02</pdfrwt>
<totfact> 0.70478325E+04</totfact>
</mgrwt>
</event>
<event>
 5    1  0.1242969E+001  0.9491866E+02  0.7546771E-02  0.1291359E+00
         -1   -1    0    0    0  501 -0.00000000000E+00  0.00000000000E+00  0.11716736954E+02  0.11716736954E+02  0.00000000000E+00 0.  1.
          1   -1    0    0  501    0  0.00000000000E+00 -0.00000000000E+00 -0.19223678839E+03  0.19223678839E+03  0.00000000000E+00 0. -1.
         23    2    1    2    0    0  0.00000000000E+00  0.00000000000E+00 -0.18052005143E+03  0.20395352534E+03  0.94918657435E+02 0.  0.
        -11    1    3    3    0    0  0.25168618821E+02 -0.24169245828E+02 -0.15937988051E+03  0.16315501257E+03  0.00000000000E+00 0. -1.
         11    1    3    3    0    0 -0.25168618821E+02  0.24169245828E+02 -0.21140170926E+02  0.40798512767E+02  0.00000000000E+00 0.  1.
<mgrwt>
<rscale>  0 0.94918657E+02</rscale>
<asrwt>0</asrwt>
<pdfrwt beam="2">  1        1 0.29574890E-01 0.94918657E+02</pdfrwt>
<pdfrwt beam="1">  1       -1 0.18025749E-02 0.94918657E+02</pdfrwt>
<totfact> 0.10544606E+05</totfact>
</mgrwt>
</event>
<event>
 5    1  0.1242969E+001  0.9206671E+02  0.7546771E-02  0.1297923E+00
          1   -1    0    0  501    0  0.00000000000E+00  0.00000000000E+00  0.16459211101E+03  0.16459211101E+03  0.00000000000E+00 0. -1.
         -1   -1    0    0    0  501 -0.00000000000E+00 -0.00000000000E+00 -0.12874673011E+02  0.12874673011E+02  0.00000000000E+00 0.  1.
         23    2    1    2    0    0  0.00000000000E+00  0.00000000000E+00  0.15171743800E+03  0.17746678402E+03  0.92066706458E+02 0.  0.
        -13    1    3    3    0    0  0.27833775093E+02 -0.15377608190E+02  0.14001819114E+03  0.14358371677E+03  0.00000000000E+00 0.  1.
         13    1    3    3    0    0 -0.27833775093E+02  0.15377608190E+02  0.11699246854E+02  0.33883067254E+02  0.00000000000E+00 0. -1.
<mgrwt>
<rscale>  0 0.92066706E+02</rscale>
<asrwt>0</asrwt>
<pdfrwt beam="1">  1        1 0.25321862E-01 0.92066706E+02</pdfrwt>
<pdfrwt beam="2">  1       -1 0.19807190E-02 0.92066706E+02</pdfrwt>
<totfact> 0.11113289E+05</totfact>
</mgrwt>
</event>
<event>
 5    1  0.1242969E+001  0.8972819E+02  0.7546771E-02  0.1303511E+00
         -1   -1    0    0    0  501 -0.00000000000E+00  0.00000000000E+00  0.26636780912E+03  0.26636780912E+03  0.00000000000E+00 0.  1.
          1   -1    0    0  501    0  0.00000000000E+00 -0.00000000000E+00 -0.75564201233E+01  0.75564201233E+01  0.00000000000E+00 0. -1.
         23    2    1    2    0    0  0.00000000000E+00  0.00000000000E+00  0.25881138900E+03  0.27392422925E+03  0.89728191179E+02 0.  0.
        -11    1    3    3    0    0  0.40349089335E+02 -0.11126552343E+02  0.17871968116E+03  0.18355536933E+03  0.00000000000E+00 0.  1.
         11    1    3    3    0    0 -0.40349089335E+02  0.11126552343E+02  0.80091707839E+02  0.90368859912E+02  0.00000000000E+00 0. -1.
<mgrwt>
<rscale>  0 0.89728191E+02</rscale>
<asrwt>0</asrwt>
<pdfrwt beam="2">  1        1 0.11625264E-02 0.89728191E+02</pdfrwt>
<pdfrwt beam="1">  1       -1 0.40979656E-01 0.89728191E+02</pdfrwt>
<totfact> 0.66054723E+04</totfact>
</mgrwt>
</event>
<event>
 5    1  0.1242969E+001  0.9092326E+02  0.7546771E-02  0.1300631E+00
          1   -1    0    0  501    0  0.00000000000E+00  0.00000000000E+00  0.17733680521E+03  0.17733680521E+03  0.00000000000E+00 0. -1.
         -1   -1    0    0    0  501 -0.00000000000E+00 -0.00000000000E+00 -0.11654431387E+02  0.11654431387E+02  0.00000000000E+00 0.  1.
         23    2    1    2    0    0  0.00000000000E+00  0.00000000000E+00  0.16568237382E+03  0.18899123659E+03  0.90923256183E+02 0.  0.
        -13    1    3    3    0    0 -0.30006606412E+02 -0.43141035030E+01  0.15326031779E+03  0.15622974406E+03  0.00000000000E+00 0. -1.
         13    1    3    3    0    0  0.30006606412E+02  0.43141035030E+01  0.12422056023E+02  0.32761492537E+02  0.00000000000E+00 0.  1.
<mgrwt>
<rscale>  0 0.90923256E+02</rscale>
<asrwt>0</asrwt>
<pdfrwt beam="1">  1        1 0.27282583E-01 0.90923256E+02</pdfrwt>
<pdfrwt beam="2">  1       -1 0.17929896E-02 0.90923256E+02</pdfrwt>
<totfact> 0.11656557E+05</totfact>
</mgrwt>
</event>
<event>
 5    1  0.1242969E+001  0.9123628E+02  0.7546771E-02  0.1299885E+00
          2   -1    0    0  501    0  0.00000000000E+00  0.00000000000E+00  0.89349629481E+02  0.89349629481E+02  0.00000000000E+00 0.  1.
         -2   -1    0    0    0  501 -0.00000000000E+00 -0.00000000000E+00 -0.23290692766E+02  0.23290692766E+02  0.00000000000E+00 0. -1.
         23    2    1    2    0    0  0.00000000000E+00  0.00000000000E+00  0.66058936716E+02  0.11264032225E+03  0.91236281576E+02 0.  0.
        -13    1    3    3    0    0 -0.23074457309E+02  0.10837519504E+02  0.79734772905E+02  0.83710909799E+02  0.00000000000E+00 0.  1.
         13    1    3    3    0    0  0.23074457309E+02 -0.10837519504E+02 -0.13675836190E+02  0.28929412448E+02  0.00000000000E+00 0. -1.
<mgrwt>
<rscale>  0 0.91236282E+02</rscale>
<asrwt>0</asrwt>
<pdfrwt beam="1">  1        2 0.13746097E-01 0.91236282E+02</pdfrwt>
<pdfrwt beam="2">  1       -2 0.35831836E-02 0.91236282E+02</pdfrwt>
<totfact> 0.11839017E+05</totfact>
</mgrwt>
</event>
<event>
 5    1  0.1242969E+001  0.9583565E+02  0.7546771E-02  0.1289305E+00
          3   -1    0    0  501    0  0.00000000000E+00  0.00000000000E+00  0.12518375448E+03  0.12518375448E+03  0.00000000000E+00 0. -1.
         -3   -1    0    0    0  501 -0.00000000000E+00 -0.00000000000E+00 -0.18341980594E+02  0.18341980594E+02  0.00000000000E+00 0.  1.
         23    2    1    2    0    0  0.00000000000E+00  0.00000000000E+00  0.10684177389E+03  0.14352573508E+03  0.95835650890E+02 0.  0.
        -11    1    3    3    0    0 -0.55620280955E+01  0.36803385781E+02  0.98615700064E+02  0.10540626955E+03  0.00000000000E+00 0. -1.
         11    1    3    3    0    0  0.55620280955E+01 -0.36803385781E+02  0.82260738273E+01  0.38119465528E+02  0.00000000000E+00 0.  1.
<mgrwt>
<rscale>  0 0.95835651E+02</rscale>
<asrwt>0</asrwt>
<pdfrwt beam="1">  1        3 0.19259039E-01 0.95835651E+02</pdfrwt>
<pdfrwt beam="2">  1       -3 0.28218432E-02 0.95835651E+02</pdfrwt>
<totfact> 0.27687025E+04</totfact>
</mgrwt>
</event>
<event>
 5    1  0.1242969E+001  0.9019822E+02  0.7546771E-02  0.1302372E+00
         -1   -1    0    0    0  501 -0.00000000000E+00  0.00000000000E+00  0.27952352993E+02  0.27952352993E+02  0.00000000000E+00 0.  1.
          1   -1    0    0  501    0  0.00000000000E+00 -0.00000000000E+00 -0.72764167064E+02  0.72764167064E+02  0.00000000000E+00 0. -1.
         23    2    1    2    0    0  0.00000000000E+00  0.00000000000E+00 -0.44811814071E+02  0.10071652006E+03  0.90198219117E+02 0.  0.
        -11    1    3    3    0    0  0.28906741868E+02 -0.34443211831E+02 -0.26273181375E+02  0.52078926892E+02  0.00000000000E+00 0. -1.
         11    1    3    3    0    0 -0.28906741868E+02  0.34443211831E+02 -0.18538632696E+02  0.48637593165E+02  0.00000000000E+00 0.  1.
<mgrwt>
<rscale>  0 0.90198219E+02</rscale>
<asrwt>0</asrwt>
<pdfrwt beam="2">  1        1 0.11194487E-01 0.90198219E+02</pdfrwt>
<pdfrwt beam="1">  1       -1 0.43003620E-02 0.90198219E+02</pdfrwt>
<totfact> 0.10225020E+05</totfact>
</mgrwt>
</event>
<event>
 5    1  0.1242969E+001  0.9128241E+02  0.7546771E-02  0.1299776E+00
         -1   -1    0    0    0  501 -0.00000000000E+00  0.00000000000E+00  0.35396774343E+02  0.35396774343E+02  0.00000000000E+00 0.  1.
          1   -1    0    0  501    0  0.00000000000E+00 -0.00000000000E+00 -0.58850548107E+02  0.58850548107E+02  0.00000000000E+00 0. -1.
         23    2    1    2    0    0  0.00000000000E+00  0.00000000000E+00 -0.23453773764E+02  0.94247322451E+02  0.91282409507E+02 0.  0.
        -13    1    3    3    0    0 -0.28599774806E+02 -0.31642081734E+02  0.50473849565E+01  0.42949325377E+02  0.00000000000E+00 0.  1.
         13    1    3    3    0    0  0.28599774806E+02  0.31642081734E+02 -0.28501158720E+02  0.51297997074E+02  0.00000000000E+00 0. -1.
<mgrwt>
<rscale>  0 0.91282410E+02</rscale>
<asrwt>0</asrwt>
<pdfrwt beam="2">  1        1 0.90539304E-02 0.91282410E+02</pdfrwt>
<pdfrwt beam="1">  1       -1 0.54456576E-02 0.91282410E+02</pdfrwt>
<totfact> 0.95781290E+04</totfact>
</mgrwt>
</event>
<event>
 5    1  0.1242969E+001  0.8795145E+02  0.7546771E-02  0.1307890E+00
         -2   -1    0    0    0  501 -0.00000000000E+00  0.00000000000E+00  0.14480249383E+02  0.14480249383E+02  0.00000000000E+00 0.  1.
          2   -1    0    0  501    0  0.00000000000E+00 -0.00000000000E+00 -0.13355186087E+03  0.13355186087E+03  0.00000000000E+00 0. -1.
         23    2    1    2    0    0  0.00000000000E+00  0.00000000000E+00 -0.11907161149E+03  0.14803211025E+03  0.87951446853E+02 0.  0.
        -13    1    3    3    0    0  0.35919877280E+02  0.16927560448E+02 -0.27730589036E+02  0.48433102882E+02  0.00000000000E+00 0.  1.
         13    1    3    3    0    0 -0.35919877280E+02 -0.16927560448E+02 -0.91341022452E+02  0.99599007370E+02  0.00000000000E+00 0. -1.
<mgrwt>
<rscale>  0 0.87951447E+02</rscale>
<asrwt>0</asrwt>
<pdfrwt beam="2">  1        2 0.20546440E-01 0.87951447E+02</pdfrwt>
<pdfrwt beam="1">  1       -2 0.22277307E-02 0.87951447E+02</pdfrwt>
<totfact> 0.14828503E+05</totfact>
</mgrwt>
</event>
<event>
 5    1  0.1242969E+001  0.9083078E+02  0.7546771E-02  0.1300852E+00
          3   -1    0    0  501    0  0.00000000000E+00  0.00000000000E+00  0.30733190337E+02  0.30733190337E+02  0.00000000000E+00 0. -1.
         -3   -1    0    0    0  501 -0.00000000000E+00 -0.00000000000E+00 -0.67111728731E+02  0.67111728731E+02  0.00000000000E+00 0.  1.
         23    2    1    2    0    0  0.00000000000E+00  0.00000000000E+00 -0.36378538394E+02  0.97844919067E+02  0.90830777447E+02 0.  0.
        -13    1    3    3    0    0  0.17682753268E+02 -0.41768810042E+02 -0.15722388897E+02  0.48005278544E+02  0.00000000000E+00 0.  1.
         13    1    3    3    0    0 -0.17682753268E+02  0.41768810042E+02 -0.20656149497E+02  0.49839640524E+02  0.00000000000E+00 0. -1.
<mgrwt>
<rscale>  0 0.90830777E+02</rscale>
<asrwt>0</asrwt>
<pdfrwt beam="1">  1        3 0.47281832E-02 0.90830777E+02</pdfrwt>
<pdfrwt beam="2">  1       -3 0.10324881E-01 0.90830777E+02</pdfrwt>
<totfact> 0.35195094E+04</totfact>
</mgrwt>
</event>
<event>
 5    1  0.1242969E+001  0.9017655E+02  0.7546771E-02  0.1302425E+00
         -2   -1    0    0    0  501 -0.00000000000E+00  0.00000000000E+00  0.11658155596E+02  0.11658155596E+02  0.00000000000E+00 0.  1.
          2   -1    0    0  501    0  0.00000000000E+00 -0.00000000000E+00 -0.17438028993E+03  0.17438028993E+03  0.00000000000E+00 0. -1.
         23    2    1    2    0    0  0.00000000000E+00  0.00000000000E+00 -0.16272213434E+03  0.18603844553E+03  0.90176550233E+02 0.  0.
        -13    1    3    3    0    0  0.13419570732E+02  0.26152941446E+02 -0.10827450484E+02  0.31325627032E+02  0.00000000000E+00 0.  1.
         13    1    3    3    0    0 -0.13419570732E+02 -0.26152941446E+02 -0.15189468385E+03  0.15471281850E+03  0.00000000000E+00 0. -1.
<mgrwt>
<rscale>  0 0.90176550E+02</rscale>
<asrwt>0</asrwt>
<pdfrwt beam="2">  1        2 0.26827735E-01 0.90176550E+02</pdfrwt>
<pdfrwt beam="1">  1       -2 0.17935625E-02 0.90176550E+02</pdfrwt>
<totfact> 0.15173680E+05</totfact>
</mgrwt>
</event>
<event>
 5    1  0.1242969E+001  0.9015403E+02  0.7546771E-02  0.1302479E+00
          2   -1    0    0  501    0  0.00000000000E+00  0.00000000000E+00  0.23322198136E+02  0.23322198136E+02  0.00000000000E+00 0. -1.
         -2   -1    0    0    0  501 -0.00000000000E+00 -0.00000000000E+00 -0.87124609882E+02  0.87124609882E+02  0.00000000000E+00 0.  1.
         23    2    1    2    0    0  0.00000000000E+00  0.00000000000E+00 -0.63802411745E+02  0.11044680802E+03  0.90154032948E+02 0.  0.
        -13    1    3    3    0    0  0.19896935160E+02 -0.38979580832E+02 -0.45132272683E+02  0.62866666749E+02  0.00000000000E+00 0.  1.
         13    1    3    3    0    0 -0.19896935160E+02  0.38979580832E+02 -0.18670139062E+02  0.47580141269E+02  0.00000000000E+00 0. -1.
<mgrwt>
<rscale>  0 0.90154033E+02</rscale>
<asrwt>0</asrwt>
<pdfrwt beam="1">  1        2 0.35880305E-02 0.90154033E+02</pdfrwt>
<pdfrwt beam="2">  1       -2 0.13403786E-01 0.90154033E+02</pdfrwt>
<totfact> 0.85416397E+04</totfact>
</mgrwt>
</event>
<event>
 5    1  0.1242969E+001  0.9046257E+02  0.7546771E-02  0.1301735E+00
         -4   -1    0    0    0  501 -0.00000000000E+00  0.00000000000E+00  0.76328302797E+01  0.76328302797E+01  0.00000000000E+00 0.  1.
          4   -1    0    0  501    0  0.00000000000E+00 -0.00000000000E+00 -0.26803543616E+03  0.26803543616E+03  0.00000000000E+00 0. -1.
         23    2    1    2    0    0  0.00000000000E+00  0.00000000000E+00 -0.26040260588E+03  0.27566826644E+03  0.90462566693E+02 0.  0.
        -11    1    3    3    0    0  0.20970948076E+02  0.29648769989E+02 -0.21236815600E+03  0.21545083873E+03  0.00000000000E+00 0. -1.
         11    1    3    3    0    0 -0.20970948076E+02 -0.29648769989E+02 -0.48034449879E+02  0.60217427712E+02  0.00000000000E+00 0.  1.
<mgrwt>
<rscale>  0 0.90462567E+02</rscale>
<asrwt>0</asrwt>
<pdfrwt beam="2">  1        4 0.41236227E-01 0.90462567E+02</pdfrwt>
<pdfrwt beam="1">  1       -4 0.11742814E-02 0.90462567E+02</pdfrwt>
<totfact> 0.18981912E+04</totfact>
</mgrwt>
</event>
<event>
 5    1  0.1242969E+001  0.9009307E+02  0.7546771E-02  0.1302626E+00
         -2   -1    0    0    0  501 -0.00000000000E+00  0.00000000000E+00  0.32676777105E+02  0.32676777105E+02  0.00000000000E+00 0.  1.
          2   -1    0    0  501    0  0.00000000000E+00 -0.00000000000E+00 -0.62098850622E+02  0.62098850622E+02  0.00000000000E+00 0. -1.
         23    2    1    2    0    0  0.00000000000E+00  0.00000000000E+00 -0.29422073517E+02  0.94775627727E+02  0.90093069662E+02 0.  0.
        -13    1    3    3    0    0  0.15356245544E+01 -0.44730876541E+02 -0.20073099492E+02  0.49052408525E+02  0.00000000000E+00 0. -1.
         13    1    3    3    0    0 -0.15356245544E+01  0.44730876541E+02 -0.93489740257E+01  0.45723219202E+02  0.00000000000E+00 0.  1.
<mgrwt>
<rscale>  0 0.90093070E+02</rscale>
<asrwt>0</asrwt>
<pdfrwt beam="2">  1        2 0.95536692E-02 0.90093070E+02</pdfrwt>
<pdfrwt beam="1">  1       -2 0.50271966E-02 0.90093070E+02</pdfrwt>
<totfact> 0.11071422E+05</totfact>
</mgrwt>
</event>
<event>
 5    1  0.1242969E+001  0.8689956E+02  0.7546771E-02  0.1310538E+00
         -1   -1    0    0    0  501 -0.00000000000E+00  0.00000000000E+00  0.15374351116E+02  0.15374351116E+02  0.00000000000E+00 0.  1.
          1   -1    0    0  501    0  0.00000000000E+00 -0.00000000000E+00 -0.12279433544E+03  0.12279433544E+03  0.00000000000E+00 0. -1.
         23    2    1    2    0    0  0.00000000000E+00  0.00000000000E+00 -0.10741998432E+03  0.13816868655E+03  0.86899556455E+02 0.  0.
        -11    1    3    3    0    0  0.17215351220E+02  0.39855849360E+02 -0.50944072203E+02  0.66933964012E+02  0.00000000000E+00 0.  1.
         11    1    3    3    0    0 -0.17215351220E+02 -0.39855849360E+02 -0.56475912119E+02  0.71234722541E+02  0.00000000000E+00 0. -1.
<mgrwt>
<rscale>  0 0.86899556E+02</rscale>
<asrwt>0</asrwt>
<pdfrwt beam="2">  1        1 0.18891435E-01 0.86899556E+02</pdfrwt>
<pdfrwt beam="1">  1       -1 0.23652849E-02 0.86899556E+02</pdfrwt>
<totfact> 0.12315973E+05</totfact>
</mgrwt>
</event>
<event>
 5    1  0.1242969E+001  0.9095969E+02  0.7546771E-02  0.1300544E+00
          2   -1    0    0  501    0  0.00000000000E+00  0.00000000000E+00  0.15512954107E+03  0.15512954107E+03  0.00000000000E+00 0. -1.
         -2   -1    0    0    0  501 -0.00000000000E+00 -0.00000000000E+00 -0.13333477206E+02  0.13333477206E+02  0.00000000000E+00 0.  1.
         23    2    1    2    0    0  0.00000000000E+00  0.00000000000E+00  0.14179606387E+03  0.16846301828E+03  0.90959687770E+02 0.  0.
        -13    1    3    3    0    0  0.23479229966E+02 -0.23968855433E+02  0.14035314415E+02  0.36369909559E+02  0.00000000000E+00 0.  1.
         13    1    3    3    0    0 -0.23479229966E+02  0.23968855433E+02  0.12776074945E+03  0.13209310872E+03  0.00000000000E+00 0. -1.
<mgrwt>
<rscale>  0 0.90959688E+02</rscale>
<asrwt>0</asrwt>
<pdfrwt beam="1">  1        2 0.23866082E-01 0.90959688E+02</pdfrwt>
<pdfrwt beam="2">  1       -2 0.20513043E-02 0.90959688E+02</pdfrwt>
<totfact> 0.14234182E+05</totfact>
</mgrwt>
</event>
<event>
 5    1  0.1242969E+001  0.9097998E+02  0.7546771E-02  0.1300496E+00
          1   -1    0    0  501    0  0.00000000000E+00  0.00000000000E+00  0.55021815613E+02  0.55021815613E+02  0.00000000000E+00 0. -1.
         -1   -1    0    0    0  501 -0.00000000000E+00 -0.00000000000E+00 -0.37609428239E+02  0.37609428239E+02  0.00000000000E+00 0.  1.
         23    2    1    2    0    0  0.00000000000E+00  0.00000000000E+00  0.17412387374E+02  0.92631243852E+02  0.90979976388E+02 0.  0.
        -13    1    3    3    0    0 -0.22336634363E+02  0.39567933424E+02  0.64772975677E+01  0.45896644473E+02  0.00000000000E+00 0.  1.
         13    1    3    3    0    0  0.22336634363E+02 -0.39567933424E+02  0.10935089807E+02  0.46734599379E+02  0.00000000000E+00 0. -1.
<mgrwt>
<rscale>  0 0.90979976E+02</rscale>
<asrwt>0</asrwt>
<pdfrwt beam="1">  1        1 0.84648947E-02 0.90979976E+02</pdfrwt>
<pdfrwt beam="2">  1       -1 0.57860659E-02 0.90979976E+02</pdfrwt>
<totfact> 0.95695042E+04</totfact>
</mgrwt>
</event>
<event>
 5    1  0.1242969E+001  0.1015074E+03  0.7546771E-02  0.1277158E+00
          1   -1    0    0  501    0  0.00000000000E+00  0.00000000000E+00  0.80279280191E+02  0.80279280191E+02  0.00000000000E+00 0. -1.
         -1   -1    0    0    0  501 -0.00000000000E+00 -0.00000000000E+00 -0.32087180683E+02  0.32087180683E+02  0.00000000000E+00 0.  1.
         23    2    1    2    0    0  0.00000000000E+00  0.00000000000E+00  0.48192099509E+02  0.11236646087E+03  0.10150735478E+03 0.  0.
        -11    1    3    3    0    0 -0.20597274157E+02 -0.40167875687E+02  0.49777708644E+02  0.67197665270E+02  0.00000000000E+00 0.  1.
         11    1    3    3    0    0  0.20597274157E+02  0.40167875687E+02 -0.15856091355E+01  0.45168795603E+02  0.00000000000E+00 0. -1.
<mgrwt>
<rscale>  0 0.10150735E+03</rscale>
<asrwt>0</asrwt>
<pdfrwt beam="1">  1        1 0.12350658E-01 0.10150735E+03</pdfrwt>
<pdfrwt beam="2">  1       -1 0.49364894E-02 0.10150735E+03</pdfrwt>
<totfact> 0.74898227E+04</totfact>
</mgrwt>
</event>
<event>
 5    1  0.1242969E+001  0.8934857E+02  0.7546771E-02  0.1304437E+00
         -4   -1    0    0    0  501 -0.00000000000E+00  0.00000000000E+00  0.15177116109E+03  0.15177116109E+03  0.00000000000E+00 0.  1.
          4   -1    0    0  501    0  0.00000000000E+00 -0.00000000000E+00 -0.13150005284E+02  0.13150005284E+02  0.00000000000E+00 0. -1.
         23    2    1    2    0    0  0.00000000000E+00  0.00000000000E+00  0.13862115581E+03  0.16492116638E+03  0.89348566197E+02 0.  0.
        -13    1    3    3    0    0 -0.87220283657E+00 -0.42579277621E+02  0.94214479528E+02  0.10339305476E+03  0.00000000000E+00 0.  1.
         13    1    3    3    0    0  0.87220283657E+00  0.42579277621E+02  0.44406676279E+02  0.61528111613E+02  0.00000000000E+00 0. -1.
<mgrwt>
<rscale>  0 0.89348566E+02</rscale>
<asrwt>0</asrwt>
<pdfrwt beam="2">  1        4 0.20230778E-02 0.89348566E+02</pdfrwt>
<pdfrwt beam="1">  1       -4 0.23349408E-01 0.89348566E+02</pdfrwt>
<totfact> 0.24224959E+04</totfact>
</mgrwt>
</event>
<event>
 5    1  0.1242969E+001  0.8612748E+02  0.7546771E-02  0.1312510E+00
         -1   -1    0    0    0  501 -0.00000000000E+00  0.00000000000E+00  0.61609059488E+02  0.61609059488E+02  0.00000000000E+00 0.  1.
          1   -1    0    0  501    0  0.00000000000E+00 -0.00000000000E+00 -0.30100858836E+02  0.30100858836E+02  0.00000000000E+00 0. -1.
         23    2    1    2    0    0  0.00000000000E+00  0.00000000000E+00  0.31508200653E+02  0.91709918324E+02  0.86127477675E+02 0.  0.
        -11    1    3    3    0    0  0.19295853545E+02 -0.25685079674E+00 -0.25239099314E+02  0.31771183021E+02  0.00000000000E+00 0. -1.
         11    1    3    3    0    0 -0.19295853545E+02  0.25685079674E+00  0.56747299966E+02  0.59938735304E+02  0.00000000000E+00 0.  1.
<mgrwt>
<rscale>  0 0.86127478E+02</rscale>
<asrwt>0</asrwt>
<pdfrwt beam="2">  1        1 0.46309014E-02 0.86127478E+02</pdfrwt>
<pdfrwt beam="1">  1       -1 0.94783168E-02 0.86127478E+02</pdfrwt>
<totfact> 0.10203691E+05</totfact>
</mgrwt>
</event>
<event>
 5    1  0.1242969E+001  0.8904419E+02  0.7546771E-02  0.1305183E+00
         -1   -1    0    0    0  501 -0.00000000000E+00  0.00000000000E+00  0.19645655538E+03  0.19645655538E+03  0.00000000000E+00 0.  1.
          1   -1    0    0  501    0  0.00000000000E+00 -0.00000000000E+00 -0.10089847905E+02  0.10089847905E+02  0.00000000000E+00 0. -1.
         23    2    1    2    0    0  0.00000000000E+00  0.00000000000E+00  0.18636670747E+03  0.20654640328E+03  0.89044185969E+02 0.  0.
        -13    1    3    3    0    0 -0.41820114722E+02 -0.91813920904E+00  0.57817958588E+02  0.71363024812E+02  0.00000000000E+00 0.  1.
         13    1    3    3    0    0  0.41820114722E+02  0.91813920904E+00  0.12854874889E+03  0.13518337847E+03  0.00000000000E+00 0. -1.
<mgrwt>
<rscale>  0 0.89044186E+02</rscale>
<asrwt>0</asrwt>
<pdfrwt beam="2">  1        1 0.15522844E-02 0.89044186E+02</pdfrwt>
<pdfrwt beam="1">  1       -1 0.30224083E-01 0.89044186E+02</pdfrwt>
<totfact> 0.74209235E+04</totfact>
</mgrwt>
</event>
<event>
 5    1  0.1242969E+001  0.9011992E+02  0.7546771E-02  0.1302562E+00
         -4   -1    0    0    0  501 -0.00000000000E+00  0.00000000000E+00  0.15670958641E+03  0.15670958641E+03  0.00000000000E+00 0.  1.
          4   -1    0    0  501    0  0.00000000000E+00 -0.00000000000E+00 -0.12956451010E+02  0.12956451010E+02  0.00000000000E+00 0. -1.
         23    2    1    2    0    0  0.00000000000E+00  0.00000000000E+00  0.14375313540E+03  0.16966603742E+03  0.90119921864E+02 0.  0.
        -11    1    3    3    0    0  0.30625832630E+02  0.32674822228E+02  0.62498218194E+02  0.76887013918E+02  0.00000000000E+00 0. -1.
         11    1    3    3    0    0 -0.30625832630E+02 -0.32674822228E+02  0.81254917210E+02  0.92779023506E+02  0.00000000000E+00 0.  1.
<mgrwt>
<rscale>  0 0.90119922E+02</rscale>
<asrwt>0</asrwt>
<pdfrwt beam="2">  1        4 0.19933003E-02 0.90119922E+02</pdfrwt>
<pdfrwt beam="1">  1       -4 0.24109166E-01 0.90119922E+02</pdfrwt>
<totfact> 0.23444042E+04</totfact>
</mgrwt>
</event>
<event>
 5    1  0.1242969E+001  0.8976135E+02  0.7546771E-02  0.1303431E+00
          1   -1    0    0  501    0  0.00000000000E+00  0.00000000000E+00  0.28134761611E+02  0.28134761611E+02  0.00000000000E+00 0. -1.
         -1   -1    0    0    0  501 -0.00000000000E+00 -0.00000000000E+00 -0.71593813900E+02  0.71593813900E+02  0.00000000000E+00 0.  1.
         23    2    1    2    0    0  0.00000000000E+00  0.00000000000E+00 -0.43459052288E+02  0.99728575511E+02  0.89761347738E+02 0.  0.
        -13    1    3    3    0    0  0.41229060927E+02  0.17370861497E+02 -0.25687796246E+02  0.51589196253E+02  0.00000000000E+00 0.  1.
         13    1    3    3    0    0 -0.41229060927E+02 -0.17370861497E+02 -0.17771256042E+02  0.48139379258E+02  0.00000000000E+00 0. -1.
<mgrwt>
<rscale>  0 0.89761348E+02</rscale>
<asrwt>0</asrwt>
<pdfrwt beam="1">  1        1 0.43284249E-02 0.89761348E+02</pdfrwt>
<pdfrwt beam="2">  1       -1 0.11014433E-01 0.89761348E+02</pdfrwt>
<totfact> 0.89731612E+04</totfact>
</mgrwt>
</event>
<event>
 5    1  0.1242969E+001  0.9170534E+02  0.7546771E-02  0.1298774E+00
         -3   -1    0    0    0  501 -0.00000000000E+00  0.00000000000E+00  0.21237391092E+03  0.21237391092E+03  0.00000000000E+00 0.  1.
          3   -1    0    0  501    0  0.00000000000E+00 -0.00000000000E+00 -0.98998385930E+01  0.98998385930E+01  0.00000000000E+00 0. -1.
         23    2    1    2    0    0  0.00000000000E+00  0.00000000000E+00  0.20247407232E+03  0.22227374951E+03  0.91705342035E+02 0.  0.
        -13    1    3    3    0    0  0.40415422400E+02  0.17793711458E+02  0.71310944862E+02  0.83876536602E+02  0.00000000000E+00 0. -1.
         13    1    3    3    0    0 -0.40415422400E+02 -0.17793711458E+02  0.13116312746E+03  0.13839721291E+03  0.00000000000E+00 0.  1.
<mgrwt>
<rscale>  0 0.91705342E+02</rscale>
<asrwt>0</asrwt>
<pdfrwt beam="2">  1        3 0.15230523E-02 0.91705342E+02</pdfrwt>
<pdfrwt beam="1">  1       -3 0.32672906E-01 0.91705342E+02</pdfrwt>
<totfact> 0.26960131E+04</totfact>
</mgrwt>
</event>
<event>
 5    1  0.1242969E+001  0.9059002E+02  0.7546771E-02  0.1301429E+00
         -1   -1    0    0    0  501 -0.00000000000E+00  0.00000000000E+00  0.38406486227E+02  0.38406486227E+02  0.00000000000E+00 0.  1.
          1   -1    0    0  501    0  0.00000000000E+00 -0.00000000000E+00 -0.53419044974E+02  0.53419044974E+02  0.00000000000E+00 0. -1.
         23    2    1    2    0    0  0.00000000000E+00  0.00000000000E+00 -0.15012558746E+02  0.91825531201E+02  0.90590017443E+02 0.  0.
        -13    1    3    3    0    0 -0.16880070164E+02 -0.36135037430E+02 -0.29269079894E+02  0.49470766486E+02  0.00000000000E+00 0. -1.
         13    1    3    3    0    0  0.16880070164E+02  0.36135037430E+02  0.14256521148E+02  0.42354764715E+02  0.00000000000E+00 0.  1.
<mgrwt>
<rscale>  0 0.90590017E+02</rscale>
<asrwt>0</asrwt>
<pdfrwt beam="2">  1        1 0.82183146E-02 0.90590017E+02</pdfrwt>
<pdfrwt beam="1">  1       -1 0.59086902E-02 0.90590017E+02</pdfrwt>
<totfact> 0.96417123E+04</totfact>
</mgrwt>
</event>
<event>
 5    1  0.1242969E+001  0.9139720E+02  0.7546771E-02  0.1299503E+00
          1   -1    0    0  501    0  0.00000000000E+00  0.00000000000E+00  0.21620143341E+02  0.21620143341E+02  0.00000000000E+00 0. -1.
         -1   -1    0    0    0  501 -0.00000000000E+00 -0.00000000000E+00 -0.96593343816E+02  0.96593343816E+02  0.00000000000E+00 0.  1.
         23    2    1    2    0    0  0.00000000000E+00  0.00000000000E+00 -0.74973200475E+02  0.11821348716E+03  0.91397197749E+02 0.  0.
        -11    1    3    3    0    0  0.18383561196E+02  0.21998137674E+02  0.85427435184E+01  0.29914074450E+02  0.00000000000E+00 0. -1.
         11    1    3    3    0    0 -0.18383561196E+02 -0.21998137674E+02 -0.83515943993E+02  0.88299412708E+02  0.00000000000E+00 0.  1.
<mgrwt>
<rscale>  0 0.91397198E+02</rscale>
<asrwt>0</asrwt>
<pdfrwt beam="1">  1        1 0.33261760E-02 0.91397198E+02</pdfrwt>
<pdfrwt beam="2">  1       -1 0.14860514E-01 0.91397198E+02</pdfrwt>
<totfact> 0.81384907E+04</totfact>
</mgrwt>
</event>
<event>
 5    1  0.1242969E+001  0.8099716E+02  0.7546771E-02  0.1326245E+00
         -1   -1    0    0    0  501 -0.00000000000E+00  0.00000000000E+00  0.68284827507E+01  0.68284827507E+01  0.00000000000E+00 0.  1.
          1   -1    0    0  501    0  0.00000000000E+00 -0.00000000000E+00 -0.24019026196E+03  0.24019026196E+03  0.00000000000E+00 0. -1.
         23    2    1    2    0    0  0.00000000000E+00  0.00000000000E+00 -0.23336177920E+03  0.24701874471E+03  0.80997161942E+02 0.  0.
        -13    1    3    3    0    0 -0.36266800134E+01 -0.32931627915E+02 -0.45648564400E+02  0.56404222863E+02  0.00000000000E+00 0.  1.
         13    1    3    3    0    0  0.36266800134E+01  0.32931627915E+02 -0.18771321480E+03  0.19061452184E+03  0.00000000000E+00 0. -1.
<mgrwt>
<rscale>  0 0.80997162E+02</rscale>
<asrwt>0</asrwt>
<pdfrwt beam="2">  1        1 0.36952347E-01 0.80997162E+02</pdfrwt>
<pdfrwt beam="1">  1       -1 0.10505358E-02 0.80997162E+02</pdfrwt>
<totfact> 0.16803382E+05</totfact>
</mgrwt>
</event>
<event>
 5    1  0.1242969E+001  0.9127595E+02  0.7546771E-02  0.1299791E+00
          1   -1    0    0  501    0  0.00000000000E+00  0.00000000000E+00  0.30377571640E+02  0.30377571640E+02  0.00000000000E+00 0. -1.
         -1   -1    0    0    0  501 -0.00000000000E+00 -0.00000000000E+00 -0.68564555290E+02  0.68564555290E+02  0.00000000000E+00 0.  1.
         23    2    1    2    0    0  0.00000000000E+00  0.00000000000E+00 -0.38186983650E+02  0.98942126930E+02  0.91275948426E+02 0.  0.
        -11    1    3    3    0    0 -0.30546178854E+02 -0.25945652355E+02 -0.42757714021E+02  0.58604334541E+02  0.00000000000E+00 0. -1.
         11    1    3    3    0    0  0.30546178854E+02  0.25945652355E+02  0.45707303709E+01  0.40337792389E+02  0.00000000000E+00 0.  1.
<mgrwt>
<rscale>  0 0.91275948E+02</rscale>
<asrwt>0</asrwt>
<pdfrwt beam="1">  1        1 0.46734726E-02 0.91275948E+02</pdfrwt>
<pdfrwt beam="2">  1       -1 0.10548393E-01 0.91275948E+02</pdfrwt>
<totfact> 0.86588708E+04</totfact>
</mgrwt>
</event>
<event>
 5    1  0.1242969E+001  0.9651826E+02  0.7546771E-02  0.1287793E+00
         -2   -1    0    0    0  501 -0.00000000000E+00  0.00000000000E+00  0.52373126433E+02  0.52373126433E+02  0.00000000000E+00 0. -1.
          2   -1    0    0  501    0  0.00000000000E+00 -0.00000000000E+00 -0.44468294322E+02  0.44468294322E+02  0.00000000000E+00 0.  1.
         23    2    1    2    0    0  0.00000000000E+00  0.00000000000E+00  0.79048321117E+01  0.96841420755E+02  0.96518259429E+02 0.  0.
        -11    1    3    3    0    0 -0.33776076898E+01 -0.46253880098E+02  0.17343034332E+02  0.49513740493E+02  0.00000000000E+00 0. -1.
         11    1    3    3    0    0  0.33776076898E+01  0.46253880098E+02 -0.94382022204E+01  0.47327680262E+02  0.00000000000E+00 0.  1.
<mgrwt>
<rscale>  0 0.96518259E+02</rscale>
<asrwt>0</asrwt>
<pdfrwt beam="2">  1        2 0.68412760E-02 0.96518259E+02</pdfrwt>
<pdfrwt beam="1">  1       -2 0.80574041E-02 0.96518259E+02</pdfrwt>
<totfact> 0.83146618E+04</totfact>
</mgrwt>
</event>
<event>
 5    1  0.1242969E+001  0.9310892E+02  0.7546771E-02  0.1295493E+00
         -1   -1    0    0    0  501 -0.00000000000E+00  0.00000000000E+00  0.19649767789E+03  0.19649767789E+03  0.00000000000E+00 0.  1.
          1   -1    0    0  501    0  0.00000000000E+00 -0.00000000000E+00 -0.11029736721E+02  0.11029736721E+02  0.00000000000E+00 0. -1.
         23    2    1    2    0    0  0.00000000000E+00  0.00000000000E+00  0.18546794116E+03  0.20752741461E+03  0.93108918014E+02 0.  0.
        -11    1    3    3    0    0  0.46199955835E+02 -0.20926837663E+01  0.10463336826E+03  0.11439823861E+03  0.00000000000E+00 0.  1.
         11    1    3    3    0    0 -0.46199955835E+02  0.20926837663E+01  0.80834572908E+02  0.93129175996E+02  0.00000000000E+00 0. -1.
<mgrwt>
<rscale>  0 0.93108918E+02</rscale>
<asrwt>0</asrwt>
<pdfrwt beam="2">  1        1 0.16968827E-02 0.93108918E+02</pdfrwt>
<pdfrwt beam="1">  1       -1 0.30230409E-01 0.93108918E+02</pdfrwt>
<totfact> 0.66060006E+04</totfact>
</mgrwt>
</event>
<event>
 5    1  0.1242969E+001  0.9058851E+02  0.7546771E-02  0.1301433E+00
          1   -1    0    0  501    0  0.00000000000E+00  0.00000000000E+00  0.13823119672E+02  0.13823119672E+02  0.00000000000E+00 0. -1.
         -1   -1    0    0    0  501 -0.00000000000E+00 -0.00000000000E+00 -0.14841582201E+03  0.14841582201E+03  0.00000000000E+00 0.  1.
         23    2    1    2    0    0  0.00000000000E+00  0.00000000000E+00 -0.13459270234E+03  0.16223894169E+03  0.90588512934E+02 0.  0.
        -11    1    3    3    0    0  0.18108737667E+02 -0.31780136435E+02 -0.11514057833E+03  0.12081082828E+03  0.00000000000E+00 0.  1.
         11    1    3    3    0    0 -0.18108737667E+02  0.31780136435E+02 -0.19452124011E+02  0.41428113404E+02  0.00000000000E+00 0. -1.
<mgrwt>
<rscale>  0 0.90588513E+02</rscale>
<asrwt>0</asrwt>
<pdfrwt beam="1">  1        1 0.21266339E-02 0.90588513E+02</pdfrwt>
<pdfrwt beam="2">  1       -1 0.22833202E-01 0.90588513E+02</pdfrwt>
<totfact> 0.76243335E+04</totfact>
</mgrwt>
</event>
<event>
 5    1  0.1242969E+001  0.9536338E+02  0.7546771E-02  0.1290360E+00
          1   -1    0    0  501    0  0.00000000000E+00  0.00000000000E+00  0.23463840372E+03  0.23463840372E+03  0.00000000000E+00 0. -1.
         -1   -1    0    0    0  501 -0.00000000000E+00 -0.00000000000E+00 -0.96895626999E+01  0.96895626999E+01  0.00000000000E+00 0.  1.
         23    2    1    2    0    0  0.00000000000E+00  0.00000000000E+00  0.22494884102E+03  0.24432796642E+03  0.95363379231E+02 0.  0.
        -13    1    3    3    0    0 -0.34877663942E+02 -0.14044421486E+02  0.37346396973E+02  0.52994816575E+02  0.00000000000E+00 0.  1.
         13    1    3    3    0    0  0.34877663942E+02  0.14044421486E+02  0.18760244404E+03  0.19133314984E+03  0.00000000000E+00 0. -1.
<mgrwt>
<rscale>  0 0.95363379E+02</rscale>
<asrwt>0</asrwt>
<pdfrwt beam="1">  1        1 0.36098212E-01 0.95363379E+02</pdfrwt>
<pdfrwt beam="2">  1       -1 0.14907021E-02 0.95363379E+02</pdfrwt>
<totfact> 0.10829077E+05</totfact>
</mgrwt>
</event>
<event>
 5    1  0.1242969E+001  0.9025701E+02  0.7546771E-02  0.1302230E+00
         -1   -1    0    0    0  501 -0.00000000000E+00  0.00000000000E+00  0.17309558213E+02  0.17309558213E+02  0.00000000000E+00 0.  1.
          1   -1    0    0  501    0  0.00000000000E+00 -0.00000000000E+00 -0.11765650191E+03  0.11765650191E+03  0.00000000000E+00 0. -1.
         23    2    1    2    0    0  0.00000000000E+00  0.00000000000E+00 -0.10034694370E+03  0.13496606012E+03  0.90257012334E+02 0.  0.
        -13    1    3    3    0    0 -0.88193963710E+01  0.40150520040E+02 -0.78018208829E+02  0.88185525573E+02  0.00000000000E+00 0.  1.
         13    1    3    3    0    0  0.88193963710E+01 -0.40150520040E+02 -0.22328734868E+02  0.46780534548E+02  0.00000000000E+00 0. -1.
<mgrwt>
<rscale>  0 0.90257012E+02</rscale>
<asrwt>0</asrwt>
<pdfrwt beam="2">  1        1 0.18101000E-01 0.90257012E+02</pdfrwt>
<pdfrwt beam="1">  1       -1 0.26630090E-02 0.90257012E+02</pdfrwt>
<totfact> 0.11036248E+05</totfact>
</mgrwt>
</event>
<event>
 5    1  0.1242969E+001  0.9120010E+02  0.7546771E-02  0.1299971E+00
         -2   -1    0    0    0  501 -0.00000000000E+00  0.00000000000E+00  0.16908139095E+02  0.16908139095E+02  0.00000000000E+00 0.  1.
          2   -1    0    0  501    0  0.00000000000E+00 -0.00000000000E+00 -0.12298008736E+03  0.12298008736E+03  0.00000000000E+00 0. -1.
         23    2    1    2    0    0  0.00000000000E+00  0.00000000000E+00 -0.10607194826E+03  0.13988822645E+03  0.91200096993E+02 0.  0.
        -11    1    3    3    0    0  0.39214922762E+02  0.59556326380E+01 -0.18529747853E+02  0.43779347675E+02  0.00000000000E+00 0.  1.
         11    1    3    3    0    0 -0.39214922762E+02 -0.59556326380E+01 -0.87542200407E+02  0.96108878775E+02  0.00000000000E+00 0. -1.
<mgrwt>
<rscale>  0 0.91200097E+02</rscale>
<asrwt>0</asrwt>
<pdfrwt beam="2">  1        2 0.18920014E-01 0.91200097E+02</pdfrwt>
<pdfrwt beam="1">  1       -2 0.26012521E-02 0.91200097E+02</pdfrwt>
<totfact> 0.13080154E+05</totfact>
</mgrwt>
</event>
<event>
 5    1  0.1242969E+001  0.9167068E+02  0.7546771E-02  0.1298856E+00
          1   -1    0    0  501    0  0.00000000000E+00  0.00000000000E+00  0.26625605399E+02  0.26625605399E+02  0.00000000000E+00 0. -1.
         -1   -1    0    0    0  501 -0.00000000000E+00 -0.00000000000E+00 -0.78904435532E+02  0.78904435532E+02  0.00000000000E+00 0.  1.
         23    2    1    2    0    0  0.00000000000E+00  0.00000000000E+00 -0.52278830133E+02  0.10553004093E+03  0.91670679385E+02 0.  0.
        -13    1    3    3    0    0  0.39188736867E+02 -0.21036929669E+02 -0.38884294332E+02  0.59078742817E+02  0.00000000000E+00 0.  1.
         13    1    3    3    0    0 -0.39188736867E+02  0.21036929669E+02 -0.13394535801E+02  0.46451298114E+02  0.00000000000E+00 0. -1.
<mgrwt>
<rscale>  0 0.91670679E+02</rscale>
<asrwt>0</asrwt>
<pdfrwt beam="1">  1        1 0.40962470E-02 0.91670679E+02</pdfrwt>
<pdfrwt beam="2">  1       -1 0.12139144E-01 0.91670679E+02</pdfrwt>
<totfact> 0.83681759E+04</totfact>
</mgrwt>
</event>
<event>
 5    1  0.1242969E+001  0.8891175E+02  0.7546771E-02  0.1305509E+00
         -1   -1    0    0    0  501 -0.00000000000E+00  0.00000000000E+00  0.17727981556E+03  0.17727981556E+03  0.00000000000E+00 0.  1.
          1   -1    0    0  501    0  0.00000000000E+00 -0.00000000000E+00 -0.11148054140E+02  0.11148054140E+02  0.00000000000E+00 0. -1.
         23    2    1    2    0    0  0.00000000000E+00  0.00000000000E+00  0.16613176142E+03  0.18842786970E+03  0.88911753596E+02 0.  0.
        -11    1    3    3    0    0 -0.13644311643E+02 -0.27236054323E+02  0.15168421410E+03  0.15471286534E+03  0.00000000000E+00 0.  1.
         11    1    3    3    0    0  0.13644311643E+02  0.27236054323E+02  0.14447547320E+02  0.33715004358E+02  0.00000000000E+00 0. -1.
<mgrwt>
<rscale>  0 0.88911754E+02</rscale>
<asrwt>0</asrwt>
<pdfrwt beam="2">  1        1 0.17150854E-02 0.88911754E+02</pdfrwt>
<pdfrwt beam="1">  1       -1 0.27273816E-01 0.88911754E+02</pdfrwt>
<totfact> 0.76603161E+04</totfact>
</mgrwt>
</event>
<event>
 5    1  0.1242969E+001  0.9266117E+02  0.7546771E-02  0.1296532E+00
         -4   -1    0    0    0  501 -0.00000000000E+00  0.00000000000E+00  0.21812870267E+03  0.21812870267E+03  0.00000000000E+00 0.  1.
          4   -1    0    0  501    0  0.00000000000E+00 -0.00000000000E+00 -0.98406270481E+01  0.98406270481E+01  0.00000000000E+00 0. -1.
         23    2    1    2    0    0  0.00000000000E+00  0.00000000000E+00  0.20828807563E+03  0.22796932972E+03  0.92661172268E+02 0.  0.
        -11    1    3    3    0    0 -0.54750200624E+01 -0.44424423178E+02  0.13356615835E+03  0.14086668831E+03  0.00000000000E+00 0. -1.
         11    1    3    3    0    0  0.54750200624E+01  0.44424423178E+02  0.74721917280E+02  0.87102641415E+02  0.00000000000E+00 0.  1.
<mgrwt>
<rscale>  0 0.92661172E+02</rscale>
<asrwt>0</asrwt>
<pdfrwt beam="2">  1        4 0.15139428E-02 0.92661172E+02</pdfrwt>
<pdfrwt beam="1">  1       -4 0.33558258E-01 0.92661172E+02</pdfrwt>
<totfact> 0.19413807E+04</totfact>
</mgrwt>
</event>
<event>
 5    1  0.1242969E+001  0.9125702E+02  0.7546771E-02  0.1299836E+00
         -2   -1    0    0    0  501 -0.00000000000E+00  0.00000000000E+00  0.83055237944E+01  0.83055237944E+01  0.00000000000E+00 0.  1.
          2   -1    0    0  501    0  0.00000000000E+00 -0.00000000000E+00 -0.25067181806E+03  0.25067181806E+03  0.00000000000E+00 0. -1.
         23    2    1    2    0    0  0.00000000000E+00  0.00000000000E+00 -0.24236629426E+03  0.25897734185E+03  0.91257016156E+02 0.  0.
        -13    1    3    3    0    0  0.25403046153E+02  0.34467823703E+02 -0.16592966838E+03  0.17136510868E+03  0.00000000000E+00 0. -1.
         13    1    3    3    0    0 -0.25403046153E+02 -0.34467823703E+02 -0.76436625884E+02  0.87612233171E+02  0.00000000000E+00 0.  1.
<mgrwt>
<rscale>  0 0.91257016E+02</rscale>
<asrwt>0</asrwt>
<pdfrwt beam="2">  1        2 0.38564889E-01 0.91257016E+02</pdfrwt>
<pdfrwt beam="1">  1       -2 0.12777731E-02 0.91257016E+02</pdfrwt>
<totfact> 0.16763187E+05</totfact>
</mgrwt>
</event>
<event>
 5    1  0.1242969E+001  0.9164408E+02  0.7546771E-02  0.1298918E+00
          1   -1    0    0  501    0  0.00000000000E+00  0.00000000000E+00  0.41897260771E+03  0.41897260771E+03  0.00000000000E+00 0. -1.
         -1   -1    0    0    0  501 -0.00000000000E+00 -0.00000000000E+00 -0.50114474258E+01  0.50114474258E+01  0.00000000000E+00 0.  1.
         23    2    1    2    0    0  0.00000000000E+00  0.00000000000E+00  0.41396116028E+03  0.42398405513E+03  0.91644076652E+02 0.  0.
        -13    1    3    3    0    0 -0.38774630794E+02 -0.21864980359E+02  0.25725975706E+03  0.26108261520E+03  0.00000000000E+00 0.  1.
         13    1    3    3    0    0  0.38774630794E+02  0.21864980359E+02  0.15670140322E+03  0.16290143993E+03  0.00000000000E+00 0. -1.
<mgrwt>
<rscale>  0 0.91644077E+02</rscale>
<asrwt>0</asrwt>
<pdfrwt beam="1">  1        1 0.64457297E-01 0.91644077E+02</pdfrwt>
<pdfrwt beam="2">  1       -1 0.77099224E-03 0.91644077E+02</pdfrwt>
<totfact> 0.13406347E+05</totfact>
</mgrwt>
</event>
<event>
 5    1  0.1242969E+001  0.8537840E+02  0.7546771E-02  0.1314446E+00
          3   -1    0    0  501    0  0.00000000000E+00  0.00000000000E+00  0.15768536661E+02  0.15768536661E+02  0.00000000000E+00 0. -1.
         -3   -1    0    0    0  501 -0.00000000000E+00 -0.00000000000E+00 -0.11556986481E+03  0.11556986481E+03  0.00000000000E+00 0.  1.
         23    2    1    2    0    0  0.00000000000E+00  0.00000000000E+00 -0.99801328149E+02  0.13133840147E+03  0.85378396568E+02 0.  0.
        -13    1    3    3    0    0 -0.13029976925E+02 -0.26551012864E+02 -0.97255395403E+02  0.10165307923E+03  0.00000000000E+00 0.  1.
         13    1    3    3    0    0  0.13029976925E+02  0.26551012864E+02 -0.25459327463E+01  0.29685322237E+02  0.00000000000E+00 0. -1.
<mgrwt>
<rscale>  0 0.85378397E+02</rscale>
<asrwt>0</asrwt>
<pdfrwt beam="1">  1        3 0.24259287E-02 0.85378397E+02</pdfrwt>
<pdfrwt beam="2">  1       -3 0.17779980E-01 0.85378397E+02</pdfrwt>
<totfact> 0.38792375E+04</totfact>
</mgrwt>
</event>
<event>
 5    1  0.1242969E+001  0.9197494E+02  0.7546771E-02  0.1298138E+00
         -1   -1    0    0    0  501 -0.00000000000E+00  0.00000000000E+00  0.40393178049E+03  0.40393178049E+03  0.00000000000E+00 0.  1.
          1   -1    0    0  501    0  0.00000000000E+00 -0.00000000000E+00 -0.52356547585E+01  0.52356547585E+01  0.00000000000E+00 0. -1.
         23    2    1    2    0    0  0.00000000000E+00  0.00000000000E+00  0.39869612573E+03  0.40916743525E+03  0.91974938948E+02 0.  0.
        -13    1    3    3    0    0  0.45232028008E+02  0.48085652074E+01  0.16924500105E+03  0.17525104576E+03  0.00000000000E+00 0. -1.
         13    1    3    3    0    0 -0.45232028008E+02 -0.48085652074E+01  0.22945112467E+03  0.23391638949E+03  0.00000000000E+00 0.  1.
<mgrwt>
<rscale>  0 0.91974939E+02</rscale>
<asrwt>0</asrwt>
<pdfrwt beam="2">  1        1 0.80548566E-03 0.91974939E+02</pdfrwt>
<pdfrwt beam="1">  1       -1 0.62143326E-01 0.91974939E+02</pdfrwt>
<totfact> 0.51827869E+04</totfact>
</mgrwt>
</event>
<event>
 5    1  0.1242969E+001  0.9159325E+02  0.7546771E-02  0.1299039E+00
          4   -1    0    0  501    0  0.00000000000E+00  0.00000000000E+00  0.71013940416E+02  0.71013940416E+02  0.00000000000E+00 0. -1.
         -4   -1    0    0    0  501 -0.00000000000E+00 -0.00000000000E+00 -0.29534070536E+02  0.29534070536E+02  0.00000000000E+00 0.  1.
         23    2    1    2    0    0  0.00000000000E+00  0.00000000000E+00  0.41479869880E+02  0.10054801095E+03  0.91593247028E+02 0.  0.
        -11    1    3    3    0    0  0.35146717246E+02  0.24990279202E+01 -0.11374080328E+02  0.37025755590E+02  0.00000000000E+00 0.  1.
         11    1    3    3    0    0 -0.35146717246E+02 -0.24990279202E+01  0.52853950208E+02  0.63522255362E+02  0.00000000000E+00 0. -1.
<mgrwt>
<rscale>  0 0.91593247E+02</rscale>
<asrwt>0</asrwt>
<pdfrwt beam="1">  1        4 0.10925222E-01 0.91593247E+02</pdfrwt>
<pdfrwt beam="2">  1       -4 0.45437032E-02 0.91593247E+02</pdfrwt>
<totfact> 0.26099271E+04</totfact>
</mgrwt>
</event>
<event>
 5    1  0.1242969E+001  0.9002261E+02  0.7546771E-02  0.1302797E+00
         -1   -1    0    0    0  501 -0.00000000000E+00  0.00000000000E+00  0.92195485770E+02  0.92195485770E+02  0.00000000000E+00 0.  1.
          1   -1    0    0  501    0  0.00000000000E+00 -0.00000000000E+00 -0.21975234672E+02  0.21975234672E+02  0.00000000000E+00 0. -1.
         23    2    1    2    0    0  0.00000000000E+00  0.00000000000E+00  0.70220251098E+02  0.11417072044E+03  0.90022606839E+02 0.  0.
        -13    1    3    3    0    0 -0.10786252173E+02 -0.42744722036E+02  0.23586325210E+02  0.49997692295E+02  0.00000000000E+00 0. -1.
         13    1    3    3    0    0  0.10786252173E+02  0.42744722036E+02  0.46633925888E+02  0.64173028147E+02  0.00000000000E+00 0.  1.
<mgrwt>
<rscale>  0 0.90022607E+02</rscale>
<asrwt>0</asrwt>
<pdfrwt beam="2">  1        1 0.33808054E-02 0.90022607E+02</pdfrwt>
<pdfrwt beam="1">  1       -1 0.14183921E-01 0.90022607E+02</pdfrwt>
<totfact> 0.85332462E+04</totfact>
</mgrwt>
</event>
<event>
 5    1  0.1242969E+001  0.9098050E+02  0.7546771E-02  0.1300494E+00
          1   -1    0    0  501    0  0.00000000000E+00  0.00000000000E+00  0.41294623958E+03  0.41294623958E+03  0.00000000000E+00 0. -1.
         -1   -1    0    0    0  501 -0.00000000000E+00 -0.00000000000E+00 -0.50112162795E+01  0.50112162795E+01  0.00000000000E+00 0.  1.
         23    2    1    2    0    0  0.00000000000E+00  0.00000000000E+00  0.40793502330E+03  0.41795745586E+03  0.90980501611E+02 0.  0.
        -13    1    3    3    0    0  0.42127632438E+02  0.16451997446E+02  0.22645301099E+03  0.23092503507E+03  0.00000000000E+00 0. -1.
         13    1    3    3    0    0 -0.42127632438E+02 -0.16451997446E+02  0.18148201232E+03  0.18703242080E+03  0.00000000000E+00 0.  1.
<mgrwt>
<rscale>  0 0.90980502E+02</rscale>
<asrwt>0</asrwt>
<pdfrwt beam="1">  1        1 0.63530164E-01 0.90980502E+02</pdfrwt>
<pdfrwt beam="2">  1       -1 0.77095668E-03 0.90980502E+02</pdfrwt>
<totfact> 0.13636442E+05</totfact>
</mgrwt>
</event>
<event>
 5    1  0.1242969E+001  0.9159262E+02  0.7546771E-02  0.1299040E+00
          4   -1    0    0  501    0  0.00000000000E+00  0.00000000000E+00  0.39896733624E+02  0.39896733624E+02  0.00000000000E+00 0. -1.
         -4   -1    0    0    0  501 -0.00000000000E+00 -0.00000000000E+00 -0.52568268222E+02  0.52568268222E+02  0.00000000000E+00 0.  1.
         23    2    1    2    0    0  0.00000000000E+00  0.00000000000E+00 -0.12671534597E+02  0.92465001846E+02  0.91592624034E+02 0.  0.
        -13    1    3    3    0    0  0.40231497659E+02  0.16948612818E+02 -0.20304950354E+02  0.48146857521E+02  0.00000000000E+00 0.  1.
         13    1    3    3    0    0 -0.40231497659E+02 -0.16948612818E+02  0.76334157562E+01  0.44318144325E+02  0.00000000000E+00 0. -1.
<mgrwt>
<rscale>  0 0.91592624E+02</rscale>
<asrwt>0</asrwt>
<pdfrwt beam="1">  1        4 0.61379590E-02 0.91592624E+02</pdfrwt>
<pdfrwt beam="2">  1       -4 0.80874259E-02 0.91592624E+02</pdfrwt>
<totfact> 0.26602534E+04</totfact>
</mgrwt>
</event>
<event>
 5    1  0.1242969E+001  0.9032201E+02  0.7546771E-02  0.1302074E+00
         -1   -1    0    0    0  501 -0.00000000000E+00  0.00000000000E+00  0.16156197563E+02  0.16156197563E+02  0.00000000000E+00 0.  1.
          1   -1    0    0  501    0  0.00000000000E+00 -0.00000000000E+00 -0.12623741145E+03  0.12623741145E+03  0.00000000000E+00 0. -1.
         23    2    1    2    0    0  0.00000000000E+00  0.00000000000E+00 -0.11008121388E+03  0.14239360901E+03  0.90322014131E+02 0.  0.
        -13    1    3    3    0    0 -0.33391451810E+02  0.11307221158E+02 -0.10542936488E+02  0.36796682107E+02  0.00000000000E+00 0.  1.
         13    1    3    3    0    0  0.33391451810E+02 -0.11307221158E+02 -0.99538277396E+02  0.10559692690E+03  0.00000000000E+00 0. -1.
<mgrwt>
<rscale>  0 0.90322014E+02</rscale>
<asrwt>0</asrwt>
<pdfrwt beam="2">  1        1 0.19421140E-01 0.90322014E+02</pdfrwt>
<pdfrwt beam="1">  1       -1 0.24855688E-02 0.90322014E+02</pdfrwt>
<totfact> 0.11150570E+05</totfact>
</mgrwt>
</event>
<event>
 5    1  0.1242969E+001  0.9066650E+02  0.7546771E-02  0.1301246E+00
         -1   -1    0    0    0  501 -0.00000000000E+00  0.00000000000E+00  0.42594457132E+01  0.42594457132E+01  0.00000000000E+00 0.  1.
          1   -1    0    0  501    0  0.00000000000E+00 -0.00000000000E+00 -0.48248140906E+03  0.48248140906E+03  0.00000000000E+00 0. -1.
         23    2    1    2    0    0  0.00000000000E+00  0.00000000000E+00 -0.47822196335E+03  0.48674085478E+03  0.90666495896E+02 0.  0.
        -13    1    3    3    0    0 -0.42617504367E+02  0.15418539563E+02 -0.24479327595E+03  0.24895327070E+03  0.00000000000E+00 0. -1.
         13    1    3    3    0    0  0.42617504367E+02 -0.15418539563E+02 -0.23342868739E+03  0.23778758407E+03  0.00000000000E+00 0.  1.
<mgrwt>
<rscale>  0 0.90666496E+02</rscale>
<asrwt>0</asrwt>
<pdfrwt beam="2">  1        1 0.74227948E-01 0.90666496E+02</pdfrwt>
<pdfrwt beam="1">  1       -1 0.65529900E-03 0.90666496E+02</pdfrwt>
<totfact> 0.14073494E+05</totfact>
</mgrwt>
</event>
<event>
 5    1  0.1242969E+001  0.8986693E+02  0.7546771E-02  0.1303174E+00
         -2   -1    0    0    0  501 -0.00000000000E+00  0.00000000000E+00  0.30686510202E+02  0.30686510202E+02  0.00000000000E+00 0.  1.
          2   -1    0    0  501    0  0.00000000000E+00 -0.00000000000E+00 -0.65794915493E+02  0.65794915493E+02  0.00000000000E+00 0. -1.
         23    2    1    2    0    0  0.00000000000E+00  0.00000000000E+00 -0.35108405291E+02  0.96481425695E+02  0.89866931527E+02 0.  0.
        -13    1    3    3    0    0 -0.14149632824E+02 -0.42290147223E+02 -0.11639858685E+02  0.46088555753E+02  0.00000000000E+00 0.  1.
         13    1    3    3    0    0  0.14149632824E+02  0.42290147223E+02 -0.23468546606E+02  0.50392869942E+02  0.00000000000E+00 0. -1.
<mgrwt>
<rscale>  0 0.89866932E+02</rscale>
<asrwt>0</asrwt>
<pdfrwt beam="2">  1        2 0.10122295E-01 0.89866932E+02</pdfrwt>
<pdfrwt beam="1">  1       -2 0.47210016E-02 0.89866932E+02</pdfrwt>
<totfact> 0.11324849E+05</totfact>
</mgrwt>
</event>
<event>
 5    1  0.1242969E+001  0.9079846E+02  0.7546771E-02  0.1300930E+00
          1   -1    0    0  501    0  0.00000000000E+00  0.00000000000E+00  0.11054841210E+03  0.11054841210E+03  0.00000000000E+00 0. -1.
         -1   -1    0    0    0  501 -0.00000000000E+00 -0.00000000000E+00 -0.18644228915E+02  0.18644228915E+02  0.00000000000E+00 0.  1.
         23    2    1    2    0    0  0.00000000000E+00  0.00000000000E+00  0.91904183185E+02  0.12919264101E+03  0.90798455964E+02 0.  0.
        -11    1    3    3    0    0 -0.40569456740E+02  0.15264844205E+02  0.26746579721E+02  0.50934033961E+02  0.00000000000E+00 0.  1.
         11    1    3    3    0    0  0.40569456740E+02 -0.15264844205E+02  0.65157603464E+02  0.78258607054E+02  0.00000000000E+00 0. -1.
<mgrwt>
<rscale>  0 0.90798456E+02</rscale>
<asrwt>0</asrwt>
<pdfrwt beam="1">  1        1 0.17007448E-01 0.90798456E+02</pdfrwt>
<pdfrwt beam="2">  1       -1 0.28683430E-02 0.90798456E+02</pdfrwt>
<totfact> 0.10743653E+05</totfact>
</mgrwt>
</event>
<event>
 5    1  0.1242969E+001  0.8019161E+02  0.7546771E-02  0.1328509E+00
         -3   -1    0    0    0  501 -0.00000000000E+00  0.00000000000E+00  0.21784972065E+02  0.21784972065E+02  0.00000000000E+00 0.  1.
          3   -1    0    0  501    0  0.00000000000E+00 -0.00000000000E+00 -0.73797361430E+02  0.73797361430E+02  0.00000000000E+00 0. -1.
         23    2    1    2    0    0  0.00000000000E+00  0.00000000000E+00 -0.52012389365E+02  0.95582333495E+02  0.80191606972E+02 0.  0.
        -13    1    3    3    0    0  0.37580698500E+02 -0.47177018380E+01 -0.41688398348E+02  0.56324845026E+02  0.00000000000E+00 0. -1.
         13    1    3    3    0    0 -0.37580698500E+02  0.47177018380E+01 -0.10323991017E+02  0.39257488469E+02  0.00000000000E+00 0.  1.
<mgrwt>
<rscale>  0 0.80191607E+02</rscale>
<asrwt>0</asrwt>
<pdfrwt beam="2">  1        3 0.11353440E-01 0.80191607E+02</pdfrwt>
<pdfrwt beam="1">  1       -3 0.33515341E-02 0.80191607E+02</pdfrwt>
<totfact> 0.49497798E+04</totfact>
</mgrwt>
</event>
<event>
 5    1  0.1242969E+001  0.9316570E+02  0.7546771E-02  0.1295362E+00
          3   -1    0    0  501    0  0.00000000000E+00  0.00000000000E+00  0.29315251965E+02  0.29315251965E+02  0.00000000000E+00 0. -1.
         -3   -1    0    0    0  501 -0.00000000000E+00 -0.00000000000E+00 -0.74021599166E+02  0.74021599166E+02  0.00000000000E+00 0.  1.
         23    2    1    2    0    0  0.00000000000E+00  0.00000000000E+00 -0.44706347200E+02  0.10333685113E+03  0.93165698203E+02 0.  0.
        -11    1    3    3    0    0 -0.29531932733E+02 -0.35588331597E+02 -0.28558341594E+02  0.54352950900E+02  0.00000000000E+00 0.  1.
         11    1    3    3    0    0  0.29531932733E+02  0.35588331597E+02 -0.16148005606E+02  0.48983900232E+02  0.00000000000E+00 0. -1.
<mgrwt>
<rscale>  0 0.93165698E+02</rscale>
<asrwt>0</asrwt>
<pdfrwt beam="1">  1        3 0.45100388E-02 0.93165698E+02</pdfrwt>
<pdfrwt beam="2">  1       -3 0.11387938E-01 0.93165698E+02</pdfrwt>
<totfact> 0.32458233E+04</totfact>
</mgrwt>
</event>
<event>
 5    1  0.1242969E+001  0.8906537E+02  0.7546771E-02  0.1305131E+00
         -2   -1    0    0    0  501 -0.00000000000E+00  0.00000000000E+00  0.38472817333E+02  0.38472817333E+02  0.00000000000E+00 0.  1.
          2   -1    0    0  501    0  0.00000000000E+00 -0.00000000000E+00 -0.51547039574E+02  0.51547039574E+02  0.00000000000E+00 0. -1.
         23    2    1    2    0    0  0.00000000000E+00  0.00000000000E+00 -0.13074222241E+02  0.90019856907E+02  0.89065365605E+02 0.  0.
        -13    1    3    3    0    0 -0.19248704029E+02  0.33157770715E+02  0.16359794548E+02  0.41684448458E+02  0.00000000000E+00 0.  1.
         13    1    3    3    0    0  0.19248704029E+02 -0.33157770715E+02 -0.29434016789E+02  0.48335408449E+02  0.00000000000E+00 0. -1.
<mgrwt>
<rscale>  0 0.89065366E+02</rscale>
<asrwt>0</asrwt>
<pdfrwt beam="2">  1        2 0.79303138E-02 0.89065366E+02</pdfrwt>
<pdfrwt beam="1">  1       -2 0.59188950E-02 0.89065366E+02</pdfrwt>
<totfact> 0.10889128E+05</totfact>
</mgrwt>
</event>
<event>
 5    1  0.1242969E+001  0.9141886E+02  0.7546771E-02  0.1299452E+00
          2   -1    0    0  501    0  0.00000000000E+00  0.00000000000E+00  0.19050995622E+03  0.19050995622E+03  0.00000000000E+00 0. -1.
         -2   -1    0    0    0  501 -0.00000000000E+00 -0.00000000000E+00 -0.10967152624E+02  0.10967152624E+02  0.00000000000E+00 0.  1.
         23    2    1    2    0    0  0.00000000000E+00  0.00000000000E+00  0.17954280360E+03  0.20147710884E+03  0.91418855086E+02 0.  0.
        -11    1    3    3    0    0 -0.24274468448E+01 -0.32940846276E+02  0.15940735101E+03  0.16279341328E+03  0.00000000000E+00 0. -1.
         11    1    3    3    0    0  0.24274468448E+01  0.32940846276E+02  0.20135452583E+02  0.38683695561E+02  0.00000000000E+00 0.  1.
<mgrwt>
<rscale>  0 0.91418855E+02</rscale>
<asrwt>0</asrwt>
<pdfrwt beam="1">  1        2 0.29309222E-01 0.91418855E+02</pdfrwt>
<pdfrwt beam="2">  1       -2 0.16872544E-02 0.91418855E+02</pdfrwt>
<totfact> 0.15091121E+05</totfact>
</mgrwt>
</event>
<event>
 5    1  0.1242969E+001  0.9344524E+02  0.7546771E-02  0.1294717E+00
         -1   -1    0    0    0  501 -0.00000000000E+00  0.00000000000E+00  0.11385852444E+02  0.11385852444E+02  0.00000000000E+00 0.  1.
          1   -1    0    0  501    0  0.00000000000E+00 -0.00000000000E+00 -0.19172944372E+03  0.19172944372E+03  0.00000000000E+00 0. -1.
         23    2    1    2    0    0  0.00000000000E+00  0.00000000000E+00 -0.18034359127E+03  0.20311529616E+03  0.93445238624E+02 0.  0.
        -13    1    3    3    0    0 -0.23628523202E+01  0.30145293499E+02 -0.16759332273E+03  0.17029927661E+03  0.00000000000E+00 0. -1.
         13    1    3    3    0    0  0.23628523202E+01 -0.30145293499E+02 -0.12750268546E+02  0.32816019552E+02  0.00000000000E+00 0.  1.
<mgrwt>
<rscale>  0 0.93445239E+02</rscale>
<asrwt>0</asrwt>
<pdfrwt beam="2">  1        1 0.29496836E-01 0.93445239E+02</pdfrwt>
<pdfrwt beam="1">  1       -1 0.17516697E-02 0.93445239E+02</pdfrwt>
<totfact> 0.10993085E+05</totfact>
</mgrwt>
</event>
<event>
 5    1  0.1242969E+001  0.9028316E+02  0.7546771E-02  0.1302167E+00
          4   -1    0    0  501    0  0.00000000000E+00  0.00000000000E+00  0.24038099450E+03  0.24038099450E+03  0.00000000000E+00 0. -1.
         -4   -1    0    0    0  501 -0.00000000000E+00 -0.00000000000E+00 -0.84772178860E+01  0.84772178860E+01  0.00000000000E+00 0.  1.
         23    2    1    2    0    0  0.00000000000E+00  0.00000000000E+00  0.23190377661E+03  0.24885821239E+03  0.90283156037E+02 0.  0.
        -11    1    3    3    0    0  0.32821327870E+02 -0.19500102629E+02  0.49553162912E+02  0.62554052788E+02  0.00000000000E+00 0.  1.
         11    1    3    3    0    0 -0.32821327870E+02  0.19500102629E+02  0.18235061370E+03  0.18630415960E+03  0.00000000000E+00 0. -1.
<mgrwt>
<rscale>  0 0.90283156E+02</rscale>
<asrwt>0</asrwt>
<pdfrwt beam="1">  1        4 0.36981686E-01 0.90283156E+02</pdfrwt>
<pdfrwt beam="2">  1       -4 0.13041875E-02 0.90283156E+02</pdfrwt>
<totfact> 0.20022223E+04</totfact>
</mgrwt>
</event>
<event>
 5    1  0.1242969E+001  0.1035013E+03  0.7546771E-02  0.1273101E+00
          2   -1    0    0  501    0  0.00000000000E+00  0.00000000000E+00  0.19864646899E+02  0.19864646899E+02  0.00000000000E+00 0.  1.
         -2   -1    0    0    0  501 -0.00000000000E+00 -0.00000000000E+00 -0.13481880787E+03  0.13481880787E+03  0.00000000000E+00 0. -1.
         23    2    1    2    0    0  0.00000000000E+00  0.00000000000E+00 -0.11495416097E+03  0.15468345477E+03  0.10350126596E+03 0.  0.
        -13    1    3    3    0    0  0.84925322223E+00  0.30101382783E+02 -0.12037639642E+03  0.12408582228E+03  0.00000000000E+00 0. -1.
         13    1    3    3    0    0 -0.84925322223E+00 -0.30101382783E+02  0.54222354494E+01  0.30597632486E+02  0.00000000000E+00 0.  1.
<mgrwt>
<rscale>  0 0.10350127E+03</rscale>
<asrwt>0</asrwt>
<pdfrwt beam="1">  1        2 0.30560995E-02 0.10350127E+03</pdfrwt>
<pdfrwt beam="2">  1       -2 0.20741355E-01 0.10350127E+03</pdfrwt>
<totfact> 0.52688631E+04</totfact>
</mgrwt>
</event>
<event>
 5    1  0.1242969E+001  0.8806330E+02  0.7546771E-02  0.1307611E+00
         -1   -1    0    0    0  501 -0.00000000000E+00  0.00000000000E+00  0.81901882330E+02  0.81901882330E+02  0.00000000000E+00 0.  1.
          1   -1    0    0  501    0  0.00000000000E+00 -0.00000000000E+00 -0.23672056968E+02  0.23672056968E+02  0.00000000000E+00 0. -1.
         23    2    1    2    0    0  0.00000000000E+00  0.00000000000E+00  0.58229825363E+02  0.10557393930E+03  0.88063295970E+02 0.  0.
        -11    1    3    3    0    0 -0.32301309701E+02  0.26828732830E+02  0.13227185529E+02  0.44024015613E+02  0.00000000000E+00 0.  1.
         11    1    3    3    0    0  0.32301309701E+02 -0.26828732830E+02  0.45002639834E+02  0.61549923685E+02  0.00000000000E+00 0. -1.
<mgrwt>
<rscale>  0 0.88063296E+02</rscale>
<asrwt>0</asrwt>
<pdfrwt beam="2">  1        1 0.36418550E-02 0.88063296E+02</pdfrwt>
<pdfrwt beam="1">  1       -1 0.12600289E-01 0.88063296E+02</pdfrwt>
<totfact> 0.92150992E+04</totfact>
</mgrwt>
</event>
<event>
 5    1  0.1242969E+001  0.9275894E+02  0.7546771E-02  0.1296305E+00
         -1   -1    0    0    0  501 -0.00000000000E+00  0.00000000000E+00  0.68246981379E+02  0.68246981379E+02  0.00000000000E+00 0.  1.
          1   -1    0    0  501    0  0.00000000000E+00 -0.00000000000E+00 -0.31518689605E+02  0.31518689605E+02  0.00000000000E+00 0. -1.
         23    2    1    2    0    0  0.00000000000E+00  0.00000000000E+00  0.36728291774E+02  0.99765670984E+02  0.92758943991E+02 0.  0.
        -13    1    3    3    0    0 -0.30928863551E+02 -0.25247727503E+02  0.43748027171E+02  0.59227799436E+02  0.00000000000E+00 0.  1.
         13    1    3    3    0    0  0.30928863551E+02  0.25247727503E+02 -0.70197353966E+01  0.40537871549E+02  0.00000000000E+00 0. -1.
<mgrwt>
<rscale>  0 0.92758944E+02</rscale>
<asrwt>0</asrwt>
<pdfrwt beam="2">  1        1 0.48490292E-02 0.92758944E+02</pdfrwt>
<pdfrwt beam="1">  1       -1 0.10499536E-01 0.92758944E+02</pdfrwt>
<totfact> 0.83164210E+04</totfact>
</mgrwt>
</event>
<event>
 5    1  0.1242969E+001  0.1086837E+03  0.7546771E-02  0.1263027E+00
         -4   -1    0    0    0  501 -0.00000000000E+00  0.00000000000E+00  0.97796631149E+02  0.97796631149E+02  0.00000000000E+00 0.  1.
          4   -1    0    0  501    0  0.00000000000E+00 -0.00000000000E+00 -0.30195668715E+02  0.30195668715E+02  0.00000000000E+00 0. -1.
         23    2    1    2    0    0  0.00000000000E+00  0.00000000000E+00  0.67600962434E+02  0.12799229986E+03  0.10868366346E+03 0.  0.
        -11    1    3    3    0    0  0.21599183148E+02 -0.97302075323E+01  0.91395510426E+02  0.94415787755E+02  0.00000000000E+00 0.  1.
         11    1    3    3    0    0 -0.21599183148E+02  0.97302075323E+01 -0.23794547991E+02  0.33576512109E+02  0.00000000000E+00 0. -1.
<mgrwt>
<rscale>  0 0.10868366E+03</rscale>
<asrwt>0</asrwt>
<pdfrwt beam="2">  1        4 0.46454875E-02 0.10868366E+03</pdfrwt>
<pdfrwt beam="1">  1       -4 0.15045636E-01 0.10868366E+03</pdfrwt>
<totfact> 0.15360924E+04</totfact>
</mgrwt>
</event>
<event>
 5    1  0.1242969E+001  0.9126674E+02  0.7546771E-02  0.1299813E+00
          2   -1    0    0  501    0  0.00000000000E+00  0.00000000000E+00  0.67171321391E+02  0.67171321391E+02  0.00000000000E+00 0. -1.
         -2   -1    0    0    0  501 -0.00000000000E+00 -0.00000000000E+00 -0.31001392395E+02  0.31001392395E+02  0.00000000000E+00 0.  1.
         23    2    1    2    0    0  0.00000000000E+00  0.00000000000E+00  0.36169928996E+02  0.98172713785E+02  0.91266740757E+02 0.  0.
        -11    1    3    3    0    0 -0.41896354155E+02 -0.67657457363E+01  0.43068478886E-01  0.42439152463E+02  0.00000000000E+00 0.  1.
         11    1    3    3    0    0  0.41896354155E+02  0.67657457363E+01  0.36126860517E+02  0.55733561323E+02  0.00000000000E+00 0. -1.
<mgrwt>
<rscale>  0 0.91266741E+02</rscale>
<asrwt>0</asrwt>
<pdfrwt beam="1">  1        2 0.10334049E-01 0.91266741E+02</pdfrwt>
<pdfrwt beam="2">  1       -2 0.47694450E-02 0.91266741E+02</pdfrwt>
<totfact> 0.10906633E+05</totfact>
</mgrwt>
</event>
<event>
 5    1  0.1242969E+001  0.9243541E+02  0.7546771E-02  0.1297059E+00
          2   -1    0    0  501    0  0.00000000000E+00  0.00000000000E+00  0.11873792874E+03  0.11873792874E+03  0.00000000000E+00 0. -1.
         -2   -1    0    0    0  501 -0.00000000000E+00 -0.00000000000E+00 -0.17989840295E+02  0.17989840295E+02  0.00000000000E+00 0.  1.
         23    2    1    2    0    0  0.00000000000E+00  0.00000000000E+00  0.10074808844E+03  0.13672776903E+03  0.92435412586E+02 0.  0.
        -11    1    3    3    0    0 -0.33157630674E+02  0.40202189754E+01  0.31218680795E+01  0.33546038408E+02  0.00000000000E+00 0.  1.
         11    1    3    3    0    0  0.33157630674E+02 -0.40202189754E+01  0.97626220362E+02  0.10318173063E+03  0.00000000000E+00 0. -1.
<mgrwt>
<rscale>  0 0.92435413E+02</rscale>
<asrwt>0</asrwt>
<pdfrwt beam="1">  1        2 0.18267373E-01 0.92435413E+02</pdfrwt>
<pdfrwt beam="2">  1       -2 0.27676678E-02 0.92435413E+02</pdfrwt>
<totfact> 0.12465438E+05</totfact>
</mgrwt>
</event>
<event>
 5    1  0.1242969E+001  0.9030241E+02  0.7546771E-02  0.1302121E+00
         -3   -1    0    0    0  501 -0.00000000000E+00  0.00000000000E+00  0.41173912786E+02  0.41173912786E+02  0.00000000000E+00 0.  1.
          3   -1    0    0  501    0  0.00000000000E+00 -0.00000000000E+00 -0.49512692027E+02  0.49512692027E+02  0.00000000000E+00 0. -1.
         23    2    1    2    0    0  0.00000000000E+00  0.00000000000E+00 -0.83387792411E+01  0.90686604814E+02  0.90302408902E+02 0.  0.
        -11    1    3    3    0    0  0.17782461450E+02  0.41495486674E+02 -0.34314751468E+01  0.45275449984E+02  0.00000000000E+00 0.  1.
         11    1    3    3    0    0 -0.17782461450E+02 -0.41495486674E+02 -0.49073040944E+01  0.45411154830E+02  0.00000000000E+00 0. -1.
<mgrwt>
<rscale>  0 0.90302409E+02</rscale>
<asrwt>0</asrwt>
<pdfrwt beam="2">  1        3 0.76173372E-02 0.90302409E+02</pdfrwt>
<pdfrwt beam="1">  1       -3 0.63344482E-02 0.90302409E+02</pdfrwt>
<totfact> 0.36316113E+04</totfact>
</mgrwt>
</event>
<event>
 5    1  0.1242969E+001  0.7994906E+02  0.7546771E-02  0.1329196E+00
         -2   -1    0    0    0  501 -0.00000000000E+00  0.00000000000E+00  0.60316225694E+01  0.60316225694E+01  0.00000000000E+00 0.  1.
          2   -1    0    0  501    0  0.00000000000E+00 -0.00000000000E+00 -0.26493089882E+03  0.26493089882E+03  0.00000000000E+00 0. -1.
         23    2    1    2    0    0  0.00000000000E+00  0.00000000000E+00 -0.25889927625E+03  0.27096252139E+03  0.79949063500E+02 0.  0.
        -11    1    3    3    0    0  0.78613717530E+01  0.35854861835E+02 -0.18310072158E+03  0.18674379917E+03  0.00000000000E+00 0. -1.
         11    1    3    3    0    0 -0.78613717530E+01 -0.35854861835E+02 -0.75798554666E+02  0.84218722221E+02  0.00000000000E+00 0.  1.
<mgrwt>
<rscale>  0 0.79949064E+02</rscale>
<asrwt>0</asrwt>
<pdfrwt beam="2">  1        2 0.40758602E-01 0.79949064E+02</pdfrwt>
<pdfrwt beam="1">  1       -2 0.92794188E-03 0.79949064E+02</pdfrwt>
<totfact> 0.24309985E+05</totfact>
</mgrwt>
</event>
<event>
 5    1  0.1242969E+001  0.9479879E+02  0.7546771E-02  0.1291630E+00
          1   -1    0    0  501    0  0.00000000000E+00  0.00000000000E+00  0.12578319357E+03  0.12578319357E+03  0.00000000000E+00 0. -1.
         -1   -1    0    0    0  501 -0.00000000000E+00 -0.00000000000E+00 -0.17861707243E+02  0.17861707243E+02  0.00000000000E+00 0.  1.
         23    2    1    2    0    0  0.00000000000E+00  0.00000000000E+00  0.10792148633E+03  0.14364490081E+03  0.94798788592E+02 0.  0.
        -11    1    3    3    0    0 -0.16838768531E+02 -0.27321944056E+02  0.10681424841E+03  0.11153168346E+03  0.00000000000E+00 0. -1.
         11    1    3    3    0    0  0.16838768531E+02  0.27321944056E+02  0.11072379141E+01  0.32113217347E+02  0.00000000000E+00 0.  1.
<mgrwt>
<rscale>  0 0.94798789E+02</rscale>
<asrwt>0</asrwt>
<pdfrwt beam="1">  1        1 0.19351260E-01 0.94798789E+02</pdfrwt>
<pdfrwt beam="2">  1       -1 0.27479550E-02 0.94798789E+02</pdfrwt>
<totfact> 0.97718448E+04</totfact>
</mgrwt>
</event>
<event>
 5    1  0.1242969E+001  0.8995988E+02  0.7546771E-02  0.1302949E+00
          2   -1    0    0  501    0  0.00000000000E+00  0.00000000000E+00  0.14054434646E+03  0.14054434646E+03  0.00000000000E+00 0. -1.
         -2   -1    0    0    0  501 -0.00000000000E+00 -0.00000000000E+00 -0.14395422318E+02  0.14395422318E+02  0.00000000000E+00 0.  1.
         23    2    1    2    0    0  0.00000000000E+00  0.00000000000E+00  0.12614892414E+03  0.15493976877E+03  0.89959884875E+02 0.  0.
        -11    1    3    3    0    0 -0.33206441279E+02  0.25635429957E+02  0.35124418045E+02  0.54713506144E+02  0.00000000000E+00 0.  1.
         11    1    3    3    0    0  0.33206441279E+02 -0.25635429957E+02  0.91024506093E+02  0.10022626263E+03  0.00000000000E+00 0. -1.
<mgrwt>
<rscale>  0 0.89959885E+02</rscale>
<asrwt>0</asrwt>
<pdfrwt beam="1">  1        2 0.21622206E-01 0.89959885E+02</pdfrwt>
<pdfrwt beam="2">  1       -2 0.22146805E-02 0.89959885E+02</pdfrwt>
<totfact> 0.14185351E+05</totfact>
</mgrwt>
</event>
<event>
 5    1  0.1242969E+001  0.9308353E+02  0.7546771E-02  0.1295552E+00
          1   -1    0    0  501    0  0.00000000000E+00  0.00000000000E+00  0.29248992743E+02  0.29248992743E+02  0.00000000000E+00 0. -1.
         -1   -1    0    0    0  501 -0.00000000000E+00 -0.00000000000E+00 -0.74058483214E+02  0.74058483214E+02  0.00000000000E+00 0.  1.
         23    2    1    2    0    0  0.00000000000E+00  0.00000000000E+00 -0.44809490471E+02  0.10330747596E+03  0.93083533197E+02 0.  0.
        -11    1    3    3    0    0 -0.67185057676E+01 -0.43188581081E+02 -0.46562404077E+01  0.43955345867E+02  0.00000000000E+00 0. -1.
         11    1    3    3    0    0  0.67185057676E+01  0.43188581081E+02 -0.40153250063E+02  0.59352130090E+02  0.00000000000E+00 0.  1.
<mgrwt>
<rscale>  0 0.93083533E+02</rscale>
<asrwt>0</asrwt>
<pdfrwt beam="1">  1        1 0.44998451E-02 0.93083533E+02</pdfrwt>
<pdfrwt beam="2">  1       -1 0.11393613E-01 0.93083533E+02</pdfrwt>
<totfact> 0.81327420E+04</totfact>
</mgrwt>
</event>
<event>
 5    1  0.1242969E+001  0.8329285E+02  0.7546771E-02  0.1319958E+00
         -1   -1    0    0    0  501 -0.00000000000E+00  0.00000000000E+00  0.11909488580E+03  0.11909488580E+03  0.00000000000E+00 0.  1.
          1   -1    0    0  501    0  0.00000000000E+00 -0.00000000000E+00 -0.14563385945E+02  0.14563385945E+02  0.00000000000E+00 0. -1.
         23    2    1    2    0    0  0.00000000000E+00  0.00000000000E+00  0.10453149986E+03  0.13365827175E+03  0.83292851699E+02 0.  0.
        -11    1    3    3    0    0 -0.81304628634E+01  0.31027991355E+02  0.96409349872E+01  0.33493108266E+02  0.00000000000E+00 0. -1.
         11    1    3    3    0    0  0.81304628634E+01 -0.31027991355E+02  0.94890564869E+02  0.10016516348E+03  0.00000000000E+00 0.  1.
<mgrwt>
<rscale>  0 0.83292852E+02</rscale>
<asrwt>0</asrwt>
<pdfrwt beam="2">  1        1 0.22405210E-02 0.83292852E+02</pdfrwt>
<pdfrwt beam="1">  1       -1 0.18322289E-01 0.83292852E+02</pdfrwt>
<totfact> 0.99303636E+04</totfact>
</mgrwt>
</event>
<event>
 5    1  0.1242969E+001  0.8892216E+02  0.7546771E-02  0.1305483E+00
          2   -1    0    0  501    0  0.00000000000E+00  0.00000000000E+00  0.96211571006E+02  0.96211571006E+02  0.00000000000E+00 0. -1.
         -2   -1    0    0    0  501 -0.00000000000E+00 -0.00000000000E+00 -0.20546256024E+02  0.20546256024E+02  0.00000000000E+00 0.  1.
         23    2    1    2    0    0  0.00000000000E+00  0.00000000000E+00  0.75665314982E+02  0.11675782703E+03  0.88922158550E+02 0.  0.
        -11    1    3    3    0    0  0.15918122733E+02  0.83915943742E+01 -0.15551215719E+02  0.23783309227E+02  0.00000000000E+00 0.  1.
         11    1    3    3    0    0 -0.15918122733E+02 -0.83915943742E+01  0.91216530700E+02  0.92974517802E+02  0.00000000000E+00 0. -1.
<mgrwt>
<rscale>  0 0.88922159E+02</rscale>
<asrwt>0</asrwt>
<pdfrwt beam="1">  1        2 0.14801780E-01 0.88922159E+02</pdfrwt>
<pdfrwt beam="2">  1       -2 0.31609625E-02 0.88922159E+02</pdfrwt>
<totfact> 0.12989270E+05</totfact>
</mgrwt>
</event>
<event>
 5    1  0.1242969E+001  0.9048989E+02  0.7546771E-02  0.1301670E+00
          2   -1    0    0  501    0  0.00000000000E+00  0.00000000000E+00  0.19670810393E+03  0.19670810393E+03  0.00000000000E+00 0. -1.
         -2   -1    0    0    0  501 -0.00000000000E+00 -0.00000000000E+00 -0.10406815003E+02  0.10406815003E+02  0.00000000000E+00 0.  1.
         23    2    1    2    0    0  0.00000000000E+00  0.00000000000E+00  0.18630128893E+03  0.20711491893E+03  0.90489885561E+02 0.  0.
        -11    1    3    3    0    0 -0.19277595357E+02 -0.32400071067E+02  0.35897482814E+02  0.52057848210E+02  0.00000000000E+00 0.  1.
         11    1    3    3    0    0  0.19277595357E+02  0.32400071067E+02  0.15040380611E+03  0.15505707072E+03  0.00000000000E+00 0. -1.
<mgrwt>
<rscale>  0 0.90489886E+02</rscale>
<asrwt>0</asrwt>
<pdfrwt beam="1">  1        2 0.30262782E-01 0.90489886E+02</pdfrwt>
<pdfrwt beam="2">  1       -2 0.16010486E-02 0.90489886E+02</pdfrwt>
<totfact> 0.15691650E+05</totfact>
</mgrwt>
</event>
<event>
 5    1  0.1242969E+001  0.7739149E+02  0.7546771E-02  0.1336621E+00
          2   -1    0    0  501    0  0.00000000000E+00  0.00000000000E+00  0.20401474363E+02  0.20401474363E+02  0.00000000000E+00 0. -1.
         -2   -1    0    0    0  501 -0.00000000000E+00 -0.00000000000E+00 -0.73394724406E+02  0.73394724406E+02  0.00000000000E+00 0.  1.
         23    2    1    2    0    0  0.00000000000E+00  0.00000000000E+00 -0.52993250043E+02  0.93796198769E+02  0.77391487603E+02 0.  0.
        -13    1    3    3    0    0 -0.97431989434E+01  0.92582030992E+01  0.17481646457E+02  0.22051127253E+02  0.00000000000E+00 0. -1.
         13    1    3    3    0    0  0.97431989434E+01 -0.92582030992E+01 -0.70474896500E+02  0.71745071517E+02  0.00000000000E+00 0.  1.
<mgrwt>
<rscale>  0 0.77391488E+02</rscale>
<asrwt>0</asrwt>
<pdfrwt beam="1">  1        2 0.31386884E-02 0.77391488E+02</pdfrwt>
<pdfrwt beam="2">  1       -2 0.11291496E-01 0.77391488E+02</pdfrwt>
<totfact> 0.13015527E+05</totfact>
</mgrwt>
</event>
<event>
 5    1  0.1242969E+001  0.9172425E+02  0.7546771E-02  0.1298729E+00
          4   -1    0    0  501    0  0.00000000000E+00  0.00000000000E+00  0.39513516372E+02  0.39513516372E+02  0.00000000000E+00 0. -1.
         -4   -1    0    0    0  501 -0.00000000000E+00 -0.00000000000E+00 -0.53230755644E+02  0.53230755644E+02  0.00000000000E+00 0.  1.
         23    2    1    2    0    0  0.00000000000E+00  0.00000000000E+00 -0.13717239272E+02  0.92744272016E+02  0.91724246187E+02 0.  0.
        -13    1    3    3    0    0  0.40981117970E+02 -0.20471731532E+02 -0.46455558006E+01  0.46044815242E+02  0.00000000000E+00 0.  1.
         13    1    3    3    0    0 -0.40981117970E+02  0.20471731532E+02 -0.90716834712E+01  0.46699456774E+02  0.00000000000E+00 0. -1.
<mgrwt>
<rscale>  0 0.91724246E+02</rscale>
<asrwt>0</asrwt>
<pdfrwt beam="1">  1        4 0.60790025E-02 0.91724246E+02</pdfrwt>
<pdfrwt beam="2">  1       -4 0.81893471E-02 0.91724246E+02</pdfrwt>
<totfact> 0.26481183E+04</totfact>
</mgrwt>
</event>
<event>
 5    1  0.1242969E+001  0.9226161E+02  0.7546771E-02  0.1297465E+00
         -1   -1    0    0    0  501 -0.00000000000E+00  0.00000000000E+00  0.20813554195E+03  0.20813554195E+03  0.00000000000E+00 0.  1.
          1   -1    0    0  501    0  0.00000000000E+00 -0.00000000000E+00 -0.10224352968E+02  0.10224352968E+02  0.00000000000E+00 0. -1.
         23    2    1    2    0    0  0.00000000000E+00  0.00000000000E+00  0.19791118898E+03  0.21835989492E+03  0.92261611652E+02 0.  0.
        -11    1    3    3    0    0  0.35301584780E+02  0.17907193618E+02  0.15502211687E+03  0.15999601929E+03  0.00000000000E+00 0.  1.
         11    1    3    3    0    0 -0.35301584780E+02 -0.17907193618E+02  0.42889072115E+02  0.58363875626E+02  0.00000000000E+00 0. -1.
<mgrwt>
<rscale>  0 0.92261612E+02</rscale>
<asrwt>0</asrwt>
<pdfrwt beam="2">  1        1 0.15729775E-02 0.92261612E+02</pdfrwt>
<pdfrwt beam="1">  1       -1 0.32020849E-01 0.92261612E+02</pdfrwt>
<totfact> 0.66539903E+04</totfact>
</mgrwt>
</event>
<event>
 5    1  0.1242969E+001  0.9131829E+02  0.7546771E-02  0.1299690E+00
          2   -1    0    0  501    0  0.00000000000E+00  0.00000000000E+00  0.13926422537E+02  0.13926422537E+02  0.00000000000E+00 0. -1.
         -2   -1    0    0    0  501 -0.00000000000E+00 -0.00000000000E+00 -0.14969799544E+03  0.14969799544E+03  0.00000000000E+00 0.  1.
         23    2    1    2    0    0  0.00000000000E+00  0.00000000000E+00 -0.13577157291E+03  0.16362441798E+03  0.91318290336E+02 0.  0.
        -11    1    3    3    0    0  0.16402412172E+02  0.26815340509E+02 -0.85487929567E+01  0.32575811159E+02  0.00000000000E+00 0. -1.
         11    1    3    3    0    0 -0.16402412172E+02 -0.26815340509E+02 -0.12722277995E+03  0.13104860682E+03  0.00000000000E+00 0.  1.
<mgrwt>
<rscale>  0 0.91318290E+02</rscale>
<asrwt>0</asrwt>
<pdfrwt beam="1">  1        2 0.21425265E-02 0.91318290E+02</pdfrwt>
<pdfrwt beam="2">  1       -2 0.23030461E-01 0.91318290E+02</pdfrwt>
<totfact> 0.69633748E+04</totfact>
</mgrwt>
</event>
<event>
 5    1  0.1242969E+001  0.9091624E+02  0.7546771E-02  0.1300648E+00
          1   -1    0    0  501    0  0.00000000000E+00  0.00000000000E+00  0.12642868117E+03  0.12642868117E+03  0.00000000000E+00 0. -1.
         -1   -1    0    0    0  501 -0.00000000000E+00 -0.00000000000E+00 -0.16344713553E+02  0.16344713553E+02  0.00000000000E+00 0.  1.
         23    2    1    2    0    0  0.00000000000E+00  0.00000000000E+00  0.11008396762E+03  0.14277339473E+03  0.90916237905E+02 0.  0.
        -13    1    3    3    0    0  0.45072341516E+02  0.58667503002E+01  0.56158889892E+02  0.72247876389E+02  0.00000000000E+00 0.  1.
         13    1    3    3    0    0 -0.45072341516E+02 -0.58667503002E+01  0.53925077729E+02  0.70525518338E+02  0.00000000000E+00 0. -1.
<mgrwt>
<rscale>  0 0.90916238E+02</rscale>
<asrwt>0</asrwt>
<pdfrwt beam="1">  1        1 0.19450566E-01 0.90916238E+02</pdfrwt>
<pdfrwt beam="2">  1       -1 0.25145714E-02 0.90916238E+02</pdfrwt>
<totfact> 0.10957515E+05</totfact>
</mgrwt>
</event>
<event>
 5    1  0.1242969E+001  0.8849446E+02  0.7546771E-02  0.1306539E+00
         -2   -1    0    0    0  501 -0.00000000000E+00  0.00000000000E+00  0.11371366259E+02  0.11371366259E+02  0.00000000000E+00 0.  1.
          2   -1    0    0  501    0  0.00000000000E+00 -0.00000000000E+00 -0.17217083113E+03  0.17217083113E+03  0.00000000000E+00 0. -1.
         23    2    1    2    0    0  0.00000000000E+00  0.00000000000E+00 -0.16079946487E+03  0.18354219739E+03  0.88494464911E+02 0.  0.
        -11    1    3    3    0    0  0.18368944786E+02 -0.30983863274E+02 -0.27100219413E+02  0.45075933802E+02  0.00000000000E+00 0.  1.
         11    1    3    3    0    0 -0.18368944786E+02  0.30983863274E+02 -0.13369924546E+03  0.13846626359E+03  0.00000000000E+00 0. -1.
<mgrwt>
<rscale>  0 0.88494465E+02</rscale>
<asrwt>0</asrwt>
<pdfrwt beam="2">  1        2 0.26487820E-01 0.88494465E+02</pdfrwt>
<pdfrwt beam="1">  1       -2 0.17494410E-02 0.88494465E+02</pdfrwt>
<totfact> 0.15892146E+05</totfact>
</mgrwt>
</event>
<event>
 5    1  0.1242969E+001  0.9030479E+02  0.7546771E-02  0.1302115E+00
          1   -1    0    0  501    0  0.00000000000E+00  0.00000000000E+00  0.29732635157E+03  0.29732635157E+03  0.00000000000E+00 0. -1.
         -1   -1    0    0    0  501 -0.00000000000E+00 -0.00000000000E+00 -0.68569064746E+01  0.68569064746E+01  0.00000000000E+00 0.  1.
         23    2    1    2    0    0  0.00000000000E+00  0.00000000000E+00  0.29046944510E+03  0.30418325805E+03  0.90304794672E+02 0.  0.
        -11    1    3    3    0    0  0.20538756394E+02  0.40116627088E+02  0.15449306345E+03  0.16093256643E+03  0.00000000000E+00 0. -1.
         11    1    3    3    0    0 -0.20538756394E+02 -0.40116627088E+02  0.13597638165E+03  0.14325069162E+03  0.00000000000E+00 0.  1.
<mgrwt>
<rscale>  0 0.90304795E+02</rscale>
<asrwt>0</asrwt>
<pdfrwt beam="1">  1        1 0.45742506E-01 0.90304795E+02</pdfrwt>
<pdfrwt beam="2">  1       -1 0.10549089E-02 0.90304795E+02</pdfrwt>
<totfact> 0.13121795E+05</totfact>
</mgrwt>
</event>
<event>
 5    1  0.1242969E+001  0.9446385E+02  0.7546771E-02  0.1292388E+00
         -3   -1    0    0    0  501 -0.00000000000E+00  0.00000000000E+00  0.16745708758E+02  0.16745708758E+02  0.00000000000E+00 0.  1.
          3   -1    0    0  501    0  0.00000000000E+00 -0.00000000000E+00 -0.13321949942E+03  0.13321949942E+03  0.00000000000E+00 0. -1.
         23    2    1    2    0    0  0.00000000000E+00  0.00000000000E+00 -0.11647379066E+03  0.14996520817E+03  0.94463854211E+02 0.  0.
        -11    1    3    3    0    0  0.42887580679E+02  0.80500003861E+01 -0.86931790460E+02  0.97269128069E+02  0.00000000000E+00 0. -1.
         11    1    3    3    0    0 -0.42887580679E+02 -0.80500003861E+01 -0.29542000197E+02  0.52696080104E+02  0.00000000000E+00 0.  1.
<mgrwt>
<rscale>  0 0.94463854E+02</rscale>
<asrwt>0</asrwt>
<pdfrwt beam="2">  1        3 0.20495308E-01 0.94463854E+02</pdfrwt>
<pdfrwt beam="1">  1       -3 0.25762629E-02 0.94463854E+02</pdfrwt>
<totfact> 0.28436246E+04</totfact>
</mgrwt>
</event>
<event>
 5    1  0.1242969E+001  0.9213230E+02  0.7546771E-02  0.1297769E+00
         -4   -1    0    0    0  501 -0.00000000000E+00  0.00000000000E+00  0.59748856820E+02  0.59748856820E+02  0.00000000000E+00 0.  1.
          4   -1    0    0  501    0  0.00000000000E+00 -0.00000000000E+00 -0.35516831647E+02  0.35516831647E+02  0.00000000000E+00 0. -1.
         23    2    1    2    0    0  0.00000000000E+00  0.00000000000E+00  0.24232025173E+02  0.95265688467E+02  0.92132298110E+02 0.  0.
        -13    1    3    3    0    0  0.40420066083E+02 -0.15470198492E+02 -0.41997724895E+01  0.43482719240E+02  0.00000000000E+00 0. -1.
         13    1    3    3    0    0 -0.40420066083E+02  0.15470198492E+02  0.28431797663E+02  0.51782969227E+02  0.00000000000E+00 0.  1.
<mgrwt>
<rscale>  0 0.92132298E+02</rscale>
<asrwt>0</asrwt>
<pdfrwt beam="2">  1        4 0.54641279E-02 0.92132298E+02</pdfrwt>
<pdfrwt beam="1">  1       -4 0.91921318E-02 0.92132298E+02</pdfrwt>
<totfact> 0.26007192E+04</totfact>
</mgrwt>
</event>
<event>
 5    1  0.1242969E+001  0.9074638E+02  0.7546771E-02  0.1301054E+00
         -2   -1    0    0    0  501 -0.00000000000E+00  0.00000000000E+00  0.11491918195E+03  0.11491918195E+03  0.00000000000E+00 0.  1.
          2   -1    0    0  501    0  0.00000000000E+00 -0.00000000000E+00 -0.17914557662E+02  0.17914557662E+02  0.00000000000E+00 0. -1.
         23    2    1    2    0    0  0.00000000000E+00  0.00000000000E+00  0.97004624293E+02  0.13283373962E+03  0.90746378694E+02 0.  0.
        -11    1    3    3    0    0 -0.16366324983E+02  0.33285495067E+02  0.10248728071E+02  0.38481387740E+02  0.00000000000E+00 0. -1.
         11    1    3    3    0    0  0.16366324983E+02 -0.33285495067E+02  0.86755896222E+02  0.94352351876E+02  0.00000000000E+00 0.  1.
<mgrwt>
<rscale>  0 0.90746379E+02</rscale>
<asrwt>0</asrwt>
<pdfrwt beam="2">  1        2 0.27560859E-02 0.90746379E+02</pdfrwt>
<pdfrwt beam="1">  1       -2 0.17679874E-01 0.90746379E+02</pdfrwt>
<totfact> 0.77379735E+04</totfact>
</mgrwt>
</event>
<event>
 5    1  0.1242969E+001  0.9096816E+02  0.7546771E-02  0.1300524E+00
          1   -1    0    0  501    0  0.00000000000E+00  0.00000000000E+00  0.31353396509E+03  0.31353396509E+03  0.00000000000E+00 0. -1.
         -1   -1    0    0    0  501 -0.00000000000E+00 -0.00000000000E+00 -0.65983332429E+01  0.65983332429E+01  0.00000000000E+00 0.  1.
         23    2    1    2    0    0  0.00000000000E+00  0.00000000000E+00  0.30693563185E+03  0.32013229834E+03  0.90968161126E+02 0.  0.
        -13    1    3    3    0    0 -0.30472532014E+02  0.33515918002E+02  0.16793909678E+03  0.17394088707E+03  0.00000000000E+00 0.  1.
         13    1    3    3    0    0  0.30472532014E+02 -0.33515918002E+02  0.13899653507E+03  0.14619141127E+03  0.00000000000E+00 0. -1.
<mgrwt>
<rscale>  0 0.90968161E+02</rscale>
<asrwt>0</asrwt>
<pdfrwt beam="1">  1        1 0.48235983E-01 0.90968161E+02</pdfrwt>
<pdfrwt beam="2">  1       -1 0.10151284E-02 0.90968161E+02</pdfrwt>
<totfact> 0.12998754E+05</totfact>
</mgrwt>
</event>
<event>
 5    1  0.1242969E+001  0.9282654E+02  0.7546771E-02  0.1296148E+00
          1   -1    0    0  501    0  0.00000000000E+00  0.00000000000E+00  0.28656032564E+02  0.28656032564E+02  0.00000000000E+00 0. -1.
         -1   -1    0    0    0  501 -0.00000000000E+00 -0.00000000000E+00 -0.75174105261E+02  0.75174105261E+02  0.00000000000E+00 0.  1.
         23    2    1    2    0    0  0.00000000000E+00  0.00000000000E+00 -0.46518072697E+02  0.10383013783E+03  0.92826539488E+02 0.  0.
        -13    1    3    3    0    0  0.42819145567E+02  0.15161358690E+01 -0.43218421175E+02  0.60857290639E+02  0.00000000000E+00 0.  1.
         13    1    3    3    0    0 -0.42819145567E+02 -0.15161358690E+01 -0.32996515220E+01  0.42972847186E+02  0.00000000000E+00 0. -1.
<mgrwt>
<rscale>  0 0.92826539E+02</rscale>
<asrwt>0</asrwt>
<pdfrwt beam="1">  1        1 0.44086204E-02 0.92826539E+02</pdfrwt>
<pdfrwt beam="2">  1       -1 0.11565247E-01 0.92826539E+02</pdfrwt>
<totfact> 0.81700881E+04</totfact>
</mgrwt>
</event>
<event>
 5    1  0.1242969E+001  0.9093900E+02  0.7546771E-02  0.1300594E+00
         -4   -1    0    0    0  501 -0.00000000000E+00  0.00000000000E+00  0.61153859593E+02  0.61153859593E+02  0.00000000000E+00 0.  1.
          4   -1    0    0  501    0  0.00000000000E+00 -0.00000000000E+00 -0.33807763493E+02  0.33807763493E+02  0.00000000000E+00 0. -1.
         23    2    1    2    0    0  0.00000000000E+00  0.00000000000E+00  0.27346096100E+02  0.94961623085E+02  0.90938995415E+02 0.  0.
        -13    1    3    3    0    0 -0.18241806825E+02 -0.32394374981E+02  0.41009583202E+02  0.55352912851E+02  0.00000000000E+00 0.  1.
         13    1    3    3    0    0  0.18241806825E+02  0.32394374981E+02 -0.13663487102E+02  0.39608710234E+02  0.00000000000E+00 0. -1.
<mgrwt>
<rscale>  0 0.90938995E+02</rscale>
<asrwt>0</asrwt>
<pdfrwt beam="2">  1        4 0.52011944E-02 0.90938995E+02</pdfrwt>
<pdfrwt beam="1">  1       -4 0.94082861E-02 0.90938995E+02</pdfrwt>
<totfact> 0.26964620E+04</totfact>
</mgrwt>
</event>
<event>
 5    1  0.1242969E+001  0.9220055E+02  0.7546771E-02  0.1297609E+00
          1   -1    0    0  501    0  0.00000000000E+00  0.00000000000E+00  0.33216249810E+02  0.33216249810E+02  0.00000000000E+00 0. -1.
         -1   -1    0    0    0  501 -0.00000000000E+00 -0.00000000000E+00 -0.63981802122E+02  0.63981802122E+02  0.00000000000E+00 0.  1.
         23    2    1    2    0    0  0.00000000000E+00  0.00000000000E+00 -0.30765552312E+02  0.97198051932E+02  0.92200553633E+02 0.  0.
        -11    1    3    3    0    0  0.41461018258E+02  0.14602745774E+02 -0.30027439727E+02  0.53234418900E+02  0.00000000000E+00 0.  1.
         11    1    3    3    0    0 -0.41461018258E+02 -0.14602745774E+02 -0.73811258594E+00  0.43963633031E+02  0.00000000000E+00 0. -1.
<mgrwt>
<rscale>  0 0.92200554E+02</rscale>
<asrwt>0</asrwt>
<pdfrwt beam="1">  1        1 0.51101923E-02 0.92200554E+02</pdfrwt>
<pdfrwt beam="2">  1       -1 0.98433540E-02 0.92200554E+02</pdfrwt>
<totfact> 0.85332610E+04</totfact>
</mgrwt>
</event>
<event>
 5    1  0.1242969E+001  0.9333194E+02  0.7546771E-02  0.1294978E+00
          1   -1    0    0  501    0  0.00000000000E+00  0.00000000000E+00  0.20678492102E+03  0.20678492102E+03  0.00000000000E+00 0. -1.
         -1   -1    0    0    0  501 -0.00000000000E+00 -0.00000000000E+00 -0.10531294140E+02  0.10531294140E+02  0.00000000000E+00 0.  1.
         23    2    1    2    0    0  0.00000000000E+00  0.00000000000E+00  0.19625362688E+03  0.21731621516E+03  0.93331941521E+02 0.  0.
        -11    1    3    3    0    0  0.32120775437E+02 -0.30684134469E+02  0.13142020585E+03  0.13872465833E+03  0.00000000000E+00 0. -1.
         11    1    3    3    0    0 -0.32120775437E+02  0.30684134469E+02  0.64833421030E+02  0.78591556832E+02  0.00000000000E+00 0.  1.
<mgrwt>
<rscale>  0 0.93331942E+02</rscale>
<asrwt>0</asrwt>
<pdfrwt beam="1">  1        1 0.31813062E-01 0.93331942E+02</pdfrwt>
<pdfrwt beam="2">  1       -1 0.16201993E-02 0.93331942E+02</pdfrwt>
<totfact> 0.11192836E+05</totfact>
</mgrwt>
</event>
<event>
 5    1  0.1242969E+001  0.8811369E+02  0.7546771E-02  0.1307485E+00
         -2   -1    0    0    0  501 -0.00000000000E+00  0.00000000000E+00  0.10800711263E+02  0.10800711263E+02  0.00000000000E+00 0.  1.
          2   -1    0    0  501    0  0.00000000000E+00 -0.00000000000E+00 -0.17971092345E+03  0.17971092345E+03  0.00000000000E+00 0. -1.
         23    2    1    2    0    0  0.00000000000E+00  0.00000000000E+00 -0.16891021219E+03  0.19051163471E+03  0.88113694622E+02 0.  0.
        -11    1    3    3    0    0 -0.24311823739E+02 -0.11904931926E+02 -0.93014773602E+01  0.28623585708E+02  0.00000000000E+00 0.  1.
         11    1    3    3    0    0  0.24311823739E+02  0.11904931926E+02 -0.15960873483E+03  0.16188804900E+03  0.00000000000E+00 0. -1.
<mgrwt>
<rscale>  0 0.88113695E+02</rscale>
<asrwt>0</asrwt>
<pdfrwt beam="2">  1        2 0.27647835E-01 0.88113695E+02</pdfrwt>
<pdfrwt beam="1">  1       -2 0.16616479E-02 0.88113695E+02</pdfrwt>
<totfact> 0.16320744E+05</totfact>
</mgrwt>
</event>
<event>
 5    1  0.1242969E+001  0.8779613E+02  0.7546771E-02  0.1308278E+00
          1   -1    0    0  501    0  0.00000000000E+00  0.00000000000E+00  0.24540956246E+02  0.24540956246E+02  0.00000000000E+00 0. -1.
         -1   -1    0    0    0  501 -0.00000000000E+00 -0.00000000000E+00 -0.78523427887E+02  0.78523427887E+02  0.00000000000E+00 0.  1.
         23    2    1    2    0    0  0.00000000000E+00  0.00000000000E+00 -0.53982471641E+02  0.10306438413E+03  0.87796127662E+02 0.  0.
        -11    1    3    3    0    0  0.24274679228E+02 -0.33667312590E+02 -0.10212510984E+02  0.42743927864E+02  0.00000000000E+00 0. -1.
         11    1    3    3    0    0 -0.24274679228E+02  0.33667312590E+02 -0.43769960656E+02  0.60320456269E+02  0.00000000000E+00 0.  1.
<mgrwt>
<rscale>  0 0.87796128E+02</rscale>
<asrwt>0</asrwt>
<pdfrwt beam="1">  1        1 0.37755318E-02 0.87796128E+02</pdfrwt>
<pdfrwt beam="2">  1       -1 0.12080527E-01 0.87796128E+02</pdfrwt>
<totfact> 0.93523310E+04</totfact>
</mgrwt>
</event>
<event>
 5    1  0.1242969E+001  0.8551535E+02  0.7546771E-02  0.1314090E+00
         -2   -1    0    0    0  501 -0.00000000000E+00  0.00000000000E+00  0.26874536042E+02  0.26874536042E+02  0.00000000000E+00 0.  1.
          2   -1    0    0  501    0  0.00000000000E+00 -0.00000000000E+00 -0.68027917499E+02  0.68027917499E+02  0.00000000000E+00 0. -1.
         23    2    1    2    0    0  0.00000000000E+00  0.00000000000E+00 -0.41153381457E+02  0.94902453540E+02  0.85515348813E+02 0.  0.
        -11    1    3    3    0    0 -0.11207282726E+02 -0.36025518761E+02 -0.42904266317E+02  0.57133328770E+02  0.00000000000E+00 0. -1.
         11    1    3    3    0    0  0.11207282726E+02  0.36025518761E+02  0.17508848603E+01  0.37769124770E+02  0.00000000000E+00 0.  1.
<mgrwt>
<rscale>  0 0.85515349E+02</rscale>
<asrwt>0</asrwt>
<pdfrwt beam="2">  1        2 0.10465833E-01 0.85515349E+02</pdfrwt>
<pdfrwt beam="1">  1       -2 0.41345440E-02 0.85515349E+02</pdfrwt>
<totfact> 0.13119685E+05</totfact>
</mgrwt>
</event>
<event>
 5    1  0.1242969E+001  0.9126534E+02  0.7546771E-02  0.1299816E+00
          1   -1    0    0  501    0  0.00000000000E+00  0.00000000000E+00  0.14815043099E+03  0.14815043099E+03  0.00000000000E+00 0. -1.
         -1   -1    0    0    0  501 -0.00000000000E+00 -0.00000000000E+00 -0.14055583119E+02  0.14055583119E+02  0.00000000000E+00 0.  1.
         23    2    1    2    0    0  0.00000000000E+00  0.00000000000E+00  0.13409484787E+03  0.16220601411E+03  0.91265342751E+02 0.  0.
        -11    1    3    3    0    0  0.25360330894E+02  0.19111779188E+01  0.13438678193E+03  0.13677209562E+03  0.00000000000E+00 0. -1.
         11    1    3    3    0    0 -0.25360330894E+02 -0.19111779188E+01 -0.29193405629E+00  0.25433918487E+02  0.00000000000E+00 0.  1.
<mgrwt>
<rscale>  0 0.91265343E+02</rscale>
<asrwt>0</asrwt>
<pdfrwt beam="1">  1        1 0.22792373E-01 0.91265343E+02</pdfrwt>
<pdfrwt beam="2">  1       -1 0.21623975E-02 0.91265343E+02</pdfrwt>
<totfact> 0.11158476E+05</totfact>
</mgrwt>
</event>
<event>
 5    1  0.1242969E+001  0.9162827E+02  0.7546771E-02  0.1298956E+00
         -1   -1    0    0    0  501 -0.00000000000E+00  0.00000000000E+00  0.82661837436E+02  0.82661837436E+02  0.00000000000E+00 0.  1.
          1   -1    0    0  501    0  0.00000000000E+00 -0.00000000000E+00 -0.25391826370E+02  0.25391826370E+02  0.00000000000E+00 0. -1.
         23    2    1    2    0    0  0.00000000000E+00  0.00000000000E+00  0.57270011066E+02  0.10805366381E+03  0.91628271262E+02 0.  0.
        -13    1    3    3    0    0  0.30536104233E+02 -0.25797450941E+02  0.22402821250E+01  0.40037245170E+02  0.00000000000E+00 0. -1.
         13    1    3    3    0    0 -0.30536104233E+02  0.25797450941E+02  0.55029728941E+02  0.68016418636E+02  0.00000000000E+00 0.  1.
<mgrwt>
<rscale>  0 0.91628271E+02</rscale>
<asrwt>0</asrwt>
<pdfrwt beam="2">  1        1 0.39064349E-02 0.91628271E+02</pdfrwt>
<pdfrwt beam="1">  1       -1 0.12717206E-01 0.91628271E+02</pdfrwt>
<totfact> 0.83120833E+04</totfact>
</mgrwt>
</event>
<event>
 5    1  0.1242969E+001  0.9430983E+02  0.7546771E-02  0.1292738E+00
         -1   -1    0    0    0  501 -0.00000000000E+00  0.00000000000E+00  0.80832264732E+02  0.80832264732E+02  0.00000000000E+00 0. -1.
          1   -1    0    0  501    0  0.00000000000E+00 -0.00000000000E+00 -0.27508642271E+02  0.27508642271E+02  0.00000000000E+00 0.  1.
         23    2    1    2    0    0  0.00000000000E+00  0.00000000000E+00  0.53323622461E+02  0.10834090700E+03  0.94309826730E+02 0.  0.
        -13    1    3    3    0    0  0.34541714860E+02 -0.31661694839E+02  0.32739790656E+02  0.57161935567E+02  0.00000000000E+00 0. -1.
         13    1    3    3    0    0 -0.34541714860E+02  0.31661694839E+02  0.20583831805E+02  0.51178971437E+02  0.00000000000E+00 0.  1.
<mgrwt>
<rscale>  0 0.94309827E+02</rscale>
<asrwt>0</asrwt>
<pdfrwt beam="2">  1        1 0.42320988E-02 0.94309827E+02</pdfrwt>
<pdfrwt beam="1">  1       -1 0.12435733E-01 0.94309827E+02</pdfrwt>
<totfact> 0.77490805E+04</totfact>
</mgrwt>
</event>
<event>
 5    1  0.1242969E+001  0.9067752E+02  0.7546771E-02  0.1301219E+00
         -2   -1    0    0    0  501 -0.00000000000E+00  0.00000000000E+00  0.11720025883E+02  0.11720025883E+02  0.00000000000E+00 0.  1.
          2   -1    0    0  501    0  0.00000000000E+00 -0.00000000000E+00 -0.17539235783E+03  0.17539235783E+03  0.00000000000E+00 0. -1.
         23    2    1    2    0    0  0.00000000000E+00  0.00000000000E+00 -0.16367233195E+03  0.18711238371E+03  0.90677515921E+02 0.  0.
        -13    1    3    3    0    0  0.24576878477E+02  0.34246071345E+02 -0.47382227274E+02  0.63418387079E+02  0.00000000000E+00 0. -1.
         13    1    3    3    0    0 -0.24576878477E+02 -0.34246071345E+02 -0.11629010467E+03  0.12369399663E+03  0.00000000000E+00 0.  1.
<mgrwt>
<rscale>  0 0.90677516E+02</rscale>
<asrwt>0</asrwt>
<pdfrwt beam="2">  1        2 0.26983439E-01 0.90677516E+02</pdfrwt>
<pdfrwt beam="1">  1       -2 0.18030809E-02 0.90677516E+02</pdfrwt>
<totfact> 0.14979066E+05</totfact>
</mgrwt>
</event>
<event>
 5    1  0.1242969E+001  0.9029615E+02  0.7546771E-02  0.1302136E+00
          1   -1    0    0  501    0  0.00000000000E+00  0.00000000000E+00  0.33875474336E+02  0.33875474336E+02  0.00000000000E+00 0. -1.
         -1   -1    0    0    0  501 -0.00000000000E+00 -0.00000000000E+00 -0.60171806967E+02  0.60171806967E+02  0.00000000000E+00 0.  1.
         23    2    1    2    0    0  0.00000000000E+00  0.00000000000E+00 -0.26296332630E+02  0.94047281303E+02  0.90296146156E+02 0.  0.
        -11    1    3    3    0    0 -0.84308778601E+01  0.61409347940E+01 -0.58899727477E+02  0.59816123900E+02  0.00000000000E+00 0.  1.
         11    1    3    3    0    0  0.84308778601E+01 -0.61409347940E+01  0.32603394846E+02  0.34231157403E+02  0.00000000000E+00 0. -1.
<mgrwt>
<rscale>  0 0.90296146E+02</rscale>
<asrwt>0</asrwt>
<pdfrwt beam="1">  1        1 0.52116114E-02 0.90296146E+02</pdfrwt>
<pdfrwt beam="2">  1       -1 0.92572011E-02 0.90296146E+02</pdfrwt>
<totfact> 0.90847940E+04</totfact>
</mgrwt>
</event>
<event>
 5    1  0.1242969E+001  0.9140248E+02  0.7546771E-02  0.1299491E+00
          1   -1    0    0  501    0  0.00000000000E+00  0.00000000000E+00  0.40332209788E+03  0.40332209788E+03  0.00000000000E+00 0. -1.
         -1   -1    0    0    0  501 -0.00000000000E+00 -0.00000000000E+00 -0.51784993333E+01  0.51784993333E+01  0.00000000000E+00 0.  1.
         23    2    1    2    0    0  0.00000000000E+00  0.00000000000E+00  0.39814359854E+03  0.40850059721E+03  0.91402477318E+02 0.  0.
        -13    1    3    3    0    0  0.30013909183E+02 -0.34120913366E+02  0.17739167515E+03  0.18311984569E+03  0.00000000000E+00 0.  1.
         13    1    3    3    0    0 -0.30013909183E+02  0.34120913366E+02  0.22075192340E+03  0.22538075152E+03  0.00000000000E+00 0. -1.
<mgrwt>
<rscale>  0 0.91402477E+02</rscale>
<asrwt>0</asrwt>
<pdfrwt beam="1">  1        1 0.62049529E-01 0.91402477E+02</pdfrwt>
<pdfrwt beam="2">  1       -1 0.79669253E-03 0.91402477E+02</pdfrwt>
<totfact> 0.13418956E+05</totfact>
</mgrwt>
</event>
<event>
 5    1  0.1242969E+001  0.8890566E+02  0.7546771E-02  0.1305524E+00
         -2   -1    0    0    0  501 -0.00000000000E+00  0.00000000000E+00  0.12363051082E+03  0.12363051082E+03  0.00000000000E+00 0. -1.
          2   -1    0    0  501    0  0.00000000000E+00 -0.00000000000E+00 -0.15983547629E+02  0.15983547629E+02  0.00000000000E+00 0.  1.
         23    2    1    2    0    0  0.00000000000E+00  0.00000000000E+00  0.10764696319E+03  0.13961405845E+03  0.88905661419E+02 0.  0.
        -11    1    3    3    0    0  0.24093763628E+02 -0.18054969919E+02  0.10518086323E+03  0.10940523468E+03  0.00000000000E+00 0. -1.
         11    1    3    3    0    0 -0.24093763628E+02  0.18054969919E+02  0.24660999574E+01  0.30208823770E+02  0.00000000000E+00 0.  1.
<mgrwt>
<rscale>  0 0.88905661E+02</rscale>
<asrwt>0</asrwt>
<pdfrwt beam="2">  1        2 0.24590074E-02 0.88905661E+02</pdfrwt>
<pdfrwt beam="1">  1       -2 0.19020078E-01 0.88905661E+02</pdfrwt>
<totfact> 0.79570298E+04</totfact>
</mgrwt>
</event>
<event>
 5    1  0.1242969E+001  0.9131981E+02  0.7546771E-02  0.1299687E+00
          1   -1    0    0  501    0  0.00000000000E+00  0.00000000000E+00  0.11418360003E+03  0.11418360003E+03  0.00000000000E+00 0. -1.
         -1   -1    0    0    0  501 -0.00000000000E+00 -0.00000000000E+00 -0.18258547643E+02  0.18258547643E+02  0.00000000000E+00 0.  1.
         23    2    1    2    0    0  0.00000000000E+00  0.00000000000E+00  0.95925052384E+02  0.13244214767E+03  0.91319805105E+02 0.  0.
        -13    1    3    3    0    0  0.40787326996E+02 -0.11931605589E+02  0.72181311711E+02  0.83762229052E+02  0.00000000000E+00 0. -1.
         13    1    3    3    0    0 -0.40787326996E+02  0.11931605589E+02  0.23743740673E+02  0.48679918617E+02  0.00000000000E+00 0.  1.
<mgrwt>
<rscale>  0 0.91319805E+02</rscale>
<asrwt>0</asrwt>
<pdfrwt beam="1">  1        1 0.17566707E-01 0.91319805E+02</pdfrwt>
<pdfrwt beam="2">  1       -1 0.28090074E-02 0.91319805E+02</pdfrwt>
<totfact> 0.10636452E+05</totfact>
</mgrwt>
</event>
<event>
 5    1  0.1242969E+001  0.8851485E+02  0.7546771E-02  0.1306489E+00
          4   -1    0    0  501    0  0.00000000000E+00  0.00000000000E+00  0.21245007741E+02  0.21245007741E+02  0.00000000000E+00 0.  1.
         -4   -1    0    0    0  501 -0.00000000000E+00 -0.00000000000E+00 -0.92196694654E+02  0.92196694654E+02  0.00000000000E+00 0. -1.
         23    2    1    2    0    0  0.00000000000E+00  0.00000000000E+00 -0.70951686913E+02  0.11344170240E+03  0.88514846024E+02 0.  0.
        -11    1    3    3    0    0  0.27017271163E+02  0.38136400392E+01  0.91831949515E+01  0.28789023272E+02  0.00000000000E+00 0.  1.
         11    1    3    3    0    0 -0.27017271163E+02 -0.38136400392E+01 -0.80134881864E+02  0.84652679124E+02  0.00000000000E+00 0. -1.
<mgrwt>
<rscale>  0 0.88514846E+02</rscale>
<asrwt>0</asrwt>
<pdfrwt beam="1">  1        4 0.32684628E-02 0.88514846E+02</pdfrwt>
<pdfrwt beam="2">  1       -4 0.14184107E-01 0.88514846E+02</pdfrwt>
<totfact> 0.27781437E+04</totfact>
</mgrwt>
</event>
<event>
 5    1  0.1242969E+001  0.8566026E+02  0.7546771E-02  0.1313715E+00
          2   -1    0    0  501    0  0.00000000000E+00  0.00000000000E+00  0.20875642329E+03  0.20875642329E+03  0.00000000000E+00 0. -1.
         -2   -1    0    0    0  501 -0.00000000000E+00 -0.00000000000E+00 -0.87873713278E+01  0.87873713278E+01  0.00000000000E+00 0.  1.
         23    2    1    2    0    0  0.00000000000E+00  0.00000000000E+00  0.19996905196E+03  0.21754379462E+03  0.85660264032E+02 0.  0.
        -11    1    3    3    0    0  0.31930314647E+02  0.11097253275E+00  0.17247977794E+03  0.17541046464E+03  0.00000000000E+00 0. -1.
         11    1    3    3    0    0 -0.31930314647E+02 -0.11097253275E+00  0.27489274020E+02  0.42133329972E+02  0.00000000000E+00 0.  1.
<mgrwt>
<rscale>  0 0.85660264E+02</rscale>
<asrwt>0</asrwt>
<pdfrwt beam="1">  1        2 0.32116369E-01 0.85660264E+02</pdfrwt>
<pdfrwt beam="2">  1       -2 0.13519034E-02 0.85660264E+02</pdfrwt>
<totfact> 0.18568172E+05</totfact>
</mgrwt>
</event>
<event>
 4    1  0.1242969E+001  0.5114791E+02  0.7546771E-02  0.1439247E+00
         -2   -1    0    0    0  501 -0.00000000000E+00  0.00000000000E+00  0.38940885477E+01  0.38940885477E+01  0.00000000000E+00 0.  1.
          2   -1    0    0  501    0  0.00000000000E+00 -0.00000000000E+00 -0.16795385515E+03  0.16795385515E+03  0.00000000000E+00 0. -1.
        -11    1    1    2    0    0 -0.18924865188E+02 -0.17186671944E+02 -0.84393654555E+02  0.88180616601E+02  0.00000000000E+00 0.  1.
         11    1    1    2    0    0  0.18924865188E+02  0.17186671944E+02 -0.79666112047E+02  0.83667327097E+02  0.00000000000E+00 0. -1.
<mgrwt>
<rscale>  0 0.51147910E+02</rscale>
<asrwt>0</asrwt>
<pdfrwt beam="2">  1        2 0.25839056E-01 0.51147910E+02</pdfrwt>
<pdfrwt beam="1">  1       -2 0.59909052E-03 0.51147910E+02</pdfrwt>
<totfact> 0.65703724E+05</totfact>
</mgrwt>
</event>
<event>
 5    1  0.1242969E+001  0.9107394E+02  0.7546771E-02  0.1300272E+00
         -2   -1    0    0    0  501 -0.00000000000E+00  0.00000000000E+00  0.10212126394E+02  0.10212126394E+02  0.00000000000E+00 0. -1.
          2   -1    0    0  501    0  0.00000000000E+00 -0.00000000000E+00 -0.20305426209E+03  0.20305426209E+03  0.00000000000E+00 0.  1.
         23    2    1    2    0    0  0.00000000000E+00  0.00000000000E+00 -0.19284213569E+03  0.21326638848E+03  0.91073943351E+02 0.  0.
        -11    1    3    3    0    0  0.24824342077E+02  0.38111343734E+02 -0.91241070018E+02  0.10194927827E+03  0.00000000000E+00 0.  1.
         11    1    3    3    0    0 -0.24824342077E+02 -0.38111343734E+02 -0.10160106568E+03  0.11131711022E+03  0.00000000000E+00 0. -1.
<mgrwt>
<rscale>  0 0.91073943E+02</rscale>
<asrwt>0</asrwt>
<pdfrwt beam="2">  1        2 0.31239115E-01 0.91073943E+02</pdfrwt>
<pdfrwt beam="1">  1       -2 0.15710965E-02 0.91073943E+02</pdfrwt>
<totfact> 0.15600438E+05</totfact>
</mgrwt>
</event>
<event>
 5    1  0.1242969E+001  0.8988907E+02  0.7546771E-02  0.1303121E+00
         -1   -1    0    0    0  501 -0.00000000000E+00  0.00000000000E+00  0.23840319029E+02  0.23840319029E+02  0.00000000000E+00 0.  1.
          1   -1    0    0  501    0  0.00000000000E+00 -0.00000000000E+00 -0.84730878204E+02  0.84730878204E+02  0.00000000000E+00 0. -1.
         23    2    1    2    0    0  0.00000000000E+00  0.00000000000E+00 -0.60890559174E+02  0.10857119723E+03  0.89889068701E+02 0.  0.
        -11    1    3    3    0    0  0.19149655573E+02  0.40604894917E+02 -0.27870473656E+02  0.52841556578E+02  0.00000000000E+00 0. -1.
         11    1    3    3    0    0 -0.19149655573E+02 -0.40604894917E+02 -0.33020085519E+02  0.55729640655E+02  0.00000000000E+00 0.  1.
<mgrwt>
<rscale>  0 0.89889069E+02</rscale>
<asrwt>0</asrwt>
<pdfrwt beam="2">  1        1 0.13035520E-01 0.89889069E+02</pdfrwt>
<pdfrwt beam="1">  1       -1 0.36677414E-02 0.89889069E+02</pdfrwt>
<totfact> 0.10570088E+05</totfact>
</mgrwt>
</event>
<event>
 5    1  0.1242969E+001  0.9011140E+02  0.7546771E-02  0.1302582E+00
         -1   -1    0    0    0  501 -0.00000000000E+00  0.00000000000E+00  0.46902223323E+03  0.46902223323E+03  0.00000000000E+00 0.  1.
          1   -1    0    0  501    0  0.00000000000E+00 -0.00000000000E+00 -0.43281871675E+01  0.43281871675E+01  0.00000000000E+00 0. -1.
         23    2    1    2    0    0  0.00000000000E+00  0.00000000000E+00  0.46469404606E+03  0.47335042039E+03  0.90111397972E+02 0.  0.
        -13    1    3    3    0    0  0.43869607392E+02  0.10053923413E+02  0.22133814082E+03  0.22586765242E+03  0.00000000000E+00 0. -1.
         13    1    3    3    0    0 -0.43869607392E+02 -0.10053923413E+02  0.24335590524E+03  0.24748276797E+03  0.00000000000E+00 0.  1.
<mgrwt>
<rscale>  0 0.90111398E+02</rscale>
<asrwt>0</asrwt>
<pdfrwt beam="2">  1        1 0.66587532E-03 0.90111398E+02</pdfrwt>
<pdfrwt beam="1">  1       -1 0.72157227E-01 0.90111398E+02</pdfrwt>
<totfact> 0.50409523E+04</totfact>
</mgrwt>
</event>
<event>
 5    1  0.1242969E+001  0.9023288E+02  0.7546771E-02  0.1302289E+00
          3   -1    0    0  501    0  0.00000000000E+00  0.00000000000E+00  0.42664775951E+02  0.42664775951E+02  0.00000000000E+00 0. -1.
         -3   -1    0    0    0  501 -0.00000000000E+00 -0.00000000000E+00 -0.47708980888E+02  0.47708980888E+02  0.00000000000E+00 0.  1.
         23    2    1    2    0    0  0.00000000000E+00  0.00000000000E+00 -0.50442049372E+01  0.90373756839E+02  0.90232876058E+02 0.  0.
        -13    1    3    3    0    0  0.24691207115E+02 -0.20755268995E+02 -0.34115862494E+02  0.46950281933E+02  0.00000000000E+00 0.  1.
         13    1    3    3    0    0 -0.24691207115E+02  0.20755268995E+02  0.29071657556E+02  0.43423474906E+02  0.00000000000E+00 0. -1.
<mgrwt>
<rscale>  0 0.90232876E+02</rscale>
<asrwt>0</asrwt>
<pdfrwt beam="1">  1        3 0.65638117E-02 0.90232876E+02</pdfrwt>
<pdfrwt beam="2">  1       -3 0.73398432E-02 0.90232876E+02</pdfrwt>
<totfact> 0.36417131E+04</totfact>
</mgrwt>
</event>
<event>
 5    1  0.1242969E+001  0.8974732E+02  0.7546771E-02  0.1303465E+00
          2   -1    0    0  501    0  0.00000000000E+00  0.00000000000E+00  0.76185942625E+01  0.76185942625E+01  0.00000000000E+00 0. -1.
         -2   -1    0    0    0  501 -0.00000000000E+00 -0.00000000000E+00 -0.26430666030E+03  0.26430666030E+03  0.00000000000E+00 0.  1.
         23    2    1    2    0    0  0.00000000000E+00  0.00000000000E+00 -0.25668806604E+03  0.27192525456E+03  0.89747316521E+02 0.  0.
        -11    1    3    3    0    0 -0.28154870290E+02  0.25333814449E+02 -0.20125993059E+03  0.20479272091E+03  0.00000000000E+00 0. -1.
         11    1    3    3    0    0  0.28154870290E+02 -0.25333814449E+02 -0.55428135442E+02  0.67132533649E+02  0.00000000000E+00 0.  1.
<mgrwt>
<rscale>  0 0.89747317E+02</rscale>
<asrwt>0</asrwt>
<pdfrwt beam="1">  1        2 0.11720914E-02 0.89747317E+02</pdfrwt>
<pdfrwt beam="2">  1       -2 0.40662565E-01 0.89747317E+02</pdfrwt>
<totfact> 0.56870803E+04</totfact>
</mgrwt>
</event>
<event>
 5    1  0.1242969E+001  0.9022526E+02  0.7546771E-02  0.1302307E+00
         -3   -1    0    0    0  501 -0.00000000000E+00  0.00000000000E+00  0.66913786764E+02  0.66913786764E+02  0.00000000000E+00 0.  1.
          3   -1    0    0  501    0  0.00000000000E+00 -0.00000000000E+00 -0.30414500930E+02  0.30414500930E+02  0.00000000000E+00 0. -1.
         23    2    1    2    0    0  0.00000000000E+00  0.00000000000E+00  0.36499285834E+02  0.97328287694E+02  0.90225260981E+02 0.  0.
        -13    1    3    3    0    0  0.16148470262E+02  0.20995919006E+02  0.57642294695E+02  0.63436865027E+02  0.00000000000E+00 0.  1.
         13    1    3    3    0    0 -0.16148470262E+02 -0.20995919006E+02 -0.21143008861E+02  0.33891422667E+02  0.00000000000E+00 0. -1.
<mgrwt>
<rscale>  0 0.90225261E+02</rscale>
<asrwt>0</asrwt>
<pdfrwt beam="2">  1        3 0.46791540E-02 0.90225261E+02</pdfrwt>
<pdfrwt beam="1">  1       -3 0.10294429E-01 0.90225261E+02</pdfrwt>
<totfact> 0.35880076E+04</totfact>
</mgrwt>
</event>
<event>
 5    1  0.1242969E+001  0.9209041E+02  0.7546771E-02  0.1297867E+00
         -1   -1    0    0    0  501 -0.00000000000E+00  0.00000000000E+00  0.12730389580E+03  0.12730389580E+03  0.00000000000E+00 0.  1.
          1   -1    0    0  501    0  0.00000000000E+00 -0.00000000000E+00 -0.16654329597E+02  0.16654329597E+02  0.00000000000E+00 0. -1.
         23    2    1    2    0    0  0.00000000000E+00  0.00000000000E+00  0.11064956621E+03  0.14395822540E+03  0.92090412959E+02 0.  0.
        -11    1    3    3    0    0  0.16506892189E+02  0.15928036592E+02  0.11773614526E+03  0.11994990513E+03  0.00000000000E+00 0.  1.
         11    1    3    3    0    0 -0.16506892189E+02 -0.15928036592E+02 -0.70865790579E+01  0.24008320270E+02  0.00000000000E+00 0. -1.
<mgrwt>
<rscale>  0 0.92090413E+02</rscale>
<asrwt>0</asrwt>
<pdfrwt beam="2">  1        1 0.25622046E-02 0.92090413E+02</pdfrwt>
<pdfrwt beam="1">  1       -1 0.19585214E-01 0.92090413E+02</pdfrwt>
<totfact> 0.75592233E+04</totfact>
</mgrwt>
</event>
<event>
 5    1  0.1242969E+001  0.9466335E+02  0.7546771E-02  0.1291936E+00
          4   -1    0    0  501    0  0.00000000000E+00  0.00000000000E+00  0.11348312443E+02  0.11348312443E+02  0.00000000000E+00 0. -1.
         -4   -1    0    0    0  501 -0.00000000000E+00 -0.00000000000E+00 -0.19741150516E+03  0.19741150516E+03  0.00000000000E+00 0.  1.
         23    2    1    2    0    0  0.00000000000E+00  0.00000000000E+00 -0.18606319271E+03  0.20875981760E+03  0.94663349622E+02 0.  0.
        -11    1    3    3    0    0  0.12241459389E+01 -0.37158718565E+02 -0.15762874933E+03  0.16195397962E+03  0.00000000000E+00 0.  1.
         11    1    3    3    0    0 -0.12241459389E+01  0.37158718565E+02 -0.28434443383E+02  0.46805837982E+02  0.00000000000E+00 0. -1.
<mgrwt>
<rscale>  0 0.94663350E+02</rscale>
<asrwt>0</asrwt>
<pdfrwt beam="1">  1        4 0.17458942E-02 0.94663350E+02</pdfrwt>
<pdfrwt beam="2">  1       -4 0.30371001E-01 0.94663350E+02</pdfrwt>
<totfact> 0.19009688E+04</totfact>
</mgrwt>
</event>
<event>
 5    1  0.1242969E+001  0.8913371E+02  0.7546771E-02  0.1304963E+00
          1   -1    0    0  501    0  0.00000000000E+00  0.00000000000E+00  0.12842827461E+02  0.12842827461E+02  0.00000000000E+00 0. -1.
         -1   -1    0    0    0  501 -0.00000000000E+00 -0.00000000000E+00 -0.15465476557E+03  0.15465476557E+03  0.00000000000E+00 0.  1.
         23    2    1    2    0    0  0.00000000000E+00  0.00000000000E+00 -0.14181193811E+03  0.16749759303E+03  0.89133707883E+02 0.  0.
        -13    1    3    3    0    0 -0.34222702785E+02  0.24954950037E+02 -0.44849664587E+02  0.61688210631E+02  0.00000000000E+00 0. -1.
         13    1    3    3    0    0  0.34222702785E+02 -0.24954950037E+02 -0.96962273523E+02  0.10580938240E+03  0.00000000000E+00 0.  1.
<mgrwt>
<rscale>  0 0.89133708E+02</rscale>
<asrwt>0</asrwt>
<pdfrwt beam="1">  1        1 0.19758195E-02 0.89133708E+02</pdfrwt>
<pdfrwt beam="2">  1       -1 0.23793042E-01 0.89133708E+02</pdfrwt>
<totfact> 0.78744379E+04</totfact>
</mgrwt>
</event>
<event>
 5    1  0.1242969E+001  0.6825256E+02  0.7546771E-02  0.1366138E+00
          4   -1    0    0  501    0  0.00000000000E+00  0.00000000000E+00  0.33616865665E+02  0.33616865665E+02  0.00000000000E+00 0.  1.
         -4   -1    0    0    0  501 -0.00000000000E+00 -0.00000000000E+00 -0.34643409200E+02  0.34643409200E+02  0.00000000000E+00 0. -1.
         23    2    1    2    0    0  0.00000000000E+00  0.00000000000E+00 -0.10265435355E+01  0.68260274865E+02  0.68252555505E+02 0.  0.
        -11    1    3    3    0    0  0.21035667718E+02 -0.26790991183E+02 -0.25982877255E+01  0.34161493293E+02  0.00000000000E+00 0.  1.
         11    1    3    3    0    0 -0.21035667718E+02  0.26790991183E+02  0.15717441901E+01  0.34098781572E+02  0.00000000000E+00 0. -1.
<mgrwt>
<rscale>  0 0.68252556E+02</rscale>
<asrwt>0</asrwt>
<pdfrwt beam="1">  1        4 0.51718255E-02 0.68252556E+02</pdfrwt>
<pdfrwt beam="2">  1       -4 0.53297552E-02 0.68252556E+02</pdfrwt>
<totfact> 0.61874837E+04</totfact>
</mgrwt>
</event>
<event>
 5    1  0.1242969E+001  0.1043857E+03  0.7546771E-02  0.1271335E+00
          3   -1    0    0  501    0  0.00000000000E+00  0.00000000000E+00  0.16333995810E+02  0.16333995810E+02  0.00000000000E+00 0. -1.
         -3   -1    0    0    0  501 -0.00000000000E+00 -0.00000000000E+00 -0.16677441055E+03  0.16677441055E+03  0.00000000000E+00 0.  1.
         23    2    1    2    0    0  0.00000000000E+00  0.00000000000E+00 -0.15044041474E+03  0.18310840636E+03  0.10438567954E+03 0.  0.
        -13    1    3    3    0    0 -0.47911731877E+02 -0.11329528132E+02 -0.44827254611E+02  0.66583594189E+02  0.00000000000E+00 0. -1.
         13    1    3    3    0    0  0.47911731877E+02  0.11329528132E+02 -0.10561316013E+03  0.11652481217E+03  0.00000000000E+00 0.  1.
<mgrwt>
<rscale>  0 0.10438568E+03</rscale>
<asrwt>0</asrwt>
<pdfrwt beam="1">  1        3 0.25129224E-02 0.10438568E+03</pdfrwt>
<pdfrwt beam="2">  1       -3 0.25657602E-01 0.10438568E+03</pdfrwt>
<totfact> 0.20331154E+04</totfact>
</mgrwt>
</event>
<event>
 5    1  0.1242969E+001  0.9143682E+02  0.7546771E-02  0.1299409E+00
          2   -1    0    0  501    0  0.00000000000E+00  0.00000000000E+00  0.42799781906E+03  0.42799781906E+03  0.00000000000E+00 0.  1.
         -2   -1    0    0    0  501 -0.00000000000E+00 -0.00000000000E+00 -0.48836063977E+01  0.48836063977E+01  0.00000000000E+00 0. -1.
         23    2    1    2    0    0  0.00000000000E+00  0.00000000000E+00  0.42311421266E+03  0.43288142546E+03  0.91436817253E+02 0.  0.
        -13    1    3    3    0    0  0.33376227951E+02  0.31200396976E+02  0.21938722035E+03  0.22409415391E+03  0.00000000000E+00 0. -1.
         13    1    3    3    0    0 -0.33376227951E+02 -0.31200396976E+02  0.20372699231E+03  0.20878727155E+03  0.00000000000E+00 0.  1.
<mgrwt>
<rscale>  0 0.91436817E+02</rscale>
<asrwt>0</asrwt>
<pdfrwt beam="1">  1        2 0.65845789E-01 0.91436817E+02</pdfrwt>
<pdfrwt beam="2">  1       -2 0.75132440E-03 0.91436817E+02</pdfrwt>
<totfact> 0.20292051E+05</totfact>
</mgrwt>
</event>
<event>
 5    1  0.1242969E+001  0.9405365E+02  0.7546771E-02  0.1293322E+00
         -3   -1    0    0    0  501 -0.00000000000E+00  0.00000000000E+00  0.10145530584E+03  0.10145530584E+03  0.00000000000E+00 0.  1.
          3   -1    0    0  501    0  0.00000000000E+00 -0.00000000000E+00 -0.21797993464E+02  0.21797993464E+02  0.00000000000E+00 0. -1.
         23    2    1    2    0    0  0.00000000000E+00  0.00000000000E+00  0.79657312374E+02  0.12325329930E+03  0.94053646256E+02 0.  0.
        -11    1    3    3    0    0  0.12076402342E+02  0.44534079709E+02  0.27933171027E+02  0.53938722572E+02  0.00000000000E+00 0.  1.
         11    1    3    3    0    0 -0.12076402342E+02 -0.44534079709E+02  0.51724141346E+02  0.69314576729E+02  0.00000000000E+00 0. -1.
<mgrwt>
<rscale>  0 0.94053646E+02</rscale>
<asrwt>0</asrwt>
<pdfrwt beam="2">  1        3 0.33535375E-02 0.94053646E+02</pdfrwt>
<pdfrwt beam="1">  1       -3 0.15608508E-01 0.94053646E+02</pdfrwt>
<totfact> 0.30347034E+04</totfact>
</mgrwt>
</event>
<event>
 5    1  0.1242969E+001  0.9325443E+02  0.7546771E-02  0.1295157E+00
          2   -1    0    0  501    0  0.00000000000E+00  0.00000000000E+00  0.22007874870E+03  0.22007874870E+03  0.00000000000E+00 0. -1.
         -2   -1    0    0    0  501 -0.00000000000E+00 -0.00000000000E+00 -0.98787244800E+01  0.98787244800E+01  0.00000000000E+00 0.  1.
         23    2    1    2    0    0  0.00000000000E+00  0.00000000000E+00  0.21020002422E+03  0.22995747318E+03  0.93254433080E+02 0.  0.
        -13    1    3    3    0    0  0.33265426705E+02 -0.32541185463E+01  0.24932393924E+02  0.41698946848E+02  0.00000000000E+00 0.  1.
         13    1    3    3    0    0 -0.33265426705E+02  0.32541185463E+01  0.18526763029E+03  0.18825852633E+03  0.00000000000E+00 0. -1.
<mgrwt>
<rscale>  0 0.93254433E+02</rscale>
<asrwt>0</asrwt>
<pdfrwt beam="1">  1        2 0.33858265E-01 0.93254433E+02</pdfrwt>
<pdfrwt beam="2">  1       -2 0.15198039E-02 0.93254433E+02</pdfrwt>
<totfact> 0.15073718E+05</totfact>
</mgrwt>
</event>
<event>
 5    1  0.1242969E+001  0.8076173E+02  0.7546771E-02  0.1326904E+00
          3   -1    0    0  501    0  0.00000000000E+00  0.00000000000E+00  0.17738358865E+02  0.17738358865E+02  0.00000000000E+00 0. -1.
         -3   -1    0    0    0  501 -0.00000000000E+00 -0.00000000000E+00 -0.91925885147E+02  0.91925885147E+02  0.00000000000E+00 0.  1.
         23    2    1    2    0    0  0.00000000000E+00  0.00000000000E+00 -0.74187526282E+02  0.10966424401E+03  0.80761732020E+02 0.  0.
        -11    1    3    3    0    0  0.26657007039E+02  0.80049528823E+01  0.26327861943E+01  0.27957232661E+02  0.00000000000E+00 0. -1.
         11    1    3    3    0    0 -0.26657007039E+02 -0.80049528823E+01 -0.76820312477E+02  0.81707011351E+02  0.00000000000E+00 0.  1.
<mgrwt>
<rscale>  0 0.80761732E+02</rscale>
<asrwt>0</asrwt>
<pdfrwt beam="1">  1        3 0.27289783E-02 0.80761732E+02</pdfrwt>
<pdfrwt beam="2">  1       -3 0.14142444E-01 0.80761732E+02</pdfrwt>
<totfact> 0.47111166E+04</totfact>
</mgrwt>
</event>
<event>
 5    1  0.1242969E+001  0.9136879E+02  0.7546771E-02  0.1299570E+00
         -1   -1    0    0    0  501 -0.00000000000E+00  0.00000000000E+00  0.11215617213E+02  0.11215617213E+02  0.00000000000E+00 0.  1.
          1   -1    0    0  501    0  0.00000000000E+00 -0.00000000000E+00 -0.18608551885E+03  0.18608551885E+03  0.00000000000E+00 0. -1.
         23    2    1    2    0    0  0.00000000000E+00  0.00000000000E+00 -0.17486990164E+03  0.19730113606E+03  0.91368790039E+02 0.  0.
        -13    1    3    3    0    0  0.33042170246E+02  0.31177015108E+02 -0.97852240700E+02  0.10788351262E+03  0.00000000000E+00 0. -1.
         13    1    3    3    0    0 -0.33042170246E+02 -0.31177015108E+02 -0.77017660935E+02  0.89417623439E+02  0.00000000000E+00 0.  1.
<mgrwt>
<rscale>  0 0.91368790E+02</rscale>
<asrwt>0</asrwt>
<pdfrwt beam="2">  1        1 0.28628537E-01 0.91368790E+02</pdfrwt>
<pdfrwt beam="1">  1       -1 0.17254798E-02 0.91368790E+02</pdfrwt>
<totfact> 0.11611011E+05</totfact>
</mgrwt>
</event>
<event>
 5    1  0.1242969E+001  0.9584569E+02  0.7546771E-02  0.1289283E+00
         -1   -1    0    0    0  501 -0.00000000000E+00  0.00000000000E+00  0.16771328900E+03  0.16771328900E+03  0.00000000000E+00 0.  1.
          1   -1    0    0  501    0  0.00000000000E+00 -0.00000000000E+00 -0.13693601098E+02  0.13693601098E+02  0.00000000000E+00 0. -1.
         23    2    1    2    0    0  0.00000000000E+00  0.00000000000E+00  0.15401968790E+03  0.18140689010E+03  0.95845685942E+02 0.  0.
        -11    1    3    3    0    0 -0.25323656912E+02  0.24109505506E+02  0.13903845371E+03  0.14336752584E+03  0.00000000000E+00 0.  1.
         11    1    3    3    0    0  0.25323656912E+02 -0.24109505506E+02  0.14981234188E+02  0.38039364255E+02  0.00000000000E+00 0. -1.
<mgrwt>
<rscale>  0 0.95845686E+02</rscale>
<asrwt>0</asrwt>
<pdfrwt beam="2">  1        1 0.21067080E-02 0.95845686E+02</pdfrwt>
<pdfrwt beam="1">  1       -1 0.25802043E-01 0.95845686E+02</pdfrwt>
<totfact> 0.63908830E+04</totfact>
</mgrwt>
</event>
<event>
 5    1  0.1242969E+001  0.8637445E+02  0.7546771E-02  0.1311877E+00
          2   -1    0    0  501    0  0.00000000000E+00  0.00000000000E+00  0.16674916746E+02  0.16674916746E+02  0.00000000000E+00 0. -1.
         -2   -1    0    0    0  501 -0.00000000000E+00 -0.00000000000E+00 -0.11185282893E+03  0.11185282893E+03  0.00000000000E+00 0.  1.
         23    2    1    2    0    0  0.00000000000E+00  0.00000000000E+00 -0.95177912183E+02  0.12852774567E+03  0.86374454793E+02 0.  0.
        -13    1    3    3    0    0  0.15490024564E+02  0.37799027614E+02 -0.68444170648E+02  0.79707664909E+02  0.00000000000E+00 0.  1.
         13    1    3    3    0    0 -0.15490024564E+02 -0.37799027614E+02 -0.26733741535E+02  0.48820080766E+02  0.00000000000E+00 0. -1.
<mgrwt>
<rscale>  0 0.86374455E+02</rscale>
<asrwt>0</asrwt>
<pdfrwt beam="1">  1        2 0.25653717E-02 0.86374455E+02</pdfrwt>
<pdfrwt beam="2">  1       -2 0.17208128E-01 0.86374455E+02</pdfrwt>
<totfact> 0.88293662E+04</totfact>
</mgrwt>
</event>
<event>
 5    1  0.1242969E+001  0.9108784E+02  0.7546771E-02  0.1300239E+00
         -4   -1    0    0    0  501 -0.00000000000E+00  0.00000000000E+00  0.22473754621E+03  0.22473754621E+03  0.00000000000E+00 0.  1.
          4   -1    0    0  501    0  0.00000000000E+00 -0.00000000000E+00 -0.92296484056E+01  0.92296484056E+01  0.00000000000E+00 0. -1.
         23    2    1    2    0    0  0.00000000000E+00  0.00000000000E+00  0.21550789781E+03  0.23396719462E+03  0.91087837500E+02 0.  0.
        -11    1    3    3    0    0  0.42763915161E+02  0.15420459916E+02  0.10062385410E+03  0.11041604521E+03  0.00000000000E+00 0. -1.
         11    1    3    3    0    0 -0.42763915161E+02 -0.15420459916E+02  0.11488404370E+03  0.12355114942E+03  0.00000000000E+00 0.  1.
<mgrwt>
<rscale>  0 0.91087838E+02</rscale>
<asrwt>0</asrwt>
<pdfrwt beam="2">  1        4 0.14199461E-02 0.91087838E+02</pdfrwt>
<pdfrwt beam="1">  1       -4 0.34575003E-01 0.91087838E+02</pdfrwt>
<totfact> 0.20098699E+04</totfact>
</mgrwt>
</event>
<event>
 5    1  0.1242969E+001  0.8832948E+02  0.7546771E-02  0.1306948E+00
          1   -1    0    0  501    0  0.00000000000E+00  0.00000000000E+00  0.17229763783E+02  0.17229763783E+02  0.00000000000E+00 0. -1.
         -1   -1    0    0    0  501 -0.00000000000E+00 -0.00000000000E+00 -0.11320667124E+03  0.11320667124E+03  0.00000000000E+00 0.  1.
         23    2    1    2    0    0  0.00000000000E+00  0.00000000000E+00 -0.95976907452E+02  0.13043643502E+03  0.88329478750E+02 0.  0.
        -13    1    3    3    0    0 -0.29648330321E+02  0.30619887893E+02 -0.65077629912E+02  0.77792666366E+02  0.00000000000E+00 0.  1.
         13    1    3    3    0    0  0.29648330321E+02 -0.30619887893E+02 -0.30899277540E+02  0.52643768652E+02  0.00000000000E+00 0. -1.
<mgrwt>
<rscale>  0 0.88329479E+02</rscale>
<asrwt>0</asrwt>
<pdfrwt beam="1">  1        1 0.26507328E-02 0.88329479E+02</pdfrwt>
<pdfrwt beam="2">  1       -1 0.17416412E-01 0.88329479E+02</pdfrwt>
<totfact> 0.86230084E+04</totfact>
</mgrwt>
</event>
<event>
 5    1  0.1242969E+001  0.9325351E+02  0.7546771E-02  0.1295159E+00
          2   -1    0    0  501    0  0.00000000000E+00  0.00000000000E+00  0.13295379265E+02  0.13295379265E+02  0.00000000000E+00 0. -1.
         -2   -1    0    0    0  501 -0.00000000000E+00 -0.00000000000E+00 -0.16351955282E+03  0.16351955282E+03  0.00000000000E+00 0.  1.
         23    2    1    2    0    0  0.00000000000E+00  0.00000000000E+00 -0.15022417356E+03  0.17681493209E+03  0.93253514080E+02 0.  0.
        -13    1    3    3    0    0  0.24133103735E+02  0.13190237840E+02 -0.14650261618E+03  0.14906175102E+03  0.00000000000E+00 0.  1.
         13    1    3    3    0    0 -0.24133103735E+02 -0.13190237840E+02 -0.37215573813E+01  0.27753181070E+02  0.00000000000E+00 0. -1.
<mgrwt>
<rscale>  0 0.93253514E+02</rscale>
<asrwt>0</asrwt>
<pdfrwt beam="1">  1        2 0.20454429E-02 0.93253514E+02</pdfrwt>
<pdfrwt beam="2">  1       -2 0.25156855E-01 0.93253514E+02</pdfrwt>
<totfact> 0.63880211E+04</totfact>
</mgrwt>
</event>
<event>
 5    1  0.1242969E+001  0.9127670E+02  0.7546771E-02  0.1299789E+00
         -4   -1    0    0    0  501 -0.00000000000E+00  0.00000000000E+00  0.10401169301E+03  0.10401169301E+03  0.00000000000E+00 0.  1.
          4   -1    0    0  501    0  0.00000000000E+00 -0.00000000000E+00 -0.20025236647E+02  0.20025236647E+02  0.00000000000E+00 0. -1.
         23    2    1    2    0    0  0.00000000000E+00  0.00000000000E+00  0.83986456359E+02  0.12403692965E+03  0.91276695087E+02 0.  0.
        -13    1    3    3    0    0  0.30570687297E+02 -0.17999009844E+02  0.81009070898E+02  0.88436422615E+02  0.00000000000E+00 0.  1.
         13    1    3    3    0    0 -0.30570687297E+02  0.17999009844E+02  0.29773854611E+01  0.35600507038E+02  0.00000000000E+00 0. -1.
<mgrwt>
<rscale>  0 0.91276695E+02</rscale>
<asrwt>0</asrwt>
<pdfrwt beam="2">  1        4 0.30808057E-02 0.91276695E+02</pdfrwt>
<pdfrwt beam="1">  1       -4 0.16001799E-01 0.91276695E+02</pdfrwt>
<totfact> 0.24971777E+04</totfact>
</mgrwt>
</event>
<event>
 5    1  0.1242969E+001  0.9058155E+02  0.7546771E-02  0.1301449E+00
         -1   -1    0    0    0  501 -0.00000000000E+00  0.00000000000E+00  0.49343841601E+02  0.49343841601E+02  0.00000000000E+00 0.  1.
          1   -1    0    0  501    0  0.00000000000E+00 -0.00000000000E+00 -0.41570623029E+02  0.41570623029E+02  0.00000000000E+00 0. -1.
         23    2    1    2    0    0  0.00000000000E+00  0.00000000000E+00  0.77732185723E+01  0.90914464630E+02  0.90581548629E+02 0.  0.
        -13    1    3    3    0    0  0.77214436027E+01  0.38941765736E+02  0.25765175653E+02  0.47327857403E+02  0.00000000000E+00 0.  1.
         13    1    3    3    0    0 -0.77214436027E+01 -0.38941765736E+02 -0.17991957081E+02  0.43586607227E+02  0.00000000000E+00 0. -1.
<mgrwt>
<rscale>  0 0.90581549E+02</rscale>
<asrwt>0</asrwt>
<pdfrwt beam="2">  1        1 0.63954805E-02 0.90581549E+02</pdfrwt>
<pdfrwt beam="1">  1       -1 0.75913603E-02 0.90581549E+02</pdfrwt>
<totfact> 0.92892714E+04</totfact>
</mgrwt>
</event>
<event>
 5    1  0.1242969E+001  0.9136865E+02  0.7546771E-02  0.1299571E+00
          2   -1    0    0  501    0  0.00000000000E+00  0.00000000000E+00  0.28697667861E+03  0.28697667861E+03  0.00000000000E+00 0. -1.
         -2   -1    0    0    0  501 -0.00000000000E+00 -0.00000000000E+00 -0.72725689600E+01  0.72725689600E+01  0.00000000000E+00 0.  1.
         23    2    1    2    0    0  0.00000000000E+00  0.00000000000E+00  0.27970410965E+03  0.29424924757E+03  0.91368652942E+02 0.  0.
        -13    1    3    3    0    0  0.44112950137E+02 -0.11067122143E+02  0.12595393500E+03  0.13391350680E+03  0.00000000000E+00 0.  1.
         13    1    3    3    0    0 -0.44112950137E+02  0.11067122143E+02  0.15375017465E+03  0.16033574077E+03  0.00000000000E+00 0. -1.
<mgrwt>
<rscale>  0 0.91368653E+02</rscale>
<asrwt>0</asrwt>
<pdfrwt beam="1">  1        2 0.44150250E-01 0.91368653E+02</pdfrwt>
<pdfrwt beam="2">  1       -2 0.11188570E-02 0.91368653E+02</pdfrwt>
<totfact> 0.17572270E+05</totfact>
</mgrwt>
</event>
<event>
 5    1  0.1242969E+001  0.9209997E+02  0.7546771E-02  0.1297845E+00
          3   -1    0    0  501    0  0.00000000000E+00  0.00000000000E+00  0.17458020051E+03  0.17458020051E+03  0.00000000000E+00 0. -1.
         -3   -1    0    0    0  501 -0.00000000000E+00 -0.00000000000E+00 -0.12146858607E+02  0.12146858607E+02  0.00000000000E+00 0.  1.
         23    2    1    2    0    0  0.00000000000E+00  0.00000000000E+00  0.16243334190E+03  0.18672705912E+03  0.92099967671E+02 0.  0.
        -11    1    3    3    0    0  0.97197972943E+01  0.25970236378E+02  0.66776543057E+01  0.28522249280E+02  0.00000000000E+00 0.  1.
         11    1    3    3    0    0 -0.97197972943E+01 -0.25970236378E+02  0.15575568759E+03  0.15820480984E+03  0.00000000000E+00 0. -1.
<mgrwt>
<rscale>  0 0.92099968E+02</rscale>
<asrwt>0</asrwt>
<pdfrwt beam="1">  1        3 0.26858491E-01 0.92099968E+02</pdfrwt>
<pdfrwt beam="2">  1       -3 0.18687476E-02 0.92099968E+02</pdfrwt>
<totfact> 0.28414365E+04</totfact>
</mgrwt>
</event>
<event>
 5    1  0.1242969E+001  0.9128046E+02  0.7546771E-02  0.1299780E+00
         -4   -1    0    0    0  501 -0.00000000000E+00  0.00000000000E+00  0.70135995597E+02  0.70135995597E+02  0.00000000000E+00 0.  1.
          4   -1    0    0  501    0  0.00000000000E+00 -0.00000000000E+00 -0.29699877999E+02  0.29699877999E+02  0.00000000000E+00 0. -1.
         23    2    1    2    0    0  0.00000000000E+00  0.00000000000E+00  0.40436117598E+02  0.99835873596E+02  0.91280458205E+02 0.  0.
        -11    1    3    3    0    0  0.10043718278E+02  0.31159232535E+02 -0.14562733128E+02  0.35830814185E+02  0.00000000000E+00 0. -1.
         11    1    3    3    0    0 -0.10043718278E+02 -0.31159232535E+02  0.54998850726E+02  0.64005059411E+02  0.00000000000E+00 0.  1.
<mgrwt>
<rscale>  0 0.91280458E+02</rscale>
<asrwt>0</asrwt>
<pdfrwt beam="2">  1        4 0.45692120E-02 0.91280458E+02</pdfrwt>
<pdfrwt beam="1">  1       -4 0.10790153E-01 0.91280458E+02</pdfrwt>
<totfact> 0.26386843E+04</totfact>
</mgrwt>
</event>
<event>
 5    1  0.1242969E+001  0.1084933E+03  0.7546771E-02  0.1263386E+00
         -2   -1    0    0    0  501 -0.00000000000E+00  0.00000000000E+00  0.18210935426E+02  0.18210935426E+02  0.00000000000E+00 0.  1.
          2   -1    0    0  501    0  0.00000000000E+00 -0.00000000000E+00 -0.16158980841E+03  0.16158980841E+03  0.00000000000E+00 0. -1.
         23    2    1    2    0    0  0.00000000000E+00  0.00000000000E+00 -0.14337887298E+03  0.17980074384E+03  0.10849334664E+03 0.  0.
        -13    1    3    3    0    0 -0.25932870414E+02  0.35282988504E+02 -0.18623779731E+02  0.47584117278E+02  0.00000000000E+00 0.  1.
         13    1    3    3    0    0  0.25932870414E+02 -0.35282988504E+02 -0.12475509325E+03  0.13221662656E+03  0.00000000000E+00 0. -1.
<mgrwt>
<rscale>  0 0.10849335E+03</rscale>
<asrwt>0</asrwt>
<pdfrwt beam="2">  1        2 0.24859971E-01 0.10849335E+03</pdfrwt>
<pdfrwt beam="1">  1       -2 0.28016824E-02 0.10849335E+03</pdfrwt>
<totfact> 0.89066871E+04</totfact>
</mgrwt>
</event>
<event>
 5    1  0.1242969E+001  0.9519342E+02  0.7546771E-02  0.1290741E+00
         -1   -1    0    0    0  501 -0.00000000000E+00  0.00000000000E+00  0.65746649631E+02  0.65746649631E+02  0.00000000000E+00 0. -1.
          1   -1    0    0  501    0  0.00000000000E+00 -0.00000000000E+00 -0.34457220701E+02  0.34457220701E+02  0.00000000000E+00 0.  1.
         23    2    1    2    0    0  0.00000000000E+00  0.00000000000E+00  0.31289428930E+02  0.10020387033E+03  0.95193420291E+02 0.  0.
        -13    1    3    3    0    0  0.38158090100E+02 -0.24353998836E+02  0.16383955120E+00  0.45267912949E+02  0.00000000000E+00 0. -1.
         13    1    3    3    0    0 -0.38158090100E+02  0.24353998836E+02  0.31125589378E+02  0.54935957383E+02  0.00000000000E+00 0.  1.
<mgrwt>
<rscale>  0 0.95193420E+02</rscale>
<asrwt>0</asrwt>
<pdfrwt beam="2">  1        1 0.53011109E-02 0.95193420E+02</pdfrwt>
<pdfrwt beam="1">  1       -1 0.10114869E-01 0.95193420E+02</pdfrwt>
<totfact> 0.78324836E+04</totfact>
</mgrwt>
</event>
<event>
 5    1  0.1242969E+001  0.9018628E+02  0.7546771E-02  0.1302401E+00
         -1   -1    0    0    0  501 -0.00000000000E+00  0.00000000000E+00  0.15241421425E+02  0.15241421425E+02  0.00000000000E+00 0.  1.
          1   -1    0    0  501    0  0.00000000000E+00 -0.00000000000E+00 -0.13341218131E+03  0.13341218131E+03  0.00000000000E+00 0. -1.
         23    2    1    2    0    0  0.00000000000E+00  0.00000000000E+00 -0.11817075988E+03  0.14865360273E+03  0.90186280076E+02 0.  0.
        -11    1    3    3    0    0  0.19672434636E+02 -0.39576199944E+02 -0.44332356926E+02  0.62599026807E+02  0.00000000000E+00 0. -1.
         11    1    3    3    0    0 -0.19672434636E+02  0.39576199944E+02 -0.73838402956E+02  0.86054575925E+02  0.00000000000E+00 0.  1.
<mgrwt>
<rscale>  0 0.90186280E+02</rscale>
<asrwt>0</asrwt>
<pdfrwt beam="2">  1        1 0.20524951E-01 0.90186280E+02</pdfrwt>
<pdfrwt beam="1">  1       -1 0.23448340E-02 0.90186280E+02</pdfrwt>
<totfact> 0.11306119E+05</totfact>
</mgrwt>
</event>
<event>
 5    1  0.1242969E+001  0.8900839E+02  0.7546771E-02  0.1305271E+00
         -1   -1    0    0    0  501 -0.00000000000E+00  0.00000000000E+00  0.62921796525E+01  0.62921796525E+01  0.00000000000E+00 0.  1.
          1   -1    0    0  501    0  0.00000000000E+00 -0.00000000000E+00 -0.31477543015E+03  0.31477543015E+03  0.00000000000E+00 0. -1.
         23    2    1    2    0    0  0.00000000000E+00  0.00000000000E+00 -0.30848325050E+03  0.32106760980E+03  0.89008394137E+02 0.  0.
        -11    1    3    3    0    0 -0.38108953575E+00 -0.43474593482E+02 -0.11993791292E+03  0.12757463879E+03  0.00000000000E+00 0.  1.
         11    1    3    3    0    0  0.38108953575E+00  0.43474593482E+02 -0.18854533758E+03  0.19349297101E+03  0.00000000000E+00 0. -1.
<mgrwt>
<rscale>  0 0.89008394E+02</rscale>
<asrwt>0</asrwt>
<pdfrwt beam="2">  1        1 0.48426996E-01 0.89008394E+02</pdfrwt>
<pdfrwt beam="1">  1       -1 0.96802750E-03 0.89008394E+02</pdfrwt>
<totfact> 0.13783561E+05</totfact>
</mgrwt>
</event>
<event>
 5    1  0.1242969E+001  0.8983609E+02  0.7546771E-02  0.1303249E+00
          2   -1    0    0  501    0  0.00000000000E+00  0.00000000000E+00  0.13847075319E+03  0.13847075319E+03  0.00000000000E+00 0.  1.
         -2   -1    0    0    0  501 -0.00000000000E+00 -0.00000000000E+00 -0.14570807725E+02  0.14570807725E+02  0.00000000000E+00 0. -1.
         23    2    1    2    0    0  0.00000000000E+00  0.00000000000E+00  0.12389994547E+03  0.15304156092E+03  0.89836088970E+02 0.  0.
        -13    1    3    3    0    0 -0.37667969417E+02  0.11308242583E+02  0.98916866341E+02  0.10644857311E+03  0.00000000000E+00 0.  1.
         13    1    3    3    0    0  0.37667969417E+02 -0.11308242583E+02  0.24983079126E+02  0.46592987808E+02  0.00000000000E+00 0. -1.
<mgrwt>
<rscale>  0 0.89836089E+02</rscale>
<asrwt>0</asrwt>
<pdfrwt beam="1">  1        2 0.21303192E-01 0.89836089E+02</pdfrwt>
<pdfrwt beam="2">  1       -2 0.22416628E-02 0.89836089E+02</pdfrwt>
<totfact> 0.14168152E+05</totfact>
</mgrwt>
</event>
<event>
 5    1  0.1242969E+001  0.9114546E+02  0.7546771E-02  0.1300101E+00
          2   -1    0    0  501    0  0.00000000000E+00  0.00000000000E+00  0.53123445308E+02  0.53123445308E+02  0.00000000000E+00 0. -1.
         -2   -1    0    0    0  501 -0.00000000000E+00 -0.00000000000E+00 -0.39095238809E+02  0.39095238809E+02  0.00000000000E+00 0.  1.
         23    2    1    2    0    0  0.00000000000E+00  0.00000000000E+00  0.14028206499E+02  0.92218684116E+02  0.91145461338E+02 0.  0.
        -13    1    3    3    0    0 -0.11371777230E+01 -0.30130091910E+02 -0.27560748805E+02  0.40849852954E+02  0.00000000000E+00 0.  1.
         13    1    3    3    0    0  0.11371777230E+01  0.30130091910E+02  0.41588955304E+02  0.51368831162E+02  0.00000000000E+00 0. -1.
<mgrwt>
<rscale>  0 0.91145461E+02</rscale>
<asrwt>0</asrwt>
<pdfrwt beam="1">  1        2 0.81728378E-02 0.91145461E+02</pdfrwt>
<pdfrwt beam="2">  1       -2 0.60146521E-02 0.91145461E+02</pdfrwt>
<totfact> 0.10279690E+05</totfact>
</mgrwt>
</event>
<event>
 5    1  0.1242969E+001  0.9296034E+02  0.7546771E-02  0.1295837E+00
         -1   -1    0    0    0  501 -0.00000000000E+00  0.00000000000E+00  0.13919319938E+02  0.13919319938E+02  0.00000000000E+00 0.  1.
          1   -1    0    0  501    0  0.00000000000E+00 -0.00000000000E+00 -0.15520918091E+03  0.15520918091E+03  0.00000000000E+00 0. -1.
         23    2    1    2    0    0  0.00000000000E+00  0.00000000000E+00 -0.14128986098E+03  0.16912850085E+03  0.92960340931E+02 0.  0.
        -13    1    3    3    0    0  0.26025441680E+02 -0.17372364422E+02 -0.13317604600E+03  0.13680271156E+03  0.00000000000E+00 0. -1.
         13    1    3    3    0    0 -0.26025441680E+02  0.17372364422E+02 -0.81138149737E+01  0.32325789297E+02  0.00000000000E+00 0.  1.
<mgrwt>
<rscale>  0 0.92960341E+02</rscale>
<asrwt>0</asrwt>
<pdfrwt beam="2">  1        1 0.23878335E-01 0.92960341E+02</pdfrwt>
<pdfrwt beam="1">  1       -1 0.21414339E-02 0.92960341E+02</pdfrwt>
<totfact> 0.10708874E+05</totfact>
</mgrwt>
</event>
<event>
 5    1  0.1242969E+001  0.9013670E+02  0.7546771E-02  0.1302521E+00
         -2   -1    0    0    0  501 -0.00000000000E+00  0.00000000000E+00  0.24347494759E+02  0.24347494759E+02  0.00000000000E+00 0.  1.
          2   -1    0    0  501    0  0.00000000000E+00 -0.00000000000E+00 -0.83423618253E+02  0.83423618253E+02  0.00000000000E+00 0. -1.
         23    2    1    2    0    0  0.00000000000E+00  0.00000000000E+00 -0.59076123493E+02  0.10777111301E+03  0.90136698590E+02 0.  0.
        -13    1    3    3    0    0 -0.18787770427E+02  0.13527340652E+02  0.16694552824E+02  0.28542553437E+02  0.00000000000E+00 0.  1.
         13    1    3    3    0    0  0.18787770427E+02 -0.13527340652E+02 -0.75770676317E+02  0.79228559575E+02  0.00000000000E+00 0. -1.
<mgrwt>
<rscale>  0 0.90136699E+02</rscale>
<asrwt>0</asrwt>
<pdfrwt beam="2">  1        2 0.12834403E-01 0.90136699E+02</pdfrwt>
<pdfrwt beam="1">  1       -2 0.37457684E-02 0.90136699E+02</pdfrwt>
<totfact> 0.12000171E+05</totfact>
</mgrwt>
</event>
<event>
 5    1  0.1242969E+001  0.9123530E+02  0.7546771E-02  0.1299888E+00
          2   -1    0    0  501    0  0.00000000000E+00  0.00000000000E+00  0.31284946815E+02  0.31284946815E+02  0.00000000000E+00 0. -1.
         -2   -1    0    0    0  501 -0.00000000000E+00 -0.00000000000E+00 -0.66516649830E+02  0.66516649830E+02  0.00000000000E+00 0.  1.
         23    2    1    2    0    0  0.00000000000E+00  0.00000000000E+00 -0.35231703015E+02  0.97801596645E+02  0.91235296947E+02 0.  0.
        -13    1    3    3    0    0 -0.24897648484E+02 -0.35912605863E+02 -0.31648509034E+02  0.53955873489E+02  0.00000000000E+00 0.  1.
         13    1    3    3    0    0  0.24897648484E+02  0.35912605863E+02 -0.35831939807E+01  0.43845723156E+02  0.00000000000E+00 0. -1.
<mgrwt>
<rscale>  0 0.91235297E+02</rscale>
<asrwt>0</asrwt>
<pdfrwt beam="1">  1        2 0.48130688E-02 0.91235297E+02</pdfrwt>
<pdfrwt beam="2">  1       -2 0.10233331E-01 0.91235297E+02</pdfrwt>
<totfact> 0.89288983E+04</totfact>
</mgrwt>
</event>
<event>
 5    1  0.1242969E+001  0.9106582E+02  0.7546771E-02  0.1300291E+00
          2   -1    0    0  501    0  0.00000000000E+00  0.00000000000E+00  0.18845652895E+03  0.18845652895E+03  0.00000000000E+00 0. -1.
         -2   -1    0    0    0  501 -0.00000000000E+00 -0.00000000000E+00 -0.11001188229E+02  0.11001188229E+02  0.00000000000E+00 0.  1.
         23    2    1    2    0    0  0.00000000000E+00  0.00000000000E+00  0.17745534072E+03  0.19945771718E+03  0.91065816813E+02 0.  0.
        -13    1    3    3    0    0  0.19724969877E+02  0.22120301622E+02  0.16443790924E+03  0.16708742674E+03  0.00000000000E+00 0. -1.
         13    1    3    3    0    0 -0.19724969877E+02 -0.22120301622E+02  0.13017431480E+02  0.32370290435E+02  0.00000000000E+00 0.  1.
<mgrwt>
<rscale>  0 0.91065817E+02</rscale>
<asrwt>0</asrwt>
<pdfrwt beam="1">  1        2 0.28993310E-01 0.91065817E+02</pdfrwt>
<pdfrwt beam="2">  1       -2 0.16924906E-02 0.91065817E+02</pdfrwt>
<totfact> 0.15190385E+05</totfact>
</mgrwt>
</event>
<event>
 5    1  0.1242969E+001  0.8960961E+02  0.7546771E-02  0.1303800E+00
          1   -1    0    0  501    0  0.00000000000E+00  0.00000000000E+00  0.16816769523E+02  0.16816769523E+02  0.00000000000E+00 0. -1.
         -1   -1    0    0    0  501 -0.00000000000E+00 -0.00000000000E+00 -0.11937312523E+03  0.11937312523E+03  0.00000000000E+00 0.  1.
         23    2    1    2    0    0  0.00000000000E+00  0.00000000000E+00 -0.10255635571E+03  0.13618989476E+03  0.89609605160E+02 0.  0.
        -13    1    3    3    0    0 -0.28601320086E+02 -0.32264980901E+02 -0.69792840499E+02  0.82037217701E+02  0.00000000000E+00 0.  1.
         13    1    3    3    0    0  0.28601320086E+02  0.32264980901E+02 -0.32763515211E+02  0.54152677055E+02  0.00000000000E+00 0. -1.
<mgrwt>
<rscale>  0 0.89609605E+02</rscale>
<asrwt>0</asrwt>
<pdfrwt beam="1">  1        1 0.25871954E-02 0.89609605E+02</pdfrwt>
<pdfrwt beam="2">  1       -1 0.18365096E-01 0.89609605E+02</pdfrwt>
<totfact> 0.82213950E+04</totfact>
</mgrwt>
</event>
<event>
 5    1  0.1242969E+001  0.8981430E+02  0.7546771E-02  0.1303302E+00
          2   -1    0    0  501    0  0.00000000000E+00  0.00000000000E+00  0.40801493993E+02  0.40801493993E+02  0.00000000000E+00 0. -1.
         -2   -1    0    0    0  501 -0.00000000000E+00 -0.00000000000E+00 -0.49425937235E+02  0.49425937235E+02  0.00000000000E+00 0.  1.
         23    2    1    2    0    0  0.00000000000E+00  0.00000000000E+00 -0.86244432420E+01  0.90227431228E+02  0.89814299111E+02 0.  0.
        -11    1    3    3    0    0 -0.10598248482E+02  0.76938021891E+01  0.38840395170E+02  0.40988946803E+02  0.00000000000E+00 0. -1.
         11    1    3    3    0    0  0.10598248482E+02 -0.76938021891E+01 -0.47464838412E+02  0.49238484425E+02  0.00000000000E+00 0.  1.
<mgrwt>
<rscale>  0 0.89814299E+02</rscale>
<asrwt>0</asrwt>
<pdfrwt beam="1">  1        2 0.62771529E-02 0.89814299E+02</pdfrwt>
<pdfrwt beam="2">  1       -2 0.76039903E-02 0.89814299E+02</pdfrwt>
<totfact> 0.10013693E+05</totfact>
</mgrwt>
</event>
<event>
 5    1  0.1242969E+001  0.9032011E+02  0.7546771E-02  0.1302078E+00
          2   -1    0    0  501    0  0.00000000000E+00  0.00000000000E+00  0.29587950041E+03  0.29587950041E+03  0.00000000000E+00 0.  1.
         -2   -1    0    0    0  501 -0.00000000000E+00 -0.00000000000E+00 -0.68927742594E+01  0.68927742594E+01  0.00000000000E+00 0. -1.
         23    2    1    2    0    0  0.00000000000E+00  0.00000000000E+00  0.28898672615E+03  0.30277227467E+03  0.90320110813E+02 0.  0.
        -13    1    3    3    0    0 -0.26323634483E+02  0.27553362619E+02  0.22573244365E+03  0.22892631487E+03  0.00000000000E+00 0.  1.
         13    1    3    3    0    0  0.26323634483E+02 -0.27553362619E+02  0.63254282504E+02  0.73845959802E+02  0.00000000000E+00 0. -1.
<mgrwt>
<rscale>  0 0.90320111E+02</rscale>
<asrwt>0</asrwt>
<pdfrwt beam="1">  1        2 0.45519913E-01 0.90320111E+02</pdfrwt>
<pdfrwt beam="2">  1       -2 0.10604270E-02 0.90320111E+02</pdfrwt>
<totfact> 0.18329319E+05</totfact>
</mgrwt>
</event>
<event>
 5    1  0.1242969E+001  0.8950720E+02  0.7546771E-02  0.1304049E+00
         -1   -1    0    0    0  501 -0.00000000000E+00  0.00000000000E+00  0.11098176398E+03  0.11098176398E+03  0.00000000000E+00 0.  1.
          1   -1    0    0  501    0  0.00000000000E+00 -0.00000000000E+00 -0.18046969533E+02  0.18046969533E+02  0.00000000000E+00 0. -1.
         23    2    1    2    0    0  0.00000000000E+00  0.00000000000E+00  0.92934794446E+02  0.12902873351E+03  0.89507195538E+02 0.  0.
        -13    1    3    3    0    0  0.56815663006E+01  0.37411629973E+02  0.80913234834E+02  0.89324474945E+02  0.00000000000E+00 0.  1.
         13    1    3    3    0    0 -0.56815663006E+01 -0.37411629973E+02  0.12021559612E+02  0.39704258567E+02  0.00000000000E+00 0. -1.
<mgrwt>
<rscale>  0 0.89507196E+02</rscale>
<asrwt>0</asrwt>
<pdfrwt beam="2">  1        1 0.27764569E-02 0.89507196E+02</pdfrwt>
<pdfrwt beam="1">  1       -1 0.17074117E-01 0.89507196E+02</pdfrwt>
<totfact> 0.83661189E+04</totfact>
</mgrwt>
</event>
<event>
 5    1  0.1242969E+001  0.8451307E+02  0.7546771E-02  0.1316711E+00
          1   -1    0    0  501    0  0.00000000000E+00  0.00000000000E+00  0.22610012099E+03  0.22610012099E+03  0.00000000000E+00 0. -1.
         -1   -1    0    0    0  501 -0.00000000000E+00 -0.00000000000E+00 -0.78974522619E+01  0.78974522619E+01  0.00000000000E+00 0.  1.
         23    2    1    2    0    0  0.00000000000E+00  0.00000000000E+00  0.21820266872E+03  0.23399757325E+03  0.84513073826E+02 0.  0.
        -13    1    3    3    0    0  0.34126407939E+02  0.41672815293E+01  0.41075266727E+02  0.53564498418E+02  0.00000000000E+00 0.  1.
         13    1    3    3    0    0 -0.34126407939E+02 -0.41672815293E+01  0.17712740200E+03  0.18043307483E+03  0.00000000000E+00 0. -1.
<mgrwt>
<rscale>  0 0.84513074E+02</rscale>
<asrwt>0</asrwt>
<pdfrwt beam="1">  1        1 0.34784629E-01 0.84513074E+02</pdfrwt>
<pdfrwt beam="2">  1       -1 0.12149928E-02 0.84513074E+02</pdfrwt>
<totfact> 0.14843678E+05</totfact>
</mgrwt>
</event>
<event>
 5    1  0.1242969E+001  0.9142588E+02  0.7546771E-02  0.1299435E+00
         -1   -1    0    0    0  501 -0.00000000000E+00  0.00000000000E+00  0.19719921375E+03  0.19719921375E+03  0.00000000000E+00 0.  1.
          1   -1    0    0  501    0  0.00000000000E+00 -0.00000000000E+00 -0.10596761255E+02  0.10596761255E+02  0.00000000000E+00 0. -1.
         23    2    1    2    0    0  0.00000000000E+00  0.00000000000E+00  0.18660245250E+03  0.20779597501E+03  0.91425882283E+02 0.  0.
        -13    1    3    3    0    0 -0.28037256073E+02 -0.68852549728E+01  0.17385643976E+03  0.17623721545E+03  0.00000000000E+00 0.  1.
         13    1    3    3    0    0  0.28037256073E+02  0.68852549728E+01  0.12746012742E+02  0.31558759560E+02  0.00000000000E+00 0. -1.
<mgrwt>
<rscale>  0 0.91425882E+02</rscale>
<asrwt>0</asrwt>
<pdfrwt beam="2">  1        1 0.16302711E-02 0.91425882E+02</pdfrwt>
<pdfrwt beam="1">  1       -1 0.30338338E-01 0.91425882E+02</pdfrwt>
<totfact> 0.69209797E+04</totfact>
</mgrwt>
</event>
<event>
 5    1  0.1242969E+001  0.8860688E+02  0.7546771E-02  0.1306261E+00
          2   -1    0    0  501    0  0.00000000000E+00  0.00000000000E+00  0.54664669812E+02  0.54664669812E+02  0.00000000000E+00 0.  1.
         -2   -1    0    0    0  501 -0.00000000000E+00 -0.00000000000E+00 -0.35906092192E+02  0.35906092192E+02  0.00000000000E+00 0. -1.
         23    2    1    2    0    0  0.00000000000E+00  0.00000000000E+00  0.18758577620E+02  0.90570762004E+02  0.88606877248E+02 0.  0.
        -11    1    3    3    0    0 -0.68709572163E+01 -0.30120909719E+02 -0.23078489874E+02  0.38562883064E+02  0.00000000000E+00 0. -1.
         11    1    3    3    0    0  0.68709572163E+01  0.30120909719E+02  0.41837067493E+02  0.52007878940E+02  0.00000000000E+00 0.  1.
<mgrwt>
<rscale>  0 0.88606877E+02</rscale>
<asrwt>0</asrwt>
<pdfrwt beam="1">  1        2 0.84099492E-02 0.88606877E+02</pdfrwt>
<pdfrwt beam="2">  1       -2 0.55240142E-02 0.88606877E+02</pdfrwt>
<totfact> 0.11218095E+05</totfact>
</mgrwt>
</event>
<event>
 5    1  0.1242969E+001  0.9255205E+02  0.7546771E-02  0.1296787E+00
         -1   -1    0    0    0  501 -0.00000000000E+00  0.00000000000E+00  0.27584654915E+02  0.27584654915E+02  0.00000000000E+00 0.  1.
          1   -1    0    0  501    0  0.00000000000E+00 -0.00000000000E+00 -0.77632677498E+02  0.77632677498E+02  0.00000000000E+00 0. -1.
         23    2    1    2    0    0  0.00000000000E+00  0.00000000000E+00 -0.50048022583E+02  0.10521733241E+03  0.92552052790E+02 0.  0.
        -13    1    3    3    0    0  0.30183304758E+01  0.22990970655E+02 -0.70551430013E+02  0.74264388016E+02  0.00000000000E+00 0. -1.
         13    1    3    3    0    0 -0.30183304758E+01 -0.22990970655E+02  0.20503407430E+02  0.30952944396E+02  0.00000000000E+00 0.  1.
<mgrwt>
<rscale>  0 0.92552053E+02</rscale>
<asrwt>0</asrwt>
<pdfrwt beam="2">  1        1 0.11943489E-01 0.92552053E+02</pdfrwt>
<pdfrwt beam="1">  1       -1 0.42437931E-02 0.92552053E+02</pdfrwt>
<totfact> 0.96220577E+04</totfact>
</mgrwt>
</event>
<event>
 5    1  0.1242969E+001  0.9215634E+02  0.7546771E-02  0.1297712E+00
          1   -1    0    0  501    0  0.00000000000E+00  0.00000000000E+00  0.10530515591E+03  0.10530515591E+03  0.00000000000E+00 0. -1.
         -1   -1    0    0    0  501 -0.00000000000E+00 -0.00000000000E+00 -0.20162334065E+02  0.20162334065E+02  0.00000000000E+00 0.  1.
         23    2    1    2    0    0  0.00000000000E+00  0.00000000000E+00  0.85142821842E+02  0.12546748997E+03  0.92156339602E+02 0.  0.
        -11    1    3    3    0    0  0.14059266585E+02 -0.39882423519E+02  0.67487570585E+02  0.79641966740E+02  0.00000000000E+00 0. -1.
         11    1    3    3    0    0 -0.14059266585E+02  0.39882423519E+02  0.17655251257E+02  0.45825523233E+02  0.00000000000E+00 0.  1.
<mgrwt>
<rscale>  0 0.92156340E+02</rscale>
<asrwt>0</asrwt>
<pdfrwt beam="1">  1        1 0.16200793E-01 0.92156340E+02</pdfrwt>
<pdfrwt beam="2">  1       -1 0.31018976E-02 0.92156340E+02</pdfrwt>
<totfact> 0.10233380E+05</totfact>
</mgrwt>
</event>
<event>
 5    1  0.1242969E+001  0.6288647E+02  0.7546771E-02  0.1386103E+00
          1   -1    0    0  501    0  0.00000000000E+00  0.00000000000E+00  0.38117431819E+02  0.38117431819E+02  0.00000000000E+00 0. -1.
         -1   -1    0    0    0  501 -0.00000000000E+00 -0.00000000000E+00 -0.25937663599E+02  0.25937663599E+02  0.00000000000E+00 0.  1.
         23    2    1    2    0    0  0.00000000000E+00  0.00000000000E+00  0.12179768219E+02  0.64055095418E+02  0.62886473069E+02 0.  0.
        -13    1    3    3    0    0 -0.74124986086E+01 -0.27055538270E+02  0.20556985093E+02  0.34778397359E+02  0.00000000000E+00 0. -1.
         13    1    3    3    0    0  0.74124986086E+01  0.27055538270E+02 -0.83772168741E+01  0.29276698059E+02  0.00000000000E+00 0.  1.
<mgrwt>
<rscale>  0 0.62886473E+02</rscale>
<asrwt>0</asrwt>
<pdfrwt beam="1">  1        1 0.58642203E-02 0.62886473E+02</pdfrwt>
<pdfrwt beam="2">  1       -1 0.39904098E-02 0.62886473E+02</pdfrwt>
<totfact> 0.24942573E+05</totfact>
</mgrwt>
</event>
<event>
 5    1  0.1242969E+001  0.9263001E+02  0.7546771E-02  0.1296605E+00
         -3   -1    0    0    0  501 -0.00000000000E+00  0.00000000000E+00  0.11665740684E+02  0.11665740684E+02  0.00000000000E+00 0.  1.
          3   -1    0    0  501    0  0.00000000000E+00 -0.00000000000E+00 -0.18387854791E+03  0.18387854791E+03  0.00000000000E+00 0. -1.
         23    2    1    2    0    0  0.00000000000E+00  0.00000000000E+00 -0.17221280723E+03  0.19554428860E+03  0.92630005016E+02 0.  0.
        -13    1    3    3    0    0  0.24491967043E+02  0.39309074642E+02 -0.85810419761E+02  0.97511475932E+02  0.00000000000E+00 0.  1.
         13    1    3    3    0    0 -0.24491967043E+02 -0.39309074642E+02 -0.86402387469E+02  0.98032812666E+02  0.00000000000E+00 0. -1.
<mgrwt>
<rscale>  0 0.92630005E+02</rscale>
<asrwt>0</asrwt>
<pdfrwt beam="2">  1        3 0.28289005E-01 0.92630005E+02</pdfrwt>
<pdfrwt beam="1">  1       -3 0.17947295E-02 0.92630005E+02</pdfrwt>
<totfact> 0.27527585E+04</totfact>
</mgrwt>
</event>
<event>
 5    1  0.1242969E+001  0.9854471E+02  0.7546771E-02  0.1283386E+00
          2   -1    0    0  501    0  0.00000000000E+00  0.00000000000E+00  0.14353658815E+03  0.14353658815E+03  0.00000000000E+00 0. -1.
         -2   -1    0    0    0  501 -0.00000000000E+00 -0.00000000000E+00 -0.16913910292E+02  0.16913910292E+02  0.00000000000E+00 0.  1.
         23    2    1    2    0    0  0.00000000000E+00  0.00000000000E+00  0.12662267786E+03  0.16045049844E+03  0.98544710170E+02 0.  0.
        -13    1    3    3    0    0 -0.48224404969E+01  0.26719279652E+02 -0.36349937312E+01  0.27393229399E+02  0.00000000000E+00 0.  1.
         13    1    3    3    0    0  0.48224404969E+01 -0.26719279652E+02  0.13025767159E+03  0.13305726904E+03  0.00000000000E+00 0. -1.
<mgrwt>
<rscale>  0 0.98544710E+02</rscale>
<asrwt>0</asrwt>
<pdfrwt beam="1">  1        2 0.22082551E-01 0.98544710E+02</pdfrwt>
<pdfrwt beam="2">  1       -2 0.26021401E-02 0.98544710E+02</pdfrwt>
<totfact> 0.11138005E+05</totfact>
</mgrwt>
</event>
<event>
 5    1  0.1242969E+001  0.8828223E+02  0.7546771E-02  0.1307066E+00
          1   -1    0    0  501    0  0.00000000000E+00  0.00000000000E+00  0.17153378763E+03  0.17153378763E+03  0.00000000000E+00 0. -1.
         -1   -1    0    0    0  501 -0.00000000000E+00 -0.00000000000E+00 -0.11358917128E+02  0.11358917128E+02  0.00000000000E+00 0.  1.
         23    2    1    2    0    0  0.00000000000E+00  0.00000000000E+00  0.16017487050E+03  0.18289270476E+03  0.88282231017E+02 0.  0.
        -13    1    3    3    0    0 -0.29528080471E+02 -0.27254119852E+02  0.42240607261E+02  0.58300630245E+02  0.00000000000E+00 0.  1.
         13    1    3    3    0    0  0.29528080471E+02  0.27254119852E+02  0.11793426324E+03  0.12459207451E+03  0.00000000000E+00 0. -1.
<mgrwt>
<rscale>  0 0.88282231E+02</rscale>
<asrwt>0</asrwt>
<pdfrwt beam="1">  1        1 0.26389812E-01 0.88282231E+02</pdfrwt>
<pdfrwt beam="2">  1       -1 0.17475258E-02 0.88282231E+02</pdfrwt>
<totfact> 0.12536483E+05</totfact>
</mgrwt>
</event>
<event>
 5    1  0.1242969E+001  0.9121974E+02  0.7546771E-02  0.1299925E+00
          1   -1    0    0  501    0  0.00000000000E+00  0.00000000000E+00  0.13269966971E+02  0.13269966971E+02  0.00000000000E+00 0. -1.
         -1   -1    0    0    0  501 -0.00000000000E+00 -0.00000000000E+00 -0.15676453991E+03  0.15676453991E+03  0.00000000000E+00 0.  1.
         23    2    1    2    0    0  0.00000000000E+00  0.00000000000E+00 -0.14349457294E+03  0.17003450688E+03  0.91219740557E+02 0.  0.
        -11    1    3    3    0    0  0.38543487854E+02  0.11963298666E+02 -0.32138092094E+02  0.51590482983E+02  0.00000000000E+00 0. -1.
         11    1    3    3    0    0 -0.38543487854E+02 -0.11963298666E+02 -0.11135648085E+03  0.11844402390E+03  0.00000000000E+00 0.  1.
<mgrwt>
<rscale>  0 0.91219741E+02</rscale>
<asrwt>0</asrwt>
<pdfrwt beam="1">  1        1 0.20415334E-02 0.91219741E+02</pdfrwt>
<pdfrwt beam="2">  1       -1 0.24117621E-01 0.91219741E+02</pdfrwt>
<totfact> 0.73918654E+04</totfact>
</mgrwt>
</event>
<event>
 5    1  0.1242969E+001  0.9142229E+02  0.7546771E-02  0.1299444E+00
          2   -1    0    0  501    0  0.00000000000E+00  0.00000000000E+00  0.22839178907E+02  0.22839178907E+02  0.00000000000E+00 0. -1.
         -2   -1    0    0    0  501 -0.00000000000E+00 -0.00000000000E+00 -0.91487920482E+02  0.91487920482E+02  0.00000000000E+00 0.  1.
         23    2    1    2    0    0  0.00000000000E+00  0.00000000000E+00 -0.68648741574E+02  0.11432709939E+03  0.91422294518E+02 0.  0.
        -11    1    3    3    0    0  0.32427209467E+02 -0.16513695404E+02 -0.68918952378E+02  0.77936179318E+02  0.00000000000E+00 0.  1.
         11    1    3    3    0    0 -0.32427209467E+02  0.16513695404E+02  0.27021080413E+00  0.36390920071E+02  0.00000000000E+00 0. -1.
<mgrwt>
<rscale>  0 0.91422295E+02</rscale>
<asrwt>0</asrwt>
<pdfrwt beam="1">  1        2 0.35137199E-02 0.91422295E+02</pdfrwt>
<pdfrwt beam="2">  1       -2 0.14075064E-01 0.91422295E+02</pdfrwt>
<totfact> 0.81372697E+04</totfact>
</mgrwt>
</event>
<event>
 5    1  0.1242969E+001  0.9547781E+02  0.7546771E-02  0.1290104E+00
         -2   -1    0    0    0  501 -0.00000000000E+00  0.00000000000E+00  0.31307888937E+03  0.31307888937E+03  0.00000000000E+00 0.  1.
          2   -1    0    0  501    0  0.00000000000E+00 -0.00000000000E+00 -0.72793246075E+01  0.72793246075E+01  0.00000000000E+00 0. -1.
         23    2    1    2    0    0  0.00000000000E+00  0.00000000000E+00  0.30579956476E+03  0.32035821397E+03  0.95477806080E+02 0.  0.
        -13    1    3    3    0    0  0.41636726262E+02 -0.24630695864E+01  0.23082111380E+03  0.23455931075E+03  0.00000000000E+00 0.  1.
         13    1    3    3    0    0 -0.41636726262E+02  0.24630695864E+01  0.74978450961E+02  0.85798903222E+02  0.00000000000E+00 0. -1.
<mgrwt>
<rscale>  0 0.95477806E+02</rscale>
<asrwt>0</asrwt>
<pdfrwt beam="2">  1        2 0.11198963E-02 0.95477806E+02</pdfrwt>
<pdfrwt beam="1">  1       -2 0.48165972E-01 0.95477806E+02</pdfrwt>
<totfact> 0.44191799E+04</totfact>
</mgrwt>
</event>
<event>
 5    1  0.1242969E+001  0.9059811E+02  0.7546771E-02  0.1301410E+00
          3   -1    0    0  501    0  0.00000000000E+00  0.00000000000E+00  0.59743542521E+02  0.59743542521E+02  0.00000000000E+00 0. -1.
         -3   -1    0    0    0  501 -0.00000000000E+00 -0.00000000000E+00 -0.34346883312E+02  0.34346883312E+02  0.00000000000E+00 0.  1.
         23    2    1    2    0    0  0.00000000000E+00  0.00000000000E+00  0.25396659209E+02  0.94090425833E+02  0.90598112201E+02 0.  0.
        -13    1    3    3    0    0  0.19191216636E+02  0.40105915366E+02  0.21705429580E+02  0.49476387465E+02  0.00000000000E+00 0. -1.
         13    1    3    3    0    0 -0.19191216636E+02 -0.40105915366E+02  0.36912296291E+01  0.44614038368E+02  0.00000000000E+00 0.  1.
<mgrwt>
<rscale>  0 0.90598112E+02</rscale>
<asrwt>0</asrwt>
<pdfrwt beam="1">  1        3 0.91913142E-02 0.90598112E+02</pdfrwt>
<pdfrwt beam="2">  1       -3 0.52841359E-02 0.90598112E+02</pdfrwt>
<totfact> 0.35729069E+04</totfact>
</mgrwt>
</event>
<event>
 5    1  0.1242969E+001  0.8812364E+02  0.7546771E-02  0.1307460E+00
          1   -1    0    0  501    0  0.00000000000E+00  0.00000000000E+00  0.46869668844E+02  0.46869668844E+02  0.00000000000E+00 0. -1.
         -1   -1    0    0    0  501 -0.00000000000E+00 -0.00000000000E+00 -0.41422181725E+02  0.41422181725E+02  0.00000000000E+00 0.  1.
         23    2    1    2    0    0  0.00000000000E+00  0.00000000000E+00  0.54474871186E+01  0.88291850568E+02  0.88123639058E+02 0.  0.
        -11    1    3    3    0    0  0.24572531181E+02 -0.20791386864E+02 -0.27422773329E+02  0.42285926186E+02  0.00000000000E+00 0.  1.
         11    1    3    3    0    0 -0.24572531181E+02  0.20791386864E+02  0.32870260447E+02  0.46005924382E+02  0.00000000000E+00 0. -1.
<mgrwt>
<rscale>  0 0.88123639E+02</rscale>
<asrwt>0</asrwt>
<pdfrwt beam="1">  1        1 0.72107183E-02 0.88123639E+02</pdfrwt>
<pdfrwt beam="2">  1       -1 0.63726433E-02 0.88123639E+02</pdfrwt>
<totfact> 0.10212646E+05</totfact>
</mgrwt>
</event>
<event>
 5    1  0.1242969E+001  0.9049701E+02  0.7546771E-02  0.1301653E+00
          1   -1    0    0  501    0  0.00000000000E+00  0.00000000000E+00  0.21126044564E+03  0.21126044564E+03  0.00000000000E+00 0. -1.
         -1   -1    0    0    0  501 -0.00000000000E+00 -0.00000000000E+00 -0.96914832692E+01  0.96914832692E+01  0.00000000000E+00 0.  1.
         23    2    1    2    0    0  0.00000000000E+00  0.00000000000E+00  0.20156896237E+03  0.22095192891E+03  0.90497007119E+02 0.  0.
        -11    1    3    3    0    0  0.15512174093E+02  0.41742736881E+02  0.81199834452E+02  0.92609377184E+02  0.00000000000E+00 0. -1.
         11    1    3    3    0    0 -0.15512174093E+02 -0.41742736881E+02  0.12036912792E+03  0.12834255172E+03  0.00000000000E+00 0.  1.
<mgrwt>
<rscale>  0 0.90497007E+02</rscale>
<asrwt>0</asrwt>
<pdfrwt beam="1">  1        1 0.32501603E-01 0.90497007E+02</pdfrwt>
<pdfrwt beam="2">  1       -1 0.14909976E-02 0.90497007E+02</pdfrwt>
<totfact> 0.12209534E+05</totfact>
</mgrwt>
</event>
<event>
 5    1  0.1242969E+001  0.9088124E+02  0.7546771E-02  0.1300732E+00
          2   -1    0    0  501    0  0.00000000000E+00  0.00000000000E+00  0.66507086206E+02  0.66507086206E+02  0.00000000000E+00 0. -1.
         -2   -1    0    0    0  501 -0.00000000000E+00 -0.00000000000E+00 -0.31047069003E+02  0.31047069003E+02  0.00000000000E+00 0.  1.
         23    2    1    2    0    0  0.00000000000E+00  0.00000000000E+00  0.35460017203E+02  0.97554155210E+02  0.90881243272E+02 0.  0.
        -13    1    3    3    0    0  0.35050137224E+02  0.57820652662E+01 -0.12686109258E+02  0.37721105051E+02  0.00000000000E+00 0.  1.
         13    1    3    3    0    0 -0.35050137224E+02 -0.57820652662E+01  0.48146126461E+02  0.59833050159E+02  0.00000000000E+00 0. -1.
<mgrwt>
<rscale>  0 0.90881243E+02</rscale>
<asrwt>0</asrwt>
<pdfrwt beam="1">  1        2 0.10231859E-01 0.90881243E+02</pdfrwt>
<pdfrwt beam="2">  1       -2 0.47764722E-02 0.90881243E+02</pdfrwt>
<totfact> 0.11006854E+05</totfact>
</mgrwt>
</event>
<event>
 5    1  0.1242969E+001  0.9116673E+02  0.7546771E-02  0.1300051E+00
          3   -1    0    0  501    0  0.00000000000E+00  0.00000000000E+00  0.28664339670E+02  0.28664339670E+02  0.00000000000E+00 0. -1.
         -3   -1    0    0    0  501 -0.00000000000E+00 -0.00000000000E+00 -0.72488781854E+02  0.72488781854E+02  0.00000000000E+00 0.  1.
         23    2    1    2    0    0  0.00000000000E+00  0.00000000000E+00 -0.43824442183E+02  0.10115312152E+03  0.91166727820E+02 0.  0.
        -11    1    3    3    0    0 -0.12046057958E+02  0.14810418118E+01 -0.70663112028E+02  0.71697813068E+02  0.00000000000E+00 0.  1.
         11    1    3    3    0    0  0.12046057958E+02 -0.14810418118E+01  0.26838669845E+02  0.29455308456E+02  0.00000000000E+00 0. -1.
<mgrwt>
<rscale>  0 0.91166728E+02</rscale>
<asrwt>0</asrwt>
<pdfrwt beam="1">  1        3 0.44098984E-02 0.91166728E+02</pdfrwt>
<pdfrwt beam="2">  1       -3 0.11152120E-01 0.91166728E+02</pdfrwt>
<totfact> 0.34597661E+04</totfact>
</mgrwt>
</event>
<event>
 5    1  0.1242969E+001  0.9036594E+02  0.7546771E-02  0.1301968E+00
          3   -1    0    0  501    0  0.00000000000E+00  0.00000000000E+00  0.22942903777E+03  0.22942903777E+03  0.00000000000E+00 0. -1.
         -3   -1    0    0    0  501 -0.00000000000E+00 -0.00000000000E+00 -0.88981797787E+01  0.88981797787E+01  0.00000000000E+00 0.  1.
         23    2    1    2    0    0  0.00000000000E+00  0.00000000000E+00  0.22053085799E+03  0.23832721755E+03  0.90365941029E+02 0.  0.
        -11    1    3    3    0    0 -0.36700986564E+02  0.22117473983E+02  0.72471477124E+02  0.84191805223E+02  0.00000000000E+00 0.  1.
         11    1    3    3    0    0  0.36700986564E+02 -0.22117473983E+02  0.14805938087E+03  0.15413541233E+03  0.00000000000E+00 0. -1.
<mgrwt>
<rscale>  0 0.90365941E+02</rscale>
<asrwt>0</asrwt>
<pdfrwt beam="1">  1        3 0.35296771E-01 0.90365941E+02</pdfrwt>
<pdfrwt beam="2">  1       -3 0.13689509E-02 0.90365941E+02</pdfrwt>
<totfact> 0.27278286E+04</totfact>
</mgrwt>
</event>
<event>
 5    1  0.1242969E+001  0.9128057E+02  0.7546771E-02  0.1299780E+00
          1   -1    0    0  501    0  0.00000000000E+00  0.00000000000E+00  0.87835022846E+02  0.87835022846E+02  0.00000000000E+00 0. -1.
         -1   -1    0    0    0  501 -0.00000000000E+00 -0.00000000000E+00 -0.23715316914E+02  0.23715316914E+02  0.00000000000E+00 0.  1.
         23    2    1    2    0    0  0.00000000000E+00  0.00000000000E+00  0.64119705932E+02  0.11155033976E+03  0.91280565356E+02 0.  0.
        -13    1    3    3    0    0 -0.31569388801E+02 -0.18106179283E+02  0.65718134877E+02  0.75122122502E+02  0.00000000000E+00 0. -1.
         13    1    3    3    0    0  0.31569388801E+02  0.18106179283E+02 -0.15984289451E+01  0.36428217258E+02  0.00000000000E+00 0.  1.
<mgrwt>
<rscale>  0 0.91280565E+02</rscale>
<asrwt>0</asrwt>
<pdfrwt beam="1">  1        1 0.13513080E-01 0.91280565E+02</pdfrwt>
<pdfrwt beam="2">  1       -1 0.36485104E-02 0.91280565E+02</pdfrwt>
<totfact> 0.10193891E+05</totfact>
</mgrwt>
</event>
<event>
 5    1  0.1242969E+001  0.9239509E+02  0.7546771E-02  0.1297153E+00
         -2   -1    0    0    0  501 -0.00000000000E+00  0.00000000000E+00  0.14541609867E+02  0.14541609867E+02  0.00000000000E+00 0. -1.
          2   -1    0    0  501    0  0.00000000000E+00 -0.00000000000E+00 -0.14676596075E+03  0.14676596075E+03  0.00000000000E+00 0.  1.
         23    2    1    2    0    0  0.00000000000E+00  0.00000000000E+00 -0.13222435088E+03  0.16130757062E+03  0.92395093875E+02 0.  0.
        -13    1    3    3    0    0 -0.46017710000E+02 -0.38223988682E+01 -0.68564436888E+02  0.82663912153E+02  0.00000000000E+00 0.  1.
         13    1    3    3    0    0  0.46017710000E+02  0.38223988682E+01 -0.63659913994E+02  0.78643658463E+02  0.00000000000E+00 0. -1.
<mgrwt>
<rscale>  0 0.92395094E+02</rscale>
<asrwt>0</asrwt>
<pdfrwt beam="2">  1        2 0.22579379E-01 0.92395094E+02</pdfrwt>
<pdfrwt beam="1">  1       -2 0.22371707E-02 0.92395094E+02</pdfrwt>
<totfact> 0.13385758E+05</totfact>
</mgrwt>
</event>
<event>
 5    1  0.1242969E+001  0.8921939E+02  0.7546771E-02  0.1304753E+00
         -2   -1    0    0    0  501 -0.00000000000E+00  0.00000000000E+00  0.13988633091E+03  0.13988633091E+03  0.00000000000E+00 0.  1.
          2   -1    0    0  501    0  0.00000000000E+00 -0.00000000000E+00 -0.14226013793E+02  0.14226013793E+02  0.00000000000E+00 0. -1.
         23    2    1    2    0    0  0.00000000000E+00  0.00000000000E+00  0.12566031711E+03  0.15411234470E+03  0.89219389664E+02 0.  0.
        -11    1    3    3    0    0  0.15837391525E+02 -0.39048101079E+02  0.88125403037E+02  0.97681440553E+02  0.00000000000E+00 0.  1.
         11    1    3    3    0    0 -0.15837391525E+02  0.39048101079E+02  0.37534914078E+02  0.56430904149E+02  0.00000000000E+00 0. -1.
<mgrwt>
<rscale>  0 0.89219390E+02</rscale>
<asrwt>0</asrwt>
<pdfrwt beam="2">  1        2 0.21886176E-02 0.89219390E+02</pdfrwt>
<pdfrwt beam="1">  1       -2 0.21520973E-01 0.89219390E+02</pdfrwt>
<totfact> 0.75651042E+04</totfact>
</mgrwt>
</event>
<event>
 5    1  0.1242969E+001  0.9311426E+02  0.7546771E-02  0.1295481E+00
          3   -1    0    0  501    0  0.00000000000E+00  0.00000000000E+00  0.22050146383E+02  0.22050146383E+02  0.00000000000E+00 0. -1.
         -3   -1    0    0    0  501 -0.00000000000E+00 -0.00000000000E+00 -0.98301674618E+02  0.98301674618E+02  0.00000000000E+00 0.  1.
         23    2    1    2    0    0  0.00000000000E+00  0.00000000000E+00 -0.76251528235E+02  0.12035182100E+03  0.93114259166E+02 0.  0.
        -11    1    3    3    0    0  0.15161902502E+02 -0.37173184288E+02 -0.76531048801E+01  0.40869290817E+02  0.00000000000E+00 0.  1.
         11    1    3    3    0    0 -0.15161902502E+02  0.37173184288E+02 -0.68598423355E+02  0.79482530184E+02  0.00000000000E+00 0. -1.
<mgrwt>
<rscale>  0 0.93114259E+02</rscale>
<asrwt>0</asrwt>
<pdfrwt beam="1">  1        3 0.33923302E-02 0.93114259E+02</pdfrwt>
<pdfrwt beam="2">  1       -3 0.15123334E-01 0.93114259E+02</pdfrwt>
<totfact> 0.31374849E+04</totfact>
</mgrwt>
</event>
<event>
 5    1  0.1242969E+001  0.9141252E+02  0.7546771E-02  0.1299467E+00
          3   -1    0    0  501    0  0.00000000000E+00  0.00000000000E+00  0.19332551742E+02  0.19332551742E+02  0.00000000000E+00 0. -1.
         -3   -1    0    0    0  501 -0.00000000000E+00 -0.00000000000E+00 -0.10805931005E+03  0.10805931005E+03  0.00000000000E+00 0.  1.
         23    2    1    2    0    0  0.00000000000E+00  0.00000000000E+00 -0.88726758308E+02  0.12739186179E+03  0.91412519991E+02 0.  0.
        -13    1    3    3    0    0 -0.19560882854E+02  0.14712045813E+01 -0.10189480727E+03  0.10376581484E+03  0.00000000000E+00 0.  1.
         13    1    3    3    0    0  0.19560882854E+02 -0.14712045813E+01  0.13168048964E+02  0.23626046950E+02  0.00000000000E+00 0. -1.
<mgrwt>
<rscale>  0 0.91412520E+02</rscale>
<asrwt>0</asrwt>
<pdfrwt beam="1">  1        3 0.29742387E-02 0.91412520E+02</pdfrwt>
<pdfrwt beam="2">  1       -3 0.16624509E-01 0.91412520E+02</pdfrwt>
<totfact> 0.32520830E+04</totfact>
</mgrwt>
</event>
<event>
 5    1  0.1242969E+001  0.8969407E+02  0.7546771E-02  0.1303594E+00
         -4   -1    0    0    0  501 -0.00000000000E+00  0.00000000000E+00  0.10759870477E+03  0.10759870477E+03  0.00000000000E+00 0.  1.
          4   -1    0    0  501    0  0.00000000000E+00 -0.00000000000E+00 -0.18692200667E+02  0.18692200667E+02  0.00000000000E+00 0. -1.
         23    2    1    2    0    0  0.00000000000E+00  0.00000000000E+00  0.88906504107E+02  0.12629090544E+03  0.89694070733E+02 0.  0.
        -13    1    3    3    0    0 -0.22201771960E+02 -0.37476070429E+02  0.59478995766E+02  0.73723303441E+02  0.00000000000E+00 0.  1.
         13    1    3    3    0    0  0.22201771960E+02  0.37476070429E+02  0.29427508342E+02  0.52567602001E+02  0.00000000000E+00 0. -1.
<mgrwt>
<rscale>  0 0.89694071E+02</rscale>
<asrwt>0</asrwt>
<pdfrwt beam="2">  1        4 0.28757232E-02 0.89694071E+02</pdfrwt>
<pdfrwt beam="1">  1       -4 0.16553647E-01 0.89694071E+02</pdfrwt>
<totfact> 0.26045383E+04</totfact>
</mgrwt>
</event>
<event>
 5    1  0.1242969E+001  0.8910374E+02  0.7546771E-02  0.1305037E+00
          1   -1    0    0  501    0  0.00000000000E+00  0.00000000000E+00  0.12517918764E+03  0.12517918764E+03  0.00000000000E+00 0. -1.
         -1   -1    0    0    0  501 -0.00000000000E+00 -0.00000000000E+00 -0.15856221537E+02  0.15856221537E+02  0.00000000000E+00 0.  1.
         23    2    1    2    0    0  0.00000000000E+00  0.00000000000E+00  0.10932296611E+03  0.14103540918E+03  0.89103735749E+02 0.  0.
        -13    1    3    3    0    0  0.29289061960E+02 -0.33190029173E+02  0.62645210277E+02  0.76706255010E+02  0.00000000000E+00 0. -1.
         13    1    3    3    0    0 -0.29289061960E+02  0.33190029173E+02  0.46677755830E+02  0.64329154171E+02  0.00000000000E+00 0.  1.
<mgrwt>
<rscale>  0 0.89103736E+02</rscale>
<asrwt>0</asrwt>
<pdfrwt beam="1">  1        1 0.19258336E-01 0.89103736E+02</pdfrwt>
<pdfrwt beam="2">  1       -1 0.24394188E-02 0.89103736E+02</pdfrwt>
<totfact> 0.11550148E+05</totfact>
</mgrwt>
</event>
<event>
 5    1  0.1242969E+001  0.9126094E+02  0.7546771E-02  0.1299827E+00
         -2   -1    0    0    0  501 -0.00000000000E+00  0.00000000000E+00  0.43113798001E+02  0.43113798001E+02  0.00000000000E+00 0.  1.
          2   -1    0    0  501    0  0.00000000000E+00 -0.00000000000E+00 -0.48294043074E+02  0.48294043074E+02  0.00000000000E+00 0. -1.
         23    2    1    2    0    0  0.00000000000E+00  0.00000000000E+00 -0.51802450734E+01  0.91407841075E+02  0.91260936172E+02 0.  0.
        -11    1    3    3    0    0 -0.13738507542E+02  0.17839312556E+02  0.37161948562E+02  0.43451099904E+02  0.00000000000E+00 0.  1.
         11    1    3    3    0    0  0.13738507542E+02 -0.17839312556E+02 -0.42342193635E+02  0.47956741171E+02  0.00000000000E+00 0. -1.
<mgrwt>
<rscale>  0 0.91260936E+02</rscale>
<asrwt>0</asrwt>
<pdfrwt beam="2">  1        2 0.74298527E-02 0.91260936E+02</pdfrwt>
<pdfrwt beam="1">  1       -2 0.66328921E-02 0.91260936E+02</pdfrwt>
<totfact> 0.99901356E+04</totfact>
</mgrwt>
</event>
<event>
 5    1  0.1242969E+001  0.9260950E+02  0.7546771E-02  0.1296653E+00
         -3   -1    0    0    0  501 -0.00000000000E+00  0.00000000000E+00  0.87095274564E+02  0.87095274564E+02  0.00000000000E+00 0.  1.
          3   -1    0    0  501    0  0.00000000000E+00 -0.00000000000E+00 -0.24618208837E+02  0.24618208837E+02  0.00000000000E+00 0. -1.
         23    2    1    2    0    0  0.00000000000E+00  0.00000000000E+00  0.62477065728E+02  0.11171348340E+03  0.92609495364E+02 0.  0.
        -13    1    3    3    0    0 -0.36245971801E+02 -0.23196679147E+02  0.51861189939E+02  0.67390202679E+02  0.00000000000E+00 0.  1.
         13    1    3    3    0    0  0.36245971801E+02  0.23196679147E+02  0.10615875789E+02  0.44323280722E+02  0.00000000000E+00 0. -1.
<mgrwt>
<rscale>  0 0.92609495E+02</rscale>
<asrwt>0</asrwt>
<pdfrwt beam="2">  1        3 0.37874168E-02 0.92609495E+02</pdfrwt>
<pdfrwt beam="1">  1       -3 0.13399273E-01 0.92609495E+02</pdfrwt>
<totfact> 0.32417813E+04</totfact>
</mgrwt>
</event>
<event>
 5    1  0.1242969E+001  0.8639673E+02  0.7546771E-02  0.1311820E+00
         -1   -1    0    0    0  501 -0.00000000000E+00  0.00000000000E+00  0.85537818273E+01  0.85537818273E+01  0.00000000000E+00 0.  1.
          1   -1    0    0  501    0  0.00000000000E+00 -0.00000000000E+00 -0.21816067450E+03  0.21816067450E+03  0.00000000000E+00 0. -1.
         23    2    1    2    0    0  0.00000000000E+00  0.00000000000E+00 -0.20960689268E+03  0.22671445633E+03  0.86396731720E+02 0.  0.
        -13    1    3    3    0    0  0.26826877531E+02  0.33780377491E+02 -0.11084662305E+03  0.11894439501E+03  0.00000000000E+00 0.  1.
         13    1    3    3    0    0 -0.26826877531E+02 -0.33780377491E+02 -0.98760269625E+02  0.10777006132E+03  0.00000000000E+00 0. -1.
<mgrwt>
<rscale>  0 0.86396732E+02</rscale>
<asrwt>0</asrwt>
<pdfrwt beam="2">  1        1 0.33563174E-01 0.86396732E+02</pdfrwt>
<pdfrwt beam="1">  1       -1 0.13159667E-02 0.86396732E+02</pdfrwt>
<totfact> 0.13903404E+05</totfact>
</mgrwt>
</event>
<event>
 5    1  0.1242969E+001  0.8643052E+02  0.7546771E-02  0.1311733E+00
         -1   -1    0    0    0  501 -0.00000000000E+00  0.00000000000E+00  0.42686489150E+02  0.42686489150E+02  0.00000000000E+00 0.  1.
          1   -1    0    0  501    0  0.00000000000E+00 -0.00000000000E+00 -0.43750584243E+02  0.43750584243E+02  0.00000000000E+00 0. -1.
         23    2    1    2    0    0  0.00000000000E+00  0.00000000000E+00 -0.10640950932E+01  0.86437073393E+02  0.86430523302E+02 0.  0.
        -11    1    3    3    0    0 -0.30603713002E+01 -0.26752522716E+02 -0.34335430051E+02  0.43634677734E+02  0.00000000000E+00 0. -1.
         11    1    3    3    0    0  0.30603713002E+01  0.26752522716E+02  0.33271334958E+02  0.42802395658E+02  0.00000000000E+00 0.  1.
<mgrwt>
<rscale>  0 0.86430523E+02</rscale>
<asrwt>0</asrwt>
<pdfrwt beam="2">  1        1 0.67308591E-02 0.86430523E+02</pdfrwt>
<pdfrwt beam="1">  1       -1 0.65671522E-02 0.86430523E+02</pdfrwt>
<totfact> 0.10672749E+05</totfact>
</mgrwt>
</event>
<event>
 5    1  0.1242969E+001  0.9252153E+02  0.7546771E-02  0.1296858E+00
         -2   -1    0    0    0  501 -0.00000000000E+00  0.00000000000E+00  0.25277719400E+02  0.25277719400E+02  0.00000000000E+00 0.  1.
          2   -1    0    0  501    0  0.00000000000E+00 -0.00000000000E+00 -0.84661843528E+02  0.84661843528E+02  0.00000000000E+00 0. -1.
         23    2    1    2    0    0  0.00000000000E+00  0.00000000000E+00 -0.59384124127E+02  0.10993956293E+03  0.92521528837E+02 0.  0.
        -11    1    3    3    0    0  0.21359020452E+02  0.28507504796E+02  0.53801650124E+01  0.36025432126E+02  0.00000000000E+00 0.  1.
         11    1    3    3    0    0 -0.21359020452E+02 -0.28507504796E+02 -0.64764289140E+02  0.73914130801E+02  0.00000000000E+00 0. -1.
<mgrwt>
<rscale>  0 0.92521529E+02</rscale>
<asrwt>0</asrwt>
<pdfrwt beam="2">  1        2 0.13024899E-01 0.92521529E+02</pdfrwt>
<pdfrwt beam="1">  1       -2 0.38888799E-02 0.92521529E+02</pdfrwt>
<totfact> 0.11209346E+05</totfact>
</mgrwt>
</event>
<event>
 5    1  0.1242969E+001  0.9357581E+02  0.7546771E-02  0.1294416E+00
          1   -1    0    0  501    0  0.00000000000E+00  0.00000000000E+00  0.13407407774E+02  0.13407407774E+02  0.00000000000E+00 0. -1.
         -1   -1    0    0    0  501 -0.00000000000E+00 -0.00000000000E+00 -0.16327600215E+03  0.16327600215E+03  0.00000000000E+00 0.  1.
         23    2    1    2    0    0  0.00000000000E+00  0.00000000000E+00 -0.14986859437E+03  0.17668340992E+03  0.93575807567E+02 0.  0.
        -11    1    3    3    0    0  0.42881448012E+02  0.17382299899E+02 -0.88035398834E+02  0.99454483967E+02  0.00000000000E+00 0.  1.
         11    1    3    3    0    0 -0.42881448012E+02 -0.17382299899E+02 -0.61833195540E+02  0.77228925955E+02  0.00000000000E+00 0. -1.
<mgrwt>
<rscale>  0 0.93575808E+02</rscale>
<asrwt>0</asrwt>
<pdfrwt beam="1">  1        1 0.20626783E-02 0.93575808E+02</pdfrwt>
<pdfrwt beam="2">  1       -1 0.25119383E-01 0.93575808E+02</pdfrwt>
<totfact> 0.68487705E+04</totfact>
</mgrwt>
</event>
<event>
 5    1  0.1242969E+001  0.9101695E+02  0.7546771E-02  0.1300408E+00
          1   -1    0    0  501    0  0.00000000000E+00  0.00000000000E+00  0.17569936145E+03  0.17569936145E+03  0.00000000000E+00 0. -1.
         -1   -1    0    0    0  501 -0.00000000000E+00 -0.00000000000E+00 -0.11787301398E+02  0.11787301398E+02  0.00000000000E+00 0.  1.
         23    2    1    2    0    0  0.00000000000E+00  0.00000000000E+00  0.16391206006E+03  0.18748666285E+03  0.91016950704E+02 0.  0.
        -13    1    3    3    0    0  0.19990564441E+02  0.40848218946E+02  0.85416230793E+02  0.96768445997E+02  0.00000000000E+00 0.  1.
         13    1    3    3    0    0 -0.19990564441E+02 -0.40848218946E+02  0.78495829263E+02  0.90718216855E+02  0.00000000000E+00 0. -1.
<mgrwt>
<rscale>  0 0.91016951E+02</rscale>
<asrwt>0</asrwt>
<pdfrwt beam="1">  1        1 0.27030669E-01 0.91016951E+02</pdfrwt>
<pdfrwt beam="2">  1       -1 0.18134311E-02 0.91016951E+02</pdfrwt>
<totfact> 0.11603910E+05</totfact>
</mgrwt>
</event>
<event>
 5    1  0.1242969E+001  0.9097769E+02  0.7546771E-02  0.1300501E+00
         -3   -1    0    0    0  501 -0.00000000000E+00  0.00000000000E+00  0.13209755436E+02  0.13209755436E+02  0.00000000000E+00 0.  1.
          3   -1    0    0  501    0  0.00000000000E+00 -0.00000000000E+00 -0.15664445327E+03  0.15664445327E+03  0.00000000000E+00 0. -1.
         23    2    1    2    0    0  0.00000000000E+00  0.00000000000E+00 -0.14343469783E+03  0.16985420870E+03  0.90977687773E+02 0.  0.
        -13    1    3    3    0    0  0.24539711792E+02 -0.14351265922E+02 -0.13801719201E+03  0.14091451869E+03  0.00000000000E+00 0. -1.
         13    1    3    3    0    0 -0.24539711792E+02  0.14351265922E+02 -0.54175058183E+01  0.28939690007E+02  0.00000000000E+00 0.  1.
<mgrwt>
<rscale>  0 0.90977688E+02</rscale>
<asrwt>0</asrwt>
<pdfrwt beam="2">  1        3 0.24099149E-01 0.90977688E+02</pdfrwt>
<pdfrwt beam="1">  1       -3 0.20322699E-02 0.90977688E+02</pdfrwt>
<totfact> 0.30313645E+04</totfact>
</mgrwt>
</event>
<event>
 5    1  0.1242969E+001  0.9094211E+02  0.7546771E-02  0.1300586E+00
          2   -1    0    0  501    0  0.00000000000E+00  0.00000000000E+00  0.14157612127E+02  0.14157612127E+02  0.00000000000E+00 0. -1.
         -2   -1    0    0    0  501 -0.00000000000E+00 -0.00000000000E+00 -0.14604278142E+03  0.14604278142E+03  0.00000000000E+00 0.  1.
         23    2    1    2    0    0  0.00000000000E+00  0.00000000000E+00 -0.13188516930E+03  0.16020039355E+03  0.90942114629E+02 0.  0.
        -13    1    3    3    0    0 -0.20596819668E+01 -0.36145717917E+02 -0.17479970743E+02  0.40203290794E+02  0.00000000000E+00 0. -1.
         13    1    3    3    0    0  0.20596819668E+01  0.36145717917E+02 -0.11440519855E+03  0.11999710276E+03  0.00000000000E+00 0.  1.
<mgrwt>
<rscale>  0 0.90942115E+02</rscale>
<asrwt>0</asrwt>
<pdfrwt beam="1">  1        2 0.21780944E-02 0.90942115E+02</pdfrwt>
<pdfrwt beam="2">  1       -2 0.22468118E-01 0.90942115E+02</pdfrwt>
<totfact> 0.70996251E+04</totfact>
</mgrwt>
</event>
<event>
 4    1  0.1242969E+001  0.1396329E+03  0.7546771E-02  0.1213824E+00
         -2   -1    0    0    0  501 -0.00000000000E+00  0.00000000000E+00  0.14017765441E+02  0.14017765441E+02  0.00000000000E+00 0.  1.
          2   -1    0    0  501    0  0.00000000000E+00 -0.00000000000E+00 -0.34772559382E+03  0.34772559382E+03  0.00000000000E+00 0. -1.
        -13    1    1    2    0    0 -0.13872774686E+02  0.55965219860E+02 -0.64866324475E+02  0.86788246683E+02  0.00000000000E+00 0.  1.
         13    1    1    2    0    0  0.13872774686E+02 -0.55965219860E+02 -0.26884150390E+03  0.27495511257E+03  0.00000000000E+00 0. -1.
<mgrwt>
<rscale>  0 0.13963289E+03</rscale>
<asrwt>0</asrwt>
<pdfrwt beam="2">  1        2 0.53496243E-01 0.13963289E+03</pdfrwt>
<pdfrwt beam="1">  1       -2 0.21565794E-02 0.13963289E+03</pdfrwt>
<totfact> 0.59369768E+04</totfact>
</mgrwt>
</event>
<event>
 5    1  0.1242969E+001  0.9247808E+02  0.7546771E-02  0.1296959E+00
          2   -1    0    0  501    0  0.00000000000E+00  0.00000000000E+00  0.41795019655E+02  0.41795019655E+02  0.00000000000E+00 0. -1.
         -2   -1    0    0    0  501 -0.00000000000E+00 -0.00000000000E+00 -0.51155592654E+02  0.51155592654E+02  0.00000000000E+00 0.  1.
         23    2    1    2    0    0  0.00000000000E+00  0.00000000000E+00 -0.93605729987E+01  0.92950612309E+02  0.92478083900E+02 0.  0.
        -11    1    3    3    0    0  0.42860671102E+00 -0.46232851142E+02 -0.40535847129E+01  0.46412194275E+02  0.00000000000E+00 0. -1.
         11    1    3    3    0    0 -0.42860671102E+00  0.46232851142E+02 -0.53069882858E+01  0.46538418034E+02  0.00000000000E+00 0.  1.
<mgrwt>
<rscale>  0 0.92478084E+02</rscale>
<asrwt>0</asrwt>
<pdfrwt beam="1">  1        2 0.64300030E-02 0.92478084E+02</pdfrwt>
<pdfrwt beam="2">  1       -2 0.78700912E-02 0.92478084E+02</pdfrwt>
<totfact> 0.92601190E+04</totfact>
</mgrwt>
</event>
<event>
 5    1  0.1242969E+001  0.9101977E+02  0.7546771E-02  0.1300401E+00
         -2   -1    0    0    0  501 -0.00000000000E+00  0.00000000000E+00  0.13673127667E+03  0.13673127667E+03  0.00000000000E+00 0.  1.
          2   -1    0    0  501    0  0.00000000000E+00 -0.00000000000E+00 -0.15147593347E+02  0.15147593347E+02  0.00000000000E+00 0. -1.
         23    2    1    2    0    0  0.00000000000E+00  0.00000000000E+00  0.12158368333E+03  0.15187887002E+03  0.91019773168E+02 0.  0.
        -11    1    3    3    0    0  0.31820261037E+02 -0.27973790932E+02  0.33065970234E+02  0.53744026450E+02  0.00000000000E+00 0.  1.
         11    1    3    3    0    0 -0.31820261037E+02  0.27973790932E+02  0.88517713092E+02  0.98134843570E+02  0.00000000000E+00 0. -1.
<mgrwt>
<rscale>  0 0.91019773E+02</rscale>
<asrwt>0</asrwt>
<pdfrwt beam="2">  1        2 0.23303991E-02 0.91019773E+02</pdfrwt>
<pdfrwt beam="1">  1       -2 0.21035580E-01 0.91019773E+02</pdfrwt>
<totfact> 0.72506611E+04</totfact>
</mgrwt>
</event>
<event>
 5    1  0.1242969E+001  0.9192808E+02  0.7546771E-02  0.1298249E+00
          2   -1    0    0  501    0  0.00000000000E+00  0.00000000000E+00  0.39591023864E+02  0.39591023864E+02  0.00000000000E+00 0. -1.
         -2   -1    0    0    0  501 -0.00000000000E+00 -0.00000000000E+00 -0.53362928097E+02  0.53362928097E+02  0.00000000000E+00 0.  1.
         23    2    1    2    0    0  0.00000000000E+00  0.00000000000E+00 -0.13771904233E+02  0.92953951962E+02  0.91928079709E+02 0.  0.
        -13    1    3    3    0    0  0.51480264715E+01  0.34255053793E+02 -0.37435389849E+02  0.51003130296E+02  0.00000000000E+00 0.  1.
         13    1    3    3    0    0 -0.51480264715E+01 -0.34255053793E+02  0.23663485616E+02  0.41950821665E+02  0.00000000000E+00 0. -1.
<mgrwt>
<rscale>  0 0.91928080E+02</rscale>
<asrwt>0</asrwt>
<pdfrwt beam="1">  1        2 0.60909268E-02 0.91928080E+02</pdfrwt>
<pdfrwt beam="2">  1       -2 0.82096812E-02 0.91928080E+02</pdfrwt>
<totfact> 0.92894594E+04</totfact>
</mgrwt>
</event>
<event>
 5    1  0.1242969E+001  0.8999669E+02  0.7546771E-02  0.1302860E+00
         -2   -1    0    0    0  501 -0.00000000000E+00  0.00000000000E+00  0.15710225655E+02  0.15710225655E+02  0.00000000000E+00 0.  1.
          2   -1    0    0  501    0  0.00000000000E+00 -0.00000000000E+00 -0.12888744808E+03  0.12888744808E+03  0.00000000000E+00 0. -1.
         23    2    1    2    0    0  0.00000000000E+00  0.00000000000E+00 -0.11317722242E+03  0.14459767373E+03  0.89996686458E+02 0.  0.
        -13    1    3    3    0    0  0.27266809519E+02  0.54310929784E+01 -0.11343662666E+03  0.11679402356E+03  0.00000000000E+00 0. -1.
         13    1    3    3    0    0 -0.27266809519E+02 -0.54310929784E+01  0.25940423347E+00  0.27803650172E+02  0.00000000000E+00 0.  1.
<mgrwt>
<rscale>  0 0.89996686E+02</rscale>
<asrwt>0</asrwt>
<pdfrwt beam="2">  1        2 0.19828838E-01 0.89996686E+02</pdfrwt>
<pdfrwt beam="1">  1       -2 0.24169579E-02 0.89996686E+02</pdfrwt>
<totfact> 0.13770535E+05</totfact>
</mgrwt>
</event>
<event>
 5    1  0.1242969E+001  0.9206367E+02  0.7546771E-02  0.1297930E+00
         -3   -1    0    0    0  501 -0.00000000000E+00  0.00000000000E+00  0.36609989060E+02  0.36609989060E+02  0.00000000000E+00 0.  1.
          3   -1    0    0  501    0  0.00000000000E+00 -0.00000000000E+00 -0.57878459931E+02  0.57878459931E+02  0.00000000000E+00 0. -1.
         23    2    1    2    0    0  0.00000000000E+00  0.00000000000E+00 -0.21268470871E+02  0.94488448991E+02  0.92063668944E+02 0.  0.
        -11    1    3    3    0    0  0.23445188410E+02  0.10415734152E+02 -0.49860836576E+02  0.56073767499E+02  0.00000000000E+00 0. -1.
         11    1    3    3    0    0 -0.23445188410E+02 -0.10415734152E+02  0.28592365705E+02  0.38414681491E+02  0.00000000000E+00 0.  1.
<mgrwt>
<rscale>  0 0.92063669E+02</rscale>
<asrwt>0</asrwt>
<pdfrwt beam="2">  1        3 0.89043784E-02 0.92063669E+02</pdfrwt>
<pdfrwt beam="1">  1       -3 0.56323060E-02 0.92063669E+02</pdfrwt>
<totfact> 0.34170954E+04</totfact>
</mgrwt>
</event>
<event>
 5    1  0.1242969E+001  0.8819735E+02  0.7546771E-02  0.1307277E+00
         -1   -1    0    0    0  501 -0.00000000000E+00  0.00000000000E+00  0.22495427561E+03  0.22495427561E+03  0.00000000000E+00 0. -1.
          1   -1    0    0  501    0  0.00000000000E+00 -0.00000000000E+00 -0.86448365471E+01  0.86448365471E+01  0.00000000000E+00 0.  1.
         23    2    1    2    0    0  0.00000000000E+00  0.00000000000E+00  0.21630943907E+03  0.23359911216E+03  0.88197345612E+02 0.  0.
        -11    1    3    3    0    0  0.42272559908E+01  0.39309954121E+02  0.56418840459E+02  0.68892871510E+02  0.00000000000E+00 0.  1.
         11    1    3    3    0    0 -0.42272559908E+01 -0.39309954121E+02  0.15989059861E+03  0.16470624065E+03  0.00000000000E+00 0. -1.
<mgrwt>
<rscale>  0 0.88197346E+02</rscale>
<asrwt>0</asrwt>
<pdfrwt beam="2">  1        1 0.13299750E-02 0.88197346E+02</pdfrwt>
<pdfrwt beam="1">  1       -1 0.34608346E-01 0.88197346E+02</pdfrwt>
<totfact> 0.73085134E+04</totfact>
</mgrwt>
</event>
<event>
 5    1  0.1242969E+001  0.9003379E+02  0.7546771E-02  0.1302770E+00
          2   -1    0    0  501    0  0.00000000000E+00  0.00000000000E+00  0.18188615969E+02  0.18188615969E+02  0.00000000000E+00 0.  1.
         -2   -1    0    0    0  501 -0.00000000000E+00 -0.00000000000E+00 -0.11141699052E+03  0.11141699052E+03  0.00000000000E+00 0. -1.
         23    2    1    2    0    0  0.00000000000E+00  0.00000000000E+00 -0.93228374548E+02  0.12960560649E+03  0.90033790388E+02 0.  0.
        -11    1    3    3    0    0 -0.54347812413E+01  0.29424671018E+02  0.18011230692E+01  0.29976526750E+02  0.00000000000E+00 0.  1.
         11    1    3    3    0    0  0.54347812413E+01 -0.29424671018E+02 -0.95029497617E+02  0.99629079736E+02  0.00000000000E+00 0. -1.
<mgrwt>
<rscale>  0 0.90033790E+02</rscale>
<asrwt>0</asrwt>
<pdfrwt beam="1">  1        2 0.27982486E-02 0.90033790E+02</pdfrwt>
<pdfrwt beam="2">  1       -2 0.17141075E-01 0.90033790E+02</pdfrwt>
<totfact> 0.79690014E+04</totfact>
</mgrwt>
</event>
<event>
 5    1  0.1242969E+001  0.9365777E+02  0.7546771E-02  0.1294228E+00
          3   -1    0    0  501    0  0.00000000000E+00  0.00000000000E+00  0.13415818367E+03  0.13415818367E+03  0.00000000000E+00 0. -1.
         -3   -1    0    0    0  501 -0.00000000000E+00 -0.00000000000E+00 -0.16345960958E+02  0.16345960958E+02  0.00000000000E+00 0.  1.
         23    2    1    2    0    0  0.00000000000E+00  0.00000000000E+00  0.11781222271E+03  0.15050414463E+03  0.93657769193E+02 0.  0.
        -13    1    3    3    0    0 -0.34658794334E+02 -0.17716146520E+02  0.17068042505E+02  0.42501905218E+02  0.00000000000E+00 0.  1.
         13    1    3    3    0    0  0.34658794334E+02  0.17716146520E+02  0.10074418021E+03  0.10800223941E+03  0.00000000000E+00 0. -1.
<mgrwt>
<rscale>  0 0.93657769E+02</rscale>
<asrwt>0</asrwt>
<pdfrwt beam="1">  1        3 0.20639720E-01 0.93657769E+02</pdfrwt>
<pdfrwt beam="2">  1       -3 0.25147633E-02 0.93657769E+02</pdfrwt>
<totfact> 0.29076701E+04</totfact>
</mgrwt>
</event>
<event>
 5    1  0.1242969E+001  0.8204006E+02  0.7546771E-02  0.1323360E+00
         -1   -1    0    0    0  501 -0.00000000000E+00  0.00000000000E+00  0.13962249398E+02  0.13962249398E+02  0.00000000000E+00 0.  1.
          1   -1    0    0  501    0  0.00000000000E+00 -0.00000000000E+00 -0.12051372567E+03  0.12051372567E+03  0.00000000000E+00 0. -1.
         23    2    1    2    0    0  0.00000000000E+00  0.00000000000E+00 -0.10655147627E+03  0.13447597506E+03  0.82040055914E+02 0.  0.
        -11    1    3    3    0    0 -0.39253991386E+01 -0.19505258328E+02  0.55233658919E+01  0.20648763440E+02  0.00000000000E+00 0.  1.
         11    1    3    3    0    0  0.39253991386E+01  0.19505258328E+02 -0.11207484216E+03  0.11382721162E+03  0.00000000000E+00 0. -1.
<mgrwt>
<rscale>  0 0.82040056E+02</rscale>
<asrwt>0</asrwt>
<pdfrwt beam="2">  1        1 0.18540574E-01 0.82040056E+02</pdfrwt>
<pdfrwt beam="1">  1       -1 0.21480383E-02 0.82040056E+02</pdfrwt>
<totfact> 0.14327863E+05</totfact>
</mgrwt>
</event>
<event>
 5    1  0.1242969E+001  0.9163511E+02  0.7546771E-02  0.1298940E+00
         -1   -1    0    0    0  501 -0.00000000000E+00  0.00000000000E+00  0.14229186803E+02  0.14229186803E+02  0.00000000000E+00 0.  1.
          1   -1    0    0  501    0  0.00000000000E+00 -0.00000000000E+00 -0.14753115543E+03  0.14753115543E+03  0.00000000000E+00 0. -1.
         23    2    1    2    0    0  0.00000000000E+00  0.00000000000E+00 -0.13330196862E+03  0.16176034223E+03  0.91635110517E+02 0.  0.
        -13    1    3    3    0    0  0.45678155905E+02  0.35165714050E+01 -0.67750801017E+02  0.81786497907E+02  0.00000000000E+00 0.  1.
         13    1    3    3    0    0 -0.45678155905E+02 -0.35165714050E+01 -0.65551167604E+02  0.79973844322E+02  0.00000000000E+00 0. -1.
<mgrwt>
<rscale>  0 0.91635111E+02</rscale>
<asrwt>0</asrwt>
<pdfrwt beam="2">  1        1 0.22697101E-01 0.91635111E+02</pdfrwt>
<pdfrwt beam="1">  1       -1 0.21891057E-02 0.91635111E+02</pdfrwt>
<totfact> 0.11028754E+05</totfact>
</mgrwt>
</event>
<event>
 5    1  0.1242969E+001  0.9161509E+02  0.7546771E-02  0.1298987E+00
         -2   -1    0    0    0  501 -0.00000000000E+00  0.00000000000E+00  0.23077561647E+02  0.23077561647E+02  0.00000000000E+00 0.  1.
          2   -1    0    0  501    0  0.00000000000E+00 -0.00000000000E+00 -0.90925162892E+02  0.90925162892E+02  0.00000000000E+00 0. -1.
         23    2    1    2    0    0  0.00000000000E+00  0.00000000000E+00 -0.67847601245E+02  0.11400272454E+03  0.91615087227E+02 0.  0.
        -13    1    3    3    0    0  0.43309746577E+02  0.59607900022E+01 -0.50943250911E+02  0.67130320864E+02  0.00000000000E+00 0. -1.
         13    1    3    3    0    0 -0.43309746577E+02 -0.59607900022E+01 -0.16904350335E+02  0.46872403675E+02  0.00000000000E+00 0.  1.
<mgrwt>
<rscale>  0 0.91615087E+02</rscale>
<asrwt>0</asrwt>
<pdfrwt beam="2">  1        2 0.13988487E-01 0.91615087E+02</pdfrwt>
<pdfrwt beam="1">  1       -2 0.35503940E-02 0.91615087E+02</pdfrwt>
<totfact> 0.11764735E+05</totfact>
</mgrwt>
</event>
<event>
 5    1  0.1242969E+001  0.9093620E+02  0.7546771E-02  0.1300600E+00
          1   -1    0    0  501    0  0.00000000000E+00  0.00000000000E+00  0.14686409316E+03  0.14686409316E+03  0.00000000000E+00 0. -1.
         -1   -1    0    0    0  501 -0.00000000000E+00 -0.00000000000E+00 -0.14076608370E+02  0.14076608370E+02  0.00000000000E+00 0.  1.
         23    2    1    2    0    0  0.00000000000E+00  0.00000000000E+00  0.13278748479E+03  0.16094070153E+03  0.90936204518E+02 0.  0.
        -11    1    3    3    0    0 -0.32638311777E+02 -0.30141441158E+02  0.49272854757E+02  0.66344405089E+02  0.00000000000E+00 0.  1.
         11    1    3    3    0    0  0.32638311777E+02  0.30141441158E+02  0.83514630032E+02  0.94596296440E+02  0.00000000000E+00 0. -1.
<mgrwt>
<rscale>  0 0.90936205E+02</rscale>
<asrwt>0</asrwt>
<pdfrwt beam="1">  1        1 0.22594475E-01 0.90936205E+02</pdfrwt>
<pdfrwt beam="2">  1       -1 0.21656321E-02 0.90936205E+02</pdfrwt>
<totfact> 0.11249859E+05</totfact>
</mgrwt>
</event>
<event>
 5    1  0.1242969E+001  0.9040431E+02  0.7546771E-02  0.1301876E+00
          2   -1    0    0  501    0  0.00000000000E+00  0.00000000000E+00  0.29749934644E+02  0.29749934644E+02  0.00000000000E+00 0. -1.
         -2   -1    0    0    0  501 -0.00000000000E+00 -0.00000000000E+00 -0.68680307440E+02  0.68680307440E+02  0.00000000000E+00 0.  1.
         23    2    1    2    0    0  0.00000000000E+00  0.00000000000E+00 -0.38930372796E+02  0.98430242084E+02  0.90404306483E+02 0.  0.
        -13    1    3    3    0    0 -0.24611576734E+02 -0.13853809605E+02  0.18960772009E+02  0.34017181322E+02  0.00000000000E+00 0. -1.
         13    1    3    3    0    0  0.24611576734E+02  0.13853809605E+02 -0.57891144806E+02  0.64413060763E+02  0.00000000000E+00 0.  1.
<mgrwt>
<rscale>  0 0.90404306E+02</rscale>
<asrwt>0</asrwt>
<pdfrwt beam="1">  1        2 0.45769131E-02 0.90404306E+02</pdfrwt>
<pdfrwt beam="2">  1       -2 0.10566201E-01 0.90404306E+02</pdfrwt>
<totfact> 0.90523712E+04</totfact>
</mgrwt>
</event>
<event>
 5    1  0.1242969E+001  0.9124733E+02  0.7546771E-02  0.1299859E+00
         -1   -1    0    0    0  501 -0.00000000000E+00  0.00000000000E+00  0.14374539602E+03  0.14374539602E+03  0.00000000000E+00 0.  1.
          1   -1    0    0  501    0  0.00000000000E+00 -0.00000000000E+00 -0.14480594381E+02  0.14480594381E+02  0.00000000000E+00 0. -1.
         23    2    1    2    0    0  0.00000000000E+00  0.00000000000E+00  0.12926480164E+03  0.15822599041E+03  0.91247329255E+02 0.  0.
        -13    1    3    3    0    0  0.62203513713E+01 -0.44356695506E+02  0.49584263863E+02  0.66819222012E+02  0.00000000000E+00 0.  1.
         13    1    3    3    0    0 -0.62203513713E+01  0.44356695506E+02  0.79680537779E+02  0.91406768394E+02  0.00000000000E+00 0. -1.
<mgrwt>
<rscale>  0 0.91247329E+02</rscale>
<asrwt>0</asrwt>
<pdfrwt beam="2">  1        1 0.22277838E-02 0.91247329E+02</pdfrwt>
<pdfrwt beam="1">  1       -1 0.22114675E-01 0.91247329E+02</pdfrwt>
<totfact> 0.75376574E+04</totfact>
</mgrwt>
</event>
<event>
 5    1  0.1242969E+001  0.8985054E+02  0.7546771E-02  0.1303214E+00
          2   -1    0    0  501    0  0.00000000000E+00  0.00000000000E+00  0.59489471045E+02  0.59489471045E+02  0.00000000000E+00 0. -1.
         -2   -1    0    0    0  501 -0.00000000000E+00 -0.00000000000E+00 -0.33926676494E+02  0.33926676494E+02  0.00000000000E+00 0.  1.
         23    2    1    2    0    0  0.00000000000E+00  0.00000000000E+00  0.25562794550E+02  0.93416147539E+02  0.89850543437E+02 0.  0.
        -11    1    3    3    0    0  0.15559139044E+02  0.27846712173E+02  0.45671473519E+02  0.55708255043E+02  0.00000000000E+00 0. -1.
         11    1    3    3    0    0 -0.15559139044E+02 -0.27846712173E+02 -0.20108678968E+02  0.37707892496E+02  0.00000000000E+00 0.  1.
<mgrwt>
<rscale>  0 0.89850543E+02</rscale>
<asrwt>0</asrwt>
<pdfrwt beam="1">  1        2 0.91522263E-02 0.89850543E+02</pdfrwt>
<pdfrwt beam="2">  1       -2 0.52194887E-02 0.89850543E+02</pdfrwt>
<totfact> 0.11028494E+05</totfact>
</mgrwt>
</event>
<event>
 5    1  0.1242969E+001  0.8700559E+02  0.7546771E-02  0.1310269E+00
         -2   -1    0    0    0  501 -0.00000000000E+00  0.00000000000E+00  0.96453545365E+01  0.96453545365E+01  0.00000000000E+00 0. -1.
          2   -1    0    0  501    0  0.00000000000E+00 -0.00000000000E+00 -0.19620773212E+03  0.19620773212E+03  0.00000000000E+00 0.  1.
         23    2    1    2    0    0  0.00000000000E+00  0.00000000000E+00 -0.18656237758E+03  0.20585308665E+03  0.87005589224E+02 0.  0.
        -13    1    3    3    0    0  0.16533994754E+01  0.42931961409E+02 -0.77128991642E+02  0.88287985547E+02  0.00000000000E+00 0.  1.
         13    1    3    3    0    0 -0.16533994754E+01 -0.42931961409E+02 -0.10943338594E+03  0.11756510111E+03  0.00000000000E+00 0. -1.
<mgrwt>
<rscale>  0 0.87005589E+02</rscale>
<asrwt>0</asrwt>
<pdfrwt beam="2">  1        2 0.30185806E-01 0.87005589E+02</pdfrwt>
<pdfrwt beam="1">  1       -2 0.14839006E-02 0.87005589E+02</pdfrwt>
<totfact> 0.17419033E+05</totfact>
</mgrwt>
</event>
<event>
 5    1  0.1242969E+001  0.9326132E+02  0.7546771E-02  0.1295141E+00
         -1   -1    0    0    0  501 -0.00000000000E+00  0.00000000000E+00  0.10944106142E+02  0.10944106142E+02  0.00000000000E+00 0.  1.
          1   -1    0    0  501    0  0.00000000000E+00 -0.00000000000E+00 -0.19868396145E+03  0.19868396145E+03  0.00000000000E+00 0. -1.
         23    2    1    2    0    0  0.00000000000E+00  0.00000000000E+00 -0.18773985530E+03  0.20962806759E+03  0.93261318088E+02 0.  0.
        -11    1    3    3    0    0  0.23520557773E+02 -0.39961310578E+02 -0.10494916192E+03  0.11473643523E+03  0.00000000000E+00 0. -1.
         11    1    3    3    0    0 -0.23520557773E+02  0.39961310578E+02 -0.82790693383E+02  0.94891632360E+02  0.00000000000E+00 0.  1.
<mgrwt>
<rscale>  0 0.93261318E+02</rscale>
<asrwt>0</asrwt>
<pdfrwt beam="2">  1        1 0.30566762E-01 0.93261318E+02</pdfrwt>
<pdfrwt beam="1">  1       -1 0.16837087E-02 0.93261318E+02</pdfrwt>
<totfact> 0.11128446E+05</totfact>
</mgrwt>
</event>
<event>
 5    1  0.1242969E+001  0.8997069E+02  0.7546771E-02  0.1302923E+00
         -1   -1    0    0    0  501 -0.00000000000E+00  0.00000000000E+00  0.26346062274E+02  0.26346062274E+02  0.00000000000E+00 0.  1.
          1   -1    0    0  501    0  0.00000000000E+00 -0.00000000000E+00 -0.76811530977E+02  0.76811530977E+02  0.00000000000E+00 0. -1.
         23    2    1    2    0    0  0.00000000000E+00  0.00000000000E+00 -0.50465468702E+02  0.10315759325E+03  0.89970692528E+02 0.  0.
        -13    1    3    3    0    0  0.45163254877E+01  0.39085032371E+02 -0.50238568371E+02  0.63811838269E+02  0.00000000000E+00 0. -1.
         13    1    3    3    0    0 -0.45163254877E+01 -0.39085032371E+02 -0.22690033179E+00  0.39345754982E+02  0.00000000000E+00 0.  1.
<mgrwt>
<rscale>  0 0.89970693E+02</rscale>
<asrwt>0</asrwt>
<pdfrwt beam="2">  1        1 0.11817159E-01 0.89970693E+02</pdfrwt>
<pdfrwt beam="1">  1       -1 0.40532403E-02 0.89970693E+02</pdfrwt>
<totfact> 0.10382746E+05</totfact>
</mgrwt>
</event>
<event>
 5    1  0.1242969E+001  0.8873888E+02  0.7546771E-02  0.1305935E+00
         -1   -1    0    0    0  501 -0.00000000000E+00  0.00000000000E+00  0.17750812370E+02  0.17750812370E+02  0.00000000000E+00 0.  1.
          1   -1    0    0  501    0  0.00000000000E+00 -0.00000000000E+00 -0.11090462210E+03  0.11090462210E+03  0.00000000000E+00 0. -1.
         23    2    1    2    0    0  0.00000000000E+00  0.00000000000E+00 -0.93153809727E+02  0.12865543447E+03  0.88738878464E+02 0.  0.
        -13    1    3    3    0    0 -0.42769486744E+02 -0.11734565809E+02 -0.44676530050E+02  0.62951738407E+02  0.00000000000E+00 0. -1.
         13    1    3    3    0    0  0.42769486744E+02  0.11734565809E+02 -0.48477279677E+02  0.65703696060E+02  0.00000000000E+00 0.  1.
<mgrwt>
<rscale>  0 0.88738878E+02</rscale>
<asrwt>0</asrwt>
<pdfrwt beam="2">  1        1 0.17062250E-01 0.88738878E+02</pdfrwt>
<pdfrwt beam="1">  1       -1 0.27308942E-02 0.88738878E+02</pdfrwt>
<totfact> 0.11439133E+05</totfact>
</mgrwt>
</event>
<event>
 5    1  0.1242969E+001  0.9242688E+02  0.7546771E-02  0.1297079E+00
          2   -1    0    0  501    0  0.00000000000E+00  0.00000000000E+00  0.66408298706E+01  0.66408298706E+01  0.00000000000E+00 0. -1.
         -2   -1    0    0    0  501 -0.00000000000E+00 -0.00000000000E+00 -0.32159863602E+03  0.32159863602E+03  0.00000000000E+00 0.  1.
         23    2    1    2    0    0  0.00000000000E+00  0.00000000000E+00 -0.31495780615E+03  0.32823946589E+03  0.92426875494E+02 0.  0.
        -11    1    3    3    0    0 -0.35558543701E+02 -0.20609882450E+02 -0.23252108735E+03  0.23612546103E+03  0.00000000000E+00 0.  1.
         11    1    3    3    0    0  0.35558543701E+02  0.20609882450E+02 -0.82436718796E+02  0.92114004856E+02  0.00000000000E+00 0. -1.
<mgrwt>
<rscale>  0 0.92426875E+02</rscale>
<asrwt>0</asrwt>
<pdfrwt beam="1">  1        2 0.10216663E-02 0.92426875E+02</pdfrwt>
<pdfrwt beam="2">  1       -2 0.49476703E-01 0.92426875E+02</pdfrwt>
<totfact> 0.47309772E+04</totfact>
</mgrwt>
</event>
<event>
 5    1  0.1242969E+001  0.8989281E+02  0.7546771E-02  0.1303111E+00
          1   -1    0    0  501    0  0.00000000000E+00  0.00000000000E+00  0.31229705084E+02  0.31229705084E+02  0.00000000000E+00 0. -1.
         -1   -1    0    0    0  501 -0.00000000000E+00 -0.00000000000E+00 -0.64687747063E+02  0.64687747063E+02  0.00000000000E+00 0.  1.
         23    2    1    2    0    0  0.00000000000E+00  0.00000000000E+00 -0.33458041979E+02  0.95917452147E+02  0.89892808685E+02 0.  0.
        -13    1    3    3    0    0  0.32195843243E+02  0.20591396944E+02 -0.41970340046E+02  0.56763433598E+02  0.00000000000E+00 0.  1.
         13    1    3    3    0    0 -0.32195843243E+02 -0.20591396944E+02  0.85122980664E+01  0.39154018550E+02  0.00000000000E+00 0. -1.
<mgrwt>
<rscale>  0 0.89892809E+02</rscale>
<asrwt>0</asrwt>
<pdfrwt beam="1">  1        1 0.48045701E-02 0.89892809E+02</pdfrwt>
<pdfrwt beam="2">  1       -1 0.99519610E-02 0.89892809E+02</pdfrwt>
<totfact> 0.90853971E+04</totfact>
</mgrwt>
</event>
<event>
 5    1  0.1242969E+001  0.9253596E+02  0.7546771E-02  0.1296824E+00
          4   -1    0    0  501    0  0.00000000000E+00  0.00000000000E+00  0.98348554757E+02  0.98348554757E+02  0.00000000000E+00 0. -1.
         -4   -1    0    0    0  501 -0.00000000000E+00 -0.00000000000E+00 -0.21766725874E+02  0.21766725874E+02  0.00000000000E+00 0.  1.
         23    2    1    2    0    0  0.00000000000E+00  0.00000000000E+00  0.76581828883E+02  0.12011528063E+03  0.92535961259E+02 0.  0.
        -11    1    3    3    0    0 -0.34820425682E+02 -0.21546624855E+02  0.10330090844E+02  0.42230674446E+02  0.00000000000E+00 0.  1.
         11    1    3    3    0    0  0.34820425682E+02  0.21546624855E+02  0.66251738039E+02  0.77884606185E+02  0.00000000000E+00 0. -1.
<mgrwt>
<rscale>  0 0.92535961E+02</rscale>
<asrwt>0</asrwt>
<pdfrwt beam="1">  1        4 0.15130547E-01 0.92535961E+02</pdfrwt>
<pdfrwt beam="2">  1       -4 0.33487271E-02 0.92535961E+02</pdfrwt>
<totfact> 0.24273243E+04</totfact>
</mgrwt>
</event>
<event>
 5    1  0.1242969E+001  0.1016717E+03  0.7546771E-02  0.1276819E+00
          1   -1    0    0  501    0  0.00000000000E+00  0.00000000000E+00  0.10336225800E+02  0.10336225800E+02  0.00000000000E+00 0. -1.
         -1   -1    0    0    0  501 -0.00000000000E+00 -0.00000000000E+00 -0.25002211147E+03  0.25002211147E+03  0.00000000000E+00 0.  1.
         23    2    1    2    0    0  0.00000000000E+00  0.00000000000E+00 -0.23968588567E+03  0.26035833727E+03  0.10167172663E+03 0.  0.
        -11    1    3    3    0    0  0.43800679701E+02  0.25486711523E+02 -0.10953189309E+03  0.12068681623E+03  0.00000000000E+00 0. -1.
         11    1    3    3    0    0 -0.43800679701E+02 -0.25486711523E+02 -0.13015399258E+03  0.13967152104E+03  0.00000000000E+00 0.  1.
<mgrwt>
<rscale>  0 0.10167173E+03</rscale>
<asrwt>0</asrwt>
<pdfrwt beam="1">  1        1 0.15901886E-02 0.10167173E+03</pdfrwt>
<pdfrwt beam="2">  1       -1 0.38464940E-01 0.10167173E+03</pdfrwt>
<totfact> 0.48674039E+04</totfact>
</mgrwt>
</event>
<event>
 5    1  0.1242969E+001  0.9339958E+02  0.7546771E-02  0.1294822E+00
          1   -1    0    0  501    0  0.00000000000E+00  0.00000000000E+00  0.16710380739E+03  0.16710380739E+03  0.00000000000E+00 0. -1.
         -1   -1    0    0    0  501 -0.00000000000E+00 -0.00000000000E+00 -0.13050991653E+02  0.13050991653E+02  0.00000000000E+00 0.  1.
         23    2    1    2    0    0  0.00000000000E+00  0.00000000000E+00  0.15405281574E+03  0.18015479904E+03  0.93399580200E+02 0.  0.
        -11    1    3    3    0    0  0.28490777022E+02  0.20113499879E+01  0.57602701454E+01  0.29136757133E+02  0.00000000000E+00 0.  1.
         11    1    3    3    0    0 -0.28490777022E+02 -0.20113499879E+01  0.14829254559E+03  0.15101804191E+03  0.00000000000E+00 0. -1.
<mgrwt>
<rscale>  0 0.93399580E+02</rscale>
<asrwt>0</asrwt>
<pdfrwt beam="1">  1        1 0.25708277E-01 0.93399580E+02</pdfrwt>
<pdfrwt beam="2">  1       -1 0.20078450E-02 0.93399580E+02</pdfrwt>
<totfact> 0.10720983E+05</totfact>
</mgrwt>
</event>
<event>
 5    1  0.1242969E+001  0.8179253E+02  0.7546771E-02  0.1324040E+00
          2   -1    0    0  501    0  0.00000000000E+00  0.00000000000E+00  0.20363375252E+03  0.20363375252E+03  0.00000000000E+00 0. -1.
         -2   -1    0    0    0  501 -0.00000000000E+00 -0.00000000000E+00 -0.82132960424E+01  0.82132960424E+01  0.00000000000E+00 0.  1.
         23    2    1    2    0    0  0.00000000000E+00  0.00000000000E+00  0.19542045648E+03  0.21184704856E+03  0.81792525176E+02 0.  0.
        -11    1    3    3    0    0  0.46193835994E+01  0.30419473826E+02  0.16748904909E+03  0.17029170460E+03  0.00000000000E+00 0. -1.
         11    1    3    3    0    0 -0.46193835994E+01 -0.30419473826E+02  0.27931407390E+02  0.41555343959E+02  0.00000000000E+00 0.  1.
<mgrwt>
<rscale>  0 0.81792525E+02</rscale>
<asrwt>0</asrwt>
<pdfrwt beam="1">  1        2 0.31328266E-01 0.81792525E+02</pdfrwt>
<pdfrwt beam="2">  1       -2 0.12635842E-02 0.81792525E+02</pdfrwt>
<totfact> 0.20812593E+05</totfact>
</mgrwt>
</event>
<event>
 5    1  0.1242969E+001  0.9223171E+02  0.7546771E-02  0.1297536E+00
         -1   -1    0    0    0  501 -0.00000000000E+00  0.00000000000E+00  0.13463739293E+03  0.13463739293E+03  0.00000000000E+00 0.  1.
          1   -1    0    0  501    0  0.00000000000E+00 -0.00000000000E+00 -0.15795553578E+02  0.15795553578E+02  0.00000000000E+00 0. -1.
         23    2    1    2    0    0  0.00000000000E+00  0.00000000000E+00  0.11884183935E+03  0.15043294651E+03  0.92231711546E+02 0.  0.
        -13    1    3    3    0    0  0.17325966884E+02  0.26546365218E+02  0.11404891782E+03  0.11837252338E+03  0.00000000000E+00 0.  1.
         13    1    3    3    0    0 -0.17325966884E+02 -0.26546365218E+02  0.47929215354E+01  0.32060423135E+02  0.00000000000E+00 0. -1.
<mgrwt>
<rscale>  0 0.92231712E+02</rscale>
<asrwt>0</asrwt>
<pdfrwt beam="2">  1        1 0.24300853E-02 0.92231712E+02</pdfrwt>
<pdfrwt beam="1">  1       -1 0.20713444E-01 0.92231712E+02</pdfrwt>
<totfact> 0.74387446E+04</totfact>
</mgrwt>
</event>
<event>
 5    1  0.1242969E+001  0.6056142E+02  0.7546771E-02  0.1395491E+00
          3   -1    0    0  501    0  0.00000000000E+00  0.00000000000E+00  0.14850163108E+03  0.14850163108E+03  0.00000000000E+00 0. -1.
         -3   -1    0    0    0  501 -0.00000000000E+00 -0.00000000000E+00 -0.61744877867E+01  0.61744877867E+01  0.00000000000E+00 0.  1.
         23    2    1    2    0    0  0.00000000000E+00  0.00000000000E+00  0.14232714330E+03  0.15467611887E+03  0.60561423611E+02 0.  0.
        -13    1    3    3    0    0  0.26995322940E+02  0.12847081055E+02  0.83445955458E+02  0.88639846765E+02  0.00000000000E+00 0. -1.
         13    1    3    3    0    0 -0.26995322940E+02 -0.12847081055E+02  0.58881187839E+02  0.66036272105E+02  0.00000000000E+00 0.  1.
<mgrwt>
<rscale>  0 0.60561424E+02</rscale>
<asrwt>0</asrwt>
<pdfrwt beam="1">  1        3 0.22846402E-01 0.60561424E+02</pdfrwt>
<pdfrwt beam="2">  1       -3 0.94992131E-03 0.60561424E+02</pdfrwt>
<totfact> 0.91242299E+04</totfact>
</mgrwt>
</event>
<event>
 5    1  0.1242969E+001  0.9218106E+02  0.7546771E-02  0.1297654E+00
          3   -1    0    0  501    0  0.00000000000E+00  0.00000000000E+00  0.93376738777E+02  0.93376738777E+02  0.00000000000E+00 0. -1.
         -3   -1    0    0    0  501 -0.00000000000E+00 -0.00000000000E+00 -0.22750171027E+02  0.22750171027E+02  0.00000000000E+00 0.  1.
         23    2    1    2    0    0  0.00000000000E+00  0.00000000000E+00  0.70626567750E+02  0.11612690980E+03  0.92181056125E+02 0.  0.
        -13    1    3    3    0    0 -0.15353204609E+02  0.29855452283E+02  0.75096244505E+02  0.82258828472E+02  0.00000000000E+00 0. -1.
         13    1    3    3    0    0  0.15353204609E+02 -0.29855452283E+02 -0.44696767554E+01  0.33868081331E+02  0.00000000000E+00 0.  1.
<mgrwt>
<rscale>  0 0.92181056E+02</rscale>
<asrwt>0</asrwt>
<pdfrwt beam="1">  1        3 0.14365652E-01 0.92181056E+02</pdfrwt>
<pdfrwt beam="2">  1       -3 0.35000264E-02 0.92181056E+02</pdfrwt>
<totfact> 0.32528485E+04</totfact>
</mgrwt>
</event>
<event>
 5    1  0.1242969E+001  0.9059482E+02  0.7546771E-02  0.1301418E+00
         -1   -1    0    0    0  501 -0.00000000000E+00  0.00000000000E+00  0.17171684162E+03  0.17171684162E+03  0.00000000000E+00 0.  1.
          1   -1    0    0  501    0  0.00000000000E+00 -0.00000000000E+00 -0.11949064116E+02  0.11949064116E+02  0.00000000000E+00 0. -1.
         23    2    1    2    0    0  0.00000000000E+00  0.00000000000E+00  0.15976777750E+03  0.18366590573E+03  0.90594824360E+02 0.  0.
        -13    1    3    3    0    0 -0.39482725267E+02 -0.22158463005E+02  0.82731172091E+02  0.94309755131E+02  0.00000000000E+00 0. -1.
         13    1    3    3    0    0  0.39482725267E+02  0.22158463005E+02  0.77036605409E+02  0.89356150601E+02  0.00000000000E+00 0.  1.
<mgrwt>
<rscale>  0 0.90594824E+02</rscale>
<asrwt>0</asrwt>
<pdfrwt beam="2">  1        1 0.18383177E-02 0.90594824E+02</pdfrwt>
<pdfrwt beam="1">  1       -1 0.26417974E-01 0.90594824E+02</pdfrwt>
<totfact> 0.73566606E+04</totfact>
</mgrwt>
</event>
<event>
 5    1  0.1242969E+001  0.9342879E+02  0.7546771E-02  0.1294755E+00
          1   -1    0    0  501    0  0.00000000000E+00  0.00000000000E+00  0.97395274311E+01  0.97395274311E+01  0.00000000000E+00 0. -1.
         -1   -1    0    0    0  501 -0.00000000000E+00 -0.00000000000E+00 -0.22405958487E+03  0.22405958487E+03  0.00000000000E+00 0.  1.
         23    2    1    2    0    0  0.00000000000E+00  0.00000000000E+00 -0.21432005744E+03  0.23379911230E+03  0.93428785136E+02 0.  0.
        -13    1    3    3    0    0  0.32012888647E+02 -0.77931493163E+01 -0.24289258218E+02  0.40933192895E+02  0.00000000000E+00 0. -1.
         13    1    3    3    0    0 -0.32012888647E+02  0.77931493163E+01 -0.19003079922E+03  0.19286591940E+03  0.00000000000E+00 0.  1.
<mgrwt>
<rscale>  0 0.93428785E+02</rscale>
<asrwt>0</asrwt>
<pdfrwt beam="1">  1        1 0.14983889E-02 0.93428785E+02</pdfrwt>
<pdfrwt beam="2">  1       -1 0.34470704E-01 0.93428785E+02</pdfrwt>
<totfact> 0.62966440E+04</totfact>
</mgrwt>
</event>
<event>
 5    1  0.1242969E+001  0.8890627E+02  0.7546771E-02  0.1305522E+00
         -2   -1    0    0    0  501 -0.00000000000E+00  0.00000000000E+00  0.72948702259E+02  0.72948702259E+02  0.00000000000E+00 0. -1.
          2   -1    0    0  501    0  0.00000000000E+00 -0.00000000000E+00 -0.27088641907E+02  0.27088641907E+02  0.00000000000E+00 0.  1.
         23    2    1    2    0    0  0.00000000000E+00  0.00000000000E+00  0.45860060352E+02  0.10003734417E+03  0.88906271388E+02 0.  0.
        -13    1    3    3    0    0 -0.37100949557E+01  0.23509983878E+02 -0.19315159012E+02  0.30652235060E+02  0.00000000000E+00 0.  1.
         13    1    3    3    0    0  0.37100949557E+01 -0.23509983878E+02  0.65175219364E+02  0.69385109106E+02  0.00000000000E+00 0. -1.
<mgrwt>
<rscale>  0 0.88906271E+02</rscale>
<asrwt>0</asrwt>
<pdfrwt beam="2">  1        2 0.41674834E-02 0.88906271E+02</pdfrwt>
<pdfrwt beam="1">  1       -2 0.11222877E-01 0.88906271E+02</pdfrwt>
<totfact> 0.92789184E+04</totfact>
</mgrwt>
</event>
<event>
 5    1  0.1242969E+001  0.9141625E+02  0.7546771E-02  0.1299458E+00
         -1   -1    0    0    0  501 -0.00000000000E+00  0.00000000000E+00  0.81124457133E+02  0.81124457133E+02  0.00000000000E+00 0.  1.
          1   -1    0    0  501    0  0.00000000000E+00 -0.00000000000E+00 -0.25753424919E+02  0.25753424919E+02  0.00000000000E+00 0. -1.
         23    2    1    2    0    0  0.00000000000E+00  0.00000000000E+00  0.55371032214E+02  0.10687788205E+03  0.91416248355E+02 0.  0.
        -11    1    3    3    0    0 -0.22150292189E+01  0.19132632070E+02 -0.20777448567E+02  0.28331366599E+02  0.00000000000E+00 0. -1.
         11    1    3    3    0    0  0.22150292189E+01 -0.19132632070E+02  0.76148480782E+02  0.78546515452E+02  0.00000000000E+00 0.  1.
<mgrwt>
<rscale>  0 0.91416248E+02</rscale>
<asrwt>0</asrwt>
<pdfrwt beam="2">  1        1 0.39620654E-02 0.91416248E+02</pdfrwt>
<pdfrwt beam="1">  1       -1 0.12480686E-01 0.91416248E+02</pdfrwt>
<totfact> 0.83884719E+04</totfact>
</mgrwt>
</event>
<event>
 5    1  0.1242969E+001  0.9030160E+02  0.7546771E-02  0.1302123E+00
         -2   -1    0    0    0  501 -0.00000000000E+00  0.00000000000E+00  0.34679800322E+03  0.34679800322E+03  0.00000000000E+00 0. -1.
          2   -1    0    0  501    0  0.00000000000E+00 -0.00000000000E+00 -0.58783346207E+01  0.58783346207E+01  0.00000000000E+00 0.  1.
         23    2    1    2    0    0  0.00000000000E+00  0.00000000000E+00  0.34091966860E+03  0.35267633784E+03  0.90301599293E+02 0.  0.
        -13    1    3    3    0    0 -0.34008523841E+02  0.23890471306E+02  0.10155609150E+03  0.10973137215E+03  0.00000000000E+00 0.  1.
         13    1    3    3    0    0  0.34008523841E+02 -0.23890471306E+02  0.23936357709E+03  0.24294496569E+03  0.00000000000E+00 0. -1.
<mgrwt>
<rscale>  0 0.90301599E+02</rscale>
<asrwt>0</asrwt>
<pdfrwt beam="2">  1        2 0.90435944E-03 0.90301599E+02</pdfrwt>
<pdfrwt beam="1">  1       -2 0.53353523E-01 0.90301599E+02</pdfrwt>
<totfact> 0.48001215E+04</totfact>
</mgrwt>
</event>
<event>
 5    1  0.1242969E+001  0.9678455E+02  0.7546771E-02  0.1287207E+00
         -3   -1    0    0    0  501 -0.00000000000E+00  0.00000000000E+00  0.34947735465E+02  0.34947735465E+02  0.00000000000E+00 0.  1.
          3   -1    0    0  501    0  0.00000000000E+00 -0.00000000000E+00 -0.67008991626E+02  0.67008991626E+02  0.00000000000E+00 0. -1.
         23    2    1    2    0    0  0.00000000000E+00  0.00000000000E+00 -0.32061256161E+02  0.10195672709E+03  0.96784554824E+02 0.  0.
        -13    1    3    3    0    0  0.23212953718E+02  0.33018366025E+02  0.12093633091E+02  0.42134423891E+02  0.00000000000E+00 0.  1.
         13    1    3    3    0    0 -0.23212953718E+02 -0.33018366025E+02 -0.44154889251E+02  0.59822303200E+02  0.00000000000E+00 0. -1.
<mgrwt>
<rscale>  0 0.96784555E+02</rscale>
<asrwt>0</asrwt>
<pdfrwt beam="2">  1        3 0.10309075E-01 0.96784555E+02</pdfrwt>
<pdfrwt beam="1">  1       -3 0.53765748E-02 0.96784555E+02</pdfrwt>
<totfact> 0.29327144E+04</totfact>
</mgrwt>
</event>
<event>
 5    1  0.1242969E+001  0.8940347E+02  0.7546771E-02  0.1304303E+00
          2   -1    0    0  501    0  0.00000000000E+00  0.00000000000E+00  0.24913439497E+03  0.24913439497E+03  0.00000000000E+00 0. -1.
         -2   -1    0    0    0  501 -0.00000000000E+00 -0.00000000000E+00 -0.80207509180E+01  0.80207509180E+01  0.00000000000E+00 0.  1.
         23    2    1    2    0    0  0.00000000000E+00  0.00000000000E+00  0.24111364405E+03  0.25715514589E+03  0.89403465864E+02 0.  0.
        -11    1    3    3    0    0  0.16770529929E+02  0.32924003520E+02  0.48189221106E+02  0.60724309075E+02  0.00000000000E+00 0.  1.
         11    1    3    3    0    0 -0.16770529929E+02 -0.32924003520E+02  0.19292442294E+03  0.19643083681E+03  0.00000000000E+00 0. -1.
<mgrwt>
<rscale>  0 0.89403466E+02</rscale>
<asrwt>0</asrwt>
<pdfrwt beam="1">  1        2 0.38328363E-01 0.89403466E+02</pdfrwt>
<pdfrwt beam="2">  1       -2 0.12339619E-02 0.89403466E+02</pdfrwt>
<totfact> 0.17668420E+05</totfact>
</mgrwt>
</event>
<event>
 5    1  0.1242969E+001  0.8993421E+02  0.7546771E-02  0.1303011E+00
          1   -1    0    0  501    0  0.00000000000E+00  0.00000000000E+00  0.68794205433E+02  0.68794205433E+02  0.00000000000E+00 0. -1.
         -1   -1    0    0    0  501 -0.00000000000E+00 -0.00000000000E+00 -0.29392600575E+02  0.29392600575E+02  0.00000000000E+00 0.  1.
         23    2    1    2    0    0  0.00000000000E+00  0.00000000000E+00  0.39401604858E+02  0.98186806008E+02  0.89934211559E+02 0.  0.
        -11    1    3    3    0    0 -0.27819375563E+02  0.17933031482E+02  0.52932902459E+02  0.62429187385E+02  0.00000000000E+00 0. -1.
         11    1    3    3    0    0  0.27819375563E+02 -0.17933031482E+02 -0.13531297601E+02  0.35757618623E+02  0.00000000000E+00 0.  1.
<mgrwt>
<rscale>  0 0.89934212E+02</rscale>
<asrwt>0</asrwt>
<pdfrwt beam="1">  1        1 0.10583724E-01 0.89934212E+02</pdfrwt>
<pdfrwt beam="2">  1       -1 0.45219386E-02 0.89934212E+02</pdfrwt>
<totfact> 0.10219412E+05</totfact>
</mgrwt>
</event>
<event>
 5    1  0.1242969E+001  0.8964111E+02  0.7546771E-02  0.1303723E+00
         -4   -1    0    0    0  501 -0.00000000000E+00  0.00000000000E+00  0.15048673110E+02  0.15048673110E+02  0.00000000000E+00 0.  1.
          4   -1    0    0  501    0  0.00000000000E+00 -0.00000000000E+00 -0.13349231708E+03  0.13349231708E+03  0.00000000000E+00 0. -1.
         23    2    1    2    0    0  0.00000000000E+00  0.00000000000E+00 -0.11844364397E+03  0.14854099019E+03  0.89641112052E+02 0.  0.
        -11    1    3    3    0    0  0.35190826962E+02  0.17718043740E+02 -0.94628686537E+02  0.10250322772E+03  0.00000000000E+00 0.  1.
         11    1    3    3    0    0 -0.35190826962E+02 -0.17718043740E+02 -0.23814957434E+02  0.46037762476E+02  0.00000000000E+00 0. -1.
<mgrwt>
<rscale>  0 0.89641112E+02</rscale>
<asrwt>0</asrwt>
<pdfrwt beam="2">  1        4 0.20537280E-01 0.89641112E+02</pdfrwt>
<pdfrwt beam="1">  1       -4 0.23151805E-02 0.89641112E+02</pdfrwt>
<totfact> 0.24854174E+04</totfact>
</mgrwt>
</event>
<event>
 5    1  0.1242969E+001  0.9191496E+02  0.7546771E-02  0.1298279E+00
         -2   -1    0    0    0  501 -0.00000000000E+00  0.00000000000E+00  0.26215074022E+03  0.26215074022E+03  0.00000000000E+00 0.  1.
          2   -1    0    0  501    0  0.00000000000E+00 -0.00000000000E+00 -0.80567771192E+01  0.80567771192E+01  0.00000000000E+00 0. -1.
         23    2    1    2    0    0  0.00000000000E+00  0.00000000000E+00  0.25409396310E+03  0.27020751734E+03  0.91914962560E+02 0.  0.
        -13    1    3    3    0    0  0.44785042793E+02 -0.23150279416E+01  0.97498318479E+02  0.10731720048E+03  0.00000000000E+00 0. -1.
         13    1    3    3    0    0 -0.44785042793E+02  0.23150279416E+01  0.15659564462E+03  0.16289031686E+03  0.00000000000E+00 0.  1.
<mgrwt>
<rscale>  0 0.91914963E+02</rscale>
<asrwt>0</asrwt>
<pdfrwt beam="2">  1        2 0.12395044E-02 0.91914963E+02</pdfrwt>
<pdfrwt beam="1">  1       -2 0.40330876E-01 0.91914963E+02</pdfrwt>
<totfact> 0.53716193E+04</totfact>
</mgrwt>
</event>
<event>
 5    1  0.1242969E+001  0.8680677E+02  0.7546771E-02  0.1310774E+00
         -1   -1    0    0    0  501 -0.00000000000E+00  0.00000000000E+00  0.87429506957E+01  0.87429506957E+01  0.00000000000E+00 0.  1.
          1   -1    0    0  501    0  0.00000000000E+00 -0.00000000000E+00 -0.21547115826E+03  0.21547115826E+03  0.00000000000E+00 0. -1.
         23    2    1    2    0    0  0.00000000000E+00  0.00000000000E+00 -0.20672820756E+03  0.22421410895E+03  0.86806767317E+02 0.  0.
        -13    1    3    3    0    0 -0.14496118696E+02 -0.36597321314E+02 -0.56134801456E+02  0.68561048119E+02  0.00000000000E+00 0.  1.
         13    1    3    3    0    0  0.14496118696E+02  0.36597321314E+02 -0.15059340611E+03  0.15565306083E+03  0.00000000000E+00 0. -1.
<mgrwt>
<rscale>  0 0.86806767E+02</rscale>
<asrwt>0</asrwt>
<pdfrwt beam="2">  1        1 0.33149406E-01 0.86806767E+02</pdfrwt>
<pdfrwt beam="1">  1       -1 0.13450694E-02 0.86806767E+02</pdfrwt>
<totfact> 0.13696531E+05</totfact>
</mgrwt>
</event>
<event>
 5    1  0.1242969E+001  0.9247889E+02  0.7546771E-02  0.1296957E+00
          2   -1    0    0  501    0  0.00000000000E+00  0.00000000000E+00  0.24160064223E+02  0.24160064223E+02  0.00000000000E+00 0. -1.
         -2   -1    0    0    0  501 -0.00000000000E+00 -0.00000000000E+00 -0.88496716747E+02  0.88496716747E+02  0.00000000000E+00 0.  1.
         23    2    1    2    0    0  0.00000000000E+00  0.00000000000E+00 -0.64336652524E+02  0.11265678097E+03  0.92478891864E+02 0.  0.
        -13    1    3    3    0    0  0.46188509113E+02 -0.18758790005E+01 -0.33496690992E+02  0.57087000302E+02  0.00000000000E+00 0.  1.
         13    1    3    3    0    0 -0.46188509113E+02  0.18758790005E+01 -0.30839961532E+02  0.55569780667E+02  0.00000000000E+00 0. -1.
<mgrwt>
<rscale>  0 0.92478892E+02</rscale>
<asrwt>0</asrwt>
<pdfrwt beam="1">  1        2 0.37169330E-02 0.92478892E+02</pdfrwt>
<pdfrwt beam="2">  1       -2 0.13614879E-01 0.92478892E+02</pdfrwt>
<totfact> 0.79851538E+04</totfact>
</mgrwt>
</event>
<event>
 5    1  0.1242969E+001  0.9207290E+02  0.7546771E-02  0.1297908E+00
          3   -1    0    0  501    0  0.00000000000E+00  0.00000000000E+00  0.40184492547E+03  0.40184492547E+03  0.00000000000E+00 0. -1.
         -3   -1    0    0    0  501 -0.00000000000E+00 -0.00000000000E+00 -0.52740606403E+01  0.52740606403E+01  0.00000000000E+00 0.  1.
         23    2    1    2    0    0  0.00000000000E+00  0.00000000000E+00  0.39657086483E+03  0.40711898611E+03  0.92072895141E+02 0.  0.
        -11    1    3    3    0    0 -0.41828105566E+02  0.13455029667E+02  0.13754110453E+03  0.14438900122E+03  0.00000000000E+00 0.  1.
         11    1    3    3    0    0  0.41828105566E+02 -0.13455029667E+02  0.25902976030E+03  0.26272998489E+03  0.00000000000E+00 0. -1.
<mgrwt>
<rscale>  0 0.92072895E+02</rscale>
<asrwt>0</asrwt>
<pdfrwt beam="1">  1        3 0.61822272E-01 0.92072895E+02</pdfrwt>
<pdfrwt beam="2">  1       -3 0.81139426E-03 0.92072895E+02</pdfrwt>
<totfact> 0.19874095E+04</totfact>
</mgrwt>
</event>
<event>
 5    1  0.1242969E+001  0.9113776E+02  0.7546771E-02  0.1300120E+00
          1   -1    0    0  501    0  0.00000000000E+00  0.00000000000E+00  0.26424696206E+03  0.26424696206E+03  0.00000000000E+00 0. -1.
         -1   -1    0    0    0  501 -0.00000000000E+00 -0.00000000000E+00 -0.78582657970E+01  0.78582657970E+01  0.00000000000E+00 0.  1.
         23    2    1    2    0    0  0.00000000000E+00  0.00000000000E+00  0.25638869626E+03  0.27210522786E+03  0.91137760866E+02 0.  0.
        -11    1    3    3    0    0 -0.36638500784E+02  0.13609806355E+02  0.19814497216E+03  0.20196295839E+03  0.00000000000E+00 0. -1.
         11    1    3    3    0    0  0.36638500784E+02 -0.13609806355E+02  0.58243724097E+02  0.70142269463E+02  0.00000000000E+00 0.  1.
<mgrwt>
<rscale>  0 0.91137761E+02</rscale>
<asrwt>0</asrwt>
<pdfrwt beam="1">  1        1 0.40653372E-01 0.91137761E+02</pdfrwt>
<pdfrwt beam="2">  1       -1 0.12089642E-02 0.91137761E+02</pdfrwt>
<totfact> 0.12515871E+05</totfact>
</mgrwt>
</event>
<event>
 5    1  0.1242969E+001  0.9030241E+02  0.7546771E-02  0.1302121E+00
          2   -1    0    0  501    0  0.00000000000E+00  0.00000000000E+00  0.65742179111E+02  0.65742179111E+02  0.00000000000E+00 0. -1.
         -2   -1    0    0    0  501 -0.00000000000E+00 -0.00000000000E+00 -0.31009490122E+02  0.31009490122E+02  0.00000000000E+00 0.  1.
         23    2    1    2    0    0  0.00000000000E+00  0.00000000000E+00  0.34732688989E+02  0.96751669234E+02  0.90302413119E+02 0.  0.
        -11    1    3    3    0    0  0.21304708948E+00 -0.17541795428E+02  0.61941361888E+02  0.64377731308E+02  0.00000000000E+00 0. -1.
         11    1    3    3    0    0 -0.21304708948E+00  0.17541795428E+02 -0.27208672899E+02  0.32373937925E+02  0.00000000000E+00 0.  1.
<mgrwt>
<rscale>  0 0.90302413E+02</rscale>
<asrwt>0</asrwt>
<pdfrwt beam="1">  1        2 0.10114181E-01 0.90302413E+02</pdfrwt>
<pdfrwt beam="2">  1       -2 0.47706908E-02 0.90302413E+02</pdfrwt>
<totfact> 0.11170261E+05</totfact>
</mgrwt>
</event>
<event>
 5    1  0.1242969E+001  0.8931799E+02  0.7546771E-02  0.1304512E+00
         -2   -1    0    0    0  501 -0.00000000000E+00  0.00000000000E+00  0.10711621102E+03  0.10711621102E+03  0.00000000000E+00 0.  1.
          2   -1    0    0  501    0  0.00000000000E+00 -0.00000000000E+00 -0.18619269606E+02  0.18619269606E+02  0.00000000000E+00 0. -1.
         23    2    1    2    0    0  0.00000000000E+00  0.00000000000E+00  0.88496941418E+02  0.12573548063E+03  0.89317985024E+02 0.  0.
        -13    1    3    3    0    0 -0.54130899002E+01 -0.23625005316E+02  0.97052052673E+02  0.10003271138E+03  0.00000000000E+00 0. -1.
         13    1    3    3    0    0  0.54130899002E+01  0.23625005316E+02 -0.85551112544E+01  0.25702769248E+02  0.00000000000E+00 0.  1.
<mgrwt>
<rscale>  0 0.89317985E+02</rscale>
<asrwt>0</asrwt>
<pdfrwt beam="2">  1        2 0.28645031E-02 0.89317985E+02</pdfrwt>
<pdfrwt beam="1">  1       -2 0.16479417E-01 0.89317985E+02</pdfrwt>
<totfact> 0.82285198E+04</totfact>
</mgrwt>
</event>
<event>
 5    1  0.1242969E+001  0.9117809E+02  0.7546771E-02  0.1300024E+00
         -2   -1    0    0    0  501 -0.00000000000E+00  0.00000000000E+00  0.23743869060E+03  0.23743869060E+03  0.00000000000E+00 0.  1.
          2   -1    0    0  501    0  0.00000000000E+00 -0.00000000000E+00 -0.87532535387E+01  0.87532535387E+01  0.00000000000E+00 0. -1.
         23    2    1    2    0    0  0.00000000000E+00  0.00000000000E+00  0.22868543706E+03  0.24619194414E+03  0.91178090762E+02 0.  0.
        -13    1    3    3    0    0  0.42353852126E+02  0.13916054828E+02  0.14007980619E+03  0.14700291655E+03  0.00000000000E+00 0.  1.
         13    1    3    3    0    0 -0.42353852126E+02 -0.13916054828E+02  0.88605630868E+02  0.99189027586E+02  0.00000000000E+00 0. -1.
<mgrwt>
<rscale>  0 0.91178091E+02</rscale>
<asrwt>0</asrwt>
<pdfrwt beam="2">  1        2 0.13466546E-02 0.91178091E+02</pdfrwt>
<pdfrwt beam="1">  1       -2 0.36529024E-01 0.91178091E+02</pdfrwt>
<totfact> 0.57614625E+04</totfact>
</mgrwt>
</event>
<event>
 5    1  0.1242969E+001  0.9637465E+02  0.7546771E-02  0.1288110E+00
          1   -1    0    0  501    0  0.00000000000E+00  0.00000000000E+00  0.85103783954E+02  0.85103783954E+02  0.00000000000E+00 0. -1.
         -1   -1    0    0    0  501 -0.00000000000E+00 -0.00000000000E+00 -0.27284548951E+02  0.27284548951E+02  0.00000000000E+00 0.  1.
         23    2    1    2    0    0  0.00000000000E+00  0.00000000000E+00  0.57819235002E+02  0.11238833291E+03  0.96374651423E+02 0.  0.
        -13    1    3    3    0    0  0.82999813540E+01  0.18869404128E+02 -0.21882997702E+02  0.30063427799E+02  0.00000000000E+00 0.  1.
         13    1    3    3    0    0 -0.82999813540E+01 -0.18869404128E+02  0.79702232704E+02  0.82324905106E+02  0.00000000000E+00 0. -1.
<mgrwt>
<rscale>  0 0.96374651E+02</rscale>
<asrwt>0</asrwt>
<pdfrwt beam="1">  1        1 0.13092890E-01 0.96374651E+02</pdfrwt>
<pdfrwt beam="2">  1       -1 0.41976230E-02 0.96374651E+02</pdfrwt>
<totfact> 0.87342908E+04</totfact>
</mgrwt>
</event>
<event>
 5    1  0.1242969E+001  0.9056413E+02  0.7546771E-02  0.1301491E+00
          1   -1    0    0  501    0  0.00000000000E+00  0.00000000000E+00  0.22566090452E+02  0.22566090452E+02  0.00000000000E+00 0.  1.
         -1   -1    0    0    0  501 -0.00000000000E+00 -0.00000000000E+00 -0.90864888565E+02  0.90864888565E+02  0.00000000000E+00 0. -1.
         23    2    1    2    0    0  0.00000000000E+00  0.00000000000E+00 -0.68298798113E+02  0.11343097902E+03  0.90564127429E+02 0.  0.
        -11    1    3    3    0    0 -0.17620201539E+00 -0.42332551872E+02 -0.14016202416E+02  0.44592935823E+02  0.00000000000E+00 0.  1.
         11    1    3    3    0    0  0.17620201539E+00  0.42332551872E+02 -0.54282595697E+02  0.68838043193E+02  0.00000000000E+00 0. -1.
<mgrwt>
<rscale>  0 0.90564127E+02</rscale>
<asrwt>0</asrwt>
<pdfrwt beam="1">  1        1 0.34717063E-02 0.90564127E+02</pdfrwt>
<pdfrwt beam="2">  1       -1 0.13979213E-01 0.90564127E+02</pdfrwt>
<totfact> 0.84247014E+04</totfact>
</mgrwt>
</event>
<event>
 5    1  0.1242969E+001  0.9067896E+02  0.7546771E-02  0.1301216E+00
         -2   -1    0    0    0  501 -0.00000000000E+00  0.00000000000E+00  0.12610415043E+03  0.12610415043E+03  0.00000000000E+00 0.  1.
          2   -1    0    0  501    0  0.00000000000E+00 -0.00000000000E+00 -0.16301354316E+02  0.16301354316E+02  0.00000000000E+00 0. -1.
         23    2    1    2    0    0  0.00000000000E+00  0.00000000000E+00  0.10980279611E+03  0.14240550474E+03  0.90678959782E+02 0.  0.
        -13    1    3    3    0    0 -0.10777116444E+02  0.29661984238E+02  0.37792094417E+01  0.31784618478E+02  0.00000000000E+00 0. -1.
         13    1    3    3    0    0  0.10777116444E+02 -0.29661984238E+02  0.10602358667E+03  0.11062088627E+03  0.00000000000E+00 0.  1.
<mgrwt>
<rscale>  0 0.90678960E+02</rscale>
<asrwt>0</asrwt>
<pdfrwt beam="2">  1        2 0.25079007E-02 0.90678960E+02</pdfrwt>
<pdfrwt beam="1">  1       -2 0.19400638E-01 0.90678960E+02</pdfrwt>
<totfact> 0.75228116E+04</totfact>
</mgrwt>
</event>
<event>
 5    1  0.1242969E+001  0.9239779E+02  0.7546771E-02  0.1297147E+00
          4   -1    0    0  501    0  0.00000000000E+00  0.00000000000E+00  0.29393262660E+02  0.29393262660E+02  0.00000000000E+00 0. -1.
         -4   -1    0    0    0  501 -0.00000000000E+00 -0.00000000000E+00 -0.72613166983E+02  0.72613166983E+02  0.00000000000E+00 0.  1.
         23    2    1    2    0    0  0.00000000000E+00  0.00000000000E+00 -0.43219904323E+02  0.10200642964E+03  0.92397789794E+02 0.  0.
        -13    1    3    3    0    0  0.16801395517E+02 -0.22352077049E+02 -0.62209787226E+02  0.68205277409E+02  0.00000000000E+00 0.  1.
         13    1    3    3    0    0 -0.16801395517E+02  0.22352077049E+02  0.18989882902E+02  0.33801152235E+02  0.00000000000E+00 0. -1.
<mgrwt>
<rscale>  0 0.92397790E+02</rscale>
<asrwt>0</asrwt>
<pdfrwt beam="1">  1        4 0.45220404E-02 0.92397790E+02</pdfrwt>
<pdfrwt beam="2">  1       -4 0.11171256E-01 0.92397790E+02</pdfrwt>
<totfact> 0.25399712E+04</totfact>
</mgrwt>
</event>
<event>
 5    1  0.1242969E+001  0.9121776E+02  0.7546771E-02  0.1299929E+00
         -2   -1    0    0    0  501 -0.00000000000E+00  0.00000000000E+00  0.82284478757E+02  0.82284478757E+02  0.00000000000E+00 0.  1.
          2   -1    0    0  501    0  0.00000000000E+00 -0.00000000000E+00 -0.25280222559E+02  0.25280222559E+02  0.00000000000E+00 0. -1.
         23    2    1    2    0    0  0.00000000000E+00  0.00000000000E+00  0.57004256199E+02  0.10756470132E+03  0.91217760028E+02 0.  0.
        -11    1    3    3    0    0 -0.86828054141E+01 -0.44663085588E+02  0.32228800378E+02  0.55757312506E+02  0.00000000000E+00 0.  1.
         11    1    3    3    0    0  0.86828054141E+01  0.44663085588E+02  0.24775455821E+02  0.51807388810E+02  0.00000000000E+00 0. -1.
<mgrwt>
<rscale>  0 0.91217760E+02</rscale>
<asrwt>0</asrwt>
<pdfrwt beam="2">  1        2 0.38892650E-02 0.91217760E+02</pdfrwt>
<pdfrwt beam="1">  1       -2 0.12659150E-01 0.91217760E+02</pdfrwt>
<totfact> 0.84323789E+04</totfact>
</mgrwt>
</event>
<event>
 5    1  0.1242969E+001  0.9131615E+02  0.7546771E-02  0.1299695E+00
         -1   -1    0    0    0  501 -0.00000000000E+00  0.00000000000E+00  0.10066595438E+02  0.10066595438E+02  0.00000000000E+00 0.  1.
          1   -1    0    0  501    0  0.00000000000E+00 -0.00000000000E+00 -0.20708685980E+03  0.20708685980E+03  0.00000000000E+00 0. -1.
         23    2    1    2    0    0  0.00000000000E+00  0.00000000000E+00 -0.19702026436E+03  0.21715345524E+03  0.91316146178E+02 0.  0.
        -11    1    3    3    0    0  0.32313657942E+02 -0.23997678356E+02 -0.47252550855E+02  0.62071447690E+02  0.00000000000E+00 0.  1.
         11    1    3    3    0    0 -0.32313657942E+02  0.23997678356E+02 -0.14976771351E+03  0.15508200755E+03  0.00000000000E+00 0. -1.
<mgrwt>
<rscale>  0 0.91316146E+02</rscale>
<asrwt>0</asrwt>
<pdfrwt beam="2">  1        1 0.31859517E-01 0.91316146E+02</pdfrwt>
<pdfrwt beam="1">  1       -1 0.15487070E-02 0.91316146E+02</pdfrwt>
<totfact> 0.11872239E+05</totfact>
</mgrwt>
</event>
<event>
 5    1  0.1242969E+001  0.8512852E+02  0.7546771E-02  0.1315097E+00
         -3   -1    0    0    0  501 -0.00000000000E+00  0.00000000000E+00  0.45340836978E+02  0.45340836978E+02  0.00000000000E+00 0.  1.
          3   -1    0    0  501    0  0.00000000000E+00 -0.00000000000E+00 -0.39957710861E+02  0.39957710861E+02  0.00000000000E+00 0. -1.
         23    2    1    2    0    0  0.00000000000E+00  0.00000000000E+00  0.53831261167E+01  0.85298547839E+02  0.85128515884E+02 0.  0.
        -13    1    3    3    0    0  0.40460198025E+02  0.82063918308E+01  0.13072930884E+02  0.43304434103E+02  0.00000000000E+00 0.  1.
         13    1    3    3    0    0 -0.40460198025E+02 -0.82063918308E+01 -0.76898047675E+01  0.41994113736E+02  0.00000000000E+00 0. -1.
<mgrwt>
<rscale>  0 0.85128516E+02</rscale>
<asrwt>0</asrwt>
<pdfrwt beam="2">  1        3 0.61473401E-02 0.85128516E+02</pdfrwt>
<pdfrwt beam="1">  1       -3 0.69755134E-02 0.85128516E+02</pdfrwt>
<totfact> 0.43121216E+04</totfact>
</mgrwt>
</event>
<event>
 5    1  0.1242969E+001  0.9054907E+02  0.7546771E-02  0.1301527E+00
         -1   -1    0    0    0  501 -0.00000000000E+00  0.00000000000E+00  0.17454695792E+02  0.17454695792E+02  0.00000000000E+00 0.  1.
          1   -1    0    0  501    0  0.00000000000E+00 -0.00000000000E+00 -0.11743450228E+03  0.11743450228E+03  0.00000000000E+00 0. -1.
         23    2    1    2    0    0  0.00000000000E+00  0.00000000000E+00 -0.99979806488E+02  0.13488919807E+03  0.90549069851E+02 0.  0.
        -11    1    3    3    0    0  0.33626546136E+02 -0.23225014756E+02 -0.20964531724E+02  0.45931008109E+02  0.00000000000E+00 0. -1.
         11    1    3    3    0    0 -0.33626546136E+02  0.23225014756E+02 -0.79015274764E+02  0.88958189963E+02  0.00000000000E+00 0.  1.
<mgrwt>
<rscale>  0 0.90549070E+02</rscale>
<asrwt>0</asrwt>
<pdfrwt beam="2">  1        1 0.18066847E-01 0.90549070E+02</pdfrwt>
<pdfrwt beam="1">  1       -1 0.26853377E-02 0.90549070E+02</pdfrwt>
<totfact> 0.10936553E+05</totfact>
</mgrwt>
</event>
<event>
 5    1  0.1242969E+001  0.8875425E+02  0.7546771E-02  0.1305897E+00
         -1   -1    0    0    0  501 -0.00000000000E+00  0.00000000000E+00  0.52591909831E+02  0.52591909831E+02  0.00000000000E+00 0.  1.
          1   -1    0    0  501    0  0.00000000000E+00 -0.00000000000E+00 -0.37445479447E+02  0.37445479447E+02  0.00000000000E+00 0. -1.
         23    2    1    2    0    0  0.00000000000E+00  0.00000000000E+00  0.15146430384E+02  0.90037389278E+02  0.88754251248E+02 0.  0.
        -11    1    3    3    0    0  0.10724289517E+02  0.21637009295E+02  0.45342626011E+02  0.51372407871E+02  0.00000000000E+00 0.  1.
         11    1    3    3    0    0 -0.10724289517E+02 -0.21637009295E+02 -0.30196195627E+02  0.38664981407E+02  0.00000000000E+00 0. -1.
<mgrwt>
<rscale>  0 0.88754251E+02</rscale>
<asrwt>0</asrwt>
<pdfrwt beam="2">  1        1 0.57608430E-02 0.88754251E+02</pdfrwt>
<pdfrwt beam="1">  1       -1 0.80910631E-02 0.88754251E+02</pdfrwt>
<totfact> 0.96850323E+04</totfact>
</mgrwt>
</event>
<event>
 5    1  0.1242969E+001  0.9830995E+02  0.7546771E-02  0.1283891E+00
         -1   -1    0    0    0  501 -0.00000000000E+00  0.00000000000E+00  0.73235905986E+02  0.73235905986E+02  0.00000000000E+00 0.  1.
          1   -1    0    0  501    0  0.00000000000E+00 -0.00000000000E+00 -0.32992173897E+02  0.32992173897E+02  0.00000000000E+00 0. -1.
         23    2    1    2    0    0  0.00000000000E+00  0.00000000000E+00  0.40243732088E+02  0.10622807988E+03  0.98309953633E+02 0.  0.
        -11    1    3    3    0    0  0.12000585278E+02  0.32746759909E+02 -0.17306843180E+02  0.38934446862E+02  0.00000000000E+00 0. -1.
         11    1    3    3    0    0 -0.12000585278E+02 -0.32746759909E+02  0.57550575268E+02  0.67293633022E+02  0.00000000000E+00 0.  1.
<mgrwt>
<rscale>  0 0.98309954E+02</rscale>
<asrwt>0</asrwt>
<pdfrwt beam="2">  1        1 0.50757191E-02 0.98309954E+02</pdfrwt>
<pdfrwt beam="1">  1       -1 0.11267062E-01 0.98309954E+02</pdfrwt>
<totfact> 0.70858573E+04</totfact>
</mgrwt>
</event>
<event>
 5    1  0.1242969E+001  0.9013369E+02  0.7546771E-02  0.1302528E+00
          1   -1    0    0  501    0  0.00000000000E+00  0.00000000000E+00  0.54955372801E+02  0.54955372801E+02  0.00000000000E+00 0. -1.
         -1   -1    0    0    0  501 -0.00000000000E+00 -0.00000000000E+00 -0.36957634221E+02  0.36957634221E+02  0.00000000000E+00 0.  1.
         23    2    1    2    0    0  0.00000000000E+00  0.00000000000E+00  0.17997738580E+02  0.91913007023E+02  0.90133691070E+02 0.  0.
        -13    1    3    3    0    0  0.76596941589E+01 -0.11488476978E+02  0.52745211690E+02  0.54522595078E+02  0.00000000000E+00 0. -1.
         13    1    3    3    0    0 -0.76596941589E+01  0.11488476978E+02 -0.34747473110E+02  0.37390411944E+02  0.00000000000E+00 0.  1.
<mgrwt>
<rscale>  0 0.90133691E+02</rscale>
<asrwt>0</asrwt>
<pdfrwt beam="1">  1        1 0.84546727E-02 0.90133691E+02</pdfrwt>
<pdfrwt beam="2">  1       -1 0.56857899E-02 0.90133691E+02</pdfrwt>
<totfact> 0.98193999E+04</totfact>
</mgrwt>
</event>
<event>
 5    1  0.1242969E+001  0.9463633E+02  0.7546771E-02  0.1291997E+00
         -2   -1    0    0    0  501 -0.00000000000E+00  0.00000000000E+00  0.93623872957E+01  0.93623872957E+01  0.00000000000E+00 0.  1.
          2   -1    0    0  501    0  0.00000000000E+00 -0.00000000000E+00 -0.23914936227E+03  0.23914936227E+03  0.00000000000E+00 0. -1.
         23    2    1    2    0    0  0.00000000000E+00  0.00000000000E+00 -0.22978697497E+03  0.24851174957E+03  0.94636334483E+02 0.  0.
        -11    1    3    3    0    0 -0.10775593570E+02  0.39139129250E+02 -0.17873330104E+03  0.18328550885E+03  0.00000000000E+00 0. -1.
         11    1    3    3    0    0  0.10775593570E+02 -0.39139129250E+02 -0.51053673937E+02  0.65226240715E+02  0.00000000000E+00 0.  1.
<mgrwt>
<rscale>  0 0.94636334E+02</rscale>
<asrwt>0</asrwt>
<pdfrwt beam="2">  1        2 0.36792210E-01 0.94636334E+02</pdfrwt>
<pdfrwt beam="1">  1       -2 0.14403673E-02 0.94636334E+02</pdfrwt>
<totfact> 0.14939887E+05</totfact>
</mgrwt>
</event>
<event>
 5    1  0.1242969E+001  0.8391295E+02  0.7546771E-02  0.1318300E+00
         -2   -1    0    0    0  501 -0.00000000000E+00  0.00000000000E+00  0.10956565754E+02  0.10956565754E+02  0.00000000000E+00 0. -1.
          2   -1    0    0  501    0  0.00000000000E+00 -0.00000000000E+00 -0.16066583323E+03  0.16066583323E+03  0.00000000000E+00 0.  1.
         23    2    1    2    0    0  0.00000000000E+00  0.00000000000E+00 -0.14970926748E+03  0.17162239898E+03  0.83912949326E+02 0.  0.
        -13    1    3    3    0    0 -0.39478432327E+02 -0.90963181920E+01 -0.97170866686E+02  0.10527804594E+03  0.00000000000E+00 0.  1.
         13    1    3    3    0    0  0.39478432327E+02  0.90963181920E+01 -0.52538400789E+02  0.66344353046E+02  0.00000000000E+00 0. -1.
<mgrwt>
<rscale>  0 0.83912949E+02</rscale>
<asrwt>0</asrwt>
<pdfrwt beam="2">  1        2 0.24717819E-01 0.83912949E+02</pdfrwt>
<pdfrwt beam="1">  1       -2 0.16856256E-02 0.83912949E+02</pdfrwt>
<totfact> 0.17899758E+05</totfact>
</mgrwt>
</event>
<event>
 5    1  0.1242969E+001  0.9174879E+02  0.7546771E-02  0.1298671E+00
         -2   -1    0    0    0  501 -0.00000000000E+00  0.00000000000E+00  0.58848967397E+02  0.58848967397E+02  0.00000000000E+00 0.  1.
          2   -1    0    0  501    0  0.00000000000E+00 -0.00000000000E+00 -0.35760356573E+02  0.35760356573E+02  0.00000000000E+00 0. -1.
         23    2    1    2    0    0  0.00000000000E+00  0.00000000000E+00  0.23088610824E+02  0.94609323970E+02  0.91748788724E+02 0.  0.
        -13    1    3    3    0    0 -0.33803694173E+02  0.30901373692E+02  0.14248159739E+02  0.47964514922E+02  0.00000000000E+00 0. -1.
         13    1    3    3    0    0  0.33803694173E+02 -0.30901373692E+02  0.88404510850E+01  0.46644809048E+02  0.00000000000E+00 0.  1.
<mgrwt>
<rscale>  0 0.91748789E+02</rscale>
<asrwt>0</asrwt>
<pdfrwt beam="2">  1        2 0.55015933E-02 0.91748789E+02</pdfrwt>
<pdfrwt beam="1">  1       -2 0.90536873E-02 0.91748789E+02</pdfrwt>
<totfact> 0.90974888E+04</totfact>
</mgrwt>
</event>
<event>
 5    1  0.1242969E+001  0.9289180E+02  0.7546771E-02  0.1295996E+00
          1   -1    0    0  501    0  0.00000000000E+00  0.00000000000E+00  0.12022464364E+02  0.12022464364E+02  0.00000000000E+00 0. -1.
         -1   -1    0    0    0  501 -0.00000000000E+00 -0.00000000000E+00 -0.17943255415E+03  0.17943255415E+03  0.00000000000E+00 0.  1.
         23    2    1    2    0    0  0.00000000000E+00  0.00000000000E+00 -0.16741008978E+03  0.19145501851E+03  0.92891797010E+02 0.  0.
        -11    1    3    3    0    0 -0.25328986570E+02  0.20416760715E+02 -0.15202579570E+03  0.15546782380E+03  0.00000000000E+00 0.  1.
         11    1    3    3    0    0  0.25328986570E+02 -0.20416760715E+02 -0.15384294083E+02  0.35987194711E+02  0.00000000000E+00 0. -1.
<mgrwt>
<rscale>  0 0.92891797E+02</rscale>
<asrwt>0</asrwt>
<pdfrwt beam="1">  1        1 0.18496099E-02 0.92891797E+02</pdfrwt>
<pdfrwt beam="2">  1       -1 0.27605008E-01 0.92891797E+02</pdfrwt>
<totfact> 0.68139334E+04</totfact>
</mgrwt>
</event>
<event>
 5    1  0.1242969E+001  0.9132685E+02  0.7546771E-02  0.1299670E+00
         -2   -1    0    0    0  501 -0.00000000000E+00  0.00000000000E+00  0.10772489384E+02  0.10772489384E+02  0.00000000000E+00 0.  1.
          2   -1    0    0  501    0  0.00000000000E+00 -0.00000000000E+00 -0.19356235177E+03  0.19356235177E+03  0.00000000000E+00 0. -1.
         23    2    1    2    0    0  0.00000000000E+00  0.00000000000E+00 -0.18278986238E+03  0.20433484115E+03  0.91326849928E+02 0.  0.
        -13    1    3    3    0    0  0.39222675717E+02 -0.50966089391E+01 -0.14245254706E+03  0.14784154313E+03  0.00000000000E+00 0. -1.
         13    1    3    3    0    0 -0.39222675717E+02  0.50966089391E+01 -0.40337315326E+02  0.56493298017E+02  0.00000000000E+00 0.  1.
<mgrwt>
<rscale>  0 0.91326850E+02</rscale>
<asrwt>0</asrwt>
<pdfrwt beam="2">  1        2 0.29778823E-01 0.91326850E+02</pdfrwt>
<pdfrwt beam="1">  1       -2 0.16573061E-02 0.91326850E+02</pdfrwt>
<totfact> 0.15218873E+05</totfact>
</mgrwt>
</event>
<event>
 5    1  0.1242969E+001  0.9106336E+02  0.7546771E-02  0.1300297E+00
          1   -1    0    0  501    0  0.00000000000E+00  0.00000000000E+00  0.85509027633E+02  0.85509027633E+02  0.00000000000E+00 0. -1.
         -1   -1    0    0    0  501 -0.00000000000E+00 -0.00000000000E+00 -0.24244622109E+02  0.24244622109E+02  0.00000000000E+00 0.  1.
         23    2    1    2    0    0  0.00000000000E+00  0.00000000000E+00  0.61264405524E+02  0.10975364974E+03  0.91063363915E+02 0.  0.
        -13    1    3    3    0    0 -0.19647376127E+02  0.32411996824E+02  0.22329652015E+00  0.37902596060E+02  0.00000000000E+00 0.  1.
         13    1    3    3    0    0  0.19647376127E+02 -0.32411996824E+02  0.61041109004E+02  0.71851053682E+02  0.00000000000E+00 0. -1.
<mgrwt>
<rscale>  0 0.91063364E+02</rscale>
<asrwt>0</asrwt>
<pdfrwt beam="1">  1        1 0.13155235E-01 0.91063364E+02</pdfrwt>
<pdfrwt beam="2">  1       -1 0.37299419E-02 0.91063364E+02</pdfrwt>
<totfact> 0.10216480E+05</totfact>
</mgrwt>
</event>
<event>
 5    1  0.1242969E+001  0.9163780E+02  0.7546771E-02  0.1298933E+00
         -2   -1    0    0    0  501 -0.00000000000E+00  0.00000000000E+00  0.84675494599E+01  0.84675494599E+01  0.00000000000E+00 0.  1.
          2   -1    0    0  501    0  0.00000000000E+00 -0.00000000000E+00 -0.24793140974E+03  0.24793140974E+03  0.00000000000E+00 0. -1.
         23    2    1    2    0    0  0.00000000000E+00  0.00000000000E+00 -0.23946386028E+03  0.25639895920E+03  0.91637797324E+02 0.  0.
        -11    1    3    3    0    0 -0.12615411287E+02 -0.37149596672E+02 -0.53512389329E+02  0.66353725943E+02  0.00000000000E+00 0.  1.
         11    1    3    3    0    0  0.12615411287E+02  0.37149596672E+02 -0.18595147095E+03  0.19004523325E+03  0.00000000000E+00 0. -1.
<mgrwt>
<rscale>  0 0.91637797E+02</rscale>
<asrwt>0</asrwt>
<pdfrwt beam="2">  1        2 0.38143291E-01 0.91637797E+02</pdfrwt>
<pdfrwt beam="1">  1       -2 0.13027000E-02 0.91637797E+02</pdfrwt>
<totfact> 0.16509770E+05</totfact>
</mgrwt>
</event>
<event>
 5    1  0.1242969E+001  0.8937738E+02  0.7546771E-02  0.1304366E+00
         -2   -1    0    0    0  501 -0.00000000000E+00  0.00000000000E+00  0.17010546014E+02  0.17010546014E+02  0.00000000000E+00 0.  1.
          2   -1    0    0  501    0  0.00000000000E+00 -0.00000000000E+00 -0.11740240862E+03  0.11740240862E+03  0.00000000000E+00 0. -1.
         23    2    1    2    0    0  0.00000000000E+00  0.00000000000E+00 -0.10039186261E+03  0.13441295464E+03  0.89377381346E+02 0.  0.
        -13    1    3    3    0    0  0.40392313038E+02  0.86181312233E+01 -0.75862028849E+02  0.86376261551E+02  0.00000000000E+00 0. -1.
         13    1    3    3    0    0 -0.40392313038E+02 -0.86181312233E+01 -0.24529833758E+02  0.48036693085E+02  0.00000000000E+00 0.  1.
<mgrwt>
<rscale>  0 0.89377381E+02</rscale>
<asrwt>0</asrwt>
<pdfrwt beam="2">  1        2 0.18061909E-01 0.89377381E+02</pdfrwt>
<pdfrwt beam="1">  1       -2 0.26170071E-02 0.89377381E+02</pdfrwt>
<totfact> 0.13617280E+05</totfact>
</mgrwt>
</event>
<event>
 5    1  0.1242969E+001  0.9284657E+02  0.7546771E-02  0.1296101E+00
         -1   -1    0    0    0  501 -0.00000000000E+00  0.00000000000E+00  0.35439135101E+02  0.35439135101E+02  0.00000000000E+00 0.  1.
          1   -1    0    0  501    0  0.00000000000E+00 -0.00000000000E+00 -0.60811909482E+02  0.60811909482E+02  0.00000000000E+00 0. -1.
         23    2    1    2    0    0  0.00000000000E+00  0.00000000000E+00 -0.25372774381E+02  0.96251044583E+02  0.92846571846E+02 0.  0.
        -11    1    3    3    0    0  0.19545101292E+02  0.20964883072E+02  0.25170926539E+02  0.38145941456E+02  0.00000000000E+00 0.  1.
         11    1    3    3    0    0 -0.19545101292E+02 -0.20964883072E+02 -0.50543700920E+02  0.58105103127E+02  0.00000000000E+00 0. -1.
<mgrwt>
<rscale>  0 0.92846572E+02</rscale>
<asrwt>0</asrwt>
<pdfrwt beam="2">  1        1 0.93556783E-02 0.92846572E+02</pdfrwt>
<pdfrwt beam="1">  1       -1 0.54521747E-02 0.92846572E+02</pdfrwt>
<totfact> 0.91818733E+04</totfact>
</mgrwt>
</event>
<event>
 5    1  0.1242969E+001  0.9192889E+02  0.7546771E-02  0.1298247E+00
         -3   -1    0    0    0  501 -0.00000000000E+00  0.00000000000E+00  0.56018469611E+02  0.56018469611E+02  0.00000000000E+00 0.  1.
          3   -1    0    0  501    0  0.00000000000E+00 -0.00000000000E+00 -0.37714883988E+02  0.37714883988E+02  0.00000000000E+00 0. -1.
         23    2    1    2    0    0  0.00000000000E+00  0.00000000000E+00  0.18303585623E+02  0.93733353598E+02  0.91928887354E+02 0.  0.
        -11    1    3    3    0    0 -0.17496495051E+02  0.42214674470E+02  0.14201170201E+02  0.47852683464E+02  0.00000000000E+00 0. -1.
         11    1    3    3    0    0  0.17496495051E+02 -0.42214674470E+02  0.41024154220E+01  0.45880670134E+02  0.00000000000E+00 0.  1.
<mgrwt>
<rscale>  0 0.91928887E+02</rscale>
<asrwt>0</asrwt>
<pdfrwt beam="2">  1        3 0.58022898E-02 0.91928887E+02</pdfrwt>
<pdfrwt beam="1">  1       -3 0.86182262E-02 0.91928887E+02</pdfrwt>
<totfact> 0.34364610E+04</totfact>
</mgrwt>
</event>
<event>
 5    1  0.1242969E+001  0.9110510E+02  0.7546771E-02  0.1300197E+00
          1   -1    0    0  501    0  0.00000000000E+00  0.00000000000E+00  0.44140164523E+03  0.44140164523E+03  0.00000000000E+00 0. -1.
         -1   -1    0    0    0  501 -0.00000000000E+00 -0.00000000000E+00 -0.47010126149E+01  0.47010126149E+01  0.00000000000E+00 0.  1.
         23    2    1    2    0    0  0.00000000000E+00  0.00000000000E+00  0.43670063262E+03  0.44610265785E+03  0.91105097606E+02 0.  0.
        -11    1    3    3    0    0 -0.17347108267E+02  0.41913369841E+02  0.23876494940E+03  0.24303570478E+03  0.00000000000E+00 0.  1.
         11    1    3    3    0    0  0.17347108267E+02 -0.41913369841E+02  0.19793568321E+03  0.20306695306E+03  0.00000000000E+00 0. -1.
<mgrwt>
<rscale>  0 0.91105098E+02</rscale>
<asrwt>0</asrwt>
<pdfrwt beam="1">  1        1 0.67907913E-01 0.91105098E+02</pdfrwt>
<pdfrwt beam="2">  1       -1 0.72323306E-03 0.91105098E+02</pdfrwt>
<totfact> 0.13726087E+05</totfact>
</mgrwt>
</event>
<event>
 5    1  0.1242969E+001  0.9086511E+02  0.7546771E-02  0.1300770E+00
         -2   -1    0    0    0  501 -0.00000000000E+00  0.00000000000E+00  0.24710093205E+02  0.24710093205E+02  0.00000000000E+00 0.  1.
          2   -1    0    0  501    0  0.00000000000E+00 -0.00000000000E+00 -0.83533366522E+02  0.83533366522E+02  0.00000000000E+00 0. -1.
         23    2    1    2    0    0  0.00000000000E+00  0.00000000000E+00 -0.58823273317E+02  0.10824345973E+03  0.90865114813E+02 0.  0.
        -11    1    3    3    0    0 -0.31644986112E+02 -0.98176971721E+01 -0.66442691346E+02  0.74245697229E+02  0.00000000000E+00 0. -1.
         11    1    3    3    0    0  0.31644986112E+02  0.98176971721E+01  0.76194180282E+01  0.33997762498E+02  0.00000000000E+00 0.  1.
<mgrwt>
<rscale>  0 0.90865115E+02</rscale>
<asrwt>0</asrwt>
<pdfrwt beam="2">  1        2 0.12851287E-01 0.90865115E+02</pdfrwt>
<pdfrwt beam="1">  1       -2 0.38015528E-02 0.90865115E+02</pdfrwt>
<totfact> 0.11740227E+05</totfact>
</mgrwt>
</event>
<event>
 5    1  0.1242969E+001  0.8781554E+02  0.7546771E-02  0.1308230E+00
          3   -1    0    0  501    0  0.00000000000E+00  0.00000000000E+00  0.77096497965E+02  0.77096497965E+02  0.00000000000E+00 0. -1.
         -3   -1    0    0    0  501 -0.00000000000E+00 -0.00000000000E+00 -0.25006225071E+02  0.25006225071E+02  0.00000000000E+00 0.  1.
         23    2    1    2    0    0  0.00000000000E+00  0.00000000000E+00  0.52090272894E+02  0.10210272304E+03  0.87815542595E+02 0.  0.
        -13    1    3    3    0    0  0.36739518988E+02  0.40139485581E+01  0.53608333429E+02  0.65113419903E+02  0.00000000000E+00 0. -1.
         13    1    3    3    0    0 -0.36739518988E+02 -0.40139485581E+01 -0.15180605345E+01  0.36989303133E+02  0.00000000000E+00 0.  1.
<mgrwt>
<rscale>  0 0.87815543E+02</rscale>
<asrwt>0</asrwt>
<pdfrwt beam="1">  1        3 0.11861000E-01 0.87815543E+02</pdfrwt>
<pdfrwt beam="2">  1       -3 0.38471116E-02 0.87815543E+02</pdfrwt>
<totfact> 0.38215515E+04</totfact>
</mgrwt>
</event>
<event>
 5    1  0.1242969E+001  0.8769583E+02  0.7546771E-02  0.1308529E+00
          1   -1    0    0  501    0  0.00000000000E+00  0.00000000000E+00  0.60622501045E+02  0.60622501045E+02  0.00000000000E+00 0. -1.
         -1   -1    0    0    0  501 -0.00000000000E+00 -0.00000000000E+00 -0.31714949374E+02  0.31714949374E+02  0.00000000000E+00 0.  1.
         23    2    1    2    0    0  0.00000000000E+00  0.00000000000E+00  0.28907551672E+02  0.92337450419E+02  0.87695827759E+02 0.  0.
        -11    1    3    3    0    0 -0.28989343808E+02 -0.13895169645E+02 -0.16943662720E+02  0.36339310673E+02  0.00000000000E+00 0.  1.
         11    1    3    3    0    0  0.28989343808E+02  0.13895169645E+02  0.45851214391E+02  0.55998139746E+02  0.00000000000E+00 0. -1.
<mgrwt>
<rscale>  0 0.87695828E+02</rscale>
<asrwt>0</asrwt>
<pdfrwt beam="1">  1        1 0.93265386E-02 0.87695828E+02</pdfrwt>
<pdfrwt beam="2">  1       -1 0.48792230E-02 0.87695828E+02</pdfrwt>
<totfact> 0.10747941E+05</totfact>
</mgrwt>
</event>
<event>
 5    1  0.1242969E+001  0.8952100E+02  0.7546771E-02  0.1304016E+00
          2   -1    0    0  501    0  0.00000000000E+00  0.00000000000E+00  0.24162569769E+02  0.24162569769E+02  0.00000000000E+00 0. -1.
         -2   -1    0    0    0  501 -0.00000000000E+00 -0.00000000000E+00 -0.82917601429E+02  0.82917601429E+02  0.00000000000E+00 0.  1.
         23    2    1    2    0    0  0.00000000000E+00  0.00000000000E+00 -0.58755031660E+02  0.10708017120E+03  0.89520999316E+02 0.  0.
        -13    1    3    3    0    0 -0.29752303181E+02 -0.30307785369E+01 -0.69213252139E+02  0.75398006835E+02  0.00000000000E+00 0.  1.
         13    1    3    3    0    0  0.29752303181E+02  0.30307785369E+01  0.10458220479E+02  0.31682164363E+02  0.00000000000E+00 0. -1.
<mgrwt>
<rscale>  0 0.89520999E+02</rscale>
<asrwt>0</asrwt>
<pdfrwt beam="1">  1        2 0.37173184E-02 0.89520999E+02</pdfrwt>
<pdfrwt beam="2">  1       -2 0.12756554E-01 0.89520999E+02</pdfrwt>
<totfact> 0.88123239E+04</totfact>
</mgrwt>
</event>
<event>
 5    1  0.1242969E+001  0.9243916E+02  0.7546771E-02  0.1297050E+00
          2   -1    0    0  501    0  0.00000000000E+00  0.00000000000E+00  0.71088351927E+01  0.71088351927E+01  0.00000000000E+00 0. -1.
         -2   -1    0    0    0  501 -0.00000000000E+00 -0.00000000000E+00 -0.30050629835E+03  0.30050629835E+03  0.00000000000E+00 0.  1.
         23    2    1    2    0    0  0.00000000000E+00  0.00000000000E+00 -0.29339746316E+03  0.30761513355E+03  0.92439163764E+02 0.  0.
        -11    1    3    3    0    0  0.25756631382E+02  0.30458445714E+02 -0.22439519346E+03  0.22791297423E+03  0.00000000000E+00 0.  1.
         11    1    3    3    0    0 -0.25756631382E+02 -0.30458445714E+02 -0.69002269701E+02  0.79702159314E+02  0.00000000000E+00 0. -1.
<mgrwt>
<rscale>  0 0.92439164E+02</rscale>
<asrwt>0</asrwt>
<pdfrwt beam="1">  1        2 0.10936670E-02 0.92439164E+02</pdfrwt>
<pdfrwt beam="2">  1       -2 0.46231734E-01 0.92439164E+02</pdfrwt>
<totfact> 0.49178493E+04</totfact>
</mgrwt>
</event>
<event>
 5    1  0.1242969E+001  0.9865558E+02  0.7546771E-02  0.1283149E+00
         -2   -1    0    0    0  501 -0.00000000000E+00  0.00000000000E+00  0.71625088719E+01  0.71625088719E+01  0.00000000000E+00 0. -1.
          2   -1    0    0  501    0  0.00000000000E+00 -0.00000000000E+00 -0.33971768418E+03  0.33971768418E+03  0.00000000000E+00 0.  1.
         23    2    1    2    0    0  0.00000000000E+00  0.00000000000E+00 -0.33255517531E+03  0.34688019305E+03  0.98655581228E+02 0.  0.
        -13    1    3    3    0    0 -0.38780814085E+02 -0.19389349469E+02 -0.24898623865E+03  0.25273315067E+03  0.00000000000E+00 0. -1.
         13    1    3    3    0    0  0.38780814085E+02  0.19389349469E+02 -0.83568936661E+02  0.94147042378E+02  0.00000000000E+00 0.  1.
<mgrwt>
<rscale>  0 0.98655581E+02</rscale>
<asrwt>0</asrwt>
<pdfrwt beam="2">  1        2 0.52264269E-01 0.98655581E+02</pdfrwt>
<pdfrwt beam="1">  1       -2 0.11019242E-02 0.98655581E+02</pdfrwt>
<totfact> 0.15236217E+05</totfact>
</mgrwt>
</event>
<event>
 5    1  0.1242969E+001  0.8374504E+02  0.7546771E-02  0.1318747E+00
         -2   -1    0    0    0  501 -0.00000000000E+00  0.00000000000E+00  0.12485797389E+02  0.12485797389E+02  0.00000000000E+00 0.  1.
          2   -1    0    0  501    0  0.00000000000E+00 -0.00000000000E+00 -0.14042418444E+03  0.14042418444E+03  0.00000000000E+00 0. -1.
         23    2    1    2    0    0  0.00000000000E+00  0.00000000000E+00 -0.12793838705E+03  0.15290998183E+03  0.83745039623E+02 0.  0.
        -11    1    3    3    0    0 -0.10268796453E+02 -0.40558674724E+02 -0.60884753781E+02  0.73874268314E+02  0.00000000000E+00 0. -1.
         11    1    3    3    0    0  0.10268796453E+02  0.40558674724E+02 -0.67053633267E+02  0.79035713511E+02  0.00000000000E+00 0.  1.
<mgrwt>
<rscale>  0 0.83745040E+02</rscale>
<asrwt>0</asrwt>
<pdfrwt beam="2">  1        2 0.21603720E-01 0.83745040E+02</pdfrwt>
<pdfrwt beam="1">  1       -2 0.19208920E-02 0.83745040E+02</pdfrwt>
<totfact> 0.17205789E+05</totfact>
</mgrwt>
</event>
<event>
 5    1  0.1242969E+001  0.9217435E+02  0.7546771E-02  0.1297670E+00
         -2   -1    0    0    0  501 -0.00000000000E+00  0.00000000000E+00  0.28001723498E+02  0.28001723498E+02  0.00000000000E+00 0.  1.
          2   -1    0    0  501    0  0.00000000000E+00 -0.00000000000E+00 -0.75853458705E+02  0.75853458705E+02  0.00000000000E+00 0. -1.
         23    2    1    2    0    0  0.00000000000E+00  0.00000000000E+00 -0.47851735206E+02  0.10385518220E+03  0.92174347344E+02 0.  0.
        -11    1    3    3    0    0  0.30043606234E+01  0.43096005953E+02 -0.42014484498E+02  0.60262001456E+02  0.00000000000E+00 0. -1.
         11    1    3    3    0    0 -0.30043606234E+01 -0.43096005953E+02 -0.58372507088E+01  0.43593180748E+02  0.00000000000E+00 0.  1.
<mgrwt>
<rscale>  0 0.92174347E+02</rscale>
<asrwt>0</asrwt>
<pdfrwt beam="2">  1        2 0.11669763E-01 0.92174347E+02</pdfrwt>
<pdfrwt beam="1">  1       -2 0.43079575E-02 0.92174347E+02</pdfrwt>
<totfact> 0.10974726E+05</totfact>
</mgrwt>
</event>
<event>
 5    1  0.1242969E+001  0.8972618E+02  0.7546771E-02  0.1303516E+00
         -1   -1    0    0    0  501 -0.00000000000E+00  0.00000000000E+00  0.15753724719E+02  0.15753724719E+02  0.00000000000E+00 0.  1.
          1   -1    0    0  501    0  0.00000000000E+00 -0.00000000000E+00 -0.12776006422E+03  0.12776006422E+03  0.00000000000E+00 0. -1.
         23    2    1    2    0    0  0.00000000000E+00  0.00000000000E+00 -0.11200633950E+03  0.14351378894E+03  0.89726180835E+02 0.  0.
        -11    1    3    3    0    0  0.13495627381E+02  0.31633506140E+02 -0.99262198709E+01  0.35795816935E+02  0.00000000000E+00 0.  1.
         11    1    3    3    0    0 -0.13495627381E+02 -0.31633506140E+02 -0.10208011963E+03  0.10771797200E+03  0.00000000000E+00 0. -1.
<mgrwt>
<rscale>  0 0.89726181E+02</rscale>
<asrwt>0</asrwt>
<pdfrwt beam="2">  1        1 0.19655395E-01 0.89726181E+02</pdfrwt>
<pdfrwt beam="1">  1       -1 0.24236499E-02 0.89726181E+02</pdfrwt>
<totfact> 0.11375734E+05</totfact>
</mgrwt>
</event>
<event>
 5    1  0.1242969E+001  0.9211672E+02  0.7546771E-02  0.1297805E+00
          3   -1    0    0  501    0  0.00000000000E+00  0.00000000000E+00  0.46846483374E+02  0.46846483374E+02  0.00000000000E+00 0. -1.
         -3   -1    0    0    0  501 -0.00000000000E+00 -0.00000000000E+00 -0.45283491679E+02  0.45283491679E+02  0.00000000000E+00 0.  1.
         23    2    1    2    0    0  0.00000000000E+00  0.00000000000E+00  0.15629916947E+01  0.92129975053E+02  0.92116715965E+02 0.  0.
        -11    1    3    3    0    0  0.71904705988E+01  0.19382380991E+02 -0.40382571911E+02  0.45366636138E+02  0.00000000000E+00 0.  1.
         11    1    3    3    0    0 -0.71904705988E+01 -0.19382380991E+02  0.41945563606E+02  0.46763338915E+02  0.00000000000E+00 0. -1.
<mgrwt>
<rscale>  0 0.92116716E+02</rscale>
<asrwt>0</asrwt>
<pdfrwt beam="1">  1        3 0.72071513E-02 0.92116716E+02</pdfrwt>
<pdfrwt beam="2">  1       -3 0.69666911E-02 0.92116716E+02</pdfrwt>
<totfact> 0.34291402E+04</totfact>
</mgrwt>
</event>
<event>
 5    1  0.1242969E+001  0.9041196E+02  0.7546771E-02  0.1301857E+00
         -4   -1    0    0    0  501 -0.00000000000E+00  0.00000000000E+00  0.16717748407E+02  0.16717748407E+02  0.00000000000E+00 0.  1.
          4   -1    0    0  501    0  0.00000000000E+00 -0.00000000000E+00 -0.12224019366E+03  0.12224019366E+03  0.00000000000E+00 0. -1.
         23    2    1    2    0    0  0.00000000000E+00  0.00000000000E+00 -0.10552244525E+03  0.13895794207E+03  0.90411963874E+02 0.  0.
        -13    1    3    3    0    0 -0.82812208773E+01  0.43799118639E+02 -0.64328116607E+02  0.78262685866E+02  0.00000000000E+00 0. -1.
         13    1    3    3    0    0  0.82812208773E+01 -0.43799118639E+02 -0.41194328648E+02  0.60695256203E+02  0.00000000000E+00 0.  1.
<mgrwt>
<rscale>  0 0.90411964E+02</rscale>
<asrwt>0</asrwt>
<pdfrwt beam="2">  1        4 0.18806183E-01 0.90411964E+02</pdfrwt>
<pdfrwt beam="1">  1       -4 0.25719614E-02 0.90411964E+02</pdfrwt>
<totfact> 0.24795261E+04</totfact>
</mgrwt>
</event>
<event>
 5    1  0.1242969E+001  0.9109816E+02  0.7546771E-02  0.1300214E+00
         -1   -1    0    0    0  501 -0.00000000000E+00  0.00000000000E+00  0.25556975639E+03  0.25556975639E+03  0.00000000000E+00 0.  1.
          1   -1    0    0  501    0  0.00000000000E+00 -0.00000000000E+00 -0.81180124553E+01  0.81180124553E+01  0.00000000000E+00 0. -1.
         23    2    1    2    0    0  0.00000000000E+00  0.00000000000E+00  0.24745174393E+03  0.26368776884E+03  0.91098155098E+02 0.  0.
        -11    1    3    3    0    0  0.14306520698E+02 -0.42243630308E+02  0.96958346117E+02  0.10672451320E+03  0.00000000000E+00 0. -1.
         11    1    3    3    0    0 -0.14306520698E+02  0.42243630308E+02  0.15049339782E+03  0.15696325564E+03  0.00000000000E+00 0.  1.
<mgrwt>
<rscale>  0 0.91098155E+02</rscale>
<asrwt>0</asrwt>
<pdfrwt beam="2">  1        1 0.12489252E-02 0.91098155E+02</pdfrwt>
<pdfrwt beam="1">  1       -1 0.39318418E-01 0.91098155E+02</pdfrwt>
<totfact> 0.64424262E+04</totfact>
</mgrwt>
</event>
<event>
 5    1  0.1242969E+001  0.9269094E+02  0.7546771E-02  0.1296463E+00
         -1   -1    0    0    0  501 -0.00000000000E+00  0.00000000000E+00  0.11896198213E+02  0.11896198213E+02  0.00000000000E+00 0.  1.
          1   -1    0    0  501    0  0.00000000000E+00 -0.00000000000E+00 -0.18055371530E+03  0.18055371530E+03  0.00000000000E+00 0. -1.
         23    2    1    2    0    0  0.00000000000E+00  0.00000000000E+00 -0.16865751709E+03  0.19244991352E+03  0.92690944225E+02 0.  0.
        -11    1    3    3    0    0 -0.26209312270E+02  0.64412585001E+01 -0.16255380078E+03  0.16477911278E+03  0.00000000000E+00 0. -1.
         11    1    3    3    0    0  0.26209312270E+02 -0.64412585001E+01 -0.61037163149E+01  0.27670800740E+02  0.00000000000E+00 0.  1.
<mgrwt>
<rscale>  0 0.92690944E+02</rscale>
<asrwt>0</asrwt>
<pdfrwt beam="2">  1        1 0.27777493E-01 0.92690944E+02</pdfrwt>
<pdfrwt beam="1">  1       -1 0.18301844E-02 0.92690944E+02</pdfrwt>
<totfact> 0.11106025E+05</totfact>
</mgrwt>
</event>
<event>
 5    1  0.1242969E+001  0.9112610E+02  0.7546771E-02  0.1300147E+00
          3   -1    0    0  501    0  0.00000000000E+00  0.00000000000E+00  0.10703340909E+03  0.10703340909E+03  0.00000000000E+00 0. -1.
         -3   -1    0    0    0  501 -0.00000000000E+00 -0.00000000000E+00 -0.19395735687E+02  0.19395735687E+02  0.00000000000E+00 0.  1.
         23    2    1    2    0    0  0.00000000000E+00  0.00000000000E+00  0.87637673407E+02  0.12642914478E+03  0.91126104106E+02 0.  0.
        -13    1    3    3    0    0  0.15782112645E+02 -0.23669246047E+02 -0.55597255570E+01  0.28986528530E+02  0.00000000000E+00 0.  1.
         13    1    3    3    0    0 -0.15782112645E+02  0.23669246047E+02  0.93197398964E+02  0.97442616250E+02  0.00000000000E+00 0. -1.
<mgrwt>
<rscale>  0 0.91126104E+02</rscale>
<asrwt>0</asrwt>
<pdfrwt beam="1">  1        3 0.16466678E-01 0.91126104E+02</pdfrwt>
<pdfrwt beam="2">  1       -3 0.29839594E-02 0.91126104E+02</pdfrwt>
<totfact> 0.32861958E+04</totfact>
</mgrwt>
</event>
<event>
 5    1  0.1242969E+001  0.9157341E+02  0.7546771E-02  0.1299086E+00
         -1   -1    0    0    0  501 -0.00000000000E+00  0.00000000000E+00  0.15638627786E+02  0.15638627786E+02  0.00000000000E+00 0.  1.
          1   -1    0    0  501    0  0.00000000000E+00 -0.00000000000E+00 -0.13405411436E+03  0.13405411436E+03  0.00000000000E+00 0. -1.
         23    2    1    2    0    0  0.00000000000E+00  0.00000000000E+00 -0.11841548658E+03  0.14969274215E+03  0.91573410939E+02 0.  0.
        -11    1    3    3    0    0 -0.28885058817E+02  0.21255368974E+02 -0.12675898593E+02  0.38037031144E+02  0.00000000000E+00 0. -1.
         11    1    3    3    0    0  0.28885058817E+02 -0.21255368974E+02 -0.10573958798E+03  0.11165571101E+03  0.00000000000E+00 0.  1.
<mgrwt>
<rscale>  0 0.91573411E+02</rscale>
<asrwt>0</asrwt>
<pdfrwt beam="2">  1        1 0.20623711E-01 0.91573411E+02</pdfrwt>
<pdfrwt beam="1">  1       -1 0.24059427E-02 0.91573411E+02</pdfrwt>
<totfact> 0.10858419E+05</totfact>
</mgrwt>
</event>
<event>
 5    1  0.1242969E+001  0.9077615E+02  0.7546771E-02  0.1300983E+00
          2   -1    0    0  501    0  0.00000000000E+00  0.00000000000E+00  0.10227985400E+03  0.10227985400E+03  0.00000000000E+00 0. -1.
         -2   -1    0    0    0  501 -0.00000000000E+00 -0.00000000000E+00 -0.20141576516E+02  0.20141576516E+02  0.00000000000E+00 0.  1.
         23    2    1    2    0    0  0.00000000000E+00  0.00000000000E+00  0.82138277481E+02  0.12242143051E+03  0.90776153374E+02 0.  0.
        -13    1    3    3    0    0 -0.25090162486E+02 -0.25998117287E+01 -0.98182901930E+01  0.27067953319E+02  0.00000000000E+00 0.  1.
         13    1    3    3    0    0  0.25090162486E+02  0.25998117287E+01  0.91956567674E+02  0.95353477194E+02  0.00000000000E+00 0. -1.
<mgrwt>
<rscale>  0 0.90776153E+02</rscale>
<asrwt>0</asrwt>
<pdfrwt beam="1">  1        2 0.15735362E-01 0.90776153E+02</pdfrwt>
<pdfrwt beam="2">  1       -2 0.30987041E-02 0.90776153E+02</pdfrwt>
<totfact> 0.12502847E+05</totfact>
</mgrwt>
</event>
<event>
 5    1  0.1242969E+001  0.8938346E+02  0.7546771E-02  0.1304352E+00
         -3   -1    0    0    0  501 -0.00000000000E+00  0.00000000000E+00  0.32380901072E+03  0.32380901072E+03  0.00000000000E+00 0.  1.
          3   -1    0    0  501    0  0.00000000000E+00 -0.00000000000E+00 -0.61682982755E+01  0.61682982755E+01  0.00000000000E+00 0. -1.
         23    2    1    2    0    0  0.00000000000E+00  0.00000000000E+00  0.31764071244E+03  0.32997730900E+03  0.89383456242E+02 0.  0.
        -11    1    3    3    0    0  0.38509264136E+02  0.11015848030E+02  0.23200910634E+03  0.23544115562E+03  0.00000000000E+00 0.  1.
         11    1    3    3    0    0 -0.38509264136E+02 -0.11015848030E+02  0.85631606103E+02  0.94536153380E+02  0.00000000000E+00 0. -1.
<mgrwt>
<rscale>  0 0.89383456E+02</rscale>
<asrwt>0</asrwt>
<pdfrwt beam="2">  1        3 0.94896922E-03 0.89383456E+02</pdfrwt>
<pdfrwt beam="1">  1       -3 0.49816758E-01 0.89383456E+02</pdfrwt>
<totfact> 0.24156167E+04</totfact>
</mgrwt>
</event>
<event>
 5    1  0.1242969E+001  0.8986772E+02  0.7546771E-02  0.1303172E+00
         -2   -1    0    0    0  501 -0.00000000000E+00  0.00000000000E+00  0.33961769475E+02  0.33961769475E+02  0.00000000000E+00 0.  1.
          2   -1    0    0  501    0  0.00000000000E+00 -0.00000000000E+00 -0.59450724718E+02  0.59450724718E+02  0.00000000000E+00 0. -1.
         23    2    1    2    0    0  0.00000000000E+00  0.00000000000E+00 -0.25488955243E+02  0.93412494194E+02  0.89867720746E+02 0.  0.
        -13    1    3    3    0    0  0.28391761259E+02 -0.84872852355E+01 -0.47854404156E+02  0.56286500293E+02  0.00000000000E+00 0. -1.
         13    1    3    3    0    0 -0.28391761259E+02  0.84872852355E+01  0.22365448913E+02  0.37125993901E+02  0.00000000000E+00 0.  1.
<mgrwt>
<rscale>  0 0.89867721E+02</rscale>
<asrwt>0</asrwt>
<pdfrwt beam="2">  1        2 0.91462653E-02 0.89867721E+02</pdfrwt>
<pdfrwt beam="1">  1       -2 0.52248877E-02 0.89867721E+02</pdfrwt>
<totfact> 0.11020660E+05</totfact>
</mgrwt>
</event>
<event>
 5    1  0.1242969E+001  0.9300970E+02  0.7546771E-02  0.1295723E+00
         -2   -1    0    0    0  501 -0.00000000000E+00  0.00000000000E+00  0.39042958614E+02  0.39042958614E+02  0.00000000000E+00 0.  1.
          2   -1    0    0  501    0  0.00000000000E+00 -0.00000000000E+00 -0.55392853662E+02  0.55392853662E+02  0.00000000000E+00 0. -1.
         23    2    1    2    0    0  0.00000000000E+00  0.00000000000E+00 -0.16349895048E+02  0.94435812276E+02  0.93009696119E+02 0.  0.
        -11    1    3    3    0    0  0.86478654048E+01 -0.32229142143E+02  0.24713029663E+02  0.41523933032E+02  0.00000000000E+00 0.  1.
         11    1    3    3    0    0 -0.86478654048E+01  0.32229142143E+02 -0.41062924711E+02  0.52911879244E+02  0.00000000000E+00 0. -1.
<mgrwt>
<rscale>  0 0.93009696E+02</rscale>
<asrwt>0</asrwt>
<pdfrwt beam="2">  1        2 0.85219775E-02 0.93009696E+02</pdfrwt>
<pdfrwt beam="1">  1       -2 0.60066090E-02 0.93009696E+02</pdfrwt>
<totfact> 0.98126270E+04</totfact>
</mgrwt>
</event>
<event>
 5    1  0.1242969E+001  0.9348008E+02  0.7546771E-02  0.1294636E+00
          3   -1    0    0  501    0  0.00000000000E+00  0.00000000000E+00  0.71194647694E+02  0.71194647694E+02  0.00000000000E+00 0. -1.
         -3   -1    0    0    0  501 -0.00000000000E+00 -0.00000000000E+00 -0.30685328739E+02  0.30685328739E+02  0.00000000000E+00 0.  1.
         23    2    1    2    0    0  0.00000000000E+00  0.00000000000E+00  0.40509318956E+02  0.10187997643E+03  0.93480076357E+02 0.  0.
        -11    1    3    3    0    0 -0.25126580450E+02 -0.17054890812E+02  0.58977852773E+02  0.66337029354E+02  0.00000000000E+00 0. -1.
         11    1    3    3    0    0  0.25126580450E+02  0.17054890812E+02 -0.18468533818E+02  0.35542947079E+02  0.00000000000E+00 0.  1.
<mgrwt>
<rscale>  0 0.93480076E+02</rscale>
<asrwt>0</asrwt>
<pdfrwt beam="1">  1        3 0.10953023E-01 0.93480076E+02</pdfrwt>
<pdfrwt beam="2">  1       -3 0.47208198E-02 0.93480076E+02</pdfrwt>
<totfact> 0.32258919E+04</totfact>
</mgrwt>
</event>
<event>
 5    1  0.1242969E+001  0.9206892E+02  0.7546771E-02  0.1297917E+00
          2   -1    0    0  501    0  0.00000000000E+00  0.00000000000E+00  0.39880930579E+03  0.39880930579E+03  0.00000000000E+00 0. -1.
         -2   -1    0    0    0  501 -0.00000000000E+00 -0.00000000000E+00 -0.53137460849E+01  0.53137460849E+01  0.00000000000E+00 0.  1.
         23    2    1    2    0    0  0.00000000000E+00  0.00000000000E+00  0.39349555970E+03  0.40412305187E+03  0.92068917388E+02 0.  0.
        -11    1    3    3    0    0  0.29190751555E+02 -0.34589029131E+02  0.23364720426E+03  0.23799058168E+03  0.00000000000E+00 0. -1.
         11    1    3    3    0    0 -0.29190751555E+02  0.34589029131E+02  0.15984835545E+03  0.16613247019E+03  0.00000000000E+00 0.  1.
<mgrwt>
<rscale>  0 0.92068917E+02</rscale>
<asrwt>0</asrwt>
<pdfrwt beam="1">  1        2 0.61355254E-01 0.92068917E+02</pdfrwt>
<pdfrwt beam="2">  1       -2 0.81749971E-03 0.92068917E+02</pdfrwt>
<totfact> 0.19431811E+05</totfact>
</mgrwt>
</event>
<event>
 5    1  0.1242969E+001  0.9108971E+02  0.7546771E-02  0.1300234E+00
         -1   -1    0    0    0  501 -0.00000000000E+00  0.00000000000E+00  0.16050418870E+03  0.16050418870E+03  0.00000000000E+00 0.  1.
          1   -1    0    0  501    0  0.00000000000E+00 -0.00000000000E+00 -0.12923861776E+02  0.12923861776E+02  0.00000000000E+00 0. -1.
         23    2    1    2    0    0  0.00000000000E+00  0.00000000000E+00  0.14758032692E+03  0.17342805048E+03  0.91089712905E+02 0.  0.
        -13    1    3    3    0    0 -0.98980696379E+01  0.25033325854E+02  0.14373695374E+03  0.14623594310E+03  0.00000000000E+00 0.  1.
         13    1    3    3    0    0  0.98980696379E+01 -0.25033325854E+02  0.38433731855E+01  0.27192107372E+02  0.00000000000E+00 0. -1.
<mgrwt>
<rscale>  0 0.91089713E+02</rscale>
<asrwt>0</asrwt>
<pdfrwt beam="2">  1        1 0.19882865E-02 0.91089713E+02</pdfrwt>
<pdfrwt beam="1">  1       -1 0.24692951E-01 0.91089713E+02</pdfrwt>
<totfact> 0.73769757E+04</totfact>
</mgrwt>
</event>
<event>
 5    1  0.1242969E+001  0.9135182E+02  0.7546771E-02  0.1299611E+00
          2   -1    0    0  501    0  0.00000000000E+00  0.00000000000E+00  0.51481707340E+02  0.51481707340E+02  0.00000000000E+00 0. -1.
         -2   -1    0    0    0  501 -0.00000000000E+00 -0.00000000000E+00 -0.40524852933E+02  0.40524852933E+02  0.00000000000E+00 0.  1.
         23    2    1    2    0    0  0.00000000000E+00  0.00000000000E+00  0.10956854407E+02  0.92006560273E+02  0.91351817031E+02 0.  0.
        -13    1    3    3    0    0 -0.27526774749E+02  0.19972095759E+02  0.36187627553E+02  0.49660369763E+02  0.00000000000E+00 0. -1.
         13    1    3    3    0    0  0.27526774749E+02 -0.19972095759E+02 -0.25230773147E+02  0.42346190510E+02  0.00000000000E+00 0.  1.
<mgrwt>
<rscale>  0 0.91351817E+02</rscale>
<asrwt>0</asrwt>
<pdfrwt beam="1">  1        2 0.79202627E-02 0.91351817E+02</pdfrwt>
<pdfrwt beam="2">  1       -2 0.62345928E-02 0.91351817E+02</pdfrwt>
<totfact> 0.10129807E+05</totfact>
</mgrwt>
</event>
<event>
 5    1  0.1242969E+001  0.9996422E+02  0.7546771E-02  0.1280371E+00
         -3   -1    0    0    0  501 -0.00000000000E+00  0.00000000000E+00  0.49181077038E+02  0.49181077038E+02  0.00000000000E+00 0.  1.
          3   -1    0    0  501    0  0.00000000000E+00 -0.00000000000E+00 -0.50796188896E+02  0.50796188896E+02  0.00000000000E+00 0. -1.
         23    2    1    2    0    0  0.00000000000E+00  0.00000000000E+00 -0.16151118582E+01  0.99977265933E+02  0.99964219185E+02 0.  0.
        -13    1    3    3    0    0 -0.16413733141E+01  0.25414333532E+02 -0.43820480280E+02  0.50683497779E+02  0.00000000000E+00 0. -1.
         13    1    3    3    0    0  0.16413733141E+01 -0.25414333532E+02  0.42205368421E+02  0.49293768154E+02  0.00000000000E+00 0.  1.
<mgrwt>
<rscale>  0 0.99964219E+02</rscale>
<asrwt>0</asrwt>
<pdfrwt beam="2">  1        3 0.78147983E-02 0.99964219E+02</pdfrwt>
<pdfrwt beam="1">  1       -3 0.75663195E-02 0.99964219E+02</pdfrwt>
<totfact> 0.26946766E+04</totfact>
</mgrwt>
</event>
<event>
 5    1  0.1242969E+001  0.9171031E+02  0.7546771E-02  0.1298762E+00
         -1   -1    0    0    0  501 -0.00000000000E+00  0.00000000000E+00  0.18922551204E+02  0.18922551204E+02  0.00000000000E+00 0.  1.
          1   -1    0    0  501    0  0.00000000000E+00 -0.00000000000E+00 -0.11112112630E+03  0.11112112630E+03  0.00000000000E+00 0. -1.
         23    2    1    2    0    0  0.00000000000E+00  0.00000000000E+00 -0.92198575095E+02  0.13004367750E+03  0.91710309175E+02 0.  0.
        -11    1    3    3    0    0  0.43228530028E+02  0.14174877187E+02 -0.54252660185E+02  0.70802429964E+02  0.00000000000E+00 0.  1.
         11    1    3    3    0    0 -0.43228530028E+02 -0.14174877187E+02 -0.37945914910E+02  0.59241247539E+02  0.00000000000E+00 0. -1.
<mgrwt>
<rscale>  0 0.91710309E+02</rscale>
<asrwt>0</asrwt>
<pdfrwt beam="2">  1        1 0.17095558E-01 0.91710309E+02</pdfrwt>
<pdfrwt beam="1">  1       -1 0.29111617E-02 0.91710309E+02</pdfrwt>
<totfact> 0.10464859E+05</totfact>
</mgrwt>
</event>
<event>
 5    1  0.1242969E+001  0.9195984E+02  0.7546771E-02  0.1298174E+00
         -2   -1    0    0    0  501 -0.00000000000E+00  0.00000000000E+00  0.82303906951E+01  0.82303906951E+01  0.00000000000E+00 0.  1.
          2   -1    0    0  501    0  0.00000000000E+00 -0.00000000000E+00 -0.25687152294E+03  0.25687152294E+03  0.00000000000E+00 0. -1.
         23    2    1    2    0    0  0.00000000000E+00  0.00000000000E+00 -0.24864113225E+03  0.26510191364E+03  0.91959838892E+02 0.  0.
        -11    1    3    3    0    0  0.20125115411E+02  0.35141308156E+02 -0.61542904363E+02  0.73671303006E+02  0.00000000000E+00 0.  1.
         11    1    3    3    0    0 -0.20125115411E+02 -0.35141308156E+02 -0.18709822788E+03  0.19143061063E+03  0.00000000000E+00 0. -1.
<mgrwt>
<rscale>  0 0.91959839E+02</rscale>
<asrwt>0</asrwt>
<pdfrwt beam="2">  1        2 0.39518698E-01 0.91959839E+02</pdfrwt>
<pdfrwt beam="1">  1       -2 0.12662139E-02 0.91959839E+02</pdfrwt>
<totfact> 0.16571421E+05</totfact>
</mgrwt>
</event>
<event>
 5    1  0.1242969E+001  0.8916769E+02  0.7546771E-02  0.1304880E+00
         -1   -1    0    0    0  501 -0.00000000000E+00  0.00000000000E+00  0.71082945453E+02  0.71082945453E+02  0.00000000000E+00 0.  1.
          1   -1    0    0  501    0  0.00000000000E+00 -0.00000000000E+00 -0.27963378460E+02  0.27963378460E+02  0.00000000000E+00 0. -1.
         23    2    1    2    0    0  0.00000000000E+00  0.00000000000E+00  0.43119566993E+02  0.99046323913E+02  0.89167691588E+02 0.  0.
        -11    1    3    3    0    0 -0.25212637546E+02  0.29937840349E+02  0.45273669008E+02  0.59846942129E+02  0.00000000000E+00 0.  1.
         11    1    3    3    0    0  0.25212637546E+02 -0.29937840349E+02 -0.21541020142E+01  0.39199381784E+02  0.00000000000E+00 0. -1.
<mgrwt>
<rscale>  0 0.89167692E+02</rscale>
<asrwt>0</asrwt>
<pdfrwt beam="2">  1        1 0.43020582E-02 0.89167692E+02</pdfrwt>
<pdfrwt beam="1">  1       -1 0.10935838E-01 0.89167692E+02</pdfrwt>
<totfact> 0.91366767E+04</totfact>
</mgrwt>
</event>
<event>
 5    1  0.1242969E+001  0.9040598E+02  0.7546771E-02  0.1301872E+00
         -1   -1    0    0    0  501 -0.00000000000E+00  0.00000000000E+00  0.60969049872E+01  0.60969049872E+01  0.00000000000E+00 0.  1.
          1   -1    0    0  501    0  0.00000000000E+00 -0.00000000000E+00 -0.33513890993E+03  0.33513890993E+03  0.00000000000E+00 0. -1.
         23    2    1    2    0    0  0.00000000000E+00  0.00000000000E+00 -0.32904200495E+03  0.34123581492E+03  0.90405975276E+02 0.  0.
        -13    1    3    3    0    0 -0.48162662856E+01 -0.41435676883E+02 -0.23024453369E+03  0.23399285680E+03  0.00000000000E+00 0. -1.
         13    1    3    3    0    0  0.48162662856E+01  0.41435676883E+02 -0.98797471253E+02  0.10724295812E+03  0.00000000000E+00 0.  1.
<mgrwt>
<rscale>  0 0.90405975E+02</rscale>
<asrwt>0</asrwt>
<pdfrwt beam="2">  1        1 0.51559821E-01 0.90405975E+02</pdfrwt>
<pdfrwt beam="1">  1       -1 0.93798558E-03 0.90405975E+02</pdfrwt>
<totfact> 0.13378914E+05</totfact>
</mgrwt>
</event>
<event>
 5    1  0.1242969E+001  0.8748628E+02  0.7546771E-02  0.1309056E+00
         -1   -1    0    0    0  501 -0.00000000000E+00  0.00000000000E+00  0.12499785228E+02  0.12499785228E+02  0.00000000000E+00 0.  1.
          1   -1    0    0  501    0  0.00000000000E+00 -0.00000000000E+00 -0.15307960406E+03  0.15307960406E+03  0.00000000000E+00 0. -1.
         23    2    1    2    0    0  0.00000000000E+00  0.00000000000E+00 -0.14057981883E+03  0.16557938929E+03  0.87486277175E+02 0.  0.
        -13    1    3    3    0    0 -0.89149424699E+01 -0.38090717902E+02 -0.33246335148E+02  0.51339047423E+02  0.00000000000E+00 0.  1.
         13    1    3    3    0    0  0.89149424699E+01  0.38090717902E+02 -0.10733348368E+03  0.11424034186E+03  0.00000000000E+00 0. -1.
<mgrwt>
<rscale>  0 0.87486277E+02</rscale>
<asrwt>0</asrwt>
<pdfrwt beam="2">  1        1 0.23550710E-01 0.87486277E+02</pdfrwt>
<pdfrwt beam="1">  1       -1 0.19230438E-02 0.87486277E+02</pdfrwt>
<totfact> 0.12577460E+05</totfact>
</mgrwt>
</event>
<event>
 5    1  0.1242969E+001  0.9185913E+02  0.7546771E-02  0.1298411E+00
         -3   -1    0    0    0  501 -0.00000000000E+00  0.00000000000E+00  0.15330326278E+02  0.15330326278E+02  0.00000000000E+00 0.  1.
          3   -1    0    0  501    0  0.00000000000E+00 -0.00000000000E+00 -0.13760468684E+03  0.13760468684E+03  0.00000000000E+00 0. -1.
         23    2    1    2    0    0  0.00000000000E+00  0.00000000000E+00 -0.12227436056E+03  0.15293501311E+03  0.91859125766E+02 0.  0.
        -13    1    3    3    0    0 -0.17760308441E+02 -0.35123434744E+02 -0.10055107765E+03  0.10797964364E+03  0.00000000000E+00 0. -1.
         13    1    3    3    0    0  0.17760308441E+02  0.35123434744E+02 -0.21723282904E+02  0.44955369471E+02  0.00000000000E+00 0.  1.
<mgrwt>
<rscale>  0 0.91859126E+02</rscale>
<asrwt>0</asrwt>
<pdfrwt beam="2">  1        3 0.21169950E-01 0.91859126E+02</pdfrwt>
<pdfrwt beam="1">  1       -3 0.23585119E-02 0.91859126E+02</pdfrwt>
<totfact> 0.30505170E+04</totfact>
</mgrwt>
</event>
<event>
 5    1  0.1242969E+001  0.9150757E+02  0.7546771E-02  0.1299241E+00
         -3   -1    0    0    0  501 -0.00000000000E+00  0.00000000000E+00  0.13486250164E+03  0.13486250164E+03  0.00000000000E+00 0.  1.
          3   -1    0    0  501    0  0.00000000000E+00 -0.00000000000E+00 -0.15522540923E+02  0.15522540923E+02  0.00000000000E+00 0. -1.
         23    2    1    2    0    0  0.00000000000E+00  0.00000000000E+00  0.11933996072E+03  0.15038504257E+03  0.91507566918E+02 0.  0.
        -11    1    3    3    0    0 -0.43512236011E+02  0.91032226189E+01  0.41876601939E+02  0.61072359826E+02  0.00000000000E+00 0. -1.
         11    1    3    3    0    0  0.43512236011E+02 -0.91032226189E+01  0.77463358781E+02  0.89312682741E+02  0.00000000000E+00 0.  1.
<mgrwt>
<rscale>  0 0.91507567E+02</rscale>
<asrwt>0</asrwt>
<pdfrwt beam="2">  1        3 0.23880833E-02 0.91507567E+02</pdfrwt>
<pdfrwt beam="1">  1       -3 0.20748076E-01 0.91507567E+02</pdfrwt>
<totfact> 0.30978750E+04</totfact>
</mgrwt>
</event>
<event>
 5    1  0.1242969E+001  0.9184297E+02  0.7546771E-02  0.1298449E+00
         -2   -1    0    0    0  501 -0.00000000000E+00  0.00000000000E+00  0.23716664333E+02  0.23716664333E+02  0.00000000000E+00 0.  1.
          2   -1    0    0  501    0  0.00000000000E+00 -0.00000000000E+00 -0.88915662043E+02  0.88915662043E+02  0.00000000000E+00 0. -1.
         23    2    1    2    0    0  0.00000000000E+00  0.00000000000E+00 -0.65198997710E+02  0.11263232638E+03  0.91842972745E+02 0.  0.
        -11    1    3    3    0    0 -0.32157136872E+02  0.32549654136E+02 -0.37384097181E+02  0.59085803356E+02  0.00000000000E+00 0.  1.
         11    1    3    3    0    0  0.32157136872E+02 -0.32549654136E+02 -0.27814900529E+02  0.53546523021E+02  0.00000000000E+00 0. -1.
<mgrwt>
<rscale>  0 0.91842973E+02</rscale>
<asrwt>0</asrwt>
<pdfrwt beam="2">  1        2 0.13679333E-01 0.91842973E+02</pdfrwt>
<pdfrwt beam="1">  1       -2 0.36487176E-02 0.91842973E+02</pdfrwt>
<totfact> 0.11606926E+05</totfact>
</mgrwt>
</event>
<event>
 5    1  0.1242969E+001  0.9028488E+02  0.7546771E-02  0.1302163E+00
          1   -1    0    0  501    0  0.00000000000E+00  0.00000000000E+00  0.52248674431E+02  0.52248674431E+02  0.00000000000E+00 0. -1.
         -1   -1    0    0    0  501 -0.00000000000E+00 -0.00000000000E+00 -0.39002707289E+02  0.39002707289E+02  0.00000000000E+00 0.  1.
         23    2    1    2    0    0  0.00000000000E+00  0.00000000000E+00  0.13245967142E+02  0.91251381720E+02  0.90284877030E+02 0.  0.
        -13    1    3    3    0    0  0.11010911759E+01  0.26482158824E+02 -0.30310267714E+02  0.40264493871E+02  0.00000000000E+00 0.  1.
         13    1    3    3    0    0 -0.11010911759E+01 -0.26482158824E+02  0.43556234856E+02  0.50986887850E+02  0.00000000000E+00 0. -1.
<mgrwt>
<rscale>  0 0.90284877E+02</rscale>
<asrwt>0</asrwt>
<pdfrwt beam="1">  1        1 0.80382576E-02 0.90284877E+02</pdfrwt>
<pdfrwt beam="2">  1       -1 0.60004165E-02 0.90284877E+02</pdfrwt>
<totfact> 0.97005436E+04</totfact>
</mgrwt>
</event>
<event>
 5    1  0.1242969E+001  0.8893517E+02  0.7546771E-02  0.1305451E+00
         -2   -1    0    0    0  501 -0.00000000000E+00  0.00000000000E+00  0.24587660379E+02  0.24587660379E+02  0.00000000000E+00 0.  1.
          2   -1    0    0  501    0  0.00000000000E+00 -0.00000000000E+00 -0.80421083078E+02  0.80421083078E+02  0.00000000000E+00 0. -1.
         23    2    1    2    0    0  0.00000000000E+00  0.00000000000E+00 -0.55833422699E+02  0.10500874346E+03  0.88935173651E+02 0.  0.
        -13    1    3    3    0    0  0.16216297430E+02 -0.31163662338E+02  0.42726087486E+01  0.35389226301E+02  0.00000000000E+00 0.  1.
         13    1    3    3    0    0 -0.16216297430E+02  0.31163662338E+02 -0.60106031448E+02  0.69619517156E+02  0.00000000000E+00 0. -1.
<mgrwt>
<rscale>  0 0.88935174E+02</rscale>
<asrwt>0</asrwt>
<pdfrwt beam="2">  1        2 0.12372474E-01 0.88935174E+02</pdfrwt>
<pdfrwt beam="1">  1       -2 0.37827170E-02 0.88935174E+02</pdfrwt>
<totfact> 0.12324256E+05</totfact>
</mgrwt>
</event>
<event>
 5    1  0.1242969E+001  0.9226126E+02  0.7546771E-02  0.1297466E+00
          3   -1    0    0  501    0  0.00000000000E+00  0.00000000000E+00  0.19808491559E+03  0.19808491559E+03  0.00000000000E+00 0. -1.
         -3   -1    0    0    0  501 -0.00000000000E+00 -0.00000000000E+00 -0.10743043258E+02  0.10743043258E+02  0.00000000000E+00 0.  1.
         23    2    1    2    0    0  0.00000000000E+00  0.00000000000E+00  0.18734187233E+03  0.20882795885E+03  0.92261255509E+02 0.  0.
        -11    1    3    3    0    0 -0.46045674352E+02 -0.23219674630E+01  0.97205934485E+02  0.10758526553E+03  0.00000000000E+00 0.  1.
         11    1    3    3    0    0  0.46045674352E+02  0.23219674630E+01  0.90135937847E+02  0.10124269332E+03  0.00000000000E+00 0. -1.
<mgrwt>
<rscale>  0 0.92261256E+02</rscale>
<asrwt>0</asrwt>
<pdfrwt beam="1">  1        3 0.30474600E-01 0.92261256E+02</pdfrwt>
<pdfrwt beam="2">  1       -3 0.16527760E-02 0.92261256E+02</pdfrwt>
<totfact> 0.27166534E+04</totfact>
</mgrwt>
</event>
<event>
 5    1  0.1242969E+001  0.8418828E+02  0.7546771E-02  0.1317569E+00
         -1   -1    0    0    0  501 -0.00000000000E+00  0.00000000000E+00  0.32947922112E+02  0.32947922112E+02  0.00000000000E+00 0.  1.
          1   -1    0    0  501    0  0.00000000000E+00 -0.00000000000E+00 -0.53779317255E+02  0.53779317255E+02  0.00000000000E+00 0. -1.
         23    2    1    2    0    0  0.00000000000E+00  0.00000000000E+00 -0.20831395143E+02  0.86727239367E+02  0.84188283179E+02 0.  0.
        -13    1    3    3    0    0  0.41035696397E+02 -0.11491338246E+01 -0.20006013806E+02  0.45667159707E+02  0.00000000000E+00 0. -1.
         13    1    3    3    0    0 -0.41035696397E+02  0.11491338246E+01 -0.82538133722E+00  0.41060079660E+02  0.00000000000E+00 0.  1.
<mgrwt>
<rscale>  0 0.84188283E+02</rscale>
<asrwt>0</asrwt>
<pdfrwt beam="2">  1        1 0.82737411E-02 0.84188283E+02</pdfrwt>
<pdfrwt beam="1">  1       -1 0.50689111E-02 0.84188283E+02</pdfrwt>
<totfact> 0.11819956E+05</totfact>
</mgrwt>
</event>
<event>
 5    1  0.1242969E+001  0.9165359E+02  0.7546771E-02  0.1298896E+00
          1   -1    0    0  501    0  0.00000000000E+00  0.00000000000E+00  0.14722540358E+02  0.14722540358E+02  0.00000000000E+00 0. -1.
         -1   -1    0    0    0  501 -0.00000000000E+00 -0.00000000000E+00 -0.14264489191E+03  0.14264489191E+03  0.00000000000E+00 0.  1.
         23    2    1    2    0    0  0.00000000000E+00  0.00000000000E+00 -0.12792235155E+03  0.15736743226E+03  0.91653590828E+02 0.  0.
        -11    1    3    3    0    0  0.17085415942E+01 -0.35661679117E+02 -0.14632091481E+02  0.38584615754E+02  0.00000000000E+00 0. -1.
         11    1    3    3    0    0 -0.17085415942E+01  0.35661679117E+02 -0.11329026007E+03  0.11878281651E+03  0.00000000000E+00 0.  1.
<mgrwt>
<rscale>  0 0.91653591E+02</rscale>
<asrwt>0</asrwt>
<pdfrwt beam="1">  1        1 0.22650062E-02 0.91653591E+02</pdfrwt>
<pdfrwt beam="2">  1       -1 0.21945368E-01 0.91653591E+02</pdfrwt>
<totfact> 0.74642545E+04</totfact>
</mgrwt>
</event>
<event>
 5    1  0.1242969E+001  0.9478170E+02  0.7546771E-02  0.1291669E+00
         -1   -1    0    0    0  501 -0.00000000000E+00  0.00000000000E+00  0.25267898185E+02  0.25267898185E+02  0.00000000000E+00 0.  1.
          1   -1    0    0  501    0  0.00000000000E+00 -0.00000000000E+00 -0.88883237129E+02  0.88883237129E+02  0.00000000000E+00 0. -1.
         23    2    1    2    0    0  0.00000000000E+00  0.00000000000E+00 -0.63615338944E+02  0.11415113531E+03  0.94781698363E+02 0.  0.
        -13    1    3    3    0    0  0.46056350622E+02 -0.25162817665E+01 -0.44911038005E+02  0.64377949961E+02  0.00000000000E+00 0.  1.
         13    1    3    3    0    0 -0.46056350622E+02  0.25162817665E+01 -0.18704300940E+02  0.49773185353E+02  0.00000000000E+00 0. -1.
<mgrwt>
<rscale>  0 0.94781698E+02</rscale>
<asrwt>0</asrwt>
<pdfrwt beam="2">  1        1 0.13674344E-01 0.94781698E+02</pdfrwt>
<pdfrwt beam="1">  1       -1 0.38873690E-02 0.94781698E+02</pdfrwt>
<totfact> 0.92108105E+04</totfact>
</mgrwt>
</event>
<event>
 5    1  0.1242969E+001  0.8010194E+02  0.7546771E-02  0.1328762E+00
         -2   -1    0    0    0  501 -0.00000000000E+00  0.00000000000E+00  0.62030129834E+02  0.62030129834E+02  0.00000000000E+00 0.  1.
          2   -1    0    0  501    0  0.00000000000E+00 -0.00000000000E+00 -0.25859694435E+02  0.25859694435E+02  0.00000000000E+00 0. -1.
         23    2    1    2    0    0  0.00000000000E+00  0.00000000000E+00  0.36170435399E+02  0.87889824270E+02  0.80101940134E+02 0.  0.
        -11    1    3    3    0    0 -0.68893749614E+01  0.80898357954E+01 -0.24284866318E+02  0.26507803806E+02  0.00000000000E+00 0. -1.
         11    1    3    3    0    0  0.68893749614E+01 -0.80898357954E+01  0.60455301716E+02  0.61382020463E+02  0.00000000000E+00 0.  1.
<mgrwt>
<rscale>  0 0.80101940E+02</rscale>
<asrwt>0</asrwt>
<pdfrwt beam="2">  1        2 0.39784146E-02 0.80101940E+02</pdfrwt>
<pdfrwt beam="1">  1       -2 0.95430968E-02 0.80101940E+02</pdfrwt>
<totfact> 0.12464695E+05</totfact>
</mgrwt>
</event>
<event>
 5    1  0.1242969E+001  0.9136674E+02  0.7546771E-02  0.1299575E+00
         -1   -1    0    0    0  501 -0.00000000000E+00  0.00000000000E+00  0.55474920792E+02  0.55474920792E+02  0.00000000000E+00 0.  1.
          1   -1    0    0  501    0  0.00000000000E+00 -0.00000000000E+00 -0.37620072110E+02  0.37620072110E+02  0.00000000000E+00 0. -1.
         23    2    1    2    0    0  0.00000000000E+00  0.00000000000E+00  0.17854848682E+02  0.93094992902E+02  0.91366744946E+02 0.  0.
        -13    1    3    3    0    0 -0.49731610414E+01  0.26687732830E+02  0.46364813518E+02  0.53727677661E+02  0.00000000000E+00 0.  1.
         13    1    3    3    0    0  0.49731610414E+01 -0.26687732830E+02 -0.28509964836E+02  0.39367315241E+02  0.00000000000E+00 0. -1.
<mgrwt>
<rscale>  0 0.91366745E+02</rscale>
<asrwt>0</asrwt>
<pdfrwt beam="2">  1        1 0.57877034E-02 0.91366745E+02</pdfrwt>
<pdfrwt beam="1">  1       -1 0.85346032E-02 0.91366745E+02</pdfrwt>
<totfact> 0.89290217E+04</totfact>
</mgrwt>
</event>
<event>
 5    1  0.1242969E+001  0.9374242E+02  0.7546771E-02  0.1294034E+00
         -2   -1    0    0    0  501 -0.00000000000E+00  0.00000000000E+00  0.12031680755E+02  0.12031680755E+02  0.00000000000E+00 0.  1.
          2   -1    0    0  501    0  0.00000000000E+00 -0.00000000000E+00 -0.18259379883E+03  0.18259379883E+03  0.00000000000E+00 0. -1.
         23    2    1    2    0    0  0.00000000000E+00  0.00000000000E+00 -0.17056211808E+03  0.19462547959E+03  0.93742419330E+02 0.  0.
        -11    1    3    3    0    0  0.16503005729E+02 -0.36088964029E+02 -0.33495303917E+02  0.51929740104E+02  0.00000000000E+00 0.  1.
         11    1    3    3    0    0 -0.16503005729E+02  0.36088964029E+02 -0.13706681416E+03  0.14269573949E+03  0.00000000000E+00 0. -1.
<mgrwt>
<rscale>  0 0.93742419E+02</rscale>
<asrwt>0</asrwt>
<pdfrwt beam="2">  1        2 0.28091352E-01 0.93742419E+02</pdfrwt>
<pdfrwt beam="1">  1       -2 0.18510279E-02 0.93742419E+02</pdfrwt>
<totfact> 0.13887887E+05</totfact>
</mgrwt>
</event>
<event>
 5    1  0.1242969E+001  0.9021204E+02  0.7546771E-02  0.1302339E+00
         -1   -1    0    0    0  501 -0.00000000000E+00  0.00000000000E+00  0.14622817481E+02  0.14622817481E+02  0.00000000000E+00 0.  1.
          1   -1    0    0  501    0  0.00000000000E+00 -0.00000000000E+00 -0.13913548719E+03  0.13913548719E+03  0.00000000000E+00 0. -1.
         23    2    1    2    0    0  0.00000000000E+00  0.00000000000E+00 -0.12451266971E+03  0.15375830467E+03  0.90212035436E+02 0.  0.
        -13    1    3    3    0    0 -0.40887849637E+02  0.66324290548E+01 -0.31826648640E+02  0.52237351835E+02  0.00000000000E+00 0.  1.
         13    1    3    3    0    0  0.40887849637E+02 -0.66324290548E+01 -0.92686021071E+02  0.10152095284E+03  0.00000000000E+00 0. -1.
<mgrwt>
<rscale>  0 0.90212035E+02</rscale>
<asrwt>0</asrwt>
<pdfrwt beam="2">  1        1 0.21405461E-01 0.90212035E+02</pdfrwt>
<pdfrwt beam="1">  1       -1 0.22496641E-02 0.90212035E+02</pdfrwt>
<totfact> 0.11382776E+05</totfact>
</mgrwt>
</event>
<event>
 5    1  0.1242969E+001  0.9176100E+02  0.7546771E-02  0.1298642E+00
         -1   -1    0    0    0  501 -0.00000000000E+00  0.00000000000E+00  0.13148626585E+03  0.13148626585E+03  0.00000000000E+00 0.  1.
          1   -1    0    0  501    0  0.00000000000E+00 -0.00000000000E+00 -0.16009430764E+02  0.16009430764E+02  0.00000000000E+00 0. -1.
         23    2    1    2    0    0  0.00000000000E+00  0.00000000000E+00  0.11547683509E+03  0.14749569662E+03  0.91760999769E+02 0.  0.
        -13    1    3    3    0    0  0.14603338380E+02  0.26105562776E+02  0.11365762117E+03  0.11752792328E+03  0.00000000000E+00 0.  1.
         13    1    3    3    0    0 -0.14603338380E+02 -0.26105562776E+02  0.18192139193E+01  0.29967773341E+02  0.00000000000E+00 0. -1.
<mgrwt>
<rscale>  0 0.91761000E+02</rscale>
<asrwt>0</asrwt>
<pdfrwt beam="2">  1        1 0.24629894E-02 0.91761000E+02</pdfrwt>
<pdfrwt beam="1">  1       -1 0.20228656E-01 0.91761000E+02</pdfrwt>
<totfact> 0.75771118E+04</totfact>
</mgrwt>
</event>
<event>
 5    1  0.1242969E+001  0.9314949E+02  0.7546771E-02  0.1295399E+00
          3   -1    0    0  501    0  0.00000000000E+00  0.00000000000E+00  0.11965197951E+03  0.11965197951E+03  0.00000000000E+00 0. -1.
         -3   -1    0    0    0  501 -0.00000000000E+00 -0.00000000000E+00 -0.18129300098E+02  0.18129300098E+02  0.00000000000E+00 0.  1.
         23    2    1    2    0    0  0.00000000000E+00  0.00000000000E+00  0.10152267941E+03  0.13778127961E+03  0.93149485104E+02 0.  0.
        -11    1    3    3    0    0  0.11329434086E+02  0.40426796764E+02  0.80584468798E+02  0.90865497219E+02  0.00000000000E+00 0. -1.
         11    1    3    3    0    0 -0.11329434086E+02 -0.40426796764E+02  0.20938210611E+02  0.46915782387E+02  0.00000000000E+00 0.  1.
<mgrwt>
<rscale>  0 0.93149485E+02</rscale>
<asrwt>0</asrwt>
<pdfrwt beam="1">  1        3 0.18407996E-01 0.93149485E+02</pdfrwt>
<pdfrwt beam="2">  1       -3 0.27891232E-02 0.93149485E+02</pdfrwt>
<totfact> 0.30258575E+04</totfact>
</mgrwt>
</event>
<event>
 5    1  0.1242969E+001  0.9531801E+02  0.7546771E-02  0.1290461E+00
          1   -1    0    0  501    0  0.00000000000E+00  0.00000000000E+00  0.11621338551E+02  0.11621338551E+02  0.00000000000E+00 0. -1.
         -1   -1    0    0    0  501 -0.00000000000E+00 -0.00000000000E+00 -0.19544913372E+03  0.19544913372E+03  0.00000000000E+00 0.  1.
         23    2    1    2    0    0  0.00000000000E+00  0.00000000000E+00 -0.18382779516E+03  0.20707047227E+03  0.95318005696E+02 0.  0.
        -13    1    3    3    0    0  0.39113726309E+02 -0.25381358314E+01 -0.15081224312E+03  0.15582252211E+03  0.00000000000E+00 0.  1.
         13    1    3    3    0    0 -0.39113726309E+02  0.25381358314E+01 -0.33015552041E+02  0.51247950162E+02  0.00000000000E+00 0. -1.
<mgrwt>
<rscale>  0 0.95318006E+02</rscale>
<asrwt>0</asrwt>
<pdfrwt beam="1">  1        1 0.17878984E-02 0.95318006E+02</pdfrwt>
<pdfrwt beam="2">  1       -1 0.30069095E-01 0.95318006E+02</pdfrwt>
<totfact> 0.62230493E+04</totfact>
</mgrwt>
</event>
<event>
 5    1  0.1242969E+001  0.9450893E+02  0.7546771E-02  0.1292286E+00
         -1   -1    0    0    0  501 -0.00000000000E+00  0.00000000000E+00  0.14433887567E+03  0.14433887567E+03  0.00000000000E+00 0.  1.
          1   -1    0    0  501    0  0.00000000000E+00 -0.00000000000E+00 -0.15470430227E+02  0.15470430227E+02  0.00000000000E+00 0. -1.
         23    2    1    2    0    0  0.00000000000E+00  0.00000000000E+00  0.12886844544E+03  0.15980930590E+03  0.94508930904E+02 0.  0.
        -11    1    3    3    0    0 -0.33251351638E+02 -0.33110597853E+02  0.73852101929E+02  0.87499125912E+02  0.00000000000E+00 0.  1.
         11    1    3    3    0    0  0.33251351638E+02  0.33110597853E+02  0.55016343513E+02  0.72310179985E+02  0.00000000000E+00 0. -1.
<mgrwt>
<rscale>  0 0.94508931E+02</rscale>
<asrwt>0</asrwt>
<pdfrwt beam="2">  1        1 0.23800663E-02 0.94508931E+02</pdfrwt>
<pdfrwt beam="1">  1       -1 0.22205980E-01 0.94508931E+02</pdfrwt>
<totfact> 0.68738029E+04</totfact>
</mgrwt>
</event>
<event>
 5    1  0.1242969E+001  0.9122808E+02  0.7546771E-02  0.1299905E+00
         -2   -1    0    0    0  501 -0.00000000000E+00  0.00000000000E+00  0.53957347110E+02  0.53957347110E+02  0.00000000000E+00 0.  1.
          2   -1    0    0  501    0  0.00000000000E+00 -0.00000000000E+00 -0.38560842400E+02  0.38560842400E+02  0.00000000000E+00 0. -1.
         23    2    1    2    0    0  0.00000000000E+00  0.00000000000E+00  0.15396504710E+02  0.92518189511E+02  0.91228082481E+02 0.  0.
        -13    1    3    3    0    0  0.29117678709E+02 -0.10899176617E+02 -0.26150528018E+02  0.40626116968E+02  0.00000000000E+00 0. -1.
         13    1    3    3    0    0 -0.29117678709E+02  0.10899176617E+02  0.41547032727E+02  0.51892072543E+02  0.00000000000E+00 0.  1.
<mgrwt>
<rscale>  0 0.91228082E+02</rscale>
<asrwt>0</asrwt>
<pdfrwt beam="2">  1        2 0.59324373E-02 0.91228082E+02</pdfrwt>
<pdfrwt beam="1">  1       -2 0.83011303E-02 0.91228082E+02</pdfrwt>
<totfact> 0.94333354E+04</totfact>
</mgrwt>
</event>
<event>
 5    1  0.1242969E+001  0.9415157E+02  0.7546771E-02  0.1293098E+00
         -1   -1    0    0    0  501 -0.00000000000E+00  0.00000000000E+00  0.38443539462E+02  0.38443539462E+02  0.00000000000E+00 0.  1.
          1   -1    0    0  501    0  0.00000000000E+00 -0.00000000000E+00 -0.57646341852E+02  0.57646341852E+02  0.00000000000E+00 0. -1.
         23    2    1    2    0    0  0.00000000000E+00  0.00000000000E+00 -0.19202802391E+02  0.96089881314E+02  0.94151567545E+02 0.  0.
        -13    1    3    3    0    0 -0.42326529623E+02  0.20179653120E+02 -0.53471429053E+01  0.47194760803E+02  0.00000000000E+00 0.  1.
         13    1    3    3    0    0  0.42326529623E+02 -0.20179653120E+02 -0.13855659485E+02  0.48895120511E+02  0.00000000000E+00 0. -1.
<mgrwt>
<rscale>  0 0.94151568E+02</rscale>
<asrwt>0</asrwt>
<pdfrwt beam="2">  1        1 0.88686679E-02 0.94151568E+02</pdfrwt>
<pdfrwt beam="1">  1       -1 0.59143907E-02 0.94151568E+02</pdfrwt>
<totfact> 0.87590237E+04</totfact>
</mgrwt>
</event>
<event>
 5    1  0.1242969E+001  0.9211795E+02  0.7546771E-02  0.1297802E+00
         -2   -1    0    0    0  501 -0.00000000000E+00  0.00000000000E+00  0.33032999877E+02  0.33032999877E+02  0.00000000000E+00 0. -1.
          2   -1    0    0  501    0  0.00000000000E+00 -0.00000000000E+00 -0.64221515219E+02  0.64221515219E+02  0.00000000000E+00 0.  1.
         23    2    1    2    0    0  0.00000000000E+00  0.00000000000E+00 -0.31188515342E+02  0.97254515096E+02  0.92117952742E+02 0.  0.
        -11    1    3    3    0    0  0.66112390497E+01 -0.18655927692E+02  0.28314183967E+02  0.34546275248E+02  0.00000000000E+00 0. -1.
         11    1    3    3    0    0 -0.66112390497E+01  0.18655927692E+02 -0.59502699309E+02  0.62708239848E+02  0.00000000000E+00 0.  1.
<mgrwt>
<rscale>  0 0.92117953E+02</rscale>
<asrwt>0</asrwt>
<pdfrwt beam="2">  1        2 0.98802330E-02 0.92117953E+02</pdfrwt>
<pdfrwt beam="1">  1       -2 0.50820000E-02 0.92117953E+02</pdfrwt>
<totfact> 0.10495624E+05</totfact>
</mgrwt>
</event>
<event>
 5    1  0.1242969E+001  0.8705351E+02  0.7546771E-02  0.1310148E+00
          2   -1    0    0  501    0  0.00000000000E+00  0.00000000000E+00  0.33812296766E+02  0.33812296766E+02  0.00000000000E+00 0. -1.
         -2   -1    0    0    0  501 -0.00000000000E+00 -0.00000000000E+00 -0.56032232789E+02  0.56032232789E+02  0.00000000000E+00 0.  1.
         23    2    1    2    0    0  0.00000000000E+00  0.00000000000E+00 -0.22219936023E+02  0.89844529555E+02  0.87053511900E+02 0.  0.
        -13    1    3    3    0    0 -0.49707937946E+01  0.25841829084E+02  0.24672487760E+02  0.36072712313E+02  0.00000000000E+00 0. -1.
         13    1    3    3    0    0  0.49707937946E+01 -0.25841829084E+02 -0.46892423782E+02  0.53771817242E+02  0.00000000000E+00 0.  1.
<mgrwt>
<rscale>  0 0.87053512E+02</rscale>
<asrwt>0</asrwt>
<pdfrwt beam="1">  1        2 0.52018919E-02 0.87053512E+02</pdfrwt>
<pdfrwt beam="2">  1       -2 0.86203434E-02 0.87053512E+02</pdfrwt>
<totfact> 0.10451142E+05</totfact>
</mgrwt>
</event>
<event>
 5    1  0.1242969E+001  0.9141309E+02  0.7546771E-02  0.1299465E+00
         -2   -1    0    0    0  501 -0.00000000000E+00  0.00000000000E+00  0.94307552826E+01  0.94307552826E+01  0.00000000000E+00 0.  1.
          2   -1    0    0  501    0  0.00000000000E+00 -0.00000000000E+00 -0.22151864920E+03  0.22151864920E+03  0.00000000000E+00 0. -1.
         23    2    1    2    0    0  0.00000000000E+00  0.00000000000E+00 -0.21208789391E+03  0.23094940448E+03  0.91413088146E+02 0.  0.
        -11    1    3    3    0    0 -0.43177181614E+02 -0.10976601615E+02 -0.13184991150E+03  0.13917310788E+03  0.00000000000E+00 0.  1.
         11    1    3    3    0    0  0.43177181614E+02  0.10976601615E+02 -0.80237982416E+02  0.91776296598E+02  0.00000000000E+00 0. -1.
<mgrwt>
<rscale>  0 0.91413088E+02</rscale>
<asrwt>0</asrwt>
<pdfrwt beam="2">  1        2 0.34079793E-01 0.91413088E+02</pdfrwt>
<pdfrwt beam="1">  1       -2 0.14508854E-02 0.91413088E+02</pdfrwt>
<totfact> 0.15943140E+05</totfact>
</mgrwt>
</event>
<event>
 5    1  0.1242969E+001  0.9242101E+02  0.7546771E-02  0.1297093E+00
         -2   -1    0    0    0  501 -0.00000000000E+00  0.00000000000E+00  0.15088047771E+02  0.15088047771E+02  0.00000000000E+00 0.  1.
          2   -1    0    0  501    0  0.00000000000E+00 -0.00000000000E+00 -0.14152996007E+03  0.14152996007E+03  0.00000000000E+00 0. -1.
         23    2    1    2    0    0  0.00000000000E+00  0.00000000000E+00 -0.12644191230E+03  0.15661800784E+03  0.92421010569E+02 0.  0.
        -13    1    3    3    0    0 -0.31491970576E+02 -0.33625298912E+02 -0.69332353690E+02  0.83242898832E+02  0.00000000000E+00 0.  1.
         13    1    3    3    0    0  0.31491970576E+02  0.33625298912E+02 -0.57109558612E+02  0.73375109012E+02  0.00000000000E+00 0. -1.
<mgrwt>
<rscale>  0 0.92421011E+02</rscale>
<asrwt>0</asrwt>
<pdfrwt beam="2">  1        2 0.21773841E-01 0.92421011E+02</pdfrwt>
<pdfrwt beam="1">  1       -2 0.23212380E-02 0.92421011E+02</pdfrwt>
<totfact> 0.13212286E+05</totfact>
</mgrwt>
</event>
<event>
 5    1  0.1242969E+001  0.9315982E+02  0.7546771E-02  0.1295375E+00
         -2   -1    0    0    0  501 -0.00000000000E+00  0.00000000000E+00  0.11297330762E+03  0.11297330762E+03  0.00000000000E+00 0.  1.
          2   -1    0    0  501    0  0.00000000000E+00 -0.00000000000E+00 -0.19205315234E+02  0.19205315234E+02  0.00000000000E+00 0. -1.
         23    2    1    2    0    0  0.00000000000E+00  0.00000000000E+00  0.93767992387E+02  0.13217862285E+03  0.93159819362E+02 0.  0.
        -11    1    3    3    0    0 -0.12650670932E+02 -0.14593290634E+02  0.10702469651E+03  0.10875334141E+03  0.00000000000E+00 0.  1.
         11    1    3    3    0    0  0.12650670932E+02  0.14593290634E+02 -0.13256704118E+02  0.23425281442E+02  0.00000000000E+00 0. -1.
<mgrwt>
<rscale>  0 0.93159819E+02</rscale>
<asrwt>0</asrwt>
<pdfrwt beam="2">  1        2 0.29546639E-02 0.93159819E+02</pdfrwt>
<pdfrwt beam="1">  1       -2 0.17380509E-01 0.93159819E+02</pdfrwt>
<totfact> 0.72847549E+04</totfact>
</mgrwt>
</event>
<event>
 5    1  0.1242969E+001  0.8763059E+02  0.7546771E-02  0.1308693E+00
          1   -1    0    0  501    0  0.00000000000E+00  0.00000000000E+00  0.13046403653E+03  0.13046403653E+03  0.00000000000E+00 0. -1.
         -1   -1    0    0    0  501 -0.00000000000E+00 -0.00000000000E+00 -0.14715013465E+02  0.14715013465E+02  0.00000000000E+00 0.  1.
         23    2    1    2    0    0  0.00000000000E+00  0.00000000000E+00  0.11574902306E+03  0.14517904999E+03  0.87630589506E+02 0.  0.
        -11    1    3    3    0    0 -0.29266253828E+02  0.19163149504E+02  0.10158295698E+03  0.10743759612E+03  0.00000000000E+00 0.  1.
         11    1    3    3    0    0  0.29266253828E+02 -0.19163149504E+02  0.14166066084E+02  0.37741453871E+02  0.00000000000E+00 0. -1.
<mgrwt>
<rscale>  0 0.87630590E+02</rscale>
<asrwt>0</asrwt>
<pdfrwt beam="1">  1        1 0.20071389E-01 0.87630590E+02</pdfrwt>
<pdfrwt beam="2">  1       -1 0.22638483E-02 0.87630590E+02</pdfrwt>
<totfact> 0.12168820E+05</totfact>
</mgrwt>
</event>
<event>
 5    1  0.1242969E+001  0.9154954E+02  0.7546771E-02  0.1299142E+00
          1   -1    0    0  501    0  0.00000000000E+00  0.00000000000E+00  0.11097358764E+02  0.11097358764E+02  0.00000000000E+00 0. -1.
         -1   -1    0    0    0  501 -0.00000000000E+00 -0.00000000000E+00 -0.18881334881E+03  0.18881334881E+03  0.00000000000E+00 0.  1.
         23    2    1    2    0    0  0.00000000000E+00  0.00000000000E+00 -0.17771599004E+03  0.19991070757E+03  0.91549537870E+02 0.  0.
        -13    1    3    3    0    0 -0.18665124163E+02 -0.38516491600E+02 -0.12429902394E+03  0.13146160785E+03  0.00000000000E+00 0.  1.
         13    1    3    3    0    0  0.18665124163E+02  0.38516491600E+02 -0.53416966099E+02  0.68449099720E+02  0.00000000000E+00 0. -1.
<mgrwt>
<rscale>  0 0.91549538E+02</rscale>
<asrwt>0</asrwt>
<pdfrwt beam="1">  1        1 0.17072862E-02 0.91549538E+02</pdfrwt>
<pdfrwt beam="2">  1       -1 0.29048204E-01 0.91549538E+02</pdfrwt>
<totfact> 0.69807215E+04</totfact>
</mgrwt>
</event>
<event>
 5    1  0.1242969E+001  0.9027788E+02  0.7546771E-02  0.1302180E+00
         -1   -1    0    0    0  501 -0.00000000000E+00  0.00000000000E+00  0.25806585995E+02  0.25806585995E+02  0.00000000000E+00 0.  1.
          1   -1    0    0  501    0  0.00000000000E+00 -0.00000000000E+00 -0.78953635436E+02  0.78953635436E+02  0.00000000000E+00 0. -1.
         23    2    1    2    0    0  0.00000000000E+00  0.00000000000E+00 -0.53147049441E+02  0.10476022143E+03  0.90277877301E+02 0.  0.
        -11    1    3    3    0    0  0.13402338520E+02  0.42652085704E+02 -0.33792481167E+02  0.56042438171E+02  0.00000000000E+00 0.  1.
         11    1    3    3    0    0 -0.13402338520E+02 -0.42652085704E+02 -0.19354568274E+02  0.48717783260E+02  0.00000000000E+00 0. -1.
<mgrwt>
<rscale>  0 0.90277877E+02</rscale>
<asrwt>0</asrwt>
<pdfrwt beam="2">  1        1 0.12146713E-01 0.90277877E+02</pdfrwt>
<pdfrwt beam="1">  1       -1 0.39702441E-02 0.90277877E+02</pdfrwt>
<totfact> 0.10330444E+05</totfact>
</mgrwt>
</event>
<event>
 5    1  0.1242969E+001  0.9224756E+02  0.7546771E-02  0.1297498E+00
         -2   -1    0    0    0  501 -0.00000000000E+00  0.00000000000E+00  0.87665478112E+01  0.87665478112E+01  0.00000000000E+00 0.  1.
          2   -1    0    0  501    0  0.00000000000E+00 -0.00000000000E+00 -0.24267285531E+03  0.24267285531E+03  0.00000000000E+00 0. -1.
         23    2    1    2    0    0  0.00000000000E+00  0.00000000000E+00 -0.23390630750E+03  0.25143940312E+03  0.92247562321E+02 0.  0.
        -11    1    3    3    0    0  0.37060606119E+02 -0.26913423024E+00 -0.42115757386E+02  0.56100784124E+02  0.00000000000E+00 0.  1.
         11    1    3    3    0    0 -0.37060606119E+02  0.26913423024E+00 -0.19179055011E+03  0.19533861899E+03  0.00000000000E+00 0. -1.
<mgrwt>
<rscale>  0 0.92247562E+02</rscale>
<asrwt>0</asrwt>
<pdfrwt beam="2">  1        2 0.37334288E-01 0.92247562E+02</pdfrwt>
<pdfrwt beam="1">  1       -2 0.13486996E-02 0.92247562E+02</pdfrwt>
<totfact> 0.16090354E+05</totfact>
</mgrwt>
</event>
<event>
 5    1  0.1242969E+001  0.9293663E+02  0.7546771E-02  0.1295892E+00
         -2   -1    0    0    0  501 -0.00000000000E+00  0.00000000000E+00  0.91884083658E+02  0.91884083658E+02  0.00000000000E+00 0. -1.
          2   -1    0    0  501    0  0.00000000000E+00 -0.00000000000E+00 -0.23500307947E+02  0.23500307947E+02  0.00000000000E+00 0.  1.
         23    2    1    2    0    0  0.00000000000E+00  0.00000000000E+00  0.68383775712E+02  0.11538439161E+03  0.92936629192E+02 0.  0.
        -11    1    3    3    0    0 -0.41289931206E+02  0.49173770860E+01  0.84388609617E+01  0.42429393005E+02  0.00000000000E+00 0.  1.
         11    1    3    3    0    0  0.41289931206E+02 -0.49173770860E+01  0.59944914750E+02  0.72954998600E+02  0.00000000000E+00 0. -1.
<mgrwt>
<rscale>  0 0.92936629E+02</rscale>
<asrwt>0</asrwt>
<pdfrwt beam="2">  1        2 0.36154321E-02 0.92936629E+02</pdfrwt>
<pdfrwt beam="1">  1       -2 0.14136013E-01 0.92936629E+02</pdfrwt>
<totfact> 0.78028007E+04</totfact>
</mgrwt>
</event>
<event>
 5    1  0.1242969E+001  0.9049426E+02  0.7546771E-02  0.1301659E+00
         -1   -1    0    0    0  501 -0.00000000000E+00  0.00000000000E+00  0.63523557953E+01  0.63523557953E+01  0.00000000000E+00 0.  1.
          1   -1    0    0  501    0  0.00000000000E+00 -0.00000000000E+00 -0.32229031685E+03  0.32229031685E+03  0.00000000000E+00 0. -1.
         23    2    1    2    0    0  0.00000000000E+00  0.00000000000E+00 -0.31593796105E+03  0.32864267264E+03  0.90494259752E+02 0.  0.
        -11    1    3    3    0    0 -0.37599675991E+02  0.24310337955E+02 -0.13427280876E+03  0.14154121427E+03  0.00000000000E+00 0.  1.
         11    1    3    3    0    0  0.37599675991E+02 -0.24310337955E+02 -0.18166515229E+03  0.18710145837E+03  0.00000000000E+00 0. -1.
<mgrwt>
<rscale>  0 0.90494260E+02</rscale>
<asrwt>0</asrwt>
<pdfrwt beam="2">  1        1 0.49583130E-01 0.90494260E+02</pdfrwt>
<pdfrwt beam="1">  1       -1 0.97728542E-03 0.90494260E+02</pdfrwt>
<totfact> 0.13248571E+05</totfact>
</mgrwt>
</event>
<event>
 5    1  0.1242969E+001  0.9117575E+02  0.7546771E-02  0.1300029E+00
         -2   -1    0    0    0  501 -0.00000000000E+00  0.00000000000E+00  0.11898366826E+02  0.11898366826E+02  0.00000000000E+00 0.  1.
          2   -1    0    0  501    0  0.00000000000E+00 -0.00000000000E+00 -0.17466720771E+03  0.17466720771E+03  0.00000000000E+00 0. -1.
         23    2    1    2    0    0  0.00000000000E+00  0.00000000000E+00 -0.16276884088E+03  0.18656557453E+03  0.91175753570E+02 0.  0.
        -11    1    3    3    0    0 -0.40961908396E+02 -0.88694352347E-01 -0.40441180231E+02  0.57561922002E+02  0.00000000000E+00 0.  1.
         11    1    3    3    0    0  0.40961908396E+02  0.88694352347E-01 -0.12232766065E+03  0.12900365253E+03  0.00000000000E+00 0. -1.
<mgrwt>
<rscale>  0 0.91175754E+02</rscale>
<asrwt>0</asrwt>
<pdfrwt beam="2">  1        2 0.26871878E-01 0.91175754E+02</pdfrwt>
<pdfrwt beam="1">  1       -2 0.18305180E-02 0.91175754E+02</pdfrwt>
<totfact> 0.14737613E+05</totfact>
</mgrwt>
</event>
<event>
 5    1  0.1242969E+001  0.9339195E+02  0.7546771E-02  0.1294839E+00
          1   -1    0    0  501    0  0.00000000000E+00  0.00000000000E+00  0.28108833039E+02  0.28108833039E+02  0.00000000000E+00 0. -1.
         -1   -1    0    0    0  501 -0.00000000000E+00 -0.00000000000E+00 -0.77573984757E+02  0.77573984757E+02  0.00000000000E+00 0.  1.
         23    2    1    2    0    0  0.00000000000E+00  0.00000000000E+00 -0.49465151718E+02  0.10568281780E+03  0.93391952238E+02 0.  0.
        -13    1    3    3    0    0  0.38386657055E+02 -0.34612272544E+01 -0.54564887790E+02  0.66804509680E+02  0.00000000000E+00 0.  1.
         13    1    3    3    0    0 -0.38386657055E+02  0.34612272544E+01  0.50997360721E+01  0.38878308116E+02  0.00000000000E+00 0. -1.
<mgrwt>
<rscale>  0 0.93391952E+02</rscale>
<asrwt>0</asrwt>
<pdfrwt beam="1">  1        1 0.43244359E-02 0.93391952E+02</pdfrwt>
<pdfrwt beam="2">  1       -1 0.11934459E-01 0.93391952E+02</pdfrwt>
<totfact> 0.80017375E+04</totfact>
</mgrwt>
</event>
<event>
 5    1  0.1242969E+001  0.9169466E+02  0.7546771E-02  0.1298799E+00
          1   -1    0    0  501    0  0.00000000000E+00  0.00000000000E+00  0.15850514416E+03  0.15850514416E+03  0.00000000000E+00 0. -1.
         -1   -1    0    0    0  501 -0.00000000000E+00 -0.00000000000E+00 -0.13261257416E+02  0.13261257416E+02  0.00000000000E+00 0.  1.
         23    2    1    2    0    0  0.00000000000E+00  0.00000000000E+00  0.14524388675E+03  0.17176640158E+03  0.91694656737E+02 0.  0.
        -13    1    3    3    0    0 -0.86360400681E+01 -0.30940653864E+02  0.13389940168E+03  0.13769878366E+03  0.00000000000E+00 0. -1.
         13    1    3    3    0    0  0.86360400681E+01  0.30940653864E+02  0.11344485065E+02  0.34067617923E+02  0.00000000000E+00 0.  1.
<mgrwt>
<rscale>  0 0.91694657E+02</rscale>
<asrwt>0</asrwt>
<pdfrwt beam="1">  1        1 0.24385405E-01 0.91694657E+02</pdfrwt>
<pdfrwt beam="2">  1       -1 0.20401936E-02 0.91694657E+02</pdfrwt>
<totfact> 0.11156459E+05</totfact>
</mgrwt>
</event>
<event>
 5    1  0.1242969E+001  0.9204724E+02  0.7546771E-02  0.1297968E+00
         -2   -1    0    0    0  501 -0.00000000000E+00  0.00000000000E+00  0.23901789959E+02  0.23901789959E+02  0.00000000000E+00 0.  1.
          2   -1    0    0  501    0  0.00000000000E+00 -0.00000000000E+00 -0.88619871504E+02  0.88619871504E+02  0.00000000000E+00 0. -1.
         23    2    1    2    0    0  0.00000000000E+00  0.00000000000E+00 -0.64718081545E+02  0.11252166146E+03  0.92047239065E+02 0.  0.
        -13    1    3    3    0    0 -0.21334287285E+02 -0.40778541880E+02 -0.32803615321E+02  0.56516532714E+02  0.00000000000E+00 0.  1.
         13    1    3    3    0    0  0.21334287285E+02  0.40778541880E+02 -0.31914466224E+02  0.56005128749E+02  0.00000000000E+00 0. -1.
<mgrwt>
<rscale>  0 0.92047239E+02</rscale>
<asrwt>0</asrwt>
<pdfrwt beam="2">  1        2 0.13633827E-01 0.92047239E+02</pdfrwt>
<pdfrwt beam="1">  1       -2 0.36771983E-02 0.92047239E+02</pdfrwt>
<totfact> 0.11524296E+05</totfact>
</mgrwt>
</event>
<event>
 5    1  0.1242969E+001  0.9215328E+02  0.7546771E-02  0.1297719E+00
         -1   -1    0    0    0  501 -0.00000000000E+00  0.00000000000E+00  0.12640653958E+03  0.12640653958E+03  0.00000000000E+00 0.  1.
          1   -1    0    0  501    0  0.00000000000E+00 -0.00000000000E+00 -0.16795466929E+02  0.16795466929E+02  0.00000000000E+00 0. -1.
         23    2    1    2    0    0  0.00000000000E+00  0.00000000000E+00  0.10961107265E+03  0.14320200651E+03  0.92153282201E+02 0.  0.
        -11    1    3    3    0    0 -0.20762500393E+02 -0.23967213544E+02  0.28572280658E+01  0.31838223880E+02  0.00000000000E+00 0. -1.
         11    1    3    3    0    0  0.20762500393E+02  0.23967213544E+02  0.10675384458E+03  0.11136378263E+03  0.00000000000E+00 0.  1.
<mgrwt>
<rscale>  0 0.92153282E+02</rscale>
<asrwt>0</asrwt>
<pdfrwt beam="2">  1        1 0.25839181E-02 0.92153282E+02</pdfrwt>
<pdfrwt beam="1">  1       -1 0.19447159E-01 0.92153282E+02</pdfrwt>
<totfact> 0.75571863E+04</totfact>
</mgrwt>
</event>
<event>
 5    1  0.1242969E+001  0.9073876E+02  0.7546771E-02  0.1301072E+00
          4   -1    0    0  501    0  0.00000000000E+00  0.00000000000E+00  0.26788010864E+03  0.26788010864E+03  0.00000000000E+00 0. -1.
         -4   -1    0    0    0  501 -0.00000000000E+00 -0.00000000000E+00 -0.76839628644E+01  0.76839628644E+01  0.00000000000E+00 0.  1.
         23    2    1    2    0    0  0.00000000000E+00  0.00000000000E+00  0.26019614578E+03  0.27556407151E+03  0.90738763644E+02 0.  0.
        -13    1    3    3    0    0  0.24328245931E+01 -0.37204170943E+02  0.20860704868E+03  0.21191264646E+03  0.00000000000E+00 0. -1.
         13    1    3    3    0    0 -0.24328245931E+01  0.37204170943E+02  0.51589097100E+02  0.63651425048E+02  0.00000000000E+00 0.  1.
<mgrwt>
<rscale>  0 0.90738764E+02</rscale>
<asrwt>0</asrwt>
<pdfrwt beam="1">  1        4 0.41212317E-01 0.90738764E+02</pdfrwt>
<pdfrwt beam="2">  1       -4 0.11821483E-02 0.90738764E+02</pdfrwt>
<totfact> 0.18832392E+04</totfact>
</mgrwt>
</event>
<event>
 5    1  0.1242969E+001  0.8996194E+02  0.7546771E-02  0.1302944E+00
          1   -1    0    0  501    0  0.00000000000E+00  0.00000000000E+00  0.25201897298E+03  0.25201897298E+03  0.00000000000E+00 0. -1.
         -1   -1    0    0    0  501 -0.00000000000E+00 -0.00000000000E+00 -0.80283154265E+01  0.80283154265E+01  0.00000000000E+00 0.  1.
         23    2    1    2    0    0  0.00000000000E+00  0.00000000000E+00  0.24399065755E+03  0.26004728841E+03  0.89961943255E+02 0.  0.
        -11    1    3    3    0    0 -0.30055420975E+02  0.16922671846E+02  0.38537354991E+02  0.51718786549E+02  0.00000000000E+00 0.  1.
         11    1    3    3    0    0  0.30055420975E+02 -0.16922671846E+02  0.20545330256E+03  0.20832850186E+03  0.00000000000E+00 0. -1.
<mgrwt>
<rscale>  0 0.89961943E+02</rscale>
<asrwt>0</asrwt>
<pdfrwt beam="1">  1        1 0.38772144E-01 0.89961943E+02</pdfrwt>
<pdfrwt beam="2">  1       -1 0.12351256E-02 0.89961943E+02</pdfrwt>
<totfact> 0.12837674E+05</totfact>
</mgrwt>
</event>
<event>
 5    1  0.1242969E+001  0.9075703E+02  0.7546771E-02  0.1301029E+00
          1   -1    0    0  501    0  0.00000000000E+00  0.00000000000E+00  0.80057531231E+02  0.80057531231E+02  0.00000000000E+00 0. -1.
         -1   -1    0    0    0  501 -0.00000000000E+00 -0.00000000000E+00 -0.25721621636E+02  0.25721621636E+02  0.00000000000E+00 0.  1.
         23    2    1    2    0    0  0.00000000000E+00  0.00000000000E+00  0.54335909595E+02  0.10577915287E+03  0.90757027881E+02 0.  0.
        -13    1    3    3    0    0 -0.40873984810E+02 -0.17059624498E+02  0.15659594427E+02  0.46978040826E+02  0.00000000000E+00 0.  1.
         13    1    3    3    0    0  0.40873984810E+02  0.17059624498E+02  0.38676315168E+02  0.58801112041E+02  0.00000000000E+00 0. -1.
<mgrwt>
<rscale>  0 0.90757028E+02</rscale>
<asrwt>0</asrwt>
<pdfrwt beam="1">  1        1 0.12316543E-01 0.90757028E+02</pdfrwt>
<pdfrwt beam="2">  1       -1 0.39571726E-02 0.90757028E+02</pdfrwt>
<totfact> 0.10203916E+05</totfact>
</mgrwt>
</event>
<event>
 5    1  0.1242969E+001  0.8979236E+02  0.7546771E-02  0.1303355E+00
          1   -1    0    0  501    0  0.00000000000E+00  0.00000000000E+00  0.13589231299E+02  0.13589231299E+02  0.00000000000E+00 0. -1.
         -1   -1    0    0    0  501 -0.00000000000E+00 -0.00000000000E+00 -0.14832825158E+03  0.14832825158E+03  0.00000000000E+00 0.  1.
         23    2    1    2    0    0  0.00000000000E+00  0.00000000000E+00 -0.13473902028E+03  0.16191748288E+03  0.89792358669E+02 0.  0.
        -11    1    3    3    0    0  0.85637417164E+01 -0.33257935166E+02 -0.11951533862E+03  0.12435169516E+03  0.00000000000E+00 0.  1.
         11    1    3    3    0    0 -0.85637417164E+01  0.33257935166E+02 -0.15223681662E+02  0.37565787720E+02  0.00000000000E+00 0. -1.
<mgrwt>
<rscale>  0 0.89792359E+02</rscale>
<asrwt>0</asrwt>
<pdfrwt beam="1">  1        1 0.20906510E-02 0.89792359E+02</pdfrwt>
<pdfrwt beam="2">  1       -1 0.22819731E-01 0.89792359E+02</pdfrwt>
<totfact> 0.78018146E+04</totfact>
</mgrwt>
</event>
<event>
 5    1  0.1242969E+001  0.8175031E+02  0.7546771E-02  0.1324156E+00
          3   -1    0    0  501    0  0.00000000000E+00  0.00000000000E+00  0.77259408900E+01  0.77259408900E+01  0.00000000000E+00 0. -1.
         -3   -1    0    0    0  501 -0.00000000000E+00 -0.00000000000E+00 -0.21625564088E+03  0.21625564088E+03  0.00000000000E+00 0.  1.
         23    2    1    2    0    0  0.00000000000E+00  0.00000000000E+00 -0.20852969999E+03  0.22398158177E+03  0.81750310057E+02 0.  0.
        -11    1    3    3    0    0  0.19611967196E+01  0.40478668005E+02 -0.89661440794E+02  0.98394831273E+02  0.00000000000E+00 0. -1.
         11    1    3    3    0    0 -0.19611967196E+01 -0.40478668005E+02 -0.11886825920E+03  0.12558675050E+03  0.00000000000E+00 0.  1.
<mgrwt>
<rscale>  0 0.81750310E+02</rscale>
<asrwt>0</asrwt>
<pdfrwt beam="1">  1        3 0.11886064E-02 0.81750310E+02</pdfrwt>
<pdfrwt beam="2">  1       -3 0.33270096E-01 0.81750310E+02</pdfrwt>
<totfact> 0.36553071E+04</totfact>
</mgrwt>
</event>
<event>
 5    1  0.1242969E+001  0.9049254E+02  0.7546771E-02  0.1301663E+00
         -4   -1    0    0    0  501 -0.00000000000E+00  0.00000000000E+00  0.24745665321E+03  0.24745665321E+03  0.00000000000E+00 0.  1.
          4   -1    0    0  501    0  0.00000000000E+00 -0.00000000000E+00 -0.82730650711E+01  0.82730650711E+01  0.00000000000E+00 0. -1.
         23    2    1    2    0    0  0.00000000000E+00  0.00000000000E+00  0.23918358814E+03  0.25572971828E+03  0.90492541003E+02 0.  0.
        -11    1    3    3    0    0  0.55607805829E+01 -0.42785561574E+02  0.81081881011E+02  0.91846600308E+02  0.00000000000E+00 0. -1.
         11    1    3    3    0    0 -0.55607805829E+01  0.42785561574E+02  0.15810170713E+03  0.16388311798E+03  0.00000000000E+00 0.  1.
<mgrwt>
<rscale>  0 0.90492541E+02</rscale>
<asrwt>0</asrwt>
<pdfrwt beam="2">  1        4 0.12727794E-02 0.90492541E+02</pdfrwt>
<pdfrwt beam="1">  1       -4 0.38070249E-01 0.90492541E+02</pdfrwt>
<totfact> 0.19652535E+04</totfact>
</mgrwt>
</event>
<event>
 5    1  0.1242969E+001  0.8794744E+02  0.7546771E-02  0.1307900E+00
         -1   -1    0    0    0  501 -0.00000000000E+00  0.00000000000E+00  0.13424094313E+02  0.13424094313E+02  0.00000000000E+00 0.  1.
          1   -1    0    0  501    0  0.00000000000E+00 -0.00000000000E+00 -0.14404605930E+03  0.14404605930E+03  0.00000000000E+00 0. -1.
         23    2    1    2    0    0  0.00000000000E+00  0.00000000000E+00 -0.13062196499E+03  0.15747015361E+03  0.87947436245E+02 0.  0.
        -11    1    3    3    0    0  0.40057618295E+02 -0.12888141767E+02 -0.42453410078E+02  0.59774651893E+02  0.00000000000E+00 0.  1.
         11    1    3    3    0    0 -0.40057618295E+02  0.12888141767E+02 -0.88168554910E+02  0.97695501721E+02  0.00000000000E+00 0. -1.
<mgrwt>
<rscale>  0 0.87947436E+02</rscale>
<asrwt>0</asrwt>
<pdfrwt beam="2">  1        1 0.22160933E-01 0.87947436E+02</pdfrwt>
<pdfrwt beam="1">  1       -1 0.20652452E-02 0.87947436E+02</pdfrwt>
<totfact> 0.12265385E+05</totfact>
</mgrwt>
</event>
<event>
 5    1  0.1242969E+001  0.8967826E+02  0.7546771E-02  0.1303633E+00
         -1   -1    0    0    0  501 -0.00000000000E+00  0.00000000000E+00  0.46810266048E+02  0.46810266048E+02  0.00000000000E+00 0.  1.
          1   -1    0    0  501    0  0.00000000000E+00 -0.00000000000E+00 -0.42951001178E+02  0.42951001178E+02  0.00000000000E+00 0. -1.
         23    2    1    2    0    0  0.00000000000E+00  0.00000000000E+00  0.38592648698E+01  0.89761267225E+02  0.89678264750E+02 0.  0.
        -11    1    3    3    0    0  0.35163431332E+02 -0.19142626757E+02 -0.18279169355E+02  0.44011760866E+02  0.00000000000E+00 0. -1.
         11    1    3    3    0    0 -0.35163431332E+02  0.19142626757E+02  0.22138434225E+02  0.45749506359E+02  0.00000000000E+00 0.  1.
<mgrwt>
<rscale>  0 0.89678265E+02</rscale>
<asrwt>0</asrwt>
<pdfrwt beam="2">  1        1 0.66078463E-02 0.89678265E+02</pdfrwt>
<pdfrwt beam="1">  1       -1 0.72015794E-02 0.89678265E+02</pdfrwt>
<totfact> 0.96012708E+04</totfact>
</mgrwt>
</event>
<event>
 5    1  0.1242969E+001  0.9131221E+02  0.7546771E-02  0.1299705E+00
         -1   -1    0    0    0  501 -0.00000000000E+00  0.00000000000E+00  0.12167994371E+02  0.12167994371E+02  0.00000000000E+00 0.  1.
          1   -1    0    0  501    0  0.00000000000E+00 -0.00000000000E+00 -0.17130841990E+03  0.17130841990E+03  0.00000000000E+00 0. -1.
         23    2    1    2    0    0  0.00000000000E+00  0.00000000000E+00 -0.15914042553E+03  0.18347641427E+03  0.91312209238E+02 0.  0.
        -11    1    3    3    0    0  0.21350404319E+02 -0.39123904558E+02 -0.59682892764E+02  0.74488706266E+02  0.00000000000E+00 0. -1.
         11    1    3    3    0    0 -0.21350404319E+02  0.39123904558E+02 -0.99457532763E+02  0.10898770800E+03  0.00000000000E+00 0.  1.
<mgrwt>
<rscale>  0 0.91312209E+02</rscale>
<asrwt>0</asrwt>
<pdfrwt beam="2">  1        1 0.26355142E-01 0.91312209E+02</pdfrwt>
<pdfrwt beam="1">  1       -1 0.18719991E-02 0.91312209E+02</pdfrwt>
<totfact> 0.11448325E+05</totfact>
</mgrwt>
</event>
<event>
 5    1  0.1242969E+001  0.9052290E+02  0.7546771E-02  0.1301590E+00
         -2   -1    0    0    0  501 -0.00000000000E+00  0.00000000000E+00  0.11874571379E+03  0.11874571379E+03  0.00000000000E+00 0.  1.
          2   -1    0    0  501    0  0.00000000000E+00 -0.00000000000E+00 -0.17251980551E+02  0.17251980551E+02  0.00000000000E+00 0. -1.
         23    2    1    2    0    0  0.00000000000E+00  0.00000000000E+00  0.10149373324E+03  0.13599769434E+03  0.90522897541E+02 0.  0.
        -11    1    3    3    0    0 -0.10357973208E+02 -0.23567980210E+02  0.10667534516E+03  0.10973771715E+03  0.00000000000E+00 0.  1.
         11    1    3    3    0    0  0.10357973208E+02  0.23567980210E+02 -0.51816119178E+01  0.26259977194E+02  0.00000000000E+00 0. -1.
<mgrwt>
<rscale>  0 0.90522898E+02</rscale>
<asrwt>0</asrwt>
<pdfrwt beam="2">  1        2 0.26541509E-02 0.90522898E+02</pdfrwt>
<pdfrwt beam="1">  1       -2 0.18268571E-01 0.90522898E+02</pdfrwt>
<totfact> 0.77050676E+04</totfact>
</mgrwt>
</event>
<event>
 5    1  0.1242969E+001  0.8876470E+02  0.7546771E-02  0.1305871E+00
         -2   -1    0    0    0  501 -0.00000000000E+00  0.00000000000E+00  0.10288817703E+02  0.10288817703E+02  0.00000000000E+00 0.  1.
          2   -1    0    0  501    0  0.00000000000E+00 -0.00000000000E+00 -0.19144987703E+03  0.19144987703E+03  0.00000000000E+00 0. -1.
         23    2    1    2    0    0  0.00000000000E+00  0.00000000000E+00 -0.18116105933E+03  0.20173869473E+03  0.88764697577E+02 0.  0.
        -13    1    3    3    0    0  0.33891844146E+02 -0.25598178874E+02 -0.11985112608E+03  0.12715430108E+03  0.00000000000E+00 0. -1.
         13    1    3    3    0    0 -0.33891844146E+02  0.25598178874E+02 -0.61309933244E+02  0.74584393647E+02  0.00000000000E+00 0.  1.
<mgrwt>
<rscale>  0 0.88764698E+02</rscale>
<asrwt>0</asrwt>
<pdfrwt beam="2">  1        2 0.29453827E-01 0.88764698E+02</pdfrwt>
<pdfrwt beam="1">  1       -2 0.15828950E-02 0.88764698E+02</pdfrwt>
<totfact> 0.16364724E+05</totfact>
</mgrwt>
</event>
<event>
 5    1  0.1242969E+001  0.8866303E+02  0.7546771E-02  0.1306122E+00
         -2   -1    0    0    0  501 -0.00000000000E+00  0.00000000000E+00  0.10236567948E+02  0.10236567948E+02  0.00000000000E+00 0.  1.
          2   -1    0    0  501    0  0.00000000000E+00 -0.00000000000E+00 -0.19198653858E+03  0.19198653858E+03  0.00000000000E+00 0. -1.
         23    2    1    2    0    0  0.00000000000E+00  0.00000000000E+00 -0.18174997063E+03  0.20222310653E+03  0.88663030567E+02 0.  0.
        -11    1    3    3    0    0 -0.21959207797E+02  0.26777095460E+02 -0.27747190438E+02  0.44374837752E+02  0.00000000000E+00 0.  1.
         11    1    3    3    0    0  0.21959207797E+02 -0.26777095460E+02 -0.15400278019E+03  0.15784826877E+03  0.00000000000E+00 0. -1.
<mgrwt>
<rscale>  0 0.88663031E+02</rscale>
<asrwt>0</asrwt>
<pdfrwt beam="2">  1        2 0.29536391E-01 0.88663031E+02</pdfrwt>
<pdfrwt beam="1">  1       -2 0.15748566E-02 0.88663031E+02</pdfrwt>
<totfact> 0.16431574E+05</totfact>
</mgrwt>
</event>
<event>
 5    1  0.1242969E+001  0.9289890E+02  0.7546771E-02  0.1295980E+00
          1   -1    0    0  501    0  0.00000000000E+00  0.00000000000E+00  0.59729644318E+02  0.59729644318E+02  0.00000000000E+00 0. -1.
         -1   -1    0    0    0  501 -0.00000000000E+00 -0.00000000000E+00 -0.36121952100E+02  0.36121952100E+02  0.00000000000E+00 0.  1.
         23    2    1    2    0    0  0.00000000000E+00  0.00000000000E+00  0.23607692218E+02  0.95851596418E+02  0.92898898831E+02 0.  0.
        -11    1    3    3    0    0 -0.10753882841E+02 -0.45121755027E+02  0.92907417776E+01  0.47306835189E+02  0.00000000000E+00 0.  1.
         11    1    3    3    0    0  0.10753882841E+02  0.45121755027E+02  0.14316950441E+02  0.48544761229E+02  0.00000000000E+00 0. -1.
<mgrwt>
<rscale>  0 0.92898899E+02</rscale>
<asrwt>0</asrwt>
<pdfrwt beam="1">  1        1 0.91891760E-02 0.92898899E+02</pdfrwt>
<pdfrwt beam="2">  1       -1 0.55572234E-02 0.92898899E+02</pdfrwt>
<totfact> 0.91422615E+04</totfact>
</mgrwt>
</event>
<event>
 5    1  0.1242969E+001  0.9105848E+02  0.7546771E-02  0.1300309E+00
          4   -1    0    0  501    0  0.00000000000E+00  0.00000000000E+00  0.13746415994E+02  0.13746415994E+02  0.00000000000E+00 0. -1.
         -4   -1    0    0    0  501 -0.00000000000E+00 -0.00000000000E+00 -0.15079650392E+03  0.15079650392E+03  0.00000000000E+00 0.  1.
         23    2    1    2    0    0  0.00000000000E+00  0.00000000000E+00 -0.13705008792E+03  0.16454291991E+03  0.91058475132E+02 0.  0.
        -11    1    3    3    0    0 -0.28498601838E+02 -0.24302751980E+02 -0.21747837937E+02  0.43310074065E+02  0.00000000000E+00 0. -1.
         11    1    3    3    0    0  0.28498601838E+02  0.24302751980E+02 -0.11530224999E+03  0.12123284585E+03  0.00000000000E+00 0.  1.
<mgrwt>
<rscale>  0 0.91058475E+02</rscale>
<asrwt>0</asrwt>
<pdfrwt beam="1">  1        4 0.21148334E-02 0.91058475E+02</pdfrwt>
<pdfrwt beam="2">  1       -4 0.23199461E-01 0.91058475E+02</pdfrwt>
<totfact> 0.23044124E+04</totfact>
</mgrwt>
</event>
<event>
 5    1  0.1242969E+001  0.8935011E+02  0.7546771E-02  0.1304433E+00
          1   -1    0    0  501    0  0.00000000000E+00  0.00000000000E+00  0.33304759038E+02  0.33304759038E+02  0.00000000000E+00 0. -1.
         -1   -1    0    0    0  501 -0.00000000000E+00 -0.00000000000E+00 -0.59927191517E+02  0.59927191517E+02  0.00000000000E+00 0.  1.
         23    2    1    2    0    0  0.00000000000E+00  0.00000000000E+00 -0.26622432479E+02  0.93231950554E+02  0.89350113000E+02 0.  0.
        -11    1    3    3    0    0  0.34148653929E+02 -0.64963969048E+01 -0.42593326570E+02  0.54977497271E+02  0.00000000000E+00 0.  1.
         11    1    3    3    0    0 -0.34148653929E+02  0.64963969048E+01  0.15970894091E+02  0.38254453283E+02  0.00000000000E+00 0. -1.
<mgrwt>
<rscale>  0 0.89350113E+02</rscale>
<asrwt>0</asrwt>
<pdfrwt beam="1">  1        1 0.51238092E-02 0.89350113E+02</pdfrwt>
<pdfrwt beam="2">  1       -1 0.92195678E-02 0.89350113E+02</pdfrwt>
<totfact> 0.93362468E+04</totfact>
</mgrwt>
</event>
<event>
 5    1  0.1242969E+001  0.9017855E+02  0.7546771E-02  0.1302420E+00
         -2   -1    0    0    0  501 -0.00000000000E+00  0.00000000000E+00  0.85823074302E+02  0.85823074302E+02  0.00000000000E+00 0. -1.
          2   -1    0    0  501    0  0.00000000000E+00 -0.00000000000E+00 -0.23688767170E+02  0.23688767170E+02  0.00000000000E+00 0.  1.
         23    2    1    2    0    0  0.00000000000E+00  0.00000000000E+00  0.62134307132E+02  0.10951184147E+03  0.90178552326E+02 0.  0.
        -11    1    3    3    0    0 -0.12824146966E+02 -0.28952832802E+02 -0.79129843975E+01  0.32639555676E+02  0.00000000000E+00 0.  1.
         11    1    3    3    0    0  0.12824146966E+02  0.28952832802E+02  0.70047291530E+02  0.76872285795E+02  0.00000000000E+00 0. -1.
<mgrwt>
<rscale>  0 0.90178552E+02</rscale>
<asrwt>0</asrwt>
<pdfrwt beam="2">  1        2 0.36444258E-02 0.90178552E+02</pdfrwt>
<pdfrwt beam="1">  1       -2 0.13203550E-01 0.90178552E+02</pdfrwt>
<totfact> 0.85721797E+04</totfact>
</mgrwt>
</event>
<event>
 5    1  0.1242969E+001  0.9158905E+02  0.7546771E-02  0.1299049E+00
         -2   -1    0    0    0  501 -0.00000000000E+00  0.00000000000E+00  0.18453283585E+03  0.18453283585E+03  0.00000000000E+00 0.  1.
          2   -1    0    0  501    0  0.00000000000E+00 -0.00000000000E+00 -0.11364582230E+02  0.11364582230E+02  0.00000000000E+00 0. -1.
         23    2    1    2    0    0  0.00000000000E+00  0.00000000000E+00  0.17316825362E+03  0.19589741808E+03  0.91589051468E+02 0.  0.
        -11    1    3    3    0    0  0.43383080366E+02  0.26778223401E+01  0.11742222080E+03  0.12520878696E+03  0.00000000000E+00 0.  1.
         11    1    3    3    0    0 -0.43383080366E+02 -0.26778223401E+01  0.55746032824E+02  0.70688631124E+02  0.00000000000E+00 0. -1.
<mgrwt>
<rscale>  0 0.91589051E+02</rscale>
<asrwt>0</asrwt>
<pdfrwt beam="2">  1        2 0.17483974E-02 0.91589051E+02</pdfrwt>
<pdfrwt beam="1">  1       -2 0.28389665E-01 0.91589051E+02</pdfrwt>
<totfact> 0.63736947E+04</totfact>
</mgrwt>
</event>
<event>
 5    1  0.1242969E+001  0.9194650E+02  0.7546771E-02  0.1298205E+00
         -1   -1    0    0    0  501 -0.00000000000E+00  0.00000000000E+00  0.10161128753E+02  0.10161128753E+02  0.00000000000E+00 0.  1.
          1   -1    0    0  501    0  0.00000000000E+00 -0.00000000000E+00 -0.20800243896E+03  0.20800243896E+03  0.00000000000E+00 0. -1.
         23    2    1    2    0    0  0.00000000000E+00  0.00000000000E+00 -0.19784131021E+03  0.21816356771E+03  0.91946496686E+02 0.  0.
        -11    1    3    3    0    0 -0.13747050939E+02 -0.43152597766E+02 -0.80175924170E+02  0.92083152205E+02  0.00000000000E+00 0.  1.
         11    1    3    3    0    0  0.13747050939E+02  0.43152597766E+02 -0.11766538604E+03  0.12608041551E+03  0.00000000000E+00 0. -1.
<mgrwt>
<rscale>  0 0.91946497E+02</rscale>
<asrwt>0</asrwt>
<pdfrwt beam="2">  1        1 0.32000377E-01 0.91946497E+02</pdfrwt>
<pdfrwt beam="1">  1       -1 0.15632505E-02 0.91946497E+02</pdfrwt>
<totfact> 0.11665098E+05</totfact>
</mgrwt>
</event>
<event>
 5    1  0.1242969E+001  0.9086854E+02  0.7546771E-02  0.1300762E+00
          2   -1    0    0  501    0  0.00000000000E+00  0.00000000000E+00  0.71711125383E+01  0.71711125383E+01  0.00000000000E+00 0.  1.
         -2   -1    0    0    0  501 -0.00000000000E+00 -0.00000000000E+00 -0.28785951806E+03  0.28785951806E+03  0.00000000000E+00 0. -1.
         23    2    1    2    0    0  0.00000000000E+00  0.00000000000E+00 -0.28068840552E+03  0.29503063059E+03  0.90868542394E+02 0.  0.
        -13    1    3    3    0    0  0.37775889399E+02 -0.22303343650E+02 -0.17873543454E+03  0.18404024701E+03  0.00000000000E+00 0.  1.
         13    1    3    3    0    0 -0.37775889399E+02  0.22303343650E+02 -0.10195297098E+03  0.11099038359E+03  0.00000000000E+00 0. -1.
<mgrwt>
<rscale>  0 0.90868542E+02</rscale>
<asrwt>0</asrwt>
<pdfrwt beam="1">  1        2 0.11032482E-02 0.90868542E+02</pdfrwt>
<pdfrwt beam="2">  1       -2 0.44286077E-01 0.90868542E+02</pdfrwt>
<totfact> 0.52640473E+04</totfact>
</mgrwt>
</event>
<event>
 5    1  0.1242969E+001  0.8890110E+02  0.7546771E-02  0.1305535E+00
          2   -1    0    0  501    0  0.00000000000E+00  0.00000000000E+00  0.43052701847E+02  0.43052701847E+02  0.00000000000E+00 0.  1.
         -2   -1    0    0    0  501 -0.00000000000E+00 -0.00000000000E+00 -0.45893786402E+02  0.45893786402E+02  0.00000000000E+00 0. -1.
         23    2    1    2    0    0  0.00000000000E+00  0.00000000000E+00 -0.28410845545E+01  0.88946488249E+02  0.88901102414E+02 0.  0.
        -13    1    3    3    0    0 -0.91455248419E+01 -0.34002646597E+02  0.25723197552E+02  0.43606232267E+02  0.00000000000E+00 0.  1.
         13    1    3    3    0    0  0.91455248419E+01  0.34002646597E+02 -0.28564282107E+02  0.45340255982E+02  0.00000000000E+00 0. -1.
<mgrwt>
<rscale>  0 0.88901102E+02</rscale>
<asrwt>0</asrwt>
<pdfrwt beam="1">  1        2 0.66234926E-02 0.88901102E+02</pdfrwt>
<pdfrwt beam="2">  1       -2 0.70605825E-02 0.88901102E+02</pdfrwt>
<totfact> 0.10453981E+05</totfact>
</mgrwt>
</event>
<event>
 5    1  0.1242969E+001  0.9051029E+02  0.7546771E-02  0.1301621E+00
         -2   -1    0    0    0  501 -0.00000000000E+00  0.00000000000E+00  0.18436078119E+03  0.18436078119E+03  0.00000000000E+00 0. -1.
          2   -1    0    0  501    0  0.00000000000E+00 -0.00000000000E+00 -0.11108806624E+02  0.11108806624E+02  0.00000000000E+00 0.  1.
         23    2    1    2    0    0  0.00000000000E+00  0.00000000000E+00  0.17325197457E+03  0.19546958782E+03  0.90510292613E+02 0.  0.
        -11    1    3    3    0    0 -0.19151834385E+02  0.29397082229E+02  0.14835719376E+03  0.15244946095E+03  0.00000000000E+00 0. -1.
         11    1    3    3    0    0  0.19151834385E+02 -0.29397082229E+02  0.24894780808E+02  0.43020126864E+02  0.00000000000E+00 0.  1.
<mgrwt>
<rscale>  0 0.90510293E+02</rscale>
<asrwt>0</asrwt>
<pdfrwt beam="2">  1        2 0.17090473E-02 0.90510293E+02</pdfrwt>
<pdfrwt beam="1">  1       -2 0.28363195E-01 0.90510293E+02</pdfrwt>
<totfact> 0.65715627E+04</totfact>
</mgrwt>
</event>
<event>
 5    1  0.1242969E+001  0.9017492E+02  0.7546771E-02  0.1302429E+00
         -2   -1    0    0    0  501 -0.00000000000E+00  0.00000000000E+00  0.12576980004E+02  0.12576980004E+02  0.00000000000E+00 0.  1.
          2   -1    0    0  501    0  0.00000000000E+00 -0.00000000000E+00 -0.16163492606E+03  0.16163492606E+03  0.00000000000E+00 0. -1.
         23    2    1    2    0    0  0.00000000000E+00  0.00000000000E+00 -0.14905794606E+03  0.17421190606E+03  0.90174924074E+02 0.  0.
        -11    1    3    3    0    0 -0.46412328644E+01 -0.32729329320E+02 -0.15292960492E+02  0.36422859317E+02  0.00000000000E+00 0.  1.
         11    1    3    3    0    0  0.46412328644E+01  0.32729329320E+02 -0.13376498557E+03  0.13778904675E+03  0.00000000000E+00 0. -1.
<mgrwt>
<rscale>  0 0.90174924E+02</rscale>
<asrwt>0</asrwt>
<pdfrwt beam="2">  1        2 0.24866912E-01 0.90174924E+02</pdfrwt>
<pdfrwt beam="1">  1       -2 0.19349200E-02 0.90174924E+02</pdfrwt>
<totfact> 0.14779009E+05</totfact>
</mgrwt>
</event>
<event>
 5    1  0.1242969E+001  0.9013241E+02  0.7546771E-02  0.1302531E+00
         -3   -1    0    0    0  501 -0.00000000000E+00  0.00000000000E+00  0.24557161262E+02  0.24557161262E+02  0.00000000000E+00 0.  1.
          3   -1    0    0  501    0  0.00000000000E+00 -0.00000000000E+00 -0.82703491599E+02  0.82703491599E+02  0.00000000000E+00 0. -1.
         23    2    1    2    0    0  0.00000000000E+00  0.00000000000E+00 -0.58146330338E+02  0.10726065286E+03  0.90132413262E+02 0.  0.
        -11    1    3    3    0    0  0.23959122274E+02  0.37065805124E+02 -0.18228203347E+02  0.47751239218E+02  0.00000000000E+00 0.  1.
         11    1    3    3    0    0 -0.23959122274E+02 -0.37065805124E+02 -0.39918126991E+02  0.59509413643E+02  0.00000000000E+00 0. -1.
<mgrwt>
<rscale>  0 0.90132413E+02</rscale>
<asrwt>0</asrwt>
<pdfrwt beam="2">  1        3 0.12723614E-01 0.90132413E+02</pdfrwt>
<pdfrwt beam="1">  1       -3 0.37780248E-02 0.90132413E+02</pdfrwt>
<totfact> 0.35225306E+04</totfact>
</mgrwt>
</event>
<event>
 5    1  0.1242969E+001  0.9004271E+02  0.7546771E-02  0.1302748E+00
         -1   -1    0    0    0  501 -0.00000000000E+00  0.00000000000E+00  0.14251071996E+02  0.14251071996E+02  0.00000000000E+00 0.  1.
          1   -1    0    0  501    0  0.00000000000E+00 -0.00000000000E+00 -0.14222946561E+03  0.14222946561E+03  0.00000000000E+00 0. -1.
         23    2    1    2    0    0  0.00000000000E+00  0.00000000000E+00 -0.12797839362E+03  0.15648053761E+03  0.90042708854E+02 0.  0.
        -13    1    3    3    0    0  0.33065744279E+02  0.25346154426E+02 -0.93642371307E+02  0.10249226650E+03  0.00000000000E+00 0. -1.
         13    1    3    3    0    0 -0.33065744279E+02 -0.25346154426E+02 -0.34336022308E+02  0.53988271105E+02  0.00000000000E+00 0.  1.
<mgrwt>
<rscale>  0 0.90042709E+02</rscale>
<asrwt>0</asrwt>
<pdfrwt beam="2">  1        1 0.21881457E-01 0.90042709E+02</pdfrwt>
<pdfrwt beam="1">  1       -1 0.21924726E-02 0.90042709E+02</pdfrwt>
<totfact> 0.11486084E+05</totfact>
</mgrwt>
</event>
<event>
 5    1  0.1242969E+001  0.9343932E+02  0.7546771E-02  0.1294730E+00
         -1   -1    0    0    0  501 -0.00000000000E+00  0.00000000000E+00  0.71787590167E+01  0.71787590167E+01  0.00000000000E+00 0.  1.
          1   -1    0    0  501    0  0.00000000000E+00 -0.00000000000E+00 -0.30405346751E+03  0.30405346751E+03  0.00000000000E+00 0. -1.
         23    2    1    2    0    0  0.00000000000E+00  0.00000000000E+00 -0.29687470849E+03  0.31123222653E+03  0.93439318736E+02 0.  0.
        -13    1    3    3    0    0 -0.25109219251E+02 -0.38499702383E+02 -0.17631052695E+03  0.18220346289E+03  0.00000000000E+00 0.  1.
         13    1    3    3    0    0  0.25109219251E+02  0.38499702383E+02 -0.12056418154E+03  0.12902876364E+03  0.00000000000E+00 0. -1.
<mgrwt>
<rscale>  0 0.93439319E+02</rscale>
<asrwt>0</asrwt>
<pdfrwt beam="2">  1        1 0.46777470E-01 0.93439319E+02</pdfrwt>
<pdfrwt beam="1">  1       -1 0.11044242E-02 0.93439319E+02</pdfrwt>
<totfact> 0.12031519E+05</totfact>
</mgrwt>
</event>
<event>
 5    1  0.1242969E+001  0.8572716E+02  0.7546771E-02  0.1313542E+00
         -1   -1    0    0    0  501 -0.00000000000E+00  0.00000000000E+00  0.11965960710E+03  0.11965960710E+03  0.00000000000E+00 0.  1.
          1   -1    0    0  501    0  0.00000000000E+00 -0.00000000000E+00 -0.15354274206E+02  0.15354274206E+02  0.00000000000E+00 0. -1.
         23    2    1    2    0    0  0.00000000000E+00  0.00000000000E+00  0.10430533289E+03  0.13501388130E+03  0.85727158328E+02 0.  0.
        -11    1    3    3    0    0  0.22682910885E+02 -0.35970510942E+02  0.60618431207E+02  0.74047189721E+02  0.00000000000E+00 0.  1.
         11    1    3    3    0    0 -0.22682910885E+02  0.35970510942E+02  0.43686901683E+02  0.60966691581E+02  0.00000000000E+00 0. -1.
<mgrwt>
<rscale>  0 0.85727158E+02</rscale>
<asrwt>0</asrwt>
<pdfrwt beam="2">  1        1 0.23621961E-02 0.85727158E+02</pdfrwt>
<pdfrwt beam="1">  1       -1 0.18409170E-01 0.85727158E+02</pdfrwt>
<totfact> 0.92116758E+04</totfact>
</mgrwt>
</event>
<event>
 5    1  0.1242969E+001  0.9135754E+02  0.7546771E-02  0.1299597E+00
         -1   -1    0    0    0  501 -0.00000000000E+00  0.00000000000E+00  0.94456680051E+01  0.94456680051E+01  0.00000000000E+00 0.  1.
          1   -1    0    0  501    0  0.00000000000E+00 -0.00000000000E+00 -0.22090018902E+03  0.22090018902E+03  0.00000000000E+00 0. -1.
         23    2    1    2    0    0  0.00000000000E+00  0.00000000000E+00 -0.21145452102E+03  0.23034585703E+03  0.91357536038E+02 0.  0.
        -11    1    3    3    0    0  0.62076653713E+00 -0.41027524515E+02 -0.55117033209E+02  0.68713393663E+02  0.00000000000E+00 0.  1.
         11    1    3    3    0    0 -0.62076653713E+00  0.41027524515E+02 -0.15633748781E+03  0.16163246336E+03  0.00000000000E+00 0. -1.
<mgrwt>
<rscale>  0 0.91357536E+02</rscale>
<asrwt>0</asrwt>
<pdfrwt beam="2">  1        1 0.33984644E-01 0.91357536E+02</pdfrwt>
<pdfrwt beam="1">  1       -1 0.14531797E-02 0.91357536E+02</pdfrwt>
<totfact> 0.12008075E+05</totfact>
</mgrwt>
</event>
<event>
 5    1  0.1242969E+001  0.9176231E+02  0.7546771E-02  0.1298639E+00
          1   -1    0    0  501    0  0.00000000000E+00  0.00000000000E+00  0.90597715143E+01  0.90597715143E+01  0.00000000000E+00 0. -1.
         -1   -1    0    0    0  501 -0.00000000000E+00 -0.00000000000E+00 -0.23235469715E+03  0.23235469715E+03  0.00000000000E+00 0.  1.
         23    2    1    2    0    0  0.00000000000E+00  0.00000000000E+00 -0.22329492563E+03  0.24141446866E+03  0.91762311794E+02 0.  0.
        -11    1    3    3    0    0  0.42703971194E+02 -0.36223803159E+01 -0.15474309920E+03  0.16056829558E+03  0.00000000000E+00 0.  1.
         11    1    3    3    0    0 -0.42703971194E+02  0.36223803159E+01 -0.68551826432E+02  0.80846173083E+02  0.00000000000E+00 0. -1.
<mgrwt>
<rscale>  0 0.91762312E+02</rscale>
<asrwt>0</asrwt>
<pdfrwt beam="1">  1        1 0.13938110E-02 0.91762312E+02</pdfrwt>
<pdfrwt beam="2">  1       -1 0.35746876E-01 0.91762312E+02</pdfrwt>
<totfact> 0.65245247E+04</totfact>
</mgrwt>
</event>
<event>
 5    1  0.1242969E+001  0.8996672E+02  0.7546771E-02  0.1302932E+00
         -1   -1    0    0    0  501 -0.00000000000E+00  0.00000000000E+00  0.25537383325E+03  0.25537383325E+03  0.00000000000E+00 0.  1.
          1   -1    0    0  501    0  0.00000000000E+00 -0.00000000000E+00 -0.79236884795E+01  0.79236884795E+01  0.00000000000E+00 0. -1.
         23    2    1    2    0    0  0.00000000000E+00  0.00000000000E+00  0.24745014477E+03  0.26329752173E+03  0.89966720525E+02 0.  0.
        -11    1    3    3    0    0 -0.32082246178E+02  0.31237638414E+02  0.13629319432E+03  0.14346043145E+03  0.00000000000E+00 0. -1.
         11    1    3    3    0    0  0.32082246178E+02 -0.31237638414E+02  0.11115695045E+03  0.11983709028E+03  0.00000000000E+00 0.  1.
<mgrwt>
<rscale>  0 0.89966721E+02</rscale>
<asrwt>0</asrwt>
<pdfrwt beam="2">  1        1 0.12190292E-02 0.89966721E+02</pdfrwt>
<pdfrwt beam="1">  1       -1 0.39288276E-01 0.89966721E+02</pdfrwt>
<totfact> 0.66576925E+04</totfact>
</mgrwt>
</event>
<event>
 5    1  0.1242969E+001  0.9179296E+02  0.7546771E-02  0.1298567E+00
          2   -1    0    0  501    0  0.00000000000E+00  0.00000000000E+00  0.26446767389E+03  0.26446767389E+03  0.00000000000E+00 0. -1.
         -2   -1    0    0    0  501 -0.00000000000E+00 -0.00000000000E+00 -0.79650076446E+01  0.79650076446E+01  0.00000000000E+00 0.  1.
         23    2    1    2    0    0  0.00000000000E+00  0.00000000000E+00  0.25650266624E+03  0.27243268153E+03  0.91792963658E+02 0.  0.
        -11    1    3    3    0    0  0.35161543625E+02 -0.27764237258E+02  0.98676351103E+02  0.10837070309E+03  0.00000000000E+00 0. -1.
         11    1    3    3    0    0 -0.35161543625E+02  0.27764237258E+02  0.15782631514E+03  0.16406197844E+03  0.00000000000E+00 0.  1.
<mgrwt>
<rscale>  0 0.91792964E+02</rscale>
<asrwt>0</asrwt>
<pdfrwt beam="1">  1        2 0.40687328E-01 0.91792964E+02</pdfrwt>
<pdfrwt beam="2">  1       -2 0.12253860E-02 0.91792964E+02</pdfrwt>
<totfact> 0.16834399E+05</totfact>
</mgrwt>
</event>
<event>
 5    1  0.1242969E+001  0.9094770E+02  0.7546771E-02  0.1300573E+00
          2   -1    0    0  501    0  0.00000000000E+00  0.00000000000E+00  0.27093519619E+03  0.27093519619E+03  0.00000000000E+00 0. -1.
         -2   -1    0    0    0  501 -0.00000000000E+00 -0.00000000000E+00 -0.76323460995E+01  0.76323460995E+01  0.00000000000E+00 0.  1.
         23    2    1    2    0    0  0.00000000000E+00  0.00000000000E+00  0.26330285009E+03  0.27856754229E+03  0.90947703388E+02 0.  0.
        -13    1    3    3    0    0  0.35811836020E+02 -0.27733841789E+02  0.14398622698E+03  0.15094266176E+03  0.00000000000E+00 0.  1.
         13    1    3    3    0    0 -0.35811836020E+02  0.27733841789E+02  0.11931662311E+03  0.12762488053E+03  0.00000000000E+00 0. -1.
<mgrwt>
<rscale>  0 0.90947703E+02</rscale>
<asrwt>0</asrwt>
<pdfrwt beam="1">  1        2 0.41682330E-01 0.90947703E+02</pdfrwt>
<pdfrwt beam="2">  1       -2 0.11742073E-02 0.90947703E+02</pdfrwt>
<totfact> 0.17412709E+05</totfact>
</mgrwt>
</event>
<event>
 5    1  0.1242969E+001  0.9777947E+02  0.7546771E-02  0.1285036E+00
         -1   -1    0    0    0  501 -0.00000000000E+00  0.00000000000E+00  0.38434690942E+02  0.38434690942E+02  0.00000000000E+00 0.  1.
          1   -1    0    0  501    0  0.00000000000E+00 -0.00000000000E+00 -0.62188765404E+02  0.62188765404E+02  0.00000000000E+00 0. -1.
         23    2    1    2    0    0  0.00000000000E+00  0.00000000000E+00 -0.23754074462E+02  0.10062345635E+03  0.97779465704E+02 0.  0.
        -11    1    3    3    0    0  0.21396005727E+02  0.13029723132E+01 -0.57095014027E+02  0.60986288826E+02  0.00000000000E+00 0. -1.
         11    1    3    3    0    0 -0.21396005727E+02 -0.13029723132E+01  0.33340939565E+02  0.39637167520E+02  0.00000000000E+00 0.  1.
<mgrwt>
<rscale>  0 0.97779466E+02</rscale>
<asrwt>0</asrwt>
<pdfrwt beam="2">  1        1 0.95675023E-02 0.97779466E+02</pdfrwt>
<pdfrwt beam="1">  1       -1 0.59130294E-02 0.97779466E+02</pdfrwt>
<totfact> 0.79743664E+04</totfact>
</mgrwt>
</event>
<event>
 5    1  0.1242969E+001  0.8819607E+02  0.7546771E-02  0.1307280E+00
          1   -1    0    0  501    0  0.00000000000E+00  0.00000000000E+00  0.66190371310E+02  0.66190371310E+02  0.00000000000E+00 0. -1.
         -1   -1    0    0    0  501 -0.00000000000E+00 -0.00000000000E+00 -0.29379451519E+02  0.29379451519E+02  0.00000000000E+00 0.  1.
         23    2    1    2    0    0  0.00000000000E+00  0.00000000000E+00  0.36810919791E+02  0.95569822828E+02  0.88196072586E+02 0.  0.
        -13    1    3    3    0    0  0.20050638137E+02 -0.34296652398E+02  0.39145932789E+02  0.55773582540E+02  0.00000000000E+00 0.  1.
         13    1    3    3    0    0 -0.20050638137E+02  0.34296652398E+02 -0.23350129976E+01  0.39796240289E+02  0.00000000000E+00 0. -1.
<mgrwt>
<rscale>  0 0.88196073E+02</rscale>
<asrwt>0</asrwt>
<pdfrwt beam="1">  1        1 0.10183134E-01 0.88196073E+02</pdfrwt>
<pdfrwt beam="2">  1       -1 0.45199157E-02 0.88196073E+02</pdfrwt>
<totfact> 0.10720089E+05</totfact>
</mgrwt>
</event>
<event>
 5    1  0.1242969E+001  0.9183496E+02  0.7546771E-02  0.1298468E+00
          1   -1    0    0  501    0  0.00000000000E+00  0.00000000000E+00  0.32560982475E+02  0.32560982475E+02  0.00000000000E+00 0. -1.
         -1   -1    0    0    0  501 -0.00000000000E+00 -0.00000000000E+00 -0.64752798904E+02  0.64752798904E+02  0.00000000000E+00 0.  1.
         23    2    1    2    0    0  0.00000000000E+00  0.00000000000E+00 -0.32191816429E+02  0.97313781379E+02  0.91834955225E+02 0.  0.
        -13    1    3    3    0    0  0.21930113003E+02  0.13903837225E+02 -0.56225650889E+02  0.61931981753E+02  0.00000000000E+00 0.  1.
         13    1    3    3    0    0 -0.21930113003E+02 -0.13903837225E+02  0.24033834461E+02  0.35381799626E+02  0.00000000000E+00 0. -1.
<mgrwt>
<rscale>  0 0.91834955E+02</rscale>
<asrwt>0</asrwt>
<pdfrwt beam="1">  1        1 0.50093819E-02 0.91834955E+02</pdfrwt>
<pdfrwt beam="2">  1       -1 0.99619691E-02 0.91834955E+02</pdfrwt>
<totfact> 0.86035704E+04</totfact>
</mgrwt>
</event>
<event>
 5    1  0.1242969E+001  0.9050918E+02  0.7546771E-02  0.1301623E+00
         -1   -1    0    0    0  501 -0.00000000000E+00  0.00000000000E+00  0.12326678558E+02  0.12326678558E+02  0.00000000000E+00 0.  1.
          1   -1    0    0  501    0  0.00000000000E+00 -0.00000000000E+00 -0.16614192634E+03  0.16614192634E+03  0.00000000000E+00 0. -1.
         23    2    1    2    0    0  0.00000000000E+00  0.00000000000E+00 -0.15381524778E+03  0.17846860490E+03  0.90509184529E+02 0.  0.
        -11    1    3    3    0    0 -0.28752526220E+02 -0.27657998962E+01 -0.82149114010E+01  0.30030687346E+02  0.00000000000E+00 0.  1.
         11    1    3    3    0    0  0.28752526220E+02  0.27657998962E+01 -0.14560033638E+03  0.14843791755E+03  0.00000000000E+00 0. -1.
<mgrwt>
<rscale>  0 0.90509185E+02</rscale>
<asrwt>0</asrwt>
<pdfrwt beam="2">  1        1 0.25560295E-01 0.90509185E+02</pdfrwt>
<pdfrwt beam="1">  1       -1 0.18964122E-02 0.90509185E+02</pdfrwt>
<totfact> 0.11656257E+05</totfact>
</mgrwt>
</event>
<event>
 5    1  0.1242969E+001  0.9687979E+02  0.7546771E-02  0.1286998E+00
          1   -1    0    0  501    0  0.00000000000E+00  0.00000000000E+00  0.36666489605E+02  0.36666489605E+02  0.00000000000E+00 0. -1.
         -1   -1    0    0    0  501 -0.00000000000E+00 -0.00000000000E+00 -0.63993668987E+02  0.63993668987E+02  0.00000000000E+00 0.  1.
         23    2    1    2    0    0  0.00000000000E+00  0.00000000000E+00 -0.27327179382E+02  0.10066015859E+03  0.96879785275E+02 0.  0.
        -13    1    3    3    0    0 -0.45731753531E+02  0.38130863568E+01  0.24492919096E+01  0.45955760678E+02  0.00000000000E+00 0. -1.
         13    1    3    3    0    0  0.45731753531E+02 -0.38130863568E+01 -0.29776471292E+02  0.54704397915E+02  0.00000000000E+00 0.  1.
<mgrwt>
<rscale>  0 0.96879785E+02</rscale>
<asrwt>0</asrwt>
<pdfrwt beam="1">  1        1 0.56409984E-02 0.96879785E+02</pdfrwt>
<pdfrwt beam="2">  1       -1 0.98451798E-02 0.96879785E+02</pdfrwt>
<totfact> 0.75233010E+04</totfact>
</mgrwt>
</event>
<event>
 5    1  0.1242969E+001  0.9201593E+02  0.7546771E-02  0.1298042E+00
          3   -1    0    0  501    0  0.00000000000E+00  0.00000000000E+00  0.17168419047E+02  0.17168419047E+02  0.00000000000E+00 0. -1.
         -3   -1    0    0    0  501 -0.00000000000E+00 -0.00000000000E+00 -0.12329224594E+03  0.12329224594E+03  0.00000000000E+00 0.  1.
         23    2    1    2    0    0  0.00000000000E+00  0.00000000000E+00 -0.10612382690E+03  0.14046066499E+03  0.92015932177E+02 0.  0.
        -11    1    3    3    0    0  0.28566074667E+02  0.34013619250E+02 -0.34757743799E+02  0.56400777214E+02  0.00000000000E+00 0.  1.
         11    1    3    3    0    0 -0.28566074667E+02 -0.34013619250E+02 -0.71366083096E+02  0.84059887776E+02  0.00000000000E+00 0. -1.
<mgrwt>
<rscale>  0 0.92015932E+02</rscale>
<asrwt>0</asrwt>
<pdfrwt beam="1">  1        3 0.26412952E-02 0.92015932E+02</pdfrwt>
<pdfrwt beam="2">  1       -3 0.18968038E-01 0.92015932E+02</pdfrwt>
<totfact> 0.31118413E+04</totfact>
</mgrwt>
</event>
<event>
 5    1  0.1242969E+001  0.9186404E+02  0.7546771E-02  0.1298399E+00
          4   -1    0    0  501    0  0.00000000000E+00  0.00000000000E+00  0.35091966773E+02  0.35091966773E+02  0.00000000000E+00 0. -1.
         -4   -1    0    0    0  501 -0.00000000000E+00 -0.00000000000E+00 -0.60120611530E+02  0.60120611530E+02  0.00000000000E+00 0.  1.
         23    2    1    2    0    0  0.00000000000E+00  0.00000000000E+00 -0.25028644757E+02  0.95212578303E+02  0.91864040891E+02 0.  0.
        -13    1    3    3    0    0 -0.12301734553E+01 -0.45854735360E+02 -0.10065923084E+02  0.46962675490E+02  0.00000000000E+00 0. -1.
         13    1    3    3    0    0  0.12301734553E+01  0.45854735360E+02 -0.14962721673E+02  0.48249902813E+02  0.00000000000E+00 0.  1.
<mgrwt>
<rscale>  0 0.91864041E+02</rscale>
<asrwt>0</asrwt>
<pdfrwt beam="1">  1        4 0.53987641E-02 0.91864041E+02</pdfrwt>
<pdfrwt beam="2">  1       -4 0.92493248E-02 0.91864041E+02</pdfrwt>
<totfact> 0.26217597E+04</totfact>
</mgrwt>
</event>
<event>
 5    1  0.1242969E+001  0.8214979E+02  0.7546771E-02  0.1323059E+00
          4   -1    0    0  501    0  0.00000000000E+00  0.00000000000E+00  0.39935358177E+02  0.39935358177E+02  0.00000000000E+00 0. -1.
         -4   -1    0    0    0  501 -0.00000000000E+00 -0.00000000000E+00 -0.42246950177E+02  0.42246950177E+02  0.00000000000E+00 0.  1.
         23    2    1    2    0    0  0.00000000000E+00  0.00000000000E+00 -0.23115920001E+01  0.82182308354E+02  0.82149792141E+02 0.  0.
        -11    1    3    3    0    0 -0.30847641645E+02  0.26232089547E+02  0.57351501363E+01  0.40897328325E+02  0.00000000000E+00 0. -1.
         11    1    3    3    0    0  0.30847641645E+02 -0.26232089547E+02 -0.80467421364E+01  0.41284980029E+02  0.00000000000E+00 0.  1.
<mgrwt>
<rscale>  0 0.82149792E+02</rscale>
<asrwt>0</asrwt>
<pdfrwt beam="1">  1        4 0.61439012E-02 0.82149792E+02</pdfrwt>
<pdfrwt beam="2">  1       -4 0.64995308E-02 0.82149792E+02</pdfrwt>
<totfact> 0.36568969E+04</totfact>
</mgrwt>
</event>
<event>
 5    1  0.1242969E+001  0.8472418E+02  0.7546771E-02  0.1316155E+00
          3   -1    0    0  501    0  0.00000000000E+00  0.00000000000E+00  0.71284485778E+01  0.71284485778E+01  0.00000000000E+00 0. -1.
         -3   -1    0    0    0  501 -0.00000000000E+00 -0.00000000000E+00 -0.25174435838E+03  0.25174435838E+03  0.00000000000E+00 0.  1.
         23    2    1    2    0    0  0.00000000000E+00  0.00000000000E+00 -0.24461590980E+03  0.25887280695E+03  0.84724181045E+02 0.  0.
        -13    1    3    3    0    0  0.30992001808E+02 -0.13552993542E+02 -0.44386760975E+02  0.55806561978E+02  0.00000000000E+00 0. -1.
         13    1    3    3    0    0 -0.30992001808E+02  0.13552993542E+02 -0.20022914882E+03  0.20306624498E+03  0.00000000000E+00 0.  1.
<mgrwt>
<rscale>  0 0.84724181E+02</rscale>
<asrwt>0</asrwt>
<pdfrwt beam="1">  1        3 0.10966842E-02 0.84724181E+02</pdfrwt>
<pdfrwt beam="2">  1       -3 0.38729908E-01 0.84724181E+02</pdfrwt>
<totfact> 0.31285940E+04</totfact>
</mgrwt>
</event>
<event>
 5    1  0.1242969E+001  0.9241873E+02  0.7546771E-02  0.1297098E+00
          1   -1    0    0  501    0  0.00000000000E+00  0.00000000000E+00  0.54686482214E+02  0.54686482214E+02  0.00000000000E+00 0. -1.
         -1   -1    0    0    0  501 -0.00000000000E+00 -0.00000000000E+00 -0.39046309677E+02  0.39046309677E+02  0.00000000000E+00 0.  1.
         23    2    1    2    0    0  0.00000000000E+00  0.00000000000E+00  0.15640172537E+02  0.93732791890E+02  0.92418727964E+02 0.  0.
        -11    1    3    3    0    0  0.32151056350E+02  0.53026512745E+01  0.41050208616E+02  0.52411145402E+02  0.00000000000E+00 0.  1.
         11    1    3    3    0    0 -0.32151056350E+02 -0.53026512745E+01 -0.25410036079E+02  0.41321646488E+02  0.00000000000E+00 0. -1.
<mgrwt>
<rscale>  0 0.92418728E+02</rscale>
<asrwt>0</asrwt>
<pdfrwt beam="1">  1        1 0.84133049E-02 0.92418728E+02</pdfrwt>
<pdfrwt beam="2">  1       -1 0.60071246E-02 0.92418728E+02</pdfrwt>
<totfact> 0.91513556E+04</totfact>
</mgrwt>
</event>
<event>
 5    1  0.1242969E+001  0.9053266E+02  0.7546771E-02  0.1301567E+00
          3   -1    0    0  501    0  0.00000000000E+00  0.00000000000E+00  0.14897804550E+03  0.14897804550E+03  0.00000000000E+00 0. -1.
         -3   -1    0    0    0  501 -0.00000000000E+00 -0.00000000000E+00 -0.13753977633E+02  0.13753977633E+02  0.00000000000E+00 0.  1.
         23    2    1    2    0    0  0.00000000000E+00  0.00000000000E+00  0.13522406787E+03  0.16273202314E+03  0.90532661633E+02 0.  0.
        -11    1    3    3    0    0  0.27033447744E+01  0.39131261771E+02  0.10822416867E+03  0.11511313741E+03  0.00000000000E+00 0. -1.
         11    1    3    3    0    0 -0.27033447744E+01 -0.39131261771E+02  0.26999899205E+02  0.47618885727E+02  0.00000000000E+00 0.  1.
<mgrwt>
<rscale>  0 0.90532662E+02</rscale>
<asrwt>0</asrwt>
<pdfrwt beam="1">  1        3 0.22919698E-01 0.90532662E+02</pdfrwt>
<pdfrwt beam="2">  1       -3 0.21159967E-02 0.90532662E+02</pdfrwt>
<totfact> 0.31136609E+04</totfact>
</mgrwt>
</event>
<event>
 5    1  0.1242969E+001  0.8990178E+02  0.7546771E-02  0.1303090E+00
          2   -1    0    0  501    0  0.00000000000E+00  0.00000000000E+00  0.77068189429E+02  0.77068189429E+02  0.00000000000E+00 0. -1.
         -2   -1    0    0    0  501 -0.00000000000E+00 -0.00000000000E+00 -0.26218114550E+02  0.26218114550E+02  0.00000000000E+00 0.  1.
         23    2    1    2    0    0  0.00000000000E+00  0.00000000000E+00  0.50850074879E+02  0.10328630398E+03  0.89901782376E+02 0.  0.
        -11    1    3    3    0    0 -0.43631464140E+02 -0.10506787577E+02  0.22499256357E+02  0.50202726866E+02  0.00000000000E+00 0. -1.
         11    1    3    3    0    0  0.43631464140E+02  0.10506787577E+02  0.28350818523E+02  0.53083577113E+02  0.00000000000E+00 0.  1.
<mgrwt>
<rscale>  0 0.89901782E+02</rscale>
<asrwt>0</asrwt>
<pdfrwt beam="1">  1        2 0.11856644E-01 0.89901782E+02</pdfrwt>
<pdfrwt beam="2">  1       -2 0.40335561E-02 0.89901782E+02</pdfrwt>
<totfact> 0.11817694E+05</totfact>
</mgrwt>
</event>
<event>
 5    1  0.1242969E+001  0.8775731E+02  0.7546771E-02  0.1308375E+00
         -1   -1    0    0    0  501 -0.00000000000E+00  0.00000000000E+00  0.27124089582E+02  0.27124089582E+02  0.00000000000E+00 0.  1.
          1   -1    0    0  501    0  0.00000000000E+00 -0.00000000000E+00 -0.70982521728E+02  0.70982521728E+02  0.00000000000E+00 0. -1.
         23    2    1    2    0    0  0.00000000000E+00  0.00000000000E+00 -0.43858432145E+02  0.98106611310E+02  0.87757308029E+02 0.  0.
        -13    1    3    3    0    0  0.35132552350E+01  0.22502225786E+02  0.19999054590E+02  0.30309327148E+02  0.00000000000E+00 0.  1.
         13    1    3    3    0    0 -0.35132552350E+01 -0.22502225786E+02 -0.63857486735E+02  0.67797284162E+02  0.00000000000E+00 0. -1.
<mgrwt>
<rscale>  0 0.87757308E+02</rscale>
<asrwt>0</asrwt>
<pdfrwt beam="2">  1        1 0.10920388E-01 0.87757308E+02</pdfrwt>
<pdfrwt beam="1">  1       -1 0.41729369E-02 0.87757308E+02</pdfrwt>
<totfact> 0.10982590E+05</totfact>
</mgrwt>
</event>
<event>
 5    1  0.1242969E+001  0.9563792E+02  0.7546771E-02  0.1289746E+00
          4   -1    0    0  501    0  0.00000000000E+00  0.00000000000E+00  0.12931082287E+02  0.12931082287E+02  0.00000000000E+00 0. -1.
         -4   -1    0    0    0  501 -0.00000000000E+00 -0.00000000000E+00 -0.17683385465E+03  0.17683385465E+03  0.00000000000E+00 0.  1.
         23    2    1    2    0    0  0.00000000000E+00  0.00000000000E+00 -0.16390277237E+03  0.18976493694E+03  0.95637923979E+02 0.  0.
        -13    1    3    3    0    0 -0.45098484249E+02  0.57721744135E+01 -0.52556935753E+02  0.69494048485E+02  0.00000000000E+00 0. -1.
         13    1    3    3    0    0  0.45098484249E+02 -0.57721744135E+01 -0.11134583661E+03  0.12027088846E+03  0.00000000000E+00 0.  1.
<mgrwt>
<rscale>  0 0.95637924E+02</rscale>
<asrwt>0</asrwt>
<pdfrwt beam="1">  1        4 0.19893974E-02 0.95637924E+02</pdfrwt>
<pdfrwt beam="2">  1       -4 0.27205207E-01 0.95637924E+02</pdfrwt>
<totfact> 0.19188065E+04</totfact>
</mgrwt>
</event>
<event>
 5    1  0.1242969E+001  0.9073505E+02  0.7546771E-02  0.1301081E+00
         -4   -1    0    0    0  501 -0.00000000000E+00  0.00000000000E+00  0.66142654997E+02  0.66142654997E+02  0.00000000000E+00 0.  1.
          4   -1    0    0  501    0  0.00000000000E+00 -0.00000000000E+00 -0.31117775543E+02  0.31117775543E+02  0.00000000000E+00 0. -1.
         23    2    1    2    0    0  0.00000000000E+00  0.00000000000E+00  0.35024879453E+02  0.97260430540E+02  0.90735049281E+02 0.  0.
        -13    1    3    3    0    0 -0.30092275941E+02  0.92877641080E+01 -0.17491918937E+02  0.36024642421E+02  0.00000000000E+00 0. -1.
         13    1    3    3    0    0  0.30092275941E+02 -0.92877641080E+01  0.52516798390E+02  0.61235788119E+02  0.00000000000E+00 0.  1.
<mgrwt>
<rscale>  0 0.90735049E+02</rscale>
<asrwt>0</asrwt>
<pdfrwt beam="2">  1        4 0.47873501E-02 0.90735049E+02</pdfrwt>
<pdfrwt beam="1">  1       -4 0.10175793E-01 0.90735049E+02</pdfrwt>
<totfact> 0.26981597E+04</totfact>
</mgrwt>
</event>
<event>
 5    1  0.1242969E+001  0.8965932E+02  0.7546771E-02  0.1303679E+00
         -2   -1    0    0    0  501 -0.00000000000E+00  0.00000000000E+00  0.25558060335E+02  0.25558060335E+02  0.00000000000E+00 0. -1.
          2   -1    0    0  501    0  0.00000000000E+00 -0.00000000000E+00 -0.78632659286E+02  0.78632659286E+02  0.00000000000E+00 0.  1.
         23    2    1    2    0    0  0.00000000000E+00  0.00000000000E+00 -0.53074598951E+02  0.10419071962E+03  0.89659316310E+02 0.  0.
        -13    1    3    3    0    0 -0.15846646264E+01  0.33953341070E+02 -0.60504009872E+02  0.69397952004E+02  0.00000000000E+00 0.  1.
         13    1    3    3    0    0  0.15846646264E+01 -0.33953341070E+02  0.74294109211E+01  0.34792767616E+02  0.00000000000E+00 0. -1.
<mgrwt>
<rscale>  0 0.89659316E+02</rscale>
<asrwt>0</asrwt>
<pdfrwt beam="2">  1        2 0.12097332E-01 0.89659316E+02</pdfrwt>
<pdfrwt beam="1">  1       -2 0.39320093E-02 0.89659316E+02</pdfrwt>
<totfact> 0.11974218E+05</totfact>
</mgrwt>
</event>
<event>
 5    1  0.1242969E+001  0.9074538E+02  0.7546771E-02  0.1301057E+00
         -2   -1    0    0    0  501 -0.00000000000E+00  0.00000000000E+00  0.40234082505E+01  0.40234082505E+01  0.00000000000E+00 0.  1.
          2   -1    0    0  501    0  0.00000000000E+00 -0.00000000000E+00 -0.51167591978E+03  0.51167591978E+03  0.00000000000E+00 0. -1.
         23    2    1    2    0    0  0.00000000000E+00  0.00000000000E+00 -0.50765251153E+03  0.51569932803E+03  0.90745382631E+02 0.  0.
        -13    1    3    3    0    0 -0.10565449449E+02 -0.43992124238E+02 -0.27330253255E+03  0.27702203886E+03  0.00000000000E+00 0. -1.
         13    1    3    3    0    0  0.10565449449E+02  0.43992124238E+02 -0.23434997898E+03  0.23867728917E+03  0.00000000000E+00 0.  1.
<mgrwt>
<rscale>  0 0.90745383E+02</rscale>
<asrwt>0</asrwt>
<pdfrwt beam="2">  1        2 0.78719356E-01 0.90745383E+02</pdfrwt>
<pdfrwt beam="1">  1       -2 0.61898601E-03 0.90745383E+02</pdfrwt>
<totfact> 0.21984902E+05</totfact>
</mgrwt>
</event>
<event>
 5    1  0.1242969E+001  0.8621826E+02  0.7546771E-02  0.1312277E+00
         -2   -1    0    0    0  501 -0.00000000000E+00  0.00000000000E+00  0.14936066716E+02  0.14936066716E+02  0.00000000000E+00 0.  1.
          2   -1    0    0  501    0  0.00000000000E+00 -0.00000000000E+00 -0.12442346128E+03  0.12442346128E+03  0.00000000000E+00 0. -1.
         23    2    1    2    0    0  0.00000000000E+00  0.00000000000E+00 -0.10948739456E+03  0.13935952799E+03  0.86218260680E+02 0.  0.
        -11    1    3    3    0    0 -0.15627763995E+02 -0.40163680251E+02 -0.56399102905E+02  0.70980328453E+02  0.00000000000E+00 0. -1.
         11    1    3    3    0    0  0.15627763995E+02  0.40163680251E+02 -0.53088291657E+02  0.68379199540E+02  0.00000000000E+00 0.  1.
<mgrwt>
<rscale>  0 0.86218261E+02</rscale>
<asrwt>0</asrwt>
<pdfrwt beam="2">  1        2 0.19142071E-01 0.86218261E+02</pdfrwt>
<pdfrwt beam="1">  1       -2 0.22978564E-02 0.86218261E+02</pdfrwt>
<totfact> 0.15295703E+05</totfact>
</mgrwt>
</event>
<event>
 5    1  0.1242969E+001  0.8674749E+02  0.7546771E-02  0.1310925E+00
         -2   -1    0    0    0  501 -0.00000000000E+00  0.00000000000E+00  0.23256932289E+03  0.23256932289E+03  0.00000000000E+00 0.  1.
          2   -1    0    0  501    0  0.00000000000E+00 -0.00000000000E+00 -0.80891228812E+01  0.80891228812E+01  0.00000000000E+00 0. -1.
         23    2    1    2    0    0  0.00000000000E+00  0.00000000000E+00  0.22448020001E+03  0.24065844577E+03  0.86747491751E+02 0.  0.
        -13    1    3    3    0    0 -0.40748903668E+01  0.42567094794E+02  0.13238337074E+03  0.13911836377E+03  0.00000000000E+00 0. -1.
         13    1    3    3    0    0  0.40748903668E+01 -0.42567094794E+02  0.92096829271E+02  0.10154008200E+03  0.00000000000E+00 0.  1.
<mgrwt>
<rscale>  0 0.86747492E+02</rscale>
<asrwt>0</asrwt>
<pdfrwt beam="2">  1        2 0.12444806E-02 0.86747492E+02</pdfrwt>
<pdfrwt beam="1">  1       -2 0.35779891E-01 0.86747492E+02</pdfrwt>
<totfact> 0.66099350E+04</totfact>
</mgrwt>
</event>
<event>
 5    1  0.1242969E+001  0.9033062E+02  0.7546771E-02  0.1302053E+00
         -1   -1    0    0    0  501 -0.00000000000E+00  0.00000000000E+00  0.23684225310E+02  0.23684225310E+02  0.00000000000E+00 0.  1.
          1   -1    0    0  501    0  0.00000000000E+00 -0.00000000000E+00 -0.86129283608E+02  0.86129283608E+02  0.00000000000E+00 0. -1.
         23    2    1    2    0    0  0.00000000000E+00  0.00000000000E+00 -0.62445058298E+02  0.10981350892E+03  0.90330622909E+02 0.  0.
        -13    1    3    3    0    0 -0.26042102909E+02  0.16144416345E+02  0.91167965378E+01  0.31967941475E+02  0.00000000000E+00 0.  1.
         13    1    3    3    0    0  0.26042102909E+02 -0.16144416345E+02 -0.71561854836E+02  0.77845567444E+02  0.00000000000E+00 0. -1.
<mgrwt>
<rscale>  0 0.90330623E+02</rscale>
<asrwt>0</asrwt>
<pdfrwt beam="2">  1        1 0.13250659E-01 0.90330623E+02</pdfrwt>
<pdfrwt beam="1">  1       -1 0.36437269E-02 0.90330623E+02</pdfrwt>
<totfact> 0.10456752E+05</totfact>
</mgrwt>
</event>
<event>
 5    1  0.1242969E+001  0.9272071E+02  0.7546771E-02  0.1296394E+00
          1   -1    0    0  501    0  0.00000000000E+00  0.00000000000E+00  0.20760485506E+02  0.20760485506E+02  0.00000000000E+00 0. -1.
         -1   -1    0    0    0  501 -0.00000000000E+00 -0.00000000000E+00 -0.10352755838E+03  0.10352755838E+03  0.00000000000E+00 0.  1.
         23    2    1    2    0    0  0.00000000000E+00  0.00000000000E+00 -0.82767072878E+02  0.12428804389E+03  0.92720706971E+02 0.  0.
        -13    1    3    3    0    0  0.30995965095E+02 -0.33146197400E+02 -0.54090475618E+02  0.70605947390E+02  0.00000000000E+00 0.  1.
         13    1    3    3    0    0 -0.30995965095E+02  0.33146197400E+02 -0.28676597260E+02  0.53682096500E+02  0.00000000000E+00 0. -1.
<mgrwt>
<rscale>  0 0.92720707E+02</rscale>
<asrwt>0</asrwt>
<pdfrwt beam="1">  1        1 0.31939209E-02 0.92720707E+02</pdfrwt>
<pdfrwt beam="2">  1       -1 0.15927316E-01 0.92720707E+02</pdfrwt>
<totfact> 0.77415219E+04</totfact>
</mgrwt>
</event>
<event>
 5    1  0.1242969E+001  0.9082406E+02  0.7546771E-02  0.1300868E+00
          1   -1    0    0  501    0  0.00000000000E+00  0.00000000000E+00  0.21154517986E+03  0.21154517986E+03  0.00000000000E+00 0. -1.
         -1   -1    0    0    0  501 -0.00000000000E+00 -0.00000000000E+00 -0.97485201301E+01  0.97485201301E+01  0.00000000000E+00 0.  1.
         23    2    1    2    0    0  0.00000000000E+00  0.00000000000E+00  0.20179665973E+03  0.22129369999E+03  0.90824059462E+02 0.  0.
        -11    1    3    3    0    0 -0.32942807137E+02  0.28744024802E+02  0.70977342165E+02  0.83362045349E+02  0.00000000000E+00 0.  1.
         11    1    3    3    0    0  0.32942807137E+02 -0.28744024802E+02  0.13081931757E+03  0.13793165464E+03  0.00000000000E+00 0. -1.
<mgrwt>
<rscale>  0 0.90824059E+02</rscale>
<asrwt>0</asrwt>
<pdfrwt beam="1">  1        1 0.32545409E-01 0.90824059E+02</pdfrwt>
<pdfrwt beam="2">  1       -1 0.14997725E-02 0.90824059E+02</pdfrwt>
<totfact> 0.12095429E+05</totfact>
</mgrwt>
</event>
<event>
 5    1  0.1242969E+001  0.9075654E+02  0.7546771E-02  0.1301030E+00
          1   -1    0    0  501    0  0.00000000000E+00  0.00000000000E+00  0.63536128638E+01  0.63536128638E+01  0.00000000000E+00 0. -1.
         -1   -1    0    0    0  501 -0.00000000000E+00 -0.00000000000E+00 -0.32409707283E+03  0.32409707283E+03  0.00000000000E+00 0.  1.
         23    2    1    2    0    0  0.00000000000E+00  0.00000000000E+00 -0.31774345997E+03  0.33045068570E+03  0.90756538741E+02 0.  0.
        -11    1    3    3    0    0 -0.23791529448E+02  0.37354584223E+02 -0.19487699007E+03  0.19984604848E+03  0.00000000000E+00 0.  1.
         11    1    3    3    0    0  0.23791529448E+02 -0.37354584223E+02 -0.12286646990E+03  0.13060463722E+03  0.00000000000E+00 0. -1.
<mgrwt>
<rscale>  0 0.90756539E+02</rscale>
<asrwt>0</asrwt>
<pdfrwt beam="1">  1        1 0.97747879E-03 0.90756539E+02</pdfrwt>
<pdfrwt beam="2">  1       -1 0.49861094E-01 0.90756539E+02</pdfrwt>
<totfact> 0.59426770E+04</totfact>
</mgrwt>
</event>
<event>
 5    1  0.1242969E+001  0.9190933E+02  0.7546771E-02  0.1298293E+00
          2   -1    0    0  501    0  0.00000000000E+00  0.00000000000E+00  0.12223501636E+02  0.12223501636E+02  0.00000000000E+00 0. -1.
         -2   -1    0    0    0  501 -0.00000000000E+00 -0.00000000000E+00 -0.17276810984E+03  0.17276810984E+03  0.00000000000E+00 0.  1.
         23    2    1    2    0    0  0.00000000000E+00  0.00000000000E+00 -0.16054460820E+03  0.18499161148E+03  0.91909330829E+02 0.  0.
        -11    1    3    3    0    0  0.43321712134E+01 -0.26350210374E+02 -0.15554879628E+03  0.15782436224E+03  0.00000000000E+00 0.  1.
         11    1    3    3    0    0 -0.43321712134E+01  0.26350210374E+02 -0.49958119283E+01  0.27167249235E+02  0.00000000000E+00 0. -1.
<mgrwt>
<rscale>  0 0.91909331E+02</rscale>
<asrwt>0</asrwt>
<pdfrwt beam="1">  1        2 0.18805387E-02 0.91909331E+02</pdfrwt>
<pdfrwt beam="2">  1       -2 0.26579710E-01 0.91909331E+02</pdfrwt>
<totfact> 0.64876779E+04</totfact>
</mgrwt>
</event>
<event>
 5    1  0.1242969E+001  0.9041609E+02  0.7546771E-02  0.1301847E+00
         -2   -1    0    0    0  501 -0.00000000000E+00  0.00000000000E+00  0.19568117334E+02  0.19568117334E+02  0.00000000000E+00 0.  1.
          2   -1    0    0  501    0  0.00000000000E+00 -0.00000000000E+00 -0.10444374182E+03  0.10444374182E+03  0.00000000000E+00 0. -1.
         23    2    1    2    0    0  0.00000000000E+00  0.00000000000E+00 -0.84875624490E+02  0.12401185916E+03  0.90416091374E+02 0.  0.
        -13    1    3    3    0    0  0.26918569279E+02 -0.26230112425E+02 -0.79806049498E+01  0.38422886738E+02  0.00000000000E+00 0. -1.
         13    1    3    3    0    0 -0.26918569279E+02  0.26230112425E+02 -0.76895019540E+02  0.85588972420E+02  0.00000000000E+00 0.  1.
<mgrwt>
<rscale>  0 0.90416091E+02</rscale>
<asrwt>0</asrwt>
<pdfrwt beam="2">  1        2 0.16068268E-01 0.90416091E+02</pdfrwt>
<pdfrwt beam="1">  1       -2 0.30104796E-02 0.90416091E+02</pdfrwt>
<totfact> 0.12721371E+05</totfact>
</mgrwt>
</event>
<event>
 5    1  0.1242969E+001  0.9171649E+02  0.7546771E-02  0.1298747E+00
          2   -1    0    0  501    0  0.00000000000E+00  0.00000000000E+00  0.40781256895E+02  0.40781256895E+02  0.00000000000E+00 0. -1.
         -2   -1    0    0    0  501 -0.00000000000E+00 -0.00000000000E+00 -0.51567286495E+02  0.51567286495E+02  0.00000000000E+00 0.  1.
         23    2    1    2    0    0  0.00000000000E+00  0.00000000000E+00 -0.10786029600E+02  0.92348543390E+02  0.91716492692E+02 0.  0.
        -13    1    3    3    0    0  0.12293795536E+02  0.12715916788E+02  0.37208685764E+02  0.41198522361E+02  0.00000000000E+00 0. -1.
         13    1    3    3    0    0 -0.12293795536E+02 -0.12715916788E+02 -0.47994715364E+02  0.51150021029E+02  0.00000000000E+00 0.  1.
<mgrwt>
<rscale>  0 0.91716493E+02</rscale>
<asrwt>0</asrwt>
<pdfrwt beam="1">  1        2 0.62740395E-02 0.91716493E+02</pdfrwt>
<pdfrwt beam="2">  1       -2 0.79334287E-02 0.91716493E+02</pdfrwt>
<totfact> 0.94242054E+04</totfact>
</mgrwt>
</event>
<event>
 5    1  0.1242969E+001  0.9108547E+02  0.7546771E-02  0.1300244E+00
          1   -1    0    0  501    0  0.00000000000E+00  0.00000000000E+00  0.87337538951E+02  0.87337538951E+02  0.00000000000E+00 0. -1.
         -1   -1    0    0    0  501 -0.00000000000E+00 -0.00000000000E+00 -0.23748561484E+02  0.23748561484E+02  0.00000000000E+00 0.  1.
         23    2    1    2    0    0  0.00000000000E+00  0.00000000000E+00  0.63588977467E+02  0.11108610043E+03  0.91085474443E+02 0.  0.
        -13    1    3    3    0    0  0.11191885996E+02  0.41915156899E+02  0.48693594575E+02  0.65216599441E+02  0.00000000000E+00 0. -1.
         13    1    3    3    0    0 -0.11191885996E+02 -0.41915156899E+02  0.14895382892E+02  0.45869500994E+02  0.00000000000E+00 0.  1.
<mgrwt>
<rscale>  0 0.91085474E+02</rscale>
<asrwt>0</asrwt>
<pdfrwt beam="1">  1        1 0.13436544E-01 0.91085474E+02</pdfrwt>
<pdfrwt beam="2">  1       -1 0.36536249E-02 0.91085474E+02</pdfrwt>
<totfact> 0.10244435E+05</totfact>
</mgrwt>
</event>
<event>
 5    1  0.1242969E+001  0.9099823E+02  0.7546771E-02  0.1300452E+00
          2   -1    0    0  501    0  0.00000000000E+00  0.00000000000E+00  0.13482735436E+03  0.13482735436E+03  0.00000000000E+00 0.  1.
         -2   -1    0    0    0  501 -0.00000000000E+00 -0.00000000000E+00 -0.15354225938E+02  0.15354225938E+02  0.00000000000E+00 0. -1.
         23    2    1    2    0    0  0.00000000000E+00  0.00000000000E+00  0.11947312843E+03  0.15018158030E+03  0.90998234303E+02 0.  0.
        -13    1    3    3    0    0  0.22326199686E+02  0.21799091680E+02  0.50865830154E+01  0.31615390512E+02  0.00000000000E+00 0. -1.
         13    1    3    3    0    0 -0.22326199686E+02 -0.21799091680E+02  0.11438654541E+03  0.11856618979E+03  0.00000000000E+00 0.  1.
<mgrwt>
<rscale>  0 0.90998234E+02</rscale>
<asrwt>0</asrwt>
<pdfrwt beam="1">  1        2 0.20742669E-01 0.90998234E+02</pdfrwt>
<pdfrwt beam="2">  1       -2 0.23621887E-02 0.90998234E+02</pdfrwt>
<totfact> 0.13561493E+05</totfact>
</mgrwt>
</event>
<event>
 5    1  0.1242969E+001  0.9258981E+02  0.7546771E-02  0.1296699E+00
         -1   -1    0    0    0  501 -0.00000000000E+00  0.00000000000E+00  0.86093758554E+02  0.86093758554E+02  0.00000000000E+00 0.  1.
          1   -1    0    0  501    0  0.00000000000E+00 -0.00000000000E+00 -0.24894004033E+02  0.24894004033E+02  0.00000000000E+00 0. -1.
         23    2    1    2    0    0  0.00000000000E+00  0.00000000000E+00  0.61199754522E+02  0.11098776259E+03  0.92589813104E+02 0.  0.
        -13    1    3    3    0    0  0.44647708948E+02  0.11888421009E+02  0.34087653100E+02  0.57417075529E+02  0.00000000000E+00 0. -1.
         13    1    3    3    0    0 -0.44647708948E+02 -0.11888421009E+02  0.27112101421E+02  0.53570687058E+02  0.00000000000E+00 0.  1.
<mgrwt>
<rscale>  0 0.92589813E+02</rscale>
<asrwt>0</asrwt>
<pdfrwt beam="2">  1        1 0.38298468E-02 0.92589813E+02</pdfrwt>
<pdfrwt beam="1">  1       -1 0.13245193E-01 0.92589813E+02</pdfrwt>
<totfact> 0.80354241E+04</totfact>
</mgrwt>
</event>
<event>
 5    1  0.1242969E+001  0.8686145E+02  0.7546771E-02  0.1310635E+00
          4   -1    0    0  501    0  0.00000000000E+00  0.00000000000E+00  0.25310295226E+03  0.25310295226E+03  0.00000000000E+00 0. -1.
         -4   -1    0    0    0  501 -0.00000000000E+00 -0.00000000000E+00 -0.74524140012E+01  0.74524140012E+01  0.00000000000E+00 0.  1.
         23    2    1    2    0    0  0.00000000000E+00  0.00000000000E+00  0.24565053826E+03  0.26055536626E+03  0.86861452559E+02 0.  0.
        -13    1    3    3    0    0 -0.19281346995E+02 -0.37871778470E+02  0.14968627762E+03  0.15560213255E+03  0.00000000000E+00 0. -1.
         13    1    3    3    0    0  0.19281346995E+02  0.37871778470E+02  0.95964260634E+02  0.10495323371E+03  0.00000000000E+00 0.  1.
<mgrwt>
<rscale>  0 0.86861453E+02</rscale>
<asrwt>0</asrwt>
<pdfrwt beam="1">  1        4 0.38938909E-01 0.86861453E+02</pdfrwt>
<pdfrwt beam="2">  1       -4 0.11465254E-02 0.86861453E+02</pdfrwt>
<totfact> 0.21715657E+04</totfact>
</mgrwt>
</event>
<event>
 5    1  0.1242969E+001  0.8778362E+02  0.7546771E-02  0.1308309E+00
         -2   -1    0    0    0  501 -0.00000000000E+00  0.00000000000E+00  0.28570721711E+02  0.28570721711E+02  0.00000000000E+00 0.  1.
          2   -1    0    0  501    0  0.00000000000E+00 -0.00000000000E+00 -0.67428853691E+02  0.67428853691E+02  0.00000000000E+00 0. -1.
         23    2    1    2    0    0  0.00000000000E+00  0.00000000000E+00 -0.38858131980E+02  0.95999575402E+02  0.87783620662E+02 0.  0.
        -13    1    3    3    0    0 -0.28138287545E+02  0.13366008001E+02  0.14385389503E+02  0.34312575348E+02  0.00000000000E+00 0.  1.
         13    1    3    3    0    0  0.28138287545E+02 -0.13366008001E+02 -0.53243521483E+02  0.61687000054E+02  0.00000000000E+00 0. -1.
<mgrwt>
<rscale>  0 0.87783621E+02</rscale>
<asrwt>0</asrwt>
<pdfrwt beam="2">  1        2 0.10373670E-01 0.87783621E+02</pdfrwt>
<pdfrwt beam="1">  1       -2 0.43954957E-02 0.87783621E+02</pdfrwt>
<totfact> 0.12171111E+05</totfact>
</mgrwt>
</event>
<event>
 5    1  0.1242969E+001  0.9291476E+02  0.7546771E-02  0.1295943E+00
          1   -1    0    0  501    0  0.00000000000E+00  0.00000000000E+00  0.46344260501E+02  0.46344260501E+02  0.00000000000E+00 0. -1.
         -1   -1    0    0    0  501 -0.00000000000E+00 -0.00000000000E+00 -0.46570778008E+02  0.46570778008E+02  0.00000000000E+00 0.  1.
         23    2    1    2    0    0  0.00000000000E+00  0.00000000000E+00 -0.22651750705E+00  0.92915038510E+02  0.92914762396E+02 0.  0.
        -11    1    3    3    0    0  0.14141137560E+02 -0.16820473966E+02 -0.41044886004E+02  0.46557306440E+02  0.00000000000E+00 0.  1.
         11    1    3    3    0    0 -0.14141137560E+02  0.16820473966E+02  0.40818368497E+02  0.46357732070E+02  0.00000000000E+00 0. -1.
<mgrwt>
<rscale>  0 0.92914762E+02</rscale>
<asrwt>0</asrwt>
<pdfrwt beam="1">  1        1 0.71298863E-02 0.92914762E+02</pdfrwt>
<pdfrwt beam="2">  1       -1 0.71647350E-02 0.92914762E+02</pdfrwt>
<totfact> 0.87907862E+04</totfact>
</mgrwt>
</event>
<event>
 5    1  0.1242969E+001  0.7560557E+02  0.7546771E-02  0.1342006E+00
          1   -1    0    0  501    0  0.00000000000E+00  0.00000000000E+00  0.24286439898E+02  0.24286439898E+02  0.00000000000E+00 0. -1.
         -1   -1    0    0    0  501 -0.00000000000E+00 -0.00000000000E+00 -0.58841500752E+02  0.58841500752E+02  0.00000000000E+00 0.  1.
         23    2    1    2    0    0  0.00000000000E+00  0.00000000000E+00 -0.34555060854E+02  0.83127940649E+02  0.75605570469E+02 0.  0.
        -13    1    3    3    0    0 -0.12491192401E+02 -0.14777371091E+02  0.18428979512E+02  0.26721299928E+02  0.00000000000E+00 0. -1.
         13    1    3    3    0    0  0.12491192401E+02  0.14777371091E+02 -0.52984040366E+02  0.56406640722E+02  0.00000000000E+00 0.  1.
<mgrwt>
<rscale>  0 0.75605570E+02</rscale>
<asrwt>0</asrwt>
<pdfrwt beam="1">  1        1 0.37363754E-02 0.75605570E+02</pdfrwt>
<pdfrwt beam="2">  1       -1 0.90525385E-02 0.75605570E+02</pdfrwt>
<totfact> 0.14284962E+05</totfact>
</mgrwt>
</event>
<event>
 5    1  0.1242969E+001  0.9015703E+02  0.7546771E-02  0.1302472E+00
         -4   -1    0    0    0  501 -0.00000000000E+00  0.00000000000E+00  0.42518126938E+02  0.42518126938E+02  0.00000000000E+00 0.  1.
          4   -1    0    0  501    0  0.00000000000E+00 -0.00000000000E+00 -0.47793091597E+02  0.47793091597E+02  0.00000000000E+00 0. -1.
         23    2    1    2    0    0  0.00000000000E+00  0.00000000000E+00 -0.52749646590E+01  0.90311218534E+02  0.90157034895E+02 0.  0.
        -11    1    3    3    0    0 -0.18311735698E+01  0.10217501573E+02  0.41304634770E+02  0.42589005488E+02  0.00000000000E+00 0.  1.
         11    1    3    3    0    0  0.18311735698E+01 -0.10217501573E+02 -0.46579599429E+02  0.47722213046E+02  0.00000000000E+00 0. -1.
<mgrwt>
<rscale>  0 0.90157035E+02</rscale>
<asrwt>0</asrwt>
<pdfrwt beam="2">  1        4 0.73527833E-02 0.90157035E+02</pdfrwt>
<pdfrwt beam="1">  1       -4 0.65412503E-02 0.90157035E+02</pdfrwt>
<totfact> 0.27909794E+04</totfact>
</mgrwt>
</event>
<event>
 5    1  0.1242969E+001  0.9121414E+02  0.7546771E-02  0.1299938E+00
         -4   -1    0    0    0  501 -0.00000000000E+00  0.00000000000E+00  0.11173585759E+02  0.11173585759E+02  0.00000000000E+00 0.  1.
          4   -1    0    0  501    0  0.00000000000E+00 -0.00000000000E+00 -0.18615376428E+03  0.18615376428E+03  0.00000000000E+00 0. -1.
         23    2    1    2    0    0  0.00000000000E+00  0.00000000000E+00 -0.17498017853E+03  0.19732735004E+03  0.91214144728E+02 0.  0.
        -11    1    3    3    0    0 -0.27490057701E+02  0.45157732881E+01 -0.16560767803E+03  0.16793450659E+03  0.00000000000E+00 0. -1.
         11    1    3    3    0    0  0.27490057701E+02 -0.45157732881E+01 -0.93725004960E+01  0.29392843455E+02  0.00000000000E+00 0.  1.
<mgrwt>
<rscale>  0 0.91214145E+02</rscale>
<asrwt>0</asrwt>
<pdfrwt beam="2">  1        4 0.28639041E-01 0.91214145E+02</pdfrwt>
<pdfrwt beam="1">  1       -4 0.17190132E-02 0.91214145E+02</pdfrwt>
<totfact> 0.21474769E+04</totfact>
</mgrwt>
</event>
<event>
 5    1  0.1242969E+001  0.9026095E+02  0.7546771E-02  0.1302221E+00
          1   -1    0    0  501    0  0.00000000000E+00  0.00000000000E+00  0.10138580378E+02  0.10138580378E+02  0.00000000000E+00 0. -1.
         -1   -1    0    0    0  501 -0.00000000000E+00 -0.00000000000E+00 -0.20089202717E+03  0.20089202717E+03  0.00000000000E+00 0.  1.
         23    2    1    2    0    0  0.00000000000E+00  0.00000000000E+00 -0.19075344679E+03  0.21103060754E+03  0.90260954234E+02 0.  0.
        -11    1    3    3    0    0  0.18408146210E+02  0.22853473538E+02 -0.17554061682E+03  0.17797654130E+03  0.00000000000E+00 0.  1.
         11    1    3    3    0    0 -0.18408146210E+02 -0.22853473538E+02 -0.15212829967E+02  0.33054066243E+02  0.00000000000E+00 0. -1.
<mgrwt>
<rscale>  0 0.90260954E+02</rscale>
<asrwt>0</asrwt>
<pdfrwt beam="1">  1        1 0.15597816E-02 0.90260954E+02</pdfrwt>
<pdfrwt beam="2">  1       -1 0.30906465E-01 0.90260954E+02</pdfrwt>
<totfact> 0.71182607E+04</totfact>
</mgrwt>
</event>
<event>
 5    1  0.1242969E+001  0.9581269E+02  0.7546771E-02  0.1289356E+00
         -4   -1    0    0    0  501 -0.00000000000E+00  0.00000000000E+00  0.21708573638E+02  0.21708573638E+02  0.00000000000E+00 0.  1.
          4   -1    0    0  501    0  0.00000000000E+00 -0.00000000000E+00 -0.10571941910E+03  0.10571941910E+03  0.00000000000E+00 0. -1.
         23    2    1    2    0    0  0.00000000000E+00  0.00000000000E+00 -0.84010845465E+02  0.12742799274E+03  0.95812687981E+02 0.  0.
        -11    1    3    3    0    0 -0.41601897503E+02 -0.51796007857E+01 -0.11172151711E+02  0.43386208800E+02  0.00000000000E+00 0.  1.
         11    1    3    3    0    0  0.41601897503E+02  0.51796007857E+01 -0.72838693754E+02  0.84041783941E+02  0.00000000000E+00 0. -1.
<mgrwt>
<rscale>  0 0.95812688E+02</rscale>
<asrwt>0</asrwt>
<pdfrwt beam="2">  1        4 0.16264526E-01 0.95812688E+02</pdfrwt>
<pdfrwt beam="1">  1       -4 0.33397805E-02 0.95812688E+02</pdfrwt>
<totfact> 0.21729239E+04</totfact>
</mgrwt>
</event>
<event>
 5    1  0.1242969E+001  0.9343261E+02  0.7546771E-02  0.1294746E+00
          2   -1    0    0  501    0  0.00000000000E+00  0.00000000000E+00  0.24059134918E+02  0.24059134918E+02  0.00000000000E+00 0. -1.
         -2   -1    0    0    0  501 -0.00000000000E+00 -0.00000000000E+00 -0.90710381680E+02  0.90710381680E+02  0.00000000000E+00 0.  1.
         23    2    1    2    0    0  0.00000000000E+00  0.00000000000E+00 -0.66651246762E+02  0.11476951660E+03  0.93432613393E+02 0.  0.
        -13    1    3    3    0    0 -0.66412613395E+01  0.39906882778E+02 -0.62021797536E+02  0.74049773902E+02  0.00000000000E+00 0.  1.
         13    1    3    3    0    0  0.66412613395E+01 -0.39906882778E+02 -0.46294492256E+01  0.40719742697E+02  0.00000000000E+00 0. -1.
<mgrwt>
<rscale>  0 0.93432613E+02</rscale>
<asrwt>0</asrwt>
<pdfrwt beam="1">  1        2 0.37014054E-02 0.93432613E+02</pdfrwt>
<pdfrwt beam="2">  1       -2 0.13955443E-01 0.93432613E+02</pdfrwt>
<totfact> 0.77295324E+04</totfact>
</mgrwt>
</event>
<event>
 5    1  0.1242969E+001  0.9152943E+02  0.7546771E-02  0.1299190E+00
         -2   -1    0    0    0  501 -0.00000000000E+00  0.00000000000E+00  0.34565057379E+02  0.34565057379E+02  0.00000000000E+00 0.  1.
          2   -1    0    0  501    0  0.00000000000E+00 -0.00000000000E+00 -0.60593242899E+02  0.60593242899E+02  0.00000000000E+00 0. -1.
         23    2    1    2    0    0  0.00000000000E+00  0.00000000000E+00 -0.26028185520E+02  0.95158300277E+02  0.91529425160E+02 0.  0.
        -11    1    3    3    0    0  0.33267322488E+02  0.68284893741E+01  0.18878950412E+02  0.38855601672E+02  0.00000000000E+00 0.  1.
         11    1    3    3    0    0 -0.33267322488E+02 -0.68284893741E+01 -0.44907135932E+02  0.56302698605E+02  0.00000000000E+00 0. -1.
<mgrwt>
<rscale>  0 0.91529425E+02</rscale>
<asrwt>0</asrwt>
<pdfrwt beam="2">  1        2 0.93220373E-02 0.91529425E+02</pdfrwt>
<pdfrwt beam="1">  1       -2 0.53177012E-02 0.91529425E+02</pdfrwt>
<totfact> 0.10519755E+05</totfact>
</mgrwt>
</event>
<event>
 5    1  0.1242969E+001  0.9100036E+02  0.7546771E-02  0.1300447E+00
         -2   -1    0    0    0  501 -0.00000000000E+00  0.00000000000E+00  0.39603138319E+02  0.39603138319E+02  0.00000000000E+00 0.  1.
          2   -1    0    0  501    0  0.00000000000E+00 -0.00000000000E+00 -0.52275308918E+02  0.52275308918E+02  0.00000000000E+00 0. -1.
         23    2    1    2    0    0  0.00000000000E+00  0.00000000000E+00 -0.12672170599E+02  0.91878447237E+02  0.91000358015E+02 0.  0.
        -13    1    3    3    0    0  0.41031281758E+02 -0.14813836168E+02  0.67212396711E+01  0.44138315412E+02  0.00000000000E+00 0.  1.
         13    1    3    3    0    0 -0.41031281758E+02  0.14813836168E+02 -0.19393410270E+02  0.47740131824E+02  0.00000000000E+00 0. -1.
<mgrwt>
<rscale>  0 0.91000358E+02</rscale>
<asrwt>0</asrwt>
<pdfrwt beam="2">  1        2 0.80423552E-02 0.91000358E+02</pdfrwt>
<pdfrwt beam="1">  1       -2 0.60927905E-02 0.91000358E+02</pdfrwt>
<totfact> 0.10282822E+05</totfact>
</mgrwt>
</event>
<event>
 5    1  0.1242969E+001  0.9101291E+02  0.7546771E-02  0.1300417E+00
          1   -1    0    0  501    0  0.00000000000E+00  0.00000000000E+00  0.16143965447E+03  0.16143965447E+03  0.00000000000E+00 0. -1.
         -1   -1    0    0    0  501 -0.00000000000E+00 -0.00000000000E+00 -0.12827315237E+02  0.12827315237E+02  0.00000000000E+00 0.  1.
         23    2    1    2    0    0  0.00000000000E+00  0.00000000000E+00  0.14861233923E+03  0.17426696971E+03  0.91012907650E+02 0.  0.
        -13    1    3    3    0    0  0.28808018828E+02 -0.30229532197E+02  0.39675609615E+02  0.57601046553E+02  0.00000000000E+00 0.  1.
         13    1    3    3    0    0 -0.28808018828E+02  0.30229532197E+02  0.10893672962E+03  0.11666592316E+03  0.00000000000E+00 0. -1.
<mgrwt>
<rscale>  0 0.91012908E+02</rscale>
<asrwt>0</asrwt>
<pdfrwt beam="1">  1        1 0.24836868E-01 0.91012908E+02</pdfrwt>
<pdfrwt beam="2">  1       -1 0.19734332E-02 0.91012908E+02</pdfrwt>
<totfact> 0.11422220E+05</totfact>
</mgrwt>
</event>
<event>
 5    1  0.1242969E+001  0.8982448E+02  0.7546771E-02  0.1303277E+00
         -2   -1    0    0    0  501 -0.00000000000E+00  0.00000000000E+00  0.30535938894E+02  0.30535938894E+02  0.00000000000E+00 0.  1.
          2   -1    0    0  501    0  0.00000000000E+00 -0.00000000000E+00 -0.66056892791E+02  0.66056892791E+02  0.00000000000E+00 0. -1.
         23    2    1    2    0    0  0.00000000000E+00  0.00000000000E+00 -0.35520953897E+02  0.96592831684E+02  0.89824478663E+02 0.  0.
        -13    1    3    3    0    0 -0.16820571293E+02  0.23734290189E+02 -0.54556669258E+02  0.61827811783E+02  0.00000000000E+00 0. -1.
         13    1    3    3    0    0  0.16820571293E+02 -0.23734290189E+02  0.19035715361E+02  0.34765019901E+02  0.00000000000E+00 0.  1.
<mgrwt>
<rscale>  0 0.89824479E+02</rscale>
<asrwt>0</asrwt>
<pdfrwt beam="2">  1        2 0.10162599E-01 0.89824479E+02</pdfrwt>
<pdfrwt beam="1">  1       -2 0.46978369E-02 0.89824479E+02</pdfrwt>
<totfact> 0.11352053E+05</totfact>
</mgrwt>
</event>
<event>
 5    1  0.1242969E+001  0.9079443E+02  0.7546771E-02  0.1300939E+00
          1   -1    0    0  501    0  0.00000000000E+00  0.00000000000E+00  0.30990661222E+03  0.30990661222E+03  0.00000000000E+00 0. -1.
         -1   -1    0    0    0  501 -0.00000000000E+00 -0.00000000000E+00 -0.66500906432E+01  0.66500906432E+01  0.00000000000E+00 0.  1.
         23    2    1    2    0    0  0.00000000000E+00  0.00000000000E+00  0.30325652158E+03  0.31655670286E+03  0.90794428512E+02 0.  0.
        -13    1    3    3    0    0  0.17143122315E+02 -0.36340461391E+02  0.77965130821E+02  0.87710189835E+02  0.00000000000E+00 0.  1.
         13    1    3    3    0    0 -0.17143122315E+02  0.36340461391E+02  0.22529139076E+03  0.22884651303E+03  0.00000000000E+00 0. -1.
<mgrwt>
<rscale>  0 0.90794429E+02</rscale>
<asrwt>0</asrwt>
<pdfrwt beam="1">  1        1 0.47677929E-01 0.90794429E+02</pdfrwt>
<pdfrwt beam="2">  1       -1 0.10230911E-02 0.90794429E+02</pdfrwt>
<totfact> 0.13036455E+05</totfact>
</mgrwt>
</event>
<event>
 5    1  0.1242969E+001  0.9722999E+02  0.7546771E-02  0.1286231E+00
          2   -1    0    0  501    0  0.00000000000E+00  0.00000000000E+00  0.31247505950E+03  0.31247505950E+03  0.00000000000E+00 0. -1.
         -2   -1    0    0    0  501 -0.00000000000E+00 -0.00000000000E+00 -0.75635409636E+01  0.75635409636E+01  0.00000000000E+00 0.  1.
         23    2    1    2    0    0  0.00000000000E+00  0.00000000000E+00  0.30491151854E+03  0.32003860047E+03  0.97229993576E+02 0.  0.
        -11    1    3    3    0    0  0.46077464558E+02  0.11020436532E+02  0.11657393068E+03  0.12583347757E+03  0.00000000000E+00 0.  1.
         11    1    3    3    0    0 -0.46077464558E+02 -0.11020436532E+02  0.18833758786E+03  0.19420512290E+03  0.00000000000E+00 0. -1.
<mgrwt>
<rscale>  0 0.97229994E+02</rscale>
<asrwt>0</asrwt>
<pdfrwt beam="1">  1        2 0.48073076E-01 0.97229994E+02</pdfrwt>
<pdfrwt beam="2">  1       -2 0.11636219E-02 0.97229994E+02</pdfrwt>
<totfact> 0.15356883E+05</totfact>
</mgrwt>
</event>
<event>
 5    1  0.1242969E+001  0.8938064E+02  0.7546771E-02  0.1304359E+00
          2   -1    0    0  501    0  0.00000000000E+00  0.00000000000E+00  0.31577183602E+03  0.31577183602E+03  0.00000000000E+00 0. -1.
         -2   -1    0    0    0  501 -0.00000000000E+00 -0.00000000000E+00 -0.63248980137E+01  0.63248980137E+01  0.00000000000E+00 0.  1.
         23    2    1    2    0    0  0.00000000000E+00  0.00000000000E+00  0.30944693801E+03  0.32209673404E+03  0.89380639032E+02 0.  0.
        -11    1    3    3    0    0 -0.83915747636E+01  0.43526533926E+02  0.13425961816E+03  0.14138819877E+03  0.00000000000E+00 0.  1.
         11    1    3    3    0    0  0.83915747636E+01 -0.43526533926E+02  0.17518731985E+03  0.18070853527E+03  0.00000000000E+00 0. -1.
<mgrwt>
<rscale>  0 0.89380639E+02</rscale>
<asrwt>0</asrwt>
<pdfrwt beam="1">  1        2 0.48580270E-01 0.89380639E+02</pdfrwt>
<pdfrwt beam="2">  1       -2 0.97306148E-03 0.89380639E+02</pdfrwt>
<totfact> 0.19307238E+05</totfact>
</mgrwt>
</event>
<event>
 5    1  0.1242969E+001  0.8954571E+02  0.7546771E-02  0.1303956E+00
         -1   -1    0    0    0  501 -0.00000000000E+00  0.00000000000E+00  0.15728265871E+03  0.15728265871E+03  0.00000000000E+00 0.  1.
          1   -1    0    0  501    0  0.00000000000E+00 -0.00000000000E+00 -0.12745260114E+02  0.12745260114E+02  0.00000000000E+00 0. -1.
         23    2    1    2    0    0  0.00000000000E+00  0.00000000000E+00  0.14453739860E+03  0.17002791882E+03  0.89545706690E+02 0.  0.
        -13    1    3    3    0    0 -0.34866797086E+02  0.19788463775E+02  0.34419909169E+02  0.52839445349E+02  0.00000000000E+00 0.  1.
         13    1    3    3    0    0  0.34866797086E+02 -0.19788463775E+02  0.11011748943E+03  0.11718847348E+03  0.00000000000E+00 0. -1.
<mgrwt>
<rscale>  0 0.89545707E+02</rscale>
<asrwt>0</asrwt>
<pdfrwt beam="2">  1        1 0.19608094E-02 0.89545707E+02</pdfrwt>
<pdfrwt beam="1">  1       -1 0.24197331E-01 0.89545707E+02</pdfrwt>
<totfact> 0.77495455E+04</totfact>
</mgrwt>
</event>
<event>
 5    1  0.1242969E+001  0.9185199E+02  0.7546771E-02  0.1298428E+00
          1   -1    0    0  501    0  0.00000000000E+00  0.00000000000E+00  0.14154867104E+03  0.14154867104E+03  0.00000000000E+00 0. -1.
         -1   -1    0    0    0  501 -0.00000000000E+00 -0.00000000000E+00 -0.14900859431E+02  0.14900859431E+02  0.00000000000E+00 0.  1.
         23    2    1    2    0    0  0.00000000000E+00  0.00000000000E+00  0.12664781161E+03  0.15644953047E+03  0.91851986365E+02 0.  0.
        -11    1    3    3    0    0  0.24657739216E+02  0.15411139545E+02  0.27750550978E+01  0.29209728793E+02  0.00000000000E+00 0.  1.
         11    1    3    3    0    0 -0.24657739216E+02 -0.15411139545E+02  0.12387275651E+03  0.12723980168E+03  0.00000000000E+00 0. -1.
<mgrwt>
<rscale>  0 0.91851986E+02</rscale>
<asrwt>0</asrwt>
<pdfrwt beam="1">  1        1 0.21776718E-01 0.91851986E+02</pdfrwt>
<pdfrwt beam="2">  1       -1 0.22924400E-02 0.91851986E+02</pdfrwt>
<totfact> 0.10875894E+05</totfact>
</mgrwt>
</event>
<event>
 5    1  0.1242969E+001  0.9129477E+02  0.7546771E-02  0.1299746E+00
          1   -1    0    0  501    0  0.00000000000E+00  0.00000000000E+00  0.97151497227E+02  0.97151497227E+02  0.00000000000E+00 0. -1.
         -1   -1    0    0    0  501 -0.00000000000E+00 -0.00000000000E+00 -0.21447777571E+02  0.21447777571E+02  0.00000000000E+00 0.  1.
         23    2    1    2    0    0  0.00000000000E+00  0.00000000000E+00  0.75703719655E+02  0.11859927480E+03  0.91294768814E+02 0.  0.
        -11    1    3    3    0    0 -0.44438070644E+02  0.78697790497E+01  0.46758681530E+02  0.64984997063E+02  0.00000000000E+00 0.  1.
         11    1    3    3    0    0  0.44438070644E+02 -0.78697790497E+01  0.28945038125E+02  0.53614277734E+02  0.00000000000E+00 0. -1.
<mgrwt>
<rscale>  0 0.91294769E+02</rscale>
<asrwt>0</asrwt>
<pdfrwt beam="1">  1        1 0.14946384E-01 0.91294769E+02</pdfrwt>
<pdfrwt beam="2">  1       -1 0.32996581E-02 0.91294769E+02</pdfrwt>
<totfact> 0.10358648E+05</totfact>
</mgrwt>
</event>
<event>
 5    1  0.1242969E+001  0.8837264E+02  0.7546771E-02  0.1306841E+00
          1   -1    0    0  501    0  0.00000000000E+00  0.00000000000E+00  0.44367149494E+02  0.44367149494E+02  0.00000000000E+00 0. -1.
         -1   -1    0    0    0  501 -0.00000000000E+00 -0.00000000000E+00 -0.44006225368E+02  0.44006225368E+02  0.00000000000E+00 0.  1.
         23    2    1    2    0    0  0.00000000000E+00  0.00000000000E+00  0.36092412599E+00  0.88373374862E+02  0.88372637837E+02 0.  0.
        -11    1    3    3    0    0 -0.53604954935E+01  0.21896537681E+02  0.38183903948E+02  0.44341896611E+02  0.00000000000E+00 0. -1.
         11    1    3    3    0    0  0.53604954935E+01 -0.21896537681E+02 -0.37822979822E+02  0.44031478251E+02  0.00000000000E+00 0.  1.
<mgrwt>
<rscale>  0 0.88372638E+02</rscale>
<asrwt>0</asrwt>
<pdfrwt beam="1">  1        1 0.68257152E-02 0.88372638E+02</pdfrwt>
<pdfrwt beam="2">  1       -1 0.67701886E-02 0.88372638E+02</pdfrwt>
<totfact> 0.10051613E+05</totfact>
</mgrwt>
</event>
<event>
 5    1  0.1242969E+001  0.9102438E+02  0.7546771E-02  0.1300390E+00
          1   -1    0    0  501    0  0.00000000000E+00  0.00000000000E+00  0.30937058350E+02  0.30937058350E+02  0.00000000000E+00 0. -1.
         -1   -1    0    0    0  501 -0.00000000000E+00 -0.00000000000E+00 -0.66953986124E+02  0.66953986124E+02  0.00000000000E+00 0.  1.
         23    2    1    2    0    0  0.00000000000E+00  0.00000000000E+00 -0.36016927774E+02  0.97891044473E+02  0.91024378612E+02 0.  0.
        -13    1    3    3    0    0 -0.31546421659E+02  0.25061986082E+02  0.47562806813E+01  0.40569718655E+02  0.00000000000E+00 0. -1.
         13    1    3    3    0    0  0.31546421659E+02 -0.25061986082E+02 -0.40773208455E+02  0.57321325818E+02  0.00000000000E+00 0.  1.
<mgrwt>
<rscale>  0 0.91024379E+02</rscale>
<asrwt>0</asrwt>
<pdfrwt beam="1">  1        1 0.47595474E-02 0.91024379E+02</pdfrwt>
<pdfrwt beam="2">  1       -1 0.10300613E-01 0.91024379E+02</pdfrwt>
<totfact> 0.87532901E+04</totfact>
</mgrwt>
</event>
<event>
 5    1  0.1242969E+001  0.8655941E+02  0.7546771E-02  0.1311404E+00
         -4   -1    0    0    0  501 -0.00000000000E+00  0.00000000000E+00  0.75743573806E+01  0.75743573806E+01  0.00000000000E+00 0. -1.
          4   -1    0    0  501    0  0.00000000000E+00 -0.00000000000E+00 -0.24729925708E+03  0.24729925708E+03  0.00000000000E+00 0.  1.
         23    2    1    2    0    0  0.00000000000E+00  0.00000000000E+00 -0.23972489970E+03  0.25487361446E+03  0.86559412038E+02 0.  0.
        -11    1    3    3    0    0  0.36972265638E+02  0.73140518273E+01 -0.18251094359E+03  0.18636171364E+03  0.00000000000E+00 0.  1.
         11    1    3    3    0    0 -0.36972265638E+02 -0.73140518273E+01 -0.57213956116E+02  0.68511900828E+02  0.00000000000E+00 0. -1.
<mgrwt>
<rscale>  0 0.86559412E+02</rscale>
<asrwt>0</asrwt>
<pdfrwt beam="2">  1        4 0.38046036E-01 0.86559412E+02</pdfrwt>
<pdfrwt beam="1">  1       -4 0.11652858E-02 0.86559412E+02</pdfrwt>
<totfact> 0.22143136E+04</totfact>
</mgrwt>
</event>
<event>
 5    1  0.1242969E+001  0.9122777E+02  0.7546771E-02  0.1299905E+00
          2   -1    0    0  501    0  0.00000000000E+00  0.00000000000E+00  0.16092693015E+02  0.16092693015E+02  0.00000000000E+00 0. -1.
         -2   -1    0    0    0  501 -0.00000000000E+00 -0.00000000000E+00 -0.12929014448E+03  0.12929014448E+03  0.00000000000E+00 0.  1.
         23    2    1    2    0    0  0.00000000000E+00  0.00000000000E+00 -0.11319745147E+03  0.14538283750E+03  0.91227772198E+02 0.  0.
        -13    1    3    3    0    0  0.71255344045E+01 -0.20641697073E+02 -0.12041884566E+03  0.12238280635E+03  0.00000000000E+00 0.  1.
         13    1    3    3    0    0 -0.71255344045E+01  0.20641697073E+02  0.72213941989E+01  0.23000031148E+02  0.00000000000E+00 0. -1.
<mgrwt>
<rscale>  0 0.91227772E+02</rscale>
<asrwt>0</asrwt>
<pdfrwt beam="1">  1        2 0.24757989E-02 0.91227772E+02</pdfrwt>
<pdfrwt beam="2">  1       -2 0.19890792E-01 0.91227772E+02</pdfrwt>
<totfact> 0.73479997E+04</totfact>
</mgrwt>
</event>
<event>
 5    1  0.1242969E+001  0.9175292E+02  0.7546771E-02  0.1298661E+00
         -1   -1    0    0    0  501 -0.00000000000E+00  0.00000000000E+00  0.13568912615E+03  0.13568912615E+03  0.00000000000E+00 0.  1.
          1   -1    0    0  501    0  0.00000000000E+00 -0.00000000000E+00 -0.15510820662E+02  0.15510820662E+02  0.00000000000E+00 0. -1.
         23    2    1    2    0    0  0.00000000000E+00  0.00000000000E+00  0.12017830549E+03  0.15119994681E+03  0.91752922601E+02 0.  0.
        -13    1    3    3    0    0 -0.18474791498E+02 -0.17326173150E+02  0.12312302775E+03  0.12570120986E+03  0.00000000000E+00 0.  1.
         13    1    3    3    0    0  0.18474791498E+02  0.17326173150E+02 -0.29447222659E+01  0.25498736952E+02  0.00000000000E+00 0. -1.
<mgrwt>
<rscale>  0 0.91752923E+02</rscale>
<asrwt>0</asrwt>
<pdfrwt beam="2">  1        1 0.23862802E-02 0.91752923E+02</pdfrwt>
<pdfrwt beam="1">  1       -1 0.20875249E-01 0.91752923E+02</pdfrwt>
<totfact> 0.75269819E+04</totfact>
</mgrwt>
</event>
<event>
 5    1  0.1242969E+001  0.9311612E+02  0.7546771E-02  0.1295476E+00
          2   -1    0    0  501    0  0.00000000000E+00  0.00000000000E+00  0.33815953196E+03  0.33815953196E+03  0.00000000000E+00 0. -1.
         -2   -1    0    0    0  501 -0.00000000000E+00 -0.00000000000E+00 -0.64101490733E+01  0.64101490733E+01  0.00000000000E+00 0.  1.
         23    2    1    2    0    0  0.00000000000E+00  0.00000000000E+00  0.33174938289E+03  0.34456968104E+03  0.93116121278E+02 0.  0.
        -11    1    3    3    0    0 -0.31437597569E+02  0.33538882243E+02  0.19318623267E+03  0.19858020963E+03  0.00000000000E+00 0.  1.
         11    1    3    3    0    0  0.31437597569E+02 -0.33538882243E+02  0.13856315022E+03  0.14598947140E+03  0.00000000000E+00 0. -1.
<mgrwt>
<rscale>  0 0.93116121E+02</rscale>
<asrwt>0</asrwt>
<pdfrwt beam="1">  1        2 0.52024530E-01 0.93116121E+02</pdfrwt>
<pdfrwt beam="2">  1       -2 0.98617704E-03 0.93116121E+02</pdfrwt>
<totfact> 0.17755871E+05</totfact>
</mgrwt>
</event>
<event>
 5    1  0.1242969E+001  0.8560376E+02  0.7546771E-02  0.1313861E+00
         -1   -1    0    0    0  501 -0.00000000000E+00  0.00000000000E+00  0.27490571880E+02  0.27490571880E+02  0.00000000000E+00 0.  1.
          1   -1    0    0  501    0  0.00000000000E+00 -0.00000000000E+00 -0.66641068931E+02  0.66641068931E+02  0.00000000000E+00 0. -1.
         23    2    1    2    0    0  0.00000000000E+00  0.00000000000E+00 -0.39150497051E+02  0.94131640811E+02  0.85603763833E+02 0.  0.
        -13    1    3    3    0    0 -0.35633121284E+01 -0.26213749800E+02  0.17424046950E+02  0.31677362328E+02  0.00000000000E+00 0.  1.
         13    1    3    3    0    0  0.35633121284E+01  0.26213749800E+02 -0.56574544001E+02  0.62454278483E+02  0.00000000000E+00 0. -1.
<mgrwt>
<rscale>  0 0.85603764E+02</rscale>
<asrwt>0</asrwt>
<pdfrwt beam="2">  1        1 0.10252472E-01 0.85603764E+02</pdfrwt>
<pdfrwt beam="1">  1       -1 0.42293188E-02 0.85603764E+02</pdfrwt>
<totfact> 0.11645612E+05</totfact>
</mgrwt>
</event>
<event>
 5    1  0.1242969E+001  0.9745600E+02  0.7546771E-02  0.1285738E+00
         -1   -1    0    0    0  501 -0.00000000000E+00  0.00000000000E+00  0.23191569548E+02  0.23191569548E+02  0.00000000000E+00 0.  1.
          1   -1    0    0  501    0  0.00000000000E+00 -0.00000000000E+00 -0.10238281354E+03  0.10238281354E+03  0.00000000000E+00 0. -1.
         23    2    1    2    0    0  0.00000000000E+00  0.00000000000E+00 -0.79191243995E+02  0.12557438309E+03  0.97456003218E+02 0.  0.
        -11    1    3    3    0    0 -0.48638543328E+02  0.28311097887E+01 -0.38521375509E+02  0.62109737166E+02  0.00000000000E+00 0. -1.
         11    1    3    3    0    0  0.48638543328E+02 -0.28311097887E+01 -0.40669868486E+02  0.63464645925E+02  0.00000000000E+00 0.  1.
<mgrwt>
<rscale>  0 0.97456003E+02</rscale>
<asrwt>0</asrwt>
<pdfrwt beam="2">  1        1 0.15751202E-01 0.97456003E+02</pdfrwt>
<pdfrwt beam="1">  1       -1 0.35679338E-02 0.97456003E+02</pdfrwt>
<totfact> 0.87382653E+04</totfact>
</mgrwt>
</event>
<event>
 5    1  0.1242969E+001  0.9172251E+02  0.7546771E-02  0.1298733E+00
          4   -1    0    0  501    0  0.00000000000E+00  0.00000000000E+00  0.18771356282E+03  0.18771356282E+03  0.00000000000E+00 0. -1.
         -4   -1    0    0    0  501 -0.00000000000E+00 -0.00000000000E+00 -0.11204596286E+02  0.11204596286E+02  0.00000000000E+00 0.  1.
         23    2    1    2    0    0  0.00000000000E+00  0.00000000000E+00  0.17650896653E+03  0.19891815910E+03  0.91722509532E+02 0.  0.
        -13    1    3    3    0    0 -0.41907990632E+02 -0.17955302754E+02  0.99006950002E+02  0.10900022351E+03  0.00000000000E+00 0. -1.
         13    1    3    3    0    0  0.41907990632E+02  0.17955302754E+02  0.77502016529E+02  0.89917935596E+02  0.00000000000E+00 0.  1.
<mgrwt>
<rscale>  0 0.91722510E+02</rscale>
<asrwt>0</asrwt>
<pdfrwt beam="1">  1        4 0.28879007E-01 0.91722510E+02</pdfrwt>
<pdfrwt beam="2">  1       -4 0.17237842E-02 0.91722510E+02</pdfrwt>
<totfact> 0.21091062E+04</totfact>
</mgrwt>
</event>
<event>
 5    1  0.1242969E+001  0.9129496E+02  0.7546771E-02  0.1299746E+00
          1   -1    0    0  501    0  0.00000000000E+00  0.00000000000E+00  0.12145326516E+02  0.12145326516E+02  0.00000000000E+00 0. -1.
         -1   -1    0    0    0  501 -0.00000000000E+00 -0.00000000000E+00 -0.17156331758E+03  0.17156331758E+03  0.00000000000E+00 0.  1.
         23    2    1    2    0    0  0.00000000000E+00  0.00000000000E+00 -0.15941799106E+03  0.18370864410E+03  0.91294961749E+02 0.  0.
        -11    1    3    3    0    0  0.25958262426E+02  0.36487310903E+02 -0.97541841878E+02  0.10732924188E+03  0.00000000000E+00 0. -1.
         11    1    3    3    0    0 -0.25958262426E+02 -0.36487310903E+02 -0.61876149185E+02  0.76379402217E+02  0.00000000000E+00 0.  1.
<mgrwt>
<rscale>  0 0.91294962E+02</rscale>
<asrwt>0</asrwt>
<pdfrwt beam="1">  1        1 0.18685117E-02 0.91294962E+02</pdfrwt>
<pdfrwt beam="2">  1       -1 0.26394357E-01 0.91294962E+02</pdfrwt>
<totfact> 0.72125576E+04</totfact>
</mgrwt>
</event>
<event>
 5    1  0.1242969E+001  0.8720251E+02  0.7546771E-02  0.1309771E+00
          3   -1    0    0  501    0  0.00000000000E+00  0.00000000000E+00  0.11065973603E+03  0.11065973603E+03  0.00000000000E+00 0. -1.
         -3   -1    0    0    0  501 -0.00000000000E+00 -0.00000000000E+00 -0.17179414191E+02  0.17179414191E+02  0.00000000000E+00 0.  1.
         23    2    1    2    0    0  0.00000000000E+00  0.00000000000E+00  0.93480321841E+02  0.12783915022E+03  0.87202510045E+02 0.  0.
        -11    1    3    3    0    0  0.71525160517E+01  0.33075327325E+02  0.64335079900E+01  0.34445983635E+02  0.00000000000E+00 0.  1.
         11    1    3    3    0    0 -0.71525160517E+01 -0.33075327325E+02  0.87046813851E+02  0.93393166587E+02  0.00000000000E+00 0. -1.
<mgrwt>
<rscale>  0 0.87202510E+02</rscale>
<asrwt>0</asrwt>
<pdfrwt beam="1">  1        3 0.17024574E-01 0.87202510E+02</pdfrwt>
<pdfrwt beam="2">  1       -3 0.26429869E-02 0.87202510E+02</pdfrwt>
<totfact> 0.36906116E+04</totfact>
</mgrwt>
</event>
<event>
 5    1  0.1242969E+001  0.8838896E+02  0.7546771E-02  0.1306801E+00
         -1   -1    0    0    0  501 -0.00000000000E+00  0.00000000000E+00  0.14339260118E+02  0.14339260118E+02  0.00000000000E+00 0.  1.
          1   -1    0    0  501    0  0.00000000000E+00 -0.00000000000E+00 -0.13621010430E+03  0.13621010430E+03  0.00000000000E+00 0. -1.
         23    2    1    2    0    0  0.00000000000E+00  0.00000000000E+00 -0.12187084419E+03  0.15054936442E+03  0.88388961217E+02 0.  0.
        -13    1    3    3    0    0  0.33808481095E+02  0.27727845834E+02 -0.71882134848E+02  0.84136128618E+02  0.00000000000E+00 0. -1.
         13    1    3    3    0    0 -0.33808481095E+02 -0.27727845834E+02 -0.49988709339E+02  0.66413235804E+02  0.00000000000E+00 0.  1.
<mgrwt>
<rscale>  0 0.88388961E+02</rscale>
<asrwt>0</asrwt>
<pdfrwt beam="2">  1        1 0.20955402E-01 0.88388961E+02</pdfrwt>
<pdfrwt beam="1">  1       -1 0.22060399E-02 0.88388961E+02</pdfrwt>
<totfact> 0.11980739E+05</totfact>
</mgrwt>
</event>
<event>
 5    1  0.1242969E+001  0.9006314E+02  0.7546771E-02  0.1302699E+00
         -2   -1    0    0    0  501 -0.00000000000E+00  0.00000000000E+00  0.28104053459E+02  0.28104053459E+02  0.00000000000E+00 0.  1.
          2   -1    0    0  501    0  0.00000000000E+00 -0.00000000000E+00 -0.72154800943E+02  0.72154800943E+02  0.00000000000E+00 0. -1.
         23    2    1    2    0    0  0.00000000000E+00  0.00000000000E+00 -0.44050747484E+02  0.10025885440E+03  0.90063141919E+02 0.  0.
        -11    1    3    3    0    0 -0.26983684114E+02 -0.12452625113E+02  0.15637461164E+02  0.33581501935E+02  0.00000000000E+00 0.  1.
         11    1    3    3    0    0  0.26983684114E+02  0.12452625113E+02 -0.59688208648E+02  0.66677352468E+02  0.00000000000E+00 0. -1.
<mgrwt>
<rscale>  0 0.90063142E+02</rscale>
<asrwt>0</asrwt>
<pdfrwt beam="2">  1        2 0.11100738E-01 0.90063142E+02</pdfrwt>
<pdfrwt beam="1">  1       -2 0.43237006E-02 0.90063142E+02</pdfrwt>
<totfact> 0.11544527E+05</totfact>
</mgrwt>
</event>
<event>
 5    1  0.1242969E+001  0.9302173E+02  0.7546771E-02  0.1295695E+00
          3   -1    0    0  501    0  0.00000000000E+00  0.00000000000E+00  0.12553517929E+03  0.12553517929E+03  0.00000000000E+00 0. -1.
         -3   -1    0    0    0  501 -0.00000000000E+00 -0.00000000000E+00 -0.17232307092E+02  0.17232307092E+02  0.00000000000E+00 0.  1.
         23    2    1    2    0    0  0.00000000000E+00  0.00000000000E+00  0.10830287220E+03  0.14276748639E+03  0.93021734244E+02 0.  0.
        -11    1    3    3    0    0  0.17502340584E+02  0.23978488662E+02 -0.80040829920E+00  0.29697483023E+02  0.00000000000E+00 0.  1.
         11    1    3    3    0    0 -0.17502340584E+02 -0.23978488662E+02  0.10910328050E+03  0.11307000336E+03  0.00000000000E+00 0. -1.
<mgrwt>
<rscale>  0 0.93021734E+02</rscale>
<asrwt>0</asrwt>
<pdfrwt beam="1">  1        3 0.19313104E-01 0.93021734E+02</pdfrwt>
<pdfrwt beam="2">  1       -3 0.26511243E-02 0.93021734E+02</pdfrwt>
<totfact> 0.30073272E+04</totfact>
</mgrwt>
</event>
<event>
 5    1  0.1242969E+001  0.1040208E+03  0.7546771E-02  0.1272061E+00
         -1   -1    0    0    0  501 -0.00000000000E+00  0.00000000000E+00  0.73233203932E+01  0.73233203932E+01  0.00000000000E+00 0.  1.
          1   -1    0    0  501    0  0.00000000000E+00 -0.00000000000E+00 -0.36937884717E+03  0.36937884717E+03  0.00000000000E+00 0. -1.
         23    2    1    2    0    0  0.00000000000E+00  0.00000000000E+00 -0.36205552677E+03  0.37670216756E+03  0.10402076032E+03 0.  0.
        -11    1    3    3    0    0 -0.23519948826E+02 -0.41109737268E+02 -0.25885707981E+03  0.26315430124E+03  0.00000000000E+00 0. -1.
         11    1    3    3    0    0  0.23519948826E+02  0.41109737268E+02 -0.10319844696E+03  0.11354786632E+03  0.00000000000E+00 0.  1.
<mgrwt>
<rscale>  0 0.10402076E+03</rscale>
<asrwt>0</asrwt>
<pdfrwt beam="2">  1        1 0.56827511E-01 0.10402076E+03</pdfrwt>
<pdfrwt beam="1">  1       -1 0.11266648E-02 0.10402076E+03</pdfrwt>
<totfact> 0.93533123E+04</totfact>
</mgrwt>
</event>
<event>
 5    1  0.1242969E+001  0.9003790E+02  0.7546771E-02  0.1302760E+00
          1   -1    0    0  501    0  0.00000000000E+00  0.00000000000E+00  0.16426741627E+02  0.16426741627E+02  0.00000000000E+00 0. -1.
         -1   -1    0    0    0  501 -0.00000000000E+00 -0.00000000000E+00 -0.12337844344E+03  0.12337844344E+03  0.00000000000E+00 0.  1.
         23    2    1    2    0    0  0.00000000000E+00  0.00000000000E+00 -0.10695170181E+03  0.13980518507E+03  0.90037898971E+02 0.  0.
        -13    1    3    3    0    0 -0.43780450950E+02 -0.90860583917E+01 -0.45344863369E+02  0.63682344307E+02  0.00000000000E+00 0. -1.
         13    1    3    3    0    0  0.43780450950E+02  0.90860583917E+01 -0.61606838442E+02  0.76122840759E+02  0.00000000000E+00 0.  1.
<mgrwt>
<rscale>  0 0.90037899E+02</rscale>
<asrwt>0</asrwt>
<pdfrwt beam="1">  1        1 0.25271911E-02 0.90037899E+02</pdfrwt>
<pdfrwt beam="2">  1       -1 0.18981298E-01 0.90037899E+02</pdfrwt>
<totfact> 0.80660109E+04</totfact>
</mgrwt>
</event>
<event>
 5    1  0.1242969E+001  0.9500430E+02  0.7546771E-02  0.1291166E+00
         -1   -1    0    0    0  501 -0.00000000000E+00  0.00000000000E+00  0.18668730346E+02  0.18668730346E+02  0.00000000000E+00 0.  1.
          1   -1    0    0  501    0  0.00000000000E+00 -0.00000000000E+00 -0.12086810937E+03  0.12086810937E+03  0.00000000000E+00 0. -1.
         23    2    1    2    0    0  0.00000000000E+00  0.00000000000E+00 -0.10219937903E+03  0.13953683972E+03  0.95004297615E+02 0.  0.
        -11    1    3    3    0    0 -0.23673025366E+02 -0.39646725523E+02 -0.34732654867E+02  0.57780898996E+02  0.00000000000E+00 0.  1.
         11    1    3    3    0    0  0.23673025366E+02  0.39646725523E+02 -0.67466724160E+02  0.81755940723E+02  0.00000000000E+00 0. -1.
<mgrwt>
<rscale>  0 0.95004298E+02</rscale>
<asrwt>0</asrwt>
<pdfrwt beam="2">  1        1 0.18595094E-01 0.95004298E+02</pdfrwt>
<pdfrwt beam="1">  1       -1 0.28721124E-02 0.95004298E+02</pdfrwt>
<totfact> 0.96455724E+04</totfact>
</mgrwt>
</event>
<event>
 5    1  0.1242969E+001  0.9163106E+02  0.7546771E-02  0.1298949E+00
          3   -1    0    0  501    0  0.00000000000E+00  0.00000000000E+00  0.29122831246E+02  0.29122831246E+02  0.00000000000E+00 0. -1.
         -3   -1    0    0    0  501 -0.00000000000E+00 -0.00000000000E+00 -0.72076185645E+02  0.72076185645E+02  0.00000000000E+00 0.  1.
         23    2    1    2    0    0  0.00000000000E+00  0.00000000000E+00 -0.42953354399E+02  0.10119901689E+03  0.91631055684E+02 0.  0.
        -13    1    3    3    0    0 -0.41329631744E+02  0.59088353619E+01 -0.63826725114E+00  0.41754762369E+02  0.00000000000E+00 0.  1.
         13    1    3    3    0    0  0.41329631744E+02 -0.59088353619E+01 -0.42315087148E+02  0.59444254522E+02  0.00000000000E+00 0. -1.
<mgrwt>
<rscale>  0 0.91631056E+02</rscale>
<asrwt>0</asrwt>
<pdfrwt beam="1">  1        3 0.44804357E-02 0.91631056E+02</pdfrwt>
<pdfrwt beam="2">  1       -3 0.11088644E-01 0.91631056E+02</pdfrwt>
<totfact> 0.34118271E+04</totfact>
</mgrwt>
</event>
<event>
 5    1  0.1242969E+001  0.8789825E+02  0.7546771E-02  0.1308023E+00
          1   -1    0    0  501    0  0.00000000000E+00  0.00000000000E+00  0.16893498114E+02  0.16893498114E+02  0.00000000000E+00 0. -1.
         -1   -1    0    0    0  501 -0.00000000000E+00 -0.00000000000E+00 -0.11433543919E+03  0.11433543919E+03  0.00000000000E+00 0.  1.
         23    2    1    2    0    0  0.00000000000E+00  0.00000000000E+00 -0.97441941071E+02  0.13122893730E+03  0.87898248589E+02 0.  0.
        -11    1    3    3    0    0  0.10699652827E+02 -0.36446976518E+02 -0.15717989717E+02  0.41108634965E+02  0.00000000000E+00 0.  1.
         11    1    3    3    0    0 -0.10699652827E+02  0.36446976518E+02 -0.81723951354E+02  0.90120302334E+02  0.00000000000E+00 0. -1.
<mgrwt>
<rscale>  0 0.87898249E+02</rscale>
<asrwt>0</asrwt>
<pdfrwt beam="1">  1        1 0.25989998E-02 0.87898249E+02</pdfrwt>
<pdfrwt beam="2">  1       -1 0.17590067E-01 0.87898249E+02</pdfrwt>
<totfact> 0.87154015E+04</totfact>
</mgrwt>
</event>
<event>
 5    1  0.1242969E+001  0.9286215E+02  0.7546771E-02  0.1296065E+00
          4   -1    0    0  501    0  0.00000000000E+00  0.00000000000E+00  0.13798510925E+03  0.13798510925E+03  0.00000000000E+00 0. -1.
         -4   -1    0    0    0  501 -0.00000000000E+00 -0.00000000000E+00 -0.15623747623E+02  0.15623747623E+02  0.00000000000E+00 0.  1.
         23    2    1    2    0    0  0.00000000000E+00  0.00000000000E+00  0.12236136163E+03  0.15360885688E+03  0.92862145628E+02 0.  0.
        -13    1    3    3    0    0 -0.42949287771E+01  0.35543544529E+02  0.11008495443E+03  0.11576047323E+03  0.00000000000E+00 0.  1.
         13    1    3    3    0    0  0.42949287771E+01 -0.35543544529E+02  0.12276407203E+02  0.37848383647E+02  0.00000000000E+00 0. -1.
<mgrwt>
<rscale>  0 0.92862146E+02</rscale>
<asrwt>0</asrwt>
<pdfrwt beam="1">  1        4 0.21228477E-01 0.92862146E+02</pdfrwt>
<pdfrwt beam="2">  1       -4 0.24036536E-02 0.92862146E+02</pdfrwt>
<totfact> 0.22360583E+04</totfact>
</mgrwt>
</event>
<event>
 5    1  0.1242969E+001  0.9168588E+02  0.7546771E-02  0.1298820E+00
         -3   -1    0    0    0  501 -0.00000000000E+00  0.00000000000E+00  0.80348787611E+02  0.80348787611E+02  0.00000000000E+00 0.  1.
          3   -1    0    0  501    0  0.00000000000E+00 -0.00000000000E+00 -0.26155654903E+02  0.26155654903E+02  0.00000000000E+00 0. -1.
         23    2    1    2    0    0  0.00000000000E+00  0.00000000000E+00  0.54193132708E+02  0.10650444251E+03  0.91685880279E+02 0.  0.
        -11    1    3    3    0    0 -0.26415070320E+02  0.14351757993E+02  0.67300246172E+02  0.73709239803E+02  0.00000000000E+00 0.  1.
         11    1    3    3    0    0  0.26415070320E+02 -0.14351757993E+02 -0.13107113464E+02  0.32795202711E+02  0.00000000000E+00 0. -1.
<mgrwt>
<rscale>  0 0.91685880E+02</rscale>
<asrwt>0</asrwt>
<pdfrwt beam="2">  1        3 0.40239469E-02 0.91685880E+02</pdfrwt>
<pdfrwt beam="1">  1       -3 0.12361352E-01 0.91685880E+02</pdfrwt>
<totfact> 0.33682096E+04</totfact>
</mgrwt>
</event>
<event>
 5    1  0.1242969E+001  0.9096970E+02  0.7546771E-02  0.1300520E+00
         -2   -1    0    0    0  501 -0.00000000000E+00  0.00000000000E+00  0.12168143494E+02  0.12168143494E+02  0.00000000000E+00 0.  1.
          2   -1    0    0  501    0  0.00000000000E+00 -0.00000000000E+00 -0.17002360949E+03  0.17002360949E+03  0.00000000000E+00 0. -1.
         23    2    1    2    0    0  0.00000000000E+00  0.00000000000E+00 -0.15785546600E+03  0.18219175298E+03  0.90969702157E+02 0.  0.
        -13    1    3    3    0    0 -0.13150375920E+02 -0.28736144879E+02 -0.13409980516E+02  0.34329666278E+02  0.00000000000E+00 0.  1.
         13    1    3    3    0    0  0.13150375920E+02  0.28736144879E+02 -0.14444548548E+03  0.14786208671E+03  0.00000000000E+00 0. -1.
<mgrwt>
<rscale>  0 0.90969702E+02</rscale>
<asrwt>0</asrwt>
<pdfrwt beam="2">  1        2 0.26157478E-01 0.90969702E+02</pdfrwt>
<pdfrwt beam="1">  1       -2 0.18720221E-02 0.90969702E+02</pdfrwt>
<totfact> 0.14688631E+05</totfact>
</mgrwt>
</event>
<event>
 5    1  0.1242969E+001  0.9139588E+02  0.7546771E-02  0.1299506E+00
         -1   -1    0    0    0  501 -0.00000000000E+00  0.00000000000E+00  0.16300872394E+02  0.16300872394E+02  0.00000000000E+00 0.  1.
          1   -1    0    0  501    0  0.00000000000E+00 -0.00000000000E+00 -0.12810981567E+03  0.12810981567E+03  0.00000000000E+00 0. -1.
         23    2    1    2    0    0  0.00000000000E+00  0.00000000000E+00 -0.11180894328E+03  0.14441068807E+03  0.91395880821E+02 0.  0.
        -13    1    3    3    0    0 -0.23880940593E+02  0.15345246898E+02 -0.11249005208E+03  0.11601632533E+03  0.00000000000E+00 0. -1.
         13    1    3    3    0    0  0.23880940593E+02 -0.15345246898E+02  0.68110880305E+00  0.28394362736E+02  0.00000000000E+00 0.  1.
<mgrwt>
<rscale>  0 0.91395881E+02</rscale>
<asrwt>0</asrwt>
<pdfrwt beam="2">  1        1 0.19709204E-01 0.91395881E+02</pdfrwt>
<pdfrwt beam="1">  1       -1 0.25078264E-02 0.91395881E+02</pdfrwt>
<totfact> 0.10827686E+05</totfact>
</mgrwt>
</event>
<event>
 5    1  0.1242969E+001  0.9117433E+02  0.7546771E-02  0.1300033E+00
          1   -1    0    0  501    0  0.00000000000E+00  0.00000000000E+00  0.32443981856E+03  0.32443981856E+03  0.00000000000E+00 0. -1.
         -1   -1    0    0    0  501 -0.00000000000E+00 -0.00000000000E+00 -0.64054708503E+01  0.64054708503E+01  0.00000000000E+00 0.  1.
         23    2    1    2    0    0  0.00000000000E+00  0.00000000000E+00  0.31803434771E+03  0.33084528941E+03  0.91174334118E+02 0.  0.
        -11    1    3    3    0    0  0.37382586854E+02 -0.16078416832E+02  0.84454759438E+02  0.93747424922E+02  0.00000000000E+00 0.  1.
         11    1    3    3    0    0 -0.37382586854E+02  0.16078416832E+02  0.23357958827E+03  0.23709786449E+03  0.00000000000E+00 0. -1.
<mgrwt>
<rscale>  0 0.91174334E+02</rscale>
<asrwt>0</asrwt>
<pdfrwt beam="1">  1        1 0.49913805E-01 0.91174334E+02</pdfrwt>
<pdfrwt beam="2">  1       -1 0.98545731E-03 0.91174334E+02</pdfrwt>
<totfact> 0.13003363E+05</totfact>
</mgrwt>
</event>
<event>
 5    1  0.1242969E+001  0.9239005E+02  0.7546771E-02  0.1297165E+00
         -2   -1    0    0    0  501 -0.00000000000E+00  0.00000000000E+00  0.56954120304E+02  0.56954120304E+02  0.00000000000E+00 0. -1.
          2   -1    0    0  501    0  0.00000000000E+00 -0.00000000000E+00 -0.37468411880E+02  0.37468411880E+02  0.00000000000E+00 0.  1.
         23    2    1    2    0    0  0.00000000000E+00  0.00000000000E+00  0.19485708424E+02  0.94422532184E+02  0.92390052231E+02 0.  0.
        -11    1    3    3    0    0 -0.92553412948E+01  0.95910029663E+01 -0.35460606269E+02  0.37882756993E+02  0.00000000000E+00 0.  1.
         11    1    3    3    0    0  0.92553412948E+01 -0.95910029663E+01  0.54946314693E+02  0.56539775192E+02  0.00000000000E+00 0. -1.
<mgrwt>
<rscale>  0 0.92390052E+02</rscale>
<asrwt>0</asrwt>
<pdfrwt beam="2">  1        2 0.57643711E-02 0.92390052E+02</pdfrwt>
<pdfrwt beam="1">  1       -2 0.87621723E-02 0.92390052E+02</pdfrwt>
<totfact> 0.90237284E+04</totfact>
</mgrwt>
</event>
<event>
 5    1  0.1242969E+001  0.8567017E+02  0.7546771E-02  0.1313689E+00
         -2   -1    0    0    0  501 -0.00000000000E+00  0.00000000000E+00  0.22352863189E+02  0.22352863189E+02  0.00000000000E+00 0.  1.
          2   -1    0    0  501    0  0.00000000000E+00 -0.00000000000E+00 -0.82085435799E+02  0.82085435799E+02  0.00000000000E+00 0. -1.
         23    2    1    2    0    0  0.00000000000E+00  0.00000000000E+00 -0.59732572610E+02  0.10443829899E+03  0.85670170216E+02 0.  0.
        -11    1    3    3    0    0 -0.20844746905E+02 -0.11510584519E+02 -0.73273675668E+02  0.77045626582E+02  0.00000000000E+00 0. -1.
         11    1    3    3    0    0  0.20844746905E+02  0.11510584519E+02  0.13541103058E+02  0.27392672406E+02  0.00000000000E+00 0.  1.
<mgrwt>
<rscale>  0 0.85670170E+02</rscale>
<asrwt>0</asrwt>
<pdfrwt beam="2">  1        2 0.12628529E-01 0.85670170E+02</pdfrwt>
<pdfrwt beam="1">  1       -2 0.34389020E-02 0.85670170E+02</pdfrwt>
<totfact> 0.13741765E+05</totfact>
</mgrwt>
</event>
<event>
 5    1  0.1242969E+001  0.9091422E+02  0.7546771E-02  0.1300653E+00
         -1   -1    0    0    0  501 -0.00000000000E+00  0.00000000000E+00  0.47001907075E+02  0.47001907075E+02  0.00000000000E+00 0.  1.
          1   -1    0    0  501    0  0.00000000000E+00 -0.00000000000E+00 -0.43963089430E+02  0.43963089430E+02  0.00000000000E+00 0. -1.
         23    2    1    2    0    0  0.00000000000E+00  0.00000000000E+00  0.30388176453E+01  0.90964996506E+02  0.90914224281E+02 0.  0.
        -11    1    3    3    0    0  0.27342047181E+02  0.33810832689E+02  0.14777812486E+02  0.45925414457E+02  0.00000000000E+00 0.  1.
         11    1    3    3    0    0 -0.27342047181E+02 -0.33810832689E+02 -0.11738994841E+02  0.45039582048E+02  0.00000000000E+00 0. -1.
<mgrwt>
<rscale>  0 0.90914224E+02</rscale>
<asrwt>0</asrwt>
<pdfrwt beam="2">  1        1 0.67635521E-02 0.90914224E+02</pdfrwt>
<pdfrwt beam="1">  1       -1 0.72310627E-02 0.90914224E+02</pdfrwt>
<totfact> 0.92717252E+04</totfact>
</mgrwt>
</event>
<event>
 5    1  0.1242969E+001  0.9299857E+02  0.7546771E-02  0.1295749E+00
          1   -1    0    0  501    0  0.00000000000E+00  0.00000000000E+00  0.29043887390E+02  0.29043887390E+02  0.00000000000E+00 0. -1.
         -1   -1    0    0    0  501 -0.00000000000E+00 -0.00000000000E+00 -0.74445382427E+02  0.74445382427E+02  0.00000000000E+00 0.  1.
         23    2    1    2    0    0  0.00000000000E+00  0.00000000000E+00 -0.45401495038E+02  0.10348926982E+03  0.92998565665E+02 0.  0.
        -13    1    3    3    0    0  0.23956720217E+02 -0.39287110420E+02 -0.30147551448E+02  0.55011601931E+02  0.00000000000E+00 0.  1.
         13    1    3    3    0    0 -0.23956720217E+02  0.39287110420E+02 -0.15253943589E+02  0.48477667886E+02  0.00000000000E+00 0. -1.
<mgrwt>
<rscale>  0 0.92998566E+02</rscale>
<asrwt>0</asrwt>
<pdfrwt beam="1">  1        1 0.44682904E-02 0.92998566E+02</pdfrwt>
<pdfrwt beam="2">  1       -1 0.11453136E-01 0.92998566E+02</pdfrwt>
<totfact> 0.81446949E+04</totfact>
</mgrwt>
</event>
<event>
 5    1  0.1242969E+001  0.9388852E+02  0.7546771E-02  0.1293699E+00
          2   -1    0    0  501    0  0.00000000000E+00  0.00000000000E+00  0.14692934917E+02  0.14692934917E+02  0.00000000000E+00 0. -1.
         -2   -1    0    0    0  501 -0.00000000000E+00 -0.00000000000E+00 -0.14998796204E+03  0.14998796204E+03  0.00000000000E+00 0.  1.
         23    2    1    2    0    0  0.00000000000E+00  0.00000000000E+00 -0.13529502712E+03  0.16468089695E+03  0.93888516114E+02 0.  0.
        -13    1    3    3    0    0  0.62429014996E+01 -0.46513880437E+02 -0.69607351543E+02  0.83950570465E+02  0.00000000000E+00 0.  1.
         13    1    3    3    0    0 -0.62429014996E+01  0.46513880437E+02 -0.65687675575E+02  0.80730326488E+02  0.00000000000E+00 0. -1.
<mgrwt>
<rscale>  0 0.93888516E+02</rscale>
<asrwt>0</asrwt>
<pdfrwt beam="1">  1        2 0.22604515E-02 0.93888516E+02</pdfrwt>
<pdfrwt beam="2">  1       -2 0.23075071E-01 0.93888516E+02</pdfrwt>
<totfact> 0.64858143E+04</totfact>
</mgrwt>
</event>
<event>
 5    1  0.1242969E+001  0.9299330E+02  0.7546771E-02  0.1295761E+00
         -3   -1    0    0    0  501 -0.00000000000E+00  0.00000000000E+00  0.11555020169E+03  0.11555020169E+03  0.00000000000E+00 0.  1.
          3   -1    0    0  501    0  0.00000000000E+00 -0.00000000000E+00 -0.18709947826E+02  0.18709947826E+02  0.00000000000E+00 0. -1.
         23    2    1    2    0    0  0.00000000000E+00  0.00000000000E+00  0.96840253859E+02  0.13426014951E+03  0.92993295347E+02 0.  0.
        -11    1    3    3    0    0  0.24341460367E+02 -0.19064692049E+02 -0.17174767669E+01  0.30966415714E+02  0.00000000000E+00 0. -1.
         11    1    3    3    0    0 -0.24341460367E+02  0.19064692049E+02  0.98557730626E+02  0.10329373380E+03  0.00000000000E+00 0.  1.
<mgrwt>
<rscale>  0 0.92993295E+02</rscale>
<asrwt>0</asrwt>
<pdfrwt beam="2">  1        3 0.28784536E-02 0.92993295E+02</pdfrwt>
<pdfrwt beam="1">  1       -3 0.17776954E-01 0.92993295E+02</pdfrwt>
<totfact> 0.30612522E+04</totfact>
</mgrwt>
</event>
<event>
 5    1  0.1242969E+001  0.9027535E+02  0.7546771E-02  0.1302186E+00
          1   -1    0    0  501    0  0.00000000000E+00  0.00000000000E+00  0.27355472261E+02  0.27355472261E+02  0.00000000000E+00 0. -1.
         -1   -1    0    0    0  501 -0.00000000000E+00 -0.00000000000E+00 -0.74479049197E+02  0.74479049197E+02  0.00000000000E+00 0.  1.
         23    2    1    2    0    0  0.00000000000E+00  0.00000000000E+00 -0.47123576937E+02  0.10183452146E+03  0.90275346897E+02 0.  0.
        -11    1    3    3    0    0 -0.16029705916E+02 -0.24759467378E+02  0.14980784478E+02  0.33081816760E+02  0.00000000000E+00 0. -1.
         11    1    3    3    0    0  0.16029705916E+02  0.24759467378E+02 -0.62104361415E+02  0.68752704698E+02  0.00000000000E+00 0.  1.
<mgrwt>
<rscale>  0 0.90275347E+02</rscale>
<asrwt>0</asrwt>
<pdfrwt beam="1">  1        1 0.42085342E-02 0.90275347E+02</pdfrwt>
<pdfrwt beam="2">  1       -1 0.11458315E-01 0.90275347E+02</pdfrwt>
<totfact> 0.87867703E+04</totfact>
</mgrwt>
</event>
<event>
 5    1  0.1242969E+001  0.9057519E+02  0.7546771E-02  0.1301465E+00
          2   -1    0    0  501    0  0.00000000000E+00  0.00000000000E+00  0.24377074250E+02  0.24377074250E+02  0.00000000000E+00 0. -1.
         -2   -1    0    0    0  501 -0.00000000000E+00 -0.00000000000E+00 -0.84135047387E+02  0.84135047387E+02  0.00000000000E+00 0.  1.
         23    2    1    2    0    0  0.00000000000E+00  0.00000000000E+00 -0.59757973137E+02  0.10851212164E+03  0.90575190801E+02 0.  0.
        -11    1    3    3    0    0  0.24234972886E+02 -0.29571004672E+01 -0.75575574117E+02  0.79421318026E+02  0.00000000000E+00 0.  1.
         11    1    3    3    0    0 -0.24234972886E+02  0.29571004672E+01  0.15817600979E+02  0.29090803611E+02  0.00000000000E+00 0. -1.
<mgrwt>
<rscale>  0 0.90575191E+02</rscale>
<asrwt>0</asrwt>
<pdfrwt beam="1">  1        2 0.37503192E-02 0.90575191E+02</pdfrwt>
<pdfrwt beam="2">  1       -2 0.12943853E-01 0.90575191E+02</pdfrwt>
<totfact> 0.85273561E+04</totfact>
</mgrwt>
</event>
<event>
 5    1  0.1242969E+001  0.8853030E+02  0.7546771E-02  0.1306450E+00
          3   -1    0    0  501    0  0.00000000000E+00  0.00000000000E+00  0.88804127428E+02  0.88804127428E+02  0.00000000000E+00 0. -1.
         -3   -1    0    0    0  501 -0.00000000000E+00 -0.00000000000E+00 -0.22064331495E+02  0.22064331495E+02  0.00000000000E+00 0.  1.
         23    2    1    2    0    0  0.00000000000E+00  0.00000000000E+00  0.66739795933E+02  0.11086845892E+03  0.88530304546E+02 0.  0.
        -13    1    3    3    0    0 -0.24402916055E+02 -0.19734696726E+02 -0.57226793419E+01  0.31901561493E+02  0.00000000000E+00 0.  1.
         13    1    3    3    0    0  0.24402916055E+02  0.19734696726E+02  0.72462475275E+02  0.78966897430E+02  0.00000000000E+00 0. -1.
<mgrwt>
<rscale>  0 0.88530305E+02</rscale>
<asrwt>0</asrwt>
<pdfrwt beam="1">  1        3 0.13662173E-01 0.88530305E+02</pdfrwt>
<pdfrwt beam="2">  1       -3 0.33945126E-02 0.88530305E+02</pdfrwt>
<totfact> 0.36697791E+04</totfact>
</mgrwt>
</event>
<event>
 5    1  0.1242969E+001  0.9063177E+02  0.7546771E-02  0.1301329E+00
         -1   -1    0    0    0  501 -0.00000000000E+00  0.00000000000E+00  0.44099777619E+02  0.44099777619E+02  0.00000000000E+00 0.  1.
          1   -1    0    0  501    0  0.00000000000E+00 -0.00000000000E+00 -0.46565532872E+02  0.46565532872E+02  0.00000000000E+00 0. -1.
         23    2    1    2    0    0  0.00000000000E+00  0.00000000000E+00 -0.24657552524E+01  0.90665310491E+02  0.90631774657E+02 0.  0.
        -13    1    3    3    0    0 -0.26572749933E+02 -0.36547056746E+02  0.21934807698E+01  0.45239471191E+02  0.00000000000E+00 0.  1.
         13    1    3    3    0    0  0.26572749933E+02  0.36547056746E+02 -0.46592360222E+01  0.45425839300E+02  0.00000000000E+00 0. -1.
<mgrwt>
<rscale>  0 0.90631775E+02</rscale>
<asrwt>0</asrwt>
<pdfrwt beam="2">  1        1 0.71639281E-02 0.90631775E+02</pdfrwt>
<pdfrwt beam="1">  1       -1 0.67845812E-02 0.90631775E+02</pdfrwt>
<totfact> 0.94338927E+04</totfact>
</mgrwt>
</event>
<event>
 5    1  0.1242969E+001  0.9116463E+02  0.7546771E-02  0.1300056E+00
         -1   -1    0    0    0  501 -0.00000000000E+00  0.00000000000E+00  0.30246008179E+02  0.30246008179E+02  0.00000000000E+00 0.  1.
          1   -1    0    0  501    0  0.00000000000E+00 -0.00000000000E+00 -0.68694933236E+02  0.68694933236E+02  0.00000000000E+00 0. -1.
         23    2    1    2    0    0  0.00000000000E+00  0.00000000000E+00 -0.38448925058E+02  0.98940941415E+02  0.91164631574E+02 0.  0.
        -13    1    3    3    0    0  0.28038776282E+02 -0.14568037617E+02  0.16431335802E+02  0.35614456217E+02  0.00000000000E+00 0.  1.
         13    1    3    3    0    0 -0.28038776282E+02  0.14568037617E+02 -0.54880260860E+02  0.63326485198E+02  0.00000000000E+00 0. -1.
<mgrwt>
<rscale>  0 0.91164632E+02</rscale>
<asrwt>0</asrwt>
<pdfrwt beam="2">  1        1 0.10568451E-01 0.91164632E+02</pdfrwt>
<pdfrwt beam="1">  1       -1 0.46532320E-02 0.91164632E+02</pdfrwt>
<totfact> 0.98417591E+04</totfact>
</mgrwt>
</event>
<event>
 5    1  0.1242969E+001  0.9150201E+02  0.7546771E-02  0.1299255E+00
          1   -1    0    0  501    0  0.00000000000E+00  0.00000000000E+00  0.13188122660E+03  0.13188122660E+03  0.00000000000E+00 0. -1.
         -1   -1    0    0    0  501 -0.00000000000E+00 -0.00000000000E+00 -0.15871511258E+02  0.15871511258E+02  0.00000000000E+00 0.  1.
         23    2    1    2    0    0  0.00000000000E+00  0.00000000000E+00  0.11600971534E+03  0.14775273785E+03  0.91502008123E+02 0.  0.
        -11    1    3    3    0    0 -0.14508693507E+02 -0.35700425168E+02  0.18184626330E+02  0.42611068741E+02  0.00000000000E+00 0.  1.
         11    1    3    3    0    0  0.14508693507E+02  0.35700425168E+02  0.97825089007E+02  0.10514166911E+03  0.00000000000E+00 0. -1.
<mgrwt>
<rscale>  0 0.91502008E+02</rscale>
<asrwt>0</asrwt>
<pdfrwt beam="1">  1        1 0.20289419E-01 0.91502008E+02</pdfrwt>
<pdfrwt beam="2">  1       -1 0.24417710E-02 0.91502008E+02</pdfrwt>
<totfact> 0.10849588E+05</totfact>
</mgrwt>
</event>
<event>
 5    1  0.1242969E+001  0.8822246E+02  0.7546771E-02  0.1307214E+00
          1   -1    0    0  501    0  0.00000000000E+00  0.00000000000E+00  0.93860704915E+01  0.93860704915E+01  0.00000000000E+00 0. -1.
         -1   -1    0    0    0  501 -0.00000000000E+00 -0.00000000000E+00 -0.20730726681E+03  0.20730726681E+03  0.00000000000E+00 0.  1.
         23    2    1    2    0    0  0.00000000000E+00  0.00000000000E+00 -0.19792119632E+03  0.21669333730E+03  0.88222460172E+02 0.  0.
        -11    1    3    3    0    0 -0.84733476481E+01 -0.31441169239E+02 -0.25871962322E+02  0.41589700382E+02  0.00000000000E+00 0. -1.
         11    1    3    3    0    0  0.84733476481E+01  0.31441169239E+02 -0.17204923400E+03  0.17510363692E+03  0.00000000000E+00 0.  1.
<mgrwt>
<rscale>  0 0.88222460E+02</rscale>
<asrwt>0</asrwt>
<pdfrwt beam="1">  1        1 0.14440109E-02 0.88222460E+02</pdfrwt>
<pdfrwt beam="2">  1       -1 0.31893424E-01 0.88222460E+02</pdfrwt>
<totfact> 0.74854955E+04</totfact>
</mgrwt>
</event>
<event>
 5    1  0.1242969E+001  0.9427714E+02  0.7546771E-02  0.1292812E+00
          2   -1    0    0  501    0  0.00000000000E+00  0.00000000000E+00  0.81025522834E+02  0.81025522834E+02  0.00000000000E+00 0. -1.
         -2   -1    0    0    0  501 -0.00000000000E+00 -0.00000000000E+00 -0.27424012759E+02  0.27424012759E+02  0.00000000000E+00 0.  1.
         23    2    1    2    0    0  0.00000000000E+00  0.00000000000E+00  0.53601510075E+02  0.10844953559E+03  0.94277144038E+02 0.  0.
        -11    1    3    3    0    0  0.15117806311E+02  0.23052920654E+01  0.78092728126E+02  0.79575980204E+02  0.00000000000E+00 0. -1.
         11    1    3    3    0    0 -0.15117806311E+02 -0.23052920654E+01 -0.24491218052E+02  0.28873555389E+02  0.00000000000E+00 0.  1.
<mgrwt>
<rscale>  0 0.94277144E+02</rscale>
<asrwt>0</asrwt>
<pdfrwt beam="1">  1        2 0.12465465E-01 0.94277144E+02</pdfrwt>
<pdfrwt beam="2">  1       -2 0.42190789E-02 0.94277144E+02</pdfrwt>
<totfact> 0.10501662E+05</totfact>
</mgrwt>
</event>
<event>
 5    1  0.1242969E+001  0.9090850E+02  0.7546771E-02  0.1300666E+00
          2   -1    0    0  501    0  0.00000000000E+00  0.00000000000E+00  0.18992557847E+03  0.18992557847E+03  0.00000000000E+00 0. -1.
         -2   -1    0    0    0  501 -0.00000000000E+00 -0.00000000000E+00 -0.10878413134E+02  0.10878413134E+02  0.00000000000E+00 0.  1.
         23    2    1    2    0    0  0.00000000000E+00  0.00000000000E+00  0.17904716534E+03  0.20080399160E+03  0.90908501413E+02 0.  0.
        -13    1    3    3    0    0  0.56135085907E+01 -0.34329721426E+02  0.15415100195E+03  0.15802712632E+03  0.00000000000E+00 0. -1.
         13    1    3    3    0    0 -0.56135085907E+01  0.34329721426E+02  0.24896163387E+02  0.42776865281E+02  0.00000000000E+00 0.  1.
<mgrwt>
<rscale>  0 0.90908501E+02</rscale>
<asrwt>0</asrwt>
<pdfrwt beam="1">  1        2 0.29219317E-01 0.90908501E+02</pdfrwt>
<pdfrwt beam="2">  1       -2 0.16736022E-02 0.90908501E+02</pdfrwt>
<totfact> 0.15303819E+05</totfact>
</mgrwt>
</event>
<event>
 5    1  0.1242969E+001  0.9496792E+02  0.7546771E-02  0.1291248E+00
         -1   -1    0    0    0  501 -0.00000000000E+00  0.00000000000E+00  0.23559421919E+02  0.23559421919E+02  0.00000000000E+00 0.  1.
          1   -1    0    0  501    0  0.00000000000E+00 -0.00000000000E+00 -0.95703804235E+02  0.95703804235E+02  0.00000000000E+00 0. -1.
         23    2    1    2    0    0  0.00000000000E+00  0.00000000000E+00 -0.72144382316E+02  0.11926322615E+03  0.94967916755E+02 0.  0.
        -11    1    3    3    0    0 -0.39871753373E+02  0.24676537136E+02 -0.26671249723E+02  0.53944821474E+02  0.00000000000E+00 0.  1.
         11    1    3    3    0    0  0.39871753373E+02 -0.24676537136E+02 -0.45473132593E+02  0.65318404680E+02  0.00000000000E+00 0. -1.
<mgrwt>
<rscale>  0 0.94967917E+02</rscale>
<asrwt>0</asrwt>
<pdfrwt beam="2">  1        1 0.14723662E-01 0.94967917E+02</pdfrwt>
<pdfrwt beam="1">  1       -1 0.36245264E-02 0.94967917E+02</pdfrwt>
<totfact> 0.92746919E+04</totfact>
</mgrwt>
</event>
<event>
 5    1  0.1242969E+001  0.8488680E+02  0.7546771E-02  0.1315729E+00
         -2   -1    0    0    0  501 -0.00000000000E+00  0.00000000000E+00  0.16110194326E+02  0.16110194326E+02  0.00000000000E+00 0. -1.
          2   -1    0    0  501    0  0.00000000000E+00 -0.00000000000E+00 -0.11182001531E+03  0.11182001531E+03  0.00000000000E+00 0.  1.
         23    2    1    2    0    0  0.00000000000E+00  0.00000000000E+00 -0.95709820982E+02  0.12793020963E+03  0.84886799355E+02 0.  0.
        -11    1    3    3    0    0 -0.17601905785E+02  0.66950294107E+01 -0.10517883990E+03  0.10685148042E+03  0.00000000000E+00 0.  1.
         11    1    3    3    0    0  0.17601905785E+02 -0.66950294107E+01  0.94690189143E+01  0.21078729214E+02  0.00000000000E+00 0. -1.
<mgrwt>
<rscale>  0 0.84886799E+02</rscale>
<asrwt>0</asrwt>
<pdfrwt beam="2">  1        2 0.17203080E-01 0.84886799E+02</pdfrwt>
<pdfrwt beam="1">  1       -2 0.24784914E-02 0.84886799E+02</pdfrwt>
<totfact> 0.15430179E+05</totfact>
</mgrwt>
</event>
<event>
 5    1  0.1242969E+001  0.9123282E+02  0.7546771E-02  0.1299893E+00
         -2   -1    0    0    0  501 -0.00000000000E+00  0.00000000000E+00  0.73283937180E+01  0.73283937180E+01  0.00000000000E+00 0. -1.
          2   -1    0    0  501    0  0.00000000000E+00 -0.00000000000E+00 -0.28394444819E+03  0.28394444819E+03  0.00000000000E+00 0.  1.
         23    2    1    2    0    0  0.00000000000E+00  0.00000000000E+00 -0.27661605447E+03  0.29127284191E+03  0.91232816691E+02 0.  0.
        -13    1    3    3    0    0  0.31928022459E+01 -0.38385208787E+02 -0.21633105457E+03  0.21973334615E+03  0.00000000000E+00 0.  1.
         13    1    3    3    0    0 -0.31928022459E+01  0.38385208787E+02 -0.60284999901E+02  0.71539495755E+02  0.00000000000E+00 0. -1.
<mgrwt>
<rscale>  0 0.91232817E+02</rscale>
<asrwt>0</asrwt>
<pdfrwt beam="2">  1        2 0.43683757E-01 0.91232817E+02</pdfrwt>
<pdfrwt beam="1">  1       -2 0.11274453E-02 0.91232817E+02</pdfrwt>
<totfact> 0.17572498E+05</totfact>
</mgrwt>
</event>
<event>
 5    1  0.1242969E+001  0.9105708E+02  0.7546771E-02  0.1300312E+00
          4   -1    0    0  501    0  0.00000000000E+00  0.00000000000E+00  0.17828499778E+02  0.17828499778E+02  0.00000000000E+00 0.  1.
         -4   -1    0    0    0  501 -0.00000000000E+00 -0.00000000000E+00 -0.11626597703E+03  0.11626597703E+03  0.00000000000E+00 0. -1.
         23    2    1    2    0    0  0.00000000000E+00  0.00000000000E+00 -0.98437477256E+02  0.13409447681E+03  0.91057079808E+02 0.  0.
        -13    1    3    3    0    0  0.36338725670E+02  0.15938324346E+02 -0.16345003184E+02  0.42914942565E+02  0.00000000000E+00 0.  1.
         13    1    3    3    0    0 -0.36338725670E+02 -0.15938324346E+02 -0.82092474073E+02  0.91179534248E+02  0.00000000000E+00 0. -1.
<mgrwt>
<rscale>  0 0.91057080E+02</rscale>
<asrwt>0</asrwt>
<pdfrwt beam="1">  1        4 0.27428460E-02 0.91057080E+02</pdfrwt>
<pdfrwt beam="2">  1       -4 0.17887074E-01 0.91057080E+02</pdfrwt>
<totfact> 0.24584262E+04</totfact>
</mgrwt>
</event>
<event>
 5    1  0.1242969E+001  0.9191693E+02  0.7546771E-02  0.1298275E+00
         -1   -1    0    0    0  501 -0.00000000000E+00  0.00000000000E+00  0.76846098379E+01  0.76846098379E+01  0.00000000000E+00 0.  1.
          1   -1    0    0  501    0  0.00000000000E+00 -0.00000000000E+00 -0.27485853627E+03  0.27485853627E+03  0.00000000000E+00 0. -1.
         23    2    1    2    0    0  0.00000000000E+00  0.00000000000E+00 -0.26717392643E+03  0.28254314611E+03  0.91916932322E+02 0.  0.
        -13    1    3    3    0    0 -0.13935084551E+02  0.35483831937E+02 -0.54683462135E+02  0.66660107572E+02  0.00000000000E+00 0.  1.
         13    1    3    3    0    0  0.13935084551E+02 -0.35483831937E+02 -0.21249046430E+03  0.21588303854E+03  0.00000000000E+00 0. -1.
<mgrwt>
<rscale>  0 0.91916932E+02</rscale>
<asrwt>0</asrwt>
<pdfrwt beam="2">  1        1 0.42285917E-01 0.91916932E+02</pdfrwt>
<pdfrwt beam="1">  1       -1 0.11822480E-02 0.91916932E+02</pdfrwt>
<totfact> 0.12328824E+05</totfact>
</mgrwt>
</event>
<event>
 5    1  0.1242969E+001  0.9165713E+02  0.7546771E-02  0.1298888E+00
          2   -1    0    0  501    0  0.00000000000E+00  0.00000000000E+00  0.44481927922E+02  0.44481927922E+02  0.00000000000E+00 0. -1.
         -2   -1    0    0    0  501 -0.00000000000E+00 -0.00000000000E+00 -0.47215970477E+02  0.47215970477E+02  0.00000000000E+00 0.  1.
         23    2    1    2    0    0  0.00000000000E+00  0.00000000000E+00 -0.27340425553E+01  0.91697898399E+02  0.91657130558E+02 0.  0.
        -13    1    3    3    0    0 -0.12076220124E+02 -0.18963716864E+02  0.38585685159E+02  0.44657728883E+02  0.00000000000E+00 0. -1.
         13    1    3    3    0    0  0.12076220124E+02  0.18963716864E+02 -0.41319727714E+02  0.47040169517E+02  0.00000000000E+00 0.  1.
<mgrwt>
<rscale>  0 0.91657131E+02</rscale>
<asrwt>0</asrwt>
<pdfrwt beam="1">  1        2 0.68433736E-02 0.91657131E+02</pdfrwt>
<pdfrwt beam="2">  1       -2 0.72639954E-02 0.91657131E+02</pdfrwt>
<totfact> 0.96575813E+04</totfact>
</mgrwt>
</event>
<event>
 5    1  0.1242969E+001  0.9000732E+02  0.7546771E-02  0.1302834E+00
         -1   -1    0    0    0  501 -0.00000000000E+00  0.00000000000E+00  0.88070162943E+02  0.88070162943E+02  0.00000000000E+00 0.  1.
          1   -1    0    0  501    0  0.00000000000E+00 -0.00000000000E+00 -0.22996772982E+02  0.22996772982E+02  0.00000000000E+00 0. -1.
         23    2    1    2    0    0  0.00000000000E+00  0.00000000000E+00  0.65073389960E+02  0.11106693592E+03  0.90007322896E+02 0.  0.
        -11    1    3    3    0    0 -0.14184891597E+02  0.24866310604E+02 -0.10312422647E+02  0.30428450726E+02  0.00000000000E+00 0. -1.
         11    1    3    3    0    0  0.14184891597E+02 -0.24866310604E+02  0.75385812608E+02  0.80638485199E+02  0.00000000000E+00 0.  1.
<mgrwt>
<rscale>  0 0.90007323E+02</rscale>
<asrwt>0</asrwt>
<pdfrwt beam="2">  1        1 0.35379651E-02 0.90007323E+02</pdfrwt>
<pdfrwt beam="1">  1       -1 0.13549256E-01 0.90007323E+02</pdfrwt>
<totfact> 0.86062593E+04</totfact>
</mgrwt>
</event>
<event>
 5    1  0.1242969E+001  0.7981519E+02  0.7546771E-02  0.1329577E+00
          3   -1    0    0  501    0  0.00000000000E+00  0.00000000000E+00  0.61999032905E+02  0.61999032905E+02  0.00000000000E+00 0. -1.
         -3   -1    0    0    0  501 -0.00000000000E+00 -0.00000000000E+00 -0.25687756631E+02  0.25687756631E+02  0.00000000000E+00 0.  1.
         23    2    1    2    0    0  0.00000000000E+00  0.00000000000E+00  0.36311276273E+02  0.87686789536E+02  0.79815188245E+02 0.  0.
        -11    1    3    3    0    0 -0.37026302945E+02  0.14726296493E+02  0.20563891210E+02  0.44840657219E+02  0.00000000000E+00 0. -1.
         11    1    3    3    0    0  0.37026302945E+02 -0.14726296493E+02  0.15747385064E+02  0.42846132317E+02  0.00000000000E+00 0.  1.
<mgrwt>
<rscale>  0 0.79815188E+02</rscale>
<asrwt>0</asrwt>
<pdfrwt beam="1">  1        3 0.95383128E-02 0.79815188E+02</pdfrwt>
<pdfrwt beam="2">  1       -3 0.39519625E-02 0.79815188E+02</pdfrwt>
<totfact> 0.51013907E+04</totfact>
</mgrwt>
</event>
<event>
 5    1  0.1242969E+001  0.8702810E+02  0.7546771E-02  0.1310212E+00
          4   -1    0    0  501    0  0.00000000000E+00  0.00000000000E+00  0.13689630286E+02  0.13689630286E+02  0.00000000000E+00 0. -1.
         -4   -1    0    0    0  501 -0.00000000000E+00 -0.00000000000E+00 -0.13831437897E+03  0.13831437897E+03  0.00000000000E+00 0.  1.
         23    2    1    2    0    0  0.00000000000E+00  0.00000000000E+00 -0.12462474868E+03  0.15200400925E+03  0.87028103767E+02 0.  0.
        -11    1    3    3    0    0 -0.60397862468E+01  0.42971359048E+02 -0.56664588693E+02  0.71371509218E+02  0.00000000000E+00 0. -1.
         11    1    3    3    0    0  0.60397862468E+01 -0.42971359048E+02 -0.67960159987E+02  0.80632500035E+02  0.00000000000E+00 0.  1.
<mgrwt>
<rscale>  0 0.87028104E+02</rscale>
<asrwt>0</asrwt>
<pdfrwt beam="1">  1        4 0.21060967E-02 0.87028104E+02</pdfrwt>
<pdfrwt beam="2">  1       -4 0.21279137E-01 0.87028104E+02</pdfrwt>
<totfact> 0.26702918E+04</totfact>
</mgrwt>
</event>
<event>
 5    1  0.1242969E+001  0.9186694E+02  0.7546771E-02  0.1298393E+00
         -1   -1    0    0    0  501 -0.00000000000E+00  0.00000000000E+00  0.35479336864E+02  0.35479336864E+02  0.00000000000E+00 0.  1.
          1   -1    0    0  501    0  0.00000000000E+00 -0.00000000000E+00 -0.59467961561E+02  0.59467961561E+02  0.00000000000E+00 0. -1.
         23    2    1    2    0    0  0.00000000000E+00  0.00000000000E+00 -0.23988624698E+02  0.94947298425E+02  0.91866943801E+02 0.  0.
        -13    1    3    3    0    0 -0.45037685782E+02 -0.77364761918E+01 -0.71867131680E+01  0.46258999672E+02  0.00000000000E+00 0.  1.
         13    1    3    3    0    0  0.45037685782E+02  0.77364761918E+01 -0.16801911530E+02  0.48688298754E+02  0.00000000000E+00 0. -1.
<mgrwt>
<rscale>  0 0.91866944E+02</rscale>
<asrwt>0</asrwt>
<pdfrwt beam="2">  1        1 0.91489171E-02 0.91866944E+02</pdfrwt>
<pdfrwt beam="1">  1       -1 0.54583596E-02 0.91866944E+02</pdfrwt>
<totfact> 0.94245708E+04</totfact>
</mgrwt>
</event>
<event>
 5    1  0.1242969E+001  0.9101173E+02  0.7546771E-02  0.1300420E+00
         -3   -1    0    0    0  501 -0.00000000000E+00  0.00000000000E+00  0.41415738452E+02  0.41415738452E+02  0.00000000000E+00 0.  1.
          3   -1    0    0  501    0  0.00000000000E+00 -0.00000000000E+00 -0.49999920323E+02  0.49999920323E+02  0.00000000000E+00 0. -1.
         23    2    1    2    0    0  0.00000000000E+00  0.00000000000E+00 -0.85841818716E+01  0.91415658775E+02  0.91011727216E+02 0.  0.
        -11    1    3    3    0    0  0.10571748073E+02 -0.16066617936E+02 -0.45716925537E+02  0.49597735329E+02  0.00000000000E+00 0. -1.
         11    1    3    3    0    0 -0.10571748073E+02  0.16066617936E+02  0.37132743665E+02  0.41817923446E+02  0.00000000000E+00 0.  1.
<mgrwt>
<rscale>  0 0.91011727E+02</rscale>
<asrwt>0</asrwt>
<pdfrwt beam="2">  1        3 0.76922954E-02 0.91011727E+02</pdfrwt>
<pdfrwt beam="1">  1       -3 0.63716521E-02 0.91011727E+02</pdfrwt>
<totfact> 0.35495464E+04</totfact>
</mgrwt>
</event>
<event>
 5    1  0.1242969E+001  0.9038039E+02  0.7546771E-02  0.1301933E+00
         -4   -1    0    0    0  501 -0.00000000000E+00  0.00000000000E+00  0.69184839072E+01  0.69184839072E+01  0.00000000000E+00 0.  1.
          4   -1    0    0  501    0  0.00000000000E+00 -0.00000000000E+00 -0.29517358875E+03  0.29517358875E+03  0.00000000000E+00 0. -1.
         23    2    1    2    0    0  0.00000000000E+00  0.00000000000E+00 -0.28825510484E+03  0.30209207266E+03  0.90380389988E+02 0.  0.
        -13    1    3    3    0    0  0.21288305732E+02 -0.32701103536E+02 -0.67937281499E+02  0.78345570078E+02  0.00000000000E+00 0.  1.
         13    1    3    3    0    0 -0.21288305732E+02  0.32701103536E+02 -0.22031782334E+03  0.22374650258E+03  0.00000000000E+00 0. -1.
<mgrwt>
<rscale>  0 0.90380390E+02</rscale>
<asrwt>0</asrwt>
<pdfrwt beam="2">  1        4 0.45411321E-01 0.90380390E+02</pdfrwt>
<pdfrwt beam="1">  1       -4 0.10643822E-02 0.90380390E+02</pdfrwt>
<totfact> 0.18174667E+04</totfact>
</mgrwt>
</event>
<event>
 5    1  0.1242969E+001  0.9105574E+02  0.7546771E-02  0.1300315E+00
         -3   -1    0    0    0  501 -0.00000000000E+00  0.00000000000E+00  0.55544172416E+01  0.55544172416E+01  0.00000000000E+00 0.  1.
          3   -1    0    0  501    0  0.00000000000E+00 -0.00000000000E+00 -0.37317809239E+03  0.37317809239E+03  0.00000000000E+00 0. -1.
         23    2    1    2    0    0  0.00000000000E+00  0.00000000000E+00 -0.36762367515E+03  0.37873250963E+03  0.91055737448E+02 0.  0.
        -13    1    3    3    0    0 -0.39236184147E+02 -0.23081317155E+02 -0.18069514905E+03  0.18634098379E+03  0.00000000000E+00 0.  1.
         13    1    3    3    0    0  0.39236184147E+02  0.23081317155E+02 -0.18692852610E+03  0.19239152584E+03  0.00000000000E+00 0. -1.
<mgrwt>
<rscale>  0 0.91055737E+02</rscale>
<asrwt>0</asrwt>
<pdfrwt beam="2">  1        3 0.57412007E-01 0.91055737E+02</pdfrwt>
<pdfrwt beam="1">  1       -3 0.85452583E-03 0.91055737E+02</pdfrwt>
<totfact> 0.21348950E+04</totfact>
</mgrwt>
</event>
<event>
 5    1  0.1242969E+001  0.9183479E+02  0.7546771E-02  0.1298468E+00
          1   -1    0    0  501    0  0.00000000000E+00  0.00000000000E+00  0.10302795574E+03  0.10302795574E+03  0.00000000000E+00 0.  1.
         -1   -1    0    0    0  501 -0.00000000000E+00 -0.00000000000E+00 -0.20464418250E+02  0.20464418250E+02  0.00000000000E+00 0. -1.
         23    2    1    2    0    0  0.00000000000E+00  0.00000000000E+00  0.82563537494E+02  0.12349237399E+03  0.91834790309E+02 0.  0.
        -11    1    3    3    0    0 -0.64811046436E+01 -0.44709109584E+02  0.52329632017E+02  0.69132478505E+02  0.00000000000E+00 0.  1.
         11    1    3    3    0    0  0.64811046436E+01  0.44709109584E+02  0.30233905476E+02  0.54359895489E+02  0.00000000000E+00 0. -1.
<mgrwt>
<rscale>  0 0.91834790E+02</rscale>
<asrwt>0</asrwt>
<pdfrwt beam="1">  1        1 0.15850454E-01 0.91834790E+02</pdfrwt>
<pdfrwt beam="2">  1       -1 0.31483721E-02 0.91834790E+02</pdfrwt>
<totfact> 0.10293427E+05</totfact>
</mgrwt>
</event>
<event>
 5    1  0.1242969E+001  0.9106614E+02  0.7546771E-02  0.1300290E+00
         -2   -1    0    0    0  501 -0.00000000000E+00  0.00000000000E+00  0.49308473836E+02  0.49308473836E+02  0.00000000000E+00 0.  1.
          2   -1    0    0  501    0  0.00000000000E+00 -0.00000000000E+00 -0.42046734756E+02  0.42046734756E+02  0.00000000000E+00 0. -1.
         23    2    1    2    0    0  0.00000000000E+00  0.00000000000E+00  0.72617390804E+01  0.91355208592E+02  0.91066136859E+02 0.  0.
        -11    1    3    3    0    0  0.23193277797E+02 -0.10848935610E+02  0.41401851325E+02  0.48679983895E+02  0.00000000000E+00 0.  1.
         11    1    3    3    0    0 -0.23193277797E+02  0.10848935610E+02 -0.34140112245E+02  0.42675224697E+02  0.00000000000E+00 0. -1.
<mgrwt>
<rscale>  0 0.91066137E+02</rscale>
<asrwt>0</asrwt>
<pdfrwt beam="2">  1        2 0.64687285E-02 0.91066137E+02</pdfrwt>
<pdfrwt beam="1">  1       -2 0.75859190E-02 0.91066137E+02</pdfrwt>
<totfact> 0.96968032E+04</totfact>
</mgrwt>
</event>
<event>
 5    1  0.1242969E+001  0.9204575E+02  0.7546771E-02  0.1297972E+00
         -2   -1    0    0    0  501 -0.00000000000E+00  0.00000000000E+00  0.27220980484E+03  0.27220980484E+03  0.00000000000E+00 0.  1.
          2   -1    0    0  501    0  0.00000000000E+00 -0.00000000000E+00 -0.77811492475E+01  0.77811492475E+01  0.00000000000E+00 0. -1.
         23    2    1    2    0    0  0.00000000000E+00  0.00000000000E+00  0.26442865560E+03  0.27999095409E+03  0.92045752061E+02 0.  0.
        -11    1    3    3    0    0  0.19847790259E+02 -0.32090663793E+02  0.52058983528E+02  0.64295281684E+02  0.00000000000E+00 0.  1.
         11    1    3    3    0    0 -0.19847790259E+02  0.32090663793E+02  0.21236967207E+03  0.21569567241E+03  0.00000000000E+00 0. -1.
<mgrwt>
<rscale>  0 0.92045752E+02</rscale>
<asrwt>0</asrwt>
<pdfrwt beam="2">  1        2 0.11971001E-02 0.92045752E+02</pdfrwt>
<pdfrwt beam="1">  1       -2 0.41878424E-01 0.92045752E+02</pdfrwt>
<totfact> 0.52478791E+04</totfact>
</mgrwt>
</event>
<event>
 5    1  0.1242969E+001  0.9277175E+02  0.7546771E-02  0.1296275E+00
         -2   -1    0    0    0  501 -0.00000000000E+00  0.00000000000E+00  0.16210616001E+02  0.16210616001E+02  0.00000000000E+00 0.  1.
          2   -1    0    0  501    0  0.00000000000E+00 -0.00000000000E+00 -0.13273089375E+03  0.13273089375E+03  0.00000000000E+00 0. -1.
         23    2    1    2    0    0  0.00000000000E+00  0.00000000000E+00 -0.11652027775E+03  0.14894150975E+03  0.92771753247E+02 0.  0.
        -11    1    3    3    0    0 -0.21168626767E+02 -0.31063206384E+02 -0.10189256311E+03  0.10860537724E+03  0.00000000000E+00 0. -1.
         11    1    3    3    0    0  0.21168626767E+02  0.31063206384E+02 -0.14627714644E+02  0.40336132509E+02  0.00000000000E+00 0.  1.
<mgrwt>
<rscale>  0 0.92771753E+02</rscale>
<asrwt>0</asrwt>
<pdfrwt beam="2">  1        2 0.20420137E-01 0.92771753E+02</pdfrwt>
<pdfrwt beam="1">  1       -2 0.24939409E-02 0.92771753E+02</pdfrwt>
<totfact> 0.12799003E+05</totfact>
</mgrwt>
</event>
<event>
 5    1  0.1242969E+001  0.9489075E+02  0.7546771E-02  0.1291422E+00
          1   -1    0    0  501    0  0.00000000000E+00  0.00000000000E+00  0.31352418718E+02  0.31352418718E+02  0.00000000000E+00 0. -1.
         -1   -1    0    0    0  501 -0.00000000000E+00 -0.00000000000E+00 -0.71798716554E+02  0.71798716554E+02  0.00000000000E+00 0.  1.
         23    2    1    2    0    0  0.00000000000E+00  0.00000000000E+00 -0.40446297836E+02  0.10315113527E+03  0.94890746120E+02 0.  0.
        -13    1    3    3    0    0  0.17445853411E+02 -0.41170476058E+02 -0.37469198207E+02  0.58337866899E+02  0.00000000000E+00 0. -1.
         13    1    3    3    0    0 -0.17445853411E+02  0.41170476058E+02 -0.29770996289E+01  0.44813268373E+02  0.00000000000E+00 0.  1.
<mgrwt>
<rscale>  0 0.94890746E+02</rscale>
<asrwt>0</asrwt>
<pdfrwt beam="1">  1        1 0.48234491E-02 0.94890746E+02</pdfrwt>
<pdfrwt beam="2">  1       -1 0.11045956E-01 0.94890746E+02</pdfrwt>
<totfact> 0.77827026E+04</totfact>
</mgrwt>
</event>
<event>
 5    1  0.1242969E+001  0.9024275E+02  0.7546771E-02  0.1302265E+00
         -1   -1    0    0    0  501 -0.00000000000E+00  0.00000000000E+00  0.37591622428E+02  0.37591622428E+02  0.00000000000E+00 0.  1.
          1   -1    0    0  501    0  0.00000000000E+00 -0.00000000000E+00 -0.54159366118E+02  0.54159366118E+02  0.00000000000E+00 0. -1.
         23    2    1    2    0    0  0.00000000000E+00  0.00000000000E+00 -0.16567743689E+02  0.91750988546E+02  0.90242749118E+02 0.  0.
        -13    1    3    3    0    0 -0.27800407651E+02 -0.61915436958E+01 -0.43865063257E+02  0.52300493816E+02  0.00000000000E+00 0. -1.
         13    1    3    3    0    0  0.27800407651E+02  0.61915436958E+01  0.27297319568E+02  0.39450494730E+02  0.00000000000E+00 0.  1.
<mgrwt>
<rscale>  0 0.90242749E+02</rscale>
<asrwt>0</asrwt>
<pdfrwt beam="2">  1        1 0.83322101E-02 0.90242749E+02</pdfrwt>
<pdfrwt beam="1">  1       -1 0.57833266E-02 0.90242749E+02</pdfrwt>
<totfact> 0.97652287E+04</totfact>
</mgrwt>
</event>
<event>
 5    1  0.1242969E+001  0.9135544E+02  0.7546771E-02  0.1299602E+00
         -2   -1    0    0    0  501 -0.00000000000E+00  0.00000000000E+00  0.32541264001E+02  0.32541264001E+02  0.00000000000E+00 0.  1.
          2   -1    0    0  501    0  0.00000000000E+00 -0.00000000000E+00 -0.64117177814E+02  0.64117177814E+02  0.00000000000E+00 0. -1.
         23    2    1    2    0    0  0.00000000000E+00  0.00000000000E+00 -0.31575913814E+02  0.96658441815E+02  0.91355437938E+02 0.  0.
        -13    1    3    3    0    0 -0.50371431367E+01  0.35249932624E+02 -0.46058551296E+02  0.58217872758E+02  0.00000000000E+00 0. -1.
         13    1    3    3    0    0  0.50371431367E+01 -0.35249932624E+02  0.14482637482E+02  0.38440569057E+02  0.00000000000E+00 0.  1.
<mgrwt>
<rscale>  0 0.91355438E+02</rscale>
<asrwt>0</asrwt>
<pdfrwt beam="2">  1        2 0.98641811E-02 0.91355438E+02</pdfrwt>
<pdfrwt beam="1">  1       -2 0.50063484E-02 0.91355438E+02</pdfrwt>
<totfact> 0.10739426E+05</totfact>
</mgrwt>
</event>
<event>
 5    1  0.1242969E+001  0.9148778E+02  0.7546771E-02  0.1299288E+00
          1   -1    0    0  501    0  0.00000000000E+00  0.00000000000E+00  0.20442239636E+02  0.20442239636E+02  0.00000000000E+00 0. -1.
         -1   -1    0    0    0  501 -0.00000000000E+00 -0.00000000000E+00 -0.10236175977E+03  0.10236175977E+03  0.00000000000E+00 0.  1.
         23    2    1    2    0    0  0.00000000000E+00  0.00000000000E+00 -0.81919520139E+02  0.12280399941E+03  0.91487783290E+02 0.  0.
        -11    1    3    3    0    0 -0.67930994533E+01  0.40854425083E+02 -0.67031948354E+02  0.78794113672E+02  0.00000000000E+00 0.  1.
         11    1    3    3    0    0  0.67930994533E+01 -0.40854425083E+02 -0.14887571784E+02  0.44009885739E+02  0.00000000000E+00 0. -1.
<mgrwt>
<rscale>  0 0.91487783E+02</rscale>
<asrwt>0</asrwt>
<pdfrwt beam="1">  1        1 0.31449600E-02 0.91487783E+02</pdfrwt>
<pdfrwt beam="2">  1       -1 0.15747963E-01 0.91487783E+02</pdfrwt>
<totfact> 0.80307796E+04</totfact>
</mgrwt>
</event>
<event>
 5    1  0.1242969E+001  0.9027629E+02  0.7546771E-02  0.1302184E+00
          1   -1    0    0  501    0  0.00000000000E+00  0.00000000000E+00  0.14912336686E+02  0.14912336686E+02  0.00000000000E+00 0. -1.
         -1   -1    0    0    0  501 -0.00000000000E+00 -0.00000000000E+00 -0.13662862780E+03  0.13662862780E+03  0.00000000000E+00 0.  1.
         23    2    1    2    0    0  0.00000000000E+00  0.00000000000E+00 -0.12171629111E+03  0.15154096448E+03  0.90276289215E+02 0.  0.
        -13    1    3    3    0    0  0.12615596900E+02  0.40780730705E+02 -0.85484979074E+02  0.95550525532E+02  0.00000000000E+00 0.  1.
         13    1    3    3    0    0 -0.12615596900E+02 -0.40780730705E+02 -0.36231312037E+02  0.55990438951E+02  0.00000000000E+00 0. -1.
<mgrwt>
<rscale>  0 0.90276289E+02</rscale>
<asrwt>0</asrwt>
<pdfrwt beam="1">  1        1 0.22942057E-02 0.90276289E+02</pdfrwt>
<pdfrwt beam="2">  1       -1 0.21019788E-01 0.90276289E+02</pdfrwt>
<totfact> 0.78382183E+04</totfact>
</mgrwt>
</event>
<event>
 5    1  0.1242969E+001  0.1042243E+03  0.7546771E-02  0.1271656E+00
         -1   -1    0    0    0  501 -0.00000000000E+00  0.00000000000E+00  0.15769782264E+02  0.15769782264E+02  0.00000000000E+00 0.  1.
          1   -1    0    0  501    0  0.00000000000E+00 -0.00000000000E+00 -0.17220744546E+03  0.17220744546E+03  0.00000000000E+00 0. -1.
         23    2    1    2    0    0  0.00000000000E+00  0.00000000000E+00 -0.15643766320E+03  0.18797722772E+03  0.10422425666E+03 0.  0.
        -13    1    3    3    0    0  0.22182439005E+02 -0.37246505043E+02 -0.26060896988E+02  0.50581944307E+02  0.00000000000E+00 0.  1.
         13    1    3    3    0    0 -0.22182439005E+02  0.37246505043E+02 -0.13037676621E+03  0.13739528342E+03  0.00000000000E+00 0. -1.
<mgrwt>
<rscale>  0 0.10422426E+03</rscale>
<asrwt>0</asrwt>
<pdfrwt beam="2">  1        1 0.26493453E-01 0.10422426E+03</pdfrwt>
<pdfrwt beam="1">  1       -1 0.24261204E-02 0.10422426E+03</pdfrwt>
<totfact> 0.80056144E+04</totfact>
</mgrwt>
</event>
<event>
 5    1  0.1242969E+001  0.9133867E+02  0.7546771E-02  0.1299642E+00
          1   -1    0    0  501    0  0.00000000000E+00  0.00000000000E+00  0.14614365983E+03  0.14614365983E+03  0.00000000000E+00 0. -1.
         -1   -1    0    0    0  501 -0.00000000000E+00 -0.00000000000E+00 -0.14271492319E+02  0.14271492319E+02  0.00000000000E+00 0.  1.
         23    2    1    2    0    0  0.00000000000E+00  0.00000000000E+00  0.13187216752E+03  0.16041515215E+03  0.91338669111E+02 0.  0.
        -13    1    3    3    0    0  0.44363943361E+02 -0.15168091772E+01  0.47083555361E+02  0.64709515267E+02  0.00000000000E+00 0.  1.
         13    1    3    3    0    0 -0.44363943361E+02  0.15168091772E+01  0.84788612155E+02  0.95705636886E+02  0.00000000000E+00 0. -1.
<mgrwt>
<rscale>  0 0.91338669E+02</rscale>
<asrwt>0</asrwt>
<pdfrwt beam="1">  1        1 0.22483639E-01 0.91338669E+02</pdfrwt>
<pdfrwt beam="2">  1       -1 0.21956143E-02 0.91338669E+02</pdfrwt>
<totfact> 0.11106511E+05</totfact>
</mgrwt>
</event>
<event>
 5    1  0.1242969E+001  0.9014536E+02  0.7546771E-02  0.1302500E+00
         -2   -1    0    0    0  501 -0.00000000000E+00  0.00000000000E+00  0.94065768905E+01  0.94065768905E+01  0.00000000000E+00 0.  1.
          2   -1    0    0  501    0  0.00000000000E+00 -0.00000000000E+00 -0.21597087839E+03  0.21597087839E+03  0.00000000000E+00 0. -1.
         23    2    1    2    0    0  0.00000000000E+00  0.00000000000E+00 -0.20656430150E+03  0.22537745528E+03  0.90145364244E+02 0.  0.
        -13    1    3    3    0    0  0.71838544791E+01 -0.38064149689E+02 -0.45666744262E+02  0.59882708591E+02  0.00000000000E+00 0.  1.
         13    1    3    3    0    0 -0.71838544791E+01  0.38064149689E+02 -0.16089755724E+03  0.16549474669E+03  0.00000000000E+00 0. -1.
<mgrwt>
<rscale>  0 0.90145364E+02</rscale>
<asrwt>0</asrwt>
<pdfrwt beam="2">  1        2 0.33226288E-01 0.90145364E+02</pdfrwt>
<pdfrwt beam="1">  1       -2 0.14471657E-02 0.90145364E+02</pdfrwt>
<totfact> 0.16399328E+05</totfact>
</mgrwt>
</event>
<event>
 5    1  0.1242969E+001  0.9107196E+02  0.7546771E-02  0.1300276E+00
         -1   -1    0    0    0  501 -0.00000000000E+00  0.00000000000E+00  0.12245069231E+02  0.12245069231E+02  0.00000000000E+00 0.  1.
          1   -1    0    0  501    0  0.00000000000E+00 -0.00000000000E+00 -0.16933553933E+03  0.16933553933E+03  0.00000000000E+00 0. -1.
         23    2    1    2    0    0  0.00000000000E+00  0.00000000000E+00 -0.15709047010E+03  0.18158060857E+03  0.91071958416E+02 0.  0.
        -13    1    3    3    0    0  0.42038305648E+02 -0.31527650982E+01 -0.44221129819E+02  0.61095559511E+02  0.00000000000E+00 0.  1.
         13    1    3    3    0    0 -0.42038305648E+02  0.31527650982E+01 -0.11286934028E+03  0.12048504905E+03  0.00000000000E+00 0. -1.
<mgrwt>
<rscale>  0 0.91071958E+02</rscale>
<asrwt>0</asrwt>
<pdfrwt beam="2">  1        1 0.26051621E-01 0.91071958E+02</pdfrwt>
<pdfrwt beam="1">  1       -1 0.18838568E-02 0.91071958E+02</pdfrwt>
<totfact> 0.11504692E+05</totfact>
</mgrwt>
</event>
<event>
 5    1  0.1242969E+001  0.9157258E+02  0.7546771E-02  0.1299088E+00
          2   -1    0    0  501    0  0.00000000000E+00  0.00000000000E+00  0.61008357321E+02  0.61008357321E+02  0.00000000000E+00 0. -1.
         -2   -1    0    0    0  501 -0.00000000000E+00 -0.00000000000E+00 -0.34362245034E+02  0.34362245034E+02  0.00000000000E+00 0.  1.
         23    2    1    2    0    0  0.00000000000E+00  0.00000000000E+00  0.26646112288E+02  0.95370602355E+02  0.91572575008E+02 0.  0.
        -11    1    3    3    0    0 -0.95676844498E+01 -0.16229667872E+02 -0.30138326023E+02  0.35542388783E+02  0.00000000000E+00 0.  1.
         11    1    3    3    0    0  0.95676844498E+01  0.16229667872E+02  0.56784438310E+02  0.59828213572E+02  0.00000000000E+00 0. -1.
<mgrwt>
<rscale>  0 0.91572575E+02</rscale>
<asrwt>0</asrwt>
<pdfrwt beam="1">  1        2 0.93859011E-02 0.91572575E+02</pdfrwt>
<pdfrwt beam="2">  1       -2 0.52864993E-02 0.91572575E+02</pdfrwt>
<totfact> 0.10525121E+05</totfact>
</mgrwt>
</event>
<event>
 5    1  0.1242969E+001  0.9072414E+02  0.7546771E-02  0.1301108E+00
         -2   -1    0    0    0  501 -0.00000000000E+00  0.00000000000E+00  0.13765201310E+03  0.13765201310E+03  0.00000000000E+00 0.  1.
          2   -1    0    0  501    0  0.00000000000E+00 -0.00000000000E+00 -0.14948690589E+02  0.14948690589E+02  0.00000000000E+00 0. -1.
         23    2    1    2    0    0  0.00000000000E+00  0.00000000000E+00  0.12270332251E+03  0.15260070369E+03  0.90724139075E+02 0.  0.
        -13    1    3    3    0    0 -0.25461209769E+00  0.36047247339E+02  0.10766855826E+03  0.11354288752E+03  0.00000000000E+00 0.  1.
         13    1    3    3    0    0  0.25461209769E+00 -0.36047247339E+02  0.15034764254E+02  0.39057816173E+02  0.00000000000E+00 0. -1.
<mgrwt>
<rscale>  0 0.90724139E+02</rscale>
<asrwt>0</asrwt>
<pdfrwt beam="2">  1        2 0.22997986E-02 0.90724139E+02</pdfrwt>
<pdfrwt beam="1">  1       -2 0.21177232E-01 0.90724139E+02</pdfrwt>
<totfact> 0.72933819E+04</totfact>
</mgrwt>
</event>
<event>
 5    1  0.1242969E+001  0.9120685E+02  0.7546771E-02  0.1299955E+00
         -1   -1    0    0    0  501 -0.00000000000E+00  0.00000000000E+00  0.30414623458E+03  0.30414623458E+03  0.00000000000E+00 0.  1.
          1   -1    0    0  501    0  0.00000000000E+00 -0.00000000000E+00 -0.68377388038E+01  0.68377388038E+01  0.00000000000E+00 0. -1.
         23    2    1    2    0    0  0.00000000000E+00  0.00000000000E+00  0.29730849577E+03  0.31098397338E+03  0.91206853036E+02 0.  0.
        -13    1    3    3    0    0  0.43053117694E+02  0.13961143809E+02  0.12961260078E+03  0.13728769341E+03  0.00000000000E+00 0. -1.
         13    1    3    3    0    0 -0.43053117694E+02 -0.13961143809E+02  0.16769589499E+03  0.17369627997E+03  0.00000000000E+00 0.  1.
<mgrwt>
<rscale>  0 0.91206853E+02</rscale>
<asrwt>0</asrwt>
<pdfrwt beam="2">  1        1 0.10519600E-02 0.91206853E+02</pdfrwt>
<pdfrwt beam="1">  1       -1 0.46791718E-01 0.91206853E+02</pdfrwt>
<totfact> 0.60206109E+04</totfact>
</mgrwt>
</event>
<event>
 5    1  0.1242969E+001  0.9188778E+02  0.7546771E-02  0.1298343E+00
         -1   -1    0    0    0  501 -0.00000000000E+00  0.00000000000E+00  0.16403593782E+02  0.16403593782E+02  0.00000000000E+00 0.  1.
          1   -1    0    0  501    0  0.00000000000E+00 -0.00000000000E+00 -0.12868162816E+03  0.12868162816E+03  0.00000000000E+00 0. -1.
         23    2    1    2    0    0  0.00000000000E+00  0.00000000000E+00 -0.11227803438E+03  0.14508522194E+03  0.91887782769E+02 0.  0.
        -11    1    3    3    0    0  0.43298221811E+02  0.11658741531E+02 -0.71942525626E+02  0.84772573746E+02  0.00000000000E+00 0.  1.
         11    1    3    3    0    0 -0.43298221811E+02 -0.11658741531E+02 -0.40335508753E+02  0.60312648197E+02  0.00000000000E+00 0. -1.
<mgrwt>
<rscale>  0 0.91887783E+02</rscale>
<asrwt>0</asrwt>
<pdfrwt beam="2">  1        1 0.19797174E-01 0.91887783E+02</pdfrwt>
<pdfrwt beam="1">  1       -1 0.25236297E-02 0.91887783E+02</pdfrwt>
<totfact> 0.10679675E+05</totfact>
</mgrwt>
</event>
<event>
 5    1  0.1242969E+001  0.9061213E+02  0.7546771E-02  0.1301376E+00
          1   -1    0    0  501    0  0.00000000000E+00  0.00000000000E+00  0.92876215920E+02  0.92876215920E+02  0.00000000000E+00 0. -1.
         -1   -1    0    0    0  501 -0.00000000000E+00 -0.00000000000E+00 -0.22100808918E+02  0.22100808918E+02  0.00000000000E+00 0.  1.
         23    2    1    2    0    0  0.00000000000E+00  0.00000000000E+00  0.70775407002E+02  0.11497702484E+03  0.90612129454E+02 0.  0.
        -11    1    3    3    0    0  0.24045586064E+02 -0.30261192024E+01 -0.13184387883E+02  0.27589412651E+02  0.00000000000E+00 0.  1.
         11    1    3    3    0    0 -0.24045586064E+02  0.30261192024E+01  0.83959794885E+02  0.87387612187E+02  0.00000000000E+00 0. -1.
<mgrwt>
<rscale>  0 0.90612129E+02</rscale>
<asrwt>0</asrwt>
<pdfrwt beam="1">  1        1 0.14288648E-01 0.90612129E+02</pdfrwt>
<pdfrwt beam="2">  1       -1 0.34001245E-02 0.90612129E+02</pdfrwt>
<totfact> 0.10495215E+05</totfact>
</mgrwt>
</event>
<event>
 5    1  0.1242969E+001  0.9288685E+02  0.7546771E-02  0.1296008E+00
         -1   -1    0    0    0  501 -0.00000000000E+00  0.00000000000E+00  0.66098383131E+01  0.66098383131E+01  0.00000000000E+00 0.  1.
          1   -1    0    0  501    0  0.00000000000E+00 -0.00000000000E+00 -0.32633050097E+03  0.32633050097E+03  0.00000000000E+00 0. -1.
         23    2    1    2    0    0  0.00000000000E+00  0.00000000000E+00 -0.31972066266E+03  0.33294033929E+03  0.92886852634E+02 0.  0.
        -11    1    3    3    0    0 -0.30766753321E+02 -0.27308404598E+02 -0.23712394856E+03  0.24066596986E+03  0.00000000000E+00 0. -1.
         11    1    3    3    0    0  0.30766753321E+02  0.27308404598E+02 -0.82596714106E+02  0.92274369425E+02  0.00000000000E+00 0.  1.
<mgrwt>
<rscale>  0 0.92886853E+02</rscale>
<asrwt>0</asrwt>
<pdfrwt beam="2">  1        1 0.50204691E-01 0.92886853E+02</pdfrwt>
<pdfrwt beam="1">  1       -1 0.10168982E-02 0.92886853E+02</pdfrwt>
<totfact> 0.12387392E+05</totfact>
</mgrwt>
</event>
<event>
 5    1  0.1242969E+001  0.8934527E+02  0.7546771E-02  0.1304445E+00
         -3   -1    0    0    0  501 -0.00000000000E+00  0.00000000000E+00  0.16389799457E+02  0.16389799457E+02  0.00000000000E+00 0.  1.
          3   -1    0    0  501    0  0.00000000000E+00 -0.00000000000E+00 -0.12176136664E+03  0.12176136664E+03  0.00000000000E+00 0. -1.
         23    2    1    2    0    0  0.00000000000E+00  0.00000000000E+00 -0.10537156718E+03  0.13815116609E+03  0.89345271408E+02 0.  0.
        -11    1    3    3    0    0  0.36734763922E+02 -0.31853978829E+01 -0.13688870597E+02  0.39331600759E+02  0.00000000000E+00 0.  1.
         11    1    3    3    0    0 -0.36734763922E+02  0.31853978829E+01 -0.91682696582E+02  0.98819565333E+02  0.00000000000E+00 0. -1.
<mgrwt>
<rscale>  0 0.89345271E+02</rscale>
<asrwt>0</asrwt>
<pdfrwt beam="2">  1        3 0.18732517E-01 0.89345271E+02</pdfrwt>
<pdfrwt beam="1">  1       -3 0.25215077E-02 0.89345271E+02</pdfrwt>
<totfact> 0.33855341E+04</totfact>
</mgrwt>
</event>
<event>
 5    1  0.1242969E+001  0.9068809E+02  0.7546771E-02  0.1301194E+00
          2   -1    0    0  501    0  0.00000000000E+00  0.00000000000E+00  0.45670263039E+02  0.45670263039E+02  0.00000000000E+00 0. -1.
         -2   -1    0    0    0  501 -0.00000000000E+00 -0.00000000000E+00 -0.45020156960E+02  0.45020156960E+02  0.00000000000E+00 0.  1.
         23    2    1    2    0    0  0.00000000000E+00  0.00000000000E+00  0.65010607854E+00  0.90690419999E+02  0.90688089855E+02 0.  0.
        -11    1    3    3    0    0 -0.23346846144E+02 -0.10300799936E+02 -0.37157915123E+02  0.45076516730E+02  0.00000000000E+00 0.  1.
         11    1    3    3    0    0  0.23346846144E+02  0.10300799936E+02  0.37808021202E+02  0.45613903269E+02  0.00000000000E+00 0. -1.
<mgrwt>
<rscale>  0 0.90688090E+02</rscale>
<asrwt>0</asrwt>
<pdfrwt beam="1">  1        2 0.70261943E-02 0.90688090E+02</pdfrwt>
<pdfrwt beam="2">  1       -2 0.69261780E-02 0.90688090E+02</pdfrwt>
<totfact> 0.10025342E+05</totfact>
</mgrwt>
</event>
<event>
 5    1  0.1242969E+001  0.9109391E+02  0.7546771E-02  0.1300224E+00
          3   -1    0    0  501    0  0.00000000000E+00  0.00000000000E+00  0.63906409125E+02  0.63906409125E+02  0.00000000000E+00 0. -1.
         -3   -1    0    0    0  501 -0.00000000000E+00 -0.00000000000E+00 -0.32461927535E+02  0.32461927535E+02  0.00000000000E+00 0.  1.
         23    2    1    2    0    0  0.00000000000E+00  0.00000000000E+00  0.31444481590E+02  0.96368336660E+02  0.91093912465E+02 0.  0.
        -11    1    3    3    0    0  0.16589496212E+02  0.89881268909E+00 -0.29142064778E+02  0.33545181298E+02  0.00000000000E+00 0.  1.
         11    1    3    3    0    0 -0.16589496212E+02 -0.89881268909E+00  0.60586546368E+02  0.62823155362E+02  0.00000000000E+00 0. -1.
<mgrwt>
<rscale>  0 0.91093912E+02</rscale>
<asrwt>0</asrwt>
<pdfrwt beam="1">  1        3 0.98317552E-02 0.91093912E+02</pdfrwt>
<pdfrwt beam="2">  1       -3 0.49941427E-02 0.91093912E+02</pdfrwt>
<totfact> 0.35029442E+04</totfact>
</mgrwt>
</event>
<event>
 5    1  0.1242969E+001  0.8000561E+02  0.7546771E-02  0.1329036E+00
          1   -1    0    0  501    0  0.00000000000E+00  0.00000000000E+00  0.38513458884E+02  0.38513458884E+02  0.00000000000E+00 0. -1.
         -1   -1    0    0    0  501 -0.00000000000E+00 -0.00000000000E+00 -0.41549740242E+02  0.41549740242E+02  0.00000000000E+00 0.  1.
         23    2    1    2    0    0  0.00000000000E+00  0.00000000000E+00 -0.30362813573E+01  0.80063199126E+02  0.80005605115E+02 0.  0.
        -11    1    3    3    0    0 -0.28552677501E+02  0.22361883237E+02 -0.18409717038E+02  0.40672188235E+02  0.00000000000E+00 0. -1.
         11    1    3    3    0    0  0.28552677501E+02 -0.22361883237E+02  0.15373435681E+02  0.39391010891E+02  0.00000000000E+00 0.  1.
<mgrwt>
<rscale>  0 0.80005605E+02</rscale>
<asrwt>0</asrwt>
<pdfrwt beam="1">  1        1 0.59251475E-02 0.80005605E+02</pdfrwt>
<pdfrwt beam="2">  1       -1 0.63922677E-02 0.80005605E+02</pdfrwt>
<totfact> 0.12993073E+05</totfact>
</mgrwt>
</event>
<event>
 5    1  0.1242969E+001  0.8669229E+02  0.7546771E-02  0.1311065E+00
         -1   -1    0    0    0  501 -0.00000000000E+00  0.00000000000E+00  0.58060289715E+02  0.58060289715E+02  0.00000000000E+00 0.  1.
          1   -1    0    0  501    0  0.00000000000E+00 -0.00000000000E+00 -0.32360983776E+02  0.32360983776E+02  0.00000000000E+00 0. -1.
         23    2    1    2    0    0  0.00000000000E+00  0.00000000000E+00  0.25699305939E+02  0.90421273490E+02  0.86692285550E+02 0.  0.
        -11    1    3    3    0    0 -0.12419524105E+02  0.41180547168E+02  0.72516642706E+01  0.43619590538E+02  0.00000000000E+00 0. -1.
         11    1    3    3    0    0  0.12419524105E+02 -0.41180547168E+02  0.18447641669E+02  0.46801682952E+02  0.00000000000E+00 0.  1.
<mgrwt>
<rscale>  0 0.86692286E+02</rscale>
<asrwt>0</asrwt>
<pdfrwt beam="2">  1        1 0.49786129E-02 0.86692286E+02</pdfrwt>
<pdfrwt beam="1">  1       -1 0.89323522E-02 0.86692286E+02</pdfrwt>
<totfact> 0.10126330E+05</totfact>
</mgrwt>
</event>
<event>
 5    1  0.1242969E+001  0.6374956E+02  0.7546771E-02  0.1382738E+00
         -2   -1    0    0    0  501 -0.00000000000E+00  0.00000000000E+00  0.15489473216E+03  0.15489473216E+03  0.00000000000E+00 0. -1.
          2   -1    0    0  501    0  0.00000000000E+00 -0.00000000000E+00 -0.65593031310E+01  0.65593031310E+01  0.00000000000E+00 0.  1.
         23    2    1    2    0    0  0.00000000000E+00  0.00000000000E+00  0.14833542903E+03  0.16145403530E+03  0.63749556913E+02 0.  0.
        -13    1    3    3    0    0 -0.15545071624E+02 -0.16917568828E+02  0.18211601116E+02  0.29317499929E+02  0.00000000000E+00 0.  1.
         13    1    3    3    0    0  0.15545071624E+02  0.16917568828E+02  0.13012382792E+03  0.13213653537E+03  0.00000000000E+00 0. -1.
<mgrwt>
<rscale>  0 0.63749557E+02</rscale>
<asrwt>0</asrwt>
<pdfrwt beam="2">  1        2 0.10091237E-02 0.63749557E+02</pdfrwt>
<pdfrwt beam="1">  1       -2 0.23829956E-01 0.63749557E+02</pdfrwt>
<totfact> 0.17005556E+05</totfact>
</mgrwt>
</event>
<event>
 5    1  0.1242969E+001  0.9810109E+02  0.7546771E-02  0.1284341E+00
         -2   -1    0    0    0  501 -0.00000000000E+00  0.00000000000E+00  0.37031065016E+02  0.37031065016E+02  0.00000000000E+00 0. -1.
          2   -1    0    0  501    0  0.00000000000E+00 -0.00000000000E+00 -0.64971282868E+02  0.64971282868E+02  0.00000000000E+00 0.  1.
         23    2    1    2    0    0  0.00000000000E+00  0.00000000000E+00 -0.27940217852E+02  0.10200234788E+03  0.98101086641E+02 0.  0.
        -13    1    3    3    0    0  0.35666903160E+02 -0.97000856252E+01  0.19557140400E+02  0.41817477002E+02  0.00000000000E+00 0. -1.
         13    1    3    3    0    0 -0.35666903160E+02  0.97000856252E+01 -0.47497358252E+02  0.60184870882E+02  0.00000000000E+00 0.  1.
<mgrwt>
<rscale>  0 0.98101087E+02</rscale>
<asrwt>0</asrwt>
<pdfrwt beam="2">  1        2 0.99955820E-02 0.98101087E+02</pdfrwt>
<pdfrwt beam="1">  1       -2 0.56970869E-02 0.98101087E+02</pdfrwt>
<totfact> 0.88106935E+04</totfact>
</mgrwt>
</event>
<event>
 5    1  0.1242969E+001  0.9483375E+02  0.7546771E-02  0.1291551E+00
         -2   -1    0    0    0  501 -0.00000000000E+00  0.00000000000E+00  0.37462651542E+02  0.37462651542E+02  0.00000000000E+00 0.  1.
          2   -1    0    0  501    0  0.00000000000E+00 -0.00000000000E+00 -0.60016041906E+02  0.60016041906E+02  0.00000000000E+00 0. -1.
         23    2    1    2    0    0  0.00000000000E+00  0.00000000000E+00 -0.22553390364E+02  0.97478693448E+02  0.94833750635E+02 0.  0.
        -13    1    3    3    0    0 -0.39054579940E+02 -0.24224634218E+02  0.72222146332E+00  0.45963188761E+02  0.00000000000E+00 0.  1.
         13    1    3    3    0    0  0.39054579940E+02  0.24224634218E+02 -0.23275611828E+02  0.51515504687E+02  0.00000000000E+00 0. -1.
<mgrwt>
<rscale>  0 0.94833751E+02</rscale>
<asrwt>0</asrwt>
<pdfrwt beam="2">  1        2 0.92332372E-02 0.94833751E+02</pdfrwt>
<pdfrwt beam="1">  1       -2 0.57634849E-02 0.94833751E+02</pdfrwt>
<totfact> 0.94893245E+04</totfact>
</mgrwt>
</event>
<event>
 5    1  0.1242969E+001  0.9455764E+02  0.7546771E-02  0.1292176E+00
          2   -1    0    0  501    0  0.00000000000E+00  0.00000000000E+00  0.72946489156E+01  0.72946489156E+01  0.00000000000E+00 0. -1.
         -2   -1    0    0    0  501 -0.00000000000E+00 -0.00000000000E+00 -0.30642827498E+03  0.30642827498E+03  0.00000000000E+00 0.  1.
         23    2    1    2    0    0  0.00000000000E+00  0.00000000000E+00 -0.29913362606E+03  0.31372292389E+03  0.94557637106E+02 0.  0.
        -11    1    3    3    0    0 -0.46920891972E+02  0.46134244367E+01 -0.13786816215E+03  0.14570684240E+03  0.00000000000E+00 0. -1.
         11    1    3    3    0    0  0.46920891972E+02 -0.46134244367E+01 -0.16126546392E+03  0.16801608149E+03  0.00000000000E+00 0.  1.
<mgrwt>
<rscale>  0 0.94557637E+02</rscale>
<asrwt>0</asrwt>
<pdfrwt beam="1">  1        2 0.11222537E-02 0.94557637E+02</pdfrwt>
<pdfrwt beam="2">  1       -2 0.47142810E-01 0.94557637E+02</pdfrwt>
<totfact> 0.45874789E+04</totfact>
</mgrwt>
</event>
<event>
 5    1  0.1242969E+001  0.9105212E+02  0.7546771E-02  0.1300324E+00
          3   -1    0    0  501    0  0.00000000000E+00  0.00000000000E+00  0.88083608588E+02  0.88083608588E+02  0.00000000000E+00 0. -1.
         -3   -1    0    0    0  501 -0.00000000000E+00 -0.00000000000E+00 -0.23530167196E+02  0.23530167196E+02  0.00000000000E+00 0.  1.
         23    2    1    2    0    0  0.00000000000E+00  0.00000000000E+00  0.64553441391E+02  0.11161377578E+03  0.91052117764E+02 0.  0.
        -13    1    3    3    0    0 -0.31304791707E+02  0.13199502250E+02  0.69425531367E+02  0.77292439793E+02  0.00000000000E+00 0. -1.
         13    1    3    3    0    0  0.31304791707E+02 -0.13199502250E+02 -0.48720899760E+01  0.34321335991E+02  0.00000000000E+00 0.  1.
<mgrwt>
<rscale>  0 0.91052118E+02</rscale>
<asrwt>0</asrwt>
<pdfrwt beam="1">  1        3 0.13551324E-01 0.91052118E+02</pdfrwt>
<pdfrwt beam="2">  1       -3 0.36200258E-02 0.91052118E+02</pdfrwt>
<totfact> 0.33956293E+04</totfact>
</mgrwt>
</event>
<event>
 5    1  0.1242969E+001  0.9538097E+02  0.7546771E-02  0.1290320E+00
          1   -1    0    0  501    0  0.00000000000E+00  0.00000000000E+00  0.75420343456E+02  0.75420343456E+02  0.00000000000E+00 0. -1.
         -1   -1    0    0    0  501 -0.00000000000E+00 -0.00000000000E+00 -0.30156088181E+02  0.30156088181E+02  0.00000000000E+00 0.  1.
         23    2    1    2    0    0  0.00000000000E+00  0.00000000000E+00  0.45264255274E+02  0.10557643164E+03  0.95380973530E+02 0.  0.
        -13    1    3    3    0    0 -0.15685551027E+02  0.10886883402E+02 -0.25740719516E+02  0.32049108918E+02  0.00000000000E+00 0.  1.
         13    1    3    3    0    0  0.15685551027E+02 -0.10886883402E+02  0.71004974790E+02  0.73527322719E+02  0.00000000000E+00 0. -1.
<mgrwt>
<rscale>  0 0.95380974E+02</rscale>
<asrwt>0</asrwt>
<pdfrwt beam="1">  1        1 0.11603130E-01 0.95380974E+02</pdfrwt>
<pdfrwt beam="2">  1       -1 0.46393982E-02 0.95380974E+02</pdfrwt>
<totfact> 0.88132041E+04</totfact>
</mgrwt>
</event>
<event>
 5    1  0.1242969E+001  0.9139583E+02  0.7546771E-02  0.1299506E+00
          2   -1    0    0  501    0  0.00000000000E+00  0.00000000000E+00  0.28254372727E+03  0.28254372727E+03  0.00000000000E+00 0. -1.
         -2   -1    0    0    0  501 -0.00000000000E+00 -0.00000000000E+00 -0.73910660585E+01  0.73910660585E+01  0.00000000000E+00 0.  1.
         23    2    1    2    0    0  0.00000000000E+00  0.00000000000E+00  0.27515266121E+03  0.28993479333E+03  0.91395828190E+02 0.  0.
        -13    1    3    3    0    0 -0.50481720966E+01  0.44920593069E+02  0.11630640336E+03  0.12478190248E+03  0.00000000000E+00 0. -1.
         13    1    3    3    0    0  0.50481720966E+01 -0.44920593069E+02  0.15884625785E+03  0.16515289085E+03  0.00000000000E+00 0.  1.
<mgrwt>
<rscale>  0 0.91395828E+02</rscale>
<asrwt>0</asrwt>
<pdfrwt beam="1">  1        2 0.43468257E-01 0.91395828E+02</pdfrwt>
<pdfrwt beam="2">  1       -2 0.11370873E-02 0.91395828E+02</pdfrwt>
<totfact> 0.17456582E+05</totfact>
</mgrwt>
</event>
<event>
 5    1  0.1242969E+001  0.9114551E+02  0.7546771E-02  0.1300101E+00
          2   -1    0    0  501    0  0.00000000000E+00  0.00000000000E+00  0.44242571296E+02  0.44242571296E+02  0.00000000000E+00 0.  1.
         -2   -1    0    0    0  501 -0.00000000000E+00 -0.00000000000E+00 -0.46942933133E+02  0.46942933133E+02  0.00000000000E+00 0. -1.
         23    2    1    2    0    0  0.00000000000E+00  0.00000000000E+00 -0.27003618374E+01  0.91185504429E+02  0.91145511485E+02 0.  0.
        -11    1    3    3    0    0 -0.42331044517E+02  0.16364358327E+02  0.27948860974E+01  0.45470000458E+02  0.00000000000E+00 0.  1.
         11    1    3    3    0    0  0.42331044517E+02 -0.16364358327E+02 -0.54952479348E+01  0.45715503970E+02  0.00000000000E+00 0. -1.
<mgrwt>
<rscale>  0 0.91145511E+02</rscale>
<asrwt>0</asrwt>
<pdfrwt beam="1">  1        2 0.68065495E-02 0.91145511E+02</pdfrwt>
<pdfrwt beam="2">  1       -2 0.72219897E-02 0.91145511E+02</pdfrwt>
<totfact> 0.98007558E+04</totfact>
</mgrwt>
</event>
<event>
 5    1  0.1242969E+001  0.9558111E+02  0.7546771E-02  0.1289873E+00
         -3   -1    0    0    0  501 -0.00000000000E+00  0.00000000000E+00  0.34022872003E+02  0.34022872003E+02  0.00000000000E+00 0.  1.
          3   -1    0    0  501    0  0.00000000000E+00 -0.00000000000E+00 -0.67129458673E+02  0.67129458673E+02  0.00000000000E+00 0. -1.
         23    2    1    2    0    0  0.00000000000E+00  0.00000000000E+00 -0.33106586669E+02  0.10115233068E+03  0.95581106503E+02 0.  0.
        -13    1    3    3    0    0  0.23208945162E+02  0.37252621399E+02  0.34571387636E+01  0.44026863902E+02  0.00000000000E+00 0.  1.
         13    1    3    3    0    0 -0.23208945162E+02 -0.37252621399E+02 -0.36563725433E+02  0.57125466774E+02  0.00000000000E+00 0. -1.
<mgrwt>
<rscale>  0 0.95581107E+02</rscale>
<asrwt>0</asrwt>
<pdfrwt beam="2">  1        3 0.10327609E-01 0.95581107E+02</pdfrwt>
<pdfrwt beam="1">  1       -3 0.52342881E-02 0.95581107E+02</pdfrwt>
<totfact> 0.30402250E+04</totfact>
</mgrwt>
</event>
<event>
 5    1  0.1242969E+001  0.8629282E+02  0.7546771E-02  0.1312086E+00
         -1   -1    0    0    0  501 -0.00000000000E+00  0.00000000000E+00  0.86266125746E+01  0.86266125746E+01  0.00000000000E+00 0.  1.
          1   -1    0    0  501    0  0.00000000000E+00 -0.00000000000E+00 -0.21579881649E+03  0.21579881649E+03  0.00000000000E+00 0. -1.
         23    2    1    2    0    0  0.00000000000E+00  0.00000000000E+00 -0.20717220392E+03  0.22442542907E+03  0.86292822041E+02 0.  0.
        -13    1    3    3    0    0  0.11798311324E+02  0.38792237979E+02 -0.14194815089E+03  0.14762559202E+03  0.00000000000E+00 0. -1.
         13    1    3    3    0    0 -0.11798311324E+02 -0.38792237979E+02 -0.65224053031E+02  0.76799837052E+02  0.00000000000E+00 0.  1.
<mgrwt>
<rscale>  0 0.86292822E+02</rscale>
<asrwt>0</asrwt>
<pdfrwt beam="2">  1        1 0.33199815E-01 0.86292822E+02</pdfrwt>
<pdfrwt beam="1">  1       -1 0.13271713E-02 0.86292822E+02</pdfrwt>
<totfact> 0.13918790E+05</totfact>
</mgrwt>
</event>
<event>
 5    1  0.1242969E+001  0.9009626E+02  0.7546771E-02  0.1302619E+00
         -1   -1    0    0    0  501 -0.00000000000E+00  0.00000000000E+00  0.71599732417E+02  0.71599732417E+02  0.00000000000E+00 0.  1.
          1   -1    0    0  501    0  0.00000000000E+00 -0.00000000000E+00 -0.28342756818E+02  0.28342756818E+02  0.00000000000E+00 0. -1.
         23    2    1    2    0    0  0.00000000000E+00  0.00000000000E+00  0.43256975599E+02  0.99942489235E+02  0.90096255285E+02 0.  0.
        -13    1    3    3    0    0  0.12031583117E+02 -0.26168751335E+02  0.60051609792E+02  0.66601489303E+02  0.00000000000E+00 0.  1.
         13    1    3    3    0    0 -0.12031583117E+02  0.26168751335E+02 -0.16794634193E+02  0.33340999932E+02  0.00000000000E+00 0. -1.
<mgrwt>
<rscale>  0 0.90096255E+02</rscale>
<asrwt>0</asrwt>
<pdfrwt beam="2">  1        1 0.43604242E-02 0.90096255E+02</pdfrwt>
<pdfrwt beam="1">  1       -1 0.11015343E-01 0.90096255E+02</pdfrwt>
<totfact> 0.88882977E+04</totfact>
</mgrwt>
</event>
<event>
 5    1  0.1242969E+001  0.9112355E+02  0.7546771E-02  0.1300153E+00
         -1   -1    0    0    0  501 -0.00000000000E+00  0.00000000000E+00  0.16637420030E+02  0.16637420030E+02  0.00000000000E+00 0.  1.
          1   -1    0    0  501    0  0.00000000000E+00 -0.00000000000E+00 -0.12477146616E+03  0.12477146616E+03  0.00000000000E+00 0. -1.
         23    2    1    2    0    0  0.00000000000E+00  0.00000000000E+00 -0.10813404613E+03  0.14140888619E+03  0.91123548885E+02 0.  0.
        -13    1    3    3    0    0  0.27687600859E+02 -0.28436860022E+02 -0.88788555992E+02  0.97255672968E+02  0.00000000000E+00 0. -1.
         13    1    3    3    0    0 -0.27687600859E+02  0.28436860022E+02 -0.19345490139E+02  0.44153213224E+02  0.00000000000E+00 0.  1.
<mgrwt>
<rscale>  0 0.91123549E+02</rscale>
<asrwt>0</asrwt>
<pdfrwt beam="2">  1        1 0.19195610E-01 0.91123549E+02</pdfrwt>
<pdfrwt beam="1">  1       -1 0.25596031E-02 0.91123549E+02</pdfrwt>
<totfact> 0.10864841E+05</totfact>
</mgrwt>
</event>
<event>
 5    1  0.1242969E+001  0.1140475E+03  0.7546771E-02  0.1253253E+00
          2   -1    0    0  501    0  0.00000000000E+00  0.00000000000E+00  0.89205238707E+02  0.89205238707E+02  0.00000000000E+00 0. -1.
         -2   -1    0    0    0  501 -0.00000000000E+00 -0.00000000000E+00 -0.36451976295E+02  0.36451976295E+02  0.00000000000E+00 0.  1.
         23    2    1    2    0    0  0.00000000000E+00  0.00000000000E+00  0.52753262412E+02  0.12565721500E+03  0.11404748567E+03 0.  0.
        -13    1    3    3    0    0 -0.23038428435E+02 -0.74155224617E+01 -0.30512271787E+02  0.38945575971E+02  0.00000000000E+00 0.  1.
         13    1    3    3    0    0  0.23038428435E+02  0.74155224617E+01  0.83265534199E+02  0.86711639031E+02  0.00000000000E+00 0. -1.
<mgrwt>
<rscale>  0 0.11404749E+03</rscale>
<asrwt>0</asrwt>
<pdfrwt beam="1">  1        2 0.13723883E-01 0.11404749E+03</pdfrwt>
<pdfrwt beam="2">  1       -2 0.56079964E-02 0.11404749E+03</pdfrwt>
<totfact> 0.63090988E+04</totfact>
</mgrwt>
</event>
<event>
 5    1  0.1242969E+001  0.9086577E+02  0.7546771E-02  0.1300769E+00
          3   -1    0    0  501    0  0.00000000000E+00  0.00000000000E+00  0.28960893950E+02  0.28960893950E+02  0.00000000000E+00 0. -1.
         -3   -1    0    0    0  501 -0.00000000000E+00 -0.00000000000E+00 -0.71273591849E+02  0.71273591849E+02  0.00000000000E+00 0.  1.
         23    2    1    2    0    0  0.00000000000E+00  0.00000000000E+00 -0.42312697899E+02  0.10023448580E+03  0.90865767701E+02 0.  0.
        -13    1    3    3    0    0 -0.23339089360E+02 -0.37122713033E+02 -0.34270686805E+02  0.55653291809E+02  0.00000000000E+00 0. -1.
         13    1    3    3    0    0  0.23339089360E+02  0.37122713033E+02 -0.80420110938E+01  0.44581193990E+02  0.00000000000E+00 0.  1.
<mgrwt>
<rscale>  0 0.90865768E+02</rscale>
<asrwt>0</asrwt>
<pdfrwt beam="1">  1        3 0.44555221E-02 0.90865768E+02</pdfrwt>
<pdfrwt beam="2">  1       -3 0.10965168E-01 0.90865768E+02</pdfrwt>
<totfact> 0.34978797E+04</totfact>
</mgrwt>
</event>
<event>
 5    1  0.1242969E+001  0.9155390E+02  0.7546771E-02  0.1299132E+00
          1   -1    0    0  501    0  0.00000000000E+00  0.00000000000E+00  0.62633709526E+01  0.62633709526E+01  0.00000000000E+00 0. -1.
         -1   -1    0    0    0  501 -0.00000000000E+00 -0.00000000000E+00 -0.33456888940E+03  0.33456888940E+03  0.00000000000E+00 0.  1.
         23    2    1    2    0    0  0.00000000000E+00  0.00000000000E+00 -0.32830551844E+03  0.34083226035E+03  0.91553898082E+02 0.  0.
        -11    1    3    3    0    0 -0.38457725196E+02  0.23219726095E+02 -0.19689957788E+03  0.20195939215E+03  0.00000000000E+00 0.  1.
         11    1    3    3    0    0  0.38457725196E+02 -0.23219726095E+02 -0.13140594056E+03  0.13887286820E+03  0.00000000000E+00 0. -1.
<mgrwt>
<rscale>  0 0.91553898E+02</rscale>
<asrwt>0</asrwt>
<pdfrwt beam="1">  1        1 0.96359553E-03 0.91553898E+02</pdfrwt>
<pdfrwt beam="2">  1       -1 0.51472137E-01 0.91553898E+02</pdfrwt>
<totfact> 0.57301152E+04</totfact>
</mgrwt>
</event>
<event>
 5    1  0.1242969E+001  0.9025603E+02  0.7546771E-02  0.1302233E+00
         -2   -1    0    0    0  501 -0.00000000000E+00  0.00000000000E+00  0.22038230012E+02  0.22038230012E+02  0.00000000000E+00 0.  1.
          2   -1    0    0  501    0  0.00000000000E+00 -0.00000000000E+00 -0.92409311280E+02  0.92409311280E+02  0.00000000000E+00 0. -1.
         23    2    1    2    0    0  0.00000000000E+00  0.00000000000E+00 -0.70371081268E+02  0.11444754129E+03  0.90256028215E+02 0.  0.
        -13    1    3    3    0    0 -0.18951922986E+02 -0.55531922798E+01  0.16267888628E+02  0.25586276200E+02  0.00000000000E+00 0.  1.
         13    1    3    3    0    0  0.18951922986E+02  0.55531922798E+01 -0.86638969895E+02  0.88861265093E+02  0.00000000000E+00 0. -1.
<mgrwt>
<rscale>  0 0.90256028E+02</rscale>
<asrwt>0</asrwt>
<pdfrwt beam="2">  1        2 0.14216817E-01 0.90256028E+02</pdfrwt>
<pdfrwt beam="1">  1       -2 0.33904970E-02 0.90256028E+02</pdfrwt>
<totfact> 0.12319480E+05</totfact>
</mgrwt>
</event>
<event>
 4    1  0.1242969E+001  0.1342982E+03  0.7546771E-02  0.1221214E+00
          1   -1    0    0  501    0  0.00000000000E+00  0.00000000000E+00  0.57731327960E+02  0.57731327960E+02  0.00000000000E+00 0. -1.
         -1   -1    0    0    0  501 -0.00000000000E+00 -0.00000000000E+00 -0.78103221388E+02  0.78103221388E+02  0.00000000000E+00 0.  1.
        -11    1    1    2    0    0 -0.11197683844E+02  0.19708303789E+02 -0.74116596806E+02  0.77505324229E+02  0.00000000000E+00 0.  1.
         11    1    1    2    0    0  0.11197683844E+02 -0.19708303789E+02  0.53744703379E+02  0.58329225119E+02  0.00000000000E+00 0. -1.
<mgrwt>
<rscale>  0 0.13429822E+03</rscale>
<asrwt>0</asrwt>
<pdfrwt beam="1">  1        1 0.88817428E-02 0.13429822E+03</pdfrwt>
<pdfrwt beam="2">  1       -1 0.12015880E-01 0.13429822E+03</pdfrwt>
<totfact> 0.31529047E+04</totfact>
</mgrwt>
</event>
<event>
 5    1  0.1242969E+001  0.9030022E+02  0.7546771E-02  0.1302126E+00
          1   -1    0    0  501    0  0.00000000000E+00  0.00000000000E+00  0.10521910999E+03  0.10521910999E+03  0.00000000000E+00 0. -1.
         -1   -1    0    0    0  501 -0.00000000000E+00 -0.00000000000E+00 -0.19374166262E+02  0.19374166262E+02  0.00000000000E+00 0.  1.
         23    2    1    2    0    0  0.00000000000E+00  0.00000000000E+00  0.85844943731E+02  0.12459327626E+03  0.90300222170E+02 0.  0.
        -11    1    3    3    0    0 -0.29488784139E+02  0.34177661316E+02  0.44180716542E+02  0.63163570491E+02  0.00000000000E+00 0.  1.
         11    1    3    3    0    0  0.29488784139E+02 -0.34177661316E+02  0.41664227189E+02  0.61429705765E+02  0.00000000000E+00 0. -1.
<mgrwt>
<rscale>  0 0.90300222E+02</rscale>
<asrwt>0</asrwt>
<pdfrwt beam="1">  1        1 0.16187555E-01 0.90300222E+02</pdfrwt>
<pdfrwt beam="2">  1       -1 0.29806410E-02 0.90300222E+02</pdfrwt>
<totfact> 0.10814809E+05</totfact>
</mgrwt>
</event>
<event>
 5    1  0.1242969E+001  0.9263723E+02  0.7546771E-02  0.1296588E+00
         -4   -1    0    0    0  501 -0.00000000000E+00  0.00000000000E+00  0.75021126678E+01  0.75021126678E+01  0.00000000000E+00 0. -1.
          4   -1    0    0  501    0  0.00000000000E+00 -0.00000000000E+00 -0.28597465196E+03  0.28597465196E+03  0.00000000000E+00 0.  1.
         23    2    1    2    0    0  0.00000000000E+00  0.00000000000E+00 -0.27847253929E+03  0.29347676463E+03  0.92637229214E+02 0.  0.
        -11    1    3    3    0    0  0.44671506390E+02 -0.77077474662E+00 -0.17794276604E+03  0.18346597930E+03  0.00000000000E+00 0. -1.
         11    1    3    3    0    0 -0.44671506390E+02  0.77077474662E+00 -0.10052977325E+03  0.11001078532E+03  0.00000000000E+00 0.  1.
<mgrwt>
<rscale>  0 0.92637229E+02</rscale>
<asrwt>0</asrwt>
<pdfrwt beam="2">  1        4 0.43996101E-01 0.92637229E+02</pdfrwt>
<pdfrwt beam="1">  1       -4 0.11541712E-02 0.92637229E+02</pdfrwt>
<totfact> 0.17273433E+04</totfact>
</mgrwt>
</event>
<event>
 5    1  0.1242969E+001  0.9054810E+02  0.7546771E-02  0.1301530E+00
          4   -1    0    0  501    0  0.00000000000E+00  0.00000000000E+00  0.21596321621E+02  0.21596321621E+02  0.00000000000E+00 0. -1.
         -4   -1    0    0    0  501 -0.00000000000E+00 -0.00000000000E+00 -0.94911520776E+02  0.94911520776E+02  0.00000000000E+00 0.  1.
         23    2    1    2    0    0  0.00000000000E+00  0.00000000000E+00 -0.73315199156E+02  0.11650784240E+03  0.90548102756E+02 0.  0.
        -13    1    3    3    0    0 -0.16728200607E+02  0.21250740742E+02 -0.83375689721E+02  0.87652337756E+02  0.00000000000E+00 0.  1.
         13    1    3    3    0    0  0.16728200607E+02 -0.21250740742E+02  0.10060490565E+02  0.28855504641E+02  0.00000000000E+00 0. -1.
<mgrwt>
<rscale>  0 0.90548103E+02</rscale>
<asrwt>0</asrwt>
<pdfrwt beam="1">  1        4 0.33225111E-02 0.90548103E+02</pdfrwt>
<pdfrwt beam="2">  1       -4 0.14601772E-01 0.90548103E+02</pdfrwt>
<totfact> 0.25952379E+04</totfact>
</mgrwt>
</event>
<event>
 5    1  0.1242969E+001  0.8810749E+02  0.7546771E-02  0.1307500E+00
         -3   -1    0    0    0  501 -0.00000000000E+00  0.00000000000E+00  0.38944624300E+02  0.38944624300E+02  0.00000000000E+00 0. -1.
          3   -1    0    0  501    0  0.00000000000E+00 -0.00000000000E+00 -0.49833125876E+02  0.49833125876E+02  0.00000000000E+00 0.  1.
         23    2    1    2    0    0  0.00000000000E+00  0.00000000000E+00 -0.10888501575E+02  0.88777750176E+02  0.88107488103E+02 0.  0.
        -13    1    3    3    0    0 -0.23408591826E+02  0.30707883086E+02 -0.26813987062E+02  0.47009851702E+02  0.00000000000E+00 0.  1.
         13    1    3    3    0    0  0.23408591826E+02 -0.30707883086E+02  0.15925485487E+02  0.41767898474E+02  0.00000000000E+00 0. -1.
<mgrwt>
<rscale>  0 0.88107488E+02</rscale>
<asrwt>0</asrwt>
<pdfrwt beam="2">  1        3 0.76666347E-02 0.88107488E+02</pdfrwt>
<pdfrwt beam="1">  1       -3 0.59914807E-02 0.88107488E+02</pdfrwt>
<totfact> 0.38986662E+04</totfact>
</mgrwt>
</event>
<event>
 5    1  0.1242969E+001  0.8948813E+02  0.7546771E-02  0.1304096E+00
          1   -1    0    0  501    0  0.00000000000E+00  0.00000000000E+00  0.10682618688E+02  0.10682618688E+02  0.00000000000E+00 0. -1.
         -1   -1    0    0    0  501 -0.00000000000E+00 -0.00000000000E+00 -0.18741018520E+03  0.18741018520E+03  0.00000000000E+00 0.  1.
         23    2    1    2    0    0  0.00000000000E+00  0.00000000000E+00 -0.17672756651E+03  0.19809280389E+03  0.89488134337E+02 0.  0.
        -11    1    3    3    0    0  0.12126663753E+02 -0.42986942834E+02 -0.94261460410E+02  0.10430798697E+03  0.00000000000E+00 0.  1.
         11    1    3    3    0    0 -0.12126663753E+02  0.42986942834E+02 -0.82466106104E+02  0.93784816916E+02  0.00000000000E+00 0. -1.
<mgrwt>
<rscale>  0 0.89488134E+02</rscale>
<asrwt>0</asrwt>
<pdfrwt beam="1">  1        1 0.16434799E-02 0.89488134E+02</pdfrwt>
<pdfrwt beam="2">  1       -1 0.28832334E-01 0.89488134E+02</pdfrwt>
<totfact> 0.74219008E+04</totfact>
</mgrwt>
</event>
<event>
 5    1  0.1242969E+001  0.9054028E+02  0.7546771E-02  0.1301549E+00
         -1   -1    0    0    0  501 -0.00000000000E+00  0.00000000000E+00  0.10136101045E+03  0.10136101045E+03  0.00000000000E+00 0.  1.
          1   -1    0    0  501    0  0.00000000000E+00 -0.00000000000E+00 -0.20218679581E+02  0.20218679581E+02  0.00000000000E+00 0. -1.
         23    2    1    2    0    0  0.00000000000E+00  0.00000000000E+00  0.81142330873E+02  0.12157969004E+03  0.90540284789E+02 0.  0.
        -11    1    3    3    0    0 -0.29215208261E+02  0.14624065691E+02  0.82650960412E+02  0.88873916017E+02  0.00000000000E+00 0.  1.
         11    1    3    3    0    0  0.29215208261E+02 -0.14624065691E+02 -0.15086295393E+01  0.32705774019E+02  0.00000000000E+00 0. -1.
<mgrwt>
<rscale>  0 0.90540285E+02</rscale>
<asrwt>0</asrwt>
<pdfrwt beam="2">  1        1 0.31105661E-02 0.90540285E+02</pdfrwt>
<pdfrwt beam="1">  1       -1 0.15594001E-01 0.90540285E+02</pdfrwt>
<totfact> 0.82642711E+04</totfact>
</mgrwt>
</event>
<event>
 5    1  0.1242969E+001  0.9463857E+02  0.7546771E-02  0.1291992E+00
         -1   -1    0    0    0  501 -0.00000000000E+00  0.00000000000E+00  0.58176815462E+01  0.58176815462E+01  0.00000000000E+00 0.  1.
          1   -1    0    0  501    0  0.00000000000E+00 -0.00000000000E+00 -0.38488096952E+03  0.38488096952E+03  0.00000000000E+00 0. -1.
         23    2    1    2    0    0  0.00000000000E+00  0.00000000000E+00 -0.37906328797E+03  0.39069865107E+03  0.94638573824E+02 0.  0.
        -11    1    3    3    0    0  0.23594328555E+02 -0.40890043508E+02 -0.20286230417E+03  0.20828298646E+03  0.00000000000E+00 0. -1.
         11    1    3    3    0    0 -0.23594328555E+02  0.40890043508E+02 -0.17620098381E+03  0.18241566460E+03  0.00000000000E+00 0.  1.
<mgrwt>
<rscale>  0 0.94638574E+02</rscale>
<asrwt>0</asrwt>
<pdfrwt beam="2">  1        1 0.59212465E-01 0.94638574E+02</pdfrwt>
<pdfrwt beam="1">  1       -1 0.89502781E-03 0.94638574E+02</pdfrwt>
<totfact> 0.12136906E+05</totfact>
</mgrwt>
</event>
<event>
 5    1  0.1242969E+001  0.9149357E+02  0.7546771E-02  0.1299275E+00
         -2   -1    0    0    0  501 -0.00000000000E+00  0.00000000000E+00  0.17386351695E+02  0.17386351695E+02  0.00000000000E+00 0.  1.
          2   -1    0    0  501    0  0.00000000000E+00 -0.00000000000E+00 -0.12036845254E+03  0.12036845254E+03  0.00000000000E+00 0. -1.
         23    2    1    2    0    0  0.00000000000E+00  0.00000000000E+00 -0.10298210084E+03  0.13775480424E+03  0.91493568056E+02 0.  0.
        -13    1    3    3    0    0 -0.37475243763E+02 -0.14157362738E+02 -0.18232682866E+02  0.44014265180E+02  0.00000000000E+00 0. -1.
         13    1    3    3    0    0  0.37475243763E+02  0.14157362738E+02 -0.84749417979E+02  0.93740539056E+02  0.00000000000E+00 0.  1.
<mgrwt>
<rscale>  0 0.91493568E+02</rscale>
<asrwt>0</asrwt>
<pdfrwt beam="2">  1        2 0.18518224E-01 0.91493568E+02</pdfrwt>
<pdfrwt beam="1">  1       -2 0.26748233E-02 0.91493568E+02</pdfrwt>
<totfact> 0.12876388E+05</totfact>
</mgrwt>
</event>
<event>
 5    1  0.1242969E+001  0.9428536E+02  0.7546771E-02  0.1292794E+00
         -1   -1    0    0    0  501 -0.00000000000E+00  0.00000000000E+00  0.94976074539E+02  0.94976074539E+02  0.00000000000E+00 0.  1.
          1   -1    0    0  501    0  0.00000000000E+00 -0.00000000000E+00 -0.23399916285E+02  0.23399916285E+02  0.00000000000E+00 0. -1.
         23    2    1    2    0    0  0.00000000000E+00  0.00000000000E+00  0.71576158254E+02  0.11837599082E+03  0.94285358212E+02 0.  0.
        -11    1    3    3    0    0  0.28495368825E+02  0.37529751372E+02  0.34028615669E+02  0.58124134117E+02  0.00000000000E+00 0.  1.
         11    1    3    3    0    0 -0.28495368825E+02 -0.37529751372E+02  0.37547542585E+02  0.60251856707E+02  0.00000000000E+00 0. -1.
<mgrwt>
<rscale>  0 0.94285358E+02</rscale>
<asrwt>0</asrwt>
<pdfrwt beam="2">  1        1 0.35999872E-02 0.94285358E+02</pdfrwt>
<pdfrwt beam="1">  1       -1 0.14611704E-01 0.94285358E+02</pdfrwt>
<totfact> 0.75349819E+04</totfact>
</mgrwt>
</event>
<event>
 5    1  0.1242969E+001  0.8908387E+02  0.7546771E-02  0.1305086E+00
          2   -1    0    0  501    0  0.00000000000E+00  0.00000000000E+00  0.46499733856E+03  0.46499733856E+03  0.00000000000E+00 0. -1.
         -2   -1    0    0    0  501 -0.00000000000E+00 -0.00000000000E+00 -0.42666569689E+01  0.42666569689E+01  0.00000000000E+00 0.  1.
         23    2    1    2    0    0  0.00000000000E+00  0.00000000000E+00  0.46073068159E+03  0.46926399553E+03  0.89083873627E+02 0.  0.
        -11    1    3    3    0    0 -0.43069235545E+02 -0.10605938966E+02  0.25178806251E+03  0.25566515878E+03  0.00000000000E+00 0.  1.
         11    1    3    3    0    0  0.43069235545E+02  0.10605938966E+02  0.20894261908E+03  0.21359883674E+03  0.00000000000E+00 0. -1.
<mgrwt>
<rscale>  0 0.89083874E+02</rscale>
<asrwt>0</asrwt>
<pdfrwt beam="1">  1        2 0.71538012E-01 0.89083874E+02</pdfrwt>
<pdfrwt beam="2">  1       -2 0.65640913E-03 0.89083874E+02</pdfrwt>
<totfact> 0.22370053E+05</totfact>
</mgrwt>
</event>
<event>
 5    1  0.1242969E+001  0.9059020E+02  0.7546771E-02  0.1301429E+00
         -2   -1    0    0    0  501 -0.00000000000E+00  0.00000000000E+00  0.97654626424E+02  0.97654626424E+02  0.00000000000E+00 0.  1.
          2   -1    0    0  501    0  0.00000000000E+00 -0.00000000000E+00 -0.21009206404E+02  0.21009206404E+02  0.00000000000E+00 0. -1.
         23    2    1    2    0    0  0.00000000000E+00  0.00000000000E+00  0.76645420020E+02  0.11866383283E+03  0.90590202625E+02 0.  0.
        -13    1    3    3    0    0 -0.60295226852E+01 -0.42889687180E+02  0.55688890858E+02  0.70548798538E+02  0.00000000000E+00 0.  1.
         13    1    3    3    0    0  0.60295226852E+01  0.42889687180E+02  0.20956529162E+02  0.48115034290E+02  0.00000000000E+00 0. -1.
<mgrwt>
<rscale>  0 0.90590203E+02</rscale>
<asrwt>0</asrwt>
<pdfrwt beam="2">  1        2 0.32321857E-02 0.90590203E+02</pdfrwt>
<pdfrwt beam="1">  1       -2 0.15023788E-01 0.90590203E+02</pdfrwt>
<totfact> 0.81669849E+04</totfact>
</mgrwt>
</event>
<event>
 5    1  0.1242969E+001  0.8887418E+02  0.7546771E-02  0.1305601E+00
         -1   -1    0    0    0  501 -0.00000000000E+00  0.00000000000E+00  0.13873680679E+03  0.13873680679E+03  0.00000000000E+00 0.  1.
          1   -1    0    0  501    0  0.00000000000E+00 -0.00000000000E+00 -0.14233099993E+02  0.14233099993E+02  0.00000000000E+00 0. -1.
         23    2    1    2    0    0  0.00000000000E+00  0.00000000000E+00  0.12450370679E+03  0.15296990678E+03  0.88874177211E+02 0.  0.
        -13    1    3    3    0    0 -0.32345074922E+02  0.30173076861E+02  0.69561651720E+02  0.82434469908E+02  0.00000000000E+00 0.  1.
         13    1    3    3    0    0  0.32345074922E+02 -0.30173076861E+02  0.54942055074E+02  0.70535436872E+02  0.00000000000E+00 0. -1.
<mgrwt>
<rscale>  0 0.88874177E+02</rscale>
<asrwt>0</asrwt>
<pdfrwt beam="2">  1        1 0.21897078E-02 0.88874177E+02</pdfrwt>
<pdfrwt beam="1">  1       -1 0.21344123E-01 0.88874177E+02</pdfrwt>
<totfact> 0.81345919E+04</totfact>
</mgrwt>
</event>
<event>
 5    1  0.1242969E+001  0.9375981E+02  0.7546771E-02  0.1293994E+00
          2   -1    0    0  501    0  0.00000000000E+00  0.00000000000E+00  0.23585588063E+02  0.23585588063E+02  0.00000000000E+00 0. -1.
         -2   -1    0    0    0  501 -0.00000000000E+00 -0.00000000000E+00 -0.93180860634E+02  0.93180860634E+02  0.00000000000E+00 0.  1.
         23    2    1    2    0    0  0.00000000000E+00  0.00000000000E+00 -0.69595272571E+02  0.11676644870E+03  0.93759807899E+02 0.  0.
        -13    1    3    3    0    0  0.26776008289E+02  0.29371345251E+01  0.12985704677E+02  0.29903342707E+02  0.00000000000E+00 0. -1.
         13    1    3    3    0    0 -0.26776008289E+02 -0.29371345251E+01 -0.82580977248E+02  0.86863105991E+02  0.00000000000E+00 0.  1.
<mgrwt>
<rscale>  0 0.93759808E+02</rscale>
<asrwt>0</asrwt>
<pdfrwt beam="1">  1        2 0.36285520E-02 0.93759808E+02</pdfrwt>
<pdfrwt beam="2">  1       -2 0.14335517E-01 0.93759808E+02</pdfrwt>
<totfact> 0.76028166E+04</totfact>
</mgrwt>
</event>
<event>
 5    1  0.1242969E+001  0.9347793E+02  0.7546771E-02  0.1294641E+00
          1   -1    0    0  501    0  0.00000000000E+00  0.00000000000E+00  0.37438835827E+03  0.37438835827E+03  0.00000000000E+00 0. -1.
         -1   -1    0    0    0  501 -0.00000000000E+00 -0.00000000000E+00 -0.58349324495E+01  0.58349324495E+01  0.00000000000E+00 0.  1.
         23    2    1    2    0    0  0.00000000000E+00  0.00000000000E+00  0.36855342582E+03  0.38022329072E+03  0.93477928526E+02 0.  0.
        -13    1    3    3    0    0  0.38310835904E+02 -0.22237794482E+02  0.24492111275E+03  0.24889473904E+03  0.00000000000E+00 0. -1.
         13    1    3    3    0    0 -0.38310835904E+02  0.22237794482E+02  0.12363231307E+03  0.13132855168E+03  0.00000000000E+00 0.  1.
<mgrwt>
<rscale>  0 0.93477929E+02</rscale>
<asrwt>0</asrwt>
<pdfrwt beam="1">  1        1 0.57598190E-01 0.93477929E+02</pdfrwt>
<pdfrwt beam="2">  1       -1 0.89768221E-03 0.93477929E+02</pdfrwt>
<totfact> 0.12483375E+05</totfact>
</mgrwt>
</event>
<event>
 5    1  0.1242969E+001  0.8741737E+02  0.7546771E-02  0.1309229E+00
          1   -1    0    0  501    0  0.00000000000E+00  0.00000000000E+00  0.82616496614E+02  0.82616496614E+02  0.00000000000E+00 0. -1.
         -1   -1    0    0    0  501 -0.00000000000E+00 -0.00000000000E+00 -0.23124304033E+02  0.23124304033E+02  0.00000000000E+00 0.  1.
         23    2    1    2    0    0  0.00000000000E+00  0.00000000000E+00  0.59492192581E+02  0.10574080065E+03  0.87417366373E+02 0.  0.
        -11    1    3    3    0    0 -0.31742961688E+02 -0.11728230946E+02  0.63208383026E+02  0.71697048074E+02  0.00000000000E+00 0. -1.
         11    1    3    3    0    0  0.31742961688E+02  0.11728230946E+02 -0.37161904452E+01  0.34043752573E+02  0.00000000000E+00 0.  1.
<mgrwt>
<rscale>  0 0.87417366E+02</rscale>
<asrwt>0</asrwt>
<pdfrwt beam="1">  1        1 0.12710230E-01 0.87417366E+02</pdfrwt>
<pdfrwt beam="2">  1       -1 0.35575853E-02 0.87417366E+02</pdfrwt>
<totfact> 0.11360308E+05</totfact>
</mgrwt>
</event>
<event>
 5    1  0.1242969E+001  0.9337910E+02  0.7546771E-02  0.1294869E+00
          2   -1    0    0  501    0  0.00000000000E+00  0.00000000000E+00  0.20883247596E+03  0.20883247596E+03  0.00000000000E+00 0. -1.
         -2   -1    0    0    0  501 -0.00000000000E+00 -0.00000000000E+00 -0.10438577039E+02  0.10438577039E+02  0.00000000000E+00 0.  1.
         23    2    1    2    0    0  0.00000000000E+00  0.00000000000E+00  0.19839389892E+03  0.21927105300E+03  0.93379095917E+02 0.  0.
        -11    1    3    3    0    0  0.44662787425E+02 -0.12614706461E+02  0.87219270386E+02  0.98798261757E+02  0.00000000000E+00 0. -1.
         11    1    3    3    0    0 -0.44662787425E+02  0.12614706461E+02  0.11117462853E+03  0.12047279124E+03  0.00000000000E+00 0.  1.
<mgrwt>
<rscale>  0 0.93379096E+02</rscale>
<asrwt>0</asrwt>
<pdfrwt beam="1">  1        2 0.32128070E-01 0.93379096E+02</pdfrwt>
<pdfrwt beam="2">  1       -2 0.16059351E-02 0.93379096E+02</pdfrwt>
<totfact> 0.14733453E+05</totfact>
</mgrwt>
</event>
<event>
 4    1  0.1242969E+001  0.5116655E+02  0.7546771E-02  0.1439149E+00
         -1   -1    0    0    0  501 -0.00000000000E+00  0.00000000000E+00  0.22692589097E+03  0.22692589097E+03  0.00000000000E+00 0.  1.
          1   -1    0    0  501    0  0.00000000000E+00 -0.00000000000E+00 -0.28842186515E+01  0.28842186515E+01  0.00000000000E+00 0. -1.
        -13    1    1    2    0    0 -0.11401928269E+02  0.22688784971E+02  0.98018747705E+02  0.10125443118E+03  0.00000000000E+00 0. -1.
         13    1    1    2    0    0  0.11401928269E+02 -0.22688784971E+02  0.12602292461E+03  0.12855567844E+03  0.00000000000E+00 0.  1.
<mgrwt>
<rscale>  0 0.51166547E+02</rscale>
<asrwt>0</asrwt>
<pdfrwt beam="2">  1        1 0.44372612E-03 0.51166547E+02</pdfrwt>
<pdfrwt beam="1">  1       -1 0.34911662E-01 0.51166547E+02</pdfrwt>
<totfact> 0.29178388E+05</totfact>
</mgrwt>
</event>
<event>
 5    1  0.1242969E+001  0.9181354E+02  0.7546771E-02  0.1298518E+00
         -1   -1    0    0    0  501 -0.00000000000E+00  0.00000000000E+00  0.21818663071E+02  0.21818663071E+02  0.00000000000E+00 0.  1.
          1   -1    0    0  501    0  0.00000000000E+00 -0.00000000000E+00 -0.96588485453E+02  0.96588485453E+02  0.00000000000E+00 0. -1.
         23    2    1    2    0    0  0.00000000000E+00  0.00000000000E+00 -0.74769822382E+02  0.11840714852E+03  0.91813541933E+02 0.  0.
        -11    1    3    3    0    0  0.43319436005E+02 -0.11476860059E+02 -0.50225801319E+02  0.67312130933E+02  0.00000000000E+00 0.  1.
         11    1    3    3    0    0 -0.43319436005E+02  0.11476860059E+02 -0.24544021064E+02  0.51095017591E+02  0.00000000000E+00 0. -1.
<mgrwt>
<rscale>  0 0.91813542E+02</rscale>
<asrwt>0</asrwt>
<pdfrwt beam="2">  1        1 0.14859767E-01 0.91813542E+02</pdfrwt>
<pdfrwt beam="1">  1       -1 0.33567174E-02 0.91813542E+02</pdfrwt>
<totfact> 0.10189695E+05</totfact>
</mgrwt>
</event>
<event>
 5    1  0.1242969E+001  0.8866877E+02  0.7546771E-02  0.1306108E+00
          2   -1    0    0  501    0  0.00000000000E+00  0.00000000000E+00  0.31087765089E+03  0.31087765089E+03  0.00000000000E+00 0. -1.
         -2   -1    0    0    0  501 -0.00000000000E+00 -0.00000000000E+00 -0.63225435322E+01  0.63225435322E+01  0.00000000000E+00 0.  1.
         23    2    1    2    0    0  0.00000000000E+00  0.00000000000E+00  0.30455510735E+03  0.31720019442E+03  0.88668765209E+02 0.  0.
        -11    1    3    3    0    0  0.42390297112E+02 -0.12642471714E+02  0.16287047015E+03  0.16877073036E+03  0.00000000000E+00 0.  1.
         11    1    3    3    0    0 -0.42390297112E+02  0.12642471714E+02  0.14168463720E+03  0.14842946406E+03  0.00000000000E+00 0. -1.
<mgrwt>
<rscale>  0 0.88668765E+02</rscale>
<asrwt>0</asrwt>
<pdfrwt beam="1">  1        2 0.47827319E-01 0.88668765E+02</pdfrwt>
<pdfrwt beam="2">  1       -2 0.97269924E-03 0.88668765E+02</pdfrwt>
<totfact> 0.19608239E+05</totfact>
</mgrwt>
</event>
<event>
 5    1  0.1242969E+001  0.9387320E+02  0.7546771E-02  0.1293734E+00
          1   -1    0    0  501    0  0.00000000000E+00  0.00000000000E+00  0.47444316405E+02  0.47444316405E+02  0.00000000000E+00 0. -1.
         -1   -1    0    0    0  501 -0.00000000000E+00 -0.00000000000E+00 -0.46434315931E+02  0.46434315931E+02  0.00000000000E+00 0.  1.
         23    2    1    2    0    0  0.00000000000E+00  0.00000000000E+00  0.10100004742E+01  0.93878632337E+02  0.93873199096E+02 0.  0.
        -11    1    3    3    0    0 -0.12521577217E+02  0.44446626853E+02 -0.79068980467E+01  0.46848816115E+02  0.00000000000E+00 0. -1.
         11    1    3    3    0    0  0.12521577217E+02 -0.44446626853E+02  0.89168985209E+01  0.47029816222E+02  0.00000000000E+00 0.  1.
<mgrwt>
<rscale>  0 0.93873199E+02</rscale>
<asrwt>0</asrwt>
<pdfrwt beam="1">  1        1 0.72991256E-02 0.93873199E+02</pdfrwt>
<pdfrwt beam="2">  1       -1 0.71437409E-02 0.93873199E+02</pdfrwt>
<totfact> 0.85710929E+04</totfact>
</mgrwt>
</event>
<event>
 5    1  0.1242969E+001  0.9224291E+02  0.7546771E-02  0.1297509E+00
         -3   -1    0    0    0  501 -0.00000000000E+00  0.00000000000E+00  0.73852696500E+02  0.73852696500E+02  0.00000000000E+00 0.  1.
          3   -1    0    0  501    0  0.00000000000E+00 -0.00000000000E+00 -0.28803125850E+02  0.28803125850E+02  0.00000000000E+00 0. -1.
         23    2    1    2    0    0  0.00000000000E+00  0.00000000000E+00  0.45049570651E+02  0.10265582235E+03  0.92242907838E+02 0.  0.
        -13    1    3    3    0    0  0.89995149930E+01 -0.22867329696E+02 -0.20910314502E+02  0.32266814068E+02  0.00000000000E+00 0. -1.
         13    1    3    3    0    0 -0.89995149930E+01  0.22867329696E+02  0.65959885153E+02  0.70389008282E+02  0.00000000000E+00 0.  1.
<mgrwt>
<rscale>  0 0.92242908E+02</rscale>
<asrwt>0</asrwt>
<pdfrwt beam="2">  1        3 0.44312502E-02 0.92242908E+02</pdfrwt>
<pdfrwt beam="1">  1       -3 0.11361953E-01 0.92242908E+02</pdfrwt>
<totfact> 0.33400777E+04</totfact>
</mgrwt>
</event>
<event>
 5    1  0.1242969E+001  0.9155478E+02  0.7546771E-02  0.1299130E+00
          3   -1    0    0  501    0  0.00000000000E+00  0.00000000000E+00  0.18267476157E+03  0.18267476157E+03  0.00000000000E+00 0. -1.
         -3   -1    0    0    0  501 -0.00000000000E+00 -0.00000000000E+00 -0.11471587870E+02  0.11471587870E+02  0.00000000000E+00 0.  1.
         23    2    1    2    0    0  0.00000000000E+00  0.00000000000E+00  0.17120317370E+03  0.19414634944E+03  0.91554783138E+02 0.  0.
        -13    1    3    3    0    0 -0.67011900768E+01  0.37078058292E+02  0.14073100152E+03  0.14568769043E+03  0.00000000000E+00 0. -1.
         13    1    3    3    0    0  0.67011900768E+01 -0.37078058292E+02  0.30472172179E+02  0.48458659004E+02  0.00000000000E+00 0.  1.
<mgrwt>
<rscale>  0 0.91554783E+02</rscale>
<asrwt>0</asrwt>
<pdfrwt beam="1">  1        3 0.28103807E-01 0.91554783E+02</pdfrwt>
<pdfrwt beam="2">  1       -3 0.17648598E-02 0.91554783E+02</pdfrwt>
<totfact> 0.28483702E+04</totfact>
</mgrwt>
</event>
<event>
 5    1  0.1242969E+001  0.9130038E+02  0.7546771E-02  0.1299733E+00
         -4   -1    0    0    0  501 -0.00000000000E+00  0.00000000000E+00  0.21981699546E+02  0.21981699546E+02  0.00000000000E+00 0.  1.
          4   -1    0    0  501    0  0.00000000000E+00 -0.00000000000E+00 -0.94803397574E+02  0.94803397574E+02  0.00000000000E+00 0. -1.
         23    2    1    2    0    0  0.00000000000E+00  0.00000000000E+00 -0.72821698028E+02  0.11678509712E+03  0.91300379000E+02 0.  0.
        -11    1    3    3    0    0  0.36111103739E+02  0.19027148634E+02 -0.10262230646E+02  0.42087499049E+02  0.00000000000E+00 0.  1.
         11    1    3    3    0    0 -0.36111103739E+02 -0.19027148634E+02 -0.62559467382E+02  0.74697598070E+02  0.00000000000E+00 0. -1.
<mgrwt>
<rscale>  0 0.91300379E+02</rscale>
<asrwt>0</asrwt>
<pdfrwt beam="2">  1        4 0.14585138E-01 0.91300379E+02</pdfrwt>
<pdfrwt beam="1">  1       -4 0.33818000E-02 0.91300379E+02</pdfrwt>
<totfact> 0.25363119E+04</totfact>
</mgrwt>
</event>
<event>
 5    1  0.1242969E+001  0.9225075E+02  0.7546771E-02  0.1297491E+00
          4   -1    0    0  501    0  0.00000000000E+00  0.00000000000E+00  0.32921940170E+02  0.32921940170E+02  0.00000000000E+00 0. -1.
         -4   -1    0    0    0  501 -0.00000000000E+00 -0.00000000000E+00 -0.64624077503E+02  0.64624077503E+02  0.00000000000E+00 0.  1.
         23    2    1    2    0    0  0.00000000000E+00  0.00000000000E+00 -0.31702137332E+02  0.97546017673E+02  0.92250745539E+02 0.  0.
        -13    1    3    3    0    0  0.21078065697E+02  0.19961510384E+02 -0.53752706264E+02  0.61090917337E+02  0.00000000000E+00 0.  1.
         13    1    3    3    0    0 -0.21078065697E+02 -0.19961510384E+02  0.22050568932E+02  0.36455100336E+02  0.00000000000E+00 0. -1.
<mgrwt>
<rscale>  0 0.92250746E+02</rscale>
<asrwt>0</asrwt>
<pdfrwt beam="1">  1        4 0.50649139E-02 0.92250746E+02</pdfrwt>
<pdfrwt beam="2">  1       -4 0.99421657E-02 0.92250746E+02</pdfrwt>
<totfact> 0.25777215E+04</totfact>
</mgrwt>
</event>
<event>
 5    1  0.1242969E+001  0.8919760E+02  0.7546771E-02  0.1304807E+00
         -1   -1    0    0    0  501 -0.00000000000E+00  0.00000000000E+00  0.44350054726E+01  0.44350054726E+01  0.00000000000E+00 0.  1.
          1   -1    0    0  501    0  0.00000000000E+00 -0.00000000000E+00 -0.44848940422E+03  0.44848940422E+03  0.00000000000E+00 0. -1.
         23    2    1    2    0    0  0.00000000000E+00  0.00000000000E+00 -0.44405439875E+03  0.45292440969E+03  0.89197600015E+02 0.  0.
        -13    1    3    3    0    0 -0.41243076748E+02  0.16799728882E+02 -0.23428838895E+03  0.23848327293E+03  0.00000000000E+00 0.  1.
         13    1    3    3    0    0  0.41243076748E+02 -0.16799728882E+02 -0.20976600980E+03  0.21444113677E+03  0.00000000000E+00 0. -1.
<mgrwt>
<rscale>  0 0.89197600E+02</rscale>
<asrwt>0</asrwt>
<pdfrwt beam="2">  1        1 0.68998355E-01 0.89197600E+02</pdfrwt>
<pdfrwt beam="1">  1       -1 0.68230868E-03 0.89197600E+02</pdfrwt>
<totfact> 0.14550831E+05</totfact>
</mgrwt>
</event>
<event>
 5    1  0.1242969E+001  0.9143189E+02  0.7546771E-02  0.1299421E+00
          1   -1    0    0  501    0  0.00000000000E+00  0.00000000000E+00  0.61196003768E+02  0.61196003768E+02  0.00000000000E+00 0. -1.
         -1   -1    0    0    0  501 -0.00000000000E+00 -0.00000000000E+00 -0.34151701702E+02  0.34151701702E+02  0.00000000000E+00 0.  1.
         23    2    1    2    0    0  0.00000000000E+00  0.00000000000E+00  0.27044302066E+02  0.95347705469E+02  0.91431890848E+02 0.  0.
        -13    1    3    3    0    0 -0.44623799979E+02  0.38805359509E+00  0.31716697906E+01  0.44738055382E+02  0.00000000000E+00 0.  1.
         13    1    3    3    0    0  0.44623799979E+02 -0.38805359509E+00  0.23872632275E+02  0.50609650087E+02  0.00000000000E+00 0. -1.
<mgrwt>
<rscale>  0 0.91431891E+02</rscale>
<asrwt>0</asrwt>
<pdfrwt beam="1">  1        1 0.94147698E-02 0.91431891E+02</pdfrwt>
<pdfrwt beam="2">  1       -1 0.52541080E-02 0.91431891E+02</pdfrwt>
<totfact> 0.95913454E+04</totfact>
</mgrwt>
</event>
<event>
 5    1  0.1242969E+001  0.9115589E+02  0.7546771E-02  0.1300076E+00
         -2   -1    0    0    0  501 -0.00000000000E+00  0.00000000000E+00  0.26775189913E+02  0.26775189913E+02  0.00000000000E+00 0.  1.
          2   -1    0    0  501    0  0.00000000000E+00 -0.00000000000E+00 -0.77584845774E+02  0.77584845774E+02  0.00000000000E+00 0. -1.
         23    2    1    2    0    0  0.00000000000E+00  0.00000000000E+00 -0.50809655861E+02  0.10436003569E+03  0.91155888015E+02 0.  0.
        -11    1    3    3    0    0  0.11246939559E+01 -0.21530771378E+02  0.20567944096E+02  0.29797304861E+02  0.00000000000E+00 0.  1.
         11    1    3    3    0    0 -0.11246939559E+01  0.21530771378E+02 -0.71377599957E+02  0.74562730826E+02  0.00000000000E+00 0. -1.
<mgrwt>
<rscale>  0 0.91155888E+02</rscale>
<asrwt>0</asrwt>
<pdfrwt beam="2">  1        2 0.11936130E-01 0.91155888E+02</pdfrwt>
<pdfrwt beam="1">  1       -2 0.41192601E-02 0.91155888E+02</pdfrwt>
<totfact> 0.11392988E+05</totfact>
</mgrwt>
</event>
<event>
 5    1  0.1242969E+001  0.9493077E+02  0.7546771E-02  0.1291332E+00
          1   -1    0    0  501    0  0.00000000000E+00  0.00000000000E+00  0.42371709264E+02  0.42371709264E+02  0.00000000000E+00 0. -1.
         -1   -1    0    0    0  501 -0.00000000000E+00 -0.00000000000E+00 -0.53171387880E+02  0.53171387880E+02  0.00000000000E+00 0.  1.
         23    2    1    2    0    0  0.00000000000E+00  0.00000000000E+00 -0.10799678615E+02  0.95543097144E+02  0.94930766107E+02 0.  0.
        -13    1    3    3    0    0 -0.13195500405E+02 -0.13989381971E+02 -0.49074894912E+02  0.52708342314E+02  0.00000000000E+00 0.  1.
         13    1    3    3    0    0  0.13195500405E+02  0.13989381971E+02  0.38275216296E+02  0.42834754831E+02  0.00000000000E+00 0. -1.
<mgrwt>
<rscale>  0 0.94930766E+02</rscale>
<asrwt>0</asrwt>
<pdfrwt beam="1">  1        1 0.65187245E-02 0.94930766E+02</pdfrwt>
<pdfrwt beam="2">  1       -1 0.81802135E-02 0.94930766E+02</pdfrwt>
<totfact> 0.81593430E+04</totfact>
</mgrwt>
</event>
<event>
 5    1  0.1242969E+001  0.8789440E+02  0.7546771E-02  0.1308032E+00
         -1   -1    0    0    0  501 -0.00000000000E+00  0.00000000000E+00  0.65259004171E+02  0.65259004171E+02  0.00000000000E+00 0.  1.
          1   -1    0    0  501    0  0.00000000000E+00 -0.00000000000E+00 -0.29595247258E+02  0.29595247258E+02  0.00000000000E+00 0. -1.
         23    2    1    2    0    0  0.00000000000E+00  0.00000000000E+00  0.35663756914E+02  0.94854251429E+02  0.87894399463E+02 0.  0.
        -11    1    3    3    0    0  0.33842022455E+02 -0.12683307127E+02 -0.91522081722E+01  0.37281519254E+02  0.00000000000E+00 0. -1.
         11    1    3    3    0    0 -0.33842022455E+02  0.12683307127E+02  0.44815965086E+02  0.57572732175E+02  0.00000000000E+00 0.  1.
<mgrwt>
<rscale>  0 0.87894399E+02</rscale>
<asrwt>0</asrwt>
<pdfrwt beam="2">  1        1 0.45531150E-02 0.87894399E+02</pdfrwt>
<pdfrwt beam="1">  1       -1 0.10039847E-01 0.87894399E+02</pdfrwt>
<totfact> 0.96060187E+04</totfact>
</mgrwt>
</event>
<event>
 4    1  0.1242969E+001  0.2988557E+03  0.7546771E-02  0.1085814E+00
          2   -1    0    0  501    0  0.00000000000E+00  0.00000000000E+00  0.83870456616E+03  0.83870456616E+03  0.00000000000E+00 0.  1.
         -2   -1    0    0    0  501 -0.00000000000E+00 -0.00000000000E+00 -0.26622824757E+02  0.26622824757E+02  0.00000000000E+00 0. -1.
        -13    1    1    2    0    0  0.10694039925E+03 -0.53042927033E+02  0.14578858046E+03  0.18842534673E+03  0.00000000000E+00 0. -1.
         13    1    1    2    0    0 -0.10694039925E+03  0.53042927033E+02  0.66629316094E+03  0.67690204418E+03  0.00000000000E+00 0.  1.
<mgrwt>
<rscale>  0 0.29885572E+03</rscale>
<asrwt>0</asrwt>
<pdfrwt beam="1">  1        2 0.12903145E+00 0.29885572E+03</pdfrwt>
<pdfrwt beam="2">  1       -2 0.40958198E-02 0.29885572E+03</pdfrwt>
<totfact> 0.88505299E+03</totfact>
</mgrwt>
</event>
<event>
 5    1  0.1242969E+001  0.9123862E+02  0.7546771E-02  0.1299880E+00
          1   -1    0    0  501    0  0.00000000000E+00  0.00000000000E+00  0.38254593942E+03  0.38254593942E+03  0.00000000000E+00 0. -1.
         -1   -1    0    0    0  501 -0.00000000000E+00 -0.00000000000E+00 -0.54401865197E+01  0.54401865197E+01  0.00000000000E+00 0.  1.
         23    2    1    2    0    0  0.00000000000E+00  0.00000000000E+00  0.37710575290E+03  0.38798612594E+03  0.91238616008E+02 0.  0.
        -13    1    3    3    0    0 -0.20062792385E+02 -0.38846098145E+02  0.24393031555E+03  0.24781754140E+03  0.00000000000E+00 0.  1.
         13    1    3    3    0    0  0.20062792385E+02  0.38846098145E+02  0.13317543735E+03  0.14016858454E+03  0.00000000000E+00 0. -1.
<mgrwt>
<rscale>  0 0.91238616E+02</rscale>
<asrwt>0</asrwt>
<pdfrwt beam="1">  1        1 0.58853200E-01 0.91238616E+02</pdfrwt>
<pdfrwt beam="2">  1       -1 0.83695207E-03 0.91238616E+02</pdfrwt>
<totfact> 0.13364960E+05</totfact>
</mgrwt>
</event>
<event>
 5    1  0.1242969E+001  0.9258641E+02  0.7546771E-02  0.1296706E+00
          2   -1    0    0  501    0  0.00000000000E+00  0.00000000000E+00  0.15787636080E+02  0.15787636080E+02  0.00000000000E+00 0. -1.
         -2   -1    0    0    0  501 -0.00000000000E+00 -0.00000000000E+00 -0.13574299753E+03  0.13574299753E+03  0.00000000000E+00 0.  1.
         23    2    1    2    0    0  0.00000000000E+00  0.00000000000E+00 -0.11995536145E+03  0.15153063361E+03  0.92586414672E+02 0.  0.
        -13    1    3    3    0    0 -0.26033595098E+02 -0.19608287646E+02 -0.61715860537E+01  0.33171094233E+02  0.00000000000E+00 0. -1.
         13    1    3    3    0    0  0.26033595098E+02  0.19608287646E+02 -0.11378377540E+03  0.11835953938E+03  0.00000000000E+00 0.  1.
<mgrwt>
<rscale>  0 0.92586415E+02</rscale>
<asrwt>0</asrwt>
<pdfrwt beam="1">  1        2 0.24288672E-02 0.92586415E+02</pdfrwt>
<pdfrwt beam="2">  1       -2 0.20883537E-01 0.92586415E+02</pdfrwt>
<totfact> 0.69623102E+04</totfact>
</mgrwt>
</event>
<event>
 5    1  0.1242969E+001  0.9527434E+02  0.7546771E-02  0.1290559E+00
          1   -1    0    0  501    0  0.00000000000E+00  0.00000000000E+00  0.94554112257E+01  0.94554112257E+01  0.00000000000E+00 0. -1.
         -1   -1    0    0    0  501 -0.00000000000E+00 -0.00000000000E+00 -0.24000012469E+03  0.24000012469E+03  0.00000000000E+00 0.  1.
         23    2    1    2    0    0  0.00000000000E+00  0.00000000000E+00 -0.23054471346E+03  0.24945553591E+03  0.95274338059E+02 0.  0.
        -11    1    3    3    0    0  0.26090642249E+02 -0.39828669960E+02 -0.11134029552E+03  0.12109378997E+03  0.00000000000E+00 0.  1.
         11    1    3    3    0    0 -0.26090642249E+02  0.39828669960E+02 -0.11920441795E+03  0.12836174594E+03  0.00000000000E+00 0. -1.
<mgrwt>
<rscale>  0 0.95274338E+02</rscale>
<asrwt>0</asrwt>
<pdfrwt beam="1">  1        1 0.14546786E-02 0.95274338E+02</pdfrwt>
<pdfrwt beam="2">  1       -1 0.36923097E-01 0.95274338E+02</pdfrwt>
<totfact> 0.58521558E+04</totfact>
</mgrwt>
</event>
<event>
 5    1  0.1242969E+001  0.9234353E+02  0.7546771E-02  0.1297274E+00
         -3   -1    0    0    0  501 -0.00000000000E+00  0.00000000000E+00  0.29969074769E+02  0.29969074769E+02  0.00000000000E+00 0.  1.
          3   -1    0    0  501    0  0.00000000000E+00 -0.00000000000E+00 -0.71134389212E+02  0.71134389212E+02  0.00000000000E+00 0. -1.
         23    2    1    2    0    0  0.00000000000E+00  0.00000000000E+00 -0.41165314443E+02  0.10110346398E+03  0.92343528824E+02 0.  0.
        -13    1    3    3    0    0 -0.65583271308E+01  0.13136332216E+02  0.27345026465E+02  0.31037483004E+02  0.00000000000E+00 0.  1.
         13    1    3    3    0    0  0.65583271308E+01 -0.13136332216E+02 -0.68510340909E+02  0.70065980977E+02  0.00000000000E+00 0. -1.
<mgrwt>
<rscale>  0 0.92343529E+02</rscale>
<asrwt>0</asrwt>
<pdfrwt beam="2">  1        3 0.10943752E-01 0.92343529E+02</pdfrwt>
<pdfrwt beam="1">  1       -3 0.46106269E-02 0.92343529E+02</pdfrwt>
<totfact> 0.33410172E+04</totfact>
</mgrwt>
</event>
<event>
 5    1  0.1242969E+001  0.9172400E+02  0.7546771E-02  0.1298730E+00
          3   -1    0    0  501    0  0.00000000000E+00  0.00000000000E+00  0.29656588754E+02  0.29656588754E+02  0.00000000000E+00 0. -1.
         -3   -1    0    0    0  501 -0.00000000000E+00 -0.00000000000E+00 -0.70922623718E+02  0.70922623718E+02  0.00000000000E+00 0.  1.
         23    2    1    2    0    0  0.00000000000E+00  0.00000000000E+00 -0.41266034964E+02  0.10057921247E+03  0.91724000894E+02 0.  0.
        -13    1    3    3    0    0 -0.91926350515E+01 -0.17447135076E+02 -0.66035891996E+02  0.68917676203E+02  0.00000000000E+00 0.  1.
         13    1    3    3    0    0  0.91926350515E+01  0.17447135076E+02  0.24769857032E+02  0.31661536269E+02  0.00000000000E+00 0. -1.
<mgrwt>
<rscale>  0 0.91724001E+02</rscale>
<asrwt>0</asrwt>
<pdfrwt beam="1">  1        3 0.45625522E-02 0.91724001E+02</pdfrwt>
<pdfrwt beam="2">  1       -3 0.10911173E-01 0.91724001E+02</pdfrwt>
<totfact> 0.34068970E+04</totfact>
</mgrwt>
</event>
<event>
 5    1  0.1242969E+001  0.9192498E+02  0.7546771E-02  0.1298256E+00
         -1   -1    0    0    0  501 -0.00000000000E+00  0.00000000000E+00  0.42181248387E+02  0.42181248387E+02  0.00000000000E+00 0.  1.
          1   -1    0    0  501    0  0.00000000000E+00 -0.00000000000E+00 -0.50082691131E+02  0.50082691131E+02  0.00000000000E+00 0. -1.
         23    2    1    2    0    0  0.00000000000E+00  0.00000000000E+00 -0.79014427433E+01  0.92263939518E+02  0.91924978858E+02 0.  0.
        -13    1    3    3    0    0  0.24302850030E+02 -0.32086650584E+02  0.18320483074E+02  0.44224673716E+02  0.00000000000E+00 0. -1.
         13    1    3    3    0    0 -0.24302850030E+02  0.32086650584E+02 -0.26221925817E+02  0.48039265802E+02  0.00000000000E+00 0.  1.
<mgrwt>
<rscale>  0 0.91924979E+02</rscale>
<asrwt>0</asrwt>
<pdfrwt beam="2">  1        1 0.77050293E-02 0.91924979E+02</pdfrwt>
<pdfrwt beam="1">  1       -1 0.64894229E-02 0.91924979E+02</pdfrwt>
<totfact> 0.91665836E+04</totfact>
</mgrwt>
</event>
<event>
 5    1  0.1242969E+001  0.9219793E+02  0.7546771E-02  0.1297615E+00
          1   -1    0    0  501    0  0.00000000000E+00  0.00000000000E+00  0.31267763163E+02  0.31267763163E+02  0.00000000000E+00 0. -1.
         -1   -1    0    0    0  501 -0.00000000000E+00 -0.00000000000E+00 -0.67965029309E+02  0.67965029309E+02  0.00000000000E+00 0.  1.
         23    2    1    2    0    0  0.00000000000E+00  0.00000000000E+00 -0.36697266146E+02  0.99232792472E+02  0.92197927087E+02 0.  0.
        -13    1    3    3    0    0  0.26825990284E+02 -0.15357986533E+02  0.18460461708E+02  0.36004029657E+02  0.00000000000E+00 0. -1.
         13    1    3    3    0    0 -0.26825990284E+02  0.15357986533E+02 -0.55157727854E+02  0.63228762815E+02  0.00000000000E+00 0.  1.
<mgrwt>
<rscale>  0 0.92197927E+02</rscale>
<asrwt>0</asrwt>
<pdfrwt beam="1">  1        1 0.48104251E-02 0.92197927E+02</pdfrwt>
<pdfrwt beam="2">  1       -1 0.10456158E-01 0.92197927E+02</pdfrwt>
<totfact> 0.84517253E+04</totfact>
</mgrwt>
</event>
<event>
 5    1  0.1242969E+001  0.9209138E+02  0.7546771E-02  0.1297865E+00
         -1   -1    0    0    0  501 -0.00000000000E+00  0.00000000000E+00  0.58039786517E+01  0.58039786517E+01  0.00000000000E+00 0.  1.
          1   -1    0    0  501    0  0.00000000000E+00 -0.00000000000E+00 -0.36530207446E+03  0.36530207446E+03  0.00000000000E+00 0. -1.
         23    2    1    2    0    0  0.00000000000E+00  0.00000000000E+00 -0.35949809581E+03  0.37110605311E+03  0.92091377264E+02 0.  0.
        -13    1    3    3    0    0 -0.42011005467E+02 -0.62469735358E+01 -0.25141264155E+03  0.25497502935E+03  0.00000000000E+00 0. -1.
         13    1    3    3    0    0  0.42011005467E+02  0.62469735358E+01 -0.10808545426E+03  0.11613102376E+03  0.00000000000E+00 0.  1.
<mgrwt>
<rscale>  0 0.92091377E+02</rscale>
<asrwt>0</asrwt>
<pdfrwt beam="2">  1        1 0.56200312E-01 0.92091377E+02</pdfrwt>
<pdfrwt beam="1">  1       -1 0.89291991E-03 0.92091377E+02</pdfrwt>
<totfact> 0.12935009E+05</totfact>
</mgrwt>
</event>
<event>
 5    1  0.1242969E+001  0.9053331E+02  0.7546771E-02  0.1301565E+00
          1   -1    0    0  501    0  0.00000000000E+00  0.00000000000E+00  0.17627435078E+02  0.17627435078E+02  0.00000000000E+00 0. -1.
         -1   -1    0    0    0  501 -0.00000000000E+00 -0.00000000000E+00 -0.11624324119E+03  0.11624324119E+03  0.00000000000E+00 0.  1.
         23    2    1    2    0    0  0.00000000000E+00  0.00000000000E+00 -0.98615806112E+02  0.13387067627E+03  0.90533312924E+02 0.  0.
        -13    1    3    3    0    0  0.17437875672E+02 -0.28537273601E+02 -0.41990279320E+01  0.33705894560E+02  0.00000000000E+00 0. -1.
         13    1    3    3    0    0 -0.17437875672E+02  0.28537273601E+02 -0.94416778180E+02  0.10016478171E+03  0.00000000000E+00 0.  1.
<mgrwt>
<rscale>  0 0.90533313E+02</rscale>
<asrwt>0</asrwt>
<pdfrwt beam="1">  1        1 0.27119132E-02 0.90533313E+02</pdfrwt>
<pdfrwt beam="2">  1       -1 0.17883575E-01 0.90533313E+02</pdfrwt>
<totfact> 0.80497256E+04</totfact>
</mgrwt>
</event>
<event>
 5    1  0.1242969E+001  0.9130499E+02  0.7546771E-02  0.1299722E+00
         -1   -1    0    0    0  501 -0.00000000000E+00  0.00000000000E+00  0.53221017135E+02  0.53221017135E+02  0.00000000000E+00 0.  1.
          1   -1    0    0  501    0  0.00000000000E+00 -0.00000000000E+00 -0.39160288162E+02  0.39160288162E+02  0.00000000000E+00 0. -1.
         23    2    1    2    0    0  0.00000000000E+00  0.00000000000E+00  0.14060728973E+02  0.92381305297E+02  0.91304991480E+02 0.  0.
        -13    1    3    3    0    0  0.42329029291E+02 -0.34966351086E+01  0.23966174038E+02  0.48768336816E+02  0.00000000000E+00 0.  1.
         13    1    3    3    0    0 -0.42329029291E+02  0.34966351086E+01 -0.99054450648E+01  0.43612968481E+02  0.00000000000E+00 0. -1.
<mgrwt>
<rscale>  0 0.91304991E+02</rscale>
<asrwt>0</asrwt>
<pdfrwt beam="2">  1        1 0.60246597E-02 0.91304991E+02</pdfrwt>
<pdfrwt beam="1">  1       -1 0.81878488E-02 0.91304991E+02</pdfrwt>
<totfact> 0.90012790E+04</totfact>
</mgrwt>
</event>
<event>
 5    1  0.1242969E+001  0.9122291E+02  0.7546771E-02  0.1299917E+00
         -4   -1    0    0    0  501 -0.00000000000E+00  0.00000000000E+00  0.61585437373E+02  0.61585437373E+02  0.00000000000E+00 0.  1.
          4   -1    0    0  501    0  0.00000000000E+00 -0.00000000000E+00 -0.33780790811E+02  0.33780790811E+02  0.00000000000E+00 0. -1.
         23    2    1    2    0    0  0.00000000000E+00  0.00000000000E+00  0.27804646562E+02  0.95366228184E+02  0.91222908897E+02 0.  0.
        -13    1    3    3    0    0 -0.35514642831E+02 -0.28494019685E+02  0.11096045255E+02  0.46864925409E+02  0.00000000000E+00 0.  1.
         13    1    3    3    0    0  0.35514642831E+02  0.28494019685E+02  0.16708601307E+02  0.48501302775E+02  0.00000000000E+00 0. -1.
<mgrwt>
<rscale>  0 0.91222909E+02</rscale>
<asrwt>0</asrwt>
<pdfrwt beam="2">  1        4 0.51970447E-02 0.91222909E+02</pdfrwt>
<pdfrwt beam="1">  1       -4 0.94746827E-02 0.91222909E+02</pdfrwt>
<totfact> 0.26711831E+04</totfact>
</mgrwt>
</event>
<event>
 5    1  0.1242969E+001  0.9162326E+02  0.7546771E-02  0.1298968E+00
          1   -1    0    0  501    0  0.00000000000E+00  0.00000000000E+00  0.18073719707E+02  0.18073719707E+02  0.00000000000E+00 0. -1.
         -1   -1    0    0    0  501 -0.00000000000E+00 -0.00000000000E+00 -0.11611918273E+03  0.11611918273E+03  0.00000000000E+00 0.  1.
         23    2    1    2    0    0  0.00000000000E+00  0.00000000000E+00 -0.98045463024E+02  0.13419290244E+03  0.91623262576E+02 0.  0.
        -11    1    3    3    0    0  0.84787823265E+00 -0.22136784314E+02 -0.10775272989E+03  0.11000639489E+03  0.00000000000E+00 0.  1.
         11    1    3    3    0    0 -0.84787823265E+00  0.22136784314E+02  0.97072668697E+01  0.24186507547E+02  0.00000000000E+00 0. -1.
<mgrwt>
<rscale>  0 0.91623263E+02</rscale>
<asrwt>0</asrwt>
<pdfrwt beam="1">  1        1 0.27805723E-02 0.91623263E+02</pdfrwt>
<pdfrwt beam="2">  1       -1 0.17864489E-01 0.91623263E+02</pdfrwt>
<totfact> 0.78063258E+04</totfact>
</mgrwt>
</event>
<event>
 5    1  0.1242969E+001  0.9548994E+02  0.7546771E-02  0.1290076E+00
         -2   -1    0    0    0  501 -0.00000000000E+00  0.00000000000E+00  0.82227127704E+02  0.82227127704E+02  0.00000000000E+00 0.  1.
          2   -1    0    0  501    0  0.00000000000E+00 -0.00000000000E+00 -0.27722995901E+02  0.27722995901E+02  0.00000000000E+00 0. -1.
         23    2    1    2    0    0  0.00000000000E+00  0.00000000000E+00  0.54504131803E+02  0.10995012360E+03  0.95489943434E+02 0.  0.
        -11    1    3    3    0    0 -0.10629629539E+02  0.44057246381E+02  0.44544724032E+02  0.63547324271E+02  0.00000000000E+00 0.  1.
         11    1    3    3    0    0  0.10629629539E+02 -0.44057246381E+02  0.99594077708E+01  0.46402799334E+02  0.00000000000E+00 0. -1.
<mgrwt>
<rscale>  0 0.95489943E+02</rscale>
<asrwt>0</asrwt>
<pdfrwt beam="2">  1        2 0.42650763E-02 0.95489943E+02</pdfrwt>
<pdfrwt beam="1">  1       -2 0.12650327E-01 0.95489943E+02</pdfrwt>
<totfact> 0.75355997E+04</totfact>
</mgrwt>
</event>
<event>
 5    1  0.1242969E+001  0.9075512E+02  0.7546771E-02  0.1301033E+00
          2   -1    0    0  501    0  0.00000000000E+00  0.00000000000E+00  0.39852062458E+02  0.39852062458E+02  0.00000000000E+00 0. -1.
         -2   -1    0    0    0  501 -0.00000000000E+00 -0.00000000000E+00 -0.51669166330E+02  0.51669166330E+02  0.00000000000E+00 0.  1.
         23    2    1    2    0    0  0.00000000000E+00  0.00000000000E+00 -0.11817103872E+02  0.91521228788E+02  0.90755117624E+02 0.  0.
        -13    1    3    3    0    0 -0.66221563048E+01 -0.13146091161E+02 -0.49194665523E+02  0.51349661954E+02  0.00000000000E+00 0.  1.
         13    1    3    3    0    0  0.66221563048E+01  0.13146091161E+02  0.37377561650E+02  0.40171566834E+02  0.00000000000E+00 0. -1.
<mgrwt>
<rscale>  0 0.90755118E+02</rscale>
<asrwt>0</asrwt>
<pdfrwt beam="1">  1        2 0.61310866E-02 0.90755118E+02</pdfrwt>
<pdfrwt beam="2">  1       -2 0.79491025E-02 0.90755118E+02</pdfrwt>
<totfact> 0.96584674E+04</totfact>
</mgrwt>
</event>
<event>
 5    1  0.1242969E+001  0.9223705E+02  0.7546771E-02  0.1297523E+00
          2   -1    0    0  501    0  0.00000000000E+00  0.00000000000E+00  0.16435010451E+03  0.16435010451E+03  0.00000000000E+00 0. -1.
         -2   -1    0    0    0  501 -0.00000000000E+00 -0.00000000000E+00 -0.12941385944E+02  0.12941385944E+02  0.00000000000E+00 0.  1.
         23    2    1    2    0    0  0.00000000000E+00  0.00000000000E+00  0.15140871856E+03  0.17729149045E+03  0.92237045320E+02 0.  0.
        -11    1    3    3    0    0  0.39602071007E+01  0.45925395707E+02  0.72923628470E+02  0.86270973104E+02  0.00000000000E+00 0. -1.
         11    1    3    3    0    0 -0.39602071007E+01 -0.45925395707E+02  0.78485090092E+02  0.91020517346E+02  0.00000000000E+00 0.  1.
<mgrwt>
<rscale>  0 0.92237045E+02</rscale>
<asrwt>0</asrwt>
<pdfrwt beam="1">  1        2 0.25284630E-01 0.92237045E+02</pdfrwt>
<pdfrwt beam="2">  1       -2 0.19909826E-02 0.92237045E+02</pdfrwt>
<totfact> 0.13981852E+05</totfact>
</mgrwt>
</event>
<event>
 5    1  0.1242969E+001  0.9157505E+02  0.7546771E-02  0.1299082E+00
          2   -1    0    0  501    0  0.00000000000E+00  0.00000000000E+00  0.13650545326E+02  0.13650545326E+02  0.00000000000E+00 0. -1.
         -2   -1    0    0    0  501 -0.00000000000E+00 -0.00000000000E+00 -0.15358342224E+03  0.15358342224E+03  0.00000000000E+00 0.  1.
         23    2    1    2    0    0  0.00000000000E+00  0.00000000000E+00 -0.13993287692E+03  0.16723396757E+03  0.91575050459E+02 0.  0.
        -13    1    3    3    0    0 -0.26918625987E+02 -0.13505374173E+02 -0.69828054412E+01  0.30915483635E+02  0.00000000000E+00 0. -1.
         13    1    3    3    0    0  0.26918625987E+02  0.13505374173E+02 -0.13295007147E+03  0.13631848393E+03  0.00000000000E+00 0.  1.
<mgrwt>
<rscale>  0 0.91575050E+02</rscale>
<asrwt>0</asrwt>
<pdfrwt beam="1">  1        2 0.21000841E-02 0.91575050E+02</pdfrwt>
<pdfrwt beam="2">  1       -2 0.23628217E-01 0.91575050E+02</pdfrwt>
<totfact> 0.68493564E+04</totfact>
</mgrwt>
</event>
<event>
 5    1  0.1242969E+001  0.9037540E+02  0.7546771E-02  0.1301945E+00
         -3   -1    0    0    0  501 -0.00000000000E+00  0.00000000000E+00  0.58064653226E+02  0.58064653226E+02  0.00000000000E+00 0.  1.
          3   -1    0    0  501    0  0.00000000000E+00 -0.00000000000E+00 -0.35166457819E+02  0.35166457819E+02  0.00000000000E+00 0. -1.
         23    2    1    2    0    0  0.00000000000E+00  0.00000000000E+00  0.22898195407E+02  0.93231111045E+02  0.90375398831E+02 0.  0.
        -13    1    3    3    0    0  0.41431913875E+02  0.10437333045E+02 -0.37258074401E+01  0.42888495538E+02  0.00000000000E+00 0. -1.
         13    1    3    3    0    0 -0.41431913875E+02 -0.10437333045E+02  0.26624002848E+02  0.50342615507E+02  0.00000000000E+00 0.  1.
<mgrwt>
<rscale>  0 0.90375399E+02</rscale>
<asrwt>0</asrwt>
<pdfrwt beam="2">  1        3 0.54102243E-02 0.90375399E+02</pdfrwt>
<pdfrwt beam="1">  1       -3 0.89330236E-02 0.90375399E+02</pdfrwt>
<totfact> 0.36037075E+04</totfact>
</mgrwt>
</event>
<event>
 5    1  0.1242969E+001  0.8788859E+02  0.7546771E-02  0.1308047E+00
         -2   -1    0    0    0  501 -0.00000000000E+00  0.00000000000E+00  0.59748780836E+02  0.59748780836E+02  0.00000000000E+00 0.  1.
          2   -1    0    0  501    0  0.00000000000E+00 -0.00000000000E+00 -0.32320340858E+02  0.32320340858E+02  0.00000000000E+00 0. -1.
         23    2    1    2    0    0  0.00000000000E+00  0.00000000000E+00  0.27428439978E+02  0.92069121693E+02  0.87888587711E+02 0.  0.
        -11    1    3    3    0    0 -0.27879799518E+02  0.22138128101E+02 -0.13274003762E+02  0.37994461608E+02  0.00000000000E+00 0. -1.
         11    1    3    3    0    0  0.27879799518E+02 -0.22138128101E+02  0.40702443740E+02  0.54074660086E+02  0.00000000000E+00 0.  1.
<mgrwt>
<rscale>  0 0.87888588E+02</rscale>
<asrwt>0</asrwt>
<pdfrwt beam="2">  1        2 0.49723601E-02 0.87888588E+02</pdfrwt>
<pdfrwt beam="1">  1       -2 0.91921201E-02 0.87888588E+02</pdfrwt>
<totfact> 0.10049487E+05</totfact>
</mgrwt>
</event>
<event>
 5    1  0.1242969E+001  0.9325589E+02  0.7546771E-02  0.1295153E+00
          2   -1    0    0  501    0  0.00000000000E+00  0.00000000000E+00  0.74308764746E+02  0.74308764746E+02  0.00000000000E+00 0. -1.
         -2   -1    0    0    0  501 -0.00000000000E+00 -0.00000000000E+00 -0.29258527353E+02  0.29258527353E+02  0.00000000000E+00 0.  1.
         23    2    1    2    0    0  0.00000000000E+00  0.00000000000E+00  0.45050237393E+02  0.10356729210E+03  0.93255885088E+02 0.  0.
        -11    1    3    3    0    0  0.39613497216E+02 -0.24570986232E+02  0.21307282502E+02  0.51253905351E+02  0.00000000000E+00 0. -1.
         11    1    3    3    0    0 -0.39613497216E+02  0.24570986232E+02  0.23742954891E+02  0.52313386748E+02  0.00000000000E+00 0.  1.
<mgrwt>
<rscale>  0 0.93255885E+02</rscale>
<asrwt>0</asrwt>
<pdfrwt beam="1">  1        2 0.11432118E-01 0.93255885E+02</pdfrwt>
<pdfrwt beam="2">  1       -2 0.45013119E-02 0.93255885E+02</pdfrwt>
<totfact> 0.10560395E+05</totfact>
</mgrwt>
</event>
<event>
 5    1  0.1242969E+001  0.9149311E+02  0.7546771E-02  0.1299276E+00
         -1   -1    0    0    0  501 -0.00000000000E+00  0.00000000000E+00  0.11690011047E+03  0.11690011047E+03  0.00000000000E+00 0.  1.
          1   -1    0    0  501    0  0.00000000000E+00 -0.00000000000E+00 -0.17902012980E+02  0.17902012980E+02  0.00000000000E+00 0. -1.
         23    2    1    2    0    0  0.00000000000E+00  0.00000000000E+00  0.98998097494E+02  0.13480212345E+03  0.91493110015E+02 0.  0.
        -11    1    3    3    0    0 -0.39045861004E+02 -0.35321108858E+01  0.84230705778E+02  0.92907840706E+02  0.00000000000E+00 0.  1.
         11    1    3    3    0    0  0.39045861004E+02  0.35321108858E+01  0.14767391716E+02  0.41894282748E+02  0.00000000000E+00 0. -1.
<mgrwt>
<rscale>  0 0.91493110E+02</rscale>
<asrwt>0</asrwt>
<pdfrwt beam="2">  1        1 0.27541559E-02 0.91493110E+02</pdfrwt>
<pdfrwt beam="1">  1       -1 0.17984632E-01 0.91493110E+02</pdfrwt>
<totfact> 0.78245113E+04</totfact>
</mgrwt>
</event>
<event>
 5    1  0.1242969E+001  0.8899715E+02  0.7546771E-02  0.1305299E+00
          2   -1    0    0  501    0  0.00000000000E+00  0.00000000000E+00  0.57113813872E+02  0.57113813872E+02  0.00000000000E+00 0. -1.
         -2   -1    0    0    0  501 -0.00000000000E+00 -0.00000000000E+00 -0.34669777243E+02  0.34669777243E+02  0.00000000000E+00 0.  1.
         23    2    1    2    0    0  0.00000000000E+00  0.00000000000E+00  0.22444036629E+02  0.91783591115E+02  0.88997150616E+02 0.  0.
        -13    1    3    3    0    0 -0.27179814057E+02  0.22536667699E+01 -0.25039936438E+02  0.37024582684E+02  0.00000000000E+00 0.  1.
         13    1    3    3    0    0  0.27179814057E+02 -0.22536667699E+01  0.47483973067E+02  0.54759008431E+02  0.00000000000E+00 0. -1.
<mgrwt>
<rscale>  0 0.88997151E+02</rscale>
<asrwt>0</asrwt>
<pdfrwt beam="1">  1        2 0.87867406E-02 0.88997151E+02</pdfrwt>
<pdfrwt beam="2">  1       -2 0.53338119E-02 0.88997151E+02</pdfrwt>
<totfact> 0.11207406E+05</totfact>
</mgrwt>
</event>
<event>
 5    1  0.1242969E+001  0.1039928E+03  0.7546771E-02  0.1272117E+00
         -2   -1    0    0    0  501 -0.00000000000E+00  0.00000000000E+00  0.15903637639E+03  0.15903637639E+03  0.00000000000E+00 0.  1.
          2   -1    0    0  501    0  0.00000000000E+00 -0.00000000000E+00 -0.17000061290E+02  0.17000061290E+02  0.00000000000E+00 0. -1.
         23    2    1    2    0    0  0.00000000000E+00  0.00000000000E+00  0.14203631510E+03  0.17603643768E+03  0.10399284871E+03 0.  0.
        -11    1    3    3    0    0  0.41483902002E+02 -0.26219089742E+02  0.41930334156E+02  0.64548491188E+02  0.00000000000E+00 0. -1.
         11    1    3    3    0    0 -0.41483902002E+02  0.26219089742E+02  0.10010598094E+03  0.11148794649E+03  0.00000000000E+00 0.  1.
<mgrwt>
<rscale>  0 0.10399285E+03</rscale>
<asrwt>0</asrwt>
<pdfrwt beam="2">  1        2 0.26153942E-02 0.10399285E+03</pdfrwt>
<pdfrwt beam="1">  1       -2 0.24467134E-01 0.10399285E+03</pdfrwt>
<totfact> 0.48952152E+04</totfact>
</mgrwt>
</event>
<event>
 5    1  0.1242969E+001  0.8941193E+02  0.7546771E-02  0.1304282E+00
         -2   -1    0    0    0  501 -0.00000000000E+00  0.00000000000E+00  0.47889098454E+02  0.47889098454E+02  0.00000000000E+00 0.  1.
          2   -1    0    0  501    0  0.00000000000E+00 -0.00000000000E+00 -0.41734411395E+02  0.41734411395E+02  0.00000000000E+00 0. -1.
         23    2    1    2    0    0  0.00000000000E+00  0.00000000000E+00  0.61546870584E+01  0.89623509849E+02  0.89411930663E+02 0.  0.
        -13    1    3    3    0    0 -0.18182503549E+02  0.39071445414E+02 -0.88437405950E+01  0.43993102070E+02  0.00000000000E+00 0. -1.
         13    1    3    3    0    0  0.18182503549E+02 -0.39071445414E+02  0.14998427653E+02  0.45630407779E+02  0.00000000000E+00 0.  1.
<mgrwt>
<rscale>  0 0.89411931E+02</rscale>
<asrwt>0</asrwt>
<pdfrwt beam="2">  1        2 0.64206787E-02 0.89411931E+02</pdfrwt>
<pdfrwt beam="1">  1       -2 0.73675536E-02 0.89411931E+02</pdfrwt>
<totfact> 0.10202568E+05</totfact>
</mgrwt>
</event>
<event>
 5    1  0.1242969E+001  0.9107025E+02  0.7546771E-02  0.1300280E+00
         -1   -1    0    0    0  501 -0.00000000000E+00  0.00000000000E+00  0.64753837237E+01  0.64753837237E+01  0.00000000000E+00 0.  1.
          1   -1    0    0  501    0  0.00000000000E+00 -0.00000000000E+00 -0.32020459935E+03  0.32020459935E+03  0.00000000000E+00 0. -1.
         23    2    1    2    0    0  0.00000000000E+00  0.00000000000E+00 -0.31372921563E+03  0.32667998308E+03  0.91070250925E+02 0.  0.
        -11    1    3    3    0    0 -0.33451857470E+02 -0.23316021798E+02 -0.22956767888E+03  0.23316085183E+03  0.00000000000E+00 0. -1.
         11    1    3    3    0    0  0.33451857470E+02  0.23316021798E+02 -0.84161536746E+02  0.93519131241E+02  0.00000000000E+00 0.  1.
<mgrwt>
<rscale>  0 0.91070251E+02</rscale>
<asrwt>0</asrwt>
<pdfrwt beam="2">  1        1 0.49262218E-01 0.91070251E+02</pdfrwt>
<pdfrwt beam="1">  1       -1 0.99621345E-03 0.91070251E+02</pdfrwt>
<totfact> 0.13011160E+05</totfact>
</mgrwt>
</event>
<event>
 5    1  0.1242969E+001  0.9416569E+02  0.7546771E-02  0.1293066E+00
         -1   -1    0    0    0  501 -0.00000000000E+00  0.00000000000E+00  0.37840465261E+02  0.37840465261E+02  0.00000000000E+00 0.  1.
          1   -1    0    0  501    0  0.00000000000E+00 -0.00000000000E+00 -0.58582635233E+02  0.58582635233E+02  0.00000000000E+00 0. -1.
         23    2    1    2    0    0  0.00000000000E+00  0.00000000000E+00 -0.20742169972E+02  0.96423100495E+02  0.94165687455E+02 0.  0.
        -11    1    3    3    0    0  0.34401882556E+02 -0.32144392606E+02 -0.10582614284E+02  0.48257053624E+02  0.00000000000E+00 0.  1.
         11    1    3    3    0    0 -0.34401882556E+02  0.32144392606E+02 -0.10159555687E+02  0.48166046871E+02  0.00000000000E+00 0. -1.
<mgrwt>
<rscale>  0 0.94165687E+02</rscale>
<asrwt>0</asrwt>
<pdfrwt beam="2">  1        1 0.90127131E-02 0.94165687E+02</pdfrwt>
<pdfrwt beam="1">  1       -1 0.58216101E-02 0.94165687E+02</pdfrwt>
<totfact> 0.87771849E+04</totfact>
</mgrwt>
</event>
<event>
 5    1  0.1242969E+001  0.8906073E+02  0.7546771E-02  0.1305142E+00
          3   -1    0    0  501    0  0.00000000000E+00  0.00000000000E+00  0.15850725421E+03  0.15850725421E+03  0.00000000000E+00 0. -1.
         -3   -1    0    0    0  501 -0.00000000000E+00 -0.00000000000E+00 -0.12510173608E+02  0.12510173608E+02  0.00000000000E+00 0.  1.
         23    2    1    2    0    0  0.00000000000E+00  0.00000000000E+00  0.14599708060E+03  0.17101742782E+03  0.89060726885E+02 0.  0.
        -11    1    3    3    0    0 -0.43222058507E+02  0.72144582527E+01  0.57786394561E+02  0.72522149346E+02  0.00000000000E+00 0.  1.
         11    1    3    3    0    0  0.43222058507E+02 -0.72144582527E+01  0.88210686041E+02  0.98495278472E+02  0.00000000000E+00 0. -1.
<mgrwt>
<rscale>  0 0.89060727E+02</rscale>
<asrwt>0</asrwt>
<pdfrwt beam="1">  1        3 0.24385730E-01 0.89060727E+02</pdfrwt>
<pdfrwt beam="2">  1       -3 0.19246422E-02 0.89060727E+02</pdfrwt>
<totfact> 0.32033657E+04</totfact>
</mgrwt>
</event>
<event>
 5    1  0.1242969E+001  0.6696808E+02  0.7546771E-02  0.1370718E+00
         -3   -1    0    0    0  501 -0.00000000000E+00  0.00000000000E+00  0.46363575404E+02  0.46363575404E+02  0.00000000000E+00 0.  1.
          3   -1    0    0  501    0  0.00000000000E+00 -0.00000000000E+00 -0.24182365022E+02  0.24182365022E+02  0.00000000000E+00 0. -1.
         23    2    1    2    0    0  0.00000000000E+00  0.00000000000E+00  0.22181210382E+02  0.70545940426E+02  0.66968079087E+02 0.  0.
        -11    1    3    3    0    0  0.17625073145E+02  0.19024798823E+02 -0.11221023272E+02  0.28257698719E+02  0.00000000000E+00 0. -1.
         11    1    3    3    0    0 -0.17625073145E+02 -0.19024798823E+02  0.33402233654E+02  0.42288241707E+02  0.00000000000E+00 0.  1.
<mgrwt>
<rscale>  0 0.66968079E+02</rscale>
<asrwt>0</asrwt>
<pdfrwt beam="2">  1        3 0.37203639E-02 0.66968079E+02</pdfrwt>
<pdfrwt beam="1">  1       -3 0.71328577E-02 0.66968079E+02</pdfrwt>
<totfact> 0.84541429E+04</totfact>
</mgrwt>
</event>
<event>
 5    1  0.1242969E+001  0.9657743E+02  0.7546771E-02  0.1287662E+00
          3   -1    0    0  501    0  0.00000000000E+00  0.00000000000E+00  0.55995313504E+02  0.55995313504E+02  0.00000000000E+00 0. -1.
         -3   -1    0    0    0  501 -0.00000000000E+00 -0.00000000000E+00 -0.41642766771E+02  0.41642766771E+02  0.00000000000E+00 0.  1.
         23    2    1    2    0    0  0.00000000000E+00  0.00000000000E+00  0.14352546732E+02  0.97638080275E+02  0.96577425530E+02 0.  0.
        -11    1    3    3    0    0 -0.10662802041E+02 -0.29702399469E+02 -0.29774711205E+02  0.43387340422E+02  0.00000000000E+00 0.  1.
         11    1    3    3    0    0  0.10662802041E+02  0.29702399469E+02  0.44127257937E+02  0.54250739853E+02  0.00000000000E+00 0. -1.
<mgrwt>
<rscale>  0 0.96577426E+02</rscale>
<asrwt>0</asrwt>
<pdfrwt beam="1">  1        3 0.86146636E-02 0.96577426E+02</pdfrwt>
<pdfrwt beam="2">  1       -3 0.64065795E-02 0.96577426E+02</pdfrwt>
<totfact> 0.29772596E+04</totfact>
</mgrwt>
</event>
<event>
 5    1  0.1242969E+001  0.9067653E+02  0.7546771E-02  0.1301222E+00
          1   -1    0    0  501    0  0.00000000000E+00  0.00000000000E+00  0.14860918619E+03  0.14860918619E+03  0.00000000000E+00 0. -1.
         -1   -1    0    0    0  501 -0.00000000000E+00 -0.00000000000E+00 -0.13831971928E+02  0.13831971928E+02  0.00000000000E+00 0.  1.
         23    2    1    2    0    0  0.00000000000E+00  0.00000000000E+00  0.13477721427E+03  0.16244115812E+03  0.90676525997E+02 0.  0.
        -11    1    3    3    0    0  0.26578970103E+02 -0.22441480853E+02  0.11947893363E+03  0.12443985413E+03  0.00000000000E+00 0. -1.
         11    1    3    3    0    0 -0.26578970103E+02  0.22441480853E+02  0.15298280633E+02  0.38001303990E+02  0.00000000000E+00 0.  1.
<mgrwt>
<rscale>  0 0.90676526E+02</rscale>
<asrwt>0</asrwt>
<pdfrwt beam="1">  1        1 0.22862951E-01 0.90676526E+02</pdfrwt>
<pdfrwt beam="2">  1       -1 0.21279958E-02 0.90676526E+02</pdfrwt>
<totfact> 0.11361427E+05</totfact>
</mgrwt>
</event>
<event>
 5    1  0.1242969E+001  0.9167917E+02  0.7546771E-02  0.1298836E+00
         -2   -1    0    0    0  501 -0.00000000000E+00  0.00000000000E+00  0.54650738745E+02  0.54650738745E+02  0.00000000000E+00 0. -1.
          2   -1    0    0  501    0  0.00000000000E+00 -0.00000000000E+00 -0.38449027957E+02  0.38449027957E+02  0.00000000000E+00 0.  1.
         23    2    1    2    0    0  0.00000000000E+00  0.00000000000E+00  0.16201710788E+02  0.93099766703E+02  0.91679174994E+02 0.  0.
        -13    1    3    3    0    0  0.18634029806E+02 -0.19398756685E+02 -0.29592065148E+02  0.39990363183E+02  0.00000000000E+00 0.  1.
         13    1    3    3    0    0 -0.18634029806E+02  0.19398756685E+02  0.45793775936E+02  0.53109403520E+02  0.00000000000E+00 0. -1.
<mgrwt>
<rscale>  0 0.91679175E+02</rscale>
<asrwt>0</asrwt>
<pdfrwt beam="2">  1        2 0.59152350E-02 0.91679175E+02</pdfrwt>
<pdfrwt beam="1">  1       -2 0.84078060E-02 0.91679175E+02</pdfrwt>
<totfact> 0.92918976E+04</totfact>
</mgrwt>
</event>
<event>
 5    1  0.1242969E+001  0.9590316E+02  0.7546771E-02  0.1289155E+00
         -2   -1    0    0    0  501 -0.00000000000E+00  0.00000000000E+00  0.13126405781E+02  0.13126405781E+02  0.00000000000E+00 0.  1.
          2   -1    0    0  501    0  0.00000000000E+00 -0.00000000000E+00 -0.17517012951E+03  0.17517012951E+03  0.00000000000E+00 0. -1.
         23    2    1    2    0    0  0.00000000000E+00  0.00000000000E+00 -0.16204372373E+03  0.18829653529E+03  0.95903163673E+02 0.  0.
        -13    1    3    3    0    0 -0.41034255394E+02  0.20748262640E+02 -0.54312822967E+02  0.71163075095E+02  0.00000000000E+00 0.  1.
         13    1    3    3    0    0  0.41034255394E+02 -0.20748262640E+02 -0.10773090077E+03  0.11713346020E+03  0.00000000000E+00 0. -1.
<mgrwt>
<rscale>  0 0.95903164E+02</rscale>
<asrwt>0</asrwt>
<pdfrwt beam="2">  1        2 0.26949249E-01 0.95903164E+02</pdfrwt>
<pdfrwt beam="1">  1       -2 0.20194472E-02 0.95903164E+02</pdfrwt>
<totfact> 0.12862499E+05</totfact>
</mgrwt>
</event>
<event>
 5    1  0.1242969E+001  0.8894963E+02  0.7546771E-02  0.1305415E+00
          3   -1    0    0  501    0  0.00000000000E+00  0.00000000000E+00  0.82496834526E+02  0.82496834526E+02  0.00000000000E+00 0. -1.
         -3   -1    0    0    0  501 -0.00000000000E+00 -0.00000000000E+00 -0.23976786641E+02  0.23976786641E+02  0.00000000000E+00 0.  1.
         23    2    1    2    0    0  0.00000000000E+00  0.00000000000E+00  0.58520047885E+02  0.10647362117E+03  0.88949626194E+02 0.  0.
        -11    1    3    3    0    0  0.31935864274E+02  0.13057211311E+02 -0.43335288100E+01  0.34773117003E+02  0.00000000000E+00 0. -1.
         11    1    3    3    0    0 -0.31935864274E+02 -0.13057211311E+02  0.62853576695E+02  0.71700504164E+02  0.00000000000E+00 0.  1.
<mgrwt>
<rscale>  0 0.88949626E+02</rscale>
<asrwt>0</asrwt>
<pdfrwt beam="1">  1        3 0.12691821E-01 0.88949626E+02</pdfrwt>
<pdfrwt beam="2">  1       -3 0.36887365E-02 0.88949626E+02</pdfrwt>
<totfact> 0.36569507E+04</totfact>
</mgrwt>
</event>
<event>
 5    1  0.1242969E+001  0.9071810E+02  0.7546771E-02  0.1301122E+00
          2   -1    0    0  501    0  0.00000000000E+00  0.00000000000E+00  0.16833123950E+03  0.16833123950E+03  0.00000000000E+00 0. -1.
         -2   -1    0    0    0  501 -0.00000000000E+00 -0.00000000000E+00 -0.12222588925E+02  0.12222588925E+02  0.00000000000E+00 0.  1.
         23    2    1    2    0    0  0.00000000000E+00  0.00000000000E+00  0.15610865058E+03  0.18055382843E+03  0.90718102795E+02 0.  0.
        -13    1    3    3    0    0  0.20061313205E+02  0.30681170061E+02  0.24885592631E+02  0.44306694804E+02  0.00000000000E+00 0.  1.
         13    1    3    3    0    0 -0.20061313205E+02 -0.30681170061E+02  0.13122305795E+03  0.13624713363E+03  0.00000000000E+00 0. -1.
<mgrwt>
<rscale>  0 0.90718103E+02</rscale>
<asrwt>0</asrwt>
<pdfrwt beam="1">  1        2 0.25897112E-01 0.90718103E+02</pdfrwt>
<pdfrwt beam="2">  1       -2 0.18803984E-02 0.90718103E+02</pdfrwt>
<totfact> 0.14747335E+05</totfact>
</mgrwt>
</event>
<event>
 5    1  0.1242969E+001  0.8620029E+02  0.7546771E-02  0.1312323E+00
         -4   -1    0    0    0  501 -0.00000000000E+00  0.00000000000E+00  0.11604889892E+03  0.11604889892E+03  0.00000000000E+00 0.  1.
          4   -1    0    0  501    0  0.00000000000E+00 -0.00000000000E+00 -0.16007240086E+02  0.16007240086E+02  0.00000000000E+00 0. -1.
         23    2    1    2    0    0  0.00000000000E+00  0.00000000000E+00  0.10004165884E+03  0.13205613901E+03  0.86200292036E+02 0.  0.
        -13    1    3    3    0    0  0.18454613333E+02 -0.27160216164E+02  0.72524893428E+01  0.33628093865E+02  0.00000000000E+00 0. -1.
         13    1    3    3    0    0 -0.18454613333E+02  0.27160216164E+02  0.92789169496E+02  0.98428045145E+02  0.00000000000E+00 0.  1.
<mgrwt>
<rscale>  0 0.86200292E+02</rscale>
<asrwt>0</asrwt>
<pdfrwt beam="2">  1        4 0.24626524E-02 0.86200292E+02</pdfrwt>
<pdfrwt beam="1">  1       -4 0.17853676E-01 0.86200292E+02</pdfrwt>
<totfact> 0.28603730E+04</totfact>
</mgrwt>
</event>
<event>
 5    1  0.1242969E+001  0.9203660E+02  0.7546771E-02  0.1297993E+00
         -1   -1    0    0    0  501 -0.00000000000E+00  0.00000000000E+00  0.14979571776E+03  0.14979571776E+03  0.00000000000E+00 0.  1.
          1   -1    0    0  501    0  0.00000000000E+00 -0.00000000000E+00 -0.14137146152E+02  0.14137146152E+02  0.00000000000E+00 0. -1.
         23    2    1    2    0    0  0.00000000000E+00  0.00000000000E+00  0.13565857161E+03  0.16393286392E+03  0.92036600435E+02 0.  0.
        -11    1    3    3    0    0  0.33059687933E+02  0.38645027403E+01  0.12443034539E+03  0.12880523360E+03  0.00000000000E+00 0.  1.
         11    1    3    3    0    0 -0.33059687933E+02 -0.38645027403E+01  0.11228226220E+02  0.35127630318E+02  0.00000000000E+00 0. -1.
<mgrwt>
<rscale>  0 0.92036600E+02</rscale>
<asrwt>0</asrwt>
<pdfrwt beam="2">  1        1 0.21749457E-02 0.92036600E+02</pdfrwt>
<pdfrwt beam="1">  1       -1 0.23045494E-01 0.92036600E+02</pdfrwt>
<totfact> 0.73009926E+04</totfact>
</mgrwt>
</event>
<event>
 5    1  0.1242969E+001  0.8706906E+02  0.7546771E-02  0.1310109E+00
         -4   -1    0    0    0  501 -0.00000000000E+00  0.00000000000E+00  0.31946115858E+02  0.31946115858E+02  0.00000000000E+00 0.  1.
          4   -1    0    0  501    0  0.00000000000E+00 -0.00000000000E+00 -0.59326625065E+02  0.59326625065E+02  0.00000000000E+00 0. -1.
         23    2    1    2    0    0  0.00000000000E+00  0.00000000000E+00 -0.27380509207E+02  0.91272740924E+02  0.87069058518E+02 0.  0.
        -11    1    3    3    0    0 -0.40151931220E+02  0.93373355057E+01  0.98161294925E+00  0.41235021269E+02  0.00000000000E+00 0.  1.
         11    1    3    3    0    0  0.40151931220E+02 -0.93373355057E+01 -0.28362122157E+02  0.50037719655E+02  0.00000000000E+00 0. -1.
<mgrwt>
<rscale>  0 0.87069059E+02</rscale>
<asrwt>0</asrwt>
<pdfrwt beam="2">  1        4 0.91271730E-02 0.87069059E+02</pdfrwt>
<pdfrwt beam="1">  1       -4 0.49147871E-02 0.87069059E+02</pdfrwt>
<totfact> 0.30591688E+04</totfact>
</mgrwt>
</event>
<event>
 5    1  0.1242969E+001  0.8962177E+02  0.7546771E-02  0.1303770E+00
          1   -1    0    0  501    0  0.00000000000E+00  0.00000000000E+00  0.70120150911E+02  0.70120150911E+02  0.00000000000E+00 0. -1.
         -1   -1    0    0    0  501 -0.00000000000E+00 -0.00000000000E+00 -0.28636780480E+02  0.28636780480E+02  0.00000000000E+00 0.  1.
         23    2    1    2    0    0  0.00000000000E+00  0.00000000000E+00  0.41483370432E+02  0.98756931391E+02  0.89621768982E+02 0.  0.
        -13    1    3    3    0    0 -0.38392485571E+02  0.88968842114E+01  0.44243504382E+02  0.59250528917E+02  0.00000000000E+00 0. -1.
         13    1    3    3    0    0  0.38392485571E+02 -0.88968842114E+01 -0.27601339504E+01  0.39506402474E+02  0.00000000000E+00 0.  1.
<mgrwt>
<rscale>  0 0.89621769E+02</rscale>
<asrwt>0</asrwt>
<pdfrwt beam="1">  1        1 0.10787715E-01 0.89621769E+02</pdfrwt>
<pdfrwt beam="2">  1       -1 0.44056586E-02 0.89621769E+02</pdfrwt>
<totfact> 0.10347794E+05</totfact>
</mgrwt>
</event>
<event>
 5    1  0.1242969E+001  0.8930058E+02  0.7546771E-02  0.1304554E+00
         -1   -1    0    0    0  501 -0.00000000000E+00  0.00000000000E+00  0.78310311866E+01  0.78310311866E+01  0.00000000000E+00 0.  1.
          1   -1    0    0  501    0  0.00000000000E+00 -0.00000000000E+00 -0.25458309868E+03  0.25458309868E+03  0.00000000000E+00 0. -1.
         23    2    1    2    0    0  0.00000000000E+00  0.00000000000E+00 -0.24675206750E+03  0.26241412987E+03  0.89300575259E+02 0.  0.
        -11    1    3    3    0    0 -0.43530569925E+02 -0.95821548920E+01 -0.11564593176E+03  0.12393833040E+03  0.00000000000E+00 0.  1.
         11    1    3    3    0    0  0.43530569925E+02  0.95821548920E+01 -0.13110613574E+03  0.13847579947E+03  0.00000000000E+00 0. -1.
<mgrwt>
<rscale>  0 0.89300575E+02</rscale>
<asrwt>0</asrwt>
<pdfrwt beam="2">  1        1 0.39166627E-01 0.89300575E+02</pdfrwt>
<pdfrwt beam="1">  1       -1 0.12047742E-02 0.89300575E+02</pdfrwt>
<totfact> 0.13118280E+05</totfact>
</mgrwt>
</event>
<event>
 5    1  0.1242969E+001  0.8972245E+02  0.7546771E-02  0.1303525E+00
          2   -1    0    0  501    0  0.00000000000E+00  0.00000000000E+00  0.50932368872E+02  0.50932368872E+02  0.00000000000E+00 0. -1.
         -2   -1    0    0    0  501 -0.00000000000E+00 -0.00000000000E+00 -0.39513763104E+02  0.39513763104E+02  0.00000000000E+00 0.  1.
         23    2    1    2    0    0  0.00000000000E+00  0.00000000000E+00  0.11418605768E+02  0.90446131976E+02  0.89722451102E+02 0.  0.
        -11    1    3    3    0    0 -0.31940910177E+02  0.29752425589E+02 -0.47231301293E+01  0.43905996511E+02  0.00000000000E+00 0.  1.
         11    1    3    3    0    0  0.31940910177E+02 -0.29752425589E+02  0.16141735897E+02  0.46540135466E+02  0.00000000000E+00 0. -1.
<mgrwt>
<rscale>  0 0.89722451E+02</rscale>
<asrwt>0</asrwt>
<pdfrwt beam="1">  1        2 0.78357491E-02 0.89722451E+02</pdfrwt>
<pdfrwt beam="2">  1       -2 0.60790405E-02 0.89722451E+02</pdfrwt>
<totfact> 0.10631648E+05</totfact>
</mgrwt>
</event>
<event>
 5    1  0.1242969E+001  0.9131495E+02  0.7546771E-02  0.1299698E+00
         -2   -1    0    0    0  501 -0.00000000000E+00  0.00000000000E+00  0.63279864425E+01  0.63279864425E+01  0.00000000000E+00 0.  1.
          2   -1    0    0  501    0  0.00000000000E+00 -0.00000000000E+00 -0.32942627482E+03  0.32942627482E+03  0.00000000000E+00 0. -1.
         23    2    1    2    0    0  0.00000000000E+00  0.00000000000E+00 -0.32309828838E+03  0.33575426126E+03  0.91314949507E+02 0.  0.
        -13    1    3    3    0    0  0.23162014758E+02 -0.33984915952E+02 -0.23445453664E+03  0.23803441598E+03  0.00000000000E+00 0. -1.
         13    1    3    3    0    0 -0.23162014758E+02  0.33984915952E+02 -0.88643751741E+02  0.97719845286E+02  0.00000000000E+00 0.  1.
<mgrwt>
<rscale>  0 0.91314950E+02</rscale>
<asrwt>0</asrwt>
<pdfrwt beam="2">  1        2 0.50680974E-01 0.91314950E+02</pdfrwt>
<pdfrwt beam="1">  1       -2 0.97353620E-03 0.91314950E+02</pdfrwt>
<totfact> 0.18525804E+05</totfact>
</mgrwt>
</event>
<event>
 5    1  0.1242969E+001  0.9511227E+02  0.7546771E-02  0.1290923E+00
         -1   -1    0    0    0  501 -0.00000000000E+00  0.00000000000E+00  0.75307891827E+01  0.75307891827E+01  0.00000000000E+00 0.  1.
          1   -1    0    0  501    0  0.00000000000E+00 -0.00000000000E+00 -0.30031196735E+03  0.30031196735E+03  0.00000000000E+00 0. -1.
         23    2    1    2    0    0  0.00000000000E+00  0.00000000000E+00 -0.29278117817E+03  0.30784275653E+03  0.95112272924E+02 0.  0.
        -13    1    3    3    0    0 -0.35655752470E+01  0.45587621150E+02 -0.18867057351E+03  0.19413276343E+03  0.00000000000E+00 0. -1.
         13    1    3    3    0    0  0.35655752470E+01 -0.45587621150E+02 -0.10411060466E+03  0.11370999310E+03  0.00000000000E+00 0.  1.
<mgrwt>
<rscale>  0 0.95112273E+02</rscale>
<asrwt>0</asrwt>
<pdfrwt beam="2">  1        1 0.46201833E-01 0.95112273E+02</pdfrwt>
<pdfrwt beam="1">  1       -1 0.11585832E-02 0.95112273E+02</pdfrwt>
<totfact> 0.11446602E+05</totfact>
</mgrwt>
</event>
<event>
 5    1  0.1242969E+001  0.9196089E+02  0.7546771E-02  0.1298171E+00
         -2   -1    0    0    0  501 -0.00000000000E+00  0.00000000000E+00  0.42656043554E+02  0.42656043554E+02  0.00000000000E+00 0.  1.
          2   -1    0    0  501    0  0.00000000000E+00 -0.00000000000E+00 -0.49563937461E+02  0.49563937461E+02  0.00000000000E+00 0. -1.
         23    2    1    2    0    0  0.00000000000E+00  0.00000000000E+00 -0.69078939070E+01  0.92219981015E+02  0.91960893320E+02 0.  0.
        -11    1    3    3    0    0  0.15918735225E+02  0.42968450398E+02  0.36567030584E+00  0.45823875606E+02  0.00000000000E+00 0.  1.
         11    1    3    3    0    0 -0.15918735225E+02 -0.42968450398E+02 -0.72735642128E+01  0.46396105409E+02  0.00000000000E+00 0. -1.
<mgrwt>
<rscale>  0 0.91960893E+02</rscale>
<asrwt>0</asrwt>
<pdfrwt beam="2">  1        2 0.76252211E-02 0.91960893E+02</pdfrwt>
<pdfrwt beam="1">  1       -2 0.65624683E-02 0.91960893E+02</pdfrwt>
<totfact> 0.98407175E+04</totfact>
</mgrwt>
</event>
<event>
 5    1  0.1242969E+001  0.9104327E+02  0.7546771E-02  0.1300345E+00
         -1   -1    0    0    0  501 -0.00000000000E+00  0.00000000000E+00  0.18450271842E+02  0.18450271842E+02  0.00000000000E+00 0.  1.
          1   -1    0    0  501    0  0.00000000000E+00 -0.00000000000E+00 -0.11231376099E+03  0.11231376099E+03  0.00000000000E+00 0. -1.
         23    2    1    2    0    0  0.00000000000E+00  0.00000000000E+00 -0.93863489153E+02  0.13076403284E+03  0.91043273709E+02 0.  0.
        -11    1    3    3    0    0  0.17811116023E+02 -0.17526327206E+02  0.77190448619E+01  0.26153234081E+02  0.00000000000E+00 0.  1.
         11    1    3    3    0    0 -0.17811116023E+02  0.17526327206E+02 -0.10158253402E+03  0.10461079876E+03  0.00000000000E+00 0. -1.
<mgrwt>
<rscale>  0 0.91043274E+02</rscale>
<asrwt>0</asrwt>
<pdfrwt beam="2">  1        1 0.17279040E-01 0.91043274E+02</pdfrwt>
<pdfrwt beam="1">  1       -1 0.28385034E-02 0.91043274E+02</pdfrwt>
<totfact> 0.10694241E+05</totfact>
</mgrwt>
</event>
<event>
 5    1  0.1242969E+001  0.9231160E+02  0.7546771E-02  0.1297348E+00
          2   -1    0    0  501    0  0.00000000000E+00  0.00000000000E+00  0.12667165342E+02  0.12667165342E+02  0.00000000000E+00 0. -1.
         -2   -1    0    0    0  501 -0.00000000000E+00 -0.00000000000E+00 -0.16817952623E+03  0.16817952623E+03  0.00000000000E+00 0.  1.
         23    2    1    2    0    0  0.00000000000E+00  0.00000000000E+00 -0.15551236088E+03  0.18084669157E+03  0.92311599833E+02 0.  0.
        -13    1    3    3    0    0  0.31933760706E+01  0.44220908221E+02 -0.52616283110E+02  0.68805229619E+02  0.00000000000E+00 0. -1.
         13    1    3    3    0    0 -0.31933760706E+01 -0.44220908221E+02 -0.10289607777E+03  0.11204146195E+03  0.00000000000E+00 0.  1.
<mgrwt>
<rscale>  0 0.92311600E+02</rscale>
<asrwt>0</asrwt>
<pdfrwt beam="1">  1        2 0.19487948E-02 0.92311600E+02</pdfrwt>
<pdfrwt beam="2">  1       -2 0.25873771E-01 0.92311600E+02</pdfrwt>
<totfact> 0.64841671E+04</totfact>
</mgrwt>
</event>
<event>
 5    1  0.1242969E+001  0.9124009E+02  0.7546771E-02  0.1299876E+00
         -2   -1    0    0    0  501 -0.00000000000E+00  0.00000000000E+00  0.76969362248E+02  0.76969362248E+02  0.00000000000E+00 0.  1.
          2   -1    0    0  501    0  0.00000000000E+00 -0.00000000000E+00 -0.27039178664E+02  0.27039178664E+02  0.00000000000E+00 0. -1.
         23    2    1    2    0    0  0.00000000000E+00  0.00000000000E+00  0.49930183585E+02  0.10400854091E+03  0.91240086310E+02 0.  0.
        -13    1    3    3    0    0  0.21293429173E+02  0.36862681492E+02  0.43658806672E+02  0.60978347082E+02  0.00000000000E+00 0.  1.
         13    1    3    3    0    0 -0.21293429173E+02 -0.36862681492E+02  0.62713769123E+01  0.43030193831E+02  0.00000000000E+00 0. -1.
<mgrwt>
<rscale>  0 0.91240086E+02</rscale>
<asrwt>0</asrwt>
<pdfrwt beam="2">  1        2 0.41598737E-02 0.91240086E+02</pdfrwt>
<pdfrwt beam="1">  1       -2 0.11841440E-01 0.91240086E+02</pdfrwt>
<totfact> 0.85840170E+04</totfact>
</mgrwt>
</event>
<event>
 5    1  0.1242969E+001  0.7353009E+02  0.7546771E-02  0.1348484E+00
         -1   -1    0    0    0  501 -0.00000000000E+00  0.00000000000E+00  0.22294770528E+03  0.22294770528E+03  0.00000000000E+00 0.  1.
          1   -1    0    0  501    0  0.00000000000E+00 -0.00000000000E+00 -0.60627160735E+01  0.60627160735E+01  0.00000000000E+00 0. -1.
         23    2    1    2    0    0  0.00000000000E+00  0.00000000000E+00  0.21688498920E+03  0.22901042135E+03  0.73530092788E+02 0.  0.
        -13    1    3    3    0    0  0.13022117792E+02 -0.33990408699E+02  0.92335553708E+02  0.99251085202E+02  0.00000000000E+00 0.  1.
         13    1    3    3    0    0 -0.13022117792E+02  0.33990408699E+02  0.12454943550E+03  0.12975933615E+03  0.00000000000E+00 0. -1.
<mgrwt>
<rscale>  0 0.73530093E+02</rscale>
<asrwt>0</asrwt>
<pdfrwt beam="2">  1        1 0.93272572E-03 0.73530093E+02</pdfrwt>
<pdfrwt beam="1">  1       -1 0.34299641E-01 0.73530093E+02</pdfrwt>
<totfact> 0.11730299E+05</totfact>
</mgrwt>
</event>
<event>
 5    1  0.1242969E+001  0.9345191E+02  0.7546771E-02  0.1294701E+00
         -1   -1    0    0    0  501 -0.00000000000E+00  0.00000000000E+00  0.95452319854E+01  0.95452319854E+01  0.00000000000E+00 0.  1.
          1   -1    0    0  501    0  0.00000000000E+00 -0.00000000000E+00 -0.22873354025E+03  0.22873354025E+03  0.00000000000E+00 0. -1.
         23    2    1    2    0    0  0.00000000000E+00  0.00000000000E+00 -0.21918830826E+03  0.23827877223E+03  0.93451906444E+02 0.  0.
        -11    1    3    3    0    0 -0.32592868274E+02 -0.30978027205E+02 -0.77203178810E+02  0.89343517114E+02  0.00000000000E+00 0. -1.
         11    1    3    3    0    0  0.32592868274E+02  0.30978027205E+02 -0.14198512945E+03  0.14893525512E+03  0.00000000000E+00 0.  1.
<mgrwt>
<rscale>  0 0.93451906E+02</rscale>
<asrwt>0</asrwt>
<pdfrwt beam="2">  1        1 0.35189772E-01 0.93451906E+02</pdfrwt>
<pdfrwt beam="1">  1       -1 0.14684974E-02 0.93451906E+02</pdfrwt>
<totfact> 0.11377220E+05</totfact>
</mgrwt>
</event>
<event>
 5    1  0.1242969E+001  0.8984784E+02  0.7546771E-02  0.1303221E+00
         -3   -1    0    0    0  501 -0.00000000000E+00  0.00000000000E+00  0.67448712106E+02  0.67448712106E+02  0.00000000000E+00 0.  1.
          3   -1    0    0  501    0  0.00000000000E+00 -0.00000000000E+00 -0.29921382034E+02  0.29921382034E+02  0.00000000000E+00 0. -1.
         23    2    1    2    0    0  0.00000000000E+00  0.00000000000E+00  0.37527330072E+02  0.97370094140E+02  0.89847842102E+02 0.  0.
        -13    1    3    3    0    0 -0.13632776458E+02 -0.19679538430E+02 -0.22432344194E+02  0.32807726115E+02  0.00000000000E+00 0. -1.
         13    1    3    3    0    0  0.13632776458E+02  0.19679538430E+02  0.59959674267E+02  0.64562368025E+02  0.00000000000E+00 0.  1.
<mgrwt>
<rscale>  0 0.89847842E+02</rscale>
<asrwt>0</asrwt>
<pdfrwt beam="2">  1        3 0.46032896E-02 0.89847842E+02</pdfrwt>
<pdfrwt beam="1">  1       -3 0.10376725E-01 0.89847842E+02</pdfrwt>
<totfact> 0.36287357E+04</totfact>
</mgrwt>
</event>
<event>
 5    1  0.1242969E+001  0.9095771E+02  0.7546771E-02  0.1300549E+00
          4   -1    0    0  501    0  0.00000000000E+00  0.00000000000E+00  0.44003228416E+02  0.44003228416E+02  0.00000000000E+00 0. -1.
         -4   -1    0    0    0  501 -0.00000000000E+00 -0.00000000000E+00 -0.47003965635E+02  0.47003965635E+02  0.00000000000E+00 0.  1.
         23    2    1    2    0    0  0.00000000000E+00  0.00000000000E+00 -0.30007372191E+01  0.91007194051E+02  0.90957709652E+02 0.  0.
        -11    1    3    3    0    0 -0.95020643146E+01 -0.44032530599E+02  0.47618908988E+01  0.45297114501E+02  0.00000000000E+00 0.  1.
         11    1    3    3    0    0  0.95020643146E+01  0.44032530599E+02 -0.77626281180E+01  0.45710079550E+02  0.00000000000E+00 0. -1.
<mgrwt>
<rscale>  0 0.90957710E+02</rscale>
<asrwt>0</asrwt>
<pdfrwt beam="1">  1        4 0.67697275E-02 0.90957710E+02</pdfrwt>
<pdfrwt beam="2">  1       -4 0.72313793E-02 0.90957710E+02</pdfrwt>
<totfact> 0.27204384E+04</totfact>
</mgrwt>
</event>
<event>
 5    1  0.1242969E+001  0.1047123E+03  0.7546771E-02  0.1270688E+00
         -2   -1    0    0    0  501 -0.00000000000E+00  0.00000000000E+00  0.17005634979E+03  0.17005634979E+03  0.00000000000E+00 0.  1.
          2   -1    0    0  501    0  0.00000000000E+00 -0.00000000000E+00 -0.16119150112E+02  0.16119150112E+02  0.00000000000E+00 0. -1.
         23    2    1    2    0    0  0.00000000000E+00  0.00000000000E+00  0.15393719967E+03  0.18617549990E+03  0.10471225009E+03 0.  0.
        -11    1    3    3    0    0 -0.32297512535E+02 -0.39620707506E+02  0.97102444651E+02  0.10973520190E+03  0.00000000000E+00 0. -1.
         11    1    3    3    0    0  0.32297512535E+02  0.39620707506E+02  0.56834755022E+02  0.76440297996E+02  0.00000000000E+00 0.  1.
<mgrwt>
<rscale>  0 0.10471225E+03</rscale>
<asrwt>0</asrwt>
<pdfrwt beam="2">  1        2 0.24798694E-02 0.10471225E+03</pdfrwt>
<pdfrwt beam="1">  1       -2 0.26162514E-01 0.10471225E+03</pdfrwt>
<totfact> 0.46842078E+04</totfact>
</mgrwt>
</event>
<event>
 5    1  0.1242969E+001  0.9309717E+02  0.7546771E-02  0.1295520E+00
         -1   -1    0    0    0  501 -0.00000000000E+00  0.00000000000E+00  0.11481575142E+02  0.11481575142E+02  0.00000000000E+00 0.  1.
          1   -1    0    0  501    0  0.00000000000E+00 -0.00000000000E+00 -0.18871719027E+03  0.18871719027E+03  0.00000000000E+00 0. -1.
         23    2    1    2    0    0  0.00000000000E+00  0.00000000000E+00 -0.17723561513E+03  0.20019876541E+03  0.93097166456E+02 0.  0.
        -13    1    3    3    0    0 -0.36646330181E+02  0.16642268575E+02 -0.38330332853E+02  0.55579969734E+02  0.00000000000E+00 0. -1.
         13    1    3    3    0    0  0.36646330181E+02 -0.16642268575E+02 -0.13890528227E+03  0.14461879567E+03  0.00000000000E+00 0.  1.
<mgrwt>
<rscale>  0 0.93097166E+02</rscale>
<asrwt>0</asrwt>
<pdfrwt beam="2">  1        1 0.29033413E-01 0.93097166E+02</pdfrwt>
<pdfrwt beam="1">  1       -1 0.17663963E-02 0.93097166E+02</pdfrwt>
<totfact> 0.11070059E+05</totfact>
</mgrwt>
</event>
<event>
 5    1  0.1242969E+001  0.8615027E+02  0.7546771E-02  0.1312452E+00
          1   -1    0    0  501    0  0.00000000000E+00  0.00000000000E+00  0.28392357311E+02  0.28392357311E+02  0.00000000000E+00 0. -1.
         -1   -1    0    0    0  501 -0.00000000000E+00 -0.00000000000E+00 -0.65350940508E+02  0.65350940508E+02  0.00000000000E+00 0.  1.
         23    2    1    2    0    0  0.00000000000E+00  0.00000000000E+00 -0.36958583197E+02  0.93743297818E+02  0.86150269959E+02 0.  0.
        -13    1    3    3    0    0  0.37314666371E+02 -0.20946133055E+02 -0.23847948048E+02  0.48988258210E+02  0.00000000000E+00 0. -1.
         13    1    3    3    0    0 -0.37314666371E+02  0.20946133055E+02 -0.13110635149E+02  0.44755039608E+02  0.00000000000E+00 0.  1.
<mgrwt>
<rscale>  0 0.86150270E+02</rscale>
<asrwt>0</asrwt>
<pdfrwt beam="1">  1        1 0.43680550E-02 0.86150270E+02</pdfrwt>
<pdfrwt beam="2">  1       -1 0.10053991E-01 0.86150270E+02</pdfrwt>
<totfact> 0.10105463E+05</totfact>
</mgrwt>
</event>
<event>
 5    1  0.1242969E+001  0.1018699E+03  0.7546771E-02  0.1276412E+00
         -1   -1    0    0    0  501 -0.00000000000E+00  0.00000000000E+00  0.10249238922E+02  0.10249238922E+02  0.00000000000E+00 0.  1.
          1   -1    0    0  501    0  0.00000000000E+00 -0.00000000000E+00 -0.25312821606E+03  0.25312821606E+03  0.00000000000E+00 0. -1.
         23    2    1    2    0    0  0.00000000000E+00  0.00000000000E+00 -0.24287897714E+03  0.26337745498E+03  0.10186994776E+03 0.  0.
        -13    1    3    3    0    0 -0.43446112384E+02  0.26148051356E+02 -0.13386200606E+03  0.14314440938E+03  0.00000000000E+00 0.  1.
         13    1    3    3    0    0  0.43446112384E+02 -0.26148051356E+02 -0.10901697108E+03  0.12023304560E+03  0.00000000000E+00 0. -1.
<mgrwt>
<rscale>  0 0.10186995E+03</rscale>
<asrwt>0</asrwt>
<pdfrwt beam="2">  1        1 0.38942804E-01 0.10186995E+03</pdfrwt>
<pdfrwt beam="1">  1       -1 0.15768059E-02 0.10186995E+03</pdfrwt>
<totfact> 0.92013523E+04</totfact>
</mgrwt>
</event>
<event>
 5    1  0.1242969E+001  0.8968713E+02  0.7546771E-02  0.1303611E+00
          1   -1    0    0  501    0  0.00000000000E+00  0.00000000000E+00  0.35832507839E+03  0.35832507839E+03  0.00000000000E+00 0. -1.
         -1   -1    0    0    0  501 -0.00000000000E+00 -0.00000000000E+00 -0.56120701194E+01  0.56120701194E+01  0.00000000000E+00 0.  1.
         23    2    1    2    0    0  0.00000000000E+00  0.00000000000E+00  0.35271300827E+03  0.36393714851E+03  0.89687133201E+02 0.  0.
        -11    1    3    3    0    0  0.39591669188E+02  0.20161163113E+02  0.15168265987E+03  0.15805569294E+03  0.00000000000E+00 0.  1.
         11    1    3    3    0    0 -0.39591669188E+02 -0.20161163113E+02  0.20103034840E+03  0.20588145556E+03  0.00000000000E+00 0. -1.
<mgrwt>
<rscale>  0 0.89687133E+02</rscale>
<asrwt>0</asrwt>
<pdfrwt beam="1">  1        1 0.55126917E-01 0.89687133E+02</pdfrwt>
<pdfrwt beam="2">  1       -1 0.86339568E-03 0.89687133E+02</pdfrwt>
<totfact> 0.13830195E+05</totfact>
</mgrwt>
</event>
<event>
 5    1  0.1242969E+001  0.9492495E+02  0.7546771E-02  0.1291345E+00
          2   -1    0    0  501    0  0.00000000000E+00  0.00000000000E+00  0.29671438927E+03  0.29671438927E+03  0.00000000000E+00 0. -1.
         -2   -1    0    0    0  501 -0.00000000000E+00 -0.00000000000E+00 -0.75921048774E+01  0.75921048774E+01  0.00000000000E+00 0.  1.
         23    2    1    2    0    0  0.00000000000E+00  0.00000000000E+00  0.28912228440E+03  0.30430649415E+03  0.94924954822E+02 0.  0.
        -13    1    3    3    0    0 -0.44448268794E+02 -0.11186173705E+00  0.91204214736E+02  0.10145871031E+03  0.00000000000E+00 0.  1.
         13    1    3    3    0    0  0.44448268794E+02  0.11186173705E+00  0.19791806966E+03  0.20284778384E+03  0.00000000000E+00 0. -1.
<mgrwt>
<rscale>  0 0.94924955E+02</rscale>
<asrwt>0</asrwt>
<pdfrwt beam="1">  1        2 0.45648359E-01 0.94924955E+02</pdfrwt>
<pdfrwt beam="2">  1       -2 0.11680164E-02 0.94924955E+02</pdfrwt>
<totfact> 0.16063748E+05</totfact>
</mgrwt>
</event>
<event>
 5    1  0.1242969E+001  0.8944059E+02  0.7546771E-02  0.1304212E+00
          2   -1    0    0  501    0  0.00000000000E+00  0.00000000000E+00  0.13537865318E+02  0.13537865318E+02  0.00000000000E+00 0. -1.
         -2   -1    0    0    0  501 -0.00000000000E+00 -0.00000000000E+00 -0.14772675399E+03  0.14772675399E+03  0.00000000000E+00 0.  1.
         23    2    1    2    0    0  0.00000000000E+00  0.00000000000E+00 -0.13418888867E+03  0.16126461930E+03  0.89440592559E+02 0.  0.
        -13    1    3    3    0    0  0.25715656419E+02  0.23263679530E+02 -0.16179464731E+02  0.38265766024E+02  0.00000000000E+00 0. -1.
         13    1    3    3    0    0 -0.25715656419E+02 -0.23263679530E+02 -0.11800942394E+03  0.12299885328E+03  0.00000000000E+00 0.  1.
<mgrwt>
<rscale>  0 0.89440593E+02</rscale>
<asrwt>0</asrwt>
<pdfrwt beam="1">  1        2 0.20827485E-02 0.89440593E+02</pdfrwt>
<pdfrwt beam="2">  1       -2 0.22727193E-01 0.89440593E+02</pdfrwt>
<totfact> 0.73742845E+04</totfact>
</mgrwt>
</event>
<event>
 5    1  0.1242969E+001  0.8883928E+02  0.7546771E-02  0.1305687E+00
         -1   -1    0    0    0  501 -0.00000000000E+00  0.00000000000E+00  0.19263789737E+03  0.19263789737E+03  0.00000000000E+00 0.  1.
          1   -1    0    0  501    0  0.00000000000E+00 -0.00000000000E+00 -0.10242556272E+02  0.10242556272E+02  0.00000000000E+00 0. -1.
         23    2    1    2    0    0  0.00000000000E+00  0.00000000000E+00  0.18239534109E+03  0.20288045364E+03  0.88839281941E+02 0.  0.
        -11    1    3    3    0    0  0.66346056739E+01 -0.32649646200E+02  0.15828839540E+03  0.16175671086E+03  0.00000000000E+00 0.  1.
         11    1    3    3    0    0 -0.66346056739E+01  0.32649646200E+02  0.24106945689E+02  0.41123742776E+02  0.00000000000E+00 0. -1.
<mgrwt>
<rscale>  0 0.88839282E+02</rscale>
<asrwt>0</asrwt>
<pdfrwt beam="2">  1        1 0.15757780E-02 0.88839282E+02</pdfrwt>
<pdfrwt beam="1">  1       -1 0.29636597E-01 0.88839282E+02</pdfrwt>
<totfact> 0.75065756E+04</totfact>
</mgrwt>
</event>
<event>
 5    1  0.1242969E+001  0.9113855E+02  0.7546771E-02  0.1300118E+00
          1   -1    0    0  501    0  0.00000000000E+00  0.00000000000E+00  0.43009204179E+02  0.43009204179E+02  0.00000000000E+00 0. -1.
         -1   -1    0    0    0  501 -0.00000000000E+00 -0.00000000000E+00 -0.48281733127E+02  0.48281733127E+02  0.00000000000E+00 0.  1.
         23    2    1    2    0    0  0.00000000000E+00  0.00000000000E+00 -0.52725289478E+01  0.91290937306E+02  0.91138552066E+02 0.  0.
        -13    1    3    3    0    0 -0.16042517554E+02 -0.24765459046E+02 -0.37419944907E+02  0.47654408066E+02  0.00000000000E+00 0.  1.
         13    1    3    3    0    0  0.16042517554E+02  0.24765459046E+02  0.32147415960E+02  0.43636529240E+02  0.00000000000E+00 0. -1.
<mgrwt>
<rscale>  0 0.91138552E+02</rscale>
<asrwt>0</asrwt>
<pdfrwt beam="1">  1        1 0.66168007E-02 0.91138552E+02</pdfrwt>
<pdfrwt beam="2">  1       -1 0.74279589E-02 0.91138552E+02</pdfrwt>
<totfact> 0.91773302E+04</totfact>
</mgrwt>
</event>
<event>
 5    1  0.1242969E+001  0.9186622E+02  0.7546771E-02  0.1298394E+00
         -1   -1    0    0    0  501 -0.00000000000E+00  0.00000000000E+00  0.16790678696E+03  0.16790678696E+03  0.00000000000E+00 0.  1.
          1   -1    0    0  501    0  0.00000000000E+00 -0.00000000000E+00 -0.12565606389E+02  0.12565606389E+02  0.00000000000E+00 0. -1.
         23    2    1    2    0    0  0.00000000000E+00  0.00000000000E+00  0.15534118057E+03  0.18047239335E+03  0.91866220016E+02 0.  0.
        -13    1    3    3    0    0 -0.42765729896E+02  0.28557079366E+01  0.11011706075E+03  0.11816441846E+03  0.00000000000E+00 0.  1.
         13    1    3    3    0    0  0.42765729896E+02 -0.28557079366E+01  0.45224119817E+02  0.62307974887E+02  0.00000000000E+00 0. -1.
<mgrwt>
<rscale>  0 0.91866220E+02</rscale>
<asrwt>0</asrwt>
<pdfrwt beam="2">  1        1 0.19331703E-02 0.91866220E+02</pdfrwt>
<pdfrwt beam="1">  1       -1 0.25831812E-01 0.91866220E+02</pdfrwt>
<totfact> 0.71353934E+04</totfact>
</mgrwt>
</event>
<event>
 5    1  0.1242969E+001  0.9209453E+02  0.7546771E-02  0.1297857E+00
          1   -1    0    0  501    0  0.00000000000E+00  0.00000000000E+00  0.25521666278E+03  0.25521666278E+03  0.00000000000E+00 0. -1.
         -1   -1    0    0    0  501 -0.00000000000E+00 -0.00000000000E+00 -0.83080419805E+01  0.83080419805E+01  0.00000000000E+00 0.  1.
         23    2    1    2    0    0  0.00000000000E+00  0.00000000000E+00  0.24690862080E+03  0.26352470476E+03  0.92094532922E+02 0.  0.
        -13    1    3    3    0    0 -0.22497017207E+02 -0.40144171623E+02  0.11876950732E+03  0.12737294127E+03  0.00000000000E+00 0.  1.
         13    1    3    3    0    0  0.22497017207E+02  0.40144171623E+02  0.12813911348E+03  0.13615176349E+03  0.00000000000E+00 0. -1.
<mgrwt>
<rscale>  0 0.92094533E+02</rscale>
<asrwt>0</asrwt>
<pdfrwt beam="1">  1        1 0.39264096E-01 0.92094533E+02</pdfrwt>
<pdfrwt beam="2">  1       -1 0.12781605E-02 0.92094533E+02</pdfrwt>
<totfact> 0.12088709E+05</totfact>
</mgrwt>
</event>
<event>
 5    1  0.1242969E+001  0.8990103E+02  0.7546771E-02  0.1303092E+00
         -2   -1    0    0    0  501 -0.00000000000E+00  0.00000000000E+00  0.33263626634E+02  0.33263626634E+02  0.00000000000E+00 0.  1.
          2   -1    0    0  501    0  0.00000000000E+00 -0.00000000000E+00 -0.60743486495E+02  0.60743486495E+02  0.00000000000E+00 0. -1.
         23    2    1    2    0    0  0.00000000000E+00  0.00000000000E+00 -0.27479859861E+02  0.94007113130E+02  0.89901026807E+02 0.  0.
        -11    1    3    3    0    0 -0.76100467992E+01 -0.31217766083E+02  0.19129611107E+02  0.37395237031E+02  0.00000000000E+00 0.  1.
         11    1    3    3    0    0  0.76100467992E+01  0.31217766083E+02 -0.46609470968E+02  0.56611876099E+02  0.00000000000E+00 0. -1.
<mgrwt>
<rscale>  0 0.89901027E+02</rscale>
<asrwt>0</asrwt>
<pdfrwt beam="2">  1        2 0.93451516E-02 0.89901027E+02</pdfrwt>
<pdfrwt beam="1">  1       -2 0.51174811E-02 0.89901027E+02</pdfrwt>
<totfact> 0.11072405E+05</totfact>
</mgrwt>
</event>
<event>
 5    1  0.1242969E+001  0.8980638E+02  0.7546771E-02  0.1303321E+00
          1   -1    0    0  501    0  0.00000000000E+00  0.00000000000E+00  0.17063967239E+03  0.17063967239E+03  0.00000000000E+00 0. -1.
         -1   -1    0    0    0  501 -0.00000000000E+00 -0.00000000000E+00 -0.11816105756E+02  0.11816105756E+02  0.00000000000E+00 0.  1.
         23    2    1    2    0    0  0.00000000000E+00  0.00000000000E+00  0.15882356663E+03  0.18245577814E+03  0.89806378730E+02 0.  0.
        -11    1    3    3    0    0  0.17580834327E+02 -0.39199740976E+02  0.10594735678E+03  0.11432649665E+03  0.00000000000E+00 0. -1.
         11    1    3    3    0    0 -0.17580834327E+02  0.39199740976E+02  0.52876209852E+02  0.68129281492E+02  0.00000000000E+00 0.  1.
<mgrwt>
<rscale>  0 0.89806379E+02</rscale>
<asrwt>0</asrwt>
<pdfrwt beam="1">  1        1 0.26252256E-01 0.89806379E+02</pdfrwt>
<pdfrwt beam="2">  1       -1 0.18178625E-02 0.89806379E+02</pdfrwt>
<totfact> 0.11962526E+05</totfact>
</mgrwt>
</event>
<event>
 5    1  0.1242969E+001  0.9023803E+02  0.7546771E-02  0.1302276E+00
         -1   -1    0    0    0  501 -0.00000000000E+00  0.00000000000E+00  0.93810979756E+01  0.93810979756E+01  0.00000000000E+00 0. -1.
          1   -1    0    0  501    0  0.00000000000E+00 -0.00000000000E+00 -0.21700289147E+03  0.21700289147E+03  0.00000000000E+00 0.  1.
         23    2    1    2    0    0  0.00000000000E+00  0.00000000000E+00 -0.20762179349E+03  0.22638398945E+03  0.90238027147E+02 0.  0.
        -11    1    3    3    0    0  0.31337796163E+02 -0.84919855890E+00 -0.22404350944E+02  0.38532240368E+02  0.00000000000E+00 0. -1.
         11    1    3    3    0    0 -0.31337796163E+02  0.84919855890E+00 -0.18521744255E+03  0.18785174908E+03  0.00000000000E+00 0.  1.
<mgrwt>
<rscale>  0 0.90238027E+02</rscale>
<asrwt>0</asrwt>
<pdfrwt beam="2">  1        1 0.33385056E-01 0.90238027E+02</pdfrwt>
<pdfrwt beam="1">  1       -1 0.14432460E-02 0.90238027E+02</pdfrwt>
<totfact> 0.12367816E+05</totfact>
</mgrwt>
</event>
<event>
 5    1  0.1242969E+001  0.9547482E+02  0.7546771E-02  0.1290110E+00
         -3   -1    0    0    0  501 -0.00000000000E+00  0.00000000000E+00  0.12620162625E+03  0.12620162625E+03  0.00000000000E+00 0.  1.
          3   -1    0    0  501    0  0.00000000000E+00 -0.00000000000E+00 -0.18057296406E+02  0.18057296406E+02  0.00000000000E+00 0. -1.
         23    2    1    2    0    0  0.00000000000E+00  0.00000000000E+00  0.10814432984E+03  0.14425892265E+03  0.95474817036E+02 0.  0.
        -13    1    3    3    0    0 -0.71477122862E+01  0.46807888148E+02  0.63237122907E+02  0.79000012008E+02  0.00000000000E+00 0. -1.
         13    1    3    3    0    0  0.71477122862E+01 -0.46807888148E+02  0.44907206934E+02  0.65258910644E+02  0.00000000000E+00 0.  1.
<mgrwt>
<rscale>  0 0.95474817E+02</rscale>
<asrwt>0</asrwt>
<pdfrwt beam="2">  1        3 0.27780457E-02 0.95474817E+02</pdfrwt>
<pdfrwt beam="1">  1       -3 0.19415634E-01 0.95474817E+02</pdfrwt>
<totfact> 0.27934139E+04</totfact>
</mgrwt>
</event>
<event>
 5    1  0.1242969E+001  0.9078822E+02  0.7546771E-02  0.1300954E+00
          3   -1    0    0  501    0  0.00000000000E+00  0.00000000000E+00  0.33813009080E+02  0.33813009080E+02  0.00000000000E+00 0. -1.
         -3   -1    0    0    0  501 -0.00000000000E+00 -0.00000000000E+00 -0.60941781610E+02  0.60941781610E+02  0.00000000000E+00 0.  1.
         23    2    1    2    0    0  0.00000000000E+00  0.00000000000E+00 -0.27128772530E+02  0.94754790691E+02  0.90788215424E+02 0.  0.
        -11    1    3    3    0    0  0.40314806719E+02  0.13296992954E+02 -0.30345790783E+02  0.52181995752E+02  0.00000000000E+00 0.  1.
         11    1    3    3    0    0 -0.40314806719E+02 -0.13296992954E+02  0.32170182528E+01  0.42572794939E+02  0.00000000000E+00 0. -1.
<mgrwt>
<rscale>  0 0.90788215E+02</rscale>
<asrwt>0</asrwt>
<pdfrwt beam="1">  1        3 0.52020014E-02 0.90788215E+02</pdfrwt>
<pdfrwt beam="2">  1       -3 0.93756587E-02 0.90788215E+02</pdfrwt>
<totfact> 0.35475878E+04</totfact>
</mgrwt>
</event>
<event>
 5    1  0.1242969E+001  0.9170869E+02  0.7546771E-02  0.1298766E+00
         -2   -1    0    0    0  501 -0.00000000000E+00  0.00000000000E+00  0.27335205498E+03  0.27335205498E+03  0.00000000000E+00 0.  1.
          2   -1    0    0  501    0  0.00000000000E+00 -0.00000000000E+00 -0.76919889413E+01  0.76919889413E+01  0.00000000000E+00 0. -1.
         23    2    1    2    0    0  0.00000000000E+00  0.00000000000E+00  0.26566006604E+03  0.28104404392E+03  0.91708690624E+02 0.  0.
        -13    1    3    3    0    0  0.52808335666E+01 -0.45063888678E+02  0.15315314047E+03  0.15973266949E+03  0.00000000000E+00 0.  1.
         13    1    3    3    0    0 -0.52808335666E+01  0.45063888678E+02  0.11250692556E+03  0.12131137443E+03  0.00000000000E+00 0. -1.
<mgrwt>
<rscale>  0 0.91708691E+02</rscale>
<asrwt>0</asrwt>
<pdfrwt beam="2">  1        2 0.11833831E-02 0.91708691E+02</pdfrwt>
<pdfrwt beam="1">  1       -2 0.42054155E-01 0.91708691E+02</pdfrwt>
<totfact> 0.52859446E+04</totfact>
</mgrwt>
</event>
<event>
 5    1  0.1242969E+001  0.9631285E+02  0.7546771E-02  0.1288246E+00
         -1   -1    0    0    0  501 -0.00000000000E+00  0.00000000000E+00  0.87973365652E+01  0.87973365652E+01  0.00000000000E+00 0.  1.
          1   -1    0    0  501    0  0.00000000000E+00 -0.00000000000E+00 -0.26360720955E+03  0.26360720955E+03  0.00000000000E+00 0. -1.
         23    2    1    2    0    0  0.00000000000E+00  0.00000000000E+00 -0.25480987298E+03  0.27240454612E+03  0.96312851550E+02 0.  0.
        -13    1    3    3    0    0  0.26114275062E+02 -0.36122942818E+02 -0.75853314708E+02  0.87980382541E+02  0.00000000000E+00 0.  1.
         13    1    3    3    0    0 -0.26114275062E+02  0.36122942818E+02 -0.17895655828E+03  0.18442416357E+03  0.00000000000E+00 0. -1.
<mgrwt>
<rscale>  0 0.96312852E+02</rscale>
<asrwt>0</asrwt>
<pdfrwt beam="2">  1        1 0.40554951E-01 0.96312852E+02</pdfrwt>
<pdfrwt beam="1">  1       -1 0.13534365E-02 0.96312852E+02</pdfrwt>
<totfact> 0.10789677E+05</totfact>
</mgrwt>
</event>
<event>
 5    1  0.1242969E+001  0.9126050E+02  0.7546771E-02  0.1299828E+00
         -2   -1    0    0    0  501 -0.00000000000E+00  0.00000000000E+00  0.62708347084E+01  0.62708347084E+01  0.00000000000E+00 0.  1.
          2   -1    0    0  501    0  0.00000000000E+00 -0.00000000000E+00 -0.33203234044E+03  0.33203234044E+03  0.00000000000E+00 0. -1.
         23    2    1    2    0    0  0.00000000000E+00  0.00000000000E+00 -0.32576150573E+03  0.33830317515E+03  0.91260504595E+02 0.  0.
        -13    1    3    3    0    0 -0.23239999678E+01  0.40589368882E+02 -0.86080219365E+02  0.95198224815E+02  0.00000000000E+00 0.  1.
         13    1    3    3    0    0  0.23239999678E+01 -0.40589368882E+02 -0.23968128637E+03  0.24310495033E+03  0.00000000000E+00 0. -1.
<mgrwt>
<rscale>  0 0.91260505E+02</rscale>
<asrwt>0</asrwt>
<pdfrwt beam="2">  1        2 0.51081907E-01 0.91260505E+02</pdfrwt>
<pdfrwt beam="1">  1       -2 0.96474364E-03 0.91260505E+02</pdfrwt>
<totfact> 0.18609335E+05</totfact>
</mgrwt>
</event>
<event>
 5    1  0.1242969E+001  0.9099274E+02  0.7546771E-02  0.1300465E+00
          1   -1    0    0  501    0  0.00000000000E+00  0.00000000000E+00  0.23688798919E+02  0.23688798919E+02  0.00000000000E+00 0. -1.
         -1   -1    0    0    0  501 -0.00000000000E+00 -0.00000000000E+00 -0.87379689940E+02  0.87379689940E+02  0.00000000000E+00 0.  1.
         23    2    1    2    0    0  0.00000000000E+00  0.00000000000E+00 -0.63690891021E+02  0.11106848886E+03  0.90992744867E+02 0.  0.
        -13    1    3    3    0    0 -0.18589435006E+02  0.23484528030E+01 -0.82451387960E+02  0.84553614358E+02  0.00000000000E+00 0.  1.
         13    1    3    3    0    0  0.18589435006E+02 -0.23484528030E+01  0.18760496940E+02  0.26514874501E+02  0.00000000000E+00 0. -1.
<mgrwt>
<rscale>  0 0.90992745E+02</rscale>
<asrwt>0</asrwt>
<pdfrwt beam="1">  1        1 0.36444306E-02 0.90992745E+02</pdfrwt>
<pdfrwt beam="2">  1       -1 0.13443029E-01 0.90992745E+02</pdfrwt>
<totfact> 0.83809055E+04</totfact>
</mgrwt>
</event>
<event>
 5    1  0.1242969E+001  0.8921623E+02  0.7546771E-02  0.1304761E+00
         -3   -1    0    0    0  501 -0.00000000000E+00  0.00000000000E+00  0.89139776913E+02  0.89139776913E+02  0.00000000000E+00 0.  1.
          3   -1    0    0  501    0  0.00000000000E+00 -0.00000000000E+00 -0.22323188088E+02  0.22323188088E+02  0.00000000000E+00 0. -1.
         23    2    1    2    0    0  0.00000000000E+00  0.00000000000E+00  0.66816588825E+02  0.11146296500E+03  0.89216231845E+02 0.  0.
        -11    1    3    3    0    0  0.41811241190E+02  0.15484338620E+02  0.35148167148E+02  0.56774450999E+02  0.00000000000E+00 0.  1.
         11    1    3    3    0    0 -0.41811241190E+02 -0.15484338620E+02  0.31668421677E+02  0.54688514002E+02  0.00000000000E+00 0. -1.
<mgrwt>
<rscale>  0 0.89216232E+02</rscale>
<asrwt>0</asrwt>
<pdfrwt beam="2">  1        3 0.34343367E-02 0.89216232E+02</pdfrwt>
<pdfrwt beam="1">  1       -3 0.13713812E-01 0.89216232E+02</pdfrwt>
<totfact> 0.35896415E+04</totfact>
</mgrwt>
</event>
<event>
 5    1  0.1242969E+001  0.9140537E+02  0.7546771E-02  0.1299484E+00
         -2   -1    0    0    0  501 -0.00000000000E+00  0.00000000000E+00  0.38678171378E+02  0.38678171378E+02  0.00000000000E+00 0.  1.
          2   -1    0    0  501    0  0.00000000000E+00 -0.00000000000E+00 -0.54002953137E+02  0.54002953137E+02  0.00000000000E+00 0. -1.
         23    2    1    2    0    0  0.00000000000E+00  0.00000000000E+00 -0.15324781759E+02  0.92681124515E+02  0.91405371316E+02 0.  0.
        -13    1    3    3    0    0 -0.89694989377E+01 -0.15790186348E+02  0.34862848448E+02  0.39309033288E+02  0.00000000000E+00 0.  1.
         13    1    3    3    0    0  0.89694989377E+01  0.15790186348E+02 -0.50187630208E+02  0.53372091227E+02  0.00000000000E+00 0. -1.
<mgrwt>
<rscale>  0 0.91405371E+02</rscale>
<asrwt>0</asrwt>
<pdfrwt beam="2">  1        2 0.83081466E-02 0.91405371E+02</pdfrwt>
<pdfrwt beam="1">  1       -2 0.59504879E-02 0.91405371E+02</pdfrwt>
<totfact> 0.10241027E+05</totfact>
</mgrwt>
</event>
<event>
 5    1  0.1242969E+001  0.8745190E+02  0.7546771E-02  0.1309142E+00
         -2   -1    0    0    0  501 -0.00000000000E+00  0.00000000000E+00  0.42825555886E+02  0.42825555886E+02  0.00000000000E+00 0. -1.
          2   -1    0    0  501    0  0.00000000000E+00 -0.00000000000E+00 -0.44645274632E+02  0.44645274632E+02  0.00000000000E+00 0.  1.
         23    2    1    2    0    0  0.00000000000E+00  0.00000000000E+00 -0.18197187454E+01  0.87470830518E+02  0.87451900009E+02 0.  0.
        -11    1    3    3    0    0  0.26077820506E+02 -0.20517141904E+02 -0.29393258007E+02  0.44327975935E+02  0.00000000000E+00 0.  1.
         11    1    3    3    0    0 -0.26077820506E+02  0.20517141904E+02  0.27573539261E+02  0.43142854584E+02  0.00000000000E+00 0. -1.
<mgrwt>
<rscale>  0 0.87451900E+02</rscale>
<asrwt>0</asrwt>
<pdfrwt beam="2">  1        2 0.68685038E-02 0.87451900E+02</pdfrwt>
<pdfrwt beam="1">  1       -2 0.65885471E-02 0.87451900E+02</pdfrwt>
<totfact> 0.11057262E+05</totfact>
</mgrwt>
</event>
<event>
 5    1  0.1242969E+001  0.8913377E+02  0.7546771E-02  0.1304963E+00
          4   -1    0    0  501    0  0.00000000000E+00  0.00000000000E+00  0.78238009313E+02  0.78238009313E+02  0.00000000000E+00 0. -1.
         -4   -1    0    0    0  501 -0.00000000000E+00 -0.00000000000E+00 -0.25386729657E+02  0.25386729657E+02  0.00000000000E+00 0.  1.
         23    2    1    2    0    0  0.00000000000E+00  0.00000000000E+00  0.52851279657E+02  0.10362473897E+03  0.89133768939E+02 0.  0.
        -13    1    3    3    0    0 -0.30392256129E+01  0.37500287981E+02  0.54198756634E+02  0.65977372725E+02  0.00000000000E+00 0. -1.
         13    1    3    3    0    0  0.30392256129E+01 -0.37500287981E+02 -0.13474769772E+01  0.37647366245E+02  0.00000000000E+00 0.  1.
<mgrwt>
<rscale>  0 0.89133769E+02</rscale>
<asrwt>0</asrwt>
<pdfrwt beam="1">  1        4 0.12036617E-01 0.89133769E+02</pdfrwt>
<pdfrwt beam="2">  1       -4 0.39056507E-02 0.89133769E+02</pdfrwt>
<totfact> 0.27890754E+04</totfact>
</mgrwt>
</event>
<event>
 5    1  0.1242969E+001  0.9153967E+02  0.7546771E-02  0.1299165E+00
         -2   -1    0    0    0  501 -0.00000000000E+00  0.00000000000E+00  0.66671029328E+01  0.66671029328E+01  0.00000000000E+00 0.  1.
          2   -1    0    0  501    0  0.00000000000E+00 -0.00000000000E+00 -0.31421110155E+03  0.31421110155E+03  0.00000000000E+00 0. -1.
         23    2    1    2    0    0  0.00000000000E+00  0.00000000000E+00 -0.30754399862E+03  0.32087820448E+03  0.91539669142E+02 0.  0.
        -11    1    3    3    0    0 -0.87583715553E+01 -0.44694994413E+02 -0.13789074785E+03  0.14521780174E+03  0.00000000000E+00 0.  1.
         11    1    3    3    0    0  0.87583715553E+01  0.44694994413E+02 -0.16965325077E+03  0.17566040275E+03  0.00000000000E+00 0. -1.
<mgrwt>
<rscale>  0 0.91539669E+02</rscale>
<asrwt>0</asrwt>
<pdfrwt beam="2">  1        2 0.48340159E-01 0.91539669E+02</pdfrwt>
<pdfrwt beam="1">  1       -2 0.10257084E-02 0.91539669E+02</pdfrwt>
<totfact> 0.18085186E+05</totfact>
</mgrwt>
</event>
<event>
 5    1  0.1242969E+001  0.8947083E+02  0.7546771E-02  0.1304138E+00
          3   -1    0    0  501    0  0.00000000000E+00  0.00000000000E+00  0.18351989749E+03  0.18351989749E+03  0.00000000000E+00 0. -1.
         -3   -1    0    0    0  501 -0.00000000000E+00 -0.00000000000E+00 -0.10904850972E+02  0.10904850972E+02  0.00000000000E+00 0.  1.
         23    2    1    2    0    0  0.00000000000E+00  0.00000000000E+00  0.17261504652E+03  0.19442474846E+03  0.89470825023E+02 0.  0.
        -11    1    3    3    0    0  0.11070738087E+02 -0.34230701624E+02  0.14408598506E+03  0.14850950564E+03  0.00000000000E+00 0. -1.
         11    1    3    3    0    0 -0.11070738087E+02  0.34230701624E+02  0.28529061456E+02  0.45915242818E+02  0.00000000000E+00 0.  1.
<mgrwt>
<rscale>  0 0.89470825E+02</rscale>
<asrwt>0</asrwt>
<pdfrwt beam="1">  1        3 0.28233828E-01 0.89470825E+02</pdfrwt>
<pdfrwt beam="2">  1       -3 0.16776695E-02 0.89470825E+02</pdfrwt>
<totfact> 0.30291249E+04</totfact>
</mgrwt>
</event>
<event>
 5    1  0.1242969E+001  0.9103004E+02  0.7546771E-02  0.1300376E+00
         -1   -1    0    0    0  501 -0.00000000000E+00  0.00000000000E+00  0.42030030951E+02  0.42030030951E+02  0.00000000000E+00 0.  1.
          1   -1    0    0  501    0  0.00000000000E+00 -0.00000000000E+00 -0.49288976694E+02  0.49288976694E+02  0.00000000000E+00 0. -1.
         23    2    1    2    0    0  0.00000000000E+00  0.00000000000E+00 -0.72589457433E+01  0.91319007645E+02  0.91030043743E+02 0.  0.
        -13    1    3    3    0    0  0.32778275834E+02  0.31112688540E+02 -0.90505571542E+01  0.46090425683E+02  0.00000000000E+00 0. -1.
         13    1    3    3    0    0 -0.32778275834E+02 -0.31112688540E+02  0.17916114108E+01  0.45228581962E+02  0.00000000000E+00 0.  1.
<mgrwt>
<rscale>  0 0.91030044E+02</rscale>
<asrwt>0</asrwt>
<pdfrwt beam="2">  1        1 0.75829194E-02 0.91030044E+02</pdfrwt>
<pdfrwt beam="1">  1       -1 0.64661587E-02 0.91030044E+02</pdfrwt>
<totfact> 0.93985562E+04</totfact>
</mgrwt>
</event>
<event>
 5    1  0.1242969E+001  0.9101127E+02  0.7546771E-02  0.1300421E+00
          1   -1    0    0  501    0  0.00000000000E+00  0.00000000000E+00  0.23269384190E+02  0.23269384190E+02  0.00000000000E+00 0. -1.
         -1   -1    0    0    0  501 -0.00000000000E+00 -0.00000000000E+00 -0.88990870955E+02  0.88990870955E+02  0.00000000000E+00 0.  1.
         23    2    1    2    0    0  0.00000000000E+00  0.00000000000E+00 -0.65721486765E+02  0.11226025514E+03  0.91011268877E+02 0.  0.
        -11    1    3    3    0    0  0.22878290074E+02 -0.32724209099E+02 -0.59785382350E+02  0.71892850553E+02  0.00000000000E+00 0.  1.
         11    1    3    3    0    0 -0.22878290074E+02  0.32724209099E+02 -0.59361044152E+01  0.40367404592E+02  0.00000000000E+00 0. -1.
<mgrwt>
<rscale>  0 0.91011269E+02</rscale>
<asrwt>0</asrwt>
<pdfrwt beam="1">  1        1 0.35799052E-02 0.91011269E+02</pdfrwt>
<pdfrwt beam="2">  1       -1 0.13690903E-01 0.91011269E+02</pdfrwt>
<totfact> 0.83496811E+04</totfact>
</mgrwt>
</event>
<event>
 5    1  0.1242969E+001  0.8993423E+02  0.7546771E-02  0.1303011E+00
         -1   -1    0    0    0  501 -0.00000000000E+00  0.00000000000E+00  0.16285994106E+02  0.16285994106E+02  0.00000000000E+00 0.  1.
          1   -1    0    0  501    0  0.00000000000E+00 -0.00000000000E+00 -0.12415830721E+03  0.12415830721E+03  0.00000000000E+00 0. -1.
         23    2    1    2    0    0  0.00000000000E+00  0.00000000000E+00 -0.10787231310E+03  0.14044430131E+03  0.89934230622E+02 0.  0.
        -11    1    3    3    0    0  0.24236223244E+02 -0.31493928785E+02 -0.86796552945E+02  0.95461529794E+02  0.00000000000E+00 0. -1.
         11    1    3    3    0    0 -0.24236223244E+02  0.31493928785E+02 -0.21075760156E+02  0.44982771520E+02  0.00000000000E+00 0.  1.
<mgrwt>
<rscale>  0 0.89934231E+02</rscale>
<asrwt>0</asrwt>
<pdfrwt beam="2">  1        1 0.19101278E-01 0.89934231E+02</pdfrwt>
<pdfrwt beam="1">  1       -1 0.25055376E-02 0.89934231E+02</pdfrwt>
<totfact> 0.11248189E+05</totfact>
</mgrwt>
</event>
<event>
 5    1  0.1242969E+001  0.8947008E+02  0.7546771E-02  0.1304140E+00
         -3   -1    0    0    0  501 -0.00000000000E+00  0.00000000000E+00  0.28564179111E+02  0.28564179111E+02  0.00000000000E+00 0.  1.
          3   -1    0    0  501    0  0.00000000000E+00 -0.00000000000E+00 -0.70060613652E+02  0.70060613652E+02  0.00000000000E+00 0. -1.
         23    2    1    2    0    0  0.00000000000E+00  0.00000000000E+00 -0.41496434541E+02  0.98624792763E+02  0.89470082530E+02 0.  0.
        -11    1    3    3    0    0  0.21177104823E+02 -0.23322787716E+02  0.14263319439E+02  0.34581273501E+02  0.00000000000E+00 0.  1.
         11    1    3    3    0    0 -0.21177104823E+02  0.23322787716E+02 -0.55759753980E+02  0.64043519262E+02  0.00000000000E+00 0. -1.
<mgrwt>
<rscale>  0 0.89470083E+02</rscale>
<asrwt>0</asrwt>
<pdfrwt beam="2">  1        3 0.10778556E-01 0.89470083E+02</pdfrwt>
<pdfrwt beam="1">  1       -3 0.43944891E-02 0.89470083E+02</pdfrwt>
<totfact> 0.36604107E+04</totfact>
</mgrwt>
</event>
<event>
 5    1  0.1242969E+001  0.8937527E+02  0.7546771E-02  0.1304372E+00
          2   -1    0    0  501    0  0.00000000000E+00  0.00000000000E+00  0.42224639611E+02  0.42224639611E+02  0.00000000000E+00 0. -1.
         -2   -1    0    0    0  501 -0.00000000000E+00 -0.00000000000E+00 -0.47294297467E+02  0.47294297467E+02  0.00000000000E+00 0.  1.
         23    2    1    2    0    0  0.00000000000E+00  0.00000000000E+00 -0.50696578558E+01  0.89518937078E+02  0.89375268754E+02 0.  0.
        -11    1    3    3    0    0 -0.15048673193E+00 -0.43495397770E+02  0.77340850884E+01  0.44177916945E+02  0.00000000000E+00 0. -1.
         11    1    3    3    0    0  0.15048673193E+00  0.43495397770E+02 -0.12803742944E+02  0.45341020134E+02  0.00000000000E+00 0.  1.
<mgrwt>
<rscale>  0 0.89375269E+02</rscale>
<asrwt>0</asrwt>
<pdfrwt beam="1">  1        2 0.64960984E-02 0.89375269E+02</pdfrwt>
<pdfrwt beam="2">  1       -2 0.72760457E-02 0.89375269E+02</pdfrwt>
<totfact> 0.10245027E+05</totfact>
</mgrwt>
</event>
<event>
 5    1  0.1242969E+001  0.8854278E+02  0.7546771E-02  0.1306419E+00
         -3   -1    0    0    0  501 -0.00000000000E+00  0.00000000000E+00  0.64453921284E+02  0.64453921284E+02  0.00000000000E+00 0.  1.
          3   -1    0    0  501    0  0.00000000000E+00 -0.00000000000E+00 -0.30408640311E+02  0.30408640311E+02  0.00000000000E+00 0. -1.
         23    2    1    2    0    0  0.00000000000E+00  0.00000000000E+00  0.34045280973E+02  0.94862561595E+02  0.88542783081E+02 0.  0.
        -11    1    3    3    0    0 -0.29158250094E+02  0.97216856707E+01  0.51159717846E+02  0.59682756730E+02  0.00000000000E+00 0.  1.
         11    1    3    3    0    0  0.29158250094E+02 -0.97216856707E+01 -0.17114436873E+02  0.35179804864E+02  0.00000000000E+00 0. -1.
<mgrwt>
<rscale>  0 0.88542783E+02</rscale>
<asrwt>0</asrwt>
<pdfrwt beam="2">  1        3 0.46782524E-02 0.88542783E+02</pdfrwt>
<pdfrwt beam="1">  1       -3 0.99159879E-02 0.88542783E+02</pdfrwt>
<totfact> 0.37961418E+04</totfact>
</mgrwt>
</event>
<event>
 5    1  0.1242969E+001  0.9213727E+02  0.7546771E-02  0.1297757E+00
         -2   -1    0    0    0  501 -0.00000000000E+00  0.00000000000E+00  0.15294117223E+02  0.15294117223E+02  0.00000000000E+00 0.  1.
          2   -1    0    0  501    0  0.00000000000E+00 -0.00000000000E+00 -0.13876703506E+03  0.13876703506E+03  0.00000000000E+00 0. -1.
         23    2    1    2    0    0  0.00000000000E+00  0.00000000000E+00 -0.12347291784E+03  0.15406115228E+03  0.92137273692E+02 0.  0.
        -11    1    3    3    0    0 -0.31365292484E+02 -0.98907637281E-01 -0.53169071159E+01  0.31812903932E+02  0.00000000000E+00 0.  1.
         11    1    3    3    0    0  0.31365292484E+02  0.98907637281E-01 -0.11815601072E+03  0.12224824835E+03  0.00000000000E+00 0. -1.
<mgrwt>
<rscale>  0 0.92137274E+02</rscale>
<asrwt>0</asrwt>
<pdfrwt beam="2">  1        2 0.21348774E-01 0.92137274E+02</pdfrwt>
<pdfrwt beam="1">  1       -2 0.23529411E-02 0.92137274E+02</pdfrwt>
<totfact> 0.13235653E+05</totfact>
</mgrwt>
</event>
<event>
 5    1  0.1242969E+001  0.9168216E+02  0.7546771E-02  0.1298828E+00
          2   -1    0    0  501    0  0.00000000000E+00  0.00000000000E+00  0.24883060235E+02  0.24883060235E+02  0.00000000000E+00 0. -1.
         -2   -1    0    0    0  501 -0.00000000000E+00 -0.00000000000E+00 -0.84451216493E+02  0.84451216493E+02  0.00000000000E+00 0.  1.
         23    2    1    2    0    0  0.00000000000E+00  0.00000000000E+00 -0.59568156258E+02  0.10933427673E+03  0.91682161993E+02 0.  0.
        -13    1    3    3    0    0  0.11676343950E+02 -0.27318242470E+02 -0.71416759838E+02  0.77349705659E+02  0.00000000000E+00 0.  1.
         13    1    3    3    0    0 -0.11676343950E+02  0.27318242470E+02  0.11848603580E+02  0.31984571069E+02  0.00000000000E+00 0. -1.
<mgrwt>
<rscale>  0 0.91682162E+02</rscale>
<asrwt>0</asrwt>
<pdfrwt beam="1">  1        2 0.38281631E-02 0.91682162E+02</pdfrwt>
<pdfrwt beam="2">  1       -2 0.12992495E-01 0.91682162E+02</pdfrwt>
<totfact> 0.82670623E+04</totfact>
</mgrwt>
</event>
<event>
 5    1  0.1242969E+001  0.8547071E+02  0.7546771E-02  0.1314206E+00
         -3   -1    0    0    0  501 -0.00000000000E+00  0.00000000000E+00  0.65862157793E+02  0.65862157793E+02  0.00000000000E+00 0.  1.
          3   -1    0    0  501    0  0.00000000000E+00 -0.00000000000E+00 -0.27729283201E+02  0.27729283201E+02  0.00000000000E+00 0. -1.
         23    2    1    2    0    0  0.00000000000E+00  0.00000000000E+00  0.38132874593E+02  0.93591440994E+02  0.85470706693E+02 0.  0.
        -13    1    3    3    0    0  0.24138741684E+02  0.66676327287E+01 -0.18852834297E+02  0.31345901444E+02  0.00000000000E+00 0. -1.
         13    1    3    3    0    0 -0.24138741684E+02 -0.66676327287E+01  0.56985708889E+02  0.62245539550E+02  0.00000000000E+00 0.  1.
<mgrwt>
<rscale>  0 0.85470707E+02</rscale>
<asrwt>0</asrwt>
<pdfrwt beam="2">  1        3 0.42660436E-02 0.85470707E+02</pdfrwt>
<pdfrwt beam="1">  1       -3 0.10132640E-01 0.85470707E+02</pdfrwt>
<totfact> 0.41882270E+04</totfact>
</mgrwt>
</event>
<event>
 5    1  0.1242969E+001  0.9007269E+02  0.7546771E-02  0.1302676E+00
          3   -1    0    0  501    0  0.00000000000E+00  0.00000000000E+00  0.37722137968E+02  0.37722137968E+02  0.00000000000E+00 0. -1.
         -3   -1    0    0    0  501 -0.00000000000E+00 -0.00000000000E+00 -0.53768757740E+02  0.53768757740E+02  0.00000000000E+00 0.  1.
         23    2    1    2    0    0  0.00000000000E+00  0.00000000000E+00 -0.16046619772E+02  0.91490895708E+02  0.90072692817E+02 0.  0.
        -11    1    3    3    0    0 -0.21174128668E+02 -0.15916506119E+02  0.28972597420E+02  0.39256722904E+02  0.00000000000E+00 0. -1.
         11    1    3    3    0    0  0.21174128668E+02  0.15916506119E+02 -0.45019217192E+02  0.52234172804E+02  0.00000000000E+00 0.  1.
<mgrwt>
<rscale>  0 0.90072693E+02</rscale>
<asrwt>0</asrwt>
<pdfrwt beam="1">  1        3 0.58034059E-02 0.90072693E+02</pdfrwt>
<pdfrwt beam="2">  1       -3 0.82721166E-02 0.90072693E+02</pdfrwt>
<totfact> 0.36504686E+04</totfact>
</mgrwt>
</event>
<event>
 5    1  0.1242969E+001  0.9532911E+02  0.7546771E-02  0.1290437E+00
          3   -1    0    0  501    0  0.00000000000E+00  0.00000000000E+00  0.15243687538E+02  0.15243687538E+02  0.00000000000E+00 0. -1.
         -3   -1    0    0    0  501 -0.00000000000E+00 -0.00000000000E+00 -0.14903937367E+03  0.14903937367E+03  0.00000000000E+00 0.  1.
         23    2    1    2    0    0  0.00000000000E+00  0.00000000000E+00 -0.13379568613E+03  0.16428306120E+03  0.95329106636E+02 0.  0.
        -13    1    3    3    0    0  0.30668541273E+02  0.36138710018E+02 -0.75573524996E+02  0.89207194026E+02  0.00000000000E+00 0.  1.
         13    1    3    3    0    0 -0.30668541273E+02 -0.36138710018E+02 -0.58222161131E+02  0.75075867177E+02  0.00000000000E+00 0. -1.
<mgrwt>
<rscale>  0 0.95329107E+02</rscale>
<asrwt>0</asrwt>
<pdfrwt beam="1">  1        3 0.23451827E-02 0.95329107E+02</pdfrwt>
<pdfrwt beam="2">  1       -3 0.22929134E-01 0.95329107E+02</pdfrwt>
<totfact> 0.26986392E+04</totfact>
</mgrwt>
</event>
<event>
 5    1  0.1242969E+001  0.9201612E+02  0.7546771E-02  0.1298042E+00
          2   -1    0    0  501    0  0.00000000000E+00  0.00000000000E+00  0.95781412867E+01  0.95781412867E+01  0.00000000000E+00 0. -1.
         -2   -1    0    0    0  501 -0.00000000000E+00 -0.00000000000E+00 -0.22099710429E+03  0.22099710429E+03  0.00000000000E+00 0.  1.
         23    2    1    2    0    0  0.00000000000E+00  0.00000000000E+00 -0.21141896301E+03  0.23057524558E+03  0.92016117911E+02 0.  0.
        -11    1    3    3    0    0 -0.83215754958E+01 -0.44713840199E+02 -0.88318816069E+02  0.99341780716E+02  0.00000000000E+00 0. -1.
         11    1    3    3    0    0  0.83215754958E+01  0.44713840199E+02 -0.12310014694E+03  0.13123346486E+03  0.00000000000E+00 0.  1.
<mgrwt>
<rscale>  0 0.92016118E+02</rscale>
<asrwt>0</asrwt>
<pdfrwt beam="1">  1        2 0.14735603E-02 0.92016118E+02</pdfrwt>
<pdfrwt beam="2">  1       -2 0.33999552E-01 0.92016118E+02</pdfrwt>
<totfact> 0.58217442E+04</totfact>
</mgrwt>
</event>
<event>
 5    1  0.1242969E+001  0.9104787E+02  0.7546771E-02  0.1300334E+00
         -3   -1    0    0    0  501 -0.00000000000E+00  0.00000000000E+00  0.55005279948E+02  0.55005279948E+02  0.00000000000E+00 0.  1.
          3   -1    0    0  501    0  0.00000000000E+00 -0.00000000000E+00 -0.37676902547E+02  0.37676902547E+02  0.00000000000E+00 0. -1.
         23    2    1    2    0    0  0.00000000000E+00  0.00000000000E+00  0.17328377401E+02  0.92682182494E+02  0.91047868116E+02 0.  0.
        -13    1    3    3    0    0 -0.15111119926E+02  0.15841156686E+01  0.52348044456E+02  0.54508468390E+02  0.00000000000E+00 0.  1.
         13    1    3    3    0    0  0.15111119926E+02 -0.15841156686E+01 -0.35019667055E+02  0.38173714104E+02  0.00000000000E+00 0. -1.
<mgrwt>
<rscale>  0 0.91047868E+02</rscale>
<asrwt>0</asrwt>
<pdfrwt beam="2">  1        3 0.57964465E-02 0.91047868E+02</pdfrwt>
<pdfrwt beam="1">  1       -3 0.84623508E-02 0.91047868E+02</pdfrwt>
<totfact> 0.35360278E+04</totfact>
</mgrwt>
</event>
<event>
 5    1  0.1242969E+001  0.8898959E+02  0.7546771E-02  0.1305317E+00
         -2   -1    0    0    0  501 -0.00000000000E+00  0.00000000000E+00  0.13247486482E+03  0.13247486482E+03  0.00000000000E+00 0.  1.
          2   -1    0    0  501    0  0.00000000000E+00 -0.00000000000E+00 -0.14944622415E+02  0.14944622415E+02  0.00000000000E+00 0. -1.
         23    2    1    2    0    0  0.00000000000E+00  0.00000000000E+00  0.11753024240E+03  0.14741948723E+03  0.88989591170E+02 0.  0.
        -11    1    3    3    0    0  0.35342938518E+00 -0.20560558642E+02 -0.66005281204E+01  0.21596954773E+02  0.00000000000E+00 0. -1.
         11    1    3    3    0    0 -0.35342938518E+00  0.20560558642E+02  0.12413077052E+03  0.12582253246E+03  0.00000000000E+00 0.  1.
<mgrwt>
<rscale>  0 0.88989591E+02</rscale>
<asrwt>0</asrwt>
<pdfrwt beam="2">  1        2 0.22991728E-02 0.88989591E+02</pdfrwt>
<pdfrwt beam="1">  1       -2 0.20380748E-01 0.88989591E+02</pdfrwt>
<totfact> 0.77580592E+04</totfact>
</mgrwt>
</event>
<event>
 5    1  0.1242969E+001  0.8921752E+02  0.7546771E-02  0.1304758E+00
          1   -1    0    0  501    0  0.00000000000E+00  0.00000000000E+00  0.22050594778E+03  0.22050594778E+03  0.00000000000E+00 0. -1.
         -1   -1    0    0    0  501 -0.00000000000E+00 -0.00000000000E+00 -0.90244344302E+01  0.90244344302E+01  0.00000000000E+00 0.  1.
         23    2    1    2    0    0  0.00000000000E+00  0.00000000000E+00  0.21148151335E+03  0.22953038221E+03  0.89217519965E+02 0.  0.
        -11    1    3    3    0    0 -0.30160204320E+02 -0.25277889519E+02  0.15978789022E+03  0.16456238781E+03  0.00000000000E+00 0. -1.
         11    1    3    3    0    0  0.30160204320E+02  0.25277889519E+02  0.51693623130E+02  0.64967994393E+02  0.00000000000E+00 0.  1.
<mgrwt>
<rscale>  0 0.89217520E+02</rscale>
<asrwt>0</asrwt>
<pdfrwt beam="1">  1        1 0.33923988E-01 0.89217520E+02</pdfrwt>
<pdfrwt beam="2">  1       -1 0.13883747E-02 0.89217520E+02</pdfrwt>
<totfact> 0.12789063E+05</totfact>
</mgrwt>
</event>
<event>
 5    1  0.1242969E+001  0.9046106E+02  0.7546771E-02  0.1301739E+00
          2   -1    0    0  501    0  0.00000000000E+00  0.00000000000E+00  0.35814307057E+02  0.35814307057E+02  0.00000000000E+00 0. -1.
         -2   -1    0    0    0  501 -0.00000000000E+00 -0.00000000000E+00 -0.57122446811E+02  0.57122446811E+02  0.00000000000E+00 0.  1.
         23    2    1    2    0    0  0.00000000000E+00  0.00000000000E+00 -0.21308139754E+02  0.92936753868E+02  0.90461060130E+02 0.  0.
        -13    1    3    3    0    0  0.10833742395E+02  0.10546476431E+02 -0.54449370736E+02  0.56509575410E+02  0.00000000000E+00 0.  1.
         13    1    3    3    0    0 -0.10833742395E+02 -0.10546476431E+02  0.33141230983E+02  0.36427178458E+02  0.00000000000E+00 0. -1.
<mgrwt>
<rscale>  0 0.90461060E+02</rscale>
<asrwt>0</asrwt>
<pdfrwt beam="1">  1        2 0.55098935E-02 0.90461060E+02</pdfrwt>
<pdfrwt beam="2">  1       -2 0.87880686E-02 0.90461060E+02</pdfrwt>
<totfact> 0.94848449E+04</totfact>
</mgrwt>
</event>
<event>
 5    1  0.1242969E+001  0.9042856E+02  0.7546771E-02  0.1301817E+00
         -4   -1    0    0    0  501 -0.00000000000E+00  0.00000000000E+00  0.17957110965E+03  0.17957110965E+03  0.00000000000E+00 0.  1.
          4   -1    0    0  501    0  0.00000000000E+00 -0.00000000000E+00 -0.11384520863E+02  0.11384520863E+02  0.00000000000E+00 0. -1.
         23    2    1    2    0    0  0.00000000000E+00  0.00000000000E+00  0.16818658878E+03  0.19095563051E+03  0.90428558412E+02 0.  0.
        -11    1    3    3    0    0 -0.29562109877E+02 -0.77145783910E+01  0.13710914105E+02  0.33487642881E+02  0.00000000000E+00 0. -1.
         11    1    3    3    0    0  0.29562109877E+02  0.77145783910E+01  0.15447567468E+03  0.15746798763E+03  0.00000000000E+00 0.  1.
<mgrwt>
<rscale>  0 0.90428558E+02</rscale>
<asrwt>0</asrwt>
<pdfrwt beam="2">  1        4 0.17514649E-02 0.90428558E+02</pdfrwt>
<pdfrwt beam="1">  1       -4 0.27626323E-01 0.90428558E+02</pdfrwt>
<totfact> 0.22255112E+04</totfact>
</mgrwt>
</event>
<event>
 5    1  0.1242969E+001  0.9087493E+02  0.7546771E-02  0.1300747E+00
          1   -1    0    0  501    0  0.00000000000E+00  0.00000000000E+00  0.64048633183E+01  0.64048633183E+01  0.00000000000E+00 0. -1.
         -1   -1    0    0    0  501 -0.00000000000E+00 -0.00000000000E+00 -0.32234305828E+03  0.32234305828E+03  0.00000000000E+00 0.  1.
         23    2    1    2    0    0  0.00000000000E+00  0.00000000000E+00 -0.31593819496E+03  0.32874792160E+03  0.90874930094E+02 0.  0.
        -11    1    3    3    0    0  0.10022282232E+01  0.41850807077E+02 -0.22187545177E+03  0.22579019157E+03  0.00000000000E+00 0.  1.
         11    1    3    3    0    0 -0.10022282232E+01 -0.41850807077E+02 -0.94062743194E+02  0.10295773002E+03  0.00000000000E+00 0. -1.
<mgrwt>
<rscale>  0 0.90874930E+02</rscale>
<asrwt>0</asrwt>
<pdfrwt beam="1">  1        1 0.98536355E-03 0.90874930E+02</pdfrwt>
<pdfrwt beam="2">  1       -1 0.49591241E-01 0.90874930E+02</pdfrwt>
<totfact> 0.59359329E+04</totfact>
</mgrwt>
</event>
<event>
 5    1  0.1242969E+001  0.9533352E+02  0.7546771E-02  0.1290427E+00
          2   -1    0    0  501    0  0.00000000000E+00  0.00000000000E+00  0.44114615183E+02  0.44114615183E+02  0.00000000000E+00 0. -1.
         -2   -1    0    0    0  501 -0.00000000000E+00 -0.00000000000E+00 -0.51504925100E+02  0.51504925100E+02  0.00000000000E+00 0.  1.
         23    2    1    2    0    0  0.00000000000E+00  0.00000000000E+00 -0.73903099169E+01  0.95619540284E+02  0.95333518782E+02 0.  0.
        -13    1    3    3    0    0  0.10770406611E+02  0.16885119249E+02  0.39689805226E+02  0.44456602991E+02  0.00000000000E+00 0. -1.
         13    1    3    3    0    0 -0.10770406611E+02 -0.16885119249E+02 -0.47080115142E+02  0.51162937293E+02  0.00000000000E+00 0.  1.
<mgrwt>
<rscale>  0 0.95333519E+02</rscale>
<asrwt>0</asrwt>
<pdfrwt beam="1">  1        2 0.67868639E-02 0.95333519E+02</pdfrwt>
<pdfrwt beam="2">  1       -2 0.79238346E-02 0.95333519E+02</pdfrwt>
<totfact> 0.86002021E+04</totfact>
</mgrwt>
</event>
<event>
 4    1  0.1242969E+001  0.1325391E+03  0.7546771E-02  0.1223736E+00
          2   -1    0    0  501    0  0.00000000000E+00  0.00000000000E+00  0.12242760579E+03  0.12242760579E+03  0.00000000000E+00 0. -1.
         -2   -1    0    0    0  501 -0.00000000000E+00 -0.00000000000E+00 -0.35871436669E+02  0.35871436669E+02  0.00000000000E+00 0.  1.
        -11    1    1    2    0    0 -0.36572396862E+01 -0.58007773144E+02  0.52574166640E+01  0.58360239694E+02  0.00000000000E+00 0.  1.
         11    1    1    2    0    0  0.36572396862E+01  0.58007773144E+02  0.81298752459E+02  0.99938802768E+02  0.00000000000E+00 0. -1.
<mgrwt>
<rscale>  0 0.13253911E+03</rscale>
<asrwt>0</asrwt>
<pdfrwt beam="1">  1        2 0.18835016E-01 0.13253911E+03</pdfrwt>
<pdfrwt beam="2">  1       -2 0.55186826E-02 0.13253911E+03</pdfrwt>
<totfact> 0.45667894E+04</totfact>
</mgrwt>
</event>
<event>
 5    1  0.1242969E+001  0.9284519E+02  0.7546771E-02  0.1296104E+00
         -1   -1    0    0    0  501 -0.00000000000E+00  0.00000000000E+00  0.10904916033E+03  0.10904916033E+03  0.00000000000E+00 0.  1.
          1   -1    0    0  501    0  0.00000000000E+00 -0.00000000000E+00 -0.19762253625E+02  0.19762253625E+02  0.00000000000E+00 0. -1.
         23    2    1    2    0    0  0.00000000000E+00  0.00000000000E+00  0.89286906710E+02  0.12881141396E+03  0.92845186502E+02 0.  0.
        -11    1    3    3    0    0 -0.41095071770E+02  0.11951392419E+02  0.19693139455E+02  0.47111149914E+02  0.00000000000E+00 0.  1.
         11    1    3    3    0    0  0.41095071770E+02 -0.11951392419E+02  0.69593767255E+02  0.81700264046E+02  0.00000000000E+00 0. -1.
<mgrwt>
<rscale>  0 0.92845187E+02</rscale>
<asrwt>0</asrwt>
<pdfrwt beam="2">  1        1 0.30403468E-02 0.92845187E+02</pdfrwt>
<pdfrwt beam="1">  1       -1 0.16776793E-01 0.92845187E+02</pdfrwt>
<totfact> 0.76379188E+04</totfact>
</mgrwt>
</event>
<event>
 5    1  0.1242969E+001  0.9030705E+02  0.7546771E-02  0.1302110E+00
          1   -1    0    0  501    0  0.00000000000E+00  0.00000000000E+00  0.16816938662E+02  0.16816938662E+02  0.00000000000E+00 0. -1.
         -1   -1    0    0    0  501 -0.00000000000E+00 -0.00000000000E+00 -0.12123733074E+03  0.12123733074E+03  0.00000000000E+00 0.  1.
         23    2    1    2    0    0  0.00000000000E+00  0.00000000000E+00 -0.10442039208E+03  0.13805426940E+03  0.90307048554E+02 0.  0.
        -11    1    3    3    0    0 -0.32119994509E+02  0.16516744568E+02 -0.93636665848E+02  0.10036095899E+03  0.00000000000E+00 0.  1.
         11    1    3    3    0    0  0.32119994509E+02 -0.16516744568E+02 -0.10783726230E+02  0.37693310412E+02  0.00000000000E+00 0. -1.
<mgrwt>
<rscale>  0 0.90307049E+02</rscale>
<asrwt>0</asrwt>
<pdfrwt beam="1">  1        1 0.25872214E-02 0.90307049E+02</pdfrwt>
<pdfrwt beam="2">  1       -1 0.18651897E-01 0.90307049E+02</pdfrwt>
<totfact> 0.80330474E+04</totfact>
</mgrwt>
</event>
<event>
 5    1  0.1242969E+001  0.8941148E+02  0.7546771E-02  0.1304283E+00
          1   -1    0    0  501    0  0.00000000000E+00  0.00000000000E+00  0.12014113110E+02  0.12014113110E+02  0.00000000000E+00 0. -1.
         -1   -1    0    0    0  501 -0.00000000000E+00 -0.00000000000E+00 -0.16635462554E+03  0.16635462554E+03  0.00000000000E+00 0.  1.
         23    2    1    2    0    0  0.00000000000E+00  0.00000000000E+00 -0.15434051243E+03  0.17836873865E+03  0.89411482206E+02 0.  0.
        -11    1    3    3    0    0 -0.32261422921E+02 -0.12322881566E+01 -0.13886088500E+03  0.14256459352E+03  0.00000000000E+00 0.  1.
         11    1    3    3    0    0  0.32261422921E+02  0.12322881566E+01 -0.15479627431E+02  0.35804145129E+02  0.00000000000E+00 0. -1.
<mgrwt>
<rscale>  0 0.89411482E+02</rscale>
<asrwt>0</asrwt>
<pdfrwt beam="1">  1        1 0.18483251E-02 0.89411482E+02</pdfrwt>
<pdfrwt beam="2">  1       -1 0.25593019E-01 0.89411482E+02</pdfrwt>
<totfact> 0.76734142E+04</totfact>
</mgrwt>
</event>
<event>
 5    1  0.1242969E+001  0.9568265E+02  0.7546771E-02  0.1289646E+00
         -1   -1    0    0    0  501 -0.00000000000E+00  0.00000000000E+00  0.70299905229E+02  0.70299905229E+02  0.00000000000E+00 0.  1.
          1   -1    0    0  501    0  0.00000000000E+00 -0.00000000000E+00 -0.32557546264E+02  0.32557546264E+02  0.00000000000E+00 0. -1.
         23    2    1    2    0    0  0.00000000000E+00  0.00000000000E+00  0.37742358965E+02  0.10285745149E+03  0.95682650817E+02 0.  0.
        -11    1    3    3    0    0  0.10942315269E+02 -0.14594643805E+02  0.66414886318E+02  0.68874342217E+02  0.00000000000E+00 0.  1.
         11    1    3    3    0    0 -0.10942315269E+02  0.14594643805E+02 -0.28672527353E+02  0.33983109276E+02  0.00000000000E+00 0. -1.
<mgrwt>
<rscale>  0 0.95682651E+02</rscale>
<asrwt>0</asrwt>
<pdfrwt beam="2">  1        1 0.50088533E-02 0.95682651E+02</pdfrwt>
<pdfrwt beam="1">  1       -1 0.10815370E-01 0.95682651E+02</pdfrwt>
<totfact> 0.76460456E+04</totfact>
</mgrwt>
</event>
<event>
 5    1  0.1242969E+001  0.9050610E+02  0.7546771E-02  0.1301631E+00
          1   -1    0    0  501    0  0.00000000000E+00  0.00000000000E+00  0.13574018943E+02  0.13574018943E+02  0.00000000000E+00 0. -1.
         -1   -1    0    0    0  501 -0.00000000000E+00 -0.00000000000E+00 -0.15086457701E+03  0.15086457701E+03  0.00000000000E+00 0.  1.
         23    2    1    2    0    0  0.00000000000E+00  0.00000000000E+00 -0.13729055807E+03  0.16443859595E+03  0.90506102030E+02 0.  0.
        -11    1    3    3    0    0 -0.29610593946E+02  0.34207628082E+02 -0.66931688679E+02  0.80788613321E+02  0.00000000000E+00 0.  1.
         11    1    3    3    0    0  0.29610593946E+02 -0.34207628082E+02 -0.70358869390E+02  0.83649982634E+02  0.00000000000E+00 0. -1.
<mgrwt>
<rscale>  0 0.90506102E+02</rscale>
<asrwt>0</asrwt>
<pdfrwt beam="1">  1        1 0.20883105E-02 0.90506102E+02</pdfrwt>
<pdfrwt beam="2">  1       -1 0.23209936E-01 0.90506102E+02</pdfrwt>
<totfact> 0.76131957E+04</totfact>
</mgrwt>
</event>
<event>
 5    1  0.1242969E+001  0.1111718E+03  0.7546771E-02  0.1258415E+00
         -1   -1    0    0    0  501 -0.00000000000E+00  0.00000000000E+00  0.21761267659E+03  0.21761267659E+03  0.00000000000E+00 0.  1.
          1   -1    0    0  501    0  0.00000000000E+00 -0.00000000000E+00 -0.14198590786E+02  0.14198590786E+02  0.00000000000E+00 0. -1.
         23    2    1    2    0    0  0.00000000000E+00  0.00000000000E+00  0.20341408580E+03  0.23181126737E+03  0.11117181918E+03 0.  0.
        -13    1    3    3    0    0 -0.49172392213E+02  0.75046792866E+01  0.15344045652E+03  0.16130163689E+03  0.00000000000E+00 0.  1.
         13    1    3    3    0    0  0.49172392213E+02 -0.75046792866E+01  0.49973629281E+02  0.70509630482E+02  0.00000000000E+00 0. -1.
<mgrwt>
<rscale>  0 0.11117182E+03</rscale>
<asrwt>0</asrwt>
<pdfrwt beam="2">  1        1 0.21843987E-02 0.11117182E+03</pdfrwt>
<pdfrwt beam="1">  1       -1 0.33478871E-01 0.11117182E+03</pdfrwt>
<totfact> 0.40255490E+04</totfact>
</mgrwt>
</event>
<event>
 5    1  0.1242969E+001  0.8978691E+02  0.7546771E-02  0.1303369E+00
         -1   -1    0    0    0  501 -0.00000000000E+00  0.00000000000E+00  0.93880631625E+01  0.93880631625E+01  0.00000000000E+00 0.  1.
          1   -1    0    0  501    0  0.00000000000E+00 -0.00000000000E+00 -0.21467923355E+03  0.21467923355E+03  0.00000000000E+00 0. -1.
         23    2    1    2    0    0  0.00000000000E+00  0.00000000000E+00 -0.20529117039E+03  0.22406729672E+03  0.89786907827E+02 0.  0.
        -11    1    3    3    0    0 -0.90847716746E+01  0.42006046808E+02 -0.13502822188E+03  0.14170272315E+03  0.00000000000E+00 0. -1.
         11    1    3    3    0    0  0.90847716746E+01 -0.42006046808E+02 -0.70262948509E+02  0.82364573562E+02  0.00000000000E+00 0.  1.
<mgrwt>
<rscale>  0 0.89786908E+02</rscale>
<asrwt>0</asrwt>
<pdfrwt beam="2">  1        1 0.33027574E-01 0.89786908E+02</pdfrwt>
<pdfrwt beam="1">  1       -1 0.14443174E-02 0.89786908E+02</pdfrwt>
<totfact> 0.12508374E+05</totfact>
</mgrwt>
</event>
<event>
 5    1  0.1242969E+001  0.9289513E+02  0.7546771E-02  0.1295988E+00
          2   -1    0    0  501    0  0.00000000000E+00  0.00000000000E+00  0.85725117216E+02  0.85725117216E+02  0.00000000000E+00 0.  1.
         -2   -1    0    0    0  501 -0.00000000000E+00 -0.00000000000E+00 -0.25166210457E+02  0.25166210457E+02  0.00000000000E+00 0. -1.
         23    2    1    2    0    0  0.00000000000E+00  0.00000000000E+00  0.60558906759E+02  0.11089132767E+03  0.92895131009E+02 0.  0.
        -13    1    3    3    0    0  0.26960073569E+02 -0.60469478126E+01  0.74848218081E+02  0.79785129532E+02  0.00000000000E+00 0.  1.
         13    1    3    3    0    0 -0.26960073569E+02  0.60469478126E+01 -0.14289311322E+02  0.31106198140E+02  0.00000000000E+00 0. -1.
<mgrwt>
<rscale>  0 0.92895131E+02</rscale>
<asrwt>0</asrwt>
<pdfrwt beam="1">  1        2 0.13188479E-01 0.92895131E+02</pdfrwt>
<pdfrwt beam="2">  1       -2 0.38717247E-02 0.92895131E+02</pdfrwt>
<totfact> 0.11125078E+05</totfact>
</mgrwt>
</event>
<event>
 5    1  0.1242969E+001  0.9469902E+02  0.7546771E-02  0.1291855E+00
         -2   -1    0    0    0  501 -0.00000000000E+00  0.00000000000E+00  0.87661936428E+01  0.87661936428E+01  0.00000000000E+00 0.  1.
          2   -1    0    0  501    0  0.00000000000E+00 -0.00000000000E+00 -0.25575252035E+03  0.25575252035E+03  0.00000000000E+00 0. -1.
         23    2    1    2    0    0  0.00000000000E+00  0.00000000000E+00 -0.24698632670E+03  0.26451871399E+03  0.94699020438E+02 0.  0.
        -13    1    3    3    0    0  0.14387194863E+02 -0.35259535532E+02 -0.44896352686E+02  0.58871968767E+02  0.00000000000E+00 0.  1.
         13    1    3    3    0    0 -0.14387194863E+02  0.35259535532E+02 -0.20208997402E+03  0.20564674522E+03  0.00000000000E+00 0. -1.
<mgrwt>
<rscale>  0 0.94699020E+02</rscale>
<asrwt>0</asrwt>
<pdfrwt beam="2">  1        2 0.39346539E-01 0.94699020E+02</pdfrwt>
<pdfrwt beam="1">  1       -2 0.13486453E-02 0.94699020E+02</pdfrwt>
<totfact> 0.15290513E+05</totfact>
</mgrwt>
</event>
<event>
 5    1  0.1242969E+001  0.8978419E+02  0.7546771E-02  0.1303375E+00
         -1   -1    0    0    0  501 -0.00000000000E+00  0.00000000000E+00  0.32242514546E+03  0.32242514546E+03  0.00000000000E+00 0.  1.
          1   -1    0    0  501    0  0.00000000000E+00 -0.00000000000E+00 -0.62504430391E+01  0.62504430391E+01  0.00000000000E+00 0. -1.
         23    2    1    2    0    0  0.00000000000E+00  0.00000000000E+00  0.31617470242E+03  0.32867558850E+03  0.89784185826E+02 0.  0.
        -13    1    3    3    0    0 -0.34768798758E+02  0.28071764138E+02  0.14238171496E+03  0.14922950802E+03  0.00000000000E+00 0. -1.
         13    1    3    3    0    0  0.34768798758E+02 -0.28071764138E+02  0.17379298747E+03  0.17944608048E+03  0.00000000000E+00 0.  1.
<mgrwt>
<rscale>  0 0.89784186E+02</rscale>
<asrwt>0</asrwt>
<pdfrwt beam="2">  1        1 0.96160687E-03 0.89784186E+02</pdfrwt>
<pdfrwt beam="1">  1       -1 0.49603856E-01 0.89784186E+02</pdfrwt>
<totfact> 0.61255788E+04</totfact>
</mgrwt>
</event>
<event>
 5    1  0.1242969E+001  0.1056428E+03  0.7546771E-02  0.1268858E+00
         -2   -1    0    0    0  501 -0.00000000000E+00  0.00000000000E+00  0.78410910956E+01  0.78410910956E+01  0.00000000000E+00 0.  1.
          2   -1    0    0  501    0  0.00000000000E+00 -0.00000000000E+00 -0.35583033935E+03  0.35583033935E+03  0.00000000000E+00 0. -1.
         23    2    1    2    0    0  0.00000000000E+00  0.00000000000E+00 -0.34798924826E+03  0.36367143045E+03  0.10564275849E+03 0.  0.
        -11    1    3    3    0    0  0.11230406470E+02  0.50196520775E+02 -0.21534510961E+03  0.22140309158E+03  0.00000000000E+00 0.  1.
         11    1    3    3    0    0 -0.11230406470E+02 -0.50196520775E+02 -0.13264413865E+03  0.14226833887E+03  0.00000000000E+00 0. -1.
<mgrwt>
<rscale>  0 0.10564276E+03</rscale>
<asrwt>0</asrwt>
<pdfrwt beam="2">  1        2 0.54743128E-01 0.10564276E+03</pdfrwt>
<pdfrwt beam="1">  1       -2 0.12063217E-02 0.10564276E+03</pdfrwt>
<totfact> 0.12891367E+05</totfact>
</mgrwt>
</event>
<event>
 5    1  0.1242969E+001  0.9299262E+02  0.7546771E-02  0.1295762E+00
          1   -1    0    0  501    0  0.00000000000E+00  0.00000000000E+00  0.18800801825E+03  0.18800801825E+03  0.00000000000E+00 0. -1.
         -1   -1    0    0    0  501 -0.00000000000E+00 -0.00000000000E+00 -0.11499014975E+02  0.11499014975E+02  0.00000000000E+00 0.  1.
         23    2    1    2    0    0  0.00000000000E+00  0.00000000000E+00  0.17650900327E+03  0.19950703322E+03  0.92992623736E+02 0.  0.
        -11    1    3    3    0    0  0.43821559330E+02 -0.55216781264E+01  0.57084090040E+02  0.72176251823E+02  0.00000000000E+00 0.  1.
         11    1    3    3    0    0 -0.43821559330E+02  0.55216781264E+01  0.11942491323E+03  0.12733078140E+03  0.00000000000E+00 0. -1.
<mgrwt>
<rscale>  0 0.92992624E+02</rscale>
<asrwt>0</asrwt>
<pdfrwt beam="1">  1        1 0.28924308E-01 0.92992624E+02</pdfrwt>
<pdfrwt beam="2">  1       -1 0.17690794E-02 0.92992624E+02</pdfrwt>
<totfact> 0.11095511E+05</totfact>
</mgrwt>
</event>
<event>
 5    1  0.1242969E+001  0.9399297E+02  0.7546771E-02  0.1293460E+00
          2   -1    0    0  501    0  0.00000000000E+00  0.00000000000E+00  0.60630417547E+02  0.60630417547E+02  0.00000000000E+00 0. -1.
         -2   -1    0    0    0  501 -0.00000000000E+00 -0.00000000000E+00 -0.36428407980E+02  0.36428407980E+02  0.00000000000E+00 0.  1.
         23    2    1    2    0    0  0.00000000000E+00  0.00000000000E+00  0.24202009566E+02  0.97058825527E+02  0.93992969660E+02 0.  0.
        -13    1    3    3    0    0  0.46062254701E+02  0.31359024359E+01  0.30336788926E+01  0.46268438486E+02  0.00000000000E+00 0.  1.
         13    1    3    3    0    0 -0.46062254701E+02 -0.31359024359E+01  0.21168330674E+02  0.50790387041E+02  0.00000000000E+00 0. -1.
<mgrwt>
<rscale>  0 0.93992970E+02</rscale>
<asrwt>0</asrwt>
<pdfrwt beam="1">  1        2 0.93277565E-02 0.93992970E+02</pdfrwt>
<pdfrwt beam="2">  1       -2 0.56043705E-02 0.93992970E+02</pdfrwt>
<totfact> 0.97595932E+04</totfact>
</mgrwt>
</event>
<event>
 5    1  0.1242969E+001  0.9133247E+02  0.7546771E-02  0.1299657E+00
          1   -1    0    0  501    0  0.00000000000E+00  0.00000000000E+00  0.45555776431E+02  0.45555776431E+02  0.00000000000E+00 0. -1.
         -1   -1    0    0    0  501 -0.00000000000E+00 -0.00000000000E+00 -0.45776960790E+02  0.45776960790E+02  0.00000000000E+00 0.  1.
         23    2    1    2    0    0  0.00000000000E+00  0.00000000000E+00 -0.22118435949E+00  0.91332737221E+02  0.91332469394E+02 0.  0.
        -13    1    3    3    0    0  0.55379346828E+01 -0.44922040052E+02 -0.61725063940E+01  0.45681049005E+02  0.00000000000E+00 0.  1.
         13    1    3    3    0    0 -0.55379346828E+01  0.44922040052E+02  0.59513220345E+01  0.45651688216E+02  0.00000000000E+00 0. -1.
<mgrwt>
<rscale>  0 0.91332469E+02</rscale>
<asrwt>0</asrwt>
<pdfrwt beam="1">  1        1 0.70085810E-02 0.91332469E+02</pdfrwt>
<pdfrwt beam="2">  1       -1 0.70426094E-02 0.91332469E+02</pdfrwt>
<totfact> 0.92020241E+04</totfact>
</mgrwt>
</event>
<event>
 5    1  0.1242969E+001  0.9176290E+02  0.7546771E-02  0.1298638E+00
         -2   -1    0    0    0  501 -0.00000000000E+00  0.00000000000E+00  0.24330219212E+03  0.24330219212E+03  0.00000000000E+00 0. -1.
          2   -1    0    0  501    0  0.00000000000E+00 -0.00000000000E+00 -0.86522341948E+01  0.86522341948E+01  0.00000000000E+00 0.  1.
         23    2    1    2    0    0  0.00000000000E+00  0.00000000000E+00  0.23464995792E+03  0.25195442631E+03  0.91762902009E+02 0.  0.
        -11    1    3    3    0    0  0.41216353450E+02 -0.19374348155E+02  0.10204875682E+03  0.11175017641E+03  0.00000000000E+00 0.  1.
         11    1    3    3    0    0 -0.41216353450E+02  0.19374348155E+02  0.13260120110E+03  0.14020424990E+03  0.00000000000E+00 0. -1.
<mgrwt>
<rscale>  0 0.91762902E+02</rscale>
<asrwt>0</asrwt>
<pdfrwt beam="2">  1        2 0.13311131E-02 0.91762902E+02</pdfrwt>
<pdfrwt beam="1">  1       -2 0.37431101E-01 0.91762902E+02</pdfrwt>
<totfact> 0.56007828E+04</totfact>
</mgrwt>
</event>
<event>
 5    1  0.1242969E+001  0.9239018E+02  0.7546771E-02  0.1297165E+00
         -3   -1    0    0    0  501 -0.00000000000E+00  0.00000000000E+00  0.12017992341E+02  0.12017992341E+02  0.00000000000E+00 0.  1.
          3   -1    0    0  501    0  0.00000000000E+00 -0.00000000000E+00 -0.17756595427E+03  0.17756595427E+03  0.00000000000E+00 0. -1.
         23    2    1    2    0    0  0.00000000000E+00  0.00000000000E+00 -0.16554796193E+03  0.18958394662E+03  0.92390178667E+02 0.  0.
        -13    1    3    3    0    0 -0.22279772936E+02  0.40225886709E+02 -0.91829764341E+02  0.10269963906E+03  0.00000000000E+00 0.  1.
         13    1    3    3    0    0  0.22279772936E+02 -0.40225886709E+02 -0.73718197593E+02  0.86884307559E+02  0.00000000000E+00 0. -1.
<mgrwt>
<rscale>  0 0.92390179E+02</rscale>
<asrwt>0</asrwt>
<pdfrwt beam="2">  1        3 0.27317836E-01 0.92390179E+02</pdfrwt>
<pdfrwt beam="1">  1       -3 0.18489221E-02 0.92390179E+02</pdfrwt>
<totfact> 0.28025620E+04</totfact>
</mgrwt>
</event>
<event>
 5    1  0.1242969E+001  0.9147243E+02  0.7546771E-02  0.1299325E+00
          1   -1    0    0  501    0  0.00000000000E+00  0.00000000000E+00  0.28904947089E+03  0.28904947089E+03  0.00000000000E+00 0. -1.
         -1   -1    0    0    0  501 -0.00000000000E+00 -0.00000000000E+00 -0.72368277722E+01  0.72368277722E+01  0.00000000000E+00 0.  1.
         23    2    1    2    0    0  0.00000000000E+00  0.00000000000E+00  0.28181264312E+03  0.29628629866E+03  0.91472427288E+02 0.  0.
        -11    1    3    3    0    0  0.27914830240E+02 -0.36056672386E+02  0.12946367842E+03  0.13725948200E+03  0.00000000000E+00 0.  1.
         11    1    3    3    0    0 -0.27914830240E+02  0.36056672386E+02  0.15234896470E+03  0.15902681666E+03  0.00000000000E+00 0. -1.
<mgrwt>
<rscale>  0 0.91472427E+02</rscale>
<asrwt>0</asrwt>
<pdfrwt beam="1">  1        1 0.44469141E-01 0.91472427E+02</pdfrwt>
<pdfrwt beam="2">  1       -1 0.11133583E-02 0.91472427E+02</pdfrwt>
<totfact> 0.12611851E+05</totfact>
</mgrwt>
</event>
<event>
 5    1  0.1242969E+001  0.9013076E+02  0.7546771E-02  0.1302535E+00
         -1   -1    0    0    0  501 -0.00000000000E+00  0.00000000000E+00  0.10930856604E+02  0.10930856604E+02  0.00000000000E+00 0. -1.
          1   -1    0    0  501    0  0.00000000000E+00 -0.00000000000E+00 -0.18579409704E+03  0.18579409704E+03  0.00000000000E+00 0.  1.
         23    2    1    2    0    0  0.00000000000E+00  0.00000000000E+00 -0.17486324043E+03  0.19672495364E+03  0.90130763508E+02 0.  0.
        -11    1    3    3    0    0  0.50853642063E+01 -0.44581711298E+02 -0.96562015051E+02  0.10647822623E+03  0.00000000000E+00 0.  1.
         11    1    3    3    0    0 -0.50853642063E+01  0.44581711298E+02 -0.78301225382E+02  0.90246727407E+02  0.00000000000E+00 0. -1.
<mgrwt>
<rscale>  0 0.90130764E+02</rscale>
<asrwt>0</asrwt>
<pdfrwt beam="2">  1        1 0.28583706E-01 0.90130764E+02</pdfrwt>
<pdfrwt beam="1">  1       -1 0.16816703E-02 0.90130764E+02</pdfrwt>
<totfact> 0.12040267E+05</totfact>
</mgrwt>
</event>
<event>
 5    1  0.1242969E+001  0.9040436E+02  0.7546771E-02  0.1301875E+00
          2   -1    0    0  501    0  0.00000000000E+00  0.00000000000E+00  0.19524019911E+03  0.19524019911E+03  0.00000000000E+00 0.  1.
         -2   -1    0    0    0  501 -0.00000000000E+00 -0.00000000000E+00 -0.10465246773E+02  0.10465246773E+02  0.00000000000E+00 0. -1.
         23    2    1    2    0    0  0.00000000000E+00  0.00000000000E+00  0.18477495233E+03  0.20570544588E+03  0.90404355287E+02 0.  0.
        -11    1    3    3    0    0 -0.24449634164E+02  0.19362807752E+02  0.16683609653E+03  0.16972620906E+03  0.00000000000E+00 0.  1.
         11    1    3    3    0    0  0.24449634164E+02 -0.19362807752E+02  0.17938855799E+02  0.35979236821E+02  0.00000000000E+00 0. -1.
<mgrwt>
<rscale>  0 0.90404355E+02</rscale>
<asrwt>0</asrwt>
<pdfrwt beam="1">  1        2 0.30036951E-01 0.90404355E+02</pdfrwt>
<pdfrwt beam="2">  1       -2 0.16100381E-02 0.90404355E+02</pdfrwt>
<totfact> 0.15689247E+05</totfact>
</mgrwt>
</event>
<event>
 5    1  0.1242969E+001  0.8956430E+02  0.7546771E-02  0.1303910E+00
          1   -1    0    0  501    0  0.00000000000E+00  0.00000000000E+00  0.28034723331E+03  0.28034723331E+03  0.00000000000E+00 0. -1.
         -1   -1    0    0    0  501 -0.00000000000E+00 -0.00000000000E+00 -0.71534183826E+01  0.71534183826E+01  0.00000000000E+00 0.  1.
         23    2    1    2    0    0  0.00000000000E+00  0.00000000000E+00  0.27319381493E+03  0.28750065170E+03  0.89564302092E+02 0.  0.
        -11    1    3    3    0    0  0.42924400154E+02  0.12671032180E+02  0.14155098344E+03  0.14845787314E+03  0.00000000000E+00 0.  1.
         11    1    3    3    0    0 -0.42924400154E+02 -0.12671032180E+02  0.13164283149E+03  0.13904277855E+03  0.00000000000E+00 0. -1.
<mgrwt>
<rscale>  0 0.89564302E+02</rscale>
<asrwt>0</asrwt>
<pdfrwt beam="1">  1        1 0.43130335E-01 0.89564302E+02</pdfrwt>
<pdfrwt beam="2">  1       -1 0.11005261E-02 0.89564302E+02</pdfrwt>
<totfact> 0.13261816E+05</totfact>
</mgrwt>
</event>
<event>
 5    1  0.1242969E+001  0.9308598E+02  0.7546771E-02  0.1295546E+00
          3   -1    0    0  501    0  0.00000000000E+00  0.00000000000E+00  0.41115803239E+02  0.41115803239E+02  0.00000000000E+00 0. -1.
         -3   -1    0    0    0  501 -0.00000000000E+00 -0.00000000000E+00 -0.52686548244E+02  0.52686548244E+02  0.00000000000E+00 0.  1.
         23    2    1    2    0    0  0.00000000000E+00  0.00000000000E+00 -0.11570745005E+02  0.93802351483E+02  0.93085976408E+02 0.  0.
        -13    1    3    3    0    0 -0.33708460277E+01  0.12947272582E+02  0.39136339262E+02  0.41359974868E+02  0.00000000000E+00 0. -1.
         13    1    3    3    0    0  0.33708460277E+01 -0.12947272582E+02 -0.50707084267E+02  0.52442376616E+02  0.00000000000E+00 0.  1.
<mgrwt>
<rscale>  0 0.93085976E+02</rscale>
<asrwt>0</asrwt>
<pdfrwt beam="1">  1        3 0.63255082E-02 0.93085976E+02</pdfrwt>
<pdfrwt beam="2">  1       -3 0.81056228E-02 0.93085976E+02</pdfrwt>
<totfact> 0.33204576E+04</totfact>
</mgrwt>
</event>
<event>
 5    1  0.1242969E+001  0.8364299E+02  0.7546771E-02  0.1319020E+00
          1   -1    0    0  501    0  0.00000000000E+00  0.00000000000E+00  0.14350498000E+03  0.14350498000E+03  0.00000000000E+00 0. -1.
         -1   -1    0    0    0  501 -0.00000000000E+00 -0.00000000000E+00 -0.12187991217E+02  0.12187991217E+02  0.00000000000E+00 0.  1.
         23    2    1    2    0    0  0.00000000000E+00  0.00000000000E+00  0.13131698879E+03  0.15569297122E+03  0.83642989804E+02 0.  0.
        -13    1    3    3    0    0 -0.12577900479E+02  0.23529719130E+02  0.57114441914E+01  0.27285011592E+02  0.00000000000E+00 0.  1.
         13    1    3    3    0    0  0.12577900479E+02 -0.23529719130E+02  0.12560554460E+03  0.12840795963E+03  0.00000000000E+00 0. -1.
<mgrwt>
<rscale>  0 0.83642990E+02</rscale>
<asrwt>0</asrwt>
<pdfrwt beam="1">  1        1 0.22077688E-01 0.83642990E+02</pdfrwt>
<pdfrwt beam="2">  1       -1 0.18750757E-02 0.83642990E+02</pdfrwt>
<totfact> 0.14021050E+05</totfact>
</mgrwt>
</event>
<event>
 5    1  0.1242969E+001  0.9262973E+02  0.7546771E-02  0.1296606E+00
          2   -1    0    0  501    0  0.00000000000E+00  0.00000000000E+00  0.11205733633E+02  0.11205733633E+02  0.00000000000E+00 0. -1.
         -2   -1    0    0    0  501 -0.00000000000E+00 -0.00000000000E+00 -0.19142583789E+03  0.19142583789E+03  0.00000000000E+00 0.  1.
         23    2    1    2    0    0  0.00000000000E+00  0.00000000000E+00 -0.18022010425E+03  0.20263157152E+03  0.92629734962E+02 0.  0.
        -11    1    3    3    0    0  0.18349740677E+02  0.41986845661E+02 -0.75360953630E+02  0.88197967797E+02  0.00000000000E+00 0.  1.
         11    1    3    3    0    0 -0.18349740677E+02 -0.41986845661E+02 -0.10485915062E+03  0.11443360372E+03  0.00000000000E+00 0. -1.
<mgrwt>
<rscale>  0 0.92629735E+02</rscale>
<asrwt>0</asrwt>
<pdfrwt beam="1">  1        2 0.17239591E-02 0.92629735E+02</pdfrwt>
<pdfrwt beam="2">  1       -2 0.29450127E-01 0.92629735E+02</pdfrwt>
<totfact> 0.60984553E+04</totfact>
</mgrwt>
</event>
<event>
 5    1  0.1242969E+001  0.9068408E+02  0.7546771E-02  0.1301203E+00
         -1   -1    0    0    0  501 -0.00000000000E+00  0.00000000000E+00  0.12094012256E+03  0.12094012256E+03  0.00000000000E+00 0.  1.
          1   -1    0    0  501    0  0.00000000000E+00 -0.00000000000E+00 -0.16999327921E+02  0.16999327921E+02  0.00000000000E+00 0. -1.
         23    2    1    2    0    0  0.00000000000E+00  0.00000000000E+00  0.10394079464E+03  0.13793945048E+03  0.90684084648E+02 0.  0.
        -13    1    3    3    0    0 -0.14400215909E+01 -0.20365027645E+02  0.11355316279E+03  0.11537386529E+03  0.00000000000E+00 0.  1.
         13    1    3    3    0    0  0.14400215909E+01  0.20365027645E+02 -0.96123681539E+01  0.22565585184E+02  0.00000000000E+00 0. -1.
<mgrwt>
<rscale>  0 0.90684085E+02</rscale>
<asrwt>0</asrwt>
<pdfrwt beam="2">  1        1 0.26152813E-02 0.90684085E+02</pdfrwt>
<pdfrwt beam="1">  1       -1 0.18606172E-01 0.90684085E+02</pdfrwt>
<totfact> 0.79510899E+04</totfact>
</mgrwt>
</event>
<event>
 5    1  0.1242969E+001  0.9169996E+02  0.7546771E-02  0.1298786E+00
         -1   -1    0    0    0  501 -0.00000000000E+00  0.00000000000E+00  0.10364156188E+02  0.10364156188E+02  0.00000000000E+00 0.  1.
          1   -1    0    0  501    0  0.00000000000E+00 -0.00000000000E+00 -0.20283567083E+03  0.20283567083E+03  0.00000000000E+00 0. -1.
         23    2    1    2    0    0  0.00000000000E+00  0.00000000000E+00 -0.19247151464E+03  0.21319982702E+03  0.91699957973E+02 0.  0.
        -11    1    3    3    0    0  0.38599964367E+02 -0.89276842945E+01 -0.14988973107E+03  0.15503738993E+03  0.00000000000E+00 0.  1.
         11    1    3    3    0    0 -0.38599964367E+02  0.89276842945E+01 -0.42581783572E+02  0.58162437089E+02  0.00000000000E+00 0. -1.
<mgrwt>
<rscale>  0 0.91699958E+02</rscale>
<asrwt>0</asrwt>
<pdfrwt beam="2">  1        1 0.31205490E-01 0.91699958E+02</pdfrwt>
<pdfrwt beam="1">  1       -1 0.15944854E-02 0.91699958E+02</pdfrwt>
<totfact> 0.11692071E+05</totfact>
</mgrwt>
</event>
<event>
 5    1  0.1242969E+001  0.9189398E+02  0.7546771E-02  0.1298329E+00
         -3   -1    0    0    0  501 -0.00000000000E+00  0.00000000000E+00  0.88399793820E+02  0.88399793820E+02  0.00000000000E+00 0.  1.
          3   -1    0    0  501    0  0.00000000000E+00 -0.00000000000E+00 -0.23881569689E+02  0.23881569689E+02  0.00000000000E+00 0. -1.
         23    2    1    2    0    0  0.00000000000E+00  0.00000000000E+00  0.64518224131E+02  0.11228136351E+03  0.91893978837E+02 0.  0.
        -13    1    3    3    0    0  0.25326491271E+02  0.18867300097E+02  0.73035482468E+02  0.79571275423E+02  0.00000000000E+00 0.  1.
         13    1    3    3    0    0 -0.25326491271E+02 -0.18867300097E+02 -0.85172583367E+01  0.32710088087E+02  0.00000000000E+00 0. -1.
<mgrwt>
<rscale>  0 0.91893979E+02</rscale>
<asrwt>0</asrwt>
<pdfrwt beam="2">  1        3 0.36740877E-02 0.91893979E+02</pdfrwt>
<pdfrwt beam="1">  1       -3 0.13599968E-01 0.91893979E+02</pdfrwt>
<totfact> 0.33071222E+04</totfact>
</mgrwt>
</event>
<event>
 5    1  0.1242969E+001  0.8957683E+02  0.7546771E-02  0.1303880E+00
         -2   -1    0    0    0  501 -0.00000000000E+00  0.00000000000E+00  0.69841398969E+02  0.69841398969E+02  0.00000000000E+00 0.  1.
          2   -1    0    0  501    0  0.00000000000E+00 -0.00000000000E+00 -0.28722249098E+02  0.28722249098E+02  0.00000000000E+00 0. -1.
         23    2    1    2    0    0  0.00000000000E+00  0.00000000000E+00  0.41119149871E+02  0.98563648067E+02  0.89576828668E+02 0.  0.
        -11    1    3    3    0    0  0.41689713032E+02  0.14041044104E+02  0.29819252803E+02  0.53144810941E+02  0.00000000000E+00 0. -1.
         11    1    3    3    0    0 -0.41689713032E+02 -0.14041044104E+02  0.11299897067E+02  0.45418837127E+02  0.00000000000E+00 0.  1.
<mgrwt>
<rscale>  0 0.89576829E+02</rscale>
<asrwt>0</asrwt>
<pdfrwt beam="2">  1        2 0.44188076E-02 0.89576829E+02</pdfrwt>
<pdfrwt beam="1">  1       -2 0.10744831E-01 0.89576829E+02</pdfrwt>
<totfact> 0.92161576E+04</totfact>
</mgrwt>
</event>
<event>
 5    1  0.1242969E+001  0.8648256E+02  0.7546771E-02  0.1311600E+00
         -2   -1    0    0    0  501 -0.00000000000E+00  0.00000000000E+00  0.47229264086E+01  0.47229264086E+01  0.00000000000E+00 0.  1.
          2   -1    0    0  501    0  0.00000000000E+00 -0.00000000000E+00 -0.39590038889E+03  0.39590038889E+03  0.00000000000E+00 0. -1.
         23    2    1    2    0    0  0.00000000000E+00  0.00000000000E+00 -0.39117746248E+03  0.40062331530E+03  0.86482562447E+02 0.  0.
        -13    1    3    3    0    0  0.37672370148E+02  0.18389418603E+02 -0.14646976845E+03  0.15235081640E+03  0.00000000000E+00 0.  1.
         13    1    3    3    0    0 -0.37672370148E+02 -0.18389418603E+02 -0.24470769403E+03  0.24827249890E+03  0.00000000000E+00 0. -1.
<mgrwt>
<rscale>  0 0.86482562E+02</rscale>
<asrwt>0</asrwt>
<pdfrwt beam="2">  1        2 0.60907767E-01 0.86482562E+02</pdfrwt>
<pdfrwt beam="1">  1       -2 0.72660388E-03 0.86482562E+02</pdfrwt>
<totfact> 0.22875499E+05</totfact>
</mgrwt>
</event>
<event>
 5    1  0.1242969E+001  0.9156384E+02  0.7546771E-02  0.1299108E+00
          2   -1    0    0  501    0  0.00000000000E+00  0.00000000000E+00  0.27880616487E+02  0.27880616487E+02  0.00000000000E+00 0. -1.
         -2   -1    0    0    0  501 -0.00000000000E+00 -0.00000000000E+00 -0.75177117602E+02  0.75177117602E+02  0.00000000000E+00 0.  1.
         23    2    1    2    0    0  0.00000000000E+00  0.00000000000E+00 -0.47296501115E+02  0.10305773409E+03  0.91563844053E+02 0.  0.
        -13    1    3    3    0    0  0.26240587741E+02 -0.34967223505E+02 -0.38945060100E+02  0.58549063791E+02  0.00000000000E+00 0.  1.
         13    1    3    3    0    0 -0.26240587741E+02  0.34967223505E+02 -0.83514410150E+01  0.44508670297E+02  0.00000000000E+00 0. -1.
<mgrwt>
<rscale>  0 0.91563844E+02</rscale>
<asrwt>0</asrwt>
<pdfrwt beam="1">  1        2 0.42893257E-02 0.91563844E+02</pdfrwt>
<pdfrwt beam="2">  1       -2 0.11565710E-01 0.91563844E+02</pdfrwt>
<totfact> 0.85646993E+04</totfact>
</mgrwt>
</event>
<event>
 5    1  0.1242969E+001  0.9110977E+02  0.7546771E-02  0.1300186E+00
         -2   -1    0    0    0  501 -0.00000000000E+00  0.00000000000E+00  0.45937650118E+02  0.45937650118E+02  0.00000000000E+00 0.  1.
          2   -1    0    0  501    0  0.00000000000E+00 -0.00000000000E+00 -0.45175312709E+02  0.45175312709E+02  0.00000000000E+00 0. -1.
         23    2    1    2    0    0  0.00000000000E+00  0.00000000000E+00  0.76233740883E+00  0.91112962828E+02  0.91109773553E+02 0.  0.
        -11    1    3    3    0    0 -0.58899784854E+01 -0.45006325354E+02  0.42525496010E+01  0.45588873056E+02  0.00000000000E+00 0.  1.
         11    1    3    3    0    0  0.58899784854E+01  0.45006325354E+02 -0.34902121922E+01  0.45524089772E+02  0.00000000000E+00 0. -1.
<mgrwt>
<rscale>  0 0.91109774E+02</rscale>
<asrwt>0</asrwt>
<pdfrwt beam="2">  1        2 0.69500481E-02 0.91109774E+02</pdfrwt>
<pdfrwt beam="1">  1       -2 0.70673308E-02 0.91109774E+02</pdfrwt>
<totfact> 0.98650206E+04</totfact>
</mgrwt>
</event>
<event>
 5    1  0.1242969E+001  0.9052603E+02  0.7546771E-02  0.1301583E+00
         -2   -1    0    0    0  501 -0.00000000000E+00  0.00000000000E+00  0.34632349034E+02  0.34632349034E+02  0.00000000000E+00 0.  1.
          2   -1    0    0  501    0  0.00000000000E+00 -0.00000000000E+00 -0.59156845900E+02  0.59156845900E+02  0.00000000000E+00 0. -1.
         23    2    1    2    0    0  0.00000000000E+00  0.00000000000E+00 -0.24524496866E+02  0.93789194935E+02  0.90526030179E+02 0.  0.
        -11    1    3    3    0    0 -0.24898707217E+02  0.15429980166E+02  0.23488278465E+02  0.37546359800E+02  0.00000000000E+00 0.  1.
         11    1    3    3    0    0  0.24898707217E+02 -0.15429980166E+02 -0.48012775331E+02  0.56242835135E+02  0.00000000000E+00 0. -1.
<mgrwt>
<rscale>  0 0.90526030E+02</rscale>
<asrwt>0</asrwt>
<pdfrwt beam="2">  1        2 0.91010532E-02 0.90526030E+02</pdfrwt>
<pdfrwt beam="1">  1       -2 0.53280537E-02 0.90526030E+02</pdfrwt>
<totfact> 0.10782376E+05</totfact>
</mgrwt>
</event>
<event>
 5    1  0.1242969E+001  0.9374821E+02  0.7546771E-02  0.1294021E+00
         -2   -1    0    0    0  501 -0.00000000000E+00  0.00000000000E+00  0.32705756261E+02  0.32705756261E+02  0.00000000000E+00 0.  1.
          2   -1    0    0  501    0  0.00000000000E+00 -0.00000000000E+00 -0.67180276271E+02  0.67180276271E+02  0.00000000000E+00 0. -1.
         23    2    1    2    0    0  0.00000000000E+00  0.00000000000E+00 -0.34474520010E+02  0.99886032532E+02  0.93748210463E+02 0.  0.
        -11    1    3    3    0    0 -0.10476996577E+02 -0.44497004474E+02 -0.61937701363E+01  0.46131482233E+02  0.00000000000E+00 0.  1.
         11    1    3    3    0    0  0.10476996577E+02  0.44497004474E+02 -0.28280749874E+02  0.53754550299E+02  0.00000000000E+00 0. -1.
<mgrwt>
<rscale>  0 0.93748210E+02</rscale>
<asrwt>0</asrwt>
<pdfrwt beam="2">  1        2 0.10335427E-01 0.93748210E+02</pdfrwt>
<pdfrwt beam="1">  1       -2 0.50316549E-02 0.93748210E+02</pdfrwt>
<totfact> 0.10114245E+05</totfact>
</mgrwt>
</event>
<event>
 5    1  0.1242969E+001  0.8713924E+02  0.7546771E-02  0.1309931E+00
         -2   -1    0    0    0  501 -0.00000000000E+00  0.00000000000E+00  0.20254615789E+03  0.20254615789E+03  0.00000000000E+00 0.  1.
          2   -1    0    0  501    0  0.00000000000E+00 -0.00000000000E+00 -0.93722419190E+01  0.93722419190E+01  0.00000000000E+00 0. -1.
         23    2    1    2    0    0  0.00000000000E+00  0.00000000000E+00  0.19317391597E+03  0.21191839980E+03  0.87139235513E+02 0.  0.
        -13    1    3    3    0    0 -0.17142257380E+02 -0.37607283635E+02  0.13012204634E+03  0.13652806200E+03  0.00000000000E+00 0.  1.
         13    1    3    3    0    0  0.17142257380E+02  0.37607283635E+02  0.63051869626E+02  0.75390337802E+02  0.00000000000E+00 0. -1.
<mgrwt>
<rscale>  0 0.87139236E+02</rscale>
<asrwt>0</asrwt>
<pdfrwt beam="2">  1        2 0.14418835E-02 0.87139236E+02</pdfrwt>
<pdfrwt beam="1">  1       -2 0.31160944E-01 0.87139236E+02</pdfrwt>
<totfact> 0.69568218E+04</totfact>
</mgrwt>
</event>
<event>
 5    1  0.1242969E+001  0.9000702E+02  0.7546771E-02  0.1302835E+00
         -2   -1    0    0    0  501 -0.00000000000E+00  0.00000000000E+00  0.53907902966E+02  0.53907902966E+02  0.00000000000E+00 0.  1.
          2   -1    0    0  501    0  0.00000000000E+00 -0.00000000000E+00 -0.37569921889E+02  0.37569921889E+02  0.00000000000E+00 0. -1.
         23    2    1    2    0    0  0.00000000000E+00  0.00000000000E+00  0.16337981077E+02  0.91477824855E+02  0.90007015363E+02 0.  0.
        -13    1    3    3    0    0  0.30972060110E+02 -0.32641376931E+02  0.89481392481E+01  0.45878068741E+02  0.00000000000E+00 0.  1.
         13    1    3    3    0    0 -0.30972060110E+02  0.32641376931E+02  0.73898418288E+01  0.45599756114E+02  0.00000000000E+00 0. -1.
<mgrwt>
<rscale>  0 0.90007015E+02</rscale>
<asrwt>0</asrwt>
<pdfrwt beam="2">  1        2 0.57799880E-02 0.90007015E+02</pdfrwt>
<pdfrwt beam="1">  1       -2 0.82935235E-02 0.90007015E+02</pdfrwt>
<totfact> 0.97438708E+04</totfact>
</mgrwt>
</event>
<event>
 5    1  0.1242969E+001  0.9299661E+02  0.7546771E-02  0.1295753E+00
         -1   -1    0    0    0  501 -0.00000000000E+00  0.00000000000E+00  0.11709381558E+02  0.11709381558E+02  0.00000000000E+00 0.  1.
          1   -1    0    0  501    0  0.00000000000E+00 -0.00000000000E+00 -0.18464615609E+03  0.18464615609E+03  0.00000000000E+00 0. -1.
         23    2    1    2    0    0  0.00000000000E+00  0.00000000000E+00 -0.17293677453E+03  0.19635553764E+03  0.92996608430E+02 0.  0.
        -13    1    3    3    0    0 -0.12713962527E+02 -0.28127232494E+02 -0.13043347357E+02  0.33509923324E+02  0.00000000000E+00 0.  1.
         13    1    3    3    0    0  0.12713962527E+02  0.28127232494E+02 -0.15989342717E+03  0.16284561432E+03  0.00000000000E+00 0. -1.
<mgrwt>
<rscale>  0 0.92996608E+02</rscale>
<asrwt>0</asrwt>
<pdfrwt beam="2">  1        1 0.28407100E-01 0.92996608E+02</pdfrwt>
<pdfrwt beam="1">  1       -1 0.18014434E-02 0.92996608E+02</pdfrwt>
<totfact> 0.11055601E+05</totfact>
</mgrwt>
</event>
<event>
 5    1  0.1242969E+001  0.9819944E+02  0.7546771E-02  0.1284128E+00
         -1   -1    0    0    0  501 -0.00000000000E+00  0.00000000000E+00  0.57380084767E+03  0.57380084767E+03  0.00000000000E+00 0.  1.
          1   -1    0    0  501    0  0.00000000000E+00 -0.00000000000E+00 -0.42014272598E+01  0.42014272598E+01  0.00000000000E+00 0. -1.
         23    2    1    2    0    0  0.00000000000E+00  0.00000000000E+00  0.56959942041E+03  0.57800227493E+03  0.98199440388E+02 0.  0.
        -11    1    3    3    0    0  0.53756747558E+01 -0.48804296567E+02  0.28573557777E+03  0.28992339961E+03  0.00000000000E+00 0.  1.
         11    1    3    3    0    0 -0.53756747558E+01  0.48804296567E+02  0.28386384264E+03  0.28807887532E+03  0.00000000000E+00 0. -1.
<mgrwt>
<rscale>  0 0.98199440E+02</rscale>
<asrwt>0</asrwt>
<pdfrwt beam="2">  1        1 0.64637388E-03 0.98199440E+02</pdfrwt>
<pdfrwt beam="1">  1       -1 0.88276991E-01 0.98199440E+02</pdfrwt>
<totfact> 0.35343075E+04</totfact>
</mgrwt>
</event>
<event>
 5    1  0.1242969E+001  0.9224185E+02  0.7546771E-02  0.1297512E+00
         -2   -1    0    0    0  501 -0.00000000000E+00  0.00000000000E+00  0.81490940876E+02  0.81490940876E+02  0.00000000000E+00 0.  1.
          2   -1    0    0  501    0  0.00000000000E+00 -0.00000000000E+00 -0.26102776580E+02  0.26102776580E+02  0.00000000000E+00 0. -1.
         23    2    1    2    0    0  0.00000000000E+00  0.00000000000E+00  0.55388164296E+02  0.10759371746E+03  0.92241852170E+02 0.  0.
        -13    1    3    3    0    0 -0.17356837412E+02 -0.18085785715E+02  0.72851435100E+02  0.77043410140E+02  0.00000000000E+00 0.  1.
         13    1    3    3    0    0  0.17356837412E+02  0.18085785715E+02 -0.17463270804E+02  0.30550307315E+02  0.00000000000E+00 0. -1.
<mgrwt>
<rscale>  0 0.92241852E+02</rscale>
<asrwt>0</asrwt>
<pdfrwt beam="2">  1        2 0.40158118E-02 0.92241852E+02</pdfrwt>
<pdfrwt beam="1">  1       -2 0.12537068E-01 0.92241852E+02</pdfrwt>
<totfact> 0.82259221E+04</totfact>
</mgrwt>
</event>
<event>
 5    1  0.1242969E+001  0.9280568E+02  0.7546771E-02  0.1296196E+00
          2   -1    0    0  501    0  0.00000000000E+00  0.00000000000E+00  0.35489086662E+03  0.35489086662E+03  0.00000000000E+00 0. -1.
         -2   -1    0    0    0  501 -0.00000000000E+00 -0.00000000000E+00 -0.60672832850E+01  0.60672832850E+01  0.00000000000E+00 0.  1.
         23    2    1    2    0    0  0.00000000000E+00  0.00000000000E+00  0.34882358333E+03  0.36095814990E+03  0.92805677046E+02 0.  0.
        -13    1    3    3    0    0  0.42800073427E+02  0.14005213371E+02  0.21793676050E+03  0.22254083640E+03  0.00000000000E+00 0.  1.
         13    1    3    3    0    0 -0.42800073427E+02 -0.14005213371E+02  0.13088682283E+03  0.13841731350E+03  0.00000000000E+00 0. -1.
<mgrwt>
<rscale>  0 0.92805677E+02</rscale>
<asrwt>0</asrwt>
<pdfrwt beam="1">  1        2 0.54598579E-01 0.92805677E+02</pdfrwt>
<pdfrwt beam="2">  1       -2 0.93342847E-03 0.92805677E+02</pdfrwt>
<totfact> 0.18235622E+05</totfact>
</mgrwt>
</event>
<event>
 5    1  0.1242969E+001  0.9091188E+02  0.7546771E-02  0.1300658E+00
          2   -1    0    0  501    0  0.00000000000E+00  0.00000000000E+00  0.34007562783E+02  0.34007562783E+02  0.00000000000E+00 0. -1.
         -2   -1    0    0    0  501 -0.00000000000E+00 -0.00000000000E+00 -0.60758324183E+02  0.60758324183E+02  0.00000000000E+00 0.  1.
         23    2    1    2    0    0  0.00000000000E+00  0.00000000000E+00 -0.26750761400E+02  0.94765886966E+02  0.90911880946E+02 0.  0.
        -13    1    3    3    0    0 -0.20685484749E+02 -0.26053861476E+02  0.18914399659E+02  0.38268100182E+02  0.00000000000E+00 0. -1.
         13    1    3    3    0    0  0.20685484749E+02  0.26053861476E+02 -0.45665161058E+02  0.56497786785E+02  0.00000000000E+00 0.  1.
<mgrwt>
<rscale>  0 0.90911881E+02</rscale>
<asrwt>0</asrwt>
<pdfrwt beam="1">  1        2 0.52319328E-02 0.90911881E+02</pdfrwt>
<pdfrwt beam="2">  1       -2 0.93474344E-02 0.90911881E+02</pdfrwt>
<totfact> 0.92231219E+04</totfact>
</mgrwt>
</event>
<event>
 5    1  0.1242969E+001  0.9510179E+02  0.7546771E-02  0.1290947E+00
          2   -1    0    0  501    0  0.00000000000E+00  0.00000000000E+00  0.12802590011E+02  0.12802590011E+02  0.00000000000E+00 0. -1.
         -2   -1    0    0    0  501 -0.00000000000E+00 -0.00000000000E+00 -0.17661173592E+03  0.17661173592E+03  0.00000000000E+00 0.  1.
         23    2    1    2    0    0  0.00000000000E+00  0.00000000000E+00 -0.16380914591E+03  0.18941432593E+03  0.95101790649E+02 0.  0.
        -13    1    3    3    0    0 -0.32015915648E+02 -0.32090911035E+02 -0.11050766057E+03  0.11944366233E+03  0.00000000000E+00 0.  1.
         13    1    3    3    0    0  0.32015915648E+02  0.32090911035E+02 -0.53301485343E+02  0.69970663607E+02  0.00000000000E+00 0. -1.
<mgrwt>
<rscale>  0 0.95101791E+02</rscale>
<asrwt>0</asrwt>
<pdfrwt beam="1">  1        2 0.19696293E-02 0.95101791E+02</pdfrwt>
<pdfrwt beam="2">  1       -2 0.27171035E-01 0.95101791E+02</pdfrwt>
<totfact> 0.58952287E+04</totfact>
</mgrwt>
</event>
<event>
 5    1  0.1242969E+001  0.9627030E+02  0.7546771E-02  0.1288340E+00
          1   -1    0    0  501    0  0.00000000000E+00  0.00000000000E+00  0.58975059436E+02  0.58975059436E+02  0.00000000000E+00 0. -1.
         -1   -1    0    0    0  501 -0.00000000000E+00 -0.00000000000E+00 -0.39287671421E+02  0.39287671421E+02  0.00000000000E+00 0.  1.
         23    2    1    2    0    0  0.00000000000E+00  0.00000000000E+00  0.19687388015E+02  0.98262730857E+02  0.96270301904E+02 0.  0.
        -13    1    3    3    0    0 -0.28664981878E+02 -0.38667047697E+02  0.94216222472E+01  0.49046801419E+02  0.00000000000E+00 0.  1.
         13    1    3    3    0    0  0.28664981878E+02  0.38667047697E+02  0.10265765768E+02  0.49215929438E+02  0.00000000000E+00 0. -1.
<mgrwt>
<rscale>  0 0.96270302E+02</rscale>
<asrwt>0</asrwt>
<pdfrwt beam="1">  1        1 0.90730860E-02 0.96270302E+02</pdfrwt>
<pdfrwt beam="2">  1       -1 0.60442572E-02 0.96270302E+02</pdfrwt>
<totfact> 0.82596800E+04</totfact>
</mgrwt>
</event>
<event>
 5    1  0.1242969E+001  0.9179928E+02  0.7546771E-02  0.1298552E+00
          4   -1    0    0  501    0  0.00000000000E+00  0.00000000000E+00  0.19874371251E+02  0.19874371251E+02  0.00000000000E+00 0.  1.
         -4   -1    0    0    0  501 -0.00000000000E+00 -0.00000000000E+00 -0.10600471777E+03  0.10600471777E+03  0.00000000000E+00 0. -1.
         23    2    1    2    0    0  0.00000000000E+00  0.00000000000E+00 -0.86130346519E+02  0.12587908902E+03  0.91799283556E+02 0.  0.
        -13    1    3    3    0    0 -0.14558075483E+02  0.33810020733E+02 -0.54690603949E+01  0.37215127104E+02  0.00000000000E+00 0.  1.
         13    1    3    3    0    0  0.14558075483E+02 -0.33810020733E+02 -0.80661286125E+02  0.88663961918E+02  0.00000000000E+00 0. -1.
<mgrwt>
<rscale>  0 0.91799284E+02</rscale>
<asrwt>0</asrwt>
<pdfrwt beam="1">  1        4 0.30575955E-02 0.91799284E+02</pdfrwt>
<pdfrwt beam="2">  1       -4 0.16308418E-01 0.91799284E+02</pdfrwt>
<totfact> 0.24488604E+04</totfact>
</mgrwt>
</event>
<event>
 5    1  0.1242969E+001  0.9041809E+02  0.7546771E-02  0.1301842E+00
          2   -1    0    0  501    0  0.00000000000E+00  0.00000000000E+00  0.50108559431E+02  0.50108559431E+02  0.00000000000E+00 0. -1.
         -2   -1    0    0    0  501 -0.00000000000E+00 -0.00000000000E+00 -0.40788594020E+02  0.40788594020E+02  0.00000000000E+00 0.  1.
         23    2    1    2    0    0  0.00000000000E+00  0.00000000000E+00  0.93199654115E+01  0.90897153451E+02  0.90418088623E+02 0.  0.
        -13    1    3    3    0    0 -0.14724309464E+02  0.36936203754E+02 -0.16966067547E+02  0.43231191112E+02  0.00000000000E+00 0.  1.
         13    1    3    3    0    0  0.14724309464E+02 -0.36936203754E+02  0.26286032959E+02  0.47665962339E+02  0.00000000000E+00 0. -1.
<mgrwt>
<rscale>  0 0.90418089E+02</rscale>
<asrwt>0</asrwt>
<pdfrwt beam="1">  1        2 0.77090091E-02 0.90418089E+02</pdfrwt>
<pdfrwt beam="2">  1       -2 0.62751683E-02 0.90418089E+02</pdfrwt>
<totfact> 0.10357013E+05</totfact>
</mgrwt>
</event>
<event>
 5    1  0.1242969E+001  0.8892525E+02  0.7546771E-02  0.1305475E+00
         -2   -1    0    0    0  501 -0.00000000000E+00  0.00000000000E+00  0.44318198238E+02  0.44318198238E+02  0.00000000000E+00 0. -1.
          2   -1    0    0  501    0  0.00000000000E+00 -0.00000000000E+00 -0.44607521074E+02  0.44607521074E+02  0.00000000000E+00 0.  1.
         23    2    1    2    0    0  0.00000000000E+00  0.00000000000E+00 -0.28932283573E+00  0.88925719311E+02  0.88925248649E+02 0.  0.
        -11    1    3    3    0    0 -0.26297490742E+01  0.44046674819E+02 -0.56127630536E+01  0.44480650309E+02  0.00000000000E+00 0.  1.
         11    1    3    3    0    0  0.26297490742E+01 -0.44046674819E+02  0.53234402178E+01  0.44445069002E+02  0.00000000000E+00 0. -1.
<mgrwt>
<rscale>  0 0.88925249E+02</rscale>
<asrwt>0</asrwt>
<pdfrwt beam="2">  1        2 0.68626955E-02 0.88925249E+02</pdfrwt>
<pdfrwt beam="1">  1       -2 0.68181844E-02 0.88925249E+02</pdfrwt>
<totfact> 0.10540468E+05</totfact>
</mgrwt>
</event>
<event>
 4    1  0.1242969E+001  0.1329131E+03  0.7546771E-02  0.1223196E+00
         -1   -1    0    0    0  501 -0.00000000000E+00  0.00000000000E+00  0.42484551670E+02  0.42484551670E+02  0.00000000000E+00 0.  1.
          1   -1    0    0  501    0  0.00000000000E+00 -0.00000000000E+00 -0.10395480722E+03  0.10395480722E+03  0.00000000000E+00 0. -1.
        -13    1    1    2    0    0  0.35331899497E+02 -0.48927173452E+02 -0.77822776466E-01  0.60350786909E+02  0.00000000000E+00 0.  1.
         13    1    1    2    0    0 -0.35331899497E+02  0.48927173452E+02 -0.61392432778E+02  0.86088571985E+02  0.00000000000E+00 0. -1.
<mgrwt>
<rscale>  0 0.13291311E+03</rscale>
<asrwt>0</asrwt>
<pdfrwt beam="2">  1        1 0.15993047E-01 0.13291311E+03</pdfrwt>
<pdfrwt beam="1">  1       -1 0.65360849E-02 0.13291311E+03</pdfrwt>
<totfact> 0.36659585E+04</totfact>
</mgrwt>
</event>
<event>
 5    1  0.1242969E+001  0.8969540E+02  0.7546771E-02  0.1303591E+00
          1   -1    0    0  501    0  0.00000000000E+00  0.00000000000E+00  0.70762652648E+02  0.70762652648E+02  0.00000000000E+00 0. -1.
         -1   -1    0    0    0  501 -0.00000000000E+00 -0.00000000000E+00 -0.28423415220E+02  0.28423415220E+02  0.00000000000E+00 0.  1.
         23    2    1    2    0    0  0.00000000000E+00  0.00000000000E+00  0.42339237428E+02  0.99186067868E+02  0.89695401405E+02 0.  0.
        -13    1    3    3    0    0 -0.37499307667E+02 -0.34295116434E+01  0.48105947000E+02  0.61091257659E+02  0.00000000000E+00 0. -1.
         13    1    3    3    0    0  0.37499307667E+02  0.34295116434E+01 -0.57667095722E+01  0.38094810209E+02  0.00000000000E+00 0.  1.
<mgrwt>
<rscale>  0 0.89695401E+02</rscale>
<asrwt>0</asrwt>
<pdfrwt beam="1">  1        1 0.10886562E-01 0.89695401E+02</pdfrwt>
<pdfrwt beam="2">  1       -1 0.43728331E-02 0.89695401E+02</pdfrwt>
<totfact> 0.10338873E+05</totfact>
</mgrwt>
</event>
<event>
 5    1  0.1242969E+001  0.9269331E+02  0.7546771E-02  0.1296457E+00
         -1   -1    0    0    0  501 -0.00000000000E+00  0.00000000000E+00  0.41077041726E+02  0.41077041726E+02  0.00000000000E+00 0.  1.
          1   -1    0    0  501    0  0.00000000000E+00 -0.00000000000E+00 -0.52292285188E+02  0.52292285188E+02  0.00000000000E+00 0. -1.
         23    2    1    2    0    0  0.00000000000E+00  0.00000000000E+00 -0.11215243462E+02  0.93369326913E+02  0.92693308941E+02 0.  0.
        -11    1    3    3    0    0 -0.35221774149E+00  0.10307013122E+02  0.39906576152E+02  0.41217634539E+02  0.00000000000E+00 0.  1.
         11    1    3    3    0    0  0.35221774149E+00 -0.10307013122E+02 -0.51121819614E+02  0.52151692374E+02  0.00000000000E+00 0. -1.
<mgrwt>
<rscale>  0 0.92693309E+02</rscale>
<asrwt>0</asrwt>
<pdfrwt beam="2">  1        1 0.80449669E-02 0.92693309E+02</pdfrwt>
<pdfrwt beam="1">  1       -1 0.63195449E-02 0.92693309E+02</pdfrwt>
<totfact> 0.90142041E+04</totfact>
</mgrwt>
</event>
<event>
 5    1  0.1242969E+001  0.9186002E+02  0.7546771E-02  0.1298409E+00
         -1   -1    0    0    0  501 -0.00000000000E+00  0.00000000000E+00  0.23848735362E+02  0.23848735362E+02  0.00000000000E+00 0.  1.
          1   -1    0    0  501    0  0.00000000000E+00 -0.00000000000E+00 -0.88456091885E+02  0.88456091885E+02  0.00000000000E+00 0. -1.
         23    2    1    2    0    0  0.00000000000E+00  0.00000000000E+00 -0.64607356524E+02  0.11230482725E+03  0.91860022349E+02 0.  0.
        -11    1    3    3    0    0 -0.30328309430E+01  0.45379442078E+02 -0.40138983208E+02  0.60659952191E+02  0.00000000000E+00 0. -1.
         11    1    3    3    0    0  0.30328309430E+01 -0.45379442078E+02 -0.24468373316E+02  0.51644875056E+02  0.00000000000E+00 0.  1.
<mgrwt>
<rscale>  0 0.91860022E+02</rscale>
<asrwt>0</asrwt>
<pdfrwt beam="2">  1        1 0.13608630E-01 0.91860022E+02</pdfrwt>
<pdfrwt beam="1">  1       -1 0.36690362E-02 0.91860022E+02</pdfrwt>
<totfact> 0.10030059E+05</totfact>
</mgrwt>
</event>
<event>
 5    1  0.1242969E+001  0.9198513E+02  0.7546771E-02  0.1298114E+00
         -2   -1    0    0    0  501 -0.00000000000E+00  0.00000000000E+00  0.39696828180E+03  0.39696828180E+03  0.00000000000E+00 0.  1.
          2   -1    0    0  501    0  0.00000000000E+00 -0.00000000000E+00 -0.53286771529E+01  0.53286771529E+01  0.00000000000E+00 0. -1.
         23    2    1    2    0    0  0.00000000000E+00  0.00000000000E+00  0.39163960465E+03  0.40229695896E+03  0.91985125182E+02 0.  0.
        -13    1    3    3    0    0  0.45569388793E+02  0.46191819305E+01  0.21406824257E+03  0.21891349551E+03  0.00000000000E+00 0.  1.
         13    1    3    3    0    0 -0.45569388793E+02 -0.46191819305E+01  0.17757136208E+03  0.18338346345E+03  0.00000000000E+00 0. -1.
<mgrwt>
<rscale>  0 0.91985125E+02</rscale>
<asrwt>0</asrwt>
<pdfrwt beam="2">  1        2 0.81979680E-03 0.91985125E+02</pdfrwt>
<pdfrwt beam="1">  1       -2 0.61072020E-01 0.91985125E+02</pdfrwt>
<totfact> 0.41943469E+04</totfact>
</mgrwt>
</event>
<event>
 5    1  0.1242969E+001  0.9077686E+02  0.7546771E-02  0.1300981E+00
         -3   -1    0    0    0  501 -0.00000000000E+00  0.00000000000E+00  0.88377654317E+01  0.88377654317E+01  0.00000000000E+00 0.  1.
          3   -1    0    0  501    0  0.00000000000E+00 -0.00000000000E+00 -0.23310297449E+03  0.23310297449E+03  0.00000000000E+00 0. -1.
         23    2    1    2    0    0  0.00000000000E+00  0.00000000000E+00 -0.22426520906E+03  0.24194073992E+03  0.90776856301E+02 0.  0.
        -11    1    3    3    0    0  0.35030618137E+02 -0.52533566406E+00 -0.35223927905E+02  0.49680431577E+02  0.00000000000E+00 0.  1.
         11    1    3    3    0    0 -0.35030618137E+02  0.52533566406E+00 -0.18904128116E+03  0.19226030835E+03  0.00000000000E+00 0. -1.
<mgrwt>
<rscale>  0 0.90776856E+02</rscale>
<asrwt>0</asrwt>
<pdfrwt beam="2">  1        3 0.35862000E-01 0.90776856E+02</pdfrwt>
<pdfrwt beam="1">  1       -3 0.13596561E-02 0.90776856E+02</pdfrwt>
<totfact> 0.26780754E+04</totfact>
</mgrwt>
</event>
<event>
 5    1  0.1242969E+001  0.7763387E+02  0.7546771E-02  0.1335903E+00
         -3   -1    0    0    0  501 -0.00000000000E+00  0.00000000000E+00  0.25825997103E+02  0.25825997103E+02  0.00000000000E+00 0.  1.
          3   -1    0    0  501    0  0.00000000000E+00 -0.00000000000E+00 -0.58342546305E+02  0.58342546305E+02  0.00000000000E+00 0. -1.
         23    2    1    2    0    0  0.00000000000E+00  0.00000000000E+00 -0.32516549202E+02  0.84168543408E+02  0.77633869719E+02 0.  0.
        -11    1    3    3    0    0  0.74756979000E+01  0.26445415727E+02 -0.45979416081E+02  0.53566339947E+02  0.00000000000E+00 0. -1.
         11    1    3    3    0    0 -0.74756979000E+01 -0.26445415727E+02  0.13462866880E+02  0.30602203462E+02  0.00000000000E+00 0.  1.
<mgrwt>
<rscale>  0 0.77633870E+02</rscale>
<asrwt>0</asrwt>
<pdfrwt beam="2">  1        3 0.89757763E-02 0.77633870E+02</pdfrwt>
<pdfrwt beam="1">  1       -3 0.39732303E-02 0.77633870E+02</pdfrwt>
<totfact> 0.55382008E+04</totfact>
</mgrwt>
</event>
<event>
 5    1  0.1242969E+001  0.8393559E+02  0.7546771E-02  0.1318240E+00
          3   -1    0    0  501    0  0.00000000000E+00  0.00000000000E+00  0.16927223682E+03  0.16927223682E+03  0.00000000000E+00 0. -1.
         -3   -1    0    0    0  501 -0.00000000000E+00 -0.00000000000E+00 -0.10405106488E+02  0.10405106488E+02  0.00000000000E+00 0.  1.
         23    2    1    2    0    0  0.00000000000E+00  0.00000000000E+00  0.15886713034E+03  0.17967734331E+03  0.83935586008E+02 0.  0.
        -13    1    3    3    0    0  0.16766385132E+01  0.41489852396E+02  0.66398967923E+02  0.78313740236E+02  0.00000000000E+00 0.  1.
         13    1    3    3    0    0 -0.16766385132E+01 -0.41489852396E+02  0.92468162414E+02  0.10136360308E+03  0.00000000000E+00 0. -1.
<mgrwt>
<rscale>  0 0.83935586E+02</rscale>
<asrwt>0</asrwt>
<pdfrwt beam="1">  1        3 0.26041881E-01 0.83935586E+02</pdfrwt>
<pdfrwt beam="2">  1       -3 0.16007857E-02 0.83935586E+02</pdfrwt>
<totfact> 0.36945021E+04</totfact>
</mgrwt>
</event>
<event>
 5    1  0.1242969E+001  0.1035227E+03  0.7546771E-02  0.1273058E+00
          3   -1    0    0  501    0  0.00000000000E+00  0.00000000000E+00  0.87189542802E+02  0.87189542802E+02  0.00000000000E+00 0. -1.
         -3   -1    0    0    0  501 -0.00000000000E+00 -0.00000000000E+00 -0.30728872608E+02  0.30728872608E+02  0.00000000000E+00 0.  1.
         23    2    1    2    0    0  0.00000000000E+00  0.00000000000E+00  0.56460670194E+02  0.11791841541E+03  0.10352268067E+03 0.  0.
        -13    1    3    3    0    0 -0.17624623100E+02  0.48224740331E+02  0.35698203911E+02  0.62534907706E+02  0.00000000000E+00 0. -1.
         13    1    3    3    0    0  0.17624623100E+02 -0.48224740331E+02  0.20762466283E+02  0.55383507703E+02  0.00000000000E+00 0.  1.
<mgrwt>
<rscale>  0 0.10352268E+03</rscale>
<asrwt>0</asrwt>
<pdfrwt beam="1">  1        3 0.13413776E-01 0.10352268E+03</pdfrwt>
<pdfrwt beam="2">  1       -3 0.47275189E-02 0.10352268E+03</pdfrwt>
<totfact> 0.23579160E+04</totfact>
</mgrwt>
</event>
<event>
 5    1  0.1242969E+001  0.6841607E+02  0.7546771E-02  0.1365564E+00
          3   -1    0    0  501    0  0.00000000000E+00  0.00000000000E+00  0.80471884341E+01  0.80471884341E+01  0.00000000000E+00 0. -1.
         -3   -1    0    0    0  501 -0.00000000000E+00 -0.00000000000E+00 -0.14541594946E+03  0.14541594946E+03  0.00000000000E+00 0.  1.
         23    2    1    2    0    0  0.00000000000E+00  0.00000000000E+00 -0.13736876102E+03  0.15346313789E+03  0.68416066727E+02 0.  0.
        -11    1    3    3    0    0 -0.12011391054E+02 -0.28380750518E+02 -0.35380098991E+02  0.46920058820E+02  0.00000000000E+00 0. -1.
         11    1    3    3    0    0  0.12011391054E+02  0.28380750518E+02 -0.10198866203E+03  0.10654307907E+03  0.00000000000E+00 0.  1.
<mgrwt>
<rscale>  0 0.68416067E+02</rscale>
<asrwt>0</asrwt>
<pdfrwt beam="1">  1        3 0.12380290E-02 0.68416067E+02</pdfrwt>
<pdfrwt beam="2">  1       -3 0.22371684E-01 0.68416067E+02</pdfrwt>
<totfact> 0.66708524E+04</totfact>
</mgrwt>
</event>
<event>
 5    1  0.1242969E+001  0.9215108E+02  0.7546771E-02  0.1297725E+00
          3   -1    0    0  501    0  0.00000000000E+00  0.00000000000E+00  0.63494764269E+02  0.63494764269E+02  0.00000000000E+00 0. -1.
         -3   -1    0    0    0  501 -0.00000000000E+00 -0.00000000000E+00 -0.33435125876E+02  0.33435125876E+02  0.00000000000E+00 0.  1.
         23    2    1    2    0    0  0.00000000000E+00  0.00000000000E+00  0.30059638393E+02  0.96929890145E+02  0.92151081075E+02 0.  0.
        -11    1    3    3    0    0  0.30222896351E+02 -0.94645409363E+01 -0.20171380364E+02  0.37548443174E+02  0.00000000000E+00 0.  1.
         11    1    3    3    0    0 -0.30222896351E+02  0.94645409363E+01  0.50231018757E+02  0.59381446971E+02  0.00000000000E+00 0. -1.
<mgrwt>
<rscale>  0 0.92151081E+02</rscale>
<asrwt>0</asrwt>
<pdfrwt beam="1">  1        3 0.97684252E-02 0.92151081E+02</pdfrwt>
<pdfrwt beam="2">  1       -3 0.51438655E-02 0.92151081E+02</pdfrwt>
<totfact> 0.33902695E+04</totfact>
</mgrwt>
</event>
<event>
 5    1  0.1242969E+001  0.1062620E+03  0.7546771E-02  0.1267653E+00
         -2   -1    0    0    0  501 -0.00000000000E+00  0.00000000000E+00  0.91293239055E+01  0.91293239055E+01  0.00000000000E+00 0.  1.
          2   -1    0    0  501    0  0.00000000000E+00 -0.00000000000E+00 -0.30921281475E+03  0.30921281475E+03  0.00000000000E+00 0. -1.
         23    2    1    2    0    0  0.00000000000E+00  0.00000000000E+00 -0.30008349085E+03  0.31834213866E+03  0.10626201469E+03 0.  0.
        -13    1    3    3    0    0 -0.96933687328E+01  0.43603925787E+02 -0.63855716177E+02  0.77928276190E+02  0.00000000000E+00 0.  1.
         13    1    3    3    0    0  0.96933687328E+01 -0.43603925787E+02 -0.23622777467E+03  0.24041386247E+03  0.00000000000E+00 0. -1.
<mgrwt>
<rscale>  0 0.10626201E+03</rscale>
<asrwt>0</asrwt>
<pdfrwt beam="2">  1        2 0.47571200E-01 0.10626201E+03</pdfrwt>
<pdfrwt beam="1">  1       -2 0.14045114E-02 0.10626201E+03</pdfrwt>
<totfact> 0.12035413E+05</totfact>
</mgrwt>
</event>
<event>
 5    1  0.1242969E+001  0.9139634E+02  0.7546771E-02  0.1299505E+00
         -1   -1    0    0    0  501 -0.00000000000E+00  0.00000000000E+00  0.11075723245E+02  0.11075723245E+02  0.00000000000E+00 0.  1.
          1   -1    0    0  501    0  0.00000000000E+00 -0.00000000000E+00 -0.18854956848E+03  0.18854956848E+03  0.00000000000E+00 0. -1.
         23    2    1    2    0    0  0.00000000000E+00  0.00000000000E+00 -0.17747384524E+03  0.19962529173E+03  0.91396342127E+02 0.  0.
        -13    1    3    3    0    0  0.15844552947E+02 -0.41618537083E+02 -0.66337675975E+02  0.79898934541E+02  0.00000000000E+00 0.  1.
         13    1    3    3    0    0 -0.15844552947E+02  0.41618537083E+02 -0.11113616926E+03  0.11972635719E+03  0.00000000000E+00 0. -1.
<mgrwt>
<rscale>  0 0.91396342E+02</rscale>
<asrwt>0</asrwt>
<pdfrwt beam="2">  1        1 0.29007624E-01 0.91396342E+02</pdfrwt>
<pdfrwt beam="1">  1       -1 0.17039575E-02 0.91396342E+02</pdfrwt>
<totfact> 0.11631027E+05</totfact>
</mgrwt>
</event>
<event>
 5    1  0.1242969E+001  0.9086331E+02  0.7546771E-02  0.1300774E+00
          3   -1    0    0  501    0  0.00000000000E+00  0.00000000000E+00  0.29399643338E+02  0.29399643338E+02  0.00000000000E+00 0. -1.
         -3   -1    0    0    0  501 -0.00000000000E+00 -0.00000000000E+00 -0.70206138288E+02  0.70206138288E+02  0.00000000000E+00 0.  1.
         23    2    1    2    0    0  0.00000000000E+00  0.00000000000E+00 -0.40806494950E+02  0.99605781625E+02  0.90863313296E+02 0.  0.
        -13    1    3    3    0    0  0.13913143513E+02  0.85750670770E+01  0.26065538592E+02  0.30765559314E+02  0.00000000000E+00 0. -1.
         13    1    3    3    0    0 -0.13913143513E+02 -0.85750670770E+01 -0.66872033543E+02  0.68840222312E+02  0.00000000000E+00 0.  1.
<mgrwt>
<rscale>  0 0.90863313E+02</rscale>
<asrwt>0</asrwt>
<pdfrwt beam="1">  1        3 0.45230221E-02 0.90863313E+02</pdfrwt>
<pdfrwt beam="2">  1       -3 0.10800944E-01 0.90863313E+02</pdfrwt>
<totfact> 0.35028393E+04</totfact>
</mgrwt>
</event>
<event>
 5    1  0.1242969E+001  0.8776518E+02  0.7546771E-02  0.1308356E+00
          2   -1    0    0  501    0  0.00000000000E+00  0.00000000000E+00  0.53409003801E+02  0.53409003801E+02  0.00000000000E+00 0. -1.
         -2   -1    0    0    0  501 -0.00000000000E+00 -0.00000000000E+00 -0.36055371850E+02  0.36055371850E+02  0.00000000000E+00 0.  1.
         23    2    1    2    0    0  0.00000000000E+00  0.00000000000E+00  0.17353631951E+02  0.89464375651E+02  0.87765175148E+02 0.  0.
        -11    1    3    3    0    0  0.27442773204E+02  0.18322049792E+02 -0.20812115381E+02  0.39012144985E+02  0.00000000000E+00 0.  1.
         11    1    3    3    0    0 -0.27442773204E+02 -0.18322049792E+02  0.38165747333E+02  0.50452230666E+02  0.00000000000E+00 0. -1.
<mgrwt>
<rscale>  0 0.87765175E+02</rscale>
<asrwt>0</asrwt>
<pdfrwt beam="1">  1        2 0.82167698E-02 0.87765175E+02</pdfrwt>
<pdfrwt beam="2">  1       -2 0.55469803E-02 0.87765175E+02</pdfrwt>
<totfact> 0.11455016E+05</totfact>
</mgrwt>
</event>
<event>
 5    1  0.1242969E+001  0.9061870E+02  0.7546771E-02  0.1301360E+00
          2   -1    0    0  501    0  0.00000000000E+00  0.00000000000E+00  0.14157265547E+03  0.14157265547E+03  0.00000000000E+00 0. -1.
         -2   -1    0    0    0  501 -0.00000000000E+00 -0.00000000000E+00 -0.14500943750E+02  0.14500943750E+02  0.00000000000E+00 0.  1.
         23    2    1    2    0    0  0.00000000000E+00  0.00000000000E+00  0.12707171172E+03  0.15607359922E+03  0.90618698149E+02 0.  0.
        -11    1    3    3    0    0 -0.34814510313E+02 -0.21634462017E+02  0.96791943186E+02  0.10511317872E+03  0.00000000000E+00 0.  1.
         11    1    3    3    0    0  0.34814510313E+02  0.21634462017E+02  0.30279768535E+02  0.50960420501E+02  0.00000000000E+00 0. -1.
<mgrwt>
<rscale>  0 0.90618698E+02</rscale>
<asrwt>0</asrwt>
<pdfrwt beam="1">  1        2 0.21780408E-01 0.90618698E+02</pdfrwt>
<pdfrwt beam="2">  1       -2 0.22309145E-02 0.90618698E+02</pdfrwt>
<totfact> 0.13941178E+05</totfact>
</mgrwt>
</event>
<event>
 5    1  0.1242969E+001  0.1208162E+03  0.7546771E-02  0.1241757E+00
          2   -1    0    0  501    0  0.00000000000E+00  0.00000000000E+00  0.33744856753E+02  0.33744856753E+02  0.00000000000E+00 0. -1.
         -2   -1    0    0    0  501 -0.00000000000E+00 -0.00000000000E+00 -0.10813908516E+03  0.10813908516E+03  0.00000000000E+00 0.  1.
         23    2    1    2    0    0  0.00000000000E+00  0.00000000000E+00 -0.74394228407E+02  0.14188394191E+03  0.12081618994E+03 0.  0.
        -13    1    3    3    0    0  0.32749741966E+02  0.50482503510E+02 -0.43423444967E+02  0.74206632670E+02  0.00000000000E+00 0.  1.
         13    1    3    3    0    0 -0.32749741966E+02 -0.50482503510E+02 -0.30970783440E+02  0.67677309242E+02  0.00000000000E+00 0. -1.
<mgrwt>
<rscale>  0 0.12081619E+03</rscale>
<asrwt>0</asrwt>
<pdfrwt beam="1">  1        2 0.51915165E-02 0.12081619E+03</pdfrwt>
<pdfrwt beam="2">  1       -2 0.16636782E-01 0.12081619E+03</pdfrwt>
<totfact> 0.38694181E+04</totfact>
</mgrwt>
</event>
<event>
 5    1  0.1242969E+001  0.9069962E+02  0.7546771E-02  0.1301166E+00
          1   -1    0    0  501    0  0.00000000000E+00  0.00000000000E+00  0.12803366623E+03  0.12803366623E+03  0.00000000000E+00 0. -1.
         -1   -1    0    0    0  501 -0.00000000000E+00 -0.00000000000E+00 -0.16063002140E+02  0.16063002140E+02  0.00000000000E+00 0.  1.
         23    2    1    2    0    0  0.00000000000E+00  0.00000000000E+00  0.11197066409E+03  0.14409666837E+03  0.90699615317E+02 0.  0.
        -13    1    3    3    0    0 -0.28009819293E+02  0.91239321511E+01  0.11076312445E+03  0.11461355004E+03  0.00000000000E+00 0. -1.
         13    1    3    3    0    0  0.28009819293E+02 -0.91239321511E+01  0.12075396440E+01  0.29483118334E+02  0.00000000000E+00 0.  1.
<mgrwt>
<rscale>  0 0.90699615E+02</rscale>
<asrwt>0</asrwt>
<pdfrwt beam="1">  1        1 0.19697486E-01 0.90699615E+02</pdfrwt>
<pdfrwt beam="2">  1       -1 0.24712312E-02 0.90699615E+02</pdfrwt>
<totfact> 0.11053034E+05</totfact>
</mgrwt>
</event>
<event>
 5    1  0.1242969E+001  0.9221673E+02  0.7546771E-02  0.1297571E+00
         -1   -1    0    0    0  501 -0.00000000000E+00  0.00000000000E+00  0.31414788686E+02  0.31414788686E+02  0.00000000000E+00 0.  1.
          1   -1    0    0  501    0  0.00000000000E+00 -0.00000000000E+00 -0.67674536633E+02  0.67674536633E+02  0.00000000000E+00 0. -1.
         23    2    1    2    0    0  0.00000000000E+00  0.00000000000E+00 -0.36259747947E+02  0.99089325319E+02  0.92216728803E+02 0.  0.
        -11    1    3    3    0    0 -0.42416787021E+02 -0.81044805388E+01 -0.76654723166E+00  0.43190902059E+02  0.00000000000E+00 0.  1.
         11    1    3    3    0    0  0.42416787021E+02  0.81044805388E+01 -0.35493200715E+02  0.55898423260E+02  0.00000000000E+00 0. -1.
<mgrwt>
<rscale>  0 0.92216729E+02</rscale>
<asrwt>0</asrwt>
<pdfrwt beam="2">  1        1 0.10411467E-01 0.92216729E+02</pdfrwt>
<pdfrwt beam="1">  1       -1 0.48330445E-02 0.92216729E+02</pdfrwt>
<totfact> 0.95123740E+04</totfact>
</mgrwt>
</event>
<event>
 5    1  0.1242969E+001  0.9324230E+02  0.7546771E-02  0.1295185E+00
         -1   -1    0    0    0  501 -0.00000000000E+00  0.00000000000E+00  0.60965448649E+02  0.60965448649E+02  0.00000000000E+00 0.  1.
          1   -1    0    0  501    0  0.00000000000E+00 -0.00000000000E+00 -0.35651859511E+02  0.35651859511E+02  0.00000000000E+00 0. -1.
         23    2    1    2    0    0  0.00000000000E+00  0.00000000000E+00  0.25313589138E+02  0.96617308159E+02  0.93242299633E+02 0.  0.
        -11    1    3    3    0    0  0.34400296619E+02 -0.20255105713E+02 -0.12295571452E+02  0.41771171785E+02  0.00000000000E+00 0. -1.
         11    1    3    3    0    0 -0.34400296619E+02  0.20255105713E+02  0.37609160590E+02  0.54846136374E+02  0.00000000000E+00 0.  1.
<mgrwt>
<rscale>  0 0.93242300E+02</rscale>
<asrwt>0</asrwt>
<pdfrwt beam="2">  1        1 0.54849014E-02 0.93242300E+02</pdfrwt>
<pdfrwt beam="1">  1       -1 0.93792998E-02 0.93242300E+02</pdfrwt>
<totfact> 0.83568072E+04</totfact>
</mgrwt>
</event>
<event>
 5    1  0.1242969E+001  0.9195992E+02  0.7546771E-02  0.1298174E+00
          1   -1    0    0  501    0  0.00000000000E+00  0.00000000000E+00  0.27072696831E+02  0.27072696831E+02  0.00000000000E+00 0. -1.
         -1   -1    0    0    0  501 -0.00000000000E+00 -0.00000000000E+00 -0.78091838387E+02  0.78091838387E+02  0.00000000000E+00 0.  1.
         23    2    1    2    0    0  0.00000000000E+00  0.00000000000E+00 -0.51019141556E+02  0.10516453522E+03  0.91959918782E+02 0.  0.
        -13    1    3    3    0    0  0.61398458829E+01 -0.33346698780E+02 -0.61024592215E+02  0.69811896422E+02  0.00000000000E+00 0.  1.
         13    1    3    3    0    0 -0.61398458829E+01  0.33346698780E+02  0.10005450659E+02  0.35352638796E+02  0.00000000000E+00 0. -1.
<mgrwt>
<rscale>  0 0.91959919E+02</rscale>
<asrwt>0</asrwt>
<pdfrwt beam="1">  1        1 0.41650303E-02 0.91959919E+02</pdfrwt>
<pdfrwt beam="2">  1       -1 0.12014129E-01 0.91959919E+02</pdfrwt>
<totfact> 0.83154158E+04</totfact>
</mgrwt>
</event>
<event>
 5    1  0.1242969E+001  0.9026858E+02  0.7546771E-02  0.1302203E+00
          2   -1    0    0  501    0  0.00000000000E+00  0.00000000000E+00  0.42598938663E+02  0.42598938663E+02  0.00000000000E+00 0. -1.
         -2   -1    0    0    0  501 -0.00000000000E+00 -0.00000000000E+00 -0.47820538954E+02  0.47820538954E+02  0.00000000000E+00 0.  1.
         23    2    1    2    0    0  0.00000000000E+00  0.00000000000E+00 -0.52216002908E+01  0.90419477616E+02  0.90268581593E+02 0.  0.
        -13    1    3    3    0    0 -0.84842715188E+01 -0.13885332002E+02 -0.44780092136E+02  0.47644957338E+02  0.00000000000E+00 0.  1.
         13    1    3    3    0    0  0.84842715188E+01  0.13885332002E+02  0.39558491845E+02  0.42774520279E+02  0.00000000000E+00 0. -1.
<mgrwt>
<rscale>  0 0.90268582E+02</rscale>
<asrwt>0</asrwt>
<pdfrwt beam="1">  1        2 0.65536828E-02 0.90268582E+02</pdfrwt>
<pdfrwt beam="2">  1       -2 0.73570060E-02 0.90268582E+02</pdfrwt>
<totfact> 0.99789846E+04</totfact>
</mgrwt>
</event>
<event>
 5    1  0.1242969E+001  0.9008515E+02  0.7546771E-02  0.1302646E+00
         -2   -1    0    0    0  501 -0.00000000000E+00  0.00000000000E+00  0.16855683123E+02  0.16855683123E+02  0.00000000000E+00 0.  1.
          2   -1    0    0  501    0  0.00000000000E+00 -0.00000000000E+00 -0.12036496217E+03  0.12036496217E+03  0.00000000000E+00 0. -1.
         23    2    1    2    0    0  0.00000000000E+00  0.00000000000E+00 -0.10350927904E+03  0.13722064529E+03  0.90085152193E+02 0.  0.
        -13    1    3    3    0    0 -0.29174881492E+02 -0.19947839250E+02 -0.92200577391E+01  0.36525326357E+02  0.00000000000E+00 0.  1.
         13    1    3    3    0    0  0.29174881492E+02  0.19947839250E+02 -0.94289221303E+02  0.10069531893E+03  0.00000000000E+00 0. -1.
<mgrwt>
<rscale>  0 0.90085152E+02</rscale>
<asrwt>0</asrwt>
<pdfrwt beam="2">  1        2 0.18517686E-01 0.90085152E+02</pdfrwt>
<pdfrwt beam="1">  1       -2 0.25931821E-02 0.90085152E+02</pdfrwt>
<totfact> 0.13433554E+05</totfact>
</mgrwt>
</event>
<event>
 5    1  0.1242969E+001  0.9099011E+02  0.7546771E-02  0.1300472E+00
         -2   -1    0    0    0  501 -0.00000000000E+00  0.00000000000E+00  0.17576595019E+02  0.17576595019E+02  0.00000000000E+00 0. -1.
          2   -1    0    0  501    0  0.00000000000E+00 -0.00000000000E+00 -0.11775887485E+03  0.11775887485E+03  0.00000000000E+00 0.  1.
         23    2    1    2    0    0  0.00000000000E+00  0.00000000000E+00 -0.10018227983E+03  0.13533546987E+03  0.90990110519E+02 0.  0.
        -13    1    3    3    0    0  0.23911707827E+02 -0.18472946596E+00 -0.10765803315E+03  0.11028171199E+03  0.00000000000E+00 0.  1.
         13    1    3    3    0    0 -0.23911707827E+02  0.18472946596E+00  0.74757533233E+01  0.25053757881E+02  0.00000000000E+00 0. -1.
<mgrwt>
<rscale>  0 0.90990111E+02</rscale>
<asrwt>0</asrwt>
<pdfrwt beam="2">  1        2 0.18116750E-01 0.90990111E+02</pdfrwt>
<pdfrwt beam="1">  1       -2 0.27040915E-02 0.90990111E+02</pdfrwt>
<totfact> 0.12981083E+05</totfact>
</mgrwt>
</event>
<event>
 5    1  0.1242969E+001  0.9169090E+02  0.7546771E-02  0.1298808E+00
         -1   -1    0    0    0  501 -0.00000000000E+00  0.00000000000E+00  0.25729296173E+03  0.25729296173E+03  0.00000000000E+00 0.  1.
          1   -1    0    0  501    0  0.00000000000E+00 -0.00000000000E+00 -0.81689190067E+01  0.81689190067E+01  0.00000000000E+00 0. -1.
         23    2    1    2    0    0  0.00000000000E+00  0.00000000000E+00  0.24912404272E+03  0.26546188073E+03  0.91690901737E+02 0.  0.
        -11    1    3    3    0    0 -0.13828610334E+02 -0.42960079472E+02  0.14790488999E+03  0.15463717333E+03  0.00000000000E+00 0.  1.
         11    1    3    3    0    0  0.13828610334E+02  0.42960079472E+02  0.10121915273E+03  0.11082470740E+03  0.00000000000E+00 0. -1.
<mgrwt>
<rscale>  0 0.91690902E+02</rscale>
<asrwt>0</asrwt>
<pdfrwt beam="2">  1        1 0.12567570E-02 0.91690902E+02</pdfrwt>
<pdfrwt beam="1">  1       -1 0.39583526E-01 0.91690902E+02</pdfrwt>
<totfact> 0.63193933E+04</totfact>
</mgrwt>
</event>
<event>
 5    1  0.1242969E+001  0.9136706E+02  0.7546771E-02  0.1299575E+00
         -2   -1    0    0    0  501 -0.00000000000E+00  0.00000000000E+00  0.94907101005E+01  0.94907101005E+01  0.00000000000E+00 0.  1.
          2   -1    0    0  501    0  0.00000000000E+00 -0.00000000000E+00 -0.21989766426E+03  0.21989766426E+03  0.00000000000E+00 0. -1.
         23    2    1    2    0    0  0.00000000000E+00  0.00000000000E+00 -0.21040695416E+03  0.22938837436E+03  0.91367061533E+02 0.  0.
        -11    1    3    3    0    0  0.35008734290E+02 -0.21734411481E+02 -0.55686932537E+02  0.69275035723E+02  0.00000000000E+00 0.  1.
         11    1    3    3    0    0 -0.35008734290E+02  0.21734411481E+02 -0.15472002163E+03  0.16011333864E+03  0.00000000000E+00 0. -1.
<mgrwt>
<rscale>  0 0.91367062E+02</rscale>
<asrwt>0</asrwt>
<pdfrwt beam="2">  1        2 0.33830406E-01 0.91367062E+02</pdfrwt>
<pdfrwt beam="1">  1       -2 0.14601094E-02 0.91367062E+02</pdfrwt>
<totfact> 0.15921831E+05</totfact>
</mgrwt>
</event>
<event>
 5    1  0.1242969E+001  0.8910435E+02  0.7546771E-02  0.1305035E+00
          1   -1    0    0  501    0  0.00000000000E+00  0.00000000000E+00  0.10335495076E+03  0.10335495076E+03  0.00000000000E+00 0. -1.
         -1   -1    0    0    0  501 -0.00000000000E+00 -0.00000000000E+00 -0.19204654220E+02  0.19204654220E+02  0.00000000000E+00 0.  1.
         23    2    1    2    0    0  0.00000000000E+00  0.00000000000E+00  0.84150296535E+02  0.12255960498E+03  0.89104345376E+02 0.  0.
        -13    1    3    3    0    0 -0.11154311105E+02  0.32703589782E+02  0.80758465688E+02  0.87840043381E+02  0.00000000000E+00 0. -1.
         13    1    3    3    0    0  0.11154311105E+02 -0.32703589782E+02  0.33918308465E+01  0.34719561595E+02  0.00000000000E+00 0.  1.
<mgrwt>
<rscale>  0 0.89104345E+02</rscale>
<asrwt>0</asrwt>
<pdfrwt beam="1">  1        1 0.15900761E-01 0.89104345E+02</pdfrwt>
<pdfrwt beam="2">  1       -1 0.29545622E-02 0.89104345E+02</pdfrwt>
<totfact> 0.11180012E+05</totfact>
</mgrwt>
</event>
<event>
 5    1  0.1242969E+001  0.8151024E+02  0.7546771E-02  0.1324819E+00
         -2   -1    0    0    0  501 -0.00000000000E+00  0.00000000000E+00  0.36566138431E+03  0.36566138431E+03  0.00000000000E+00 0.  1.
          2   -1    0    0  501    0  0.00000000000E+00 -0.00000000000E+00 -0.45423984804E+01  0.45423984804E+01  0.00000000000E+00 0. -1.
         23    2    1    2    0    0  0.00000000000E+00  0.00000000000E+00  0.36111898583E+03  0.37020378279E+03  0.81510237797E+02 0.  0.
        -11    1    3    3    0    0 -0.38887247172E+02  0.91192749733E+01  0.21734548093E+03  0.22098515165E+03  0.00000000000E+00 0. -1.
         11    1    3    3    0    0  0.38887247172E+02 -0.91192749733E+01  0.14377350490E+03  0.14921863114E+03  0.00000000000E+00 0.  1.
<mgrwt>
<rscale>  0 0.81510238E+02</rscale>
<asrwt>0</asrwt>
<pdfrwt beam="2">  1        2 0.69883082E-03 0.81510238E+02</pdfrwt>
<pdfrwt beam="1">  1       -2 0.56255575E-01 0.81510238E+02</pdfrwt>
<totfact> 0.60424901E+04</totfact>
</mgrwt>
</event>
<event>
 5    1  0.1242969E+001  0.8331126E+02  0.7546771E-02  0.1319909E+00
         -3   -1    0    0    0  501 -0.00000000000E+00  0.00000000000E+00  0.53006498368E+02  0.53006498368E+02  0.00000000000E+00 0.  1.
          3   -1    0    0  501    0  0.00000000000E+00 -0.00000000000E+00 -0.32735452575E+02  0.32735452575E+02  0.00000000000E+00 0. -1.
         23    2    1    2    0    0  0.00000000000E+00  0.00000000000E+00  0.20271045793E+02  0.85741950943E+02  0.83311264868E+02 0.  0.
        -13    1    3    3    0    0  0.48957837373E+01  0.20867118702E+02  0.46895786100E+02  0.51561808495E+02  0.00000000000E+00 0.  1.
         13    1    3    3    0    0 -0.48957837373E+01 -0.20867118702E+02 -0.26624740307E+02  0.34180142448E+02  0.00000000000E+00 0. -1.
<mgrwt>
<rscale>  0 0.83311265E+02</rscale>
<asrwt>0</asrwt>
<pdfrwt beam="2">  1        3 0.50362235E-02 0.83311265E+02</pdfrwt>
<pdfrwt beam="1">  1       -3 0.81548459E-02 0.83311265E+02</pdfrwt>
<totfact> 0.45660651E+04</totfact>
</mgrwt>
</event>
<event>
 5    1  0.1242969E+001  0.9394296E+02  0.7546771E-02  0.1293575E+00
         -2   -1    0    0    0  501 -0.00000000000E+00  0.00000000000E+00  0.87587608288E+01  0.87587608288E+01  0.00000000000E+00 0.  1.
          2   -1    0    0  501    0  0.00000000000E+00 -0.00000000000E+00 -0.25189862091E+03  0.25189862091E+03  0.00000000000E+00 0. -1.
         23    2    1    2    0    0  0.00000000000E+00  0.00000000000E+00 -0.24313986008E+03  0.26065738174E+03  0.93942956599E+02 0.  0.
        -11    1    3    3    0    0  0.45627549377E+02 -0.10526090488E+02 -0.11131956798E+03  0.12076720605E+03  0.00000000000E+00 0.  1.
         11    1    3    3    0    0 -0.45627549377E+02  0.10526090488E+02 -0.13182029210E+03  0.13989017568E+03  0.00000000000E+00 0. -1.
<mgrwt>
<rscale>  0 0.93942957E+02</rscale>
<asrwt>0</asrwt>
<pdfrwt beam="2">  1        2 0.38753635E-01 0.93942957E+02</pdfrwt>
<pdfrwt beam="1">  1       -2 0.13475016E-02 0.93942957E+02</pdfrwt>
<totfact> 0.15535590E+05</totfact>
</mgrwt>
</event>
<event>
 5    1  0.1242969E+001  0.9031551E+02  0.7546771E-02  0.1302089E+00
         -4   -1    0    0    0  501 -0.00000000000E+00  0.00000000000E+00  0.19529235681E+02  0.19529235681E+02  0.00000000000E+00 0.  1.
          4   -1    0    0  501    0  0.00000000000E+00 -0.00000000000E+00 -0.10441898868E+03  0.10441898868E+03  0.00000000000E+00 0. -1.
         23    2    1    2    0    0  0.00000000000E+00  0.00000000000E+00 -0.84889753003E+02  0.12394822436E+03  0.90315514493E+02 0.  0.
        -13    1    3    3    0    0 -0.16622034906E+02 -0.23180807159E+02  0.56002111502E+01  0.29068956464E+02  0.00000000000E+00 0.  1.
         13    1    3    3    0    0  0.16622034906E+02  0.23180807159E+02 -0.90489964153E+02  0.94879267901E+02  0.00000000000E+00 0. -1.
<mgrwt>
<rscale>  0 0.90315514E+02</rscale>
<asrwt>0</asrwt>
<pdfrwt beam="2">  1        4 0.16064460E-01 0.90315514E+02</pdfrwt>
<pdfrwt beam="1">  1       -4 0.30044978E-02 0.90315514E+02</pdfrwt>
<totfact> 0.25699786E+04</totfact>
</mgrwt>
</event>
<event>
 5    1  0.1242969E+001  0.8831753E+02  0.7546771E-02  0.1306978E+00
          2   -1    0    0  501    0  0.00000000000E+00  0.00000000000E+00  0.15564801509E+02  0.15564801509E+02  0.00000000000E+00 0.  1.
         -2   -1    0    0    0  501 -0.00000000000E+00 -0.00000000000E+00 -0.12528245277E+03  0.12528245277E+03  0.00000000000E+00 0. -1.
         23    2    1    2    0    0  0.00000000000E+00  0.00000000000E+00 -0.10971765126E+03  0.14084725428E+03  0.88317529628E+02 0.  0.
        -11    1    3    3    0    0  0.34069718102E+02 -0.22892570292E+02 -0.28888780145E+02  0.50193396821E+02  0.00000000000E+00 0.  1.
         11    1    3    3    0    0 -0.34069718102E+02  0.22892570292E+02 -0.80828871112E+02  0.90653857455E+02  0.00000000000E+00 0. -1.
<mgrwt>
<rscale>  0 0.88317530E+02</rscale>
<asrwt>0</asrwt>
<pdfrwt beam="1">  1        2 0.23945849E-02 0.88317530E+02</pdfrwt>
<pdfrwt beam="2">  1       -2 0.19274223E-01 0.88317530E+02</pdfrwt>
<totfact> 0.80557253E+04</totfact>
</mgrwt>
</event>
<event>
 5    1  0.1242969E+001  0.9297754E+02  0.7546771E-02  0.1295797E+00
         -2   -1    0    0    0  501 -0.00000000000E+00  0.00000000000E+00  0.65994812077E+01  0.65994812077E+01  0.00000000000E+00 0.  1.
          2   -1    0    0  501    0  0.00000000000E+00 -0.00000000000E+00 -0.32748112642E+03  0.32748112642E+03  0.00000000000E+00 0. -1.
         23    2    1    2    0    0  0.00000000000E+00  0.00000000000E+00 -0.32088164521E+03  0.33408060763E+03  0.92977535775E+02 0.  0.
        -11    1    3    3    0    0  0.40742538800E+02  0.18791396105E+02 -0.20417302501E+03  0.20904472052E+03  0.00000000000E+00 0. -1.
         11    1    3    3    0    0 -0.40742538800E+02 -0.18791396105E+02 -0.11670862021E+03  0.12503588711E+03  0.00000000000E+00 0.  1.
<mgrwt>
<rscale>  0 0.92977536E+02</rscale>
<asrwt>0</asrwt>
<pdfrwt beam="2">  1        2 0.50381702E-01 0.92977536E+02</pdfrwt>
<pdfrwt beam="1">  1       -2 0.10153050E-02 0.92977536E+02</pdfrwt>
<totfact> 0.17616347E+05</totfact>
</mgrwt>
</event>
<event>
 5    1  0.1242969E+001  0.8662274E+02  0.7546771E-02  0.1311243E+00
         -2   -1    0    0    0  501 -0.00000000000E+00  0.00000000000E+00  0.71126810636E+02  0.71126810636E+02  0.00000000000E+00 0.  1.
          2   -1    0    0  501    0  0.00000000000E+00 -0.00000000000E+00 -0.26373666729E+02  0.26373666729E+02  0.00000000000E+00 0. -1.
         23    2    1    2    0    0  0.00000000000E+00  0.00000000000E+00  0.44753143907E+02  0.97500477365E+02  0.86622740645E+02 0.  0.
        -13    1    3    3    0    0  0.26524216138E+02  0.11346548703E+02  0.58738018108E+02  0.65440300890E+02  0.00000000000E+00 0.  1.
         13    1    3    3    0    0 -0.26524216138E+02 -0.11346548703E+02 -0.13984874201E+02  0.32060176475E+02  0.00000000000E+00 0. -1.
<mgrwt>
<rscale>  0 0.86622741E+02</rscale>
<asrwt>0</asrwt>
<pdfrwt beam="2">  1        2 0.40574872E-02 0.86622741E+02</pdfrwt>
<pdfrwt beam="1">  1       -2 0.10942586E-01 0.86622741E+02</pdfrwt>
<totfact> 0.99537926E+04</totfact>
</mgrwt>
</event>
<event>
 5    1  0.1242969E+001  0.9186716E+02  0.7546771E-02  0.1298392E+00
          1   -1    0    0  501    0  0.00000000000E+00  0.00000000000E+00  0.55587462362E+02  0.55587462362E+02  0.00000000000E+00 0. -1.
         -1   -1    0    0    0  501 -0.00000000000E+00 -0.00000000000E+00 -0.37956288941E+02  0.37956288941E+02  0.00000000000E+00 0.  1.
         23    2    1    2    0    0  0.00000000000E+00  0.00000000000E+00  0.17631173422E+02  0.93543751303E+02  0.91867160246E+02 0.  0.
        -13    1    3    3    0    0 -0.68502890262E+01  0.45320997426E+02  0.57651642037E+01  0.46196930479E+02  0.00000000000E+00 0.  1.
         13    1    3    3    0    0  0.68502890262E+01 -0.45320997426E+02  0.11866009218E+02  0.47346820824E+02  0.00000000000E+00 0. -1.
<mgrwt>
<rscale>  0 0.91867160E+02</rscale>
<asrwt>0</asrwt>
<pdfrwt beam="1">  1        1 0.85519173E-02 0.91867160E+02</pdfrwt>
<pdfrwt beam="2">  1       -1 0.58394291E-02 0.91867160E+02</pdfrwt>
<totfact> 0.93285715E+04</totfact>
</mgrwt>
</event>
<event>
 5    1  0.1242969E+001  0.9130878E+02  0.7546771E-02  0.1299713E+00
          1   -1    0    0  501    0  0.00000000000E+00  0.00000000000E+00  0.86590169976E+02  0.86590169976E+02  0.00000000000E+00 0. -1.
         -1   -1    0    0    0  501 -0.00000000000E+00 -0.00000000000E+00 -0.24071132149E+02  0.24071132149E+02  0.00000000000E+00 0.  1.
         23    2    1    2    0    0  0.00000000000E+00  0.00000000000E+00  0.62519037828E+02  0.11066130212E+03  0.91308782146E+02 0.  0.
        -13    1    3    3    0    0  0.28021324231E+02  0.35977864303E+02  0.33893122992E+02  0.56818527943E+02  0.00000000000E+00 0.  1.
         13    1    3    3    0    0 -0.28021324231E+02 -0.35977864303E+02  0.28625914836E+02  0.53842774182E+02  0.00000000000E+00 0. -1.
<mgrwt>
<rscale>  0 0.91308782E+02</rscale>
<asrwt>0</asrwt>
<pdfrwt beam="1">  1        1 0.13321564E-01 0.91308782E+02</pdfrwt>
<pdfrwt beam="2">  1       -1 0.37032511E-02 0.91308782E+02</pdfrwt>
<totfact> 0.10161863E+05</totfact>
</mgrwt>
</event>
<event>
 5    1  0.1242969E+001  0.9496856E+02  0.7546771E-02  0.1291247E+00
          1   -1    0    0  501    0  0.00000000000E+00  0.00000000000E+00  0.13902669119E+03  0.13902669119E+03  0.00000000000E+00 0. -1.
         -1   -1    0    0    0  501 -0.00000000000E+00 -0.00000000000E+00 -0.16218158614E+02  0.16218158614E+02  0.00000000000E+00 0.  1.
         23    2    1    2    0    0  0.00000000000E+00  0.00000000000E+00  0.12280853258E+03  0.15524484981E+03  0.94968561730E+02 0.  0.
        -13    1    3    3    0    0 -0.47288361840E+02  0.24786058579E+01  0.67166261580E+02  0.82180529002E+02  0.00000000000E+00 0. -1.
         13    1    3    3    0    0  0.47288361840E+02 -0.24786058579E+01  0.55642270998E+02  0.73064320803E+02  0.00000000000E+00 0.  1.
<mgrwt>
<rscale>  0 0.94968562E+02</rscale>
<asrwt>0</asrwt>
<pdfrwt beam="1">  1        1 0.21388721E-01 0.94968562E+02</pdfrwt>
<pdfrwt beam="2">  1       -1 0.24951014E-02 0.94968562E+02</pdfrwt>
<totfact> 0.99024589E+04</totfact>
</mgrwt>
</event>
<event>
 5    1  0.1242969E+001  0.9247822E+02  0.7546771E-02  0.1296959E+00
          1   -1    0    0  501    0  0.00000000000E+00  0.00000000000E+00  0.23529241840E+02  0.23529241840E+02  0.00000000000E+00 0. -1.
         -1   -1    0    0    0  501 -0.00000000000E+00 -0.00000000000E+00 -0.90868007790E+02  0.90868007790E+02  0.00000000000E+00 0.  1.
         23    2    1    2    0    0  0.00000000000E+00  0.00000000000E+00 -0.67338765949E+02  0.11439724963E+03  0.92478220805E+02 0.  0.
        -11    1    3    3    0    0 -0.37092900271E+02 -0.22050230580E+02 -0.13120003003E+02  0.45102443370E+02  0.00000000000E+00 0. -1.
         11    1    3    3    0    0  0.37092900271E+02  0.22050230580E+02 -0.54218762947E+02  0.69294806260E+02  0.00000000000E+00 0.  1.
<mgrwt>
<rscale>  0 0.92478221E+02</rscale>
<asrwt>0</asrwt>
<pdfrwt beam="1">  1        1 0.36198833E-02 0.92478221E+02</pdfrwt>
<pdfrwt beam="2">  1       -1 0.13979694E-01 0.92478221E+02</pdfrwt>
<totfact> 0.79836822E+04</totfact>
</mgrwt>
</event>
<event>
 5    1  0.1242969E+001  0.9037125E+02  0.7546771E-02  0.1301955E+00
          2   -1    0    0  501    0  0.00000000000E+00  0.00000000000E+00  0.21535228841E+03  0.21535228841E+03  0.00000000000E+00 0. -1.
         -2   -1    0    0    0  501 -0.00000000000E+00 -0.00000000000E+00 -0.94809341636E+01  0.94809341636E+01  0.00000000000E+00 0.  1.
         23    2    1    2    0    0  0.00000000000E+00  0.00000000000E+00  0.20587135425E+03  0.22483322257E+03  0.90371253580E+02 0.  0.
        -13    1    3    3    0    0 -0.37968139839E+02  0.23255688009E+02  0.12209952555E+03  0.12996422895E+03  0.00000000000E+00 0. -1.
         13    1    3    3    0    0  0.37968139839E+02 -0.23255688009E+02  0.83771828701E+02  0.94868993625E+02  0.00000000000E+00 0.  1.
<mgrwt>
<rscale>  0 0.90371254E+02</rscale>
<asrwt>0</asrwt>
<pdfrwt beam="1">  1        2 0.33131118E-01 0.90371254E+02</pdfrwt>
<pdfrwt beam="2">  1       -2 0.14586054E-02 0.90371254E+02</pdfrwt>
<totfact> 0.16272582E+05</totfact>
</mgrwt>
</event>
<event>
 5    1  0.1242969E+001  0.9407855E+02  0.7546771E-02  0.1293265E+00
          2   -1    0    0  501    0  0.00000000000E+00  0.00000000000E+00  0.50208764510E+02  0.50208764510E+02  0.00000000000E+00 0. -1.
         -2   -1    0    0    0  501 -0.00000000000E+00 -0.00000000000E+00 -0.44069866249E+02  0.44069866249E+02  0.00000000000E+00 0.  1.
         23    2    1    2    0    0  0.00000000000E+00  0.00000000000E+00  0.61388982610E+01  0.94278630758E+02  0.94078553059E+02 0.  0.
        -13    1    3    3    0    0  0.20832831202E+02 -0.31144865708E+01 -0.39079321840E+02  0.44394822648E+02  0.00000000000E+00 0.  1.
         13    1    3    3    0    0 -0.20832831202E+02  0.31144865708E+01  0.45218220101E+02  0.49883808110E+02  0.00000000000E+00 0. -1.
<mgrwt>
<rscale>  0 0.94078553E+02</rscale>
<asrwt>0</asrwt>
<pdfrwt beam="1">  1        2 0.77244253E-02 0.94078553E+02</pdfrwt>
<pdfrwt beam="2">  1       -2 0.67799794E-02 0.94078553E+02</pdfrwt>
<totfact> 0.92506765E+04</totfact>
</mgrwt>
</event>
<event>
 5    1  0.1242969E+001  0.7515056E+02  0.7546771E-02  0.1343405E+00
          1   -1    0    0  501    0  0.00000000000E+00  0.00000000000E+00  0.33592282585E+02  0.33592282585E+02  0.00000000000E+00 0.  1.
         -1   -1    0    0    0  501 -0.00000000000E+00 -0.00000000000E+00 -0.42030534992E+02  0.42030534992E+02  0.00000000000E+00 0. -1.
         23    2    1    2    0    0  0.00000000000E+00  0.00000000000E+00 -0.84382524073E+01  0.75622817576E+02  0.75150558444E+02 0.  0.
        -13    1    3    3    0    0 -0.25056842423E+02  0.96265072481E+01  0.22240342889E+02  0.34858970808E+02  0.00000000000E+00 0.  1.
         13    1    3    3    0    0  0.25056842423E+02 -0.96265072481E+01 -0.30678595296E+02  0.40763846768E+02  0.00000000000E+00 0. -1.
<mgrwt>
<rscale>  0 0.75150558E+02</rscale>
<asrwt>0</asrwt>
<pdfrwt beam="1">  1        1 0.51680435E-02 0.75150558E+02</pdfrwt>
<pdfrwt beam="2">  1       -1 0.64662362E-02 0.75150558E+02</pdfrwt>
<totfact> 0.15169498E+05</totfact>
</mgrwt>
</event>
<event>
 5    1  0.1242969E+001  0.9091120E+02  0.7546771E-02  0.1300660E+00
          3   -1    0    0  501    0  0.00000000000E+00  0.00000000000E+00  0.54015878784E+02  0.54015878784E+02  0.00000000000E+00 0. -1.
         -3   -1    0    0    0  501 -0.00000000000E+00 -0.00000000000E+00 -0.38251925852E+02  0.38251925852E+02  0.00000000000E+00 0.  1.
         23    2    1    2    0    0  0.00000000000E+00  0.00000000000E+00  0.15763952932E+02  0.92267804636E+02  0.90911196012E+02 0.  0.
        -11    1    3    3    0    0  0.20844822264E+02  0.13883932420E+02 -0.30617457038E+02  0.39556274725E+02  0.00000000000E+00 0.  1.
         11    1    3    3    0    0 -0.20844822264E+02 -0.13883932420E+02  0.46381409971E+02  0.52711529911E+02  0.00000000000E+00 0. -1.
<mgrwt>
<rscale>  0 0.90911196E+02</rscale>
<asrwt>0</asrwt>
<pdfrwt beam="1">  1        3 0.83101351E-02 0.90911196E+02</pdfrwt>
<pdfrwt beam="2">  1       -3 0.58849117E-02 0.90911196E+02</pdfrwt>
<totfact> 0.35536402E+04</totfact>
</mgrwt>
</event>
<event>
 5    1  0.1242969E+001  0.9090779E+02  0.7546771E-02  0.1300668E+00
          2   -1    0    0  501    0  0.00000000000E+00  0.00000000000E+00  0.36268101054E+02  0.36268101054E+02  0.00000000000E+00 0.  1.
         -2   -1    0    0    0  501 -0.00000000000E+00 -0.00000000000E+00 -0.56966217410E+02  0.56966217410E+02  0.00000000000E+00 0. -1.
         23    2    1    2    0    0  0.00000000000E+00  0.00000000000E+00 -0.20698116356E+02  0.93234318465E+02  0.90907789099E+02 0.  0.
        -13    1    3    3    0    0  0.19730223193E+02 -0.37292355042E+02 -0.27695065905E+02  0.50467991117E+02  0.00000000000E+00 0. -1.
         13    1    3    3    0    0 -0.19730223193E+02  0.37292355042E+02  0.69969495488E+01  0.42766327348E+02  0.00000000000E+00 0.  1.
<mgrwt>
<rscale>  0 0.90907789E+02</rscale>
<asrwt>0</asrwt>
<pdfrwt beam="1">  1        2 0.55797079E-02 0.90907789E+02</pdfrwt>
<pdfrwt beam="2">  1       -2 0.87640333E-02 0.90907789E+02</pdfrwt>
<totfact> 0.93801942E+04</totfact>
</mgrwt>
</event>
<event>
 5    1  0.1242969E+001  0.9091405E+02  0.7546771E-02  0.1300653E+00
         -1   -1    0    0    0  501 -0.00000000000E+00  0.00000000000E+00  0.18039178798E+03  0.18039178798E+03  0.00000000000E+00 0.  1.
          1   -1    0    0  501    0  0.00000000000E+00 -0.00000000000E+00 -0.11454740624E+02  0.11454740624E+02  0.00000000000E+00 0. -1.
         23    2    1    2    0    0  0.00000000000E+00  0.00000000000E+00  0.16893704735E+03  0.19184652860E+03  0.90914050443E+02 0.  0.
        -13    1    3    3    0    0  0.32355952381E+02  0.21967970784E+02  0.13336145533E+03  0.13897761389E+03  0.00000000000E+00 0.  1.
         13    1    3    3    0    0 -0.32355952381E+02 -0.21967970784E+02  0.35575592022E+02  0.52868914710E+02  0.00000000000E+00 0. -1.
<mgrwt>
<rscale>  0 0.90914050E+02</rscale>
<asrwt>0</asrwt>
<pdfrwt beam="2">  1        1 0.17622679E-02 0.90914050E+02</pdfrwt>
<pdfrwt beam="1">  1       -1 0.27752581E-01 0.90914050E+02</pdfrwt>
<totfact> 0.71966589E+04</totfact>
</mgrwt>
</event>
<event>
 5    1  0.1242969E+001  0.9189199E+02  0.7546771E-02  0.1298334E+00
         -4   -1    0    0    0  501 -0.00000000000E+00  0.00000000000E+00  0.15466178825E+03  0.15466178825E+03  0.00000000000E+00 0. -1.
          4   -1    0    0  501    0  0.00000000000E+00 -0.00000000000E+00 -0.13649358735E+02  0.13649358735E+02  0.00000000000E+00 0.  1.
         23    2    1    2    0    0  0.00000000000E+00  0.00000000000E+00  0.14101242951E+03  0.16831114699E+03  0.91891985079E+02 0.  0.
        -11    1    3    3    0    0 -0.83243339949E+01 -0.41411039172E+02  0.37391592352E+02  0.56411877121E+02  0.00000000000E+00 0.  1.
         11    1    3    3    0    0  0.83243339949E+01  0.41411039172E+02  0.10362083716E+03  0.11189926986E+03  0.00000000000E+00 0. -1.
<mgrwt>
<rscale>  0 0.91891985E+02</rscale>
<asrwt>0</asrwt>
<pdfrwt beam="2">  1        4 0.20999014E-02 0.91891985E+02</pdfrwt>
<pdfrwt beam="1">  1       -4 0.23794120E-01 0.91891985E+02</pdfrwt>
<totfact> 0.22312028E+04</totfact>
</mgrwt>
</event>
<event>
 5    1  0.1242969E+001  0.9370362E+02  0.7546771E-02  0.1294123E+00
          4   -1    0    0  501    0  0.00000000000E+00  0.00000000000E+00  0.15205286004E+03  0.15205286004E+03  0.00000000000E+00 0.  1.
         -4   -1    0    0    0  501 -0.00000000000E+00 -0.00000000000E+00 -0.14436375639E+02  0.14436375639E+02  0.00000000000E+00 0. -1.
         23    2    1    2    0    0  0.00000000000E+00  0.00000000000E+00  0.13761648440E+03  0.16648923568E+03  0.93703622224E+02 0.  0.
        -13    1    3    3    0    0 -0.32382517602E+02 -0.67612519786E+01  0.98595502664E+01  0.34518874635E+02  0.00000000000E+00 0. -1.
         13    1    3    3    0    0  0.32382517602E+02  0.67612519786E+01  0.12775693413E+03  0.13197036104E+03  0.00000000000E+00 0.  1.
<mgrwt>
<rscale>  0 0.93703622E+02</rscale>
<asrwt>0</asrwt>
<pdfrwt beam="1">  1        4 0.23392747E-01 0.93703622E+02</pdfrwt>
<pdfrwt beam="2">  1       -4 0.22209810E-02 0.93703622E+02</pdfrwt>
<totfact> 0.21246888E+04</totfact>
</mgrwt>
</event>
<event>
 5    1  0.1242969E+001  0.9326179E+02  0.7546771E-02  0.1295140E+00
         -1   -1    0    0    0  501 -0.00000000000E+00  0.00000000000E+00  0.38052305173E+02  0.38052305173E+02  0.00000000000E+00 0.  1.
          1   -1    0    0  501    0  0.00000000000E+00 -0.00000000000E+00 -0.57143459693E+02  0.57143459693E+02  0.00000000000E+00 0. -1.
         23    2    1    2    0    0  0.00000000000E+00  0.00000000000E+00 -0.19091154520E+02  0.95195764866E+02  0.93261789965E+02 0.  0.
        -13    1    3    3    0    0  0.10812215482E+02 -0.36250250527E+02  0.18286231320E+02  0.42016317340E+02  0.00000000000E+00 0.  1.
         13    1    3    3    0    0 -0.10812215482E+02  0.36250250527E+02 -0.37377385840E+02  0.53179447526E+02  0.00000000000E+00 0. -1.
<mgrwt>
<rscale>  0 0.93261790E+02</rscale>
<asrwt>0</asrwt>
<pdfrwt beam="2">  1        1 0.87913015E-02 0.93261790E+02</pdfrwt>
<pdfrwt beam="1">  1       -1 0.58542008E-02 0.93261790E+02</pdfrwt>
<totfact> 0.89822777E+04</totfact>
</mgrwt>
</event>
<event>
 5    1  0.1242969E+001  0.9429854E+02  0.7546771E-02  0.1292764E+00
         -3   -1    0    0    0  501 -0.00000000000E+00  0.00000000000E+00  0.44287170565E+02  0.44287170565E+02  0.00000000000E+00 0.  1.
          3   -1    0    0  501    0  0.00000000000E+00 -0.00000000000E+00 -0.50196335568E+02  0.50196335568E+02  0.00000000000E+00 0. -1.
         23    2    1    2    0    0  0.00000000000E+00  0.00000000000E+00 -0.59091650027E+01  0.94483506132E+02  0.94298540286E+02 0.  0.
        -11    1    3    3    0    0 -0.38443520230E+02  0.18111633752E+02 -0.23418113550E+02  0.48521578365E+02  0.00000000000E+00 0. -1.
         11    1    3    3    0    0  0.38443520230E+02 -0.18111633752E+02  0.17508948548E+02  0.45961927767E+02  0.00000000000E+00 0.  1.
<mgrwt>
<rscale>  0 0.94298540E+02</rscale>
<asrwt>0</asrwt>
<pdfrwt beam="2">  1        3 0.77225131E-02 0.94298540E+02</pdfrwt>
<pdfrwt beam="1">  1       -3 0.68134109E-02 0.94298540E+02</pdfrwt>
<totfact> 0.32001429E+04</totfact>
</mgrwt>
</event>
<event>
 5    1  0.1242969E+001  0.9447313E+02  0.7546771E-02  0.1292367E+00
          1   -1    0    0  501    0  0.00000000000E+00  0.00000000000E+00  0.27049881113E+02  0.27049881113E+02  0.00000000000E+00 0. -1.
         -1   -1    0    0    0  501 -0.00000000000E+00 -0.00000000000E+00 -0.82488085386E+02  0.82488085386E+02  0.00000000000E+00 0.  1.
         23    2    1    2    0    0  0.00000000000E+00  0.00000000000E+00 -0.55438204273E+02  0.10953796650E+03  0.94473126400E+02 0.  0.
        -11    1    3    3    0    0 -0.27135690426E+02  0.21921879704E+01  0.17038843495E+02  0.32116562248E+02  0.00000000000E+00 0. -1.
         11    1    3    3    0    0  0.27135690426E+02 -0.21921879704E+01 -0.72477047768E+02  0.77421404251E+02  0.00000000000E+00 0.  1.
<mgrwt>
<rscale>  0 0.94473126E+02</rscale>
<asrwt>0</asrwt>
<pdfrwt beam="1">  1        1 0.41615202E-02 0.94473126E+02</pdfrwt>
<pdfrwt beam="2">  1       -1 0.12690475E-01 0.94473126E+02</pdfrwt>
<totfact> 0.76877488E+04</totfact>
</mgrwt>
</event>
<event>
 5    1  0.1242969E+001  0.9143735E+02  0.7546771E-02  0.1299408E+00
         -1   -1    0    0    0  501 -0.00000000000E+00  0.00000000000E+00  0.70392635549E+02  0.70392635549E+02  0.00000000000E+00 0.  1.
          1   -1    0    0  501    0  0.00000000000E+00 -0.00000000000E+00 -0.29693405243E+02  0.29693405243E+02  0.00000000000E+00 0. -1.
         23    2    1    2    0    0  0.00000000000E+00  0.00000000000E+00  0.40699230306E+02  0.10008604079E+03  0.91437345838E+02 0.  0.
        -13    1    3    3    0    0  0.33961857699E+02  0.10903997284E+02 -0.10954246104E+02  0.37313542352E+02  0.00000000000E+00 0. -1.
         13    1    3    3    0    0 -0.33961857699E+02 -0.10903997284E+02  0.51653476409E+02  0.62772498439E+02  0.00000000000E+00 0.  1.
<mgrwt>
<rscale>  0 0.91437346E+02</rscale>
<asrwt>0</asrwt>
<pdfrwt beam="2">  1        1 0.45682162E-02 0.91437346E+02</pdfrwt>
<pdfrwt beam="1">  1       -1 0.10829636E-01 0.91437346E+02</pdfrwt>
<totfact> 0.85833558E+04</totfact>
</mgrwt>
</event>
<event>
 5    1  0.1242969E+001  0.8985434E+02  0.7546771E-02  0.1303205E+00
          2   -1    0    0  501    0  0.00000000000E+00  0.00000000000E+00  0.71462113410E+02  0.71462113410E+02  0.00000000000E+00 0. -1.
         -2   -1    0    0    0  501 -0.00000000000E+00 -0.00000000000E+00 -0.28245044320E+02  0.28245044320E+02  0.00000000000E+00 0.  1.
         23    2    1    2    0    0  0.00000000000E+00  0.00000000000E+00  0.43217069090E+02  0.99707157731E+02  0.89854339027E+02 0.  0.
        -11    1    3    3    0    0  0.13695148005E+02  0.43215988140E+01 -0.25629564711E+02  0.29378697767E+02  0.00000000000E+00 0.  1.
         11    1    3    3    0    0 -0.13695148005E+02 -0.43215988140E+01  0.68846633801E+02  0.70328459964E+02  0.00000000000E+00 0. -1.
<mgrwt>
<rscale>  0 0.89854339E+02</rscale>
<asrwt>0</asrwt>
<pdfrwt beam="1">  1        2 0.10994171E-01 0.89854339E+02</pdfrwt>
<pdfrwt beam="2">  1       -2 0.43453915E-02 0.89854339E+02</pdfrwt>
<totfact> 0.11588412E+05</totfact>
</mgrwt>
</event>
